FOO
135168
    1MOL0     O    1   6.681   1.492   7.035  0.2776 -0.4281 -0.3196
    1MOL0     C    2   6.615   1.579   7.100 -0.4528  0.2493 -0.4566
    1MOL0     O    3   6.538   1.564   7.212 -0.1933 -0.0403  0.1342
    1MOL0     C    4   6.566   1.479   7.316  0.3666 -0.5151  1.0966
    1MOL0     C    5   6.692   1.426   7.321  1.1594  0.4665  0.1089
    1MOL0     C    6   6.722   1.340   7.422  0.2594  1.1794  0.2412
    1MOL0     C    7   6.628   1.310   7.519 -0.4782 -0.9197 -1.1140
    1MOL0     O    8   6.685   1.226   7.619  0.3318 -0.1797 -0.2137
    1MOL0     C    9   6.598   1.120   7.639  1.4404 -1.2404 -0.2316
    1MOL0     C   10   6.676   1.033   7.726  0.9938 -0.4449 -0.5720
    1MOL0     C   11   6.597   0.890   7.745  0.0869 -0.3809 -0.1995
    1MOL0     C   12   6.600   0.811   7.616  1.2619  0.1034  0.6721
    1MOL0     C   13   6.740   0.774   7.562 -0.0802 -0.5540 -0.2862
    1MOL0     C   14   6.747   0.716   7.423  0.1389  0.2860 -0.1182
    1MOL0     C   15   6.744   0.564   7.445 -1.2969  0.4582 -0.2015
    1MOL0     C   16   6.816   0.509   7.304 -0.1426 -0.1877  1.3444
    1MOL0     N   17   6.734   0.547   7.187  0.7291 -0.2808  0.9953
    1MOL0     C   18   6.798   0.583   7.070  0.8383 -1.3298  0.8915
    1MOL0     C   19   6.703   0.582   6.971 -0.0425 -0.2547 -0.9143
    1MOL0     C   20   6.721   0.607   6.827 -0.3420  0.6441 -0.7854
    1MOL0     C   21   6.592   0.572   6.756  0.1865 -0.0596  0.7202
    1MOL0     C   22   6.599   0.590   6.611 -0.0088  0.1853  0.0638
    1MOL0     C   23   6.645   0.466   6.545 -0.0706  0.2796 -0.9368
    1MOL0     O   24   6.698   0.490   6.413 -0.6162  0.2493 -0.3649
    1MOL0     C   25   6.726   0.388   6.334 -0.0246 -0.0167  0.2738
    1MOL0     C   26   6.789   0.418   6.218  1.0044 -0.8642 -0.2932
    1MOL0     C   27   6.823   0.315   6.118  0.6780  0.3708 -1.0975
    1MOL0     C   28   6.792   0.183   6.134  0.4415 -0.0153 -0.0094
    1MOL0     C   29   6.835   0.076   6.033 -0.5498  0.1849 -0.2222
    1MOL0     O   30   6.928   0.125   5.935  0.4931 -0.4092  0.5424
    1MOL0     C   31   6.957   0.044   5.826  0.2386  0.7993 -0.3024
    1MOL0     C   32   6.856  -0.043   5.762 -0.2875  0.7739  0.3336
    1MOL0     C   33   6.902  -0.131   5.663  0.1935  0.0520 -0.5597
    1MOL0     C   34   7.031  -0.107   5.599 -0.1132  0.0072  0.8418
    1MOL0     O   35   7.064  -0.174   5.487 -0.0130  0.1120  0.3582
    1MOL0     C   36   7.195  -0.147   5.426  0.7446 -0.6199 -0.6440
    1MOL0     C   37   7.237  -0.251   5.318  0.5833 -0.6436  1.1302
    1MOL0     C   38   7.387  -0.239   5.269 -0.6037  0.3438 -0.9802
    1MOL0     C   39   7.427  -0.363   5.180  1.1527  0.3678  0.3832
    1MOL0     C   40   7.557  -0.344   5.099  0.5080 -0.3927  0.8858
    1MOL0     C   41   7.552  -0.414   4.961  0.0390 -0.2015 -0.1187
    1MOL0     C   42   7.539  -0.558   4.985 -0.6764  0.7596 -0.1411
    1MOL0     C   43   7.513  -0.635   4.857 -0.3708  0.2643 -0.0119
    1MOL0    Cl   44   7.495  -0.818   4.874 -0.1379  0.0588 -0.8073
    1MOL0     C   45   7.115  -0.009   5.656  0.3571 -0.4178 -0.3498
    1MOL0     C   46   7.075   0.063   5.772 -0.1542 -0.2344  0.9766
    1MOL0     O   47   6.812  -0.044   6.059  0.3881  0.1043  0.6522
    1MOL0     C   48   6.741   0.150   6.259 -0.9252  0.4285  0.7481
    1MOL0     C   49   6.705   0.249   6.352 -0.4347  0.4357  0.2585
    1MOL0     N   50   6.593   0.523   7.034 -0.7766 -0.6961 -0.5260
    1MOL0     N   51   6.614   0.502   7.161  0.1433  0.5902 -0.3554
    1MOL0     C   52   6.500   1.366   7.517 -0.1528  0.7046 -0.1569
    1MOL0     C   53   6.467   1.443   7.408  0.6400  0.0123  0.1014
    1MOL0     C   54   6.625   1.717   7.047  0.0483 -0.5539  0.2202
    1MOL0     C   55   6.608   1.823   7.138  0.5033 -1.1415  0.6466
    1MOL0     C   56   6.644   1.947   7.090 -0.5646  0.4418  0.3786
    1MOL0     C   57   6.687   1.966   6.955 -0.6658 -0.2356 -0.2731
    1MOL0     O   58   6.699   2.095   6.918 -0.2933  0.3716  0.1427
    1MOL0     C   59   6.736   2.120   6.776  0.4549 -0.7970 -0.2723
    1MOL0     C   60   6.751   2.267   6.755  0.3879 -0.4157 -0.3178
    1MOL0     C   61   6.887   2.345   6.771 -0.5478  0.5770  0.1182
    1MOL0     C   62   6.883   2.494   6.776  0.8776 -0.0168 -0.3956
    1MOL0     C   63   6.766   2.553   6.713  0.7998 -0.8484  0.9424
    1MOL0     C   64   6.661   2.598   6.676 -0.3299 -0.1859  0.1984
    1MOL0     C   65   6.694   1.860   6.871  0.3538  1.0058  0.4251
    1MOL0     C   66   6.660   1.728   6.916 -0.2214 -0.1990 -0.7489
    1MOL0     H   67   6.781   1.440   7.261  1.1046 -0.2898 -0.1607
    1MOL0     H   68   6.822   1.302   7.435 -0.2047 -0.4952 -0.8497
    1MOL0     H   69   6.578   1.070   7.544  2.8374  1.2385 -1.9450
    1MOL0     H   70   6.508   1.162   7.685  2.3360 -0.0504  0.5121
    1MOL0     H   71   6.690   1.077   7.825 -1.1288 -0.2348 -0.3288
    1MOL0     H   72   6.773   1.019   7.676 -0.7074  1.2700 -4.7781
    1MOL0     H   73   6.495   0.905   7.781 -1.6266 -1.3352 -4.0910
    1MOL0     H   74   6.669   0.843   7.813  1.8010  0.1554 -1.5419
    1MOL0     H   75   6.537   0.723   7.634  0.2275  1.0617  2.0312
    1MOL0     H   76   6.543   0.867   7.541 -0.4141 -0.3760  1.5463
    1MOL0     H   77   6.784   0.707   7.636  0.1591  0.3219  0.3903
    1MOL0     H   78   6.805   0.863   7.559 -0.7824 -0.0611 -1.4698
    1MOL0     H   79   6.848   0.736   7.386  0.7181 -0.6327  0.8955
    1MOL0     H   80   6.671   0.758   7.358 -1.8694 -1.3905  1.0075
    1MOL0     H   81   6.818   0.543   7.523 -0.8520  4.4746  0.7049
    1MOL0     H   82   6.642   0.531   7.464 -0.5886 -1.7713  0.0064
    1MOL0     H   83   6.824   0.399   7.305 -0.0239 -0.1776  1.6697
    1MOL0     H   84   6.920   0.539   7.289 -0.5520  2.3449  2.9963
    1MOL0     H   85   6.901   0.616   7.070  1.4626 -2.7388  4.7173
    1MOL0     H   86   6.810   0.564   6.782  0.4813  2.0223 -0.5552
    1MOL0     H   87   6.741   0.715   6.823 -1.9127  0.9554 -0.8783
    1MOL0     H   88   6.510   0.631   6.798  0.8822  0.9525  0.6792
    1MOL0     H   89   6.559   0.469   6.775  0.7610 -1.2228 -3.5304
    1MOL0     H   90   6.507   0.634   6.570  1.1209  5.0574  2.0409
    1MOL0     H   91   6.689   0.649   6.594 -0.1080  0.8737  1.7327
    1MOL0     H   92   6.555   0.409   6.521  0.6010 -2.0577  1.6261
    1MOL0     H   93   6.712   0.403   6.603  0.5286  2.1042  0.4512
    1MOL0     H   94   6.821   0.521   6.214  0.2855 -0.4677  2.2805
    1MOL0     H   95   6.884   0.342   6.032 -0.5348  2.6429 -1.3355
    1MOL0     H   96   6.752  -0.042   5.794 -0.0296  0.0998  1.2460
    1MOL0     H   97   6.839  -0.205   5.615 -2.1317  0.2428  1.9602
    1MOL0     H   98   7.269  -0.145   5.506  1.9601 -3.1585 -1.5860
    1MOL0     H   99   7.197  -0.044   5.389  0.6923  0.5638  2.3888
    1MOL0     H  100   7.175  -0.241   5.229  2.8588 -0.7760 -0.5514
    1MOL0     H  101   7.223  -0.355   5.350  0.2446 -0.4150  1.7463
    1MOL0     H  102   7.446  -0.255   5.360  0.0611 -0.5572 -1.5472
    1MOL0     H  103   7.413  -0.145   5.219  1.5943  0.9976  1.2458
    1MOL0     H  104   7.434  -0.452   5.243  1.4076 -0.8815 -1.3199
    1MOL0     H  105   7.344  -0.394   5.116  0.8091 -2.1996  1.9463
    1MOL0     H  106   7.635  -0.383   5.165 -0.6678 -1.3857  1.7279
    1MOL0     H  107   7.577  -0.237   5.084  0.1690 -0.1822  1.8366
    1MOL0     H  108   7.646  -0.392   4.910 -0.1522  0.6939 -0.0946
    1MOL0     H  109   7.479  -0.373   4.892  2.7872  2.8517 -1.5142
    1MOL0     H  110   7.635  -0.598   5.020  1.6856  3.4799 -2.9498
    1MOL0     H  111   7.457  -0.587   5.052  0.0369 -1.2293 -0.0572
    1MOL0     H  112   7.591  -0.611   4.784  1.6915 -2.2206  1.2065
    1MOL0     H  113   7.414  -0.615   4.813 -0.0858  0.4347 -0.5893
    1MOL0     H  114   7.207   0.024   5.610 -1.0881  0.8956 -2.5080
    1MOL0     H  115   7.133   0.145   5.814 -0.2381  0.2773  0.1238
    1MOL0     H  116   6.726   0.044   6.278 -1.8310  0.5496  0.7439
    1MOL0     H  117   6.667   0.206   6.445 -1.7314 -1.9148 -1.2543
    1MOL0     H  118   6.421   1.341   7.587 -0.7916  0.8310 -0.8082
    1MOL0     H  119   6.363   1.466   7.386  0.9055  0.6170 -0.5720
    1MOL0     H  120   6.579   1.816   7.242 -0.8414  0.2662  0.4084
    1MOL0     H  121   6.643   2.043   7.140 -0.0717  1.7105 -1.9034
    1MOL0     H  122   6.650   2.092   6.714 -1.7324 -0.2258  2.3216
    1MOL0     H  123   6.831   2.074   6.745  1.0005 -0.2408  0.5279
    1MOL0     H  124   6.735   2.275   6.647  2.2721  3.7078 -0.4656
    1MOL0     H  125   6.666   2.315   6.806 -0.4461 -1.2987 -0.8467
    1MOL0     H  126   6.957   2.319   6.692 -0.6024  0.5209  0.0881
    1MOL0     H  127   6.936   2.297   6.857  0.4513 -2.4799 -1.9995
    1MOL0     H  128   6.890   2.533   6.878 -0.5773 -0.7272  0.0114
    1MOL0     H  129   6.966   2.531   6.715 -0.3541 -0.0720 -2.2004
    1MOL0     H  130   6.573   2.650   6.642  1.0385  0.8250 -2.0459
    1MOL0     H  131   6.723   1.875   6.767  1.1672 -0.7085  0.3703
    1MOL0     H  132   6.663   1.643   6.849 -0.5479 -1.9848  1.3881
    2MOL0     O  133   2.069   8.786   8.382 -0.9108 -0.3615 -0.0336
    2MOL0     C  134   1.992   8.784   8.482  0.9551 -0.6190  0.1386
    2MOL0     O  135   1.882   8.700   8.487  0.4449 -0.0017  0.0993
    2MOL0     C  136   1.816   8.667   8.370  0.0136 -0.5867  1.0705
    2MOL0     C  137   1.800   8.756   8.262  0.1525 -0.2672 -0.2105
    2MOL0     C  138   1.747   8.715   8.138  0.0436  0.7448 -0.2788
    2MOL0     C  139   1.698   8.580   8.129 -0.1593 -0.3885 -0.5539
    2MOL0     O  140   1.640   8.526   8.016 -1.4441  0.0161  0.3584
    2MOL0     C  141   1.519   8.596   7.977 -0.0354 -0.1796 -0.3699
    2MOL0     C  142   1.484   8.580   7.826 -0.7565  0.4789 -0.8910
    2MOL0     C  143   1.344   8.619   7.789  1.0179 -0.2343 -0.6340
    2MOL0     C  144   1.329   8.604   7.640  0.4141  0.2818 -0.1563
    2MOL0     C  145   1.188   8.592   7.576  0.7599  0.1514  0.1913
    2MOL0     C  146   1.203   8.635   7.427 -0.2876  0.1114  0.0458
    2MOL0     C  147   1.081   8.598   7.336 -0.6406 -0.0668 -0.6607
    2MOL0     C  148   1.100   8.488   7.243 -0.1568 -0.0480 -0.7222
    2MOL0     N  149   1.197   8.515   7.136  0.7684 -0.0628 -0.8761
    2MOL0     C  150   1.173   8.599   7.032 -0.6982 -0.3378 -0.5361
    2MOL0     C  151   1.308   8.626   6.995 -0.2763 -0.6032  1.0582
    2MOL0     C  152   1.351   8.713   6.879  0.1891 -0.1757  0.2046
    2MOL0     C  153   1.309   8.656   6.747 -0.1190 -0.0545  0.4207
    2MOL0     C  154   1.425   8.566   6.698  0.1600  0.0958  0.7388
    2MOL0     C  155   1.413   8.518   6.552 -0.2467  0.3447  0.7616
    2MOL0     O  156   1.328   8.397   6.534  0.1655  0.8888  0.0688
    2MOL0     C  157   1.253   8.390   6.417  0.0509 -0.2895  0.1241
    2MOL0     C  158   1.133   8.324   6.436  0.9256 -0.1247 -0.4492
    2MOL0     C  159   1.050   8.298   6.324  0.0638  0.0152  0.8040
    2MOL0     C  160   1.086   8.352   6.198  0.3962 -0.7029  0.0152
    2MOL0     C  161   0.990   8.356   6.088  1.3810  0.3805  0.5771
    2MOL0     O  162   0.853   8.333   6.117 -0.4920 -0.3614 -0.0056
    2MOL0     C  163   0.776   8.280   6.015  0.2441  0.0083 -0.5297
    2MOL0     C  164   0.693   8.172   6.035  0.1450 -0.9138 -0.2523
    2MOL0     C  165   0.600   8.131   5.938  0.2625 -0.0301 -0.2170
    2MOL0     C  166   0.613   8.171   5.808 -0.0678  0.1557 -0.2966
    2MOL0     O  167   0.526   8.120   5.704 -0.3082 -0.6418 -0.3080
    2MOL0     C  168   0.542   8.175   5.575  0.1416 -0.5914 -0.4526
    2MOL0     C  169   0.456   8.106   5.476  1.1169  0.6122 -0.3730
    2MOL0     C  170   0.300   8.102   5.510 -0.6039  0.1732 -0.9870
    2MOL0     C  171   0.240   8.234   5.452 -0.7456 -0.6972  0.4368
    2MOL0     C  172   0.090   8.228   5.410 -0.2542 -0.1511  0.2397
    2MOL0     C  173   0.006   8.213   5.536  0.6284  0.3962 -1.1812
    2MOL0     C  174  -0.146   8.233   5.512 -0.6712 -0.2402  0.4819
    2MOL0     C  175  -0.235   8.215   5.642 -0.4844 -0.2365 -0.3892
    2MOL0    Cl  176  -0.390   8.222   5.583 -0.4670  0.0106  0.4518
    2MOL0     C  177   0.711   8.267   5.785  0.0471 -1.2830  0.5053
    2MOL0     C  178   0.794   8.322   5.877 -1.2869  0.4109 -0.1574
    2MOL0     O  179   1.035   8.387   5.980  0.3005  0.2068 -0.7863
    2MOL0     C  180   1.214   8.423   6.184 -0.2830 -0.0001  0.5661
    2MOL0     C  181   1.302   8.435   6.290  0.4613 -0.2080 -0.2191
    2MOL0     N  182   1.402   8.555   7.067 -0.0544 -0.9686  0.3055
    2MOL0     N  183   1.333   8.481   7.142  0.8904  0.8004  0.6053
    2MOL0     C  184   1.699   8.491   8.243  0.1601 -0.6708 -0.0856
    2MOL0     C  185   1.758   8.542   8.361 -0.0191 -0.2769 -0.5093
    2MOL0     C  186   2.008   8.880   8.584  0.2470  0.2725  0.1280
    2MOL0     C  187   2.077   9.007   8.555 -0.0070 -0.1817  0.0515
    2MOL0     C  188   2.074   9.117   8.646 -0.0021 -0.3082  0.4609
    2MOL0     C  189   2.026   9.106   8.771 -0.5816 -0.4210 -1.1568
    2MOL0     O  190   2.014   9.212   8.864  0.3401 -0.5213  0.3207
    2MOL0     C  191   2.098   9.333   8.843 -0.3880  0.3332 -0.9960
    2MOL0     C  192   2.156   9.393   8.982 -0.4943  0.2904  0.2499
    2MOL0     C  193   2.287   9.300   9.001  0.5651 -0.5388  0.5876
    2MOL0     C  194   2.403   9.365   8.918  1.0616 -0.1409  0.1683
    2MOL0     C  195   2.525   9.315   8.981 -0.0264  0.4733 -0.4765
    2MOL0     C  196   2.612   9.263   9.038 -0.7627 -0.2331 -0.0203
    2MOL0     C  197   1.970   8.987   8.801 -0.4375 -0.0724  0.8087
    2MOL0     C  198   1.962   8.868   8.715  0.8389 -0.7617  0.2742
    2MOL0     H  199   1.844   8.856   8.267 -2.1185  0.7557  0.4140
    2MOL0     H  200   1.755   8.774   8.048  0.6814  0.5732 -0.3328
    2MOL0     H  201   1.516   8.705   7.987 -2.9084 -0.2307  0.1706
    2MOL0     H  202   1.438   8.558   8.040  1.9462 -2.7790  0.7926
    2MOL0     H  203   1.491   8.473   7.800  0.4111 -0.2908  2.1733
    2MOL0     H  204   1.556   8.640   7.770 -1.0120  0.1741 -1.5654
    2MOL0     H  205   1.310   8.720   7.817 -0.5499 -0.6621 -0.8911
    2MOL0     H  206   1.272   8.551   7.836  1.3221  1.7190  3.0288
    2MOL0     H  207   1.389   8.683   7.593 -0.8271  1.5717  0.3574
    2MOL0     H  208   1.381   8.511   7.614  1.1354  1.2063 -2.2620
    2MOL0     H  209   1.109   8.657   7.616  0.7418 -0.5117  1.2513
    2MOL0     H  210   1.165   8.487   7.597  0.5220  0.6973  3.0508
    2MOL0     H  211   1.290   8.579   7.394  1.6570  0.6654  3.7112
    2MOL0     H  212   1.214   8.744   7.424  1.0630 -0.0307 -2.1563
    2MOL0     H  213   0.992   8.574   7.395 -0.6096 -1.2493 -1.0727
    2MOL0     H  214   1.050   8.692   7.289  0.1502  2.7791  3.8711
    2MOL0     H  215   0.999   8.472   7.204 -1.5364  4.0535  0.5781
    2MOL0     H  216   1.138   8.411   7.310 -1.7876  0.8518  1.3826
    2MOL0     H  217   1.082   8.637   6.988 -1.9365 -0.8457  1.4402
    2MOL0     H  218   1.458   8.738   6.879  0.5933 -1.5742 -2.1782
    2MOL0     H  219   1.292   8.805   6.886 -0.8234 -0.6547 -1.4609
    2MOL0     H  220   1.272   8.730   6.676 -2.3265 -1.2278  0.2572
    2MOL0     H  221   1.218   8.597   6.765 -0.0819 -0.4407 -0.6082
    2MOL0     H  222   1.520   8.620   6.700  0.1291  0.1294  1.6043
    2MOL0     H  223   1.451   8.486   6.767  5.2448 -0.2020 -1.1005
    2MOL0     H  224   1.511   8.479   6.524 -0.5678 -1.1235  1.5672
    2MOL0     H  225   1.381   8.602   6.489  3.8741 -0.8843 -3.5174
    2MOL0     H  226   1.109   8.286   6.535 -0.8383  3.4300  0.6382
    2MOL0     H  227   0.965   8.231   6.331 -0.0828  0.3504  2.9505
    2MOL0     H  228   0.686   8.130   6.136 -4.3625 -0.0832  0.0212
    2MOL0     H  229   0.533   8.047   5.950  1.1248 -0.8434 -0.8999
    2MOL0     H  230   0.645   8.159   5.544 -0.5140 -1.4038 -2.3547
    2MOL0     H  231   0.513   8.281   5.569 -4.3073 -1.4320  1.7492
    2MOL0     H  232   0.479   8.000   5.463  0.8060 -0.3175  4.6242
    2MOL0     H  233   0.488   8.163   5.388 -0.2336  0.5053 -0.9596
    2MOL0     H  234   0.268   8.093   5.614 -3.3034  1.6468 -1.5941
    2MOL0     H  235   0.252   8.016   5.463  1.0329 -1.4993  0.2473
    2MOL0     H  236   0.258   8.323   5.512 -0.5848  0.4790 -1.2787
    2MOL0     H  237   0.286   8.266   5.358 -0.8984  0.7841  0.8368
    2MOL0     H  238   0.068   8.141   5.346  1.3577 -0.8607  0.5924
    2MOL0     H  239   0.061   8.319   5.357 -2.5690 -1.0915 -0.2271
    2MOL0     H  240   0.035   8.279   5.618  0.8803  0.2249 -1.1324
    2MOL0     H  241   0.023   8.110   5.568 -1.6382 -0.0856 -1.3247
    2MOL0     H  242  -0.161   8.337   5.482  0.6983 -0.1053  0.2296
    2MOL0     H  243  -0.194   8.165   5.441 -2.0512  1.1039  0.0454
    2MOL0     H  244  -0.219   8.296   5.714  0.2192 -0.3264 -0.4377
    2MOL0     H  245  -0.208   8.124   5.697 -1.9395 -0.2002  0.4343
    2MOL0     H  246   0.748   8.280   5.684  3.6359 -3.2132  1.3964
    2MOL0     H  247   0.862   8.404   5.853  0.2229 -0.7151  0.1443
    2MOL0     H  248   1.237   8.465   6.087 -2.0015  2.9895  1.3200
    2MOL0     H  249   1.402   8.477   6.287  0.0575  0.7508 -2.5760
    2MOL0     H  250   1.662   8.390   8.236 -0.5661 -0.2888 -3.7922
    2MOL0     H  251   1.755   8.476   8.447  0.7517 -1.2520 -1.2057
    2MOL0     H  252   2.105   9.031   8.452  2.9405 -3.5442 -0.1514
    2MOL0     H  253   2.109   9.213   8.609 -1.2129 -0.1368 -0.3090
    2MOL0     H  254   2.029   9.399   8.790 -1.6067  2.0101  2.3519
    2MOL0     H  255   2.183   9.318   8.777 -1.9125 -0.5241 -2.8331
    2MOL0     H  256   2.178   9.499   8.970  0.9573 -0.2029 -2.0302
    2MOL0     H  257   2.082   9.363   9.057 -0.3104 -0.8881 -0.0216
    2MOL0     H  258   2.266   9.195   8.977 -1.1333 -1.2202  4.3791
    2MOL0     H  259   2.317   9.305   9.106  1.0965 -0.2653  0.4283
    2MOL0     H  260   2.398   9.336   8.812  0.7625  0.9665 -0.1303
    2MOL0     H  261   2.402   9.474   8.923 -1.5251 -0.1685  2.5983
    2MOL0     H  262   2.698   9.212   9.078 -1.5565  0.0185  2.1656
    2MOL0     H  263   1.926   8.983   8.900  1.8142  2.1853  1.9963
    2MOL0     H  264   1.914   8.781   8.758 -1.2537  0.1707 -0.0314
    3MOL0     O  265   8.257   1.044   7.876  1.0812  0.2241  0.3630
    3MOL0     C  266   8.149   1.020   7.821  0.1473  0.7742  0.0363
    3MOL0     O  267   8.030   0.989   7.890 -0.5019 -0.0393  0.2819
    3MOL0     C  268   8.048   0.989   8.028 -0.7137  0.6474  0.3125
    3MOL0     C  269   7.965   1.079   8.097 -0.6025 -0.2409  0.0613
    3MOL0     C  270   7.952   1.078   8.240  0.1398  0.6905  0.1967
    3MOL0     C  271   8.028   0.987   8.315 -0.5899 -0.8525  0.1022
    3MOL0     O  272   8.021   0.993   8.453  1.0414 -0.4458 -0.7925
    3MOL0     C  273   7.893   0.959   8.503  0.4090  0.3803 -0.3351
    3MOL0     C  274   7.890   0.892   8.643  0.2823 -0.4514  0.2470
    3MOL0     C  275   7.745   0.865   8.693  0.2651 -0.4288 -0.0029
    3MOL0     C  276   7.731   0.831   8.838  0.2871 -0.2519 -0.1250
    3MOL0     C  277   7.707   0.683   8.864  0.2430  0.4111 -0.1303
    3MOL0     C  278   7.837   0.599   8.844  0.5238  0.1057  0.8034
    3MOL0     C  279   7.820   0.460   8.922 -0.0260 -0.3569  0.8151
    3MOL0     C  280   7.705   0.378   8.864 -0.5349 -0.2944  0.3030
    3MOL0     N  281   7.725   0.337   8.725 -0.7042 -1.0354  0.4999
    3MOL0     C  282   7.670   0.379   8.603 -0.5051  0.2115 -0.1099
    3MOL0     C  283   7.725   0.301   8.507 -0.0889 -0.1670  0.3939
    3MOL0     C  284   7.689   0.285   8.366  0.3596  0.7734 -0.0766
    3MOL0     C  285   7.672   0.138   8.330  0.6707 -0.6551  0.1166
    3MOL0     C  286   7.664   0.131   8.178  0.2696  0.3517  0.5495
    3MOL0     C  287   7.654  -0.017   8.144 -0.4346  0.5496  0.6192
    3MOL0     O  288   7.532  -0.073   8.183  0.5003  0.6968 -0.1061
    3MOL0     C  289   7.547  -0.202   8.240 -0.1435  0.6057 -0.2923
    3MOL0     C  290   7.612  -0.299   8.161  0.1867  0.2999  0.3216
    3MOL0     C  291   7.627  -0.433   8.207 -1.0203  0.0738 -0.2293
    3MOL0     C  292   7.571  -0.469   8.336 -0.6480  0.6030  0.0573
    3MOL0     C  293   7.580  -0.600   8.394  0.3727  0.9547  0.1505
    3MOL0     O  294   7.675  -0.685   8.333  0.1892  0.3292  0.3944
    3MOL0     C  295   7.686  -0.823   8.354 -0.3797 -0.7900  0.2085
    3MOL0     C  296   7.762  -0.898   8.266 -0.2758 -0.2914  0.2935
    3MOL0     C  297   7.783  -1.028   8.287  0.1453  0.6882  0.8572
    3MOL0     C  298   7.740  -1.091   8.403  0.6405  0.4303 -0.0726
    3MOL0     O  299   7.746  -1.233   8.432 -0.7526 -0.2987 -0.1641
    3MOL0     C  300   7.784  -1.326   8.325  0.1563  0.0750 -0.1475
    3MOL0     C  301   7.766  -1.476   8.365  0.5956  0.1955 -0.4710
    3MOL0     C  302   7.877  -1.534   8.459 -1.0592  0.2489  0.3411
    3MOL0     C  303   7.835  -1.680   8.504  0.3001  0.3096 -0.2899
    3MOL0     C  304   7.931  -1.744   8.607  0.2498 -0.1784  0.0688
    3MOL0     C  305   7.914  -1.893   8.623  0.2669  0.5978  0.2344
    3MOL0     C  306   8.001  -1.958   8.731  0.7055  1.3449  0.8525
    3MOL0     C  307   8.150  -1.965   8.675  0.1284  0.1409 -0.0952
    3MOL0    Cl  308   8.170  -2.044   8.514  0.1252 -0.1950  0.2476
    3MOL0     C  309   7.671  -1.015   8.502 -0.5471 -0.0693  0.6229
    3MOL0     C  310   7.641  -0.883   8.473  0.0039  0.2525  0.2832
    3MOL0     O  311   7.508  -0.637   8.483  0.2260  0.2058 -0.0900
    3MOL0     C  312   7.495  -0.373   8.404 -0.4067  0.1121 -0.3013
    3MOL0     C  313   7.488  -0.238   8.358  0.1636 -0.4677 -0.6405
    3MOL0     N  314   7.822   0.230   8.564  0.2181  0.3529 -0.1582
    3MOL0     N  315   7.812   0.237   8.694 -0.4368 -0.0461  0.2665
    3MOL0     C  316   8.125   0.912   8.255  0.4600 -0.4334  0.1554
    3MOL0     C  317   8.127   0.904   8.114  0.2143 -0.9516 -0.0719
    3MOL0     C  318   8.141   1.004   7.681  0.0833  0.1054  0.3262
    3MOL0     C  319   8.018   0.965   7.617 -0.5662 -0.0559  0.5662
    3MOL0     C  320   8.001   0.943   7.487  0.0013 -0.8262 -0.0920
    3MOL0     C  321   8.102   0.965   7.394  0.5518 -0.9705  0.6091
    3MOL0     O  322   8.064   0.935   7.264 -0.1328  0.5554 -0.2377
    3MOL0     C  323   8.142   0.956   7.147 -0.0985  0.1974 -0.4055
    3MOL0     C  324   8.141   1.104   7.094 -0.2431 -0.0135  0.0564
    3MOL0     C  325   8.009   1.147   7.029  0.5337  0.7751 -0.3065
    3MOL0     C  326   8.029   1.292   6.974  0.5547 -0.3300 -0.3036
    3MOL0     C  327   7.897   1.347   6.935  0.4572  0.1307  0.9177
    3MOL0     C  328   7.791   1.397   6.903 -0.4273  1.0232 -0.4995
    3MOL0     C  329   8.228   1.003   7.444  0.4357  0.3051 -0.4990
    3MOL0     C  330   8.251   1.021   7.588 -1.0753 -0.1986  0.8431
    3MOL0     H  331   7.899   1.148   8.044  0.6042  0.6542 -0.3050
    3MOL0     H  332   7.905   1.159   8.295  1.2566  1.2520  0.3633
    3MOL0     H  333   7.845   0.889   8.434  0.5522 -1.0086  0.9283
    3MOL0     H  334   7.840   1.055   8.510 -0.1364 -0.0479  2.3144
    3MOL0     H  335   7.929   0.961   8.719  2.0329 -2.7603  1.5892
    3MOL0     H  336   7.950   0.801   8.638  0.0560 -0.7647  2.2059
    3MOL0     H  337   7.699   0.791   8.627  2.3869 -1.2321 -0.6772
    3MOL0     H  338   7.690   0.959   8.679 -0.6654 -1.0219 -0.4574
    3MOL0     H  339   7.819   0.864   8.894  0.3737  2.8656 -1.8569
    3MOL0     H  340   7.643   0.881   8.880  0.0871  0.4563 -1.3269
    3MOL0     H  341   7.624   0.647   8.803  0.5080  0.6449 -0.6417
    3MOL0     H  342   7.672   0.674   8.967  1.0000  0.1826  0.1190
    3MOL0     H  343   7.927   0.643   8.887  0.0569  0.6500  1.2314
    3MOL0     H  344   7.859   0.581   8.738 -0.5802 -2.6313  0.9562
    3MOL0     H  345   7.921   0.417   8.914  0.1182  0.1602 -0.5211
    3MOL0     H  346   7.798   0.501   9.021  1.6364 -0.8434  1.4260
    3MOL0     H  347   7.614   0.438   8.866  0.4653  1.5964 -2.6643
    3MOL0     H  348   7.686   0.286   8.918 -0.2594 -0.9751 -0.7198
    3MOL0     H  349   7.591   0.453   8.601  0.4497  1.2452 -0.4820
    3MOL0     H  350   7.775   0.332   8.318 -0.3174  3.4896  1.1746
    3MOL0     H  351   7.596   0.331   8.331 -0.0658  0.7139  0.9660
    3MOL0     H  352   7.577   0.109   8.375 -0.3705  1.5553 -0.4738
    3MOL0     H  353   7.755   0.078   8.368 -0.3288 -1.3287  1.2899
    3MOL0     H  354   7.578   0.184   8.138  1.0677 -0.0036 -1.7925
    3MOL0     H  355   7.751   0.173   8.126  1.6635 -1.4564  1.3221
    3MOL0     H  356   7.740  -0.072   8.184  0.1819  0.8300 -0.2705
    3MOL0     H  357   7.668  -0.019   8.035  2.6265  0.2872  0.9311
    3MOL0     H  358   7.632  -0.263   8.061  0.3085 -0.3500  0.1047
    3MOL0     H  359   7.672  -0.515   8.153  1.2167  0.8633  0.3255
    3MOL0     H  360   7.811  -0.854   8.180  3.3264 -2.6272  0.9709
    3MOL0     H  361   7.828  -1.094   8.213 -0.4795  1.2302 -0.0421
    3MOL0     H  362   7.891  -1.322   8.302  0.6770 -2.5296  1.3593
    3MOL0     H  363   7.711  -1.313   8.245  0.4456  2.3298 -0.0912
    3MOL0     H  364   7.767  -1.527   8.268 -2.1664  2.0800 -1.6254
    3MOL0     H  365   7.663  -1.484   8.400 -0.5440 -2.1013 -3.8945
    3MOL0     H  366   7.886  -1.470   8.547  0.5787 -1.8978  1.8788
    3MOL0     H  367   7.975  -1.538   8.411 -0.0886  0.4755  2.1757
    3MOL0     H  368   7.732  -1.678   8.540  0.6262 -3.0618  1.1502
    3MOL0     H  369   7.837  -1.745   8.417  0.8083  1.0606 -0.8588
    3MOL0     H  370   7.919  -1.697   8.705 -1.4853  2.2105 -1.2176
    3MOL0     H  371   8.035  -1.721   8.583 -0.0938  0.4734 -0.8645
    3MOL0     H  372   7.948  -1.946   8.534 -0.4149  0.5726 -0.0170
    3MOL0     H  373   7.813  -1.914   8.660  0.1814 -0.7349 -0.7003
    3MOL0     H  374   7.986  -1.902   8.824  0.5809 -0.1292  1.7461
    3MOL0     H  375   7.966  -2.060   8.750 -1.8211  2.0678  0.4441
    3MOL0     H  376   8.215  -2.007   8.752  1.0826  0.9496 -0.4334
    3MOL0     H  377   8.176  -1.859   8.674 -0.3696  0.4673  4.2660
    3MOL0     H  378   7.630  -1.067   8.588 -0.8956  1.2896  1.3087
    3MOL0     H  379   7.561  -0.854   8.541 -0.5461 -0.2291 -0.1421
    3MOL0     H  380   7.450  -0.391   8.501  2.1926  0.2079  0.9915
    3MOL0     H  381   7.438  -0.150   8.396 -0.8377 -0.4015 -2.0164
    3MOL0     H  382   8.172   0.844   8.325 -1.0821 -0.2088  1.4512
    3MOL0     H  383   8.202   0.845   8.061  1.4480  1.1847 -0.8687
    3MOL0     H  384   7.936   0.965   7.688  0.1699  2.5426  1.5143
    3MOL0     H  385   7.907   0.913   7.442  0.2200 -0.8207 -0.5617
    3MOL0     H  386   8.103   0.892   7.067  1.6049 -0.7255 -0.5474
    3MOL0     H  387   8.244   0.923   7.171  0.3313  0.8257 -1.3161
    3MOL0     H  388   8.170   1.164   7.181  2.3383 -1.9029  0.6306
    3MOL0     H  389   8.219   1.116   7.019  1.2756  2.2444  1.8647
    3MOL0     H  390   7.929   1.145   7.104  0.9446  2.0015  0.2042
    3MOL0     H  391   7.978   1.079   6.950 -0.6998 -0.6749  1.3484
    3MOL0     H  392   8.085   1.346   7.051 -2.1184  2.2129  0.0618
    3MOL0     H  393   8.097   1.278   6.889  0.9858  0.4379 -0.0942
    3MOL0     H  394   7.692   1.423   6.871  0.0764  0.7700 -2.3859
    3MOL0     H  395   8.302   1.032   7.371  0.0825  0.5009 -0.7821
    3MOL0     H  396   8.350   1.040   7.628 -1.1819  0.8065  0.6480
    4MOL0     O  397   7.675   2.675   8.517  0.1829 -0.1952  0.5308
    4MOL0     C  398   7.597   2.655   8.430  0.6925 -0.6231 -0.1283
    4MOL0     O  399   7.540   2.752   8.358  0.2986 -0.1881  0.7723
    4MOL0     C  400   7.527   2.880   8.397 -0.3092 -0.1889 -1.7893
    4MOL0     C  401   7.424   2.911   8.488 -0.6878  0.1559 -0.7112
    4MOL0     C  402   7.398   3.047   8.526  0.1121  0.5395 -0.2406
    4MOL0     C  403   7.483   3.149   8.474 -0.2025  0.1685  0.7896
    4MOL0     O  404   7.478   3.280   8.499  0.3824  0.4915  0.4320
    4MOL0     C  405   7.350   3.328   8.524  0.2575  0.4047  0.1214
    4MOL0     C  406   7.364   3.481   8.545 -0.6286 -1.1221 -0.5349
    4MOL0     C  407   7.352   3.558   8.414 -0.0338  0.1773  0.0171
    4MOL0     C  408   7.362   3.713   8.442  0.7042  0.6781  0.3556
    4MOL0     C  409   7.324   3.793   8.307 -0.4632  0.9312  1.4617
    4MOL0     C  410   7.332   3.947   8.324  0.7727  0.1669  0.3914
    4MOL0     C  411   7.368   4.017   8.194 -0.7872  0.0911 -0.2403
    4MOL0     C  412   7.264   3.995   8.082  0.1321 -0.0219 -0.1631
    4MOL0     N  413   7.308   4.048   7.950  0.1073  0.1370 -0.5291
    4MOL0     C  414   7.287   4.181   7.904 -0.2971  0.8320 -0.2764
    4MOL0     C  415   7.358   4.185   7.788  1.7565  0.7178  0.8987
    4MOL0     C  416   7.386   4.298   7.698  0.7702 -0.2287  0.3815
    4MOL0     C  417   7.251   4.375   7.655 -0.1011  0.4822  0.2693
    4MOL0     C  418   7.286   4.523   7.616  0.1110  0.8594  0.4533
    4MOL0     C  419   7.160   4.604   7.613 -0.0247 -1.0485  0.0341
    4MOL0     O  420   7.050   4.547   7.543 -0.4555 -0.4403  0.9677
    4MOL0     C  421   6.917   4.603   7.547 -0.1431  0.7441 -0.0431
    4MOL0     C  422   6.809   4.520   7.531  0.3135 -0.8611 -0.4986
    4MOL0     C  423   6.679   4.566   7.532  0.1394  1.0111  0.1356
    4MOL0     C  424   6.652   4.699   7.556  0.4142 -0.1509 -0.2085
    4MOL0     C  425   6.509   4.747   7.569  0.2252  0.4024  0.4774
    4MOL0     O  426   6.479   4.824   7.675  0.7087  0.6954  0.6579
    4MOL0     C  427   6.346   4.872   7.701  0.3763  0.7433  0.2673
    4MOL0     C  428   6.311   4.895   7.834  0.5316 -0.4850  0.0275
    4MOL0     C  429   6.183   4.938   7.877  0.0172 -0.2126  0.5893
    4MOL0     C  430   6.092   4.969   7.782  1.3055 -0.1726  0.1653
    4MOL0     O  431   5.970   5.040   7.796 -0.1701  0.5320 -0.5024
    4MOL0     C  432   5.909   5.046   7.931 -0.8500 -0.4491 -0.4515
    4MOL0     C  433   5.835   4.905   7.956 -0.3667  0.7600  0.6430
    4MOL0     C  434   5.730   4.908   8.072  0.3197 -0.0097  0.1377
    4MOL0     C  435   5.598   4.989   8.050  0.3190 -0.0233  0.1568
    4MOL0     C  436   5.501   4.961   8.169 -0.8027 -0.2338  0.0452
    4MOL0     C  437   5.366   4.999   8.140 -0.7329 -0.4067 -0.5109
    4MOL0     C  438   5.292   4.988   8.273 -0.3359 -0.5690  0.2624
    4MOL0     C  439   5.149   5.046   8.276  1.1336 -0.9250  0.0039
    4MOL0    Cl  440   5.037   4.945   8.175 -0.0570  0.1267  0.2381
    4MOL0     C  441   6.119   4.937   7.651 -0.3136 -0.6088 -0.3544
    4MOL0     C  442   6.239   4.887   7.616 -0.3298  0.1968 -0.0634
    4MOL0     O  443   6.435   4.731   7.483 -0.0860 -1.1771 -0.2835
    4MOL0     C  444   6.762   4.787   7.578  1.2984 -0.2493  0.0210
    4MOL0     C  445   6.891   4.735   7.567  0.2331 -0.4248 -0.2216
    4MOL0     N  446   7.396   4.058   7.751  0.2428  0.5165  0.1895
    4MOL0     N  447   7.368   3.975   7.848  0.0841 -0.1914 -0.7354
    4MOL0     C  448   7.592   3.112   8.380  0.2849 -0.1148  0.0330
    4MOL0     C  449   7.606   2.978   8.338  0.9259 -0.2602 -0.6045
    4MOL0     C  450   7.537   2.515   8.408 -0.1768 -0.0319  0.0800
    4MOL0     C  451   7.466   2.481   8.291  0.4871 -0.9277 -0.6784
    4MOL0     C  452   7.427   2.349   8.254 -0.2721  0.6949  0.7567
    4MOL0     C  453   7.465   2.248   8.343 -0.2140  0.0534 -0.9673
    4MOL0     O  454   7.417   2.124   8.331 -0.3129  0.1526  0.2320
    4MOL0     C  455   7.275   2.108   8.341 -0.6415  0.5852 -0.7673
    4MOL0     C  456   7.194   2.154   8.462 -0.2279  0.0307 -1.5043
    4MOL0     C  457   7.198   2.069   8.586  0.0436  1.5921  0.3686
    4MOL0     C  458   7.132   2.123   8.706 -0.7139  0.2453 -0.7657
    4MOL0     C  459   7.217   2.197   8.808 -0.2392 -0.1384 -0.2080
    4MOL0     C  460   7.287   2.254   8.888  0.8447 -0.1473 -0.1011
    4MOL0     C  461   7.541   2.278   8.462  0.3051  0.0728  0.1196
    4MOL0     C  462   7.576   2.413   8.490  1.1590  1.0098  0.1534
    4MOL0     H  463   7.362   2.839   8.541  1.1651 -1.4677 -0.6732
    4MOL0     H  464   7.316   3.054   8.596 -3.0957  0.6711 -3.6641
    4MOL0     H  465   7.316   3.289   8.620 -0.3815  0.6154 -0.0171
    4MOL0     H  466   7.281   3.297   8.445 -1.1360 -1.4981  1.9988
    4MOL0     H  467   7.464   3.495   8.588  0.1955  0.5014 -2.8050
    4MOL0     H  468   7.302   3.526   8.623 -0.0754 -0.9180 -0.2034
    4MOL0     H  469   7.256   3.529   8.372  0.2819  1.2287 -1.4664
    4MOL0     H  470   7.429   3.523   8.345  1.7520  0.6495  1.6625
    4MOL0     H  471   7.282   3.739   8.512 -1.4381 -0.7576 -1.4160
    4MOL0     H  472   7.462   3.748   8.471  1.9724 -1.6555 -0.8962
    4MOL0     H  473   7.232   3.753   8.262 -0.1695 -0.1858  1.8086
    4MOL0     H  474   7.402   3.775   8.233  0.2719  2.7117  1.7586
    4MOL0     H  475   7.412   3.969   8.394 -0.7248  3.4391  1.2826
    4MOL0     H  476   7.238   3.987   8.363  1.0674  0.6901  0.5701
    4MOL0     H  477   7.364   4.125   8.212 -3.8053 -0.0380  0.5129
    4MOL0     H  478   7.463   3.974   8.163 -2.0568 -2.2121 -1.2035
    4MOL0     H  479   7.169   4.041   8.111  0.1742 -1.0743  1.7952
    4MOL0     H  480   7.242   3.889   8.070 -2.3339  0.3926  0.3019
    4MOL0     H  481   7.242   4.268   7.950  1.3070  2.1218 -1.0195
    4MOL0     H  482   7.427   4.269   7.601 -3.0612  0.0802 -1.5524
    4MOL0     H  483   7.465   4.348   7.754  1.1083  1.3657 -1.4200
    4MOL0     H  484   7.177   4.372   7.735 -2.3606 -1.8385 -1.7327
    4MOL0     H  485   7.216   4.322   7.566  3.8172  1.2428 -1.9557
    4MOL0     H  486   7.356   4.564   7.690 -0.4893  1.2729  0.8059
    4MOL0     H  487   7.341   4.519   7.522  3.0956 -1.1206  2.1068
    4MOL0     H  488   7.180   4.702   7.570  0.5676 -1.6486 -1.1333
    4MOL0     H  489   7.127   4.618   7.716 -1.9034 -1.5870 -0.4468
    4MOL0     H  490   6.823   4.415   7.507 -0.9699 -1.1727  0.0171
    4MOL0     H  491   6.598   4.508   7.489  0.7514  1.9823 -2.5103
    4MOL0     H  492   6.384   4.895   7.915 -0.2977  0.5995  0.8202
    4MOL0     H  493   6.164   4.951   7.983 -3.2200  1.1068 -0.0173
    4MOL0     H  494   5.822   5.111   7.931 -2.1588 -2.1437 -0.3061
    4MOL0     H  495   5.975   5.090   8.006 -1.1557 -0.0796 -0.3991
    4MOL0     H  496   5.909   4.827   7.976  2.3882  3.5500  2.1278
    4MOL0     H  497   5.777   4.872   7.869 -0.0843 -0.7310  0.9813
    4MOL0     H  498   5.789   4.942   8.157 -1.3749  0.9823  0.9633
    4MOL0     H  499   5.695   4.806   8.092  1.6561 -0.8830 -1.6813
    4MOL0     H  500   5.629   5.093   8.037 -0.0998 -0.1254 -2.0331
    4MOL0     H  501   5.555   4.955   7.955  0.5102  3.7231 -1.4396
    4MOL0     H  502   5.541   5.016   8.254  1.4687 -1.8976  0.1236
    4MOL0     H  503   5.503   4.853   8.188  4.4183 -0.2413  0.9589
    4MOL0     H  504   5.324   4.945   8.055  2.2888 -0.7540 -1.9310
    4MOL0     H  505   5.369   5.104   8.111  0.6320  0.3384  2.0926
    4MOL0     H  506   5.286   4.887   8.315 -3.7969 -0.7558 -0.4293
    4MOL0     H  507   5.345   5.042   8.352  0.4943 -3.0680  1.5433
    4MOL0     H  508   5.138   5.152   8.252  1.0663 -0.1589  3.0003
    4MOL0     H  509   5.108   5.037   8.377 -1.9407 -1.1680 -1.1543
    4MOL0     H  510   6.042   4.953   7.576 -0.7356  0.6126  0.3080
    4MOL0     H  511   6.255   4.883   7.509  2.1038  4.9803 -0.1252
    4MOL0     H  512   6.756   4.895   7.586  1.5905 -0.3713  3.7987
    4MOL0     H  513   6.980   4.797   7.564  1.6202 -2.3740 -1.2768
    4MOL0     H  514   7.655   3.190   8.337  2.4154 -0.8984  1.5391
    4MOL0     H  515   7.670   2.953   8.254  1.8893  1.2923 -0.3626
    4MOL0     H  516   7.441   2.563   8.224 -1.7139 -0.2476  0.8280
    4MOL0     H  517   7.378   2.322   8.161  0.8362  2.0888 -0.2835
    4MOL0     H  518   7.251   2.003   8.327  0.0282  0.5420 -1.6420
    4MOL0     H  519   7.242   2.164   8.253  3.0194  0.0881 -2.6429
    4MOL0     H  520   7.236   2.253   8.484 -2.0059  0.3763  0.7187
    4MOL0     H  521   7.088   2.164   8.437 -0.8460  0.2999  0.9838
    4MOL0     H  522   7.299   2.028   8.599 -1.1251 -1.7287 -0.1326
    4MOL0     H  523   7.138   1.981   8.563  2.7344  0.0688 -1.2446
    4MOL0     H  524   7.059   2.194   8.666  0.7467  0.6723 -2.8389
    4MOL0     H  525   7.068   2.048   8.754 -2.1161  1.6858 -0.2781
    4MOL0     H  526   7.328   2.309   8.970  0.5025  2.6481 -1.6916
    4MOL0     H  527   7.571   2.194   8.524  0.1688 -1.6342 -2.0068
    4MOL0     H  528   7.633   2.441   8.578  2.5103  1.4530 -0.8239
    5MOL0     O  529  10.382  11.381   1.772  0.4952  0.5569 -0.7141
    5MOL0     C  530  10.416  11.265   1.748  0.1902  0.3744 -0.6408
    5MOL0     O  531  10.337  11.149   1.734  1.0367 -0.8012  0.0391
    5MOL0     C  532  10.202  11.156   1.744  0.0494 -0.0530 -0.3260
    5MOL0     C  533  10.126  11.236   1.833  0.0933 -0.5863 -0.0322
    5MOL0     C  534   9.991  11.227   1.850  0.3440  0.5687  0.5086
    5MOL0     C  535   9.912  11.138   1.778 -0.2814  0.0449  0.2508
    5MOL0     O  536   9.783  11.149   1.750 -0.2222  0.3691 -0.0073
    5MOL0     C  537   9.697  11.089   1.850 -0.0228  0.3282  0.7166
    5MOL0     C  538   9.580  11.030   1.775  0.2549  0.9925  0.5928
    5MOL0     C  539   9.477  11.132   1.723 -0.9235  0.5446 -0.1676
    5MOL0     C  540   9.352  11.059   1.673  0.4913 -0.1182 -0.8317
    5MOL0     C  541   9.233  11.146   1.664 -0.5679  0.1980 -0.4849
    5MOL0     C  542   9.128  11.074   1.580  0.2244 -0.2547  0.0959
    5MOL0     C  543   8.987  11.149   1.603  0.5700  0.1929  0.6337
    5MOL0     C  544   8.873  11.095   1.528 -0.2441  0.0959  1.0152
    5MOL0     N  545   8.858  10.955   1.576 -0.0809  0.0009  1.0154
    5MOL0     C  546   8.868  10.849   1.487 -0.4348 -0.5502 -1.2723
    5MOL0     C  547   8.807  10.748   1.545 -0.8604 -0.1244 -0.0476
    5MOL0     C  548   8.784  10.612   1.496 -0.1999 -0.0089 -0.6756
    5MOL0     C  549   8.629  10.607   1.443 -0.7365 -0.5131 -0.5078
    5MOL0     C  550   8.525  10.626   1.558 -0.1476  0.0018  0.3238
    5MOL0     C  551   8.391  10.560   1.506 -0.0054 -0.1220  1.0896
    5MOL0     O  552   8.366  10.606   1.375 -0.5669  0.3984 -0.8170
    5MOL0     C  553   8.252  10.564   1.309 -0.5173 -0.0532  0.0605
    5MOL0     C  554   8.152  10.493   1.372 -0.2834 -0.0862  0.1152
    5MOL0     C  555   8.034  10.461   1.300 -0.1065 -0.6022 -1.0095
    5MOL0     C  556   8.016  10.495   1.170 -0.4200 -0.1327  0.8237
    5MOL0     C  557   7.893  10.451   1.100  0.0353  0.5045  0.2735
    5MOL0     O  558   7.902  10.463   0.960 -0.3840  1.1284  0.0630
    5MOL0     C  559   7.787  10.423   0.900 -0.4206  1.2066  0.0958
    5MOL0     C  560   7.771  10.287   0.869 -0.2586 -1.2367  0.2996
    5MOL0     C  561   7.656  10.250   0.793  0.0332  0.0529  0.4050
    5MOL0     C  562   7.555  10.339   0.751 -0.6042  0.2181  0.2509
    5MOL0     O  563   7.431  10.313   0.690 -0.2765  0.2325  0.9156
    5MOL0     C  564   7.387  10.178   0.714  0.2219  0.3461 -0.3740
    5MOL0     C  565   7.249  10.160   0.655  0.5655  0.3659 -0.1791
    5MOL0     C  566   7.185  10.030   0.715 -0.1207 -0.2312  0.4767
    5MOL0     C  567   7.141  10.046   0.859  0.8380 -0.4127  0.1361
    5MOL0     C  568   7.126   9.914   0.925  0.2679  0.0379  0.9360
    5MOL0     C  569   7.062   9.944   1.056 -0.0435 -1.0573 -0.5178
    5MOL0     C  570   7.029   9.825   1.141  0.0169 -0.7057  0.6491
    5MOL0     C  571   6.982   9.849   1.289 -0.3422 -0.0013  0.2330
    5MOL0    Cl  572   7.118   9.883   1.400 -0.1094  0.2352 -0.6519
    5MOL0     C  573   7.588  10.474   0.769 -0.3289 -0.4443 -0.7260
    5MOL0     C  574   7.695  10.521   0.845 -0.3241 -0.0686  0.4931
    5MOL0     O  575   7.800  10.399   1.165  0.2704 -0.3014 -0.4865
    5MOL0     C  576   8.122  10.568   1.109  0.1821 -0.6706 -0.0307
    5MOL0     C  577   8.238  10.610   1.178 -0.6193 -0.2857  0.1806
    5MOL0     N  578   8.759  10.791   1.669 -0.2188  0.6524  0.1848
    5MOL0     N  579   8.794  10.912   1.686 -0.2655 -0.6047  0.3746
    5MOL0     C  580   9.985  11.056   1.689 -0.1258 -0.4036 -0.0767
    5MOL0     C  581  10.131  11.063   1.672  0.7438 -0.0060  0.0965
    5MOL0     C  582  10.564  11.245   1.737 -0.5540  1.0765  0.4361
    5MOL0     C  583  10.617  11.114   1.728 -0.5890  0.0178  0.8955
    5MOL0     C  584  10.755  11.090   1.695  0.0569  0.0303 -0.7451
    5MOL0     C  585  10.846  11.199   1.702 -0.0569 -0.2127  0.0152
    5MOL0     O  586  10.978  11.157   1.669  0.5712  0.4309 -1.0652
    5MOL0     C  587  11.090  11.245   1.667  0.8366  0.3035  0.0999
    5MOL0     C  588  11.205  11.160   1.622  0.0312  1.3216 -0.2901
    5MOL0     C  589  11.179  11.118   1.477 -0.3717 -0.3583  0.2980
    5MOL0     C  590  11.192  10.975   1.439  0.2745 -0.7116 -0.8188
    5MOL0     C  591  11.202  10.961   1.292 -0.1331 -0.4747  0.2982
    5MOL0     C  592  11.225  10.941   1.175  0.2327 -0.3534 -0.0428
    5MOL0     C  593  10.792  11.327   1.714 -0.3445  0.3571  0.4528
    5MOL0     C  594  10.650  11.355   1.731 -0.5157 -0.4108 -0.4095
    5MOL0     H  595  10.181  11.319   1.875  2.1050 -1.3816 -0.9626
    5MOL0     H  596   9.942  11.298   1.916 -2.4613 -1.2610  0.5222
    5MOL0     H  597   9.652  11.172   1.905 -1.2809  0.0339  0.1750
    5MOL0     H  598   9.750  11.025   1.921 -0.4511 -0.0032  0.7382
    5MOL0     H  599   9.529  10.969   1.851  1.1844 -2.1311 -1.1219
    5MOL0     H  600   9.615  10.966   1.694  0.2678 -0.1112  1.4423
    5MOL0     H  601   9.523  11.191   1.644  1.9580  0.7087  1.5006
    5MOL0     H  602   9.452  11.202   1.803 -1.0571  0.6980 -0.3437
    5MOL0     H  603   9.375  11.021   1.573  0.6371  0.3492 -0.9795
    5MOL0     H  604   9.324  10.984   1.748  1.5164  2.2257  2.0906
    5MOL0     H  605   9.256  11.234   1.604 -1.4002 -1.7569 -3.9546
    5MOL0     H  606   9.198  11.169   1.765  0.4035  4.5783 -0.9498
    5MOL0     H  607   9.117  10.966   1.597  4.3645 -1.5335 -3.5134
    5MOL0     H  608   9.147  11.091   1.473  1.9987  4.9251  0.9363
    5MOL0     H  609   8.962  11.159   1.709 -1.2699 -0.6053  0.3034
    5MOL0     H  610   8.987  11.253   1.571  0.1781 -0.0753 -0.2615
    5MOL0     H  611   8.900  11.102   1.422 -1.2286  1.8495  0.8549
    5MOL0     H  612   8.783  11.154   1.547 -0.5754  1.7037 -3.9563
    5MOL0     H  613   8.913  10.852   1.389 -1.0258  1.6769 -1.5292
    5MOL0     H  614   8.788  10.534   1.573 -2.4281  0.4924  0.0346
    5MOL0     H  615   8.850  10.576   1.416 -1.1509 -2.3043 -0.4944
    5MOL0     H  616   8.616  10.504   1.409 -0.1194 -2.4262  4.3166
    5MOL0     H  617   8.617  10.692   1.375  0.0481 -1.9652 -2.5541
    5MOL0     H  618   8.565  10.581   1.649 -1.6119  1.3194  1.6931
    5MOL0     H  619   8.502  10.731   1.582  0.9171 -0.4901  4.2197
    5MOL0     H  620   8.304  10.587   1.566 -4.3745 -0.3915 -4.3109
    5MOL0     H  621   8.396  10.451   1.513  2.5183  0.0234  2.7287
    5MOL0     H  622   8.154  10.458   1.474 -0.4792 -1.2933 -0.2859
    5MOL0     H  623   7.957  10.413   1.359 -0.1962 -1.4303 -1.7738
    5MOL0     H  624   7.850  10.222   0.903  0.0998  0.4913  3.0750
    5MOL0     H  625   7.640  10.143   0.780  0.4770 -0.1443  1.4291
    5MOL0     H  626   7.385  10.137   0.816  4.0372  1.3386  0.2219
    5MOL0     H  627   7.455  10.107   0.666  3.4208  2.0156  1.3804
    5MOL0     H  628   7.257  10.162   0.546 -2.0786 -1.4917 -0.5272
    5MOL0     H  629   7.191  10.242   0.698  0.4194 -0.5960  1.5743
    5MOL0     H  630   7.259   9.951   0.697 -2.1469 -2.8547  2.8954
    5MOL0     H  631   7.099  10.006   0.653  0.5147  1.3552 -1.1010
    5MOL0     H  632   7.194  10.114   0.927 -1.2549  1.7339 -0.2451
    5MOL0     H  633   7.046  10.098   0.840 -0.0279 -1.3114  1.7645
    5MOL0     H  634   7.219   9.862   0.948  0.9601  0.8708  0.0824
    5MOL0     H  635   7.065   9.844   0.867  1.1771  0.5463 -0.6819
    5MOL0     H  636   6.969   9.999   1.038  0.6821  0.0416 -0.9550
    5MOL0     H  637   7.129  10.007   1.115 -2.5127  2.4333 -1.1131
    5MOL0     H  638   6.946   9.775   1.089 -1.6834  1.8719  0.7060
    5MOL0     H  639   7.121   9.767   1.154 -0.1337 -1.4205 -1.1062
    5MOL0     H  640   6.942   9.760   1.339 -0.6313 -0.2038 -0.3529
    5MOL0     H  641   6.907   9.929   1.290 -1.6945 -1.0779 -2.7228
    5MOL0     H  642   7.532  10.550   0.715  0.5828 -1.3468 -3.0584
    5MOL0     H  643   7.724  10.626   0.848 -0.3968 -0.0231 -0.2839
    5MOL0     H  644   8.118  10.606   1.008 -1.2263  2.8961  1.1906
    5MOL0     H  645   8.318  10.663   1.127  0.7550 -1.8651  0.6261
    5MOL0     H  646   9.928  10.996   1.619 -0.2533 -0.1046 -0.2323
    5MOL0     H  647  10.171  10.982   1.613 -4.2484 -2.0641 -0.9992
    5MOL0     H  648  10.558  11.024   1.741 -0.6969  0.0944  0.9348
    5MOL0     H  649  10.801  10.993   1.678  0.5916  0.3839 -1.3332
    5MOL0     H  650  11.096  11.279   1.770  3.3782  1.6564 -0.4253
    5MOL0     H  651  11.075  11.321   1.589 -1.6009 -1.3449 -1.1943
    5MOL0     H  652  11.299  11.215   1.622  0.3233  0.8270 -0.0902
    5MOL0     H  653  11.218  11.068   1.681  1.8713 -0.9969 -3.9714
    5MOL0     H  654  11.247  11.175   1.414  0.9847 -2.3174 -0.0973
    5MOL0     H  655  11.086  11.166   1.445  2.1100  2.9330 -2.8163
    5MOL0     H  656  11.289  10.938   1.473  0.9969  1.1688 -0.6950
    5MOL0     H  657  11.114  10.919   1.491  0.6737 -2.0021 -1.5782
    5MOL0     H  658  11.230  10.935   1.068 -0.2884 -0.4357 -0.0676
    5MOL0     H  659  10.847  11.420   1.719 -1.1528  0.8443  0.5608
    5MOL0     H  660  10.620  11.459   1.730  2.0591  0.4121 -1.1682
    6MOL0     O  661   3.586   4.608   5.213 -0.4935 -0.1676 -0.7610
    6MOL0     C  662   3.535   4.611   5.332  0.2430 -0.2348 -0.5304
    6MOL0     O  663   3.603   4.642   5.448  0.4883 -0.3319  0.2933
    6MOL0     C  664   3.728   4.703   5.440  0.6399 -0.0330  0.0867
    6MOL0     C  665   3.837   4.637   5.503 -0.4346 -0.4859  1.1290
    6MOL0     C  666   3.959   4.699   5.499 -0.3801 -0.3099 -0.4830
    6MOL0     C  667   3.981   4.830   5.448  0.4476  0.8314  0.3414
    6MOL0     O  668   4.104   4.889   5.454 -0.3295 -0.9791  0.2521
    6MOL0     C  669   4.179   4.873   5.580 -0.4388 -0.1310 -0.5305
    6MOL0     C  670   4.280   5.001   5.583  0.4031  0.1537  0.5476
    6MOL0     C  671   4.188   5.129   5.579  0.4793 -0.1033  0.4579
    6MOL0     C  672   4.271   5.259   5.584 -0.5097  0.6601  0.2053
    6MOL0     C  673   4.186   5.373   5.619 -1.0963 -0.6241 -1.2957
    6MOL0     C  674   4.085   5.406   5.511  1.1719  0.4364  0.2050
    6MOL0     C  675   4.003   5.542   5.533  0.2304  0.4435 -1.4248
    6MOL0     C  676   3.951   5.571   5.387 -0.3874  0.0335  1.3252
    6MOL0     N  677   4.029   5.686   5.339 -0.3420  0.6493 -0.9725
    6MOL0     C  678   4.133   5.676   5.251 -0.1059  0.3307  0.3080
    6MOL0     C  679   4.195   5.801   5.266 -0.8417  0.9152 -1.0269
    6MOL0     C  680   4.328   5.841   5.208 -0.7388  0.5903 -0.8971
    6MOL0     C  681   4.342   5.825   5.052  0.0991 -0.1198 -0.4563
    6MOL0     C  682   4.472   5.889   4.991  0.6355  0.1774  0.2244
    6MOL0     C  683   4.588   5.791   4.993  0.7356 -0.0070 -0.2262
    6MOL0     O  684   4.710   5.855   5.011 -0.0776 -0.1121 -0.6574
    6MOL0     C  685   4.824   5.783   4.989 -0.4671 -0.4203 -0.8612
    6MOL0     C  686   4.941   5.854   4.987  0.1360 -0.3761 -0.3306
    6MOL0     C  687   5.061   5.794   4.978 -0.5557  0.3562 -1.1055
    6MOL0     C  688   5.073   5.656   4.965  0.6020 -0.5805 -0.2040
    6MOL0     C  689   5.198   5.587   4.967  0.5695 -0.1189 -0.0309
    6MOL0     O  690   5.206   5.485   4.886  0.4866 -0.0028 -0.0303
    6MOL0     C  691   5.332   5.426   4.868 -0.1330  0.5977  0.3186
    6MOL0     C  692   5.399   5.363   4.973  0.8563 -0.3872 -0.4635
    6MOL0     C  693   5.519   5.290   4.960  0.0737  0.0157  0.7012
    6MOL0     C  694   5.584   5.279   4.826 -0.5014  0.0391  0.2601
    6MOL0     O  695   5.703   5.218   4.817 -0.6555  0.4101  0.3332
    6MOL0     C  696   5.788   5.269   4.704  0.2859  0.8966 -0.0078
    6MOL0     C  697   5.940   5.251   4.742  0.5698 -0.4605  0.3012
    6MOL0     C  698   5.987   5.325   4.862 -0.4062  0.1874  0.4255
    6MOL0     C  699   6.123   5.273   4.905  0.3725 -1.1721 -0.6798
    6MOL0     C  700   6.175   5.311   5.037 -0.5059  1.6117 -0.4507
    6MOL0     C  701   6.098   5.233   5.146  0.8998  1.0042 -0.5271
    6MOL0     C  702   6.156   5.263   5.283 -0.4787 -1.2676  0.4653
    6MOL0     C  703   6.093   5.163   5.382  0.3274 -0.0971 -0.4913
    6MOL0    Cl  704   6.149   5.213   5.547 -0.5404  0.2670  0.1369
    6MOL0     C  705   5.513   5.333   4.718 -0.2328 -0.8363 -0.5667
    6MOL0     C  706   5.393   5.406   4.746  0.1287 -0.2534  1.3125
    6MOL0     O  707   5.292   5.630   5.033 -0.2124  0.0237 -0.7346
    6MOL0     C  708   4.959   5.589   4.954  0.3645  0.6716 -0.1118
    6MOL0     C  709   4.833   5.648   4.965 -0.2614 -0.8213  1.3701
    6MOL0     N  710   4.122   5.875   5.350 -0.3079  0.2546 -1.1423
    6MOL0     N  711   4.033   5.805   5.392 -0.0312 -0.4319 -0.5029
    6MOL0     C  712   3.877   4.884   5.378  0.0777  0.1851  0.7286
    6MOL0     C  713   3.744   4.824   5.379  0.9443  0.6406  0.7378
    6MOL0     C  714   3.400   4.554   5.358  0.0220  0.3649  0.3591
    6MOL0     C  715   3.307   4.558   5.258  0.8363  0.4369 -0.0738
    6MOL0     C  716   3.175   4.502   5.276  0.4756  0.1298 -0.1588
    6MOL0     C  717   3.138   4.453   5.391 -0.1861 -0.5153 -0.7644
    6MOL0     O  718   3.015   4.400   5.392  0.5520  0.0806  0.0527
    6MOL0     C  719   3.020   4.259   5.340 -0.0173 -1.0311  0.7710
    6MOL0     C  720   2.883   4.203   5.385 -0.2268 -0.5474 -0.3722
    6MOL0     C  721   2.858   4.088   5.278  0.4270  0.1303 -0.2472
    6MOL0     C  722   2.784   4.110   5.141 -0.3630  1.2249  0.4644
    6MOL0     C  723   2.774   3.984   5.072  0.2044 -0.4071  1.3307
    6MOL0     C  724   2.755   3.876   5.012 -0.6482 -0.2151 -0.7034
    6MOL0     C  725   3.216   4.472   5.502 -0.2511  0.2447  0.4453
    6MOL0     C  726   3.350   4.515   5.488 -0.3874 -0.3349 -0.3450
    6MOL0     H  727   3.812   4.547   5.557 -1.4447 -1.7968 -1.3901
    6MOL0     H  728   4.031   4.645   5.561  0.4976  1.2038 -0.1456
    6MOL0     H  729   4.235   4.780   5.588 -0.4801 -0.0102  2.8540
    6MOL0     H  730   4.108   4.884   5.663 -0.3306 -0.3648 -0.4063
    6MOL0     H  731   4.346   4.997   5.495  2.0695  0.4141  1.7386
    6MOL0     H  732   4.336   5.005   5.677  0.3547  5.3110  0.6252
    6MOL0     H  733   4.129   5.120   5.671 -0.9573  1.3933 -0.2646
    6MOL0     H  734   4.127   5.124   5.488 -0.9939  2.6423  1.1786
    6MOL0     H  735   4.356   5.248   5.652 -0.9454 -1.5535  0.4640
    6MOL0     H  736   4.310   5.266   5.483 -2.2549 -2.9899 -0.9109
    6MOL0     H  737   4.240   5.467   5.631 -2.1657  0.0701 -1.6865
    6MOL0     H  738   4.136   5.356   5.715  1.2179 -4.7259 -0.5934
    6MOL0     H  739   4.013   5.328   5.485  0.4130  1.0212  0.5020
    6MOL0     H  740   4.135   5.426   5.416 -0.6965  0.9736 -0.7203
    6MOL0     H  741   3.916   5.514   5.594  1.3110 -1.7218 -0.7624
    6MOL0     H  742   4.063   5.625   5.571  0.7827 -0.3584 -0.4902
    6MOL0     H  743   3.847   5.604   5.382  0.4610  2.7152 -0.6427
    6MOL0     H  744   3.960   5.489   5.315 -2.6483  1.9115 -1.3174
    6MOL0     H  745   4.146   5.589   5.188 -1.6858  0.7678 -0.6867
    6MOL0     H  746   4.404   5.773   5.249  1.5246  2.5571 -1.5735
    6MOL0     H  747   4.367   5.935   5.248  0.4904  0.6225 -2.0797
    6MOL0     H  748   4.255   5.877   5.011  0.2356  0.9586  0.5624
    6MOL0     H  749   4.336   5.721   5.018 -1.0245 -0.4911  0.7941
    6MOL0     H  750   4.462   5.898   4.883 -0.0591 -3.3563 -0.1304
    6MOL0     H  751   4.486   5.986   5.040  0.1987  0.2277  0.2484
    6MOL0     H  752   4.594   5.729   4.904  3.1626 -0.3597  0.1337
    6MOL0     H  753   4.578   5.728   5.082  3.3622 -2.8351 -1.7757
    6MOL0     H  754   4.933   5.961   5.003  1.1097 -0.4738  0.9427
    6MOL0     H  755   5.152   5.849   5.001 -0.1960  0.2622 -2.2572
    6MOL0     H  756   5.359   5.370   5.073  2.8900  0.0404  0.3735
    6MOL0     H  757   5.572   5.253   5.047  1.9370  0.6878 -0.1033
    6MOL0     H  758   5.765   5.367   4.661  0.0915 -0.8128 -4.2261
    6MOL0     H  759   5.782   5.200   4.619  4.1502  1.6694 -1.0899
    6MOL0     H  760   6.000   5.298   4.664  0.9073  3.8374  2.8287
    6MOL0     H  761   5.951   5.143   4.758 -2.9394 -0.9611  0.1360
    6MOL0     H  762   5.921   5.300   4.945 -1.9656  1.4769 -0.3840
    6MOL0     H  763   5.981   5.433   4.845 -3.5783  0.3647  2.0713
    6MOL0     H  764   6.124   5.164   4.901 -0.4823 -1.1536 -1.8864
    6MOL0     H  765   6.201   5.300   4.834  1.2292 -0.3525  0.5294
    6MOL0     H  766   6.157   5.418   5.050  1.6024  1.9016  0.7243
    6MOL0     H  767   6.281   5.298   5.061 -0.7583  3.1215  1.7592
    6MOL0     H  768   6.106   5.126   5.121 -1.8395  1.0256 -1.8049
    6MOL0     H  769   5.991   5.254   5.157  1.2081  1.9773  0.8281
    6MOL0     H  770   6.265   5.252   5.282 -0.3692 -0.4917 -1.1639
    6MOL0     H  771   6.138   5.369   5.303  4.0887  0.2347 -1.8106
    6MOL0     H  772   6.114   5.059   5.357 -0.5816 -0.3909 -0.0796
    6MOL0     H  773   5.984   5.174   5.385  0.5391  2.3867 -0.1156
    6MOL0     H  774   5.561   5.328   4.620  3.8153 -0.8905  1.2187
    6MOL0     H  775   5.333   5.445   4.665  4.7423 -0.3123 -2.6315
    6MOL0     H  776   4.966   5.481   4.962 -2.0281  0.6343  3.6345
    6MOL0     H  777   4.753   5.578   4.944 -0.8671  0.1223  0.4012
    6MOL0     H  778   3.883   4.982   5.333 -1.9152  1.0381  2.1398
    6MOL0     H  779   3.656   4.871   5.337 -1.3819 -2.6051  1.5913
    6MOL0     H  780   3.336   4.605   5.165  1.0692  1.2084  0.3803
    6MOL0     H  781   3.101   4.507   5.197 -0.3862 -1.2520  0.5386
    6MOL0     H  782   3.106   4.205   5.380  1.1946  2.3281  3.1404
    6MOL0     H  783   3.020   4.249   5.231 -1.9062 -3.8679  0.9063
    6MOL0     H  784   2.889   4.185   5.493 -1.6305  3.4330  0.5403
    6MOL0     H  785   2.800   4.272   5.375 -0.8469 -0.8016  2.1896
    6MOL0     H  786   2.794   4.017   5.332 -0.2001  0.0820 -1.0408
    6MOL0     H  787   2.954   4.040   5.258 -0.9787 -3.1945  0.2097
    6MOL0     H  788   2.681   4.143   5.156 -2.3500 -4.7459  2.6790
    6MOL0     H  789   2.841   4.181   5.081  1.0222 -1.5084 -1.6750
    6MOL0     H  790   2.761   3.777   4.970 -2.4671 -0.1781 -1.1233
    6MOL0     H  791   3.153   4.452   5.589 -0.1474 -1.2498  0.1997
    6MOL0     H  792   3.407   4.531   5.580  0.9237  2.9086 -1.5784
    7MOL0     O  793   7.441   4.416   2.921 -0.2728  0.3598  0.6736
    7MOL0     C  794   7.366   4.324   2.944  0.4264  0.6815  0.0989
    7MOL0     O  795   7.402   4.210   3.014 -1.1735  0.4757  0.2779
    7MOL0     C  796   7.538   4.195   3.032  0.4359  0.3937 -0.4154
    7MOL0     C  797   7.621   4.128   2.951 -0.0628  0.8034 -0.1918
    7MOL0     C  798   7.762   4.116   2.968 -0.1890  0.7517  0.1710
    7MOL0     C  799   7.817   4.183   3.080  0.0520  0.1650 -0.1186
    7MOL0     O  800   7.941   4.185   3.128 -0.1605 -0.1166 -0.4820
    7MOL0     C  801   8.056   4.128   3.065 -0.9655  0.0586 -0.1002
    7MOL0     C  802   8.121   4.224   2.969 -0.2179 -1.1013  0.5793
    7MOL0     C  803   8.249   4.182   2.897 -0.1288  0.2592 -0.0488
    7MOL0     C  804   8.380   4.234   2.956 -1.0687 -0.0182 -0.5366
    7MOL0     C  805   8.396   4.169   3.102 -0.7795  0.4693  0.0457
    7MOL0     C  806   8.536   4.178   3.164  0.2828  0.7376 -0.0598
    7MOL0     C  807   8.526   4.140   3.312 -0.3656 -0.4609  0.0300
    7MOL0     C  808   8.502   4.274   3.394 -1.4187  0.0171  0.2017
    7MOL0     N  809   8.479   4.228   3.532 -0.1964  0.0385  0.4722
    7MOL0     C  810   8.374   4.277   3.605 -0.5432 -0.0783 -0.3697
    7MOL0     C  811   8.412   4.253   3.735  0.4829 -0.1332 -0.2528
    7MOL0     C  812   8.336   4.296   3.854 -0.1247  0.3942  0.5631
    7MOL0     C  813   8.190   4.273   3.840  0.3065  0.0821 -0.1848
    7MOL0     C  814   8.128   4.271   3.976  0.1495 -0.0546 -0.4167
    7MOL0     C  815   7.988   4.315   3.982  0.2002 -0.1739 -1.3819
    7MOL0     O  816   7.976   4.450   3.952 -0.2272 -0.3963 -0.2393
    7MOL0     C  817   7.850   4.497   3.939 -1.2701  0.0957 -0.8669
    7MOL0     C  818   7.743   4.448   4.016  0.2347  1.6128  0.5107
    7MOL0     C  819   7.611   4.480   3.998  0.4105  0.9762 -0.0447
    7MOL0     C  820   7.587   4.581   3.909  0.5067 -1.0817  0.2782
    7MOL0     C  821   7.448   4.641   3.898 -1.2638 -0.0208 -0.6028
    7MOL0     O  822   7.343   4.566   3.964 -0.2206  0.8695 -0.3022
    7MOL0     C  823   7.205   4.572   3.933 -0.6005 -0.6200 -0.6579
    7MOL0     C  824   7.116   4.578   4.046  0.9866  0.5665  0.0742
    7MOL0     C  825   6.978   4.575   4.031  0.1859  0.5024 -0.2834
    7MOL0     C  826   6.923   4.592   3.906  0.1889 -0.0643  0.1482
    7MOL0     O  827   6.786   4.602   3.895 -0.9084 -0.0114 -0.4948
    7MOL0     C  828   6.718   4.563   3.781  0.6188 -0.4083 -0.2479
    7MOL0     C  829   6.567   4.585   3.792 -1.0687 -0.3449  0.1107
    7MOL0     C  830   6.481   4.580   3.666  0.0389 -0.0687  0.4148
    7MOL0     C  831   6.484   4.442   3.597 -0.8590  0.3470  0.4913
    7MOL0     C  832   6.356   4.421   3.503 -1.0917 -0.5613  0.3944
    7MOL0     C  833   6.391   4.308   3.403  0.4496  0.8163  0.0169
    7MOL0     C  834   6.279   4.279   3.300  0.5163 -0.8281  0.5857
    7MOL0     C  835   6.308   4.178   3.185  0.5944  0.0098 -0.2263
    7MOL0    Cl  836   6.317   4.006   3.240 -0.3063 -0.4063 -0.1676
    7MOL0     C  837   7.010   4.602   3.793 -0.1127  0.4517  0.3193
    7MOL0     C  838   7.147   4.591   3.813  0.2008  0.0310 -0.7603
    7MOL0     O  839   7.429   4.729   3.810  0.4905 -0.5578 -0.2786
    7MOL0     C  840   7.693   4.636   3.826 -0.6084 -0.4229  0.2569
    7MOL0     C  841   7.826   4.592   3.837 -0.2703 -0.1532 -0.6362
    7MOL0     N  842   8.533   4.200   3.739 -0.5694 -0.0128 -0.0068
    7MOL0     N  843   8.568   4.178   3.619  0.1972 -0.3561 -0.5191
    7MOL0     C  844   7.728   4.232   3.173 -0.3633 -0.7160 -0.5218
    7MOL0     C  845   7.592   4.238   3.152 -0.5410 -0.2230  0.5266
    7MOL0     C  846   7.213   4.339   2.916  0.1483 -0.4148  0.1773
    7MOL0     C  847   7.167   4.466   2.885  1.6855  0.5119  0.0835
    7MOL0     C  848   7.036   4.496   2.859 -0.2912 -0.0573 -1.0041
    7MOL0     C  849   6.940   4.398   2.872 -0.2904 -0.0008  0.5367
    7MOL0     O  850   6.815   4.430   2.828 -0.5356 -0.5457 -0.0473
    7MOL0     C  851   6.748   4.322   2.768 -0.3401  0.3980 -0.0698
    7MOL0     C  852   6.626   4.367   2.685 -0.1579 -0.2291 -0.0806
    7MOL0     C  853   6.506   4.431   2.772 -0.1630 -0.0155 -0.4090
    7MOL0     C  854   6.460   4.361   2.894  0.3302  0.0053  0.7836
    7MOL0     C  855   6.428   4.226   2.855 -0.0427 -0.6289  0.7141
    7MOL0     C  856   6.408   4.110   2.826  0.5581 -0.2693  0.2719
    7MOL0     C  857   6.989   4.267   2.916  0.1175 -0.8064  0.3367
    7MOL0     C  858   7.117   4.238   2.945 -0.5555  0.0796 -0.4048
    7MOL0     H  859   7.575   4.085   2.862 -1.8321  0.6649  0.7322
    7MOL0     H  860   7.825   4.058   2.901  0.5275 -2.2489  3.1481
    7MOL0     H  861   8.040   4.030   3.019  0.1066 -0.6499  0.9618
    7MOL0     H  862   8.130   4.106   3.143 -1.4282  2.7799  1.2097
    7MOL0     H  863   8.143   4.316   3.023  1.5842 -0.9500 -0.3156
    7MOL0     H  864   8.057   4.246   2.883  1.8302  3.6732 -0.0509
    7MOL0     H  865   8.249   4.214   2.792 -1.0531 -1.0781 -0.4799
    7MOL0     H  866   8.254   4.072   2.896  0.7777  0.2877  0.0311
    7MOL0     H  867   8.454   4.189   2.890 -0.2311  0.7247 -0.1188
    7MOL0     H  868   8.391   4.343   2.952  2.1061 -0.2478 -0.0927
    7MOL0     H  869   8.359   4.067   3.113 -0.4778  0.1238 -1.8092
    7MOL0     H  870   8.334   4.231   3.166  0.6339  0.1122  1.8244
    7MOL0     H  871   8.574   4.280   3.148 -1.0509  1.2386 -0.1130
    7MOL0     H  872   8.615   4.116   3.121  0.6839  0.1887  1.4259
    7MOL0     H  873   8.452   4.060   3.321 -1.2463 -0.5474 -4.9912
    7MOL0     H  874   8.622   4.100   3.346 -1.4498 -2.5059  0.8687
    7MOL0     H  875   8.416   4.331   3.359 -2.4873 -1.3497  0.4844
    7MOL0     H  876   8.590   4.339   3.393 -0.6345 -0.9361 -2.5717
    7MOL0     H  877   8.295   4.335   3.557  1.3122  2.3499 -0.6661
    7MOL0     H  878   8.351   4.404   3.863 -1.9929  0.9759 -1.9500
    7MOL0     H  879   8.384   4.254   3.943  0.9985  3.5265  1.5793
    7MOL0     H  880   8.163   4.181   3.786 -0.6391 -0.3480  0.9567
    7MOL0     H  881   8.151   4.356   3.780  1.0307 -0.3496 -1.2927
    7MOL0     H  882   8.120   4.169   4.013 -4.7116  1.2037  2.9109
    7MOL0     H  883   8.193   4.322   4.048 -0.2681 -1.0240  0.6666
    7MOL0     H  884   7.965   4.301   4.088  1.0104 -0.1683 -1.1944
    7MOL0     H  885   7.917   4.253   3.928  0.0627 -0.3032 -1.0577
    7MOL0     H  886   7.774   4.392   4.104 -0.3203 -1.3654 -1.0682
    7MOL0     H  887   7.531   4.445   4.063  1.2588  0.3819  0.7249
    7MOL0     H  888   7.173   4.577   4.139  0.8399  0.2707  0.1642
    7MOL0     H  889   6.915   4.575   4.119 -0.5305 -2.0846 -0.7221
    7MOL0     H  890   6.746   4.463   3.747 -2.4038 -0.8910 -1.6200
    7MOL0     H  891   6.753   4.630   3.702 -0.8911 -1.4492 -1.8689
    7MOL0     H  892   6.548   4.684   3.833 -2.3427  0.2009 -1.6606
    7MOL0     H  893   6.527   4.510   3.860 -2.6920 -0.7061 -1.1805
    7MOL0     H  894   6.513   4.650   3.589  0.6174 -0.3935  0.3585
    7MOL0     H  895   6.380   4.606   3.702 -0.0351  0.8448 -0.4169
    7MOL0     H  896   6.575   4.445   3.536  0.4220  0.5793  2.3414
    7MOL0     H  897   6.500   4.354   3.659  0.6258 -2.2884 -3.2679
    7MOL0     H  898   6.324   4.507   3.444  0.3974  1.4978  2.4612
    7MOL0     H  899   6.269   4.376   3.553  0.9449 -2.5622  2.3593
    7MOL0     H  900   6.420   4.227   3.470 -2.9913  0.0015  0.6782
    7MOL0     H  901   6.482   4.321   3.343  0.4234  0.1217 -0.1785
    7MOL0     H  902   6.194   4.232   3.350  0.1825 -0.0710  0.7429
    7MOL0     H  903   6.230   4.368   3.259  0.6132 -1.9438 -2.2267
    7MOL0     H  904   6.404   4.202   3.139 -0.5268  1.5659 -1.8827
    7MOL0     H  905   6.238   4.185   3.101  0.7578  0.4651 -0.3297
    7MOL0     H  906   6.975   4.602   3.690 -0.9018 -2.6466  0.4918
    7MOL0     H  907   7.207   4.600   3.723  2.2887  0.1965  0.5870
    7MOL0     H  908   7.681   4.724   3.762 -2.2045  0.6643  1.9345
    7MOL0     H  909   7.903   4.641   3.778 -1.8314  2.4986 -0.6370
    7MOL0     H  910   7.765   4.264   3.270 -2.8656 -0.9678  0.6044
    7MOL0     H  911   7.526   4.252   3.237 -0.2771  0.3158  0.6482
    7MOL0     H  912   7.236   4.550   2.879  1.0163  0.9548 -3.2541
    7MOL0     H  913   7.001   4.596   2.835  0.7240  0.0081 -2.3325
    7MOL0     H  914   6.714   4.256   2.848 -0.9974  0.3637 -0.3762
    7MOL0     H  915   6.809   4.267   2.697 -2.0621  1.6280 -2.6523
    7MOL0     H  916   6.658   4.438   2.609  0.3195 -0.5561 -0.1914
    7MOL0     H  917   6.581   4.279   2.638 -0.3826  0.7954 -1.8872
    7MOL0     H  918   6.418   4.434   2.706 -3.2179 -2.9824  3.0355
    7MOL0     H  919   6.526   4.534   2.803 -1.3209  0.0501  0.1771
    7MOL0     H  920   6.535   4.352   2.973  0.5293 -3.2739  0.3469
    7MOL0     H  921   6.370   4.411   2.933 -0.3593  0.5126 -1.3423
    7MOL0     H  922   6.362   4.018   2.796  2.5140 -1.3223  0.3321
    7MOL0     H  923   6.920   4.185   2.935  0.4089 -1.7684 -2.3231
    7MOL0     H  924   7.147   4.144   2.991  0.8260  1.1578  1.0129
    8MOL0     O  925   5.661   4.472  10.908  0.3263  0.1321  0.0637
    8MOL0     C  926   5.666   4.370  10.978 -0.8607 -0.9106  0.7569
    8MOL0     O  927   5.620   4.347  11.095  0.8327  0.1498  0.4237
    8MOL0     C  928   5.538   4.422  11.175  0.4643  0.0784 -0.2387
    8MOL0     C  929   5.492   4.360  11.292  0.3742 -0.3811 -0.7112
    8MOL0     C  930   5.428   4.436  11.396 -0.1919 -1.0164 -0.4642
    8MOL0     C  931   5.408   4.574  11.376 -0.2303 -0.2059 -0.0535
    8MOL0     O  932   5.352   4.653  11.466  0.0873  0.4598 -0.1488
    8MOL0     C  933   5.302   4.606  11.592  0.5226 -0.6867 -0.9233
    8MOL0     C  934   5.248   4.735  11.664  0.4892 -0.3792 -0.2052
    8MOL0     C  935   5.150   4.701  11.771  0.7704  0.4356  0.8393
    8MOL0     C  936   5.130   4.816  11.876 -0.1255  0.8833 -1.2730
    8MOL0     C  937   5.033   4.773  11.985  0.5504 -0.5329  0.6254
    8MOL0     C  938   4.984   4.895  12.081 -0.4292 -0.2967 -0.5912
    8MOL0     C  939   4.830   4.918  12.072  0.1020 -0.5709  0.3795
    8MOL0     C  940   4.789   5.049  12.155 -0.4801 -0.4079 -0.2855
    8MOL0     N  941   4.848   5.046  12.287 -0.9865 -0.1921  0.2418
    8MOL0     C  942   4.807   4.968  12.391  1.1071 -0.2154  0.3135
    8MOL0     C  943   4.880   4.989  12.491 -0.1992 -0.0530 -0.7080
    8MOL0     C  944   4.865   4.929  12.628  0.4370 -0.9528  0.0458
    8MOL0     C  945   4.955   4.800  12.635  0.1684 -1.1327  0.5950
    8MOL0     C  946   5.002   4.739  12.771  0.1444 -0.6457 -0.1729
    8MOL0     C  947   5.075   4.834  12.846 -0.2544  0.9042 -0.4886
    8MOL0     O  948   5.123   4.760  12.963 -0.0472 -0.2161 -0.0573
    8MOL0     C  949   5.261   4.760  12.998  1.0497  0.3391  0.2124
    8MOL0     C  950   5.307   4.780  13.123  1.3540 -0.1057  0.8215
    8MOL0     C  951   5.446   4.769  13.155 -1.0332 -0.6211 -0.6895
    8MOL0     C  952   5.536   4.718  13.058  0.0026 -0.5946 -0.4845
    8MOL0     C  953   5.665   4.663  13.094  0.6799 -0.8498  0.0408
    8MOL0     O  954   5.713   4.557  13.023 -0.4886 -1.0583 -0.2253
    8MOL0     C  955   5.827   4.487  13.060 -0.5497 -0.0361  0.1555
    8MOL0     C  956   5.883   4.466  13.193  0.2331 -0.1078  0.0951
    8MOL0     C  957   6.006   4.400  13.216 -0.7366 -0.4899 -0.0564
    8MOL0     C  958   6.081   4.344  13.110 -0.0030 -0.6726  0.9947
    8MOL0     O  959   6.202   4.291  13.142 -0.1077  0.2337 -0.3795
    8MOL0     C  960   6.286   4.265  13.035 -0.4496 -0.3759  0.2088
    8MOL0     C  961   6.419   4.214  13.087 -1.0258 -0.6596 -0.6892
    8MOL0     C  962   6.412   4.063  13.110  0.4226 -0.8282 -0.8845
    8MOL0     C  963   6.547   3.999  13.100 -0.8786  0.8872  0.2216
    8MOL0     C  964   6.577   3.884  13.200 -0.5409 -0.5515  0.5515
    8MOL0     C  965   6.698   3.801  13.149  0.4314 -0.5285  0.6729
    8MOL0     C  966   6.746   3.690  13.249  0.1519 -0.5061  0.0807
    8MOL0     C  967   6.877   3.600  13.197  0.0065 -0.2335 -0.7051
    8MOL0    Cl  968   7.024   3.688  13.190 -0.1417  0.0052  0.1626
    8MOL0     C  969   6.023   4.348  12.986 -0.3192 -0.7774  0.5597
    8MOL0     C  970   5.905   4.416  12.964  0.4197 -0.7700  0.3199
    8MOL0     O  971   5.720   4.715  13.191  0.2333 -0.3074  1.1140
    8MOL0     C  972   5.492   4.702  12.932  0.4857 -0.1423 -0.2387
    8MOL0     C  973   5.355   4.720  12.897 -0.7527 -0.3693  0.3613
    8MOL0     N  974   4.976   5.089  12.450  0.3116  0.2736  0.2097
    8MOL0     N  975   4.955   5.120  12.333 -0.3683 -0.1082 -0.0448
    8MOL0     C  976   5.446   4.628  11.257 -0.7226 -0.7386  0.0427
    8MOL0     C  977   5.510   4.563  11.154  0.3734  0.5610 -0.1008
    8MOL0     C  978   5.738   4.255  10.902 -0.5751  0.5808 -0.7927
    8MOL0     C  979   5.795   4.269  10.781  0.3644  0.7290  0.8975
    8MOL0     C  980   5.869   4.165  10.723  0.2546  0.6397 -0.1194
    8MOL0     C  981   5.891   4.044  10.788  0.3512 -0.2644  0.2398
    8MOL0     O  982   5.957   3.935  10.750 -0.2204  0.6914  0.6174
    8MOL0     C  983   6.049   3.948  10.643  0.3204  0.0794  0.1576
    8MOL0     C  984   6.191   3.990  10.690 -0.2740 -0.1586 -0.2658
    8MOL0     C  985   6.242   3.880  10.789  0.3469  0.1628  0.8600
    8MOL0     C  986   6.379   3.915  10.840 -0.1005 -0.0459  0.0290
    8MOL0     C  987   6.474   3.905  10.733  0.2517  0.7369 -0.0215
    8MOL0     C  988   6.565   3.908  10.656 -0.0433  0.6823  0.1792
    8MOL0     C  989   5.827   4.031  10.907 -0.6326 -0.9981  0.5941
    8MOL0     C  990   5.747   4.128  10.961 -0.0578 -0.9948 -0.6193
    8MOL0     H  991   5.512   4.254  11.306  0.6319 -0.6010 -2.5417
    8MOL0     H  992   5.391   4.385  11.484 -1.7065  0.2140 -0.3454
    8MOL0     H  993   5.395   4.574  11.639  1.9101  2.9822 -0.8878
    8MOL0     H  994   5.222   4.531  11.589 -0.5311  0.3090  0.6594
    8MOL0     H  995   5.197   4.795  11.588  1.9340 -2.0647 -2.6402
    8MOL0     H  996   5.334   4.794  11.698 -0.0047 -0.2104  0.8010
    8MOL0     H  997   5.193   4.616  11.824  0.1081  1.3875  3.0269
    8MOL0     H  998   5.052   4.669  11.735  0.6597  1.9321 -0.2965
    8MOL0     H  999   5.229   4.836  11.919 -0.4339 -0.9842  0.4562
    8MOL0     H 1000   5.100   4.914  11.838 -1.2817  1.0303 -0.0027
    8MOL0     H 1001   5.089   4.714  12.057  0.9686  3.2412  3.7683
    8MOL0     H 1002   4.955   4.712  11.938 -0.3493  0.0995  1.2450
    8MOL0     H 1003   5.027   4.990  12.046  0.5879 -0.2828  0.6319
    8MOL0     H 1004   5.025   4.870  12.180 -2.0166 -0.0885  0.1474
    8MOL0     H 1005   4.801   4.931  11.968 -0.3202  1.4184  0.7197
    8MOL0     H 1006   4.785   4.828  12.115 -0.3331  0.3817  2.0041
    8MOL0     H 1007   4.681   5.062  12.160 -0.6920 -2.3431  1.9986
    8MOL0     H 1008   4.839   5.137  12.114 -1.6284  1.0488  1.2613
    8MOL0     H 1009   4.732   4.890  12.395  1.8769 -1.1509 -1.9115
    8MOL0     H 1010   4.763   4.899  12.653  1.4622 -2.9802  2.2048
    8MOL0     H 1011   4.913   5.000  12.695  0.2178  1.0733 -1.8272
    8MOL0     H 1012   5.053   4.829  12.596 -0.1262 -1.4547 -0.4174
    8MOL0     H 1013   4.913   4.717  12.577  0.9919 -1.7562  0.8643
    8MOL0     H 1014   4.914   4.706  12.827  0.7689 -2.1157 -0.0387
    8MOL0     H 1015   5.070   4.655  12.756  2.1571  1.1770 -2.1955
    8MOL0     H 1016   5.018   4.921  12.881 -0.7210  1.1939 -1.9037
    8MOL0     H 1017   5.155   4.876  12.785  0.3898  1.3787  0.6412
    8MOL0     H 1018   5.220   4.793  13.187 -0.3692  0.8865 -1.5787
    8MOL0     H 1019   5.484   4.791  13.254  0.9761  1.2749 -1.8018
    8MOL0     H 1020   5.819   4.491  13.277  1.2765 -1.9721  1.5267
    8MOL0     H 1021   6.030   4.409  13.321 -1.0425  0.1178 -0.0371
    8MOL0     H 1022   6.308   4.360  12.984  2.8322  0.6782  3.1435
    8MOL0     H 1023   6.245   4.189  12.969  0.2904  1.3118 -2.3454
    8MOL0     H 1024   6.450   4.262  13.181 -4.6168  3.3376 -1.2239
    8MOL0     H 1025   6.487   4.233  13.004  2.9399 -3.0571  1.6680
    8MOL0     H 1026   6.340   4.010  13.046 -1.2171  1.5570 -1.1406
    8MOL0     H 1027   6.362   4.043  13.205  4.0229  0.0790  1.4044
    8MOL0     H 1028   6.557   3.956  13.000 -2.1715  0.0757  0.4235
    8MOL0     H 1029   6.638   4.061  13.100  0.3240 -0.8122 -0.0541
    8MOL0     H 1030   6.496   3.810  13.203  0.0949 -1.2863  3.5943
    8MOL0     H 1031   6.576   3.925  13.302  3.8182  6.7656 -1.6197
    8MOL0     H 1032   6.776   3.868  13.112  0.3251 -0.6764  0.1664
    8MOL0     H 1033   6.657   3.758  13.057  3.5867  1.2195 -1.7760
    8MOL0     H 1034   6.781   3.740  13.340  3.5019 -0.2419 -1.1806
    8MOL0     H 1035   6.658   3.627  13.261 -0.3700  0.5820  2.4755
    8MOL0     H 1036   6.846   3.568  13.097 -0.9108  0.4031 -0.6394
    8MOL0     H 1037   6.900   3.516  13.264  1.2666  0.2426 -0.5224
    8MOL0     H 1038   6.065   4.286  12.907 -1.4455 -3.7932  2.1349
    8MOL0     H 1039   5.880   4.413  12.858 -2.3898 -0.6862  0.9008
    8MOL0     H 1040   5.547   4.648  12.856 -0.5935 -2.2229  0.3687
    8MOL0     H 1041   5.311   4.695  12.801  2.3110  1.1783 -1.5844
    8MOL0     H 1042   5.439   4.736  11.244  0.7661 -0.1173  3.3360
    8MOL0     H 1043   5.563   4.606  11.070  0.7361 -5.3683 -3.3986
    8MOL0     H 1044   5.784   4.354  10.715 -3.2028 -1.2664 -1.4302
    8MOL0     H 1045   5.908   4.178  10.622  1.7931  1.1524  0.5070
    8MOL0     H 1046   6.020   4.024  10.570 -1.1380 -2.0528 -1.5878
    8MOL0     H 1047   6.046   3.852  10.591 -4.3694  0.1770 -0.1859
    8MOL0     H 1048   6.256   3.999  10.603  0.5432 -2.0365  0.1084
    8MOL0     H 1049   6.175   4.083  10.746 -2.2104 -0.5998 -0.0311
    8MOL0     H 1050   6.242   3.782  10.741 -0.7303  0.8982 -0.7420
    8MOL0     H 1051   6.166   3.861  10.866  1.7126 -2.6874  1.6562
    8MOL0     H 1052   6.367   4.013  10.889 -0.7431 -1.5505  3.1077
    8MOL0     H 1053   6.410   3.847  10.920 -2.5612  1.2185  2.2262
    8MOL0     H 1054   6.639   3.919  10.580 -3.1339  0.3078 -3.1354
    8MOL0     H 1055   5.842   3.937  10.960 -3.4185 -1.2223  1.1048
    8MOL0     H 1056   5.690   4.117  11.052  0.2585 -1.1900 -0.4435
    9MOL0     O 1057   9.512   6.278   4.055 -0.4358 -0.4321  0.6371
    9MOL0     C 1058   9.516   6.376   4.126  0.0731 -1.0082 -0.0679
    9MOL0     O 1059   9.630   6.459   4.152  0.1169  0.0161 -1.1577
    9MOL0     C 1060   9.739   6.424   4.080 -0.1612  0.6617  0.0820
    9MOL0     C 1061   9.740   6.432   3.946 -0.4822  0.4784 -0.3456
    9MOL0     C 1062   9.856   6.395   3.881 -0.2389 -0.1407  0.5062
    9MOL0     C 1063   9.967   6.339   3.952 -0.1516  0.2429 -0.3774
    9MOL0     O 1064  10.081   6.292   3.894  0.5373 -0.2828 -0.2349
    9MOL0     C 1065  10.176   6.393   3.846  0.5290 -0.8639  0.0146
    9MOL0     C 1066  10.324   6.335   3.854  0.2970  0.3686  0.4939
    9MOL0     C 1067  10.366   6.289   3.996  0.1633 -0.2053  0.4983
    9MOL0     C 1068  10.489   6.192   3.964 -0.1599  0.0485  0.3223
    9MOL0     C 1069  10.567   6.139   4.083  0.5054  0.3990 -0.1039
    9MOL0     C 1070  10.476   6.104   4.197 -0.4184 -0.1984 -1.1414
    9MOL0     C 1071  10.569   6.059   4.316 -1.0406  0.2965  1.0206
    9MOL0     C 1072  10.502   6.077   4.453 -0.3720  0.2171 -0.0447
    9MOL0     N 1073  10.605   6.044   4.558  0.4952  0.4063 -1.1442
    9MOL0     C 1074  10.719   6.121   4.588  0.1942  0.0479  0.4424
    9MOL0     C 1075  10.754   6.065   4.712  0.0929  0.5333  1.8309
    9MOL0     C 1076  10.857   6.113   4.814 -0.2049 -0.1917  0.1143
    9MOL0     C 1077  10.889   6.265   4.791  0.2173  1.2733 -0.6284
    9MOL0     C 1078  10.954   6.320   4.918  0.8228  0.9925 -0.4823
    9MOL0     C 1079  11.080   6.247   4.963  0.1037 -0.1755 -0.2543
    9MOL0     O 1080  11.175   6.245   4.855 -0.0127  0.1398 -0.1977
    9MOL0     C 1081  11.280   6.154   4.856  0.7216 -1.6009  0.9129
    9MOL0     C 1082  11.382   6.191   4.759  0.8864 -0.4350 -0.1117
    9MOL0     C 1083  11.494   6.109   4.751 -0.1101 -0.1842 -0.1631
    9MOL0     C 1084  11.490   5.978   4.813  0.4015 -0.2994 -0.5984
    9MOL0     C 1085  11.593   5.880   4.777 -0.7354 -1.4264  0.3668
    9MOL0     O 1086  11.659   5.908   4.660  0.6454  0.4286  0.0529
    9MOL0     C 1087  11.758   5.822   4.613  0.7446 -0.8954 -0.7945
    9MOL0     C 1088  11.757   5.785   4.483  0.4268  0.5798  1.0644
    9MOL0     C 1089  11.859   5.700   4.432  0.5512  0.2917 -0.6642
    9MOL0     C 1090  11.952   5.640   4.522 -0.7417 -0.6790  0.1560
    9MOL0     O 1091  12.030   5.532   4.488  0.0185 -0.4204  0.5623
    9MOL0     C 1092  12.118   5.546   4.369  0.4463 -0.5423  0.0622
    9MOL0     C 1093  12.233   5.633   4.396  0.9414 -0.1280  0.4570
    9MOL0     C 1094  12.332   5.651   4.280  0.0709 -0.3091  0.3384
    9MOL0     C 1095  12.433   5.536   4.274 -0.7259 -0.0359  0.3253
    9MOL0     C 1096  12.538   5.554   4.164  0.8167 -0.2640 -0.3318
    9MOL0     C 1097  12.649   5.450   4.160 -0.5816 -0.5888 -0.0141
    9MOL0     C 1098  12.587   5.315   4.101 -0.3186  0.3955 -0.3585
    9MOL0     C 1099  12.688   5.200   4.119 -0.2812  0.2179 -1.6870
    9MOL0    Cl 1100  12.818   5.220   4.000 -0.6361 -0.0824 -0.1867
    9MOL0     C 1101  11.936   5.679   4.653  0.3695 -0.9703  0.2773
    9MOL0     C 1102  11.853   5.773   4.701  0.6696 -0.6011  0.0385
    9MOL0     O 1103  11.621   5.787   4.857  0.2942 -0.2500  0.2671
    9MOL0     C 1104  11.388   5.947   4.904 -1.1240  0.1312 -0.3498
    9MOL0     C 1105  11.273   6.036   4.919 -0.5885  0.1716  0.2691
    9MOL0     N 1106  10.672   5.963   4.750 -0.0327  0.0622  0.0551
    9MOL0     N 1107  10.588   5.948   4.653  0.2364 -0.3904  0.1564
    9MOL0     C 1108   9.968   6.339   4.092  0.9761  0.8025 -0.3549
    9MOL0     C 1109   9.853   6.380   4.157  0.0236 -0.8623 -0.1655
    9MOL0     C 1110   9.399   6.412   4.205  0.1141  1.3306  0.7190
    9MOL0     C 1111   9.293   6.321   4.237 -0.1284 -1.2045 -0.0773
    9MOL0     C 1112   9.175   6.362   4.294  0.5603  0.4308 -0.2890
    9MOL0     C 1113   9.170   6.490   4.348  0.1376 -0.1270  0.4260
    9MOL0     O 1114   9.057   6.520   4.417 -0.1125  0.2788 -0.2653
    9MOL0     C 1115   9.064   6.547   4.562  0.2093  0.0716  0.4467
    9MOL0     C 1116   9.065   6.410   4.637  1.1149 -0.0355 -0.1445
    9MOL0     C 1117   9.095   6.431   4.791 -0.6328  0.5365 -0.0547
    9MOL0     C 1118   9.021   6.544   4.854 -0.3395  0.5651 -0.4731
    9MOL0     C 1119   8.879   6.531   4.846  0.4169 -0.1148  0.6629
    9MOL0     C 1120   8.759   6.514   4.824  1.2562 -0.0711 -0.4837
    9MOL0     C 1121   9.277   6.584   4.324 -0.4166  0.6563 -0.0972
    9MOL0     C 1122   9.385   6.541   4.255  0.4424 -0.4956 -0.6606
    9MOL0     H 1123   9.653   6.465   3.891  0.0767 -0.3536 -1.7907
    9MOL0     H 1124   9.849   6.409   3.773 -1.9240  1.0589  0.7400
    9MOL0     H 1125  10.175   6.482   3.911  1.4528  2.4976 -4.1031
    9MOL0     H 1126  10.167   6.429   3.743  2.8641  1.1258  0.3917
    9MOL0     H 1127  10.394   6.412   3.820  0.1209  0.4030  0.2005
    9MOL0     H 1128  10.328   6.260   3.774 -1.4019 -0.4759  1.1482
    9MOL0     H 1129  10.285   6.243   4.052  1.9135 -1.3724  2.2199
    9MOL0     H 1130  10.414   6.375   4.045  0.0339 -0.9091  1.9073
    9MOL0     H 1131  10.437   6.113   3.909  0.9636  0.2787 -1.1268
    9MOL0     H 1132  10.558   6.248   3.901 -2.5066  2.5030 -0.2610
    9MOL0     H 1133  10.638   6.216   4.114  1.1097  0.6168 -1.9098
    9MOL0     H 1134  10.623   6.052   4.048 -2.5269 -1.7538 -0.0147
    9MOL0     H 1135  10.407   6.025   4.167 -0.4486 -1.5950  2.2146
    9MOL0     H 1136  10.424   6.194   4.233 -0.6615 -1.0098  0.6357
    9MOL0     H 1137  10.598   5.957   4.288 -0.5109  1.1970 -2.1058
    9MOL0     H 1138  10.657   6.124   4.305 -2.5071  2.0762 -0.7962
    9MOL0     H 1139  10.419   6.006   4.459 -0.6896  0.4719 -1.3311
    9MOL0     H 1140  10.475   6.182   4.468  3.0493  1.6151 -2.2784
    9MOL0     H 1141  10.774   6.205   4.547  4.6359 -1.5213  2.5603
    9MOL0     H 1142  10.946   6.052   4.794  0.3289  1.0961 -1.7155
    9MOL0     H 1143  10.808   6.093   4.910 -0.1845 -1.1823 -0.0751
    9MOL0     H 1144  10.792   6.311   4.771 -0.5201  0.2050  0.3674
    9MOL0     H 1145  10.951   6.288   4.704 -2.5689  3.1791 -2.2907
    9MOL0     H 1146  10.981   6.425   4.901 -1.4861  1.6783 -0.1383
    9MOL0     H 1147  10.885   6.325   5.002 -0.4526 -0.8302 -1.3586
    9MOL0     H 1148  11.053   6.145   4.992  1.5953 -0.5875 -0.2073
    9MOL0     H 1149  11.121   6.301   5.049  1.2854 -2.3555  0.6319
    9MOL0     H 1150  11.375   6.289   4.712  0.9456 -1.3073 -2.0243
    9MOL0     H 1151  11.571   6.140   4.681  0.7343 -3.5153 -0.8541
    9MOL0     H 1152  11.676   5.822   4.421  2.4762  0.9441 -1.5844
    9MOL0     H 1153  11.862   5.665   4.329  0.5257  1.5593 -1.1166
    9MOL0     H 1154  12.076   5.595   4.280  2.2795  0.1403 -0.4689
    9MOL0     H 1155  12.137   5.447   4.325 -0.1302 -0.5605 -0.1552
    9MOL0     H 1156  12.275   5.598   4.491  0.0291  2.1845  1.8027
    9MOL0     H 1157  12.189   5.727   4.430 -0.0857 -0.6186  0.5500
    9MOL0     H 1158  12.373   5.751   4.298  3.8529 -1.6695  0.1931
    9MOL0     H 1159  12.279   5.654   4.184 -0.2868 -0.8692  0.5170
    9MOL0     H 1160  12.479   5.538   4.373 -0.0199  1.0353 -0.0159
    9MOL0     H 1161  12.377   5.442   4.266  1.2442 -1.2284  0.1494
    9MOL0     H 1162  12.582   5.654   4.163  2.1571 -0.8252 -2.3371
    9MOL0     H 1163  12.483   5.542   4.070 -0.2328 -3.1402  0.5382
    9MOL0     H 1164  12.693   5.424   4.256 -1.2482  0.6873  0.6577
    9MOL0     H 1165  12.730   5.489   4.098  0.5482 -3.3517 -0.4209
    9MOL0     H 1166  12.498   5.275   4.150 -0.6206  0.4440 -0.8547
    9MOL0     H 1167  12.554   5.332   3.998 -0.4484 -1.1034 -0.5812
    9MOL0     H 1168  12.642   5.104   4.096 -1.0587  0.4929 -1.3095
    9MOL0     H 1169  12.719   5.208   4.223 -1.9593 -0.4130 -1.1004
    9MOL0     H 1170  12.001   5.636   4.729  0.5061 -0.1622  0.6255
    9MOL0     H 1171  11.855   5.807   4.804  2.1208  0.0130 -0.1700
    9MOL0     H 1172  11.381   5.849   4.949  1.5353  0.5773  1.2354
    9MOL0     H 1173  11.195   6.012   4.990 -1.0842  1.9729  0.3788
    9MOL0     H 1174  10.051   6.303   4.152 -1.1022 -0.0870  2.2152
    9MOL0     H 1175   9.840   6.363   4.263 -4.7039 -0.6765 -0.4928
    9MOL0     H 1176   9.304   6.222   4.194 -2.8600 -1.1843 -1.0449
    9MOL0     H 1177   9.096   6.288   4.303 -0.5918  1.5971 -0.5312
    9MOL0     H 1178   8.977   6.607   4.589 -2.4498 -1.7636 -3.1649
    9MOL0     H 1179   9.160   6.593   4.587  1.4925 -1.7071 -0.9329
    9MOL0     H 1180   8.961   6.377   4.623  0.3456  2.8687 -2.4933
    9MOL0     H 1181   9.129   6.337   4.586  1.5167  0.4367 -0.3206
    9MOL0     H 1182   9.202   6.448   4.804 -0.5260 -0.9243  1.1967
    9MOL0     H 1183   9.068   6.347   4.855  3.0293 -0.7849  0.0035
    9MOL0     H 1184   9.051   6.551   4.959 -1.4519 -1.0098 -0.0123
    9MOL0     H 1185   9.064   6.629   4.800 -0.3973  2.4709  2.2554
    9MOL0     H 1186   8.657   6.482   4.816  0.6437  1.6463  0.0188
    9MOL0     H 1187   9.263   6.686   4.358  0.7542  0.7623  0.1251
    9MOL0     H 1188   9.457   6.618   4.229 -0.5094  0.3679 -0.8037
   10MOL0     O 1189   5.257   1.501   5.175  0.2027 -0.2474 -0.5416
   10MOL0     C 1190   5.302   1.432   5.088  0.7848 -0.5235  0.4286
   10MOL0     O 1191   5.230   1.386   4.983 -0.7559  0.1017 -0.5574
   10MOL0     C 1192   5.091   1.385   4.983 -0.1453 -0.6259 -0.6660
   10MOL0     C 1193   5.024   1.417   4.872  0.5629 -0.7720  0.1431
   10MOL0     C 1194   4.885   1.406   4.863  0.5055 -0.4908  0.3949
   10MOL0     C 1195   4.816   1.366   4.979  0.3330  0.7183  0.7813
   10MOL0     O 1196   4.680   1.376   4.993 -0.4553  0.2269  0.2591
   10MOL0     C 1197   4.615   1.482   4.918 -0.4143 -0.0078  0.7117
   10MOL0     C 1198   4.476   1.500   4.984  1.1574 -0.3304 -0.6608
   10MOL0     C 1199   4.381   1.583   4.903  0.8836  1.0996  0.3955
   10MOL0     C 1200   4.228   1.577   4.944  0.1419 -0.1580  0.2350
   10MOL0     C 1201   4.222   1.590   5.098  0.0125  1.2573 -0.2548
   10MOL0     C 1202   4.077   1.632   5.131 -0.2587 -0.9302 -0.0104
   10MOL0     C 1203   4.051   1.628   5.277 -0.4718 -0.6280 -0.6835
   10MOL0     C 1204   3.908   1.606   5.314  0.4530  0.5690  0.0246
   10MOL0     N 1205   3.832   1.493   5.252  0.5174  0.6421 -0.6977
   10MOL0     C 1206   3.836   1.369   5.299  0.9933  0.5993  0.1498
   10MOL0     C 1207   3.751   1.295   5.220 -0.9123 -0.3457 -0.4210
   10MOL0     C 1208   3.714   1.154   5.243  0.2431 -0.0300 -0.9062
   10MOL0     C 1209   3.816   1.065   5.164  0.5952  0.2548 -1.2190
   10MOL0     C 1210   3.803   0.915   5.185 -0.2465  0.2354  0.7270
   10MOL0     C 1211   3.671   0.863   5.149  0.4945 -0.3239  0.4059
   10MOL0     O 1212   3.650   0.878   5.006  0.1953  0.4963 -0.4755
   10MOL0     C 1213   3.520   0.871   4.964  0.1587  0.2058  0.0688
   10MOL0     C 1214   3.445   0.989   4.945  0.3982  0.7107 -0.7175
   10MOL0     C 1215   3.309   0.976   4.909  0.1778 -0.3143 -0.6001
   10MOL0     C 1216   3.242   0.849   4.910  0.1501 -0.4131 -0.5162
   10MOL0     C 1217   3.092   0.844   4.880 -0.3494 -1.0472  0.0544
   10MOL0     O 1218   3.029   0.729   4.916  0.4193 -0.3217 -0.0160
   10MOL0     C 1219   2.892   0.707   4.910 -0.0092  0.3118 -0.7439
   10MOL0     C 1220   2.807   0.816   4.935  0.0780  1.2291  0.3500
   10MOL0     C 1221   2.672   0.794   4.917 -0.4684 -0.2199  0.2685
   10MOL0     C 1222   2.615   0.677   4.870  0.6402 -1.2291  0.2328
   10MOL0     O 1223   2.486   0.672   4.828 -0.7064  0.5383 -0.2071
   10MOL0     C 1224   2.395   0.783   4.847 -0.1288  0.1846  0.6306
   10MOL0     C 1225   2.244   0.759   4.832 -0.0154  0.4318 -0.3176
   10MOL0     C 1226   2.203   0.693   4.697 -0.0988 -0.9509  0.6292
   10MOL0     C 1227   2.062   0.642   4.728 -0.5721  0.1985  0.4037
   10MOL0     C 1228   2.010   0.562   4.608  1.1255  0.2026  0.6031
   10MOL0     C 1229   1.866   0.529   4.626  0.4713 -0.8380  0.7466
   10MOL0     C 1230   1.773   0.651   4.618  0.1670  0.1143 -0.1997
   10MOL0     C 1231   1.635   0.604   4.613  0.4689  0.4292  0.5632
   10MOL0    Cl 1232   1.509   0.734   4.580 -0.1164  0.1298  0.2214
   10MOL0     C 1233   2.700   0.575   4.839 -0.0608  0.7076 -0.0699
   10MOL0     C 1234   2.837   0.588   4.869 -0.0539 -1.0370  1.1012
   10MOL0     O 1235   3.044   0.944   4.829 -0.0433  0.6153  1.0420
   10MOL0     C 1236   3.313   0.739   4.920 -0.3263  0.5405  0.6203
   10MOL0     C 1237   3.450   0.746   4.948  0.1496 -1.1059  0.5318
   10MOL0     N 1238   3.697   1.390   5.126  0.8453 -1.1323  0.7217
   10MOL0     N 1239   3.745   1.505   5.151 -0.3968  0.2320  0.4120
   10MOL0     C 1240   4.882   1.326   5.090  0.8750  0.6963  0.2614
   10MOL0     C 1241   5.021   1.333   5.090 -0.4433 -0.5572  0.8892
   10MOL0     C 1242   5.443   1.391   5.092  0.0920  0.1754 -0.3912
   10MOL0     C 1243   5.504   1.338   4.983 -0.0192  0.6847  0.0182
   10MOL0     C 1244   5.629   1.263   4.999 -0.4002 -0.8777 -0.2746
   10MOL0     C 1245   5.703   1.273   5.110 -0.3573  0.2193 -0.8525
   10MOL0     O 1246   5.822   1.197   5.129  0.5717  0.3214  0.4557
   10MOL0     C 1247   5.883   1.178   5.262 -0.3253  0.3057  0.7525
   10MOL0     C 1248   6.004   1.093   5.246 -0.2163  0.6580 -0.0041
   10MOL0     C 1249   6.096   1.103   5.363  0.3566  0.1877 -0.3627
   10MOL0     C 1250   6.183   0.981   5.385 -0.2066 -0.3921  0.1359
   10MOL0     C 1251   6.242   0.926   5.260  0.5952 -0.7044 -0.2981
   10MOL0     C 1252   6.297   0.890   5.164 -0.4700  0.0012 -0.0695
   10MOL0     C 1253   5.655   1.343   5.221  0.5006 -0.0719 -0.2674
   10MOL0     C 1254   5.523   1.401   5.207 -0.9033 -0.0175 -0.2863
   10MOL0     H 1255   5.083   1.441   4.785 -1.3455 -1.0881 -1.3151
   10MOL0     H 1256   4.837   1.432   4.769  1.0014  0.6356  0.4317
   10MOL0     H 1257   4.586   1.439   4.822 -0.4262  0.9497  0.2712
   10MOL0     H 1258   4.687   1.563   4.903 -0.2714 -0.3290 -0.4592
   10MOL0     H 1259   4.488   1.536   5.087 -2.5782 -2.2385  0.6393
   10MOL0     H 1260   4.434   1.401   5.001  1.3260 -0.1950  0.6426
   10MOL0     H 1261   4.380   1.542   4.801  1.6186  2.5246 -0.2060
   10MOL0     H 1262   4.413   1.687   4.900 -0.2966  1.5011  1.0189
   10MOL0     H 1263   4.179   1.652   4.881 -2.1743 -0.3799  1.6304
   10MOL0     H 1264   4.176   1.483   4.923  0.8691 -0.0776 -2.1206
   10MOL0     H 1265   4.291   1.665   5.138  1.6989 -0.1375 -0.4808
   10MOL0     H 1266   4.252   1.495   5.142 -1.3680  0.5786 -0.6956
   10MOL0     H 1267   4.023   1.549   5.085 -0.7154  0.2627 -1.7020
   10MOL0     H 1268   4.038   1.728   5.097 -1.5522 -1.1528  0.7427
   10MOL0     H 1269   4.111   1.550   5.324 -0.7457  0.2075  1.1501
   10MOL0     H 1270   4.089   1.722   5.319 -1.2488 -0.9563  0.8361
   10MOL0     H 1271   3.848   1.698   5.311  0.8205  0.8218  0.3119
   10MOL0     H 1272   3.891   1.586   5.421 -1.1289  2.4263  0.1892
   10MOL0     H 1273   3.887   1.351   5.393 -1.8056  2.6192  2.2451
   10MOL0     H 1274   3.608   1.148   5.215 -0.4471  4.7574 -0.1737
   10MOL0     H 1275   3.731   1.129   5.348  3.6039  4.3736 -0.1141
   10MOL0     H 1276   3.921   1.087   5.184  0.5656 -1.1773  0.8161
   10MOL0     H 1277   3.809   1.078   5.056  3.5982  1.1636 -1.3957
   10MOL0     H 1278   3.863   0.859   5.113 -3.4280  0.2723 -2.1637
   10MOL0     H 1279   3.837   0.890   5.286 -0.2247  2.8359  1.4256
   10MOL0     H 1280   3.597   0.922   5.203  0.9496  2.7029 -1.9901
   10MOL0     H 1281   3.658   0.759   5.181 -0.9209 -0.1203  0.5749
   10MOL0     H 1282   3.484   1.089   4.956 -0.9826  1.2449 -0.4860
   10MOL0     H 1283   3.246   1.064   4.905  2.4490  1.4275 -0.2734
   10MOL0     H 1284   2.835   0.919   4.955  2.1656  0.4474  1.7439
   10MOL0     H 1285   2.619   0.888   4.925  0.4384  0.2551  0.9026
   10MOL0     H 1286   2.415   0.864   4.777  2.1757  1.4122  2.5583
   10MOL0     H 1287   2.408   0.835   4.943  1.0948  3.4544 -1.1693
   10MOL0     H 1288   2.197   0.857   4.848 -0.1137  0.0867  1.8120
   10MOL0     H 1289   2.210   0.710   4.924 -1.3666  0.8436 -0.5860
   10MOL0     H 1290   2.263   0.607   4.663 -0.5327 -0.6210 -1.0613
   10MOL0     H 1291   2.215   0.762   4.613 -1.5364 -2.5062 -0.9458
   10MOL0     H 1292   2.064   0.583   4.820 -0.1672 -0.0717  0.2252
   10MOL0     H 1293   2.008   0.736   4.741  0.5089  1.1338 -1.4676
   10MOL0     H 1294   2.070   0.472   4.595  1.0549  0.4112 -1.3803
   10MOL0     H 1295   2.024   0.624   4.519  1.0654 -0.4009  0.1673
   10MOL0     H 1296   1.859   0.485   4.726 -1.1048  1.6234  1.8183
   10MOL0     H 1297   1.835   0.451   4.556  2.1876 -3.0158  2.2453
   10MOL0     H 1298   1.792   0.718   4.701 -3.5083  0.4510  0.5401
   10MOL0     H 1299   1.781   0.705   4.523 -1.6893  2.4295  0.8844
   10MOL0     H 1300   1.615   0.548   4.704  2.1890  0.8087  1.2240
   10MOL0     H 1301   1.617   0.541   4.526  1.4025  1.6055 -0.5259
   10MOL0     H 1302   2.666   0.494   4.775 -2.3076  1.3819  0.1968
   10MOL0     H 1303   2.903   0.507   4.839 -0.1388 -0.2050 -1.6662
   10MOL0     H 1304   3.266   0.649   4.882  2.6212 -1.2471  0.8395
   10MOL0     H 1305   3.502   0.653   4.928  0.1209 -0.4765 -3.0682
   10MOL0     H 1306   4.818   1.296   5.172 -3.0736  0.5561 -2.5806
   10MOL0     H 1307   5.075   1.287   5.172 -1.7458 -3.3314  0.3281
   10MOL0     H 1308   5.449   1.323   4.891  1.2446  1.2555 -0.8669
   10MOL0     H 1309   5.671   1.206   4.917  0.9089  0.8838 -0.9120
   10MOL0     H 1310   5.819   1.141   5.342  1.3047 -2.3571  0.9338
   10MOL0     H 1311   5.911   1.278   5.297 -1.1125  1.1246 -0.8221
   10MOL0     H 1312   5.971   0.991   5.223 -1.3511  1.2897 -1.2883
   10MOL0     H 1313   6.052   1.128   5.154  0.9335 -0.4127  0.1580
   10MOL0     H 1314   6.031   1.116   5.451 -0.0058 -1.9208 -0.2754
   10MOL0     H 1315   6.164   1.188   5.357  0.3343  0.2047 -0.3774
   10MOL0     H 1316   6.263   1.005   5.456  0.3125  1.5916 -1.0333
   10MOL0     H 1317   6.123   0.904   5.432  0.0985 -0.8104 -0.1542
   10MOL0     H 1318   6.341   0.859   5.072 -0.0647  2.4071 -0.7607
   10MOL0     H 1319   5.719   1.370   5.304  0.3121  0.6014 -0.3292
   10MOL0     H 1320   5.476   1.447   5.293  1.2293  4.5325 -1.2049
   11MOL0     O 1321   7.237   1.229   7.035 -0.2189  0.4609  0.5894
   11MOL0     C 1322   7.152   1.318   7.040 -0.2021 -0.1811  0.4754
   11MOL0     O 1323   7.109   1.374   7.150 -1.5383  0.1520 -0.1307
   11MOL0     C 1324   7.191   1.383   7.258 -0.0385 -0.0974  0.0002
   11MOL0     C 1325   7.322   1.419   7.258 -0.0457 -0.1921  0.1151
   11MOL0     C 1326   7.393   1.437   7.377  0.1036  0.3298  0.0485
   11MOL0     C 1327   7.336   1.413   7.498 -0.1159  0.0512  0.3425
   11MOL0     O 1328   7.420   1.415   7.606  0.5425  0.0983  0.0248
   11MOL0     C 1329   7.362   1.447   7.740  0.5081  0.0052  0.4353
   11MOL0     C 1330   7.470   1.422   7.843 -0.5894 -0.2622  0.0827
   11MOL0     C 1331   7.432   1.302   7.923  0.2086 -0.2188 -1.4678
   11MOL0     C 1332   7.464   1.170   7.855  1.0427 -0.0764  0.4878
   11MOL0     C 1333   7.476   1.043   7.941 -0.0055 -0.0756  0.2058
   11MOL0     C 1334   7.521   0.916   7.870  1.4185 -0.6320  0.1883
   11MOL0     C 1335   7.666   0.921   7.822  0.3638  0.5329 -0.0965
   11MOL0     C 1336   7.725   0.778   7.792  0.0241 -0.6940 -0.5031
   11MOL0     N 1337   7.719   0.707   7.920  0.1065 -0.2497 -0.1244
   11MOL0     C 1338   7.782   0.745   8.039  0.6292  0.3874  0.3790
   11MOL0     C 1339   7.730   0.647   8.116  0.1655 -0.2304 -0.0190
   11MOL0     C 1340   7.745   0.628   8.260 -0.0499  0.9674 -0.2071
   11MOL0     C 1341   7.622   0.671   8.333  0.6427 -0.7625 -0.6257
   11MOL0     C 1342   7.584   0.813   8.293 -0.7247  0.3227  0.1373
   11MOL0     C 1343   7.472   0.881   8.380 -1.0841 -0.2611  0.2209
   11MOL0     O 1344   7.431   1.001   8.319  0.2243 -0.1176 -0.9895
   11MOL0     C 1345   7.318   1.064   8.351  0.6628  0.0199 -1.1832
   11MOL0     C 1346   7.220   1.009   8.435  0.0103  0.1985  0.5243
   11MOL0     C 1347   7.113   1.092   8.466  0.4836 -0.6652 -0.4393
   11MOL0     C 1348   7.110   1.231   8.425  1.4364  0.0578 -0.7010
   11MOL0     C 1349   7.012   1.327   8.479  0.7835  0.2918 -0.2945
   11MOL0     O 1350   6.962   1.290   8.602  0.1813  0.5660  0.3084
   11MOL0     C 1351   6.833   1.315   8.642 -0.2295 -0.0522 -0.0466
   11MOL0     C 1352   6.817   1.327   8.778  0.3498 -0.5268  0.3937
   11MOL0     C 1353   6.692   1.365   8.833 -0.1298  0.7887 -0.2194
   11MOL0     C 1354   6.581   1.383   8.751  0.5382 -0.5370 -0.1648
   11MOL0     O 1355   6.457   1.406   8.801  0.0735 -0.9774  1.0840
   11MOL0     C 1356   6.336   1.355   8.734 -0.6453  0.1678 -0.0602
   11MOL0     C 1357   6.217   1.377   8.825 -0.2664 -1.0592  0.0131
   11MOL0     C 1358   6.200   1.289   8.950  0.1266  0.0820 -0.0929
   11MOL0     C 1359   6.047   1.309   9.001 -0.5389 -0.0110  0.1973
   11MOL0     C 1360   6.008   1.242   9.130 -0.0656  0.6564 -0.3472
   11MOL0     C 1361   5.867   1.277   9.175  0.3145 -0.7112 -0.8467
   11MOL0     C 1362   5.799   1.170   9.262  0.2612 -0.7228  1.0952
   11MOL0     C 1363   5.644   1.193   9.274 -0.1677 -0.3866  0.1007
   11MOL0    Cl 1364   5.553   1.040   9.316 -0.3059 -0.1342 -0.5198
   11MOL0     C 1365   6.602   1.386   8.615 -0.2529  0.2434  0.4436
   11MOL0     C 1366   6.728   1.352   8.565 -0.5116  0.4022 -0.4074
   11MOL0     O 1367   6.976   1.425   8.421 -0.3614  0.1250 -0.5089
   11MOL0     C 1368   7.209   1.283   8.344  0.3569 -0.8890  0.2982
   11MOL0     C 1369   7.308   1.194   8.308 -0.0597  0.1162 -0.4839
   11MOL0     N 1370   7.651   0.566   8.047 -0.6021 -0.4751  0.2629
   11MOL0     N 1371   7.640   0.599   7.929 -0.3593 -0.0016 -0.9758
   11MOL0     C 1372   7.196   1.370   7.499 -0.4363  0.4115  0.0989
   11MOL0     C 1373   7.126   1.362   7.381 -0.2502  0.3045 -0.4922
   11MOL0     C 1374   7.120   1.390   6.920 -0.2859 -0.7850  0.5690
   11MOL0     C 1375   6.998   1.455   6.900  0.6362  0.2268 -0.0726
   11MOL0     C 1376   6.970   1.534   6.786  0.0891  0.1528 -0.0932
   11MOL0     C 1377   7.069   1.553   6.685 -0.4783  0.1284  0.0364
   11MOL0     O 1378   7.045   1.638   6.581  0.0736  0.0679 -0.0088
   11MOL0     C 1379   7.162   1.697   6.518  0.9876  0.0448  1.1070
   11MOL0     C 1380   7.121   1.805   6.421  0.7255 -1.2875  1.0432
   11MOL0     C 1381   6.982   1.815   6.352 -0.4086 -0.0183  0.4762
   11MOL0     C 1382   6.946   1.716   6.249  0.6881 -0.5041  0.7682
   11MOL0     C 1383   7.029   1.694   6.124 -0.2146  0.7350  0.0011
   11MOL0     C 1384   7.097   1.661   6.028  0.0625 -0.5403  0.2092
   11MOL0     C 1385   7.188   1.476   6.702 -0.2761 -0.1609 -0.1625
   11MOL0     C 1386   7.210   1.399   6.813 -0.3693 -0.0423 -0.0256
   11MOL0     H 1387   7.364   1.431   7.159  2.0049 -2.9635  0.5091
   11MOL0     H 1388   7.496   1.467   7.395 -0.4217  2.1209  0.3336
   11MOL0     H 1389   7.267   1.400   7.766 -1.0727  2.7279 -0.0815
   11MOL0     H 1390   7.335   1.552   7.749 -1.5560 -0.3241 -1.1054
   11MOL0     H 1391   7.473   1.512   7.906 -2.8844 -0.4599  0.5517
   11MOL0     H 1392   7.565   1.413   7.789 -0.1636  0.4165  0.6776
   11MOL0     H 1393   7.325   1.315   7.943  0.9026  1.3444  1.9087
   11MOL0     H 1394   7.485   1.316   8.018 -2.9573  0.3647  0.3503
   11MOL0     H 1395   7.392   1.148   7.775  0.1640  2.8799  0.3401
   11MOL0     H 1396   7.556   1.185   7.798  0.3993 -0.2539 -0.6360
   11MOL0     H 1397   7.378   1.043   7.990  1.0000  0.7681  2.3189
   11MOL0     H 1398   7.535   1.061   8.031 -1.7623  1.3994  1.1270
   11MOL0     H 1399   7.457   0.898   7.783 -5.1139  0.9641  3.9819
   11MOL0     H 1400   7.504   0.834   7.940 -1.3946  0.7382  1.2655
   11MOL0     H 1401   7.669   0.960   7.720  1.0789  1.4163  0.2609
   11MOL0     H 1402   7.741   0.968   7.886  1.6678 -2.7664  1.0253
   11MOL0     H 1403   7.828   0.781   7.755  0.2323 -2.9522 -0.2616
   11MOL0     H 1404   7.664   0.729   7.715  0.6754  0.6841 -1.9560
   11MOL0     H 1405   7.843   0.828   8.074  0.2114 -0.1435  2.4766
   11MOL0     H 1406   7.839   0.677   8.288 -0.0779  0.5324  0.6761
   11MOL0     H 1407   7.752   0.524   8.291 -2.7281  1.2639  1.8065
   11MOL0     H 1408   7.652   0.663   8.438 -0.6397 -2.2199 -0.3321
   11MOL0     H 1409   7.541   0.599   8.317  1.0927 -1.1664 -1.1169
   11MOL0     H 1410   7.678   0.868   8.284 -0.4088  0.2521  2.3327
   11MOL0     H 1411   7.539   0.799   8.194 -0.6769 -0.3469  0.2052
   11MOL0     H 1412   7.498   0.906   8.484  1.7487 -0.9078 -0.2411
   11MOL0     H 1413   7.400   0.799   8.381  0.7387 -1.9472 -0.1024
   11MOL0     H 1414   7.223   0.908   8.475  0.8213 -0.5699 -1.3565
   11MOL0     H 1415   7.026   1.059   8.522  0.1654  1.6603  0.5605
   11MOL0     H 1416   6.902   1.298   8.839 -0.3898 -1.7695  0.8760
   11MOL0     H 1417   6.680   1.385   8.939 -0.2201  2.2945 -0.4850
   11MOL0     H 1418   6.342   1.248   8.711 -3.0304  0.3496 -1.9010
   11MOL0     H 1419   6.326   1.394   8.632  2.5902 -0.7957 -0.8736
   11MOL0     H 1420   6.126   1.354   8.768 -1.1668  0.3019  0.8462
   11MOL0     H 1421   6.195   1.476   8.866 -1.2119 -0.2137 -2.3693
   11MOL0     H 1422   6.266   1.317   9.033  0.8464  1.2257 -1.0281
   11MOL0     H 1423   6.222   1.183   8.937  3.2660  0.3392  1.9070
   11MOL0     H 1424   6.017   1.412   9.019  0.6693  0.0876  1.7819
   11MOL0     H 1425   5.988   1.273   8.915 -0.6945  2.8793 -1.0232
   11MOL0     H 1426   6.074   1.267   9.214 -1.6076  2.9288  0.2683
   11MOL0     H 1427   6.012   1.134   9.112 -3.1549 -0.1203  2.7318
   11MOL0     H 1428   5.804   1.312   9.093 -1.4266 -1.2192  0.2148
   11MOL0     H 1429   5.878   1.372   9.229  1.4669 -0.3737 -1.6506
   11MOL0     H 1430   5.820   1.079   9.205  3.2160 -1.1525  2.6462
   11MOL0     H 1431   5.848   1.162   9.360  0.5224 -3.5900  0.8194
   11MOL0     H 1432   5.608   1.230   9.178 -0.4295 -0.1294  0.2944
   11MOL0     H 1433   5.619   1.267   9.352  0.0820 -1.1186  0.8862
   11MOL0     H 1434   6.521   1.371   8.544  0.6655 -3.9631 -0.0060
   11MOL0     H 1435   6.752   1.334   8.461 -0.8988  2.8216 -0.9658
   11MOL0     H 1436   7.224   1.383   8.304  1.3332 -0.6044  1.3081
   11MOL0     H 1437   7.384   1.229   8.238 -2.8965  3.8782 -1.9970
   11MOL0     H 1438   7.150   1.351   7.595 -0.0393  2.2582  0.7086
   11MOL0     H 1439   7.024   1.327   7.388 -0.9893  2.3768 -0.0718
   11MOL0     H 1440   6.910   1.451   6.964 -1.2469  3.6415 -2.1360
   11MOL0     H 1441   6.877   1.590   6.785  0.0898  0.2763 -3.4805
   11MOL0     H 1442   7.199   1.618   6.451 -2.1659 -0.8402  0.2558
   11MOL0     H 1443   7.237   1.723   6.593 -1.0819  1.5934  2.7439
   11MOL0     H 1444   7.118   1.889   6.491  1.0622 -1.7444  1.6136
   11MOL0     H 1445   7.193   1.831   6.343  1.4308 -0.9987  1.7819
   11MOL0     H 1446   6.979   1.910   6.299  0.6595  0.0883  0.5846
   11MOL0     H 1447   6.907   1.815   6.431 -2.4731  0.6549 -1.3955
   11MOL0     H 1448   6.932   1.628   6.312  1.9081 -1.0778  0.2823
   11MOL0     H 1449   6.847   1.738   6.209  1.0095 -0.3431  0.0348
   11MOL0     H 1450   7.151   1.622   5.944  2.3818  0.2326  1.2409
   11MOL0     H 1451   7.266   1.479   6.627  0.3533  0.1330  0.4898
   11MOL0     H 1452   7.311   1.359   6.806  0.1223  1.1504  0.1244
   12MOL0     O 1453   1.217   2.860   7.101  0.1277  0.1142  0.0545
   12MOL0     C 1454   1.117   2.931   7.115 -0.2464  0.0529  0.7411
   12MOL0     O 1455   1.119   3.073   7.116  0.8539  0.5978 -0.3418
   12MOL0     C 1456   1.239   3.144   7.087  1.1501  0.5416 -0.3391
   12MOL0     C 1457   1.245   3.265   7.153 -0.6998  0.1683 -0.5331
   12MOL0     C 1458   1.365   3.352   7.150  0.1537  0.1952  0.1838
   12MOL0     C 1459   1.471   3.307   7.070  0.2675  0.2416 -0.6403
   12MOL0     O 1460   1.588   3.369   7.061  0.0608  0.3444  0.1547
   12MOL0     C 1461   1.581   3.477   6.979  0.3681  0.2242  0.3380
   12MOL0     C 1462   1.722   3.528   6.991  0.2081  0.2643 -0.2486
   12MOL0     C 1463   1.757   3.627   6.881  0.2263  0.2967 -0.2736
   12MOL0     C 1464   1.900   3.680   6.875 -0.7747 -0.6092  0.2312
   12MOL0     C 1465   1.920   3.799   6.774 -0.2456  0.5901 -0.2624
   12MOL0     C 1466   1.904   3.931   6.840  0.7728 -0.1517 -0.0309
   12MOL0     C 1467   1.984   4.041   6.772  0.1510 -0.2993  0.5412
   12MOL0     C 1468   2.123   4.055   6.832 -0.8257  1.2560  0.1721
   12MOL0     N 1469   2.155   4.172   6.907 -0.4136  0.0480  0.6835
   12MOL0     C 1470   2.229   4.279   6.863 -0.2838  0.1830 -0.6227
   12MOL0     C 1471   2.202   4.376   6.949  0.7837 -0.5992 -0.9274
   12MOL0     C 1472   2.264   4.516   6.965  0.5045 -0.6804  1.2035
   12MOL0     C 1473   2.278   4.595   6.833 -0.4986 -0.2039  0.7434
   12MOL0     C 1474   2.282   4.743   6.863 -0.5992 -0.5489 -1.0679
   12MOL0     C 1475   2.412   4.793   6.928  1.0713 -0.3064  1.0418
   12MOL0     O 1476   2.525   4.758   6.843  0.8153  0.6461  0.1619
   12MOL0     C 1477   2.644   4.817   6.873  0.2741 -0.1564  0.5798
   12MOL0     C 1478   2.675   4.854   7.006  0.7479 -0.3372  0.4993
   12MOL0     C 1479   2.793   4.917   7.036 -0.2202  0.7540 -0.7983
   12MOL0     C 1480   2.894   4.948   6.941 -0.4736 -0.3177  0.1049
   12MOL0     C 1481   3.018   5.012   6.999 -0.9712  0.6508 -0.5693
   12MOL0     O 1482   3.017   5.089   7.123 -0.6254 -0.0934  0.5583
   12MOL0     C 1483   3.133   5.136   7.166  0.7279  0.5733 -0.6764
   12MOL0     C 1484   3.231   5.200   7.090 -0.3243  0.0320 -0.3670
   12MOL0     C 1485   3.340   5.260   7.152  0.1962  0.3595 -0.1469
   12MOL0     C 1486   3.365   5.256   7.295  0.9898 -0.4832 -0.7226
   12MOL0     O 1487   3.485   5.293   7.337 -0.3731 -0.0002 -0.3259
   12MOL0     C 1488   3.509   5.344   7.472  0.5148  0.9473 -0.4113
   12MOL0     C 1489   3.649   5.312   7.524  0.4693 -0.6827 -0.4550
   12MOL0     C 1490   3.673   5.170   7.590 -0.6872 -0.7416 -1.1257
   12MOL0     C 1491   3.607   5.170   7.725  0.0667  0.1011  0.1665
   12MOL0     C 1492   3.602   5.026   7.802  0.1820 -1.2590  0.3749
   12MOL0     C 1493   3.564   5.028   7.953 -0.2601 -1.0795  0.0124
   12MOL0     C 1494   3.683   5.062   8.038 -0.6755  1.1551 -0.2536
   12MOL0     C 1495   3.658   5.049   8.177  0.0235  0.5122  0.3534
   12MOL0    Cl 1496   3.815   5.077   8.261  0.3659 -0.8418  0.2799
   12MOL0     C 1497   3.257   5.193   7.380 -0.9065 -0.6664 -0.6892
   12MOL0     C 1498   3.143   5.146   7.314 -0.6839  0.5176 -0.0008
   12MOL0     O 1499   3.118   4.987   6.931  0.2497 -0.2590  0.2499
   12MOL0     C 1500   2.859   4.906   6.806 -0.2900  0.9366  0.0081
   12MOL0     C 1501   2.742   4.837   6.773  0.7980  0.3003 -0.5571
   12MOL0     N 1502   2.117   4.321   7.049  0.2523 -0.6769  0.2253
   12MOL0     N 1503   2.088   4.195   7.023  0.2965 -0.0340 -0.1069
   12MOL0     C 1504   1.453   3.185   6.992 -0.1475 -0.8527  0.2696
   12MOL0     C 1505   1.336   3.112   6.990  0.1892 -0.1560  0.6496
   12MOL0     C 1506   1.011   2.855   7.168  0.2725  0.6842  0.0737
   12MOL0     C 1507   0.980   2.721   7.135  0.5218 -0.5321 -0.0585
   12MOL0     C 1508   0.855   2.667   7.158  0.2168  0.2655  0.0014
   12MOL0     C 1509   0.762   2.727   7.243 -0.9020  0.1246  0.8578
   12MOL0     O 1510   0.641   2.674   7.281 -0.6384  0.3417  0.7766
   12MOL0     C 1511   0.605   2.540   7.244  0.4657  0.9406 -0.5018
   12MOL0     C 1512   0.467   2.519   7.302 -0.1367 -1.4074 -1.0579
   12MOL0     C 1513   0.379   2.434   7.224  0.1460 -0.0697 -0.3421
   12MOL0     C 1514   0.372   2.302   7.283  0.7094  0.0275 -0.2782
   12MOL0     C 1515   0.492   2.222   7.247  0.2045  0.1798  0.1867
   12MOL0     C 1516   0.595   2.164   7.220 -0.2637 -0.3446 -0.4395
   12MOL0     C 1517   0.797   2.848   7.295  0.3799 -0.4996 -0.1103
   12MOL0     C 1518   0.916   2.917   7.252  0.8497 -0.6235  0.2260
   12MOL0     H 1519   1.168   3.309   7.216 -2.3045  0.2197 -2.4699
   12MOL0     H 1520   1.382   3.432   7.221  2.8618 -1.7735  1.9791
   12MOL0     H 1521   1.505   3.549   7.009 -0.5147  0.2317 -1.7383
   12MOL0     H 1522   1.547   3.443   6.881 -0.8243 -1.3387  1.2492
   12MOL0     H 1523   1.794   3.446   6.996  0.8295  0.8783  1.5480
   12MOL0     H 1524   1.728   3.577   7.089  1.0652  0.3940 -0.3597
   12MOL0     H 1525   1.694   3.716   6.891  0.6067  0.3807  1.8480
   12MOL0     H 1526   1.730   3.579   6.787  1.4492  0.3880 -0.6775
   12MOL0     H 1527   1.930   3.710   6.976 -0.7376 -2.4916  0.8329
   12MOL0     H 1528   1.962   3.594   6.848  0.5431 -0.8662  3.6180
   12MOL0     H 1529   1.860   3.789   6.683  0.7617 -1.2107 -0.7858
   12MOL0     H 1530   2.028   3.795   6.756  0.0632  0.2123  1.5403
   12MOL0     H 1531   1.916   3.936   6.949 -1.9006  1.2336  0.2873
   12MOL0     H 1532   1.795   3.945   6.832  0.2291 -2.8158  1.3726
   12MOL0     H 1533   1.984   4.020   6.664 -1.5368 -1.7415  0.7807
   12MOL0     H 1534   1.932   4.135   6.793 -0.2792 -0.4023 -0.0399
   12MOL0     H 1535   2.191   4.033   6.749 -1.0778 -0.2481  0.3337
   12MOL0     H 1536   2.140   3.970   6.898 -3.1396  0.4672 -0.1220
   12MOL0     H 1537   2.298   4.268   6.780  0.3934 -1.1116  0.0831
   12MOL0     H 1538   2.366   4.493   6.997  0.3833 -1.4609  1.0634
   12MOL0     H 1539   2.213   4.573   7.044 -1.6765  0.8911 -1.1751
   12MOL0     H 1540   2.195   4.583   6.763  1.1516  3.3374 -2.0961
   12MOL0     H 1541   2.359   4.565   6.767  0.8077 -1.5825  2.8516
   12MOL0     H 1542   2.272   4.806   6.774 -1.3299  0.4869 -0.2812
   12MOL0     H 1543   2.200   4.756   6.935  2.3592  3.4072  2.0296
   12MOL0     H 1544   2.404   4.748   7.028 -1.7795 -0.2604  0.9327
   12MOL0     H 1545   2.422   4.902   6.927  2.3753 -0.4165  0.9223
   12MOL0     H 1546   2.604   4.839   7.086 -1.7477  2.1570 -1.0502
   12MOL0     H 1547   2.820   4.952   7.135 -1.4416  2.6120 -1.0635
   12MOL0     H 1548   3.225   5.216   6.983 -0.1110 -2.8098 -0.8836
   12MOL0     H 1549   3.424   5.300   7.096 -0.8846  0.6257 -1.6319
   12MOL0     H 1550   3.433   5.307   7.542 -0.8360  2.1574 -1.1922
   12MOL0     H 1551   3.506   5.453   7.476  0.8791  0.9944  3.8068
   12MOL0     H 1552   3.686   5.389   7.593  1.1529 -1.0896 -0.3504
   12MOL0     H 1553   3.721   5.307   7.442  0.2854 -1.2438 -0.5824
   12MOL0     H 1554   3.781   5.152   7.593  0.2036  3.3463 -1.5014
   12MOL0     H 1555   3.631   5.085   7.537 -0.7059 -3.1114  2.3887
   12MOL0     H 1556   3.640   5.244   7.798 -3.6299  1.7491  0.4250
   12MOL0     H 1557   3.500   5.190   7.708  0.6683  2.7089 -1.0137
   12MOL0     H 1558   3.703   4.985   7.789  0.6256  0.4446 -2.4051
   12MOL0     H 1559   3.524   4.968   7.751 -0.7533 -0.1947  0.5510
   12MOL0     H 1560   3.520   4.931   7.976 -3.7408 -0.3662 -2.7531
   12MOL0     H 1561   3.489   5.107   7.968 -1.0271 -2.2409  3.0062
   12MOL0     H 1562   3.762   4.989   8.017 -4.2637 -3.7578  1.5464
   12MOL0     H 1563   3.716   5.164   8.016 -0.4861  1.3419  0.8452
   12MOL0     H 1564   3.616   4.951   8.200 -1.6906  0.1741 -3.4142
   12MOL0     H 1565   3.583   5.125   8.200  1.6495  2.7686 -1.3203
   12MOL0     H 1566   3.263   5.179   7.487 -1.4922 -2.8280 -0.8942
   12MOL0     H 1567   3.065   5.107   7.380 -0.3812  1.3256  0.8527
   12MOL0     H 1568   2.939   4.920   6.734  0.7897  1.6802  1.3048
   12MOL0     H 1569   2.718   4.806   6.672  1.2037  0.6869 -0.7792
   12MOL0     H 1570   1.534   3.156   6.925  1.3714 -0.7358  1.9707
   12MOL0     H 1571   1.318   3.023   6.930 -0.5716 -0.7366  1.7168
   12MOL0     H 1572   1.047   2.660   7.074  0.8607 -1.3419  1.0856
   12MOL0     H 1573   0.853   2.563   7.127  0.6707  0.8235 -2.0754
   12MOL0     H 1574   0.663   2.455   7.280  1.1906  1.3558 -0.6633
   12MOL0     H 1575   0.596   2.541   7.135 -2.8997  1.9628 -0.3359
   12MOL0     H 1576   0.482   2.503   7.409 -2.8547 -0.4556 -0.4673
   12MOL0     H 1577   0.418   2.617   7.300 -0.4273 -1.5168  0.0456
   12MOL0     H 1578   0.416   2.426   7.122 -2.5846 -2.3234 -1.2689
   12MOL0     H 1579   0.282   2.478   7.200 -1.0774 -1.0343  2.3943
   12MOL0     H 1580   0.378   2.306   7.392  1.3091  3.7094 -0.3226
   12MOL0     H 1581   0.279   2.257   7.248 -0.1772  2.7547 -1.7493
   12MOL0     H 1582   0.681   2.106   7.193 -1.7960 -1.6944 -2.7750
   12MOL0     H 1583   0.727   2.898   7.362 -0.0379 -0.9291 -0.2267
   12MOL0     H 1584   0.946   3.015   7.288 -1.1312 -0.5191  1.7699
   13MOL0     O 1585   2.564   9.094   5.631 -0.5262  0.1694  0.3259
   13MOL0     C 1586   2.564   9.005   5.715  1.1859  0.8941 -0.5211
   13MOL0     O 1587   2.586   9.023   5.846 -0.7903  0.3507 -0.3809
   13MOL0     C 1588   2.614   9.144   5.908 -0.1701  1.6336 -0.1291
   13MOL0     C 1589   2.570   9.265   5.868 -0.4005  0.3904  0.6417
   13MOL0     C 1590   2.599   9.375   5.939 -0.4222 -0.2690 -0.6717
   13MOL0     C 1591   2.668   9.367   6.064 -0.5105  1.0496  0.2596
   13MOL0     O 1592   2.721   9.488   6.116 -0.4131  0.4760 -0.7563
   13MOL0     C 1593   2.648   9.607   6.087 -0.2261 -0.2335  0.3000
   13MOL0     C 1594   2.718   9.733   6.149  0.1692  0.1976 -1.0178
   13MOL0     C 1595   2.650   9.861   6.111 -0.0775  0.1658  0.6296
   13MOL0     C 1596   2.506   9.885   6.163  0.6363 -0.4002  0.1910
   13MOL0     C 1597   2.432   9.971   6.062 -0.3061 -0.7047 -0.0895
   13MOL0     C 1598   2.462  10.121   6.081  0.5145 -0.1321  0.6393
   13MOL0     C 1599   2.337  10.209   6.041 -0.4639 -0.0490 -0.9868
   13MOL0     C 1600   2.313  10.199   5.887  0.2724 -0.1358 -0.8482
   13MOL0     N 1601   2.186  10.270   5.861  0.3850  0.4921  0.1810
   13MOL0     C 1602   2.174  10.404   5.853  0.1760 -0.3044  0.6986
   13MOL0     C 1603   2.055  10.422   5.791 -0.8530 -1.3089 -0.4814
   13MOL0     C 1604   2.004  10.563   5.731  0.4254  0.3797 -0.5621
   13MOL0     C 1605   2.030  10.598   5.582  0.3763  0.6522  0.5191
   13MOL0     C 1606   1.973  10.737   5.538 -0.8207  0.2416  0.5593
   13MOL0     C 1607   2.001  10.768   5.384 -1.0497  0.3269  0.9579
   13MOL0     O 1608   1.967  10.905   5.360  0.1773 -0.0592 -0.5636
   13MOL0     C 1609   1.912  10.928   5.236 -0.2509 -0.0988  0.2963
   13MOL0     C 1610   1.794  11.002   5.249 -1.3478  0.6759  0.6334
   13MOL0     C 1611   1.714  11.038   5.135 -1.2355 -0.2012  0.0010
   13MOL0     C 1612   1.765  11.012   5.007 -0.1610 -0.5660 -0.0331
   13MOL0     C 1613   1.691  11.036   4.891  0.6803  0.5246 -0.0799
   13MOL0     O 1614   1.626  11.153   4.875 -0.5613 -0.2907 -0.4935
   13MOL0     C 1615   1.563  11.157   4.751 -0.0687  0.2023 -0.3123
   13MOL0     C 1616   1.629  11.184   4.630 -0.4890  0.7109  0.7810
   13MOL0     C 1617   1.556  11.163   4.513  0.2882  0.9908 -0.3933
   13MOL0     C 1618   1.421  11.133   4.518 -0.1405  0.5582  0.2404
   13MOL0     O 1619   1.371  11.118   4.392  0.1159  0.6290  0.6626
   13MOL0     C 1620   1.231  11.090   4.376  0.3551 -0.0003 -0.1149
   13MOL0     C 1621   1.139  11.217   4.400  0.0411  0.1243  0.6951
   13MOL0     C 1622   1.037  11.223   4.283 -0.4885 -0.1000  0.2127
   13MOL0     C 1623   0.919  11.316   4.324 -0.8167 -0.3023 -0.2097
   13MOL0     C 1624   0.818  11.328   4.208  0.3233 -0.2013  0.3498
   13MOL0     C 1625   0.696  11.424   4.243  1.1994  0.5929  0.8895
   13MOL0     C 1626   0.611  11.464   4.117  0.1440  0.5389  0.3993
   13MOL0     C 1627   0.535  11.343   4.048  0.8624  0.1220 -1.0713
   13MOL0    Cl 1628   0.370  11.366   3.994  0.2168 -0.3947  0.0414
   13MOL0     C 1629   1.353  11.120   4.636  0.2597 -0.0864 -0.6154
   13MOL0     C 1630   1.422  11.138   4.755 -0.2493  0.3711  0.4979
   13MOL0     O 1631   1.690  10.939   4.814 -0.2857 -0.0739  0.3861
   13MOL0     C 1632   1.894  10.949   4.996  0.1616 -0.7623  0.0970
   13MOL0     C 1633   1.964  10.902   5.110 -1.0263  0.5266  0.4526
   13MOL0     N 1634   1.988  10.299   5.788  0.1351 -1.1979  0.9711
   13MOL0     N 1635   2.069  10.208   5.817 -1.0677 -0.6767 -0.5557
   13MOL0     C 1636   2.701   9.247   6.112 -0.5313  0.0104  0.7100
   13MOL0     C 1637   2.676   9.127   6.036  0.6235 -0.2195  0.5026
   13MOL0     C 1638   2.502   8.863   5.686  0.7104 -0.8078  0.0137
   13MOL0     C 1639   2.438   8.831   5.564 -0.6190  0.3220  0.3988
   13MOL0     C 1640   2.383   8.702   5.545 -0.7582 -0.8720  0.0011
   13MOL0     C 1641   2.405   8.594   5.633 -0.4327  0.2614 -0.6038
   13MOL0     O 1642   2.383   8.462   5.606  0.0877  0.9785 -0.0068
   13MOL0     C 1643   2.432   8.358   5.688 -0.9055  0.1905 -0.3578
   13MOL0     C 1644   2.400   8.209   5.651  0.5999 -0.3388 -0.0842
   13MOL0     C 1645   2.419   8.123   5.775 -1.1927 -0.6695  0.3243
   13MOL0     C 1646   2.572   8.096   5.786  0.1980 -0.3238 -1.7133
   13MOL0     C 1647   2.591   7.985   5.880 -0.7454  0.1878  0.1002
   13MOL0     C 1648   2.591   7.893   5.952  0.1795  0.1643  0.3588
   13MOL0     C 1649   2.475   8.627   5.753 -0.7000 -0.0818 -0.6470
   13MOL0     C 1650   2.520   8.762   5.781 -0.1712 -0.4305  0.0991
   13MOL0     H 1651   2.531   9.280   5.768  1.2928 -1.2636 -0.3367
   13MOL0     H 1652   2.570   9.468   5.890 -0.3642  0.3765  0.4817
   13MOL0     H 1653   2.546   9.596   6.124 -1.6219 -1.1163 -3.3354
   13MOL0     H 1654   2.637   9.628   5.980 -1.8793  1.2386  0.7178
   13MOL0     H 1655   2.826   9.739   6.132  0.4293 -3.0279 -1.1204
   13MOL0     H 1656   2.708   9.733   6.258  0.2145 -0.5768 -1.0066
   13MOL0     H 1657   2.656   9.844   6.003  1.7214 -3.1154  1.1131
   13MOL0     H 1658   2.707   9.954   6.119 -0.2612  0.6372 -2.3657
   13MOL0     H 1659   2.450   9.791   6.169 -1.2860  0.6829  0.0733
   13MOL0     H 1660   2.510   9.927   6.263 -1.9468  0.6626 -0.0505
   13MOL0     H 1661   2.324   9.970   6.079 -0.0551  0.3322  1.7344
   13MOL0     H 1662   2.426   9.921   5.965  0.7675  0.9357 -1.0635
   13MOL0     H 1663   2.549  10.159   6.028 -0.2878 -0.2018 -0.7542
   13MOL0     H 1664   2.473  10.138   6.189  3.0255 -1.1847  0.6161
   13MOL0     H 1665   2.253  10.177   6.103  0.1984 -3.0903 -1.5111
   13MOL0     H 1666   2.354  10.314   6.067  2.0208 -0.3071 -1.3308
   13MOL0     H 1667   2.326  10.100   5.843 -0.4357 -0.6712  0.0919
   13MOL0     H 1668   2.385  10.266   5.840 -2.1908  2.2089 -1.5625
   13MOL0     H 1669   2.260  10.471   5.858 -1.7012  2.2323  0.9597
   13MOL0     H 1670   2.051  10.648   5.780 -2.3744  1.3368  0.6522
   13MOL0     H 1671   1.895  10.564   5.746  0.3813 -0.0464 -0.8262
   13MOL0     H 1672   1.989  10.518   5.519  1.3366 -0.2070  0.9583
   13MOL0     H 1673   2.138  10.600   5.568  0.5928  0.0370  1.9844
   13MOL0     H 1674   1.868  10.745   5.569 -0.8810  0.8037  0.2359
   13MOL0     H 1675   2.028  10.817   5.589  1.3718  0.8713 -2.4590
   13MOL0     H 1676   1.946  10.696   5.324  2.5393 -2.8517  1.1370
   13MOL0     H 1677   2.103  10.755   5.348 -1.1666 -1.4255  1.1886
   13MOL0     H 1678   1.755  11.021   5.349  0.6515  0.1565  1.5698
   13MOL0     H 1679   1.620  11.092   5.143 -0.6765  1.0021 -1.1777
   13MOL0     H 1680   1.732  11.218   4.630 -0.3799  0.4004  0.4283
   13MOL0     H 1681   1.605  11.166   4.417 -1.9168 -1.4117 -1.7428
   13MOL0     H 1682   1.194  11.004   4.434 -1.3942  1.9645  1.8930
   13MOL0     H 1683   1.226  11.053   4.273  0.3739 -1.1043  0.2627
   13MOL0     H 1684   1.207  11.299   4.426  0.3871  0.0863 -0.0579
   13MOL0     H 1685   1.080  11.196   4.490  0.5745  0.4317  1.1169
   13MOL0     H 1686   1.007  11.120   4.260 -0.7480  0.7594 -4.1363
   13MOL0     H 1687   1.085  11.254   4.190 -2.1201  2.5409  0.1367
   13MOL0     H 1688   0.858  11.280   4.407  0.9905 -0.2998  1.1654
   13MOL0     H 1689   0.961  11.414   4.348  1.5865 -0.5072 -2.9940
   13MOL0     H 1690   0.767  11.236   4.179  2.4674 -1.6519  0.9566
   13MOL0     H 1691   0.875  11.360   4.121  1.1439 -2.6250 -0.0623
   13MOL0     H 1692   0.724  11.524   4.278 -0.6837  2.1924 -1.7439
   13MOL0     H 1693   0.633  11.373   4.317  3.3911 -1.7780  1.2635
   13MOL0     H 1694   0.535  11.538   4.142 -1.5343 -1.5045  1.7194
   13MOL0     H 1695   0.675  11.504   4.038 -0.9942  0.3845 -0.6416
   13MOL0     H 1696   0.544  11.244   4.093  0.9620 -0.1434 -1.6605
   13MOL0     H 1697   0.590  11.319   3.957 -0.5771 -1.7989 -1.4971
   13MOL0     H 1698   1.245  11.116   4.631  0.2176  1.8122 -2.6419
   13MOL0     H 1699   1.370  11.132   4.850  0.9193 -5.3556  1.1809
   13MOL0     H 1700   1.924  10.932   4.893 -1.5824  3.2984 -1.2565
   13MOL0     H 1701   2.060  10.854   5.094 -0.5007  1.5367  0.5030
   13MOL0     H 1702   2.762   9.242   6.202  0.9481 -0.0039 -0.2528
   13MOL0     H 1703   2.699   9.032   6.083  0.5491  0.8505  2.8167
   13MOL0     H 1704   2.440   8.902   5.482  1.4617  0.1198  0.2237
   13MOL0     H 1705   2.326   8.691   5.453  1.1519 -2.8072 -1.0123
   13MOL0     H 1706   2.373   8.391   5.774 -1.0602 -1.0601  0.0421
   13MOL0     H 1707   2.535   8.363   5.722 -1.0711 -0.2025  0.2239
   13MOL0     H 1708   2.296   8.201   5.620  1.1129  1.2688 -2.4981
   13MOL0     H 1709   2.466   8.183   5.568  0.7746  1.0110 -0.3901
   13MOL0     H 1710   2.370   8.030   5.746 -1.3037  0.2797 -2.9066
   13MOL0     H 1711   2.364   8.149   5.865  0.4737  1.2434  0.8658
   13MOL0     H 1712   2.632   8.071   5.698  1.8582 -3.6237  0.1783
   13MOL0     H 1713   2.625   8.179   5.835  0.2467 -0.9415 -0.6872
   13MOL0     H 1714   2.576   7.806   6.013  1.4618 -0.6011 -0.3620
   13MOL0     H 1715   2.485   8.550   5.830  0.1876 -1.6112 -2.2022
   13MOL0     H 1716   2.573   8.783   5.873 -2.5394  0.9108  1.2544
   14MOL0     O 1717   7.205  11.171   2.090  1.0405  0.7749 -0.1048
   14MOL0     C 1718   7.199  11.062   2.030 -0.6322  0.7054  0.2902
   14MOL0     O 1719   7.290  11.010   1.946 -0.2802  0.6487 -0.0747
   14MOL0     C 1720   7.400  11.086   1.923 -0.1951  0.0630 -0.6146
   14MOL0     C 1721   7.424  11.155   1.803 -1.0508  0.1476 -0.0197
   14MOL0     C 1722   7.540  11.237   1.790  1.3675 -0.7509  0.3548
   14MOL0     C 1723   7.631  11.250   1.890  0.3237  0.4596  0.4345
   14MOL0     O 1724   7.738  11.330   1.881  0.2368  0.1070  0.2653
   14MOL0     C 1725   7.827  11.285   1.779  0.1603  0.6381 -0.0522
   14MOL0     C 1726   7.935  11.377   1.769 -1.0043 -0.1298  0.0289
   14MOL0     C 1727   7.984  11.423   1.909  0.4569  0.4442  0.0266
   14MOL0     C 1728   8.124  11.494   1.902 -0.6155 -0.1258 -0.3039
   14MOL0     C 1729   8.166  11.538   2.044 -0.0558 -0.7437  0.2416
   14MOL0     C 1730   8.319  11.573   2.059  0.2384  0.3327  0.0690
   14MOL0     C 1731   8.339  11.721   2.026 -0.5203  0.0441  0.8868
   14MOL0     C 1732   8.487  11.755   2.065  0.3506 -0.2085 -0.1979
   14MOL0     N 1733   8.544  11.853   1.970 -0.4448 -0.3592  0.5651
   14MOL0     C 1734   8.484  11.959   1.912 -0.4113  0.2782 -0.4301
   14MOL0     C 1735   8.570  12.021   1.836  0.6691  0.4983  0.5598
   14MOL0     C 1736   8.540  12.113   1.734  0.5084 -0.3990 -0.4619
   14MOL0     C 1737   8.539  12.257   1.798  0.2430 -0.2556  1.6682
   14MOL0     C 1738   8.432  12.364   1.742 -0.7927 -0.2905 -0.5845
   14MOL0     C 1739   8.283  12.331   1.786 -0.2746 -0.6338 -0.2549
   14MOL0     O 1740   8.227  12.229   1.710  0.6245  0.4714 -0.4707
   14MOL0     C 1741   8.093  12.254   1.682  0.8454 -0.1772  0.1055
   14MOL0     C 1742   8.061  12.313   1.566  0.2033 -0.4043  0.5259
   14MOL0     C 1743   7.924  12.351   1.538  0.0239 -0.5271  0.1774
   14MOL0     C 1744   7.830  12.329   1.642 -0.0147 -0.7080  0.1089
   14MOL0     C 1745   7.687  12.358   1.628  0.4673 -0.6321 -0.1429
   14MOL0     O 1746   7.645  12.385   1.501 -0.3089 -0.0188 -0.2134
   14MOL0     C 1747   7.508  12.413   1.480 -0.2502 -0.7103  0.0069
   14MOL0     C 1748   7.432  12.333   1.393 -0.0700  0.4241  0.3454
   14MOL0     C 1749   7.290  12.366   1.379  0.1209  0.1346 -0.4765
   14MOL0     C 1750   7.231  12.484   1.430 -0.1365 -0.5677 -0.5411
   14MOL0     O 1751   7.096  12.509   1.423  0.0812  0.3386  0.0807
   14MOL0     C 1752   7.018  12.392   1.451  0.4434 -0.1370  0.3278
   14MOL0     C 1753   6.881  12.447   1.498 -0.5008  0.5396  0.5544
   14MOL0     C 1754   6.794  12.503   1.383 -0.4381  0.5498  0.1649
   14MOL0     C 1755   6.850  12.628   1.315 -1.3457 -0.0830 -0.0603
   14MOL0     C 1756   6.747  12.685   1.217  1.3485 -0.4072 -0.6868
   14MOL0     C 1757   6.778  12.835   1.186 -0.1024  0.4534  0.0011
   14MOL0     C 1758   6.708  12.903   1.069 -0.1963 -0.4298  0.4965
   14MOL0     C 1759   6.560  12.905   1.078 -0.0831 -0.6234  0.9277
   14MOL0    Cl 1760   6.528  13.032   1.189 -0.6263  0.1917  0.0656
   14MOL0     C 1761   7.317  12.564   1.510  0.3354  0.6039 -0.2761
   14MOL0     C 1762   7.450  12.526   1.532 -0.0975  0.0881 -0.1628
   14MOL0     O 1763   7.619  12.355   1.723  0.3281 -0.1972 -0.1204
   14MOL0     C 1764   7.872  12.266   1.763  0.3896  1.3396  1.0707
   14MOL0     C 1765   8.004  12.227   1.783  0.6063  0.4354  0.2032
   14MOL0     N 1766   8.685  11.949   1.848 -0.0357  0.3442  0.7594
   14MOL0     N 1767   8.669  11.845   1.927 -0.6573  0.3396  0.6539
   14MOL0     C 1768   7.623  11.173   2.010  0.4397  0.4940  1.0440
   14MOL0     C 1769   7.499  11.102   2.021 -0.7184  0.4127 -0.4838
   14MOL0     C 1770   7.075  10.982   2.052  0.0974 -0.3322  1.0374
   14MOL0     C 1771   7.053  10.859   1.984  0.6893 -0.9124 -0.2029
   14MOL0     C 1772   6.941  10.775   2.015  0.2433 -0.4257 -0.7857
   14MOL0     C 1773   6.856  10.814   2.114  0.0023  0.4489 -0.0287
   14MOL0     O 1774   6.763  10.726   2.158 -0.1812 -0.1845  0.1858
   14MOL0     C 1775   6.706  10.764   2.284  0.9802  0.8617  0.5383
   14MOL0     C 1776   6.655  10.625   2.350 -0.2761 -0.3966 -0.3619
   14MOL0     C 1777   6.538  10.548   2.272 -0.7225  0.1489  0.5036
   14MOL0     C 1778   6.426  10.641   2.227 -0.3323 -0.9565  0.3505
   14MOL0     C 1779   6.313  10.578   2.154  0.1856  0.3204 -0.1301
   14MOL0     C 1780   6.213  10.540   2.107  1.1944  0.8024 -0.9386
   14MOL0     C 1781   6.853  10.945   2.148 -0.2661 -0.8353 -1.2808
   14MOL0     C 1782   6.966  11.031   2.128 -0.3966  0.2015  0.4435
   14MOL0     H 1783   7.361  11.162   1.715  0.5557  0.8569 -1.1697
   14MOL0     H 1784   7.548  11.295   1.699 -0.8295 -1.3020 -0.2631
   14MOL0     H 1785   7.791  11.287   1.676 -1.4325  1.9350  0.4886
   14MOL0     H 1786   7.874  11.190   1.807  0.8494  1.1997  0.7762
   14MOL0     H 1787   7.902  11.467   1.716 -0.8246  0.8513  1.5225
   14MOL0     H 1788   8.023  11.340   1.717 -1.0939 -0.1826 -0.0868
   14MOL0     H 1789   7.991  11.340   1.980 -1.7204  2.8873  3.3784
   14MOL0     H 1790   7.906  11.494   1.936 -1.8278 -0.8708 -2.5865
   14MOL0     H 1791   8.195  11.416   1.872 -0.8899 -0.4150 -0.2045
   14MOL0     H 1792   8.130  11.586   1.843  0.1832  0.2481  0.3351
   14MOL0     H 1793   8.139  11.465   2.121 -5.5054  2.1405  1.5958
   14MOL0     H 1794   8.102  11.626   2.061  3.5771  2.2480 -0.2270
   14MOL0     H 1795   8.371  11.495   2.002 -2.5829 -3.2715  2.0224
   14MOL0     H 1796   8.351  11.568   2.163 -0.8772 -0.2623  0.3883
   14MOL0     H 1797   8.321  11.743   1.921  3.6833  1.0913  0.1930
   14MOL0     H 1798   8.277  11.790   2.084 -2.3105 -0.8563  0.0957
   14MOL0     H 1799   8.560  11.673   2.067  0.7190  0.1334  1.1077
   14MOL0     H 1800   8.484  11.794   2.167 -2.7543 -1.3725  0.2649
   14MOL0     H 1801   8.377  11.975   1.922 -0.8267 -1.2018 -2.0747
   14MOL0     H 1802   8.451  12.084   1.678  0.7117  0.9324 -1.5245
   14MOL0     H 1803   8.618  12.122   1.658 -0.7573 -2.3074 -2.0925
   14MOL0     H 1804   8.631  12.312   1.777 -0.0180 -0.5328 -0.4297
   14MOL0     H 1805   8.523  12.252   1.906 -1.1872 -3.0123  1.4369
   14MOL0     H 1806   8.467  12.461   1.777 -3.4337  0.2776  0.6897
   14MOL0     H 1807   8.440  12.368   1.633  0.2932 -1.8830 -0.6047
   14MOL0     H 1808   8.230  12.420   1.750  0.0234  0.4303  1.7792
   14MOL0     H 1809   8.255  12.330   1.891 -0.2925  0.3833 -0.2349
   14MOL0     H 1810   8.129  12.331   1.483 -0.2653  2.0951  0.6169
   14MOL0     H 1811   7.890  12.408   1.452 -0.6369 -0.6130  0.3687
   14MOL0     H 1812   7.488  12.249   1.351 -1.2893  0.3615 -1.2476
   14MOL0     H 1813   7.231  12.297   1.319 -1.2382 -0.5410  1.5363
   14MOL0     H 1814   7.061  12.332   1.532  4.4097  1.1591 -0.5847
   14MOL0     H 1815   7.002  12.332   1.360 -1.6051 -0.1223  0.6338
   14MOL0     H 1816   6.899  12.526   1.573  0.0018 -0.5675  1.6393
   14MOL0     H 1817   6.844  12.366   1.562  1.7171 -0.0777  1.1337
   14MOL0     H 1818   6.693  12.517   1.423 -1.2278  2.0248 -2.0840
   14MOL0     H 1819   6.792  12.431   1.300 -0.7731  1.8043 -0.9550
   14MOL0     H 1820   6.879  12.700   1.392  1.9746 -2.6362  1.3635
   14MOL0     H 1821   6.943  12.603   1.263 -0.4783 -0.9523  1.7891
   14MOL0     H 1822   6.643  12.667   1.246  0.9416 -0.0738 -1.8794
   14MOL0     H 1823   6.757  12.637   1.119  0.9031  0.8594 -1.3750
   14MOL0     H 1824   6.880  12.822   1.150 -1.3149 -5.2058 -2.4934
   14MOL0     H 1825   6.763  12.891   1.279  1.4443 -2.0712  1.9321
   14MOL0     H 1826   6.737  13.008   1.082 -1.9514  0.0863  0.4891
   14MOL0     H 1827   6.731  12.863   0.970 -0.6392 -0.7866  0.5362
   14MOL0     H 1828   6.515  12.813   1.118 -0.1906 -0.8723  0.2493
   14MOL0     H 1829   6.503  12.929   0.987  1.0780 -1.5914 -0.0855
   14MOL0     H 1830   7.282  12.654   1.559  2.4987 -0.5466  3.8326
   14MOL0     H 1831   7.520  12.585   1.590 -0.0797 -3.2063  3.5609
   14MOL0     H 1832   7.797  12.227   1.832 -0.4338 -0.3415 -0.6694
   14MOL0     H 1833   8.040  12.190   1.878 -0.3019  1.0719  0.8115
   14MOL0     H 1834   7.687  11.192   2.095  2.0068 -0.8972  0.2220
   14MOL0     H 1835   7.490  11.068   2.123 -3.0273  1.4538 -0.2817
   14MOL0     H 1836   7.133  10.834   1.915  0.2300 -0.2731 -0.9857
   14MOL0     H 1837   6.924  10.687   1.953 -1.6583 -1.1691  0.6702
   14MOL0     H 1838   6.625  10.836   2.272  0.4903  0.2089 -0.1582
   14MOL0     H 1839   6.791  10.807   2.338  1.3421  2.2646 -1.0769
   14MOL0     H 1840   6.737  10.554   2.363 -0.2447 -0.2430  0.2996
   14MOL0     H 1841   6.616  10.639   2.451 -0.4085 -2.0381 -0.1573
   14MOL0     H 1842   6.504  10.470   2.340 -0.0894 -2.9305 -2.4194
   14MOL0     H 1843   6.577  10.505   2.179  0.3069  0.4145  0.7968
   14MOL0     H 1844   6.399  10.699   2.315  2.4313 -1.7096  1.8235
   14MOL0     H 1845   6.468  10.718   2.162 -1.3573  0.0550  0.8566
   14MOL0     H 1846   6.125  10.495   2.068  0.8206  1.0158 -0.3618
   14MOL0     H 1847   6.757  10.984   2.181  1.0056  0.2032  1.4696
   14MOL0     H 1848   6.979  11.135   2.155  1.9445  0.6928 -2.1391
   15MOL0     O 1849   2.474  10.745   4.992 -0.0549  0.1670  0.5106
   15MOL0     C 1850   2.592  10.785   4.998 -0.1545 -0.9542 -0.6005
   15MOL0     O 1851   2.706  10.713   4.989  0.7064  0.1014 -1.2875
   15MOL0     C 1852   2.691  10.580   4.976 -0.2478 -0.7706  0.4429
   15MOL0     C 1853   2.691  10.533   4.849 -0.4744  0.8134 -0.7410
   15MOL0     C 1854   2.685  10.394   4.832 -0.9520 -1.5022 -0.6216
   15MOL0     C 1855   2.638  10.312   4.935  0.3280  0.3903  0.5981
   15MOL0     O 1856   2.615  10.179   4.907  0.9881  0.0187 -1.2949
   15MOL0     C 1857   2.534  10.108   5.008 -0.0944  0.1808  0.7980
   15MOL0     C 1858   2.471   9.985   4.933 -0.5837  1.0468  0.0966
   15MOL0     C 1859   2.397  10.033   4.806  0.5063 -0.9662  0.3992
   15MOL0     C 1860   2.292  10.143   4.835  0.3826  0.5017  0.0368
   15MOL0     C 1861   2.197  10.169   4.716  0.2911  0.0788  0.3012
   15MOL0     C 1862   2.082  10.276   4.725  0.0722 -0.0617 -0.4575
   15MOL0     C 1863   2.022  10.297   4.585  0.1716  0.5145 -0.0912
   15MOL0     C 1864   2.096  10.369   4.475 -0.2618  0.1166  0.2526
   15MOL0     N 1865   1.995  10.417   4.378  0.2420  0.6773 -0.5759
   15MOL0     C 1866   1.891  10.357   4.311  0.0574  0.2384  0.4279
   15MOL0     C 1867   1.818  10.451   4.241  0.8024 -0.2196 -0.4316
   15MOL0     C 1868   1.699  10.431   4.162  0.2312 -1.1738  0.8112
   15MOL0     C 1869   1.714  10.336   4.041 -1.1837  0.2768 -0.1619
   15MOL0     C 1870   1.818  10.366   3.935 -0.4604  0.4461 -0.7933
   15MOL0     C 1871   1.830  10.512   3.883 -0.6436  0.9060  0.0157
   15MOL0     O 1872   1.712  10.548   3.807 -0.6016 -0.6416 -0.2186
   15MOL0     C 1873   1.689  10.684   3.789 -0.2422 -0.5401  0.3337
   15MOL0     C 1874   1.778  10.792   3.808  0.4551  0.4541  0.2094
   15MOL0     C 1875   1.739  10.924   3.782 -0.2185  0.5567 -0.9436
   15MOL0     C 1876   1.626  10.947   3.699 -0.5932 -0.7510  0.1538
   15MOL0     C 1877   1.592  11.080   3.648 -0.2195  0.0350  0.4041
   15MOL0     O 1878   1.512  11.073   3.537  0.0404 -0.0213  0.8272
   15MOL0     C 1879   1.431  11.178   3.498  0.3740 -0.8899  0.2392
   15MOL0     C 1880   1.290  11.156   3.485 -0.2435  0.4951 -0.5502
   15MOL0     C 1881   1.191  11.252   3.460  0.5346  0.6583  0.3344
   15MOL0     C 1882   1.234  11.382   3.427 -0.9428  1.0622  0.6260
   15MOL0     O 1883   1.162  11.485   3.387 -1.0211  0.9499  0.3268
   15MOL0     C 1884   1.023  11.483   3.375 -0.5586  1.3205  0.5560
   15MOL0     C 1885   0.966  11.615   3.365 -0.1820 -0.5731 -0.5998
   15MOL0     C 1886   0.834  11.624   3.288 -1.0986 -0.1556 -0.0076
   15MOL0     C 1887   0.756  11.754   3.330  0.1823 -0.4079  0.0660
   15MOL0     C 1888   0.659  11.790   3.224  0.0008  0.2105 -0.1905
   15MOL0     C 1889   0.555  11.895   3.277  0.7944 -0.1949  0.7900
   15MOL0     C 1890   0.437  11.930   3.184  0.4375  0.8735  0.5897
   15MOL0     C 1891   0.349  12.051   3.224 -0.7376 -0.1085  0.7152
   15MOL0    Cl 1892   0.237  11.996   3.339  0.3474 -0.0443  0.5363
   15MOL0     C 1893   1.376  11.409   3.426 -0.0076  0.0730  0.9202
   15MOL0     C 1894   1.475  11.309   3.459  0.2611  1.2215 -0.0331
   15MOL0     O 1895   1.636  11.179   3.710 -0.0053  0.0212  0.0576
   15MOL0     C 1896   1.537  10.837   3.668  1.0248  1.0719 -0.5614
   15MOL0     C 1897   1.571  10.707   3.723 -0.0329 -0.4531  0.6190
   15MOL0     N 1898   1.888  10.567   4.259  0.4647  0.7636 -0.2237
   15MOL0     N 1899   1.984  10.545   4.346  0.2854 -0.3913 -0.0171
   15MOL0     C 1900   2.629  10.358   5.059 -0.4009 -0.1296 -1.3269
   15MOL0     C 1901   2.679  10.491   5.086  0.1375 -0.6745 -0.3385
   15MOL0     C 1902   2.589  10.930   5.017 -0.0390  0.1794 -0.3089
   15MOL0     C 1903   2.706  10.983   5.076 -0.3922 -1.2057  0.1053
   15MOL0     C 1904   2.718  11.122   5.077 -0.7781  0.2149 -0.9187
   15MOL0     C 1905   2.621  11.215   5.031  0.9788 -0.4288  0.0408
   15MOL0     O 1906   2.622  11.356   5.028 -0.9780 -0.0397 -0.2560
   15MOL0     C 1907   2.749  11.423   5.016 -0.2143  0.3335  0.0458
   15MOL0     C 1908   2.729  11.576   5.043 -0.1073 -1.2278  1.3113
   15MOL0     C 1909   2.869  11.637   5.050 -0.4119 -0.8248  0.8127
   15MOL0     C 1910   2.961  11.638   4.927  0.0072  0.0422 -0.3438
   15MOL0     C 1911   3.079  11.722   4.954  0.6768 -0.3499  0.3784
   15MOL0     C 1912   3.177  11.795   4.975 -0.0122  0.6502  0.2194
   15MOL0     C 1913   2.515  11.160   4.961  0.0607 -0.6689 -0.3219
   15MOL0     C 1914   2.496  11.022   4.952  0.3023  1.0736 -1.0939
   15MOL0     H 1915   2.726  10.576   4.756  2.8458 -2.9356 -1.5035
   15MOL0     H 1916   2.711  10.351   4.736  4.7640 -2.3435  0.9226
   15MOL0     H 1917   2.453  10.164   5.055 -0.7075 -1.5124  1.8738
   15MOL0     H 1918   2.600  10.072   5.088 -0.4836  0.1183  1.0953
   15MOL0     H 1919   2.401   9.943   5.006  0.0920 -2.1665 -0.9474
   15MOL0     H 1920   2.545   9.908   4.908 -1.4796 -0.3674  1.5717
   15MOL0     H 1921   2.340   9.949   4.765 -0.4751  0.9568 -2.5399
   15MOL0     H 1922   2.470  10.066   4.731  0.3323  0.1279  0.7029
   15MOL0     H 1923   2.222  10.111   4.913 -1.4888  2.1304 -0.8621
   15MOL0     H 1924   2.335  10.239   4.866 -1.7296  1.5077  0.0867
   15MOL0     H 1925   2.144  10.080   4.682 -0.5550 -0.1647  2.1779
   15MOL0     H 1926   2.257  10.195   4.628  1.1578  1.3953  1.2376
   15MOL0     H 1927   2.124  10.370   4.762  0.2904  0.1850 -1.3004
   15MOL0     H 1928   1.991  10.256   4.783 -1.0074  3.7670 -0.5652
   15MOL0     H 1929   2.003  10.196   4.547  1.0457 -0.3276  1.6152
   15MOL0     H 1930   1.933  10.356   4.608  0.1761  0.7967 -0.7761
   15MOL0     H 1931   2.165  10.304   4.421  2.3314  2.0081  1.1257
   15MOL0     H 1932   2.158  10.451   4.510  4.9837 -3.3137  0.0815
   15MOL0     H 1933   1.870  10.252   4.297  0.1189  0.4029 -1.0046
   15MOL0     H 1934   1.674  10.531   4.126  0.1314 -1.8135 -1.0395
   15MOL0     H 1935   1.614  10.387   4.215 -1.1996  0.0832 -0.3421
   15MOL0     H 1936   1.618  10.325   3.989 -0.8950 -1.3809 -0.4047
   15MOL0     H 1937   1.721  10.237   4.088 -0.0004 -0.0584 -1.0100
   15MOL0     H 1938   1.915  10.345   3.981 -0.5340  2.6500  0.4908
   15MOL0     H 1939   1.812  10.301   3.847 -1.1002 -1.5334  0.6598
   15MOL0     H 1940   1.908  10.531   3.809 -0.6462  1.3281  0.1217
   15MOL0     H 1941   1.843  10.571   3.974 -0.2405  0.5888  0.1701
   15MOL0     H 1942   1.873  10.761   3.850  1.9401  1.5457 -2.1368
   15MOL0     H 1943   1.802  11.009   3.806  1.7960 -1.3027  0.7289
   15MOL0     H 1944   1.260  11.053   3.497  1.3644 -0.2954 -2.7060
   15MOL0     H 1945   1.085  11.231   3.454  0.0636  3.1078 -1.6075
   15MOL0     H 1946   0.976  11.417   3.450  0.2414  1.5749  1.2898
   15MOL0     H 1947   1.014  11.434   3.277  2.0362 -0.6378  1.1756
   15MOL0     H 1948   1.048  11.669   3.315 -0.6862  0.0845 -0.7276
   15MOL0     H 1949   0.947  11.652   3.466 -1.8371  0.5873 -1.2941
   15MOL0     H 1950   0.787  11.526   3.305  0.2947 -0.8372  0.0648
   15MOL0     H 1951   0.849  11.628   3.180 -0.8946  0.9180  0.0511
   15MOL0     H 1952   0.710  11.712   3.420  2.7738 -0.7261  1.3267
   15MOL0     H 1953   0.807  11.847   3.358  1.6015  0.3232 -4.1925
   15MOL0     H 1954   0.611  11.696   3.197 -1.8444 -0.2439  3.9459
   15MOL0     H 1955   0.707  11.828   3.133  0.7017 -2.4351 -1.0295
   15MOL0     H 1956   0.602  11.988   3.310 -1.2161  1.9653 -1.8752
   15MOL0     H 1957   0.503  11.862   3.367  0.5837  2.5335  1.7729
   15MOL0     H 1958   0.484  11.950   3.087  0.5529  1.9707  0.8615
   15MOL0     H 1959   0.373  11.843   3.170  2.0584 -0.4021  0.8352
   15MOL0     H 1960   0.301  12.086   3.133 -0.7395 -1.8477  0.0016
   15MOL0     H 1961   0.417  12.127   3.264  0.1411  0.0491 -1.0200
   15MOL0     H 1962   1.422  11.500   3.387  0.2041 -1.1403 -1.8889
   15MOL0     H 1963   1.583  11.318   3.466  0.2688  0.1429  2.7221
   15MOL0     H 1964   1.441  10.841   3.618  0.3833  0.6571  0.5988
   15MOL0     H 1965   1.498  10.634   3.690 -0.7973 -0.5877  2.5005
   15MOL0     H 1966   2.615  10.297   5.148 -0.3871  0.6338 -0.7957
   15MOL0     H 1967   2.677  10.523   5.190  1.7947 -0.6049 -0.3105
   15MOL0     H 1968   2.779  10.915   5.119  1.5663  1.3827  1.1168
   15MOL0     H 1969   2.808  11.165   5.120 -1.4695  0.3405  0.4386
   15MOL0     H 1970   2.790  11.395   4.919 -0.9843 -3.5736  0.7055
   15MOL0     H 1971   2.821  11.399   5.095 -1.6878  2.3355  2.1393
   15MOL0     H 1972   2.680  11.623   4.957 -0.6636 -1.1284  1.6797
   15MOL0     H 1973   2.659  11.596   5.125 -0.6872  0.4370  0.4618
   15MOL0     H 1974   2.929  11.590   5.129  2.0244  0.8188  0.0756
   15MOL0     H 1975   2.856  11.742   5.076  0.8801  0.0126 -1.6097
   15MOL0     H 1976   2.988  11.536   4.898 -0.5952 -0.2234  0.0143
   15MOL0     H 1977   2.924  11.685   4.835  2.0572  0.2331 -1.1272
   15MOL0     H 1978   3.263  11.859   4.978 -1.1785  2.2632  0.6412
   15MOL0     H 1979   2.435  11.215   4.912 -0.3315 -0.5459  0.4364
   15MOL0     H 1980   2.407  10.980   4.907 -0.1259  1.4716 -0.6317
   16MOL0     O 1981   3.914   8.214   3.241 -0.8429  0.0580 -0.5228
   16MOL0     C 1982   3.798   8.245   3.245 -0.4150 -0.6876 -0.4208
   16MOL0     O 1983   3.735   8.294   3.365  0.1696  0.2439  0.5967
   16MOL0     C 1984   3.802   8.294   3.484  0.5540 -0.7690  0.3979
   16MOL0     C 1985   3.767   8.397   3.564  0.2981 -0.5517 -0.0980
   16MOL0     C 1986   3.821   8.406   3.692 -0.4624 -0.3091 -0.3592
   16MOL0     C 1987   3.886   8.303   3.745 -1.1090  0.3457  0.1336
   16MOL0     O 1988   3.920   8.294   3.880 -0.6965  0.6248 -0.1998
   16MOL0     C 1989   3.815   8.237   3.960  0.2715  0.2790  0.2395
   16MOL0     C 1990   3.860   8.208   4.103 -0.0957 -0.3410 -1.1873
   16MOL0     C 1991   3.739   8.176   4.185  0.1784 -0.3753 -0.3625
   16MOL0     C 1992   3.764   8.119   4.326  0.0341  0.5776 -0.4581
   16MOL0     C 1993   3.643   8.132   4.420  0.8171 -0.1575 -0.5585
   16MOL0     C 1994   3.518   8.063   4.361  0.5264  0.8306 -0.0888
   16MOL0     C 1995   3.390   8.121   4.429 -0.2035 -0.5204 -0.5108
   16MOL0     C 1996   3.261   8.040   4.406  0.7295 -0.1155  0.7540
   16MOL0     N 1997   3.206   8.068   4.268 -0.2112 -0.0284 -0.4122
   16MOL0     C 1998   3.133   8.175   4.222 -0.2548 -0.0753 -0.3204
   16MOL0     C 1999   3.128   8.176   4.089  0.2922 -0.0820  0.6357
   16MOL0     C 2000   3.100   8.293   3.995 -0.2694 -0.4023  0.2671
   16MOL0     C 2001   2.968   8.243   3.932 -0.1154 -0.7436 -0.2469
   16MOL0     C 2002   2.873   8.348   3.872 -0.4757  0.4002 -0.7315
   16MOL0     C 2003   2.935   8.419   3.750  0.4586 -0.2571  0.2137
   16MOL0     O 2004   2.839   8.497   3.687  0.3556 -0.3805 -0.8002
   16MOL0     C 2005   2.875   8.583   3.584 -0.8173  0.0506  0.1270
   16MOL0     C 2006   3.000   8.582   3.530 -0.6121 -1.0490  0.1742
   16MOL0     C 2007   3.041   8.663   3.428  0.2160 -0.2766  0.5343
   16MOL0     C 2008   2.943   8.730   3.349  0.4733  0.2988 -0.2229
   16MOL0     C 2009   2.987   8.803   3.233 -0.2733 -0.5165  0.4414
   16MOL0     O 2010   2.884   8.872   3.170  0.3644 -0.5624 -0.1579
   16MOL0     C 2011   2.917   8.938   3.055  1.4904  0.5472 -0.1411
   16MOL0     C 2012   2.980   8.887   2.949 -0.7596 -0.9721 -1.1436
   16MOL0     C 2013   3.003   8.957   2.832  0.6425  0.2550 -0.3641
   16MOL0     C 2014   2.967   9.090   2.822 -1.0167  0.5504  0.1685
   16MOL0     O 2015   2.994   9.152   2.702 -0.3436 -0.3973  0.0135
   16MOL0     C 2016   3.008   9.294   2.697 -0.1440  0.4769  0.1336
   16MOL0     C 2017   2.917   9.354   2.593 -0.6732  0.1042 -0.0907
   16MOL0     C 2018   2.939   9.503   2.592  0.9280 -0.3822 -0.6407
   16MOL0     C 2019   2.863   9.563   2.474  0.5475 -0.2074 -0.5083
   16MOL0     C 2020   2.835   9.714   2.484 -0.3784  0.8421  0.1242
   16MOL0     C 2021   2.963   9.798   2.460  0.3923  0.2843  0.4588
   16MOL0     C 2022   2.947   9.953   2.487 -0.2351  0.2384 -0.4274
   16MOL0     C 2023   3.081  10.032   2.503  0.6317 -0.3234 -0.7630
   16MOL0    Cl 2024   3.047  10.190   2.587  0.3635 -0.2564  0.2874
   16MOL0     C 2025   2.888   9.145   2.920  0.9454  0.8499 -0.7306
   16MOL0     C 2026   2.861   9.063   3.033 -0.0266  0.4802 -0.3021
   16MOL0     O 2027   3.105   8.809   3.198  0.9262  0.1933 -1.1488
   16MOL0     C 2028   2.815   8.731   3.405 -0.6751  0.1105 -0.2115
   16MOL0     C 2029   2.782   8.657   3.519  1.0177  0.1355 -0.0209
   16MOL0     N 2030   3.204   8.068   4.053 -0.1185  0.9072 -0.7932
   16MOL0     N 2031   3.243   8.000   4.163  0.1015 -0.4041 -0.2711
   16MOL0     C 2032   3.937   8.203   3.658  0.1439 -0.2926 -0.3767
   16MOL0     C 2033   3.888   8.192   3.524  0.2953 -0.4682  0.4856
   16MOL0     C 2034   3.726   8.242   3.120  0.2625 -1.0628 -0.7653
   16MOL0     C 2035   3.788   8.244   2.988 -0.2677  0.4465 -0.2944
   16MOL0     C 2036   3.709   8.236   2.871  0.1297 -0.5009  0.1159
   16MOL0     C 2037   3.569   8.257   2.874  0.8004 -0.6244  0.3203
   16MOL0     O 2038   3.489   8.277   2.763 -0.4166  0.1241 -0.7583
   16MOL0     C 2039   3.561   8.304   2.635  0.2228 -0.0927 -0.1564
   16MOL0     C 2040   3.473   8.416   2.576 -0.1672 -0.3208  0.0343
   16MOL0     C 2041   3.330   8.429   2.615 -0.4107 -1.0084  1.5229
   16MOL0     C 2042   3.232   8.312   2.584 -1.1221 -0.6145  0.5631
   16MOL0     C 2043   3.253   8.256   2.451  0.3999 -0.3351 -0.2905
   16MOL0     C 2044   3.268   8.202   2.342 -0.5274 -0.4805  0.1889
   16MOL0     C 2045   3.517   8.275   3.001  0.8276 -1.0553 -0.3109
   16MOL0     C 2046   3.590   8.264   3.119  0.7059 -0.0257 -0.3467
   16MOL0     H 2047   3.696   8.472   3.531 -1.5853 -1.9905  0.4992
   16MOL0     H 2048   3.792   8.486   3.760  1.9808  1.1409 -0.8803
   16MOL0     H 2049   3.789   8.139   3.919  0.4761 -0.2212  1.2636
   16MOL0     H 2050   3.734   8.310   3.955  1.4007  1.6038  0.5635
   16MOL0     H 2051   3.908   8.296   4.147  0.8260  0.8459 -4.3019
   16MOL0     H 2052   3.924   8.119   4.100  2.9008  0.8258  6.4882
   16MOL0     H 2053   3.665   8.118   4.129 -1.3089 -1.1586  2.2713
   16MOL0     H 2054   3.687   8.271   4.198 -2.7818 -1.8933 -0.2734
   16MOL0     H 2055   3.790   8.012   4.324  0.6321  0.6456  1.5584
   16MOL0     H 2056   3.851   8.163   4.377 -0.4458 -0.7759  1.6375
   16MOL0     H 2057   3.619   8.238   4.435  2.6687  0.2230 -0.0211
   16MOL0     H 2058   3.657   8.094   4.522 -3.8195  1.4640  0.9685
   16MOL0     H 2059   3.521   7.958   4.390  0.7826  0.9472  0.3139
   16MOL0     H 2060   3.511   8.078   4.252  0.5896  0.4421 -0.1458
   16MOL0     H 2061   3.414   8.122   4.536  2.1348  0.0487 -0.9813
   16MOL0     H 2062   3.372   8.221   4.390 -0.0365  0.0157  0.7268
   16MOL0     H 2063   3.187   8.058   4.484  0.6497 -0.0174  0.6567
   16MOL0     H 2064   3.285   7.934   4.416  0.8341 -0.3957 -1.7692
   16MOL0     H 2065   3.079   8.250   4.279 -0.9558 -0.8817  0.0935
   16MOL0     H 2066   3.179   8.297   3.919 -1.9985 -2.7372 -1.8447
   16MOL0     H 2067   3.088   8.389   4.045  1.3547  0.8721 -1.6404
   16MOL0     H 2068   2.914   8.180   4.003  2.1281 -1.3337  1.0401
   16MOL0     H 2069   2.987   8.174   3.850  0.6230 -2.3541  1.2144
   16MOL0     H 2070   2.772   8.318   3.844 -1.6649  1.6418  1.8732
   16MOL0     H 2071   2.867   8.424   3.951  3.6975  0.0609  0.1507
   16MOL0     H 2072   2.968   8.343   3.678  1.1323 -0.9308  1.2233
   16MOL0     H 2073   3.023   8.474   3.783  0.9511 -0.0883 -1.2690
   16MOL0     H 2074   3.075   8.519   3.577 -0.5353 -0.4815  0.8350
   16MOL0     H 2075   3.142   8.659   3.386 -0.0475  2.1783 -0.5288
   16MOL0     H 2076   2.997   8.781   2.963 -1.2581 -0.8737  0.3599
   16MOL0     H 2077   3.051   8.913   2.745  0.1288  0.3623 -0.7021
   16MOL0     H 2078   3.110   9.313   2.662 -0.8039 -0.0189 -2.2618
   16MOL0     H 2079   3.006   9.336   2.798 -2.8548  0.4616  0.1650
   16MOL0     H 2080   2.815   9.321   2.615 -1.2208 -0.4096 -3.0227
   16MOL0     H 2081   2.936   9.316   2.493 -0.6666 -0.6871  0.2046
   16MOL0     H 2082   3.045   9.529   2.587  1.2909 -1.5436  0.5414
   16MOL0     H 2083   2.897   9.548   2.682 -0.9596 -0.7934 -1.2609
   16MOL0     H 2084   2.916   9.540   2.380 -1.3863 -2.3825 -1.1684
   16MOL0     H 2085   2.766   9.512   2.467  0.1283  0.3649  0.8212
   16MOL0     H 2086   2.796   9.741   2.582  2.5347  0.6627  1.4295
   16MOL0     H 2087   2.781   9.734   2.391 -0.4421 -1.2886 -0.3498
   16MOL0     H 2088   3.005   9.790   2.360 -1.2059 -0.3366 -0.1973
   16MOL0     H 2089   3.040   9.765   2.531 -0.5733 -0.1302  1.3403
   16MOL0     H 2090   2.875  10.004   2.422 -0.3328 -0.2938 -0.7450
   16MOL0     H 2091   2.893   9.941   2.582 -0.7153 -3.0851 -0.9833
   16MOL0     H 2092   3.142  10.052   2.414  2.5804  1.5319  0.8753
   16MOL0     H 2093   3.134   9.968   2.575 -1.4580 -0.3131  0.8618
   16MOL0     H 2094   2.853   9.247   2.911 -1.3143  0.0679 -1.6603
   16MOL0     H 2095   2.797   9.085   3.118  0.7134  0.3245  0.2983
   16MOL0     H 2096   2.738   8.787   3.353  1.5391 -0.4670 -4.5807
   16MOL0     H 2097   2.677   8.641   3.541 -0.0358 -0.2882 -4.3694
   16MOL0     H 2098   4.008   8.125   3.686  2.3760  1.4508 -0.8562
   16MOL0     H 2099   3.913   8.108   3.461 -0.8955 -1.2255  1.0008
   16MOL0     H 2100   3.895   8.223   2.985  0.1340  2.3941 -0.7272
   16MOL0     H 2101   3.768   8.227   2.780  0.6095 -0.1347  0.3835
   16MOL0     H 2102   3.566   8.216   2.570  1.5168  0.8253 -1.3508
   16MOL0     H 2103   3.663   8.341   2.647  1.0999 -2.8534  1.8753
   16MOL0     H 2104   3.519   8.513   2.600  2.0901 -0.0674 -4.3253
   16MOL0     H 2105   3.483   8.417   2.468 -1.6950  3.1468 -0.2168
   16MOL0     H 2106   3.288   8.517   2.565  0.9297 -0.6135  1.0414
   16MOL0     H 2107   3.322   8.453   2.721  1.0776  0.1054  1.4098
   16MOL0     H 2108   3.252   8.234   2.659  4.4280  0.0752  0.2631
   16MOL0     H 2109   3.129   8.346   2.592 -0.6475  0.6018  2.0753
   16MOL0     H 2110   3.286   8.162   2.245 -4.8710  1.3224 -1.6336
   16MOL0     H 2111   3.411   8.299   3.005  0.7685 -1.3398 -0.1691
   16MOL0     H 2112   3.523   8.273   3.203  1.9094  2.7049  0.4255
   17MOL0     O 2113   6.986   9.429   7.852  0.3442 -0.1286  0.0011
   17MOL0     C 2114   7.015   9.528   7.780  0.8440 -1.0019 -0.4555
   17MOL0     O 2115   6.928   9.576   7.679  0.1581  0.6044  0.0814
   17MOL0     C 2116   6.798   9.528   7.662 -0.5268 -1.0915 -0.7113
   17MOL0     C 2117   6.720   9.461   7.759 -0.3174 -0.3536 -0.7226
   17MOL0     C 2118   6.596   9.408   7.735  0.1132 -0.7888  0.1184
   17MOL0     C 2119   6.529   9.429   7.607 -0.7496 -0.0206 -0.7445
   17MOL0     O 2120   6.408   9.373   7.593  0.4246 -0.2276  0.1401
   17MOL0     C 2121   6.322   9.390   7.473 -0.3295  0.8872 -0.6965
   17MOL0     C 2122   6.190   9.307   7.513  0.3282 -0.4511  0.1291
   17MOL0     C 2123   6.080   9.372   7.440  0.1020  0.7830  0.0338
   17MOL0     C 2124   5.981   9.284   7.386  0.0304  0.6413 -0.2193
   17MOL0     C 2125   5.910   9.184   7.479  0.2668 -0.5080  1.4329
   17MOL0     C 2126   5.845   9.253   7.603  0.2409 -0.5886 -0.9785
   17MOL0     C 2127   5.759   9.151   7.675  0.6176 -0.3777 -0.2983
   17MOL0     C 2128   5.646   9.204   7.764 -0.7836 -0.7814 -0.6185
   17MOL0     N 2129   5.548   9.273   7.685 -0.8909  0.3273  0.5770
   17MOL0     C 2130   5.456   9.204   7.608 -0.4163  0.6892  0.4811
   17MOL0     C 2131   5.362   9.305   7.580  0.4834 -0.1712 -0.0567
   17MOL0     C 2132   5.235   9.283   7.505 -0.2033  0.8323 -0.5296
   17MOL0     C 2133   5.158   9.416   7.520  0.3128  0.8438 -0.2061
   17MOL0     C 2134   5.016   9.412   7.459 -0.3743  0.4904 -0.7640
   17MOL0     C 2135   4.931   9.528   7.488 -0.5644 -1.0358  0.3070
   17MOL0     O 2136   4.882   9.511   7.622 -1.1527 -0.2045 -0.1454
   17MOL0     C 2137   4.765   9.567   7.647  1.1049 -1.1637  0.5044
   17MOL0     C 2138   4.654   9.498   7.599  0.1663 -0.5363 -0.0920
   17MOL0     C 2139   4.524   9.548   7.614  0.1084  0.8744 -0.7381
   17MOL0     C 2140   4.511   9.673   7.666  0.3045 -0.4787 -0.6405
   17MOL0     C 2141   4.380   9.740   7.650 -0.1367  0.2340 -0.2269
   17MOL0     O 2142   4.279   9.657   7.618  0.7946 -0.1441 -0.6663
   17MOL0     C 2143   4.169   9.707   7.551 -0.2712 -0.0829  1.2777
   17MOL0     C 2144   4.063   9.776   7.620 -0.4984 -0.4758 -0.0955
   17MOL0     C 2145   3.960   9.832   7.543  0.2560 -0.0569 -0.8068
   17MOL0     C 2146   3.959   9.830   7.399 -0.3573 -0.6670 -0.1120
   17MOL0     O 2147   3.881   9.914   7.316  0.4955  0.5199  1.2676
   17MOL0     C 2148   3.882  10.055   7.335  0.0846  0.9408 -0.7363
   17MOL0     C 2149   3.746  10.118   7.363  0.4485 -0.2843  0.3566
   17MOL0     C 2150   3.632  10.097   7.265  0.9479  0.6288  0.3015
   17MOL0     C 2151   3.518  10.198   7.304 -0.3192 -0.2227 -0.2097
   17MOL0     C 2152   3.385  10.204   7.215 -0.7772 -0.3579  0.7789
   17MOL0     C 2153   3.404  10.190   7.057  0.2678 -0.8220  0.3194
   17MOL0     C 2154   3.268  10.172   6.981  0.5173 -0.0196  0.7274
   17MOL0     C 2155   3.278  10.177   6.830 -0.9004 -0.3521  0.2468
   17MOL0    Cl 2156   3.307  10.343   6.795  0.5248 -0.0324  0.2591
   17MOL0     C 2157   4.067   9.761   7.339 -1.0959  0.2866 -0.3225
   17MOL0     C 2158   4.172   9.700   7.407 -0.4545  0.1909  0.3350
   17MOL0     O 2159   4.375   9.854   7.674  0.0803  0.7762  0.1849
   17MOL0     C 2160   4.632   9.745   7.717 -0.4744 -0.0245 -0.2081
   17MOL0     C 2161   4.756   9.687   7.710 -0.2242  0.8480 -0.6939
   17MOL0     N 2162   5.405   9.425   7.635 -0.5925  0.5837 -0.2460
   17MOL0     N 2163   5.521   9.404   7.689 -0.2659 -0.2159  0.2286
   17MOL0     C 2164   6.594   9.499   7.507  0.0910 -0.8397  1.1821
   17MOL0     C 2165   6.725   9.551   7.538 -0.4358 -0.3731  0.8756
   17MOL0     C 2166   7.151   9.586   7.796 -0.4501  0.7240 -0.0230
   17MOL0     C 2167   7.203   9.696   7.723  0.7362  1.3035  0.9298
   17MOL0     C 2168   7.324   9.751   7.759 -0.3506  0.1317 -0.3323
   17MOL0     C 2169   7.413   9.684   7.838 -0.5356 -0.4515  0.0505
   17MOL0     O 2170   7.548   9.726   7.869 -0.0442 -0.0205  0.2339
   17MOL0     C 2171   7.612   9.813   7.768 -0.4192 -0.1609 -0.1225
   17MOL0     C 2172   7.586   9.969   7.792 -0.4343 -0.0536  0.2523
   17MOL0     C 2173   7.695  10.064   7.745  0.1528 -0.9040 -0.2876
   17MOL0     C 2174   7.686  10.209   7.808  0.4012 -0.6996 -0.4203
   17MOL0     C 2175   7.560  10.279   7.780  0.3562  0.2435  0.0817
   17MOL0     C 2176   7.453  10.340   7.780 -0.6250  0.2042  0.4014
   17MOL0     C 2177   7.375   9.573   7.900  0.1218 -0.4504  0.4396
   17MOL0     C 2178   7.242   9.533   7.890 -0.4685  1.0841 -0.0312
   17MOL0     H 2179   6.757   9.444   7.860 -1.0311 -0.2089 -0.4383
   17MOL0     H 2180   6.546   9.364   7.820  0.1148  1.9434  1.6419
   17MOL0     H 2181   6.370   9.340   7.390  1.9704 -0.2917  1.2212
   17MOL0     H 2182   6.311   9.498   7.456 -1.7849  0.7875 -0.5836
   17MOL0     H 2183   6.175   9.308   7.621 -1.3019 -1.4079 -0.0498
   17MOL0     H 2184   6.198   9.199   7.498 -1.4602 -0.7160  0.8351
   17MOL0     H 2185   6.111   9.429   7.352  1.1792  2.4668  1.4385
   17MOL0     H 2186   6.035   9.446   7.507  2.9077  1.5831  1.1892
   17MOL0     H 2187   5.897   9.337   7.341  0.3503 -1.0208 -3.0132
   17MOL0     H 2188   6.025   9.229   7.302 -0.5781 -1.1602  0.5808
   17MOL0     H 2189   5.980   9.105   7.506  2.2338 -1.0393 -4.0212
   17MOL0     H 2190   5.832   9.139   7.417  3.1458 -0.1182 -2.9027
   17MOL0     H 2191   5.777   9.334   7.574  1.0745  0.8709  0.9441
   17MOL0     H 2192   5.917   9.297   7.673 -3.1688  1.9279  1.2491
   17MOL0     H 2193   5.712   9.084   7.602  0.1469  1.4046 -1.7069
   17MOL0     H 2194   5.814   9.088   7.746 -1.1956 -1.4203  0.2649
   17MOL0     H 2195   5.691   9.271   7.837  0.6291 -2.6005  0.2733
   17MOL0     H 2196   5.606   9.125   7.828 -1.1622  0.3176  0.5308
   17MOL0     H 2197   5.454   9.100   7.579 -2.0508  0.5776  0.8911
   17MOL0     H 2198   5.157   9.210   7.528 -3.5449  4.2224 -0.0647
   17MOL0     H 2199   5.270   9.275   7.402  0.7806  5.3661 -0.7609
   17MOL0     H 2200   5.210   9.499   7.470 -0.5483 -0.1788 -2.9903
   17MOL0     H 2201   5.151   9.445   7.625  1.4153  1.8170 -0.3705
   17MOL0     H 2202   5.017   9.412   7.350  0.3341  1.6491 -0.7765
   17MOL0     H 2203   4.973   9.320   7.501  0.3077 -0.4382 -2.0178
   17MOL0     H 2204   4.847   9.537   7.418  1.3316 -0.9548 -2.0816
   17MOL0     H 2205   4.992   9.619   7.479 -0.5088 -0.9603  1.3671
   17MOL0     H 2206   4.672   9.395   7.571  0.8504 -0.8752  1.4977
   17MOL0     H 2207   4.435   9.486   7.604  2.0260 -2.3950  0.5897
   17MOL0     H 2208   4.067   9.789   7.727  0.0459 -0.6355 -0.0921
   17MOL0     H 2209   3.889   9.892   7.599  2.8562 -0.9215  3.9182
   17MOL0     H 2210   3.929  10.100   7.247  1.9161 -0.2705 -0.4581
   17MOL0     H 2211   3.949  10.084   7.417 -1.2081  0.6794  0.4358
   17MOL0     H 2212   3.780  10.222   7.372  6.9416 -2.0289  1.5574
   17MOL0     H 2213   3.718  10.100   7.467  1.0187  1.5848  0.8699
   17MOL0     H 2214   3.593   9.995   7.271 -1.1979  1.4813  2.2739
   17MOL0     H 2215   3.669  10.124   7.165  1.2903  2.2632  0.8447
   17MOL0     H 2216   3.496  10.183   7.410  0.1015  3.9810  0.6467
   17MOL0     H 2217   3.561  10.299   7.298 -0.1848 -0.2809 -0.2190
   17MOL0     H 2218   3.327  10.296   7.229 -3.4534 -0.7246 -5.0569
   17MOL0     H 2219   3.325  10.123   7.256  1.3349 -1.3694  2.0522
   17MOL0     H 2220   3.487  10.123   7.030  1.0391  0.6378 -1.0863
   17MOL0     H 2221   3.427  10.293   7.028 -2.7129  0.2905  1.5223
   17MOL0     H 2222   3.225  10.079   7.020 -3.1346  1.6401  1.0381
   17MOL0     H 2223   3.199  10.253   7.008  1.7391  0.7804  1.5651
   17MOL0     H 2224   3.182  10.161   6.779 -0.1453  1.6391 -1.9664
   17MOL0     H 2225   3.346  10.104   6.785 -0.6270 -1.0129  1.6864
   17MOL0     H 2226   4.068   9.771   7.231  0.0390  1.5580 -0.2207
   17MOL0     H 2227   4.256   9.656   7.354  0.2701  1.6754  0.2200
   17MOL0     H 2228   4.609   9.846   7.747 -1.9977  0.2888 -2.2176
   17MOL0     H 2229   4.838   9.736   7.761  0.9222  0.1487 -1.8255
   17MOL0     H 2230   6.543   9.511   7.412  2.4670  1.0266  0.0471
   17MOL0     H 2231   6.797   9.604   7.478 -1.8349  3.4627  2.2651
   17MOL0     H 2232   7.140   9.751   7.653  0.4749  1.4312  1.2641
   17MOL0     H 2233   7.346   9.847   7.712  1.2838  0.7095  1.4533
   17MOL0     H 2234   7.568   9.790   7.670  2.6077 -0.7699 -1.4354
   17MOL0     H 2235   7.719   9.791   7.772 -0.6290 -1.5384 -1.2189
   17MOL0     H 2236   7.499   9.989   7.728  1.2420  0.3953 -2.0041
   17MOL0     H 2237   7.559   9.989   7.896  1.5359  0.2232  0.7435
   17MOL0     H 2238   7.691  10.074   7.636  0.1968 -0.4054 -0.2449
   17MOL0     H 2239   7.793  10.021   7.764  0.1516  0.5345  4.0554
   17MOL0     H 2240   7.700  10.189   7.915 -2.2386 -0.1853  0.0914
   17MOL0     H 2241   7.773  10.263   7.768 -0.0292 -1.2730 -2.2293
   17MOL0     H 2242   7.369  10.404   7.759  0.0206  0.1377 -3.0287
   17MOL0     H 2243   7.435   9.508   7.962 -1.2044 -0.3761  1.8720
   17MOL0     H 2244   7.211   9.444   7.944  0.3981  0.2767 -0.8221
   18MOL0     O 2245   1.179  10.704   0.558 -0.2686  0.5244 -1.1873
   18MOL0     C 2246   1.277  10.687   0.498  0.3449 -0.2292  0.3570
   18MOL0     O 2247   1.403  10.690   0.544 -0.1850 -0.2119 -0.1397
   18MOL0     C 2248   1.421  10.676   0.683 -1.0785 -0.0985 -0.4506
   18MOL0     C 2249   1.437  10.793   0.765 -0.7803 -0.5152  0.2621
   18MOL0     C 2250   1.456  10.778   0.900 -0.4184 -0.3253  0.5617
   18MOL0     C 2251   1.462  10.649   0.961 -0.2090 -0.5502 -0.6205
   18MOL0     O 2252   1.491  10.614   1.093  0.3426  0.1037  0.0614
   18MOL0     C 2253   1.575  10.696   1.169 -0.1153  0.7423  0.0198
   18MOL0     C 2254   1.603  10.610   1.294  0.3107 -0.4089  0.3206
   18MOL0     C 2255   1.733  10.518   1.274 -0.1081 -0.0244 -0.2356
   18MOL0     C 2256   1.750  10.439   1.406  0.7399  0.7289 -0.3312
   18MOL0     C 2257   1.879  10.356   1.382 -1.2681  0.5783  0.4455
   18MOL0     C 2258   1.903  10.241   1.488  0.1196  0.3434  0.0135
   18MOL0     C 2259   2.051  10.198   1.516  0.0880  0.0901  0.4380
   18MOL0     C 2260   2.098  10.091   1.411  1.1167 -0.2407  0.3754
   18MOL0     N 2261   2.041   9.966   1.431  0.1616 -0.1222 -0.1324
   18MOL0     C 2262   1.967   9.887   1.346 -0.3443  0.6528  0.4779
   18MOL0     C 2263   1.951   9.766   1.407  0.1758 -1.0770  0.4948
   18MOL0     C 2264   1.872   9.651   1.353 -0.2969 -1.1661  0.0922
   18MOL0     C 2265   1.791   9.596   1.472  0.6643  0.0620 -0.7383
   18MOL0     C 2266   1.674   9.685   1.520 -0.0184  0.0245 -0.5163
   18MOL0     C 2267   1.578   9.608   1.616 -0.2233  0.7842  0.4987
   18MOL0     O 2268   1.477   9.529   1.544  0.4375  0.0190 -0.4268
   18MOL0     C 2269   1.377   9.588   1.469 -0.0986  0.2553 -0.3943
   18MOL0     C 2270   1.304   9.694   1.513 -0.6276 -0.2182 -1.0042
   18MOL0     C 2271   1.211   9.761   1.434  0.0790 -0.6490  0.5844
   18MOL0     C 2272   1.187   9.720   1.298 -1.1230  0.3980  0.2723
   18MOL0     C 2273   1.102   9.777   1.194 -0.1873  0.3517  0.5442
   18MOL0     O 2274   1.106   9.907   1.185 -0.2832 -1.4169  0.6069
   18MOL0     C 2275   1.023   9.961   1.086 -0.3214  0.2544 -0.1045
   18MOL0     C 2276   0.894  10.012   1.121 -0.8226  0.0917 -0.3499
   18MOL0     C 2277   0.818  10.056   1.012  0.0680 -0.8002 -0.3930
   18MOL0     C 2278   0.855  10.062   0.874 -0.1922 -0.2285 -0.3982
   18MOL0     O 2279   0.764  10.098   0.775 -0.1070  0.0634  0.3605
   18MOL0     C 2280   0.759   9.999   0.663  0.3840  0.2421  0.0864
   18MOL0     C 2281   0.663  10.049   0.557  0.6871  0.4293 -0.5803
   18MOL0     C 2282   0.517  10.053   0.604  0.3575 -0.0512  0.8604
   18MOL0     C 2283   0.420  10.122   0.507  0.2455  0.7354 -0.2622
   18MOL0     C 2284   0.273  10.106   0.558  1.3577  0.6756  0.0871
   18MOL0     C 2285   0.175  10.149   0.440 -1.4744  0.4467 -0.9318
   18MOL0     C 2286   0.037  10.152   0.495 -0.0852 -0.6029 -0.0492
   18MOL0     C 2287  -0.052  10.242   0.407 -1.0925 -0.0268 -0.5295
   18MOL0    Cl 2288  -0.034  10.415   0.447  0.1391  0.0366 -0.0077
   18MOL0     C 2289   0.981  10.018   0.848  0.6578  0.3963 -0.0350
   18MOL0     C 2290   1.065   9.962   0.954 -0.1887 -0.0386 -0.7655
   18MOL0     O 2291   1.047   9.706   1.110 -0.1733  0.4257 -0.4748
   18MOL0     C 2292   1.255   9.604   1.256 -0.0736  0.7275  0.0577
   18MOL0     C 2293   1.348   9.538   1.344 -0.7910  0.1424 -1.0910
   18MOL0     N 2294   2.022   9.769   1.520  0.4836 -0.6274 -0.1236
   18MOL0     N 2295   2.068   9.893   1.541 -0.4740 -0.8221  0.3422
   18MOL0     C 2296   1.436  10.537   0.878  0.4042  0.7329 -0.2639
   18MOL0     C 2297   1.424  10.553   0.742  0.7857 -0.6177  0.2492
   18MOL0     C 2298   1.267  10.676   0.343  0.0668 -0.0688 -0.0560
   18MOL0     C 2299   1.157  10.709   0.267  1.2648  0.9489 -0.6380
   18MOL0     C 2300   1.146  10.691   0.128 -0.3719  0.0595  0.3626
   18MOL0     C 2301   1.258  10.630   0.067  1.5718 -0.0199  0.5318
   18MOL0     O 2302   1.249  10.589  -0.061  0.7787 -0.0528  0.3078
   18MOL0     C 2303   1.285  10.690  -0.159 -0.1587  0.8686 -0.9224
   18MOL0     C 2304   1.426  10.645  -0.207  0.4536  0.7085  0.0620
   18MOL0     C 2305   1.431  10.565  -0.336  0.9871 -0.7336  0.5829
   18MOL0     C 2306   1.559  10.487  -0.367 -0.9883 -0.0478 -0.1064
   18MOL0     C 2307   1.534  10.390  -0.466 -0.7254  1.0424 -0.0947
   18MOL0     C 2308   1.500  10.322  -0.562  0.8194  0.4780 -0.6579
   18MOL0     C 2309   1.372  10.593   0.139 -1.0600 -0.2001  1.3281
   18MOL0     C 2310   1.382  10.624   0.273 -0.2110  0.5536 -0.8009
   18MOL0     H 2311   1.426  10.893   0.725  1.3136 -0.5490 -0.5046
   18MOL0     H 2312   1.468  10.865   0.964  0.7132  0.2229 -0.3458
   18MOL0     H 2313   1.528  10.788   1.206 -2.0809 -1.7676  4.5486
   18MOL0     H 2314   1.669  10.723   1.120  0.7056  1.7171  1.9753
   18MOL0     H 2315   1.512  10.555   1.321 -0.6617  0.8097 -0.3631
   18MOL0     H 2316   1.623  10.685   1.371  3.4172 -0.9855  0.2019
   18MOL0     H 2317   1.822  10.580   1.264  0.9707 -1.4095  0.4749
   18MOL0     H 2318   1.721  10.454   1.186 -1.9251  2.5795 -2.0364
   18MOL0     H 2319   1.748  10.496   1.500  1.5191  0.4937 -0.1613
   18MOL0     H 2320   1.667  10.370   1.421  0.4291  1.0297 -0.6566
   18MOL0     H 2321   1.972  10.411   1.367  0.6460 -3.1880 -3.8548
   18MOL0     H 2322   1.876  10.297   1.290  0.5806 -1.8588  1.8063
   18MOL0     H 2323   1.854  10.151   1.450  0.8582 -1.0024  2.0957
   18MOL0     H 2324   1.848  10.277   1.576 -0.1577 -1.2247  0.5128
   18MOL0     H 2325   2.107  10.292   1.506 -0.9954  0.6889 -0.1446
   18MOL0     H 2326   2.051  10.158   1.618  0.5609 -1.2706 -0.0818
   18MOL0     H 2327   2.207  10.087   1.416  1.3665  1.0273 -2.0709
   18MOL0     H 2328   2.075  10.128   1.310  1.1990  1.1574  0.8408
   18MOL0     H 2329   1.930   9.909   1.246  1.4755 -2.8443 -1.1352
   18MOL0     H 2330   1.953   9.586   1.319  1.5229  0.5304  0.9844
   18MOL0     H 2331   1.823   9.689   1.263  2.3976 -0.0146 -0.9989
   18MOL0     H 2332   1.854   9.575   1.559  1.1540  0.2066 -1.0525
   18MOL0     H 2333   1.747   9.502   1.438 -2.5709  2.9167 -5.7698
   18MOL0     H 2334   1.726   9.764   1.575  0.4601 -0.4590 -0.2678
   18MOL0     H 2335   1.614   9.720   1.435 -1.5601  1.4519  1.0823
   18MOL0     H 2336   1.521   9.677   1.679  0.1597  0.2048  1.5056
   18MOL0     H 2337   1.637   9.545   1.683 -0.7128 -0.6982 -0.4229
   18MOL0     H 2338   1.317   9.725   1.616 -1.3860 -1.0950 -0.6285
   18MOL0     H 2339   1.169   9.856   1.465  4.9698  1.9026  0.4373
   18MOL0     H 2340   0.849  10.008   1.220 -0.4267  2.4910 -0.0103
   18MOL0     H 2341   0.719  10.093   1.036  0.6523 -0.5283  1.7782
   18MOL0     H 2342   0.727   9.902   0.703  2.0693 -0.0452  0.8091
   18MOL0     H 2343   0.853   9.994   0.607 -1.0653 -1.1343 -2.4235
   18MOL0     H 2344   0.673  10.000   0.460  1.0294  0.5360 -0.5996
   18MOL0     H 2345   0.681  10.156   0.541 -1.9055  0.8430 -1.2208
   18MOL0     H 2346   0.513  10.114   0.694  2.8852 -0.1660  1.1345
   18MOL0     H 2347   0.481   9.954   0.633 -3.1918  1.4468  2.1296
   18MOL0     H 2348   0.445  10.225   0.480  1.9360  0.7883  1.3123
   18MOL0     H 2349   0.413  10.053   0.422  0.1121 -0.3925  0.6288
   18MOL0     H 2350   0.265  10.175   0.642  3.2110  1.3178 -0.2300
   18MOL0     H 2351   0.259   9.998   0.572  2.4175  0.5390  0.1583
   18MOL0     H 2352   0.183  10.081   0.355  0.2592 -0.3191 -0.2093
   18MOL0     H 2353   0.201  10.250   0.405  0.2070  0.1542 -0.6177
   18MOL0     H 2354  -0.007  10.051   0.501 -2.1224  0.1577 -1.2279
   18MOL0     H 2355   0.032  10.194   0.595  2.4370 -0.8872  0.2481
   18MOL0     H 2356  -0.151  10.205   0.434 -0.4953  0.2481  2.3464
   18MOL0     H 2357  -0.044  10.235   0.298  1.0335  1.8089 -0.5618
   18MOL0     H 2358   1.029  10.027   0.751  2.9275  2.2673  1.1731
   18MOL0     H 2359   1.171   9.943   0.940 -0.3175 -0.1342 -1.6332
   18MOL0     H 2360   1.234   9.571   1.155  3.5723  2.7034 -1.5608
   18MOL0     H 2361   1.392   9.446   1.308 -0.5586  0.1489 -0.8258
   18MOL0     H 2362   1.430  10.442   0.930  0.5947  0.9436  0.1446
   18MOL0     H 2363   1.425  10.469   0.673  2.0046 -0.7835  0.4543
   18MOL0     H 2364   1.074  10.737   0.331  2.0028  0.2722  0.6539
   18MOL0     H 2365   1.055  10.723   0.078 -0.7313 -2.8510 -1.0486
   18MOL0     H 2366   1.286  10.793  -0.121 -0.9366  0.2913  0.7532
   18MOL0     H 2367   1.210  10.678  -0.239 -1.9122  1.8000  0.4999
   18MOL0     H 2368   1.489  10.730  -0.234  1.2008 -0.1473 -1.0061
   18MOL0     H 2369   1.482  10.589  -0.131 -2.4087  0.3169  2.0479
   18MOL0     H 2370   1.420  10.642  -0.412 -1.5902 -2.8241 -1.3676
   18MOL0     H 2371   1.346  10.495  -0.341  0.3041  0.0647  0.8294
   18MOL0     H 2372   1.623  10.568  -0.400 -2.2471  0.6836 -0.8347
   18MOL0     H 2373   1.598  10.448  -0.272 -0.8466  1.7561  0.6098
   18MOL0     H 2374   1.468  10.269  -0.650 -1.6839 -0.9459  0.9829
   18MOL0     H 2375   1.447  10.543   0.079  0.1083  2.7197  0.1710
   18MOL0     H 2376   1.468  10.590   0.329  2.5788  4.5855 -2.1892
   19MOL0     O 2377   4.993   6.998   3.169  0.7875 -0.1532 -0.5620
   19MOL0     C 2378   5.031   7.104   3.127 -0.0596  0.5370 -0.6231
   19MOL0     O 2379   5.159   7.164   3.147  0.6055  0.5977  0.1525
   19MOL0     C 2380   5.268   7.099   3.193 -0.3495 -0.8665 -0.5516
   19MOL0     C 2381   5.279   6.962   3.231  0.4881  0.2737  0.3079
   19MOL0     C 2382   5.397   6.904   3.276 -0.4377 -0.2586  0.5523
   19MOL0     C 2383   5.511   6.986   3.279  0.1868  0.7779  0.1042
   19MOL0     O 2384   5.635   6.942   3.317  0.7561  0.2253 -0.6801
   19MOL0     C 2385   5.642   6.804   3.374  0.1543 -0.5661 -0.1897
   19MOL0     C 2386   5.787   6.774   3.408 -0.5031  0.3639  0.3440
   19MOL0     C 2387   5.860   6.866   3.509 -0.3057  0.0207 -0.1546
   19MOL0     C 2388   5.996   6.900   3.453  0.4593 -0.4008  0.0870
   19MOL0     C 2389   6.093   6.785   3.470 -0.1556 -0.2954  0.7849
   19MOL0     C 2390   6.195   6.816   3.581  0.4282 -0.0098 -0.3941
   19MOL0     C 2391   6.305   6.922   3.570 -0.3559 -0.7254  0.5598
   19MOL0     C 2392   6.394   6.900   3.445 -1.0968 -0.0917 -0.9357
   19MOL0     N 2393   6.504   6.810   3.469  0.2569  0.3358  0.1729
   19MOL0     C 2394   6.623   6.847   3.524 -0.0583  0.2066 -0.1635
   19MOL0     C 2395   6.693   6.730   3.531  0.1383 -0.5301 -0.5043
   19MOL0     C 2396   6.839   6.720   3.595 -0.1087 -0.0380 -0.1640
   19MOL0     C 2397   6.839   6.728   3.751  0.3193  0.1936  0.0046
   19MOL0     C 2398   6.766   6.618   3.814  0.9959 -0.0459  1.1626
   19MOL0     C 2399   6.830   6.487   3.786 -0.0225 -0.2871  1.0861
   19MOL0     O 2400   6.751   6.390   3.864  0.6880  0.2273  1.1310
   19MOL0     C 2401   6.621   6.353   3.831  0.0016 -0.1088  0.1335
   19MOL0     C 2402   6.539   6.269   3.907  0.3374 -0.4280  0.1126
   19MOL0     C 2403   6.402   6.239   3.880 -0.1480  1.3998  0.1010
   19MOL0     C 2404   6.340   6.285   3.769  0.2765 -0.8086 -0.3717
   19MOL0     C 2405   6.197   6.265   3.748  0.1575  0.4000 -0.7030
   19MOL0     O 2406   6.142   6.167   3.817  0.6065 -0.4889 -0.6227
   19MOL0     C 2407   6.016   6.124   3.785 -0.1188 -0.4766  0.9264
   19MOL0     C 2408   5.912   6.097   3.871 -0.4830 -0.5216 -0.3662
   19MOL0     C 2409   5.786   6.042   3.834  0.3476 -0.7384 -0.3977
   19MOL0     C 2410   5.760   6.003   3.699 -0.5237  1.2072  0.1577
   19MOL0     O 2411   5.647   5.940   3.659 -0.2897  0.3281  0.4700
   19MOL0     C 2412   5.529   6.016   3.638 -0.4572 -0.0511  0.8274
   19MOL0     C 2413   5.421   5.947   3.571  0.1099 -0.2918  0.5336
   19MOL0     C 2414   5.469   5.877   3.446  0.6829  0.4823 -0.1138
   19MOL0     C 2415   5.558   5.952   3.342  0.7659  0.6326 -0.3457
   19MOL0     C 2416   5.590   5.867   3.228  1.0117 -0.4063  0.4170
   19MOL0     C 2417   5.698   5.945   3.146  0.3936  0.4607 -0.5808
   19MOL0     C 2418   5.734   5.873   3.017 -1.0012 -0.4346  0.0219
   19MOL0     C 2419   5.615   5.864   2.919 -0.1899 -0.0407 -0.3021
   19MOL0    Cl 2420   5.670   5.848   2.757 -0.5127  0.1659 -0.0217
   19MOL0     C 2421   5.860   6.033   3.606  0.1151  0.1207 -0.1329
   19MOL0     C 2422   5.988   6.088   3.648  0.5802  0.0794 -0.6384
   19MOL0     O 2423   6.140   6.330   3.656  0.2436 -0.4591  0.1774
   19MOL0     C 2424   6.416   6.367   3.691  0.0910 -0.7616 -0.3050
   19MOL0     C 2425   6.548   6.395   3.726 -0.4604 -0.6547  0.5020
   19MOL0     N 2426   6.625   6.633   3.463  0.7929  0.2283 -0.6390
   19MOL0     N 2427   6.507   6.674   3.441  1.1821 -0.6956  0.0250
   19MOL0     C 2428   5.507   7.114   3.241 -0.1261 -0.4170  0.1670
   19MOL0     C 2429   5.387   7.169   3.198  0.1450 -0.2118 -0.8345
   19MOL0     C 2430   4.931   7.190   3.059  0.7331 -0.1308  0.1244
   19MOL0     C 2431   4.985   7.309   2.991 -1.0807  0.6412  0.0435
   19MOL0     C 2432   4.893   7.387   2.925  0.9912 -0.3420  0.7732
   19MOL0     C 2433   4.757   7.365   2.934  0.0863 -0.3470 -0.8188
   19MOL0     O 2434   4.661   7.450   2.882 -0.4147  0.2121 -0.0595
   19MOL0     C 2435   4.669   7.502   2.748  0.4161  0.5487  0.3245
   19MOL0     C 2436   4.541   7.546   2.699 -0.0480 -0.8620  0.1054
   19MOL0     C 2437   4.499   7.683   2.751  0.1686  0.0660 -0.1608
   19MOL0     C 2438   4.366   7.730   2.709 -0.8106  0.0233  0.2492
   19MOL0     C 2439   4.269   7.618   2.704  0.5221  0.0520 -0.5394
   19MOL0     C 2440   4.183   7.534   2.695  0.1368 -1.2298  0.0055
   19MOL0     C 2441   4.696   7.260   3.004 -0.0365  0.7476  0.0761
   19MOL0     C 2442   4.792   7.170   3.067  0.9855  0.6691  0.2740
   19MOL0     H 2443   5.187   6.904   3.229 -0.6426  1.8886  1.9363
   19MOL0     H 2444   5.398   6.809   3.328 -0.9586  0.2986  1.5976
   19MOL0     H 2445   5.621   6.731   3.296  2.8093 -1.7215  0.0866
   19MOL0     H 2446   5.581   6.804   3.465  1.7348 -2.5328  0.9396
   19MOL0     H 2447   5.833   6.774   3.309  2.3276  1.5377  1.5454
   19MOL0     H 2448   5.791   6.667   3.432  1.3181  0.3687  0.1709
   19MOL0     H 2449   5.864   6.827   3.611  1.6246 -2.0403 -0.9228
   19MOL0     H 2450   5.805   6.959   3.528 -1.0930 -0.8490  2.1313
   19MOL0     H 2451   5.993   6.919   3.345 -3.9418  1.9292  0.3491
   19MOL0     H 2452   6.039   6.991   3.497  1.9052 -0.3949 -1.2846
   19MOL0     H 2453   6.147   6.763   3.378 -0.6403  0.3184  0.3375
   19MOL0     H 2454   6.040   6.690   3.481  0.0857 -1.0378 -3.0822
   19MOL0     H 2455   6.254   6.724   3.587  0.0333 -0.3694 -1.6603
   19MOL0     H 2456   6.139   6.822   3.675  0.1331  0.5580 -0.6030
   19MOL0     H 2457   6.265   7.024   3.571 -3.0158 -1.6837  1.0004
   19MOL0     H 2458   6.358   6.914   3.665  0.0459  0.0671  0.4110
   19MOL0     H 2459   6.422   7.005   3.430 -0.3173  0.7078  4.2448
   19MOL0     H 2460   6.338   6.860   3.360 -1.4399 -0.2974 -0.6132
   19MOL0     H 2461   6.647   6.949   3.554 -0.5890 -0.1218  1.4911
   19MOL0     H 2462   6.896   6.804   3.554  0.2136 -0.3130 -0.2767
   19MOL0     H 2463   6.888   6.634   3.549 -1.4516  0.1856 -2.1514
   19MOL0     H 2464   6.789   6.820   3.786 -2.2477 -0.2484 -2.1267
   19MOL0     H 2465   6.945   6.725   3.778  0.3889  0.5218 -0.2245
   19MOL0     H 2466   6.751   6.632   3.921 -1.1343 -0.6973  1.0101
   19MOL0     H 2467   6.667   6.605   3.768  1.2327 -1.1247  0.9199
   19MOL0     H 2468   6.937   6.482   3.809  0.7139 -1.8698 -2.1178
   19MOL0     H 2469   6.821   6.466   3.679 -1.5231  1.5374  0.7900
   19MOL0     H 2470   6.590   6.234   3.996  1.9767 -1.6915 -1.2599
   19MOL0     H 2471   6.344   6.172   3.943  1.2234 -0.3011 -0.3630
   19MOL0     H 2472   5.946   6.102   3.974  1.1837  0.2999 -0.9319
   19MOL0     H 2473   5.701   6.024   3.899  1.1935  2.8173  2.0141
   19MOL0     H 2474   5.563   6.106   3.585 -2.4817 -0.3774 -1.1927
   19MOL0     H 2475   5.491   6.051   3.734  0.8644  0.1293  1.3100
   19MOL0     H 2476   5.341   6.013   3.535  2.0974  3.3481  2.3148
   19MOL0     H 2477   5.375   5.871   3.635  2.2698 -1.2115  1.0881
   19MOL0     H 2478   5.382   5.840   3.391 -0.7563  1.2338  1.5508
   19MOL0     H 2479   5.521   5.787   3.480 -3.0510 -1.8549 -0.1072
   19MOL0     H 2480   5.511   6.041   3.301  2.7776  0.0645 -4.4525
   19MOL0     H 2481   5.640   5.983   3.408 -0.8577  1.8426  1.2038
   19MOL0     H 2482   5.503   5.853   3.163  0.8117  2.9553 -0.1987
   19MOL0     H 2483   5.627   5.768   3.255  1.4285 -0.0523  1.1507
   19MOL0     H 2484   5.790   5.939   3.206 -0.0126  2.9105  0.3903
   19MOL0     H 2485   5.670   6.050   3.138  0.5997  0.6635  1.0692
   19MOL0     H 2486   5.808   5.937   2.969 -1.1675  0.4758  0.9485
   19MOL0     H 2487   5.779   5.773   3.030 -0.3719  0.0418  1.8181
   19MOL0     H 2488   5.551   5.952   2.928 -0.7017 -0.3030 -1.2583
   19MOL0     H 2489   5.542   5.786   2.944  1.2421 -0.9911  1.1295
   19MOL0     H 2490   5.849   5.983   3.510  0.8258 -1.4139  0.5499
   19MOL0     H 2491   6.057   6.120   3.571  2.5109 -1.1548  0.4674
   19MOL0     H 2492   6.371   6.401   3.599  1.7211 -1.8979 -1.5824
   19MOL0     H 2493   6.599   6.456   3.652  0.0454  0.3690  1.6551
   19MOL0     H 2494   5.594   7.179   3.236 -2.6117  3.2071 -0.1514
   19MOL0     H 2495   5.390   7.278   3.194  1.4845  0.3230  4.9873
   19MOL0     H 2496   5.091   7.328   3.004  0.2752 -4.2743 -1.6977
   19MOL0     H 2497   4.922   7.476   2.870 -0.2435  0.7742  1.8767
   19MOL0     H 2498   4.703   7.424   2.679  0.8160 -0.9574  2.1304
   19MOL0     H 2499   4.742   7.582   2.735  2.3736 -1.1337  0.4730
   19MOL0     H 2500   4.553   7.568   2.593 -1.1868 -1.2086 -0.1146
   19MOL0     H 2501   4.477   7.463   2.730 -0.0330 -0.9934 -0.2077
   19MOL0     H 2502   4.577   7.757   2.731  0.7564 -0.4443  0.2033
   19MOL0     H 2503   4.499   7.661   2.858  2.4171  0.9850  0.0775
   19MOL0     H 2504   4.331   7.805   2.779  1.5382  1.2659  0.1902
   19MOL0     H 2505   4.376   7.784   2.615 -1.1298 -1.7285 -0.8446
   19MOL0     H 2506   4.100   7.468   2.710 -1.6042  0.7188 -0.5944
   19MOL0     H 2507   4.591   7.240   3.018  0.3531 -1.4512  0.1811
   19MOL0     H 2508   4.756   7.089   3.129  0.5907 -0.2813 -1.1576
   20MOL0     O 2509   8.618   8.118   3.472 -0.2189  0.4418 -0.2580
   20MOL0     C 2510   8.660   8.200   3.391 -0.4767  0.8062 -0.8739
   20MOL0     O 2511   8.649   8.201   3.249  0.0865 -0.9407  0.2031
   20MOL0     C 2512   8.551   8.129   3.184 -0.4910 -0.0382 -0.4263
   20MOL0     C 2513   8.538   8.132   3.047 -0.4382  0.4789  1.1396
   20MOL0     C 2514   8.441   8.064   2.968 -0.0600 -0.1803 -0.3100
   20MOL0     C 2515   8.346   7.989   3.039 -0.9444 -0.2060 -0.0642
   20MOL0     O 2516   8.248   7.905   2.984  0.5669  0.0267  0.0002
   20MOL0     C 2517   8.226   7.913   2.844 -0.1005  0.4646  0.0192
   20MOL0     C 2518   8.128   7.818   2.787  0.5375  0.5347  0.1539
   20MOL0     C 2519   8.072   7.863   2.654 -0.9124 -0.3862 -0.1450
   20MOL0     C 2520   8.161   7.832   2.539 -1.0862 -0.4678 -0.1742
   20MOL0     C 2521   8.101   7.839   2.402  0.7064  0.5608 -0.6796
   20MOL0     C 2522   8.202   7.876   2.304  0.1642 -0.0438  1.0447
   20MOL0     C 2523   8.111   7.875   2.177  0.1843 -0.2357  0.4080
   20MOL0     C 2524   8.189   7.919   2.046  0.5675  0.0605 -0.4120
   20MOL0     N 2525   8.291   7.826   1.983 -0.2238  0.6067 -0.8977
   20MOL0     C 2526   8.256   7.712   1.931  0.2618  0.6931  0.8177
   20MOL0     C 2527   8.371   7.666   1.870  0.0978  0.4939 -0.6171
   20MOL0     C 2528   8.363   7.548   1.776  0.0299 -0.7748  0.3207
   20MOL0     C 2529   8.349   7.582   1.632 -0.2711  0.1701  0.3117
   20MOL0     C 2530   8.386   7.475   1.537 -1.0786  0.6067 -0.3674
   20MOL0     C 2531   8.316   7.338   1.545 -0.2422  1.2402  0.4801
   20MOL0     O 2532   8.298   7.282   1.414  0.9295 -0.0926 -0.0718
   20MOL0     C 2533   8.231   7.158   1.411  0.9520 -0.2017 -0.1391
   20MOL0     C 2534   8.188   7.083   1.525  0.1275 -0.7100  0.1819
   20MOL0     C 2535   8.106   6.972   1.513  0.1707 -0.7046 -0.1048
   20MOL0     C 2536   8.057   6.932   1.387 -0.2108  0.9849 -0.6100
   20MOL0     C 2537   7.961   6.813   1.372 -0.9543 -0.3038  0.4520
   20MOL0     O 2538   7.957   6.763   1.240  0.1218 -0.9348 -0.2327
   20MOL0     C 2539   7.885   6.653   1.208 -0.3805 -0.8379 -0.3437
   20MOL0     C 2540   7.885   6.540   1.285  0.3112 -0.3563  0.2623
   20MOL0     C 2541   7.846   6.423   1.217 -0.0543  0.5793 -0.0465
   20MOL0     C 2542   7.790   6.424   1.092 -0.3409 -0.9560  0.3444
   20MOL0     O 2543   7.761   6.321   1.011  0.3603  1.3524  0.0282
   20MOL0     C 2544   7.763   6.196   1.075 -0.2373  0.7055  0.2150
   20MOL0     C 2545   7.707   6.091   0.968 -0.3486 -0.1563 -0.2317
   20MOL0     C 2546   7.806   6.035   0.865  1.1026 -0.2442 -0.1831
   20MOL0     C 2547   7.913   5.929   0.921  0.3028  0.2329  0.4847
   20MOL0     C 2548   7.978   5.862   0.799  0.8462 -0.0652 -0.0412
   20MOL0     C 2549   8.118   5.798   0.829 -0.1349 -0.9806 -0.2254
   20MOL0     C 2550   8.185   5.736   0.707 -1.2450 -0.0220 -0.4498
   20MOL0     C 2551   8.260   5.831   0.623 -0.1857 -0.0752  0.4800
   20MOL0    Cl 2552   8.317   5.762   0.472 -0.6756  0.1765  0.1738
   20MOL0     C 2553   7.780   6.536   1.019 -0.1453  0.9136 -0.4053
   20MOL0     C 2554   7.836   6.657   1.075  0.4737  0.4262 -0.4857
   20MOL0     O 2555   7.892   6.778   1.466 -0.8122 -0.4852  0.3929
   20MOL0     C 2556   8.105   6.997   1.264  1.1627  0.5193 -0.7266
   20MOL0     C 2557   8.193   7.112   1.283 -0.1734  0.8203  0.1242
   20MOL0     N 2558   8.480   7.741   1.904  0.5800 -0.4450 -0.0971
   20MOL0     N 2559   8.426   7.834   1.976 -0.6452 -0.3489  0.4862
   20MOL0     C 2560   8.355   7.974   3.179  0.1725 -0.6973 -0.0048
   20MOL0     C 2561   8.458   8.045   3.254 -0.5195 -1.1603  0.7983
   20MOL0     C 2562   8.731   8.304   3.462 -0.5142  0.2703  0.3920
   20MOL0     C 2563   8.787   8.303   3.592 -0.1397  0.1653 -0.7076
   20MOL0     C 2564   8.856   8.420   3.640 -0.5816  0.5384  0.1829
   20MOL0     C 2565   8.865   8.537   3.561 -0.2986  0.7781  0.2269
   20MOL0     O 2566   8.947   8.635   3.613  0.2443  0.2041  0.3041
   20MOL0     C 2567   8.902   8.772   3.589  0.1165 -0.3294  0.1713
   20MOL0     C 2568   8.832   8.815   3.713 -0.0516  0.8719  0.2150
   20MOL0     C 2569   8.770   8.945   3.699 -0.4990 -0.2970 -0.4251
   20MOL0     C 2570   8.717   8.979   3.841  0.2722 -0.2662 -0.0909
   20MOL0     C 2571   8.684   9.120   3.848  0.1624  0.2571 -0.4841
   20MOL0     C 2572   8.650   9.223   3.892 -0.6240  0.2349 -0.3802
   20MOL0     C 2573   8.824   8.527   3.434  0.5068  0.5826  0.1868
   20MOL0     C 2574   8.749   8.419   3.387 -0.6023  0.1694  0.0113
   20MOL0     H 2575   8.605   8.188   2.982 -1.6621 -1.7226 -2.2656
   20MOL0     H 2576   8.447   8.060   2.859 -2.7228 -2.8199 -0.4746
   20MOL0     H 2577   8.321   7.893   2.793  0.9587 -0.9801  2.4053
   20MOL0     H 2578   8.193   8.013   2.815 -2.2746 -0.9026 -2.7050
   20MOL0     H 2579   8.048   7.807   2.861 -3.0306 -0.2601 -3.4855
   20MOL0     H 2580   8.167   7.716   2.788 -2.5740 -0.7687 -0.0571
   20MOL0     H 2581   8.054   7.971   2.661  1.7211  0.0281  1.7502
   20MOL0     H 2582   7.973   7.820   2.636 -0.8964 -0.7967  0.7377
   20MOL0     H 2583   8.236   7.911   2.547 -0.3651 -1.1732  0.1176
   20MOL0     H 2584   8.202   7.734   2.566  0.9758  0.7137  1.2024
   20MOL0     H 2585   8.015   7.907   2.410  0.1736 -0.3314  4.0711
   20MOL0     H 2586   8.067   7.739   2.377 -1.1886  0.5030  1.8197
   20MOL0     H 2587   8.276   7.803   2.271 -0.9045 -0.9724  0.6423
   20MOL0     H 2588   8.246   7.975   2.319 -3.7451  2.0106  0.5014
   20MOL0     H 2589   8.065   7.778   2.157  0.8203 -0.0725 -2.2197
   20MOL0     H 2590   8.034   7.952   2.193 -0.6640 -1.3063  1.6676
   20MOL0     H 2591   8.256   7.995   2.087 -0.1144  1.2696 -1.4527
   20MOL0     H 2592   8.123   7.953   1.965 -0.2742  0.7408  0.5360
   20MOL0     H 2593   8.161   7.659   1.936 -1.2800  3.2499  0.6621
   20MOL0     H 2594   8.277   7.485   1.802 -2.1072  3.0522  3.5814
   20MOL0     H 2595   8.462   7.501   1.768  2.6141  4.2903 -1.8655
   20MOL0     H 2596   8.425   7.658   1.609  2.1905 -2.0120  0.7833
   20MOL0     H 2597   8.249   7.616   1.604  0.3366  0.5025 -1.5701
   20MOL0     H 2598   8.371   7.511   1.435  2.3773  0.1937 -1.1596
   20MOL0     H 2599   8.494   7.459   1.537 -1.2533 -0.6673 -0.3654
   20MOL0     H 2600   8.217   7.337   1.593 -0.0212 -1.9364  1.0604
   20MOL0     H 2601   8.374   7.268   1.606 -2.1868  0.2513  1.2918
   20MOL0     H 2602   8.195   7.115   1.629  0.6088  1.6541 -0.5127
   20MOL0     H 2603   8.073   6.918   1.602 -1.6039 -1.6985 -1.2841
   20MOL0     H 2604   7.922   6.525   1.385 -1.8528 -1.2665  0.9898
   20MOL0     H 2605   7.860   6.330   1.272 -1.6009  0.1166 -0.3999
   20MOL0     H 2606   7.690   6.192   1.156 -1.0124 -1.6787 -0.5289
   20MOL0     H 2607   7.861   6.170   1.116 -0.0537  0.2208 -0.5141
   20MOL0     H 2608   7.611   6.128   0.930 -0.3643  2.1627  1.8319
   20MOL0     H 2609   7.667   6.003   1.020 -0.2194 -0.4773 -0.6628
   20MOL0     H 2610   7.854   6.125   0.825  1.8819 -1.4783 -2.2103
   20MOL0     H 2611   7.749   5.975   0.793  2.6008 -1.3049 -0.5310
   20MOL0     H 2612   7.982   5.982   0.988  1.6540 -1.2819  0.3394
   20MOL0     H 2613   7.852   5.858   0.978 -3.6457  1.5417 -1.7115
   20MOL0     H 2614   7.995   5.941   0.726  2.4555  0.3397  0.7509
   20MOL0     H 2615   7.920   5.784   0.748  1.7820 -0.9588  0.2276
   20MOL0     H 2616   8.094   5.719   0.901 -0.5373  0.0619  0.8368
   20MOL0     H 2617   8.175   5.869   0.890  0.2635  0.1724 -1.8874
   20MOL0     H 2618   8.259   5.665   0.746 -1.5051 -0.0743 -0.0475
   20MOL0     H 2619   8.108   5.678   0.656 -1.2886 -3.1600  2.7863
   20MOL0     H 2620   8.354   5.859   0.670  0.3475 -1.1755  0.1144
   20MOL0     H 2621   8.202   5.923   0.614  0.7944  0.4703 -0.4504
   20MOL0     H 2622   7.737   6.538   0.919 -1.0833 -1.4257 -0.1035
   20MOL0     H 2623   7.844   6.742   1.007  0.8859 -2.0928 -3.8352
   20MOL0     H 2624   8.085   6.961   1.164  3.9859  0.5189 -1.3969
   20MOL0     H 2625   8.229   7.165   1.196 -1.2664  1.0544 -0.1923
   20MOL0     H 2626   8.282   7.913   3.231 -1.3366 -0.3716 -1.6605
   20MOL0     H 2627   8.458   8.030   3.362 -1.2257 -3.0473  0.5827
   20MOL0     H 2628   8.767   8.216   3.655 -1.4873  0.8565 -0.1444
   20MOL0     H 2629   8.899   8.434   3.739  0.8376 -0.8346 -0.2091
   20MOL0     H 2630   8.837   8.773   3.501  1.4780 -0.0333 -0.8732
   20MOL0     H 2631   8.988   8.827   3.549 -0.4782  0.0719 -0.5789
   20MOL0     H 2632   8.753   8.744   3.739 -0.6892  2.5260  3.3398
   20MOL0     H 2633   8.910   8.814   3.790 -0.4965  2.1483  0.7176
   20MOL0     H 2634   8.694   8.959   3.621  1.7620  0.9127 -2.5706
   20MOL0     H 2635   8.858   9.006   3.676 -0.9861  0.5885 -0.0042
   20MOL0     H 2636   8.617   8.940   3.859 -1.3983  2.5979 -2.2314
   20MOL0     H 2637   8.789   8.953   3.919 -1.4950 -0.8480  1.4079
   20MOL0     H 2638   8.623   9.319   3.931  1.5695  0.0994  1.7774
   20MOL0     H 2639   8.832   8.611   3.365 -0.2819 -1.3338 -2.3904
   20MOL0     H 2640   8.719   8.420   3.282  1.8567 -1.7159 -0.8006
   21MOL0     O 2641   8.752   7.748   4.650  0.5759 -0.3087 -0.2493
   21MOL0     C 2642   8.849   7.783   4.587  0.1281 -0.1756  0.3581
   21MOL0     O 2643   8.946   7.857   4.645  0.7245 -0.6867  0.1988
   21MOL0     C 2644   8.961   7.871   4.783 -1.5241 -0.0026  0.7986
   21MOL0     C 2645   9.065   7.799   4.839  0.1555  0.0642 -0.6696
   21MOL0     C 2646   9.066   7.798   4.979  0.6184  0.3071 -1.4609
   21MOL0     C 2647   8.978   7.879   5.054  0.8985  0.7625  0.1677
   21MOL0     O 2648   8.980   7.894   5.189 -0.7226  1.1876  0.0235
   21MOL0     C 2649   8.868   7.836   5.258  0.7380  0.6515 -0.2087
   21MOL0     C 2650   8.921   7.761   5.379  0.3320 -0.0850  0.5168
   21MOL0     C 2651   9.039   7.674   5.355 -0.6953  0.0472  1.5416
   21MOL0     C 2652   9.082   7.605   5.486 -0.3399 -0.7901 -0.3172
   21MOL0     C 2653   9.172   7.488   5.455  0.2696  0.5440 -0.2267
   21MOL0     C 2654   9.280   7.467   5.571 -0.1216  0.0845  0.5094
   21MOL0     C 2655   9.393   7.576   5.585 -0.1588  1.4154  0.6310
   21MOL0     C 2656   9.472   7.577   5.711 -0.6854  1.3700  0.2858
   21MOL0     N 2657   9.390   7.644   5.816 -0.1132  0.2833 -0.1621
   21MOL0     C 2658   9.370   7.590   5.934  0.0258  0.2368  0.1685
   21MOL0     C 2659   9.334   7.700   6.001 -0.0630  0.5834  0.1671
   21MOL0     C 2660   9.280   7.702   6.135  0.1855  0.0265 -0.3605
   21MOL0     C 2661   9.126   7.705   6.143 -0.6045 -0.0331  0.0083
   21MOL0     C 2662   9.057   7.572   6.155 -0.3059 -0.3884 -0.3669
   21MOL0     C 2663   9.079   7.505   6.284  0.8008  0.8732 -0.0800
   21MOL0     O 2664   9.010   7.583   6.384  0.4343 -0.4120  0.2345
   21MOL0     C 2665   8.945   7.511   6.475 -0.7516  1.3216 -0.5255
   21MOL0     C 2666   8.839   7.430   6.436  0.4796  1.2048  0.5779
   21MOL0     C 2667   8.762   7.355   6.529  0.3866 -0.3566  0.8543
   21MOL0     C 2668   8.795   7.362   6.664 -0.4265 -0.3692 -0.8309
   21MOL0     C 2669   8.706   7.291   6.764 -0.9760  0.1710 -0.7008
   21MOL0     O 2670   8.725   7.311   6.899  0.9313  0.0967 -0.0913
   21MOL0     C 2671   8.652   7.253   6.999  0.1429  0.1100 -0.3421
   21MOL0     C 2672   8.517   7.234   6.997  0.6615  0.0062 -1.2492
   21MOL0     C 2673   8.446   7.195   7.113  0.2467  0.0911  0.4509
   21MOL0     C 2674   8.517   7.154   7.226 -1.0319  0.0414 -1.4888
   21MOL0     O 2675   8.449   7.131   7.341 -1.2402 -0.3509  0.4045
   21MOL0     C 2676   8.379   7.250   7.384 -0.8606  0.3313 -0.3549
   21MOL0     C 2677   8.407   7.269   7.536  0.9366 -0.6311  0.1193
   21MOL0     C 2678   8.553   7.294   7.556  0.4173 -0.0600 -0.2313
   21MOL0     C 2679   8.578   7.369   7.688 -1.2708  0.4418  0.2533
   21MOL0     C 2680   8.730   7.350   7.738 -0.4794  0.4203  0.0517
   21MOL0     C 2681   8.747   7.208   7.783  0.1737  0.2111  0.4352
   21MOL0     C 2682   8.888   7.184   7.844  0.1337  0.0048  0.3081
   21MOL0     C 2683   8.907   7.243   7.985  0.1494 -1.0254 -0.0600
   21MOL0    Cl 2684   9.023   7.138   8.076  0.2683  0.5249  0.0614
   21MOL0     C 2685   8.649   7.164   7.240 -0.4604 -0.5398  1.0904
   21MOL0     C 2686   8.722   7.211   7.119 -0.9587  0.4368  0.3618
   21MOL0     O 2687   8.639   7.197   6.710 -0.3128  0.7031  0.7040
   21MOL0     C 2688   8.909   7.427   6.699 -1.5396  0.2561  0.6053
   21MOL0     C 2689   8.980   7.504   6.608 -0.1725  0.2543 -0.2859
   21MOL0     N 2690   9.336   7.820   5.932  0.0619  0.2489  0.1857
   21MOL0     N 2691   9.376   7.774   5.815  0.2918 -0.4764 -0.6194
   21MOL0     C 2692   8.881   7.953   4.993 -0.0245 -0.1512 -0.2726
   21MOL0     C 2693   8.871   7.945   4.857  0.3754  0.7235  0.3532
   21MOL0     C 2694   8.855   7.740   4.447  0.4020  0.4144  0.7226
   21MOL0     C 2695   8.963   7.768   4.366  0.1868 -0.4851  0.1697
   21MOL0     C 2696   8.974   7.740   4.228  0.1791 -0.3116  0.2932
   21MOL0     C 2697   8.859   7.685   4.172 -0.2251  0.1390  0.3397
   21MOL0     O 2698   8.868   7.656   4.035  0.5013 -0.3200  0.3900
   21MOL0     C 2699   8.763   7.608   3.956  0.5470 -0.0998  0.3226
   21MOL0     C 2700   8.815   7.575   3.819  0.2334  0.2164  0.2097
   21MOL0     C 2701   8.693   7.527   3.729  0.6150 -0.2015  0.7356
   21MOL0     C 2702   8.728   7.543   3.575 -1.3081  1.2429  0.2758
   21MOL0     C 2703   8.721   7.687   3.536  0.5834  0.5175  0.8992
   21MOL0     C 2704   8.704   7.796   3.492  0.4266  0.2625  1.1785
   21MOL0     C 2705   8.751   7.658   4.253  1.3879  0.6887 -0.0800
   21MOL0     C 2706   8.745   7.682   4.388  0.1830  0.0687 -0.1353
   21MOL0     H 2707   9.117   7.727   4.777 -0.0331 -0.0601 -0.6842
   21MOL0     H 2708   9.138   7.737   5.033  1.1862  1.6377 -0.6547
   21MOL0     H 2709   8.806   7.770   5.197 -1.7758  2.2788  0.4615
   21MOL0     H 2710   8.808   7.916   5.300  0.6402 -0.3167  1.6085
   21MOL0     H 2711   8.841   7.699   5.422 -0.6030  1.0474  0.4620
   21MOL0     H 2712   8.953   7.835   5.452 -0.4262  0.2430  0.5202
   21MOL0     H 2713   9.132   7.721   5.321 -0.8011 -0.9929 -0.3303
   21MOL0     H 2714   8.999   7.597   5.288 -1.2158  0.7556  1.0207
   21MOL0     H 2715   9.119   7.690   5.544 -5.1601  1.2352  0.2519
   21MOL0     H 2716   8.994   7.567   5.540 -0.3470 -0.5727 -0.1728
   21MOL0     H 2717   9.220   7.518   5.361 -2.2937  0.8628 -1.5197
   21MOL0     H 2718   9.123   7.395   5.425 -2.3159  1.3985  1.0649
   21MOL0     H 2719   9.329   7.369   5.569 -0.5265 -0.1815 -2.9384
   21MOL0     H 2720   9.224   7.485   5.664 -0.4574  0.6639  0.1987
   21MOL0     H 2721   9.456   7.556   5.497 -1.6945  0.0081 -0.1974
   21MOL0     H 2722   9.342   7.672   5.579 -1.8511  0.7025  2.6261
   21MOL0     H 2723   9.558   7.643   5.697  0.6715 -0.2164  0.8670
   21MOL0     H 2724   9.513   7.481   5.743 -0.2640  1.3469 -0.3210
   21MOL0     H 2725   9.366   7.486   5.965 -0.8956 -0.4316 -1.9646
   21MOL0     H 2726   9.304   7.797   6.183 -2.5007  1.2296 -1.2253
   21MOL0     H 2727   9.318   7.613   6.187 -1.4525 -1.3081 -1.3313
   21MOL0     H 2728   9.094   7.753   6.050  3.8157  0.5681 -1.4787
   21MOL0     H 2729   9.087   7.772   6.220 -7.2406  1.9697 -4.2731
   21MOL0     H 2730   8.949   7.584   6.145 -0.3045 -0.2832 -0.2683
   21MOL0     H 2731   9.101   7.508   6.078  4.9546  2.4238 -0.2113
   21MOL0     H 2732   9.186   7.491   6.302  0.4643 -0.0296  1.3106
   21MOL0     H 2733   9.036   7.405   6.277  1.8458  0.3782  0.2852
   21MOL0     H 2734   8.810   7.421   6.331  2.7049  2.8998 -0.2536
   21MOL0     H 2735   8.675   7.299   6.499  1.5012 -0.9417 -1.5141
   21MOL0     H 2736   8.452   7.260   6.914  0.1352  2.5180 -0.1079
   21MOL0     H 2737   8.339   7.213   7.104  0.7988  3.7490 -0.5946
   21MOL0     H 2738   8.270   7.238   7.382 -1.3509  3.6372 -3.8224
   21MOL0     H 2739   8.410   7.340   7.331 -1.1632  0.8612  0.3476
   21MOL0     H 2740   8.373   7.186   7.598  1.9180  0.4136  2.1812
   21MOL0     H 2741   8.351   7.359   7.565 -0.5274 -0.7699 -2.0492
   21MOL0     H 2742   8.597   7.374   7.495 -2.8179  0.5824 -1.9740
   21MOL0     H 2743   8.609   7.201   7.545 -0.5006 -0.6832  0.1790
   21MOL0     H 2744   8.558   7.475   7.671 -2.0332 -0.0838 -2.6249
   21MOL0     H 2745   8.523   7.337   7.777  0.6754  2.2666  2.2636
   21MOL0     H 2746   8.763   7.428   7.808 -0.3581  1.6767 -1.3568
   21MOL0     H 2747   8.791   7.367   7.649 -0.2888  0.5456  0.2048
   21MOL0     H 2748   8.736   7.142   7.696  2.7363  2.0339 -1.4293
   21MOL0     H 2749   8.671   7.191   7.860  2.1294  0.8001  2.5821
   21MOL0     H 2750   8.907   7.077   7.859 -2.8589 -0.1447  5.8351
   21MOL0     H 2751   8.966   7.221   7.778 -0.0925  0.8086  0.4800
   21MOL0     H 2752   8.818   7.239   8.048  2.1345 -3.2829  2.8950
   21MOL0     H 2753   8.950   7.343   7.979 -1.4121 -0.2149  1.3457
   21MOL0     H 2754   8.688   7.134   7.337 -0.8696 -0.7800  1.1846
   21MOL0     H 2755   8.829   7.228   7.115 -1.0749  0.9259 -1.3090
   21MOL0     H 2756   8.943   7.430   6.802 -1.1454 -1.6727  0.5556
   21MOL0     H 2757   9.064   7.550   6.657  0.5348  0.5005 -1.6782
   21MOL0     H 2758   8.812   8.005   5.059 -0.3129  1.3613 -1.7214
   21MOL0     H 2759   8.782   7.975   4.802  1.4124  0.7780 -1.3546
   21MOL0     H 2760   9.039   7.832   4.411  1.0153 -1.4568  0.1866
   21MOL0     H 2761   9.067   7.772   4.182  0.8832  4.8536  4.3032
   21MOL0     H 2762   8.688   7.687   3.947  1.4696  0.9879  1.6848
   21MOL0     H 2763   8.710   7.521   3.996 -1.0757  1.3655  1.4815
   21MOL0     H 2764   8.863   7.665   3.779  0.3013 -0.3135 -0.9491
   21MOL0     H 2765   8.890   7.495   3.828  0.4456  0.5330  1.3260
   21MOL0     H 2766   8.605   7.587   3.752  2.9857  3.9319 -0.0261
   21MOL0     H 2767   8.670   7.422   3.749 -0.1886  0.3675  3.0728
   21MOL0     H 2768   8.822   7.490   3.557 -2.5515 -1.5160  1.3409
   21MOL0     H 2769   8.665   7.484   3.508 -0.2445 -0.8561  1.0388
   21MOL0     H 2770   8.700   7.892   3.444 -3.1081 -0.8713 -1.1704
   21MOL0     H 2771   8.655   7.631   4.211  0.2201  1.5749  1.8639
   21MOL0     H 2772   8.656   7.665   4.447  0.1255  0.1203 -0.2083
   22MOL0     O 2773  11.018   2.854   6.265 -0.2897 -0.3267 -0.8146
   22MOL0     C 2774  10.909   2.885   6.218  0.4094 -0.6583  0.1625
   22MOL0     O 2775  10.882   2.906   6.085  0.0270  0.1151 -0.2325
   22MOL0     C 2776  10.970   2.891   5.987  0.5428 -0.2972 -0.1616
   22MOL0     C 2777  11.105   2.841   5.991 -0.3687  0.3012 -0.1124
   22MOL0     C 2778  11.185   2.828   5.877  0.5774  0.5821 -0.4662
   22MOL0     C 2779  11.140   2.886   5.755 -0.4133  0.5823  0.0327
   22MOL0     O 2780  11.224   2.883   5.646  0.0064  0.3913  0.6451
   22MOL0     C 2781  11.170   2.784   5.553  0.2077 -0.2964  0.1122
   22MOL0     C 2782  11.286   2.732   5.465  0.2130 -0.4006  0.6500
   22MOL0     C 2783  11.318   2.589   5.511  0.4633  0.1999  0.0236
   22MOL0     C 2784  11.437   2.538   5.429 -0.4336  0.4485 -0.2890
   22MOL0     C 2785  11.498   2.408   5.479  0.1397  0.0673  1.1372
   22MOL0     C 2786  11.610   2.327   5.402  0.3903 -0.3214 -0.5334
   22MOL0     C 2787  11.567   2.298   5.262  0.1423  0.6784 -0.7837
   22MOL0     C 2788  11.673   2.222   5.189  0.6604  0.5389  0.1688
   22MOL0     N 2789  11.783   2.309   5.151 -0.8557  0.5408 -0.1905
   22MOL0     C 2790  11.769   2.435   5.097  0.3537 -0.5256  0.2560
   22MOL0     C 2791  11.896   2.471   5.071 -0.2352  0.2918  0.4425
   22MOL0     C 2792  11.937   2.587   4.981 -0.9354  0.3229  0.2188
   22MOL0     C 2793  12.079   2.635   5.009 -0.0281  0.6836  0.6287
   22MOL0     C 2794  12.105   2.774   4.951  0.0468 -0.2655  0.0641
   22MOL0     C 2795  12.248   2.809   4.937  0.1041  0.1058  0.4768
   22MOL0     O 2796  12.308   2.791   5.062  0.3012 -0.2275 -0.5589
   22MOL0     C 2797  12.435   2.743   5.070  0.3157 -1.4659 -0.2520
   22MOL0     C 2798  12.524   2.727   4.962 -0.5588  0.9547  0.1338
   22MOL0     C 2799  12.649   2.669   4.988 -0.4066  0.2438  0.3595
   22MOL0     C 2800  12.696   2.631   5.118 -0.4026  0.0859  0.5664
   22MOL0     C 2801  12.832   2.578   5.154  0.2398 -0.0238 -0.2597
   22MOL0     O 2802  12.877   2.546   5.285 -1.5604 -0.1646  0.6707
   22MOL0     C 2803  12.987   2.463   5.317 -0.0188 -0.1583  0.0763
   22MOL0     C 2804  13.051   2.377   5.222 -0.2583  0.0207  0.2402
   22MOL0     C 2805  13.150   2.278   5.266  1.0765 -0.3730  0.6121
   22MOL0     C 2806  13.199   2.274   5.395  0.9296  0.5366  1.1266
   22MOL0     O 2807  13.297   2.181   5.419  0.3872  0.0658 -0.5523
   22MOL0     C 2808  13.365   2.197   5.534 -0.1894 -0.6172 -0.0461
   22MOL0     C 2809  13.471   2.087   5.550  0.3439 -0.5554 -0.3131
   22MOL0     C 2810  13.589   2.083   5.456  0.5940  0.2183 -0.5680
   22MOL0     C 2811  13.697   1.973   5.473  0.1937 -0.3545  0.4746
   22MOL0     C 2812  13.640   1.828   5.448  0.4545 -0.3559  0.3707
   22MOL0     C 2813  13.751   1.724   5.445  0.0614  0.0439 -0.7565
   22MOL0     C 2814  13.698   1.588   5.411  0.0946  0.3952 -0.5765
   22MOL0     C 2815  13.822   1.501   5.393  0.1507 -0.8716  0.7086
   22MOL0    Cl 2816  13.893   1.485   5.545 -0.0133 -0.2138 -0.1267
   22MOL0     C 2817  13.135   2.354   5.487 -0.3935 -0.8468 -0.5505
   22MOL0     C 2818  13.031   2.443   5.452  0.3856 -0.7516  0.0261
   22MOL0     O 2819  12.893   2.562   5.049 -0.3853  0.0924 -0.5212
   22MOL0     C 2820  12.609   2.655   5.226 -0.0667 -0.1765 -0.6780
   22MOL0     C 2821  12.484   2.713   5.202  1.0096 -0.1980  0.3788
   22MOL0     N 2822  11.984   2.377   5.129  0.5702  0.0660  0.0064
   22MOL0     N 2823  11.914   2.283   5.175  0.7490  0.0573 -0.5819
   22MOL0     C 2824  11.012   2.942   5.752  0.2656 -0.6040 -0.6315
   22MOL0     C 2825  10.925   2.947   5.864 -0.6663  0.0244 -0.0838
   22MOL0     C 2826  10.792   2.909   6.298  0.0160  0.0770 -0.4819
   22MOL0     C 2827  10.666   2.940   6.238 -0.3371  0.1468  0.3725
   22MOL0     C 2828  10.565   2.988   6.326 -0.6229 -0.6054 -0.3174
   22MOL0     C 2829  10.578   2.975   6.464 -0.7775  1.2541 -0.9708
   22MOL0     O 2830  10.474   2.992   6.550 -0.3404  0.0315 -0.4683
   22MOL0     C 2831  10.404   2.862   6.577 -0.1608 -0.8864  0.4296
   22MOL0     C 2832  10.271   2.895   6.638 -0.4463 -0.3631  0.1213
   22MOL0     C 2833  10.185   2.785   6.677 -0.7131  0.3714  0.5277
   22MOL0     C 2834  10.142   2.692   6.570  0.8731 -0.0415 -0.1071
   22MOL0     C 2835  10.050   2.770   6.484 -0.2885  1.1465 -0.0624
   22MOL0     C 2836   9.990   2.846   6.421  0.2491  0.1879  0.6569
   22MOL0     C 2837  10.707   2.947   6.518  0.1743 -0.1777 -0.2666
   22MOL0     C 2838  10.811   2.902   6.438  0.4308 -0.5488 -0.6723
   22MOL0     H 2839  11.148   2.797   6.081 -2.1621 -0.1987  0.5450
   22MOL0     H 2840  11.282   2.780   5.869 -0.6613 -1.9447 -1.5626
   22MOL0     H 2841  11.090   2.828   5.492  0.1657 -2.5726 -1.6083
   22MOL0     H 2842  11.126   2.703   5.611  3.5196 -1.0156  1.8616
   22MOL0     H 2843  11.373   2.796   5.484 -0.7855  0.4500  2.6782
   22MOL0     H 2844  11.256   2.744   5.361 -2.4823 -1.2717  1.2469
   22MOL0     H 2845  11.228   2.530   5.490  1.9034 -2.8149  1.7092
   22MOL0     H 2846  11.336   2.575   5.618  2.4288 -2.6427 -0.5427
   22MOL0     H 2847  11.399   2.519   5.328  1.3985 -1.1301 -0.7504
   22MOL0     H 2848  11.514   2.616   5.428 -0.3063  0.3345 -1.4073
   22MOL0     H 2849  11.419   2.333   5.488  0.5086 -0.4717  0.1511
   22MOL0     H 2850  11.542   2.423   5.578  1.2229  1.9124  0.4331
   22MOL0     H 2851  11.619   2.238   5.464 -2.1827 -0.8212 -0.7460
   22MOL0     H 2852  11.706   2.380   5.400 -0.1625  0.6887 -1.4609
   22MOL0     H 2853  11.476   2.238   5.267  0.2246  0.6581  2.6290
   22MOL0     H 2854  11.541   2.389   5.207 -0.9388  0.7000 -0.2702
   22MOL0     H 2855  11.620   2.187   5.100  1.5482  2.3960 -1.1379
   22MOL0     H 2856  11.707   2.134   5.244 -0.0556  0.9096  1.2337
   22MOL0     H 2857  11.683   2.488   5.057  0.6883  2.5285  3.0711
   22MOL0     H 2858  11.866   2.668   4.997 -2.9857 -1.6107  1.6160
   22MOL0     H 2859  11.928   2.555   4.877  1.3207  0.6004 -0.1186
   22MOL0     H 2860  12.139   2.567   4.948  1.4096  0.5985  2.0878
   22MOL0     H 2861  12.114   2.623   5.111 -0.7307 -1.0481  0.6959
   22MOL0     H 2862  12.049   2.783   4.858 -0.4316 -0.5552  0.3156
   22MOL0     H 2863  12.063   2.845   5.023 -1.7736  0.2077 -1.3796
   22MOL0     H 2864  12.259   2.908   4.892  3.3741 -1.3689 -2.4691
   22MOL0     H 2865  12.287   2.736   4.865  1.0459  0.4360  0.6446
   22MOL0     H 2866  12.498   2.752   4.859 -0.3153  1.1622  0.1227
   22MOL0     H 2867  12.696   2.655   4.891 -1.6742 -2.9034  0.0925
   22MOL0     H 2868  13.027   2.383   5.116  1.4982 -2.0163 -0.3418
   22MOL0     H 2869  13.199   2.208   5.199 -0.6967 -0.9861 -0.1281
   22MOL0     H 2870  13.299   2.193   5.621 -0.9024  0.5991 -0.5178
   22MOL0     H 2871  13.416   2.293   5.535 -0.4902 -0.4581  0.2014
   22MOL0     H 2872  13.419   1.990   5.551  2.6257 -1.8724  2.3167
   22MOL0     H 2873  13.513   2.115   5.647 -0.1488  1.8509 -0.7331
   22MOL0     H 2874  13.642   2.178   5.473 -0.4099  0.4077  1.8782
   22MOL0     H 2875  13.561   2.077   5.351 -1.6748 -1.0722  0.0507
   22MOL0     H 2876  13.777   1.987   5.400 -0.1283  4.9336  0.7780
   22MOL0     H 2877  13.740   1.976   5.574 -1.8855 -0.9862  1.4308
   22MOL0     H 2878  13.586   1.832   5.353  1.6525  1.3228 -0.3134
   22MOL0     H 2879  13.563   1.805   5.522 -1.4067  1.3818 -0.9157
   22MOL0     H 2880  13.809   1.731   5.537 -1.5998  1.6772  0.2351
   22MOL0     H 2881  13.814   1.761   5.364  1.2888  0.2497  0.2666
   22MOL0     H 2882  13.635   1.542   5.488  1.7651 -0.4957  0.3127
   22MOL0     H 2883  13.646   1.582   5.315  0.3380  2.4216 -0.8819
   22MOL0     H 2884  13.888   1.541   5.315 -0.4762 -0.4226  0.4001
   22MOL0     H 2885  13.797   1.400   5.360 -1.3223 -0.7077  1.2541
   22MOL0     H 2886  13.166   2.357   5.591 -0.1423 -0.8407 -0.6252
   22MOL0     H 2887  12.973   2.500   5.524  1.7509  3.1207 -1.6503
   22MOL0     H 2888  12.645   2.648   5.328  0.9443 -2.2963 -1.1062
   22MOL0     H 2889  12.423   2.738   5.289  0.2150  1.1072 -0.5148
   22MOL0     H 2890  10.979   2.975   5.654  0.0002 -4.6696 -2.0962
   22MOL0     H 2891  10.834   3.006   5.857  0.7765  2.4571  0.3327
   22MOL0     H 2892  10.638   2.923   6.134 -0.2412  2.3671 -0.0537
   22MOL0     H 2893  10.472   3.013   6.276  0.2761  1.3098 -1.1577
   22MOL0     H 2894  10.460   2.789   6.637 -2.3191 -2.0932  1.0846
   22MOL0     H 2895  10.372   2.820   6.481 -3.3613  0.8420  0.6044
   22MOL0     H 2896  10.286   2.955   6.728 -0.7208 -0.1315  0.0145
   22MOL0     H 2897  10.225   2.966   6.569 -2.0778 -0.9960  0.5143
   22MOL0     H 2898  10.100   2.810   6.740 -0.6974  1.2363  0.2194
   22MOL0     H 2899  10.260   2.727   6.732  0.1121 -0.0019 -0.9358
   22MOL0     H 2900  10.227   2.648   6.517  1.9491  2.6428 -0.7654
   22MOL0     H 2901  10.085   2.616   6.623  1.3898  0.4926  1.2395
   22MOL0     H 2902   9.947   2.924   6.361 -2.4760 -1.2220  0.6447
   22MOL0     H 2903  10.714   2.943   6.626  2.2742  1.8544 -0.2548
   22MOL0     H 2904  10.904   2.872   6.484  2.8525 -0.3007 -4.8774
   23MOL0     O 2905   9.794   7.519   5.163  0.2909  0.1284 -0.1925
   23MOL0     C 2906   9.803   7.594   5.262 -0.7675 -0.2901  0.0046
   23MOL0     O 2907   9.921   7.602   5.337 -0.6287 -0.1299 -0.9982
   23MOL0     C 2908  10.036   7.534   5.289  0.5140  0.2275 -0.4220
   23MOL0     C 2909  10.041   7.394   5.281  0.4955 -0.8040  0.3429
   23MOL0     C 2910  10.156   7.335   5.232  0.0519 -0.9049 -0.5131
   23MOL0     C 2911  10.261   7.413   5.197  0.4996 -0.0267  0.0635
   23MOL0     O 2912  10.369   7.342   5.144  0.1429  0.4276 -0.2250
   23MOL0     C 2913  10.499   7.409   5.132  0.2205 -0.3286  0.2911
   23MOL0     C 2914  10.609   7.312   5.071  0.5975  0.1693  0.2619
   23MOL0     C 2915  10.750   7.379   5.048 -0.0832 -0.1192  0.0936
   23MOL0     C 2916  10.755   7.505   4.969 -0.1670 -0.4528  0.1860
   23MOL0     C 2917  10.883   7.588   4.980 -0.1104 -0.7399 -0.0544
   23MOL0     C 2918  10.999   7.511   4.915  0.7702  0.4237  0.7554
   23MOL0     C 2919  11.126   7.592   4.892 -0.1451  0.7460  0.3036
   23MOL0     C 2920  11.115   7.706   4.791 -0.0681 -0.5241 -0.2602
   23MOL0     N 2921  11.223   7.805   4.813  1.0061  0.6219 -0.3238
   23MOL0     C 2922  11.206   7.932   4.871  0.0917 -0.0364 -0.1114
   23MOL0     C 2923  11.334   7.988   4.890  0.8619  0.9352 -0.1378
   23MOL0     C 2924  11.371   8.101   4.966 -0.7288 -0.6231  0.2760
   23MOL0     C 2925  11.470   8.196   4.895 -0.3201  0.3831  0.7165
   23MOL0     C 2926  11.493   8.320   4.977 -0.1875 -1.4905 -0.2144
   23MOL0     C 2927  11.615   8.415   4.939  0.0759  1.1543 -1.0863
   23MOL0     O 2928  11.627   8.519   5.030 -0.5248 -0.7728  0.5419
   23MOL0     C 2929  11.740   8.602   5.012 -0.8307  0.1100  0.7682
   23MOL0     C 2930  11.855   8.575   4.932 -0.9394 -0.1031 -0.4994
   23MOL0     C 2931  11.984   8.647   4.945  0.0807  0.4757  0.1254
   23MOL0     C 2932  11.997   8.744   5.046 -0.1248  0.4858 -0.0807
   23MOL0     C 2933  12.128   8.821   5.075  0.8419  0.0420 -0.5693
   23MOL0     O 2934  12.121   8.918   5.177 -0.3334  0.2183 -0.0340
   23MOL0     C 2935  12.234   8.987   5.212 -0.1992  0.1899  0.5406
   23MOL0     C 2936  12.354   9.018   5.145  0.5892 -0.6791  0.1484
   23MOL0     C 2937  12.448   9.099   5.211 -1.2767 -0.5326  0.1581
   23MOL0     C 2938  12.423   9.162   5.330 -0.6234 -0.5288 -0.1652
   23MOL0     O 2939  12.507   9.251   5.395 -0.4495  0.0656  0.3638
   23MOL0     C 2940  12.529   9.367   5.320 -0.4152  0.1615  0.1785
   23MOL0     C 2941  12.618   9.472   5.389  0.5108  0.2728 -0.6933
   23MOL0     C 2942  12.771   9.436   5.395 -0.1911  0.9211  0.4548
   23MOL0     C 2943  12.854   9.548   5.462  1.3550  0.9792 -0.1518
   23MOL0     C 2944  13.002   9.516   5.428 -0.1004  0.3119  0.3196
   23MOL0     C 2945  13.093   9.631   5.466 -0.7953 -2.0010  0.4044
   23MOL0     C 2946  13.250   9.615   5.433  0.3825  0.3546 -0.0915
   23MOL0     C 2947  13.340   9.717   5.507 -0.2378 -0.2305  0.1860
   23MOL0    Cl 2948  13.509   9.661   5.502  0.6708 -0.1723  0.0759
   23MOL0     C 2949  12.301   9.134   5.387 -0.2007 -0.6833 -0.5893
   23MOL0     C 2950  12.204   9.052   5.333 -0.5695 -0.1509  0.3237
   23MOL0     O 2951  12.223   8.788   5.010 -0.0200  0.0868 -0.2687
   23MOL0     C 2952  11.881   8.782   5.116  0.4665 -0.0741 -0.7325
   23MOL0     C 2953  11.758   8.717   5.095  0.6121  0.0001  1.0914
   23MOL0     N 2954  11.424   7.907   4.821  0.1943 -0.3758 -0.2279
   23MOL0     N 2955  11.349   7.801   4.777 -0.3203  0.2317 -0.7722
   23MOL0     C 2956  10.258   7.555   5.217 -0.1810  0.2623 -0.4322
   23MOL0     C 2957  10.143   7.614   5.263  0.2857  1.3187  0.1513
   23MOL0     C 2958   9.694   7.692   5.304 -0.4908 -0.2059  0.1490
   23MOL0     C 2959   9.704   7.766   5.431 -0.7361 -0.5449  0.4240
   23MOL0     C 2960   9.610   7.861   5.461 -0.5678 -0.6810  0.3856
   23MOL0     C 2961   9.493   7.880   5.385 -0.2651  0.0912  0.6752
   23MOL0     O 2962   9.387   7.961   5.419  0.2529 -0.0471 -1.3146
   23MOL0     C 2963   9.377   8.007   5.554  0.1166  0.0217  1.3248
   23MOL0     C 2964   9.225   8.045   5.587  0.1968  0.0452  0.2830
   23MOL0     C 2965   9.180   8.178   5.520  0.1703  1.0811  0.0200
   23MOL0     C 2966   9.272   8.303   5.539  0.1485 -0.1586 -0.5615
   23MOL0     C 2967   9.329   8.340   5.669  1.2072 -0.1659 -0.5710
   23MOL0     C 2968   9.384   8.384   5.762 -0.6412  0.1956 -0.6025
   23MOL0     C 2969   9.488   7.813   5.262 -1.1737  0.2774  0.6190
   23MOL0     C 2970   9.581   7.717   5.223 -0.3059  0.2164 -0.4795
   23MOL0     H 2971   9.960   7.330   5.314  0.2522  0.5372  2.5607
   23MOL0     H 2972  10.161   7.227   5.234  3.3772 -0.8763 -1.0859
   23MOL0     H 2973  10.536   7.444   5.229 -1.7520 -2.5469  1.9375
   23MOL0     H 2974  10.483   7.487   5.057  1.9884 -1.2264 -1.0953
   23MOL0     H 2975  10.578   7.286   4.970  5.5645  0.1856 -1.5620
   23MOL0     H 2976  10.611   7.230   5.143 -3.6049 -1.1482 -0.8481
   23MOL0     H 2977  10.807   7.300   4.999 -0.8421 -0.9633  0.5433
   23MOL0     H 2978  10.802   7.399   5.143  1.6073 -2.7432 -0.1773
   23MOL0     H 2979  10.747   7.483   4.862  0.5820 -0.3996  0.1082
   23MOL0     H 2980  10.682   7.580   5.000  0.0088  0.5035 -1.6214
   23MOL0     H 2981  10.903   7.599   5.087 -0.4859  1.8392 -0.1828
   23MOL0     H 2982  10.862   7.691   4.950  0.8976 -0.0587  1.4578
   23MOL0     H 2983  10.968   7.463   4.822  0.9011  0.5116  0.6665
   23MOL0     H 2984  11.022   7.424   4.977 -0.8786 -0.8249 -0.3069
   23MOL0     H 2985  11.170   7.618   4.989  0.1890 -2.0559  1.0006
   23MOL0     H 2986  11.187   7.517   4.840 -3.0013 -1.4599 -0.1159
   23MOL0     H 2987  11.016   7.751   4.801 -0.8141 -2.0997 -0.1648
   23MOL0     H 2988  11.116   7.663   4.690 -1.2373 -1.0485 -0.0665
   23MOL0     H 2989  11.113   7.968   4.915 -0.1000 -1.1547  0.4105
   23MOL0     H 2990  11.416   8.063   5.059  0.3248 -0.6795 -0.2418
   23MOL0     H 2991  11.288   8.167   4.994 -2.2123 -1.2535 -2.3976
   23MOL0     H 2992  11.427   8.204   4.795  3.1993  2.7461 -0.8058
   23MOL0     H 2993  11.560   8.134   4.898 -0.6347 -0.3000 -1.8245
   23MOL0     H 2994  11.409   8.390   4.978 -1.3243 -2.7759  1.8845
   23MOL0     H 2995  11.504   8.281   5.078  0.4310 -1.3162 -0.2093
   23MOL0     H 2996  11.602   8.470   4.846  1.8704  2.8271 -0.4123
   23MOL0     H 2997  11.709   8.360   4.934 -0.3630  0.5148 -2.9644
   23MOL0     H 2998  11.861   8.489   4.866 -1.6378  0.0161 -0.7266
   23MOL0     H 2999  12.064   8.611   4.881 -1.2015  1.4568 -2.1640
   23MOL0     H 3000  12.389   8.968   5.055  2.1936 -2.2629  1.5824
   23MOL0     H 3001  12.540   9.117   5.156 -1.2444 -1.1822 -0.0073
   23MOL0     H 3002  12.433   9.417   5.310  0.3953  1.8107  0.3133
   23MOL0     H 3003  12.568   9.343   5.221 -0.3923  0.1550  0.1893
   23MOL0     H 3004  12.591   9.486   5.494 -1.7957  2.4905 -1.4889
   23MOL0     H 3005  12.595   9.573   5.353  0.1081  1.0135  1.4782
   23MOL0     H 3006  12.801   9.428   5.290  0.0335 -0.6539  0.6148
   23MOL0     H 3007  12.786   9.340   5.447 -0.9302 -1.5870 -3.5441
   23MOL0     H 3008  12.827   9.644   5.418  1.6584  0.3308 -1.8071
   23MOL0     H 3009  12.839   9.552   5.571 -0.1343 -0.3916 -0.2758
   23MOL0     H 3010  13.013   9.496   5.321  2.1725 -0.2984  0.6293
   23MOL0     H 3011  13.028   9.419   5.473  0.8682  0.4202  0.0127
   23MOL0     H 3012  13.091   9.646   5.574  2.5296 -0.1594  0.3336
   23MOL0     H 3013  13.058   9.721   5.413  0.2102 -0.9170  1.5091
   23MOL0     H 3014  13.293   9.520   5.465  2.7725  1.4994  0.3303
   23MOL0     H 3015  13.259   9.614   5.324  0.8849 -3.3367 -0.1150
   23MOL0     H 3016  13.306   9.734   5.610 -0.1304  1.6767 -0.0546
   23MOL0     H 3017  13.335   9.813   5.454 -0.3666 -1.2597 -1.7300
   23MOL0     H 3018  12.278   9.178   5.483 -1.1134 -1.7063 -0.3254
   23MOL0     H 3019  12.112   9.043   5.390  1.6840 -1.9621  4.0220
   23MOL0     H 3020  11.890   8.853   5.198  1.4175 -2.0752  0.9728
   23MOL0     H 3021  11.675   8.731   5.164 -1.8798 -1.2456 -1.4251
   23MOL0     H 3022  10.346   7.616   5.198  0.6479 -0.8252 -0.2139
   23MOL0     H 3023  10.115   7.716   5.288 -1.8448  0.2576  2.6668
   23MOL0     H 3024   9.791   7.749   5.493 -1.4761 -2.1347  1.0981
   23MOL0     H 3025   9.610   7.908   5.559 -2.2205  2.0150 -0.7793
   23MOL0     H 3026   9.434   8.096   5.583 -1.1142  1.0302  0.7164
   23MOL0     H 3027   9.406   7.921   5.616  0.1457  0.4433  1.9019
   23MOL0     H 3028   9.164   7.965   5.545 -1.5237  1.7623 -0.6248
   23MOL0     H 3029   9.208   8.062   5.694 -0.3418 -1.4411  0.4565
   23MOL0     H 3030   9.082   8.196   5.565  0.8975  1.9449  1.3136
   23MOL0     H 3031   9.162   8.168   5.413  1.6774  2.3028 -0.3855
   23MOL0     H 3032   9.350   8.303   5.462 -1.3576 -1.1937 -2.1580
   23MOL0     H 3033   9.212   8.390   5.513  1.2825  1.7203  2.5152
   23MOL0     H 3034   9.417   8.442   5.846 -0.3698 -2.2906  1.1004
   23MOL0     H 3035   9.407   7.835   5.193  1.4301  1.3373 -2.3555
   23MOL0     H 3036   9.568   7.684   5.121  1.0434  1.8262 -1.2227
   24MOL0     O 3037   5.847   2.483   3.618 -0.2170 -0.9796 -0.4303
   24MOL0     C 3038   5.781   2.505   3.719  0.0492 -0.4712 -0.2412
   24MOL0     O 3039   5.795   2.450   3.841  0.7181  0.0439  0.3370
   24MOL0     C 3040   5.854   2.330   3.846  0.9963 -0.4076 -0.6879
   24MOL0     C 3041   5.978   2.310   3.906  0.3222 -0.3815 -0.1176
   24MOL0     C 3042   6.041   2.182   3.899 -0.6361 -0.4136  0.2626
   24MOL0     C 3043   5.978   2.075   3.834 -0.2595  0.1273  1.0688
   24MOL0     O 3044   6.034   1.957   3.853 -0.4332  0.2804  0.3199
   24MOL0     C 3045   6.086   1.907   3.729  0.9712  0.0028 -0.3359
   24MOL0     C 3046   6.183   1.786   3.741  0.1980  0.6588  0.2883
   24MOL0     C 3047   6.310   1.816   3.828  0.0372 -0.2692 -0.4752
   24MOL0     C 3048   6.395   1.927   3.774  1.3225 -0.8090 -0.0034
   24MOL0     C 3049   6.518   1.945   3.864  0.1875 -0.2111  0.0692
   24MOL0     C 3050   6.603   2.057   3.808 -0.1578  0.2947  0.5872
   24MOL0     C 3051   6.694   2.033   3.683 -0.7503 -0.6566  0.9029
   24MOL0     C 3052   6.807   1.933   3.719 -0.6974  0.1763 -0.4009
   24MOL0     N 3053   6.903   1.911   3.616 -0.7391 -0.7153  1.0209
   24MOL0     C 3054   6.938   1.999   3.515  0.1726 -0.0296  0.3051
   24MOL0     C 3055   7.041   1.945   3.459 -0.4183 -0.6129 -0.6243
   24MOL0     C 3056   7.137   2.013   3.361  0.9110 -0.2391  0.3029
   24MOL0     C 3057   7.206   2.132   3.436  0.3400  0.6439 -0.5928
   24MOL0     C 3058   7.296   2.087   3.548 -0.3547 -0.0370 -0.4258
   24MOL0     C 3059   7.374   1.962   3.518  0.8323 -0.8313  0.5959
   24MOL0     O 3060   7.438   1.978   3.393 -0.8346 -0.0073  0.3407
   24MOL0     C 3061   7.568   2.024   3.376  0.2318  0.4746 -0.4887
   24MOL0     C 3062   7.644   2.094   3.470  0.2277 -0.8254  0.2084
   24MOL0     C 3063   7.769   2.135   3.431 -0.1345 -1.2975 -1.3573
   24MOL0     C 3064   7.837   2.085   3.320  0.3951 -0.0303 -0.7170
   24MOL0     C 3065   7.985   2.092   3.306 -1.1151  0.3650  0.0578
   24MOL0     O 3066   8.031   2.051   3.178 -0.6727 -0.5427  0.0607
   24MOL0     C 3067   8.156   2.031   3.160 -0.3210 -0.0798  0.7152
   24MOL0     C 3068   8.236   2.138   3.113  1.0723 -0.9290  0.6803
   24MOL0     C 3069   8.371   2.129   3.110  0.1852 -0.5374  0.1519
   24MOL0     C 3070   8.439   2.003   3.140  0.8168 -0.3860 -0.5200
   24MOL0     O 3071   8.572   1.990   3.121 -0.1578  0.2366 -0.5942
   24MOL0     C 3072   8.641   2.078   3.036  0.8554 -0.2557  0.2865
   24MOL0     C 3073   8.789   2.036   3.021 -0.1919  0.3620  0.3588
   24MOL0     C 3074   8.873   2.086   3.142  0.5883 -0.1294  0.2773
   24MOL0     C 3075   9.025   2.068   3.139 -0.1640  0.0063 -0.6419
   24MOL0     C 3076   9.073   2.040   3.287 -0.1150 -0.2767  0.5289
   24MOL0     C 3077   9.041   2.165   3.385  0.6126 -0.2302 -0.5594
   24MOL0     C 3078   9.020   2.124   3.525  1.1673 -1.2586 -0.5032
   24MOL0     C 3079   8.965   2.258   3.600 -0.5081  0.5798  0.9524
   24MOL0    Cl 3080   8.901   2.195   3.753 -0.3598 -0.5520 -0.0704
   24MOL0     C 3081   8.362   1.896   3.183 -0.6154 -0.1847  0.5339
   24MOL0     C 3082   8.224   1.919   3.198 -0.8178 -0.1890 -0.2764
   24MOL0     O 3083   8.070   2.127   3.392 -0.0128  0.3390 -0.0942
   24MOL0     C 3084   7.764   2.005   3.232 -0.1852 -0.5408 -0.3819
   24MOL0     C 3085   7.629   1.973   3.264  0.3729  0.4066 -0.2852
   24MOL0     N 3086   7.051   1.816   3.493  0.9505 -0.8678 -0.5344
   24MOL0     N 3087   6.973   1.801   3.588  0.0611  0.3654 -0.0364
   24MOL0     C 3088   5.857   2.095   3.768  0.6061  0.3639  0.2104
   24MOL0     C 3089   5.789   2.220   3.785 -0.1473 -0.4958  1.5185
   24MOL0     C 3090   5.689   2.624   3.710 -0.2363  0.2586 -0.1809
   24MOL0     C 3091   5.732   2.748   3.687 -0.0982 -0.1691  0.0851
   24MOL0     C 3092   5.642   2.867   3.693 -0.1514 -0.2059 -0.4120
   24MOL0     C 3093   5.510   2.835   3.729  0.1813  0.7297 -0.1017
   24MOL0     O 3094   5.419   2.940   3.759 -0.1813 -0.2915  0.2361
   24MOL0     C 3095   5.279   2.907   3.754  0.9217  0.1011  0.1359
   24MOL0     C 3096   5.179   3.026   3.752  0.5620 -0.7919 -0.3213
   24MOL0     C 3097   5.167   3.103   3.887  0.1453  0.0051  0.4241
   24MOL0     C 3098   5.120   3.021   4.006  0.2990  0.0095 -0.3563
   24MOL0     C 3099   4.981   2.974   3.982 -0.7375  0.0932 -0.4502
   24MOL0     C 3100   4.869   2.935   3.954 -0.9269 -1.0299  0.9175
   24MOL0     C 3101   5.470   2.699   3.747 -0.5582  0.3791  0.5573
   24MOL0     C 3102   5.557   2.594   3.737 -0.3313  0.9996  0.3631
   24MOL0     H 3103   6.023   2.397   3.952  0.6471  0.8634 -2.5935
   24MOL0     H 3104   6.138   2.164   3.944 -1.0236 -0.1820  1.2167
   24MOL0     H 3105   6.148   1.990   3.693  1.4498 -0.4704 -0.6298
   24MOL0     H 3106   6.011   1.893   3.650 -0.6490  1.2240  0.9176
   24MOL0     H 3107   6.225   1.756   3.645 -0.8427 -1.0585  0.3351
   24MOL0     H 3108   6.119   1.709   3.785 -0.5539  2.1407  1.9520
   24MOL0     H 3109   6.374   1.728   3.840  1.1385  0.6010  0.2897
   24MOL0     H 3110   6.263   1.859   3.917 -2.0658  1.8798 -2.4928
   24MOL0     H 3111   6.421   1.911   3.669  0.1309 -1.2860 -0.2439
   24MOL0     H 3112   6.342   2.022   3.765 -1.0455 -1.7411  2.6344
   24MOL0     H 3113   6.571   1.852   3.886 -0.7692 -0.5586  1.0209
   24MOL0     H 3114   6.475   1.978   3.959 -1.8865  2.4842 -1.6365
   24MOL0     H 3115   6.675   2.085   3.886  0.4730 -1.6214  0.7419
   24MOL0     H 3116   6.544   2.146   3.784  1.3604  0.9696 -0.7968
   24MOL0     H 3117   6.639   1.986   3.601 -0.3155  0.4690 -0.0689
   24MOL0     H 3118   6.744   2.125   3.651 -0.2911 -1.3659 -0.5149
   24MOL0     H 3119   6.768   1.840   3.761 -1.8955 -1.6249 -4.8663
   24MOL0     H 3120   6.865   1.976   3.801  0.2504 -0.0028 -0.9479
   24MOL0     H 3121   6.911   2.101   3.487  1.0840 -0.4588 -2.3747
   24MOL0     H 3122   7.072   2.033   3.275 -0.3525 -3.4882  0.3482
   24MOL0     H 3123   7.205   1.934   3.328  0.2061 -2.2187  3.2112
   24MOL0     H 3124   7.142   2.213   3.475  2.3117  1.0191  2.1465
   24MOL0     H 3125   7.275   2.175   3.364  1.0788 -0.1172 -0.3461
   24MOL0     H 3126   7.370   2.166   3.560 -0.6508  0.5439 -2.1050
   24MOL0     H 3127   7.229   2.067   3.632 -0.6049 -1.3080 -0.9010
   24MOL0     H 3128   7.302   1.879   3.522  1.8860 -1.7471  1.3984
   24MOL0     H 3129   7.452   1.950   3.594  0.8495 -1.4919  0.4791
   24MOL0     H 3130   7.599   2.116   3.567  1.2717  0.4089  0.4336
   24MOL0     H 3131   7.827   2.178   3.511  0.4359  1.0666 -2.9546
   24MOL0     H 3132   8.187   2.229   3.081  2.5755 -0.6545 -0.9700
   24MOL0     H 3133   8.423   2.222   3.093  1.0818 -1.5854 -3.5940
   24MOL0     H 3134   8.634   2.179   3.078  0.0996  0.2310 -0.9468
   24MOL0     H 3135   8.585   2.078   2.941 -0.8406 -1.9925  1.2125
   24MOL0     H 3136   8.832   2.077   2.929 -0.6788  1.7440  0.7240
   24MOL0     H 3137   8.797   1.928   3.009  3.1936  0.6208 -0.7947
   24MOL0     H 3138   8.825   2.048   3.232 -1.0257 -4.9263 -2.2511
   24MOL0     H 3139   8.852   2.193   3.141 -0.8955 -0.3996  0.3365
   24MOL0     H 3140   9.053   1.976   3.086 -0.0573 -1.3680  1.6909
   24MOL0     H 3141   9.077   2.147   3.084  0.5789  0.0523  0.1112
   24MOL0     H 3142   9.180   2.021   3.300 -0.1331 -1.0039 -0.3064
   24MOL0     H 3143   9.014   1.952   3.313 -0.4085 -0.3855 -0.4468
   24MOL0     H 3144   8.956   2.217   3.340 -0.5411  0.7064  2.4726
   24MOL0     H 3145   9.118   2.242   3.377 -2.0140  2.4911 -1.4428
   24MOL0     H 3146   8.934   2.058   3.537 -0.2804  0.7522  0.9437
   24MOL0     H 3147   9.117   2.090   3.563  0.4657 -3.5592 -0.6154
   24MOL0     H 3148   8.887   2.300   3.536  0.3349  0.7841  0.0477
   24MOL0     H 3149   9.047   2.329   3.616  1.4267 -0.5254 -2.9740
   24MOL0     H 3150   8.410   1.802   3.208  0.2611  0.2293  0.4351
   24MOL0     H 3151   8.161   1.842   3.242  0.2556 -0.5104  0.7511
   24MOL0     H 3152   7.818   1.979   3.142  0.8280  4.3446 -1.4647
   24MOL0     H 3153   7.573   1.914   3.192  0.9824  1.5519 -1.7473
   24MOL0     H 3154   5.796   2.026   3.712 -0.7281  2.2977 -0.8049
   24MOL0     H 3155   5.700   2.247   3.730  0.5823 -0.6967  0.2126
   24MOL0     H 3156   5.838   2.765   3.668 -0.4138 -0.2165 -1.9256
   24MOL0     H 3157   5.676   2.968   3.673 -3.4587  1.3997  1.2976
   24MOL0     H 3158   5.264   2.846   3.843  2.9831  0.8937  1.0793
   24MOL0     H 3159   5.261   2.855   3.659  0.7613  0.4876 -0.0493
   24MOL0     H 3160   5.210   3.101   3.677 -2.9210 -0.4315 -1.5872
   24MOL0     H 3161   5.087   2.980   3.715 -1.9045  2.2923  1.4088
   24MOL0     H 3162   5.110   3.196   3.875 -1.0138 -0.9189 -1.7140
   24MOL0     H 3163   5.266   3.139   3.916 -0.0650  0.9159  0.0716
   24MOL0     H 3164   5.189   2.939   4.026  0.4194  0.6567  2.1733
   24MOL0     H 3165   5.129   3.095   4.086 -0.2792  2.7683 -2.6649
   24MOL0     H 3166   4.772   2.890   3.953 -0.5751 -1.8084  0.2675
   24MOL0     H 3167   5.370   2.662   3.768 -0.3113  1.0140  3.1741
   24MOL0     H 3168   5.514   2.496   3.757  0.0463  1.0284  1.3789
   25MOL0     O 3169   4.384   9.634  10.330  0.1753 -0.0267 -0.4285
   25MOL0     C 3170   4.358   9.663  10.446 -0.8209  0.7708 -0.3308
   25MOL0     O 3171   4.449   9.713  10.535  0.9286 -0.3057 -0.0841
   25MOL0     C 3172   4.552   9.799  10.503 -0.7015  0.6484 -0.1504
   25MOL0     C 3173   4.660   9.796  10.590 -0.5901 -0.5427 -0.2749
   25MOL0     C 3174   4.786   9.841  10.549 -0.1997 -1.4271  0.1847
   25MOL0     C 3175   4.806   9.888  10.418 -0.2062  0.1878 -0.2582
   25MOL0     O 3176   4.927   9.923  10.367 -0.1451  1.1680  0.4487
   25MOL0     C 3177   5.041   9.894  10.446 -0.0696  0.1830 -0.7476
   25MOL0     C 3178   5.089  10.004  10.545  0.7637 -0.0747  0.5545
   25MOL0     C 3179   5.229   9.977  10.605 -0.5681 -0.3768  0.3513
   25MOL0     C 3180   5.256  10.052  10.745  0.1962 -0.4161 -0.4186
   25MOL0     C 3181   5.402  10.087  10.761  0.2311 -0.2391 -0.0394
   25MOL0     C 3182   5.433  10.124  10.908  1.0024 -0.6024  0.6430
   25MOL0     C 3183   5.585  10.123  10.932  1.1183 -0.0507  0.2862
   25MOL0     C 3184   5.630  10.171  11.071 -0.7999 -0.1124 -0.3974
   25MOL0     N 3185   5.582  10.306  11.101 -0.0169  0.8819  0.3817
   25MOL0     C 3186   5.470  10.350  11.171 -0.8984 -0.6123 -0.2682
   25MOL0     C 3187   5.497  10.487  11.186  0.6709  0.6778 -0.0657
   25MOL0     C 3188   5.408  10.576  11.261 -0.0297  0.0059 -0.1846
   25MOL0     C 3189   5.488  10.671  11.357 -0.2899  0.5373  0.3089
   25MOL0     C 3190   5.398  10.772  11.429  0.3109 -0.3890  0.1374
   25MOL0     C 3191   5.285  10.718  11.499  0.7232 -0.4346 -0.1167
   25MOL0     O 3192   5.243  10.809  11.601  0.4709  0.0405  0.1076
   25MOL0     C 3193   5.115  10.776  11.644 -0.0375  0.0862  0.3750
   25MOL0     C 3194   5.022  10.893  11.664 -0.0536  0.3354  0.0573
   25MOL0     C 3195   4.894  10.880  11.719  0.1840  0.4756  0.8422
   25MOL0     C 3196   4.848  10.747  11.743  0.0590 -0.1657  0.6552
   25MOL0     C 3197   4.713  10.738  11.803 -0.5451  1.1991 -0.7627
   25MOL0     O 3198   4.628  10.849  11.801 -0.9556  0.4552  1.0573
   25MOL0     C 3199   4.495  10.841  11.829 -0.0789 -0.4737 -0.2546
   25MOL0     C 3200   4.408  10.934  11.772 -0.7949 -0.4277 -0.0648
   25MOL0     C 3201   4.276  10.926  11.777  0.1604 -0.1614  0.5212
   25MOL0     C 3202   4.215  10.827  11.852 -0.2763  0.8249 -0.0166
   25MOL0     O 3203   4.081  10.810  11.863 -0.6096 -1.2018 -0.4900
   25MOL0     C 3204   4.006  10.845  11.748 -0.4630 -0.4264  0.7487
   25MOL0     C 3205   3.855  10.851  11.795 -1.0017 -0.3454 -0.3103
   25MOL0     C 3206   3.750  10.832  11.682  0.1014  0.3091 -0.7621
   25MOL0     C 3207   3.608  10.818  11.730 -0.6928  0.6692  1.1956
   25MOL0     C 3208   3.528  10.790  11.591  0.7506 -0.4862 -0.0487
   25MOL0     C 3209   3.374  10.796  11.609 -0.0405  0.0849  0.4676
   25MOL0     C 3210   3.294  10.752  11.484  0.2119 -0.1944  0.5265
   25MOL0     C 3211   3.146  10.716  11.512  0.5884  0.0824 -0.1138
   25MOL0    Cl 3212   3.143  10.574  11.611  0.1797 -0.1963 -0.3517
   25MOL0     C 3213   4.294  10.746  11.932  0.2246  0.1474 -0.7981
   25MOL0     C 3214   4.432  10.742  11.917  0.0375  1.0250  0.2762
   25MOL0     O 3215   4.696  10.624  11.848 -0.2910  0.2759  0.0256
   25MOL0     C 3216   4.940  10.636  11.727  0.0162 -0.8515 -0.4559
   25MOL0     C 3217   5.068  10.654  11.675  0.2735  0.0483  0.4074
   25MOL0     N 3218   5.626  10.517  11.133  0.2546  0.7412 -0.2266
   25MOL0     N 3219   5.675  10.407  11.089  0.4688  0.9355  0.2662
   25MOL0     C 3220   4.705   9.895  10.334 -0.5642 -0.8536 -0.6708
   25MOL0     C 3221   4.569   9.857  10.382 -0.4347  0.4477 -0.7978
   25MOL0     C 3222   4.218   9.635  10.490  0.1111  0.4283 -0.4002
   25MOL0     C 3223   4.187   9.628  10.628  0.6191 -1.3991  0.4223
   25MOL0     C 3224   4.049   9.608  10.662 -0.7434 -0.2922 -0.2659
   25MOL0     C 3225   3.949   9.591  10.559  0.9768  0.3537 -0.4052
   25MOL0     O 3226   3.818   9.573  10.592 -0.3577  0.1631 -0.1650
   25MOL0     C 3227   3.749   9.680  10.534  0.4227  0.8845  0.4442
   25MOL0     C 3228   3.607   9.679  10.584 -0.1844 -0.1347  0.4041
   25MOL0     C 3229   3.537   9.804  10.513  0.4755 -0.7311 -0.4826
   25MOL0     C 3230   3.399   9.818  10.570  0.6335 -0.7591 -1.0835
   25MOL0     C 3231   3.321   9.724  10.494  0.3273  0.7997  0.3646
   25MOL0     C 3232   3.248   9.657  10.422  0.5164 -0.2764  0.7178
   25MOL0     C 3233   3.985   9.582  10.425 -1.0390 -0.8167 -0.6920
   25MOL0     C 3234   4.120   9.612  10.389 -0.5770  0.7352 -0.6871
   25MOL0     H 3235   4.650   9.754  10.690 -0.6527  0.2737  0.0699
   25MOL0     H 3236   4.863   9.843  10.626 -1.8788  0.1256  1.9260
   25MOL0     H 3237   5.126   9.871  10.381  2.0455  1.0669  1.5266
   25MOL0     H 3238   5.034   9.798  10.498 -0.5752  0.0153 -1.1177
   25MOL0     H 3239   5.013  10.027  10.620  0.5282 -1.2313  0.6890
   25MOL0     H 3240   5.102  10.099  10.493 -2.2979 -0.0588 -0.3818
   25MOL0     H 3241   5.307  10.017  10.539 -0.1297  0.1720  1.1799
   25MOL0     H 3242   5.230   9.867  10.608 -3.3998 -0.4600  1.9014
   25MOL0     H 3243   5.207  10.150  10.746  0.8300 -0.0893  0.6998
   25MOL0     H 3244   5.209   9.995  10.826 -0.3137  3.4146  2.2795
   25MOL0     H 3245   5.431  10.170  10.696 -2.7185  1.9849  1.2464
   25MOL0     H 3246   5.468  10.002  10.740 -0.7963 -0.9742 -0.3569
   25MOL0     H 3247   5.385  10.045  10.966  2.5345 -0.2143  2.5653
   25MOL0     H 3248   5.385  10.217  10.937 -1.9736 -1.4887 -1.0303
   25MOL0     H 3249   5.617  10.019  10.918  1.2861  0.0215  0.1477
   25MOL0     H 3250   5.630  10.195  10.865  1.1059  0.8552  1.2273
   25MOL0     H 3251   5.739  10.177  11.067 -0.8482  0.9618 -0.4678
   25MOL0     H 3252   5.597  10.097  11.144 -0.5945  1.0215  0.8888
   25MOL0     H 3253   5.394  10.280  11.204  0.7856 -0.2569  5.4038
   25MOL0     H 3254   5.343  10.507  11.316  1.0848 -1.8530 -1.0629
   25MOL0     H 3255   5.353  10.634  11.187  1.2953 -0.3205 -1.4734
   25MOL0     H 3256   5.563  10.718  11.293  0.2723 -1.5220 -0.6213
   25MOL0     H 3257   5.552  10.613  11.423  0.4152  0.4450 -0.4488
   25MOL0     H 3258   5.468  10.823  11.496  0.5503 -2.2270  1.3358
   25MOL0     H 3259   5.364  10.843  11.353  1.0895  1.5625  1.5223
   25MOL0     H 3260   5.335  10.637  11.553  0.0042  0.3972  1.8630
   25MOL0     H 3261   5.204  10.688  11.432  0.7045  2.7411 -1.7260
   25MOL0     H 3262   5.058  10.992  11.638 -0.9625  1.1825  1.8366
   25MOL0     H 3263   4.827  10.965  11.717  1.1926  1.3480  2.1996
   25MOL0     H 3264   4.464  11.006  11.713 -0.6622  0.3115  0.9370
   25MOL0     H 3265   4.221  11.011  11.737  0.3480  0.7625  2.1402
   25MOL0     H 3266   4.026  10.776  11.665 -2.1577 -1.9216  1.5083
   25MOL0     H 3267   4.022  10.946  11.710 -2.4223 -0.5280 -0.5456
   25MOL0     H 3268   3.844  10.947  11.845  1.9469 -1.9773  3.9663
   25MOL0     H 3269   3.839  10.772  11.869  0.5437 -0.4332 -0.0449
   25MOL0     H 3270   3.787  10.752  11.618  0.1368 -0.5900  0.3623
   25MOL0     H 3271   3.749  10.924  11.623  2.0601  1.8198  1.3795
   25MOL0     H 3272   3.600  10.727  11.791 -0.4838 -0.9106 -1.0354
   25MOL0     H 3273   3.576  10.907  11.786  0.4664  3.2181 -1.8612
   25MOL0     H 3274   3.555  10.690  11.554 -1.0757 -0.5690 -1.2788
   25MOL0     H 3275   3.560  10.872  11.527 -0.9851  0.1709 -0.1458
   25MOL0     H 3276   3.347  10.899  11.633  0.7389  0.0044  1.7803
   25MOL0     H 3277   3.345  10.742  11.699  1.3500 -0.9429  0.3429
   25MOL0     H 3278   3.313  10.839  11.420  1.7785  0.2550  1.5304
   25MOL0     H 3279   3.338  10.669  11.429 -0.2014  0.6503 -1.1665
   25MOL0     H 3280   3.087  10.695  11.423 -2.1295  1.5026  1.2073
   25MOL0     H 3281   3.104  10.794  11.576  1.6411  0.4133  0.2002
   25MOL0     H 3282   4.245  10.675  11.999  1.3027  2.0145  2.1471
   25MOL0     H 3283   4.496  10.679  11.978  0.5185  1.4693  0.2342
   25MOL0     H 3284   4.912  10.535  11.754 -2.9617  0.0452  0.1980
   25MOL0     H 3285   5.130  10.565  11.662  1.3593  0.9675 -1.1181
   25MOL0     H 3286   4.727   9.946  10.241  2.5079  0.5403  0.6824
   25MOL0     H 3287   4.494   9.845  10.304 -2.7117 -0.7234  1.4584
   25MOL0     H 3288   4.249   9.657  10.713 -1.3987  2.8851  0.6702
   25MOL0     H 3289   4.022   9.596  10.766 -3.2373 -0.9512 -0.9238
   25MOL0     H 3290   3.735   9.668  10.426 -1.5969  3.6643  0.2590
   25MOL0     H 3291   3.783   9.781  10.559 -0.6737  1.9397 -1.9422
   25MOL0     H 3292   3.558   9.585  10.558  0.0379 -0.2201  0.2875
   25MOL0     H 3293   3.600   9.701  10.691 -5.0194  3.5290 -0.3254
   25MOL0     H 3294   3.547   9.803  10.404 -0.7634 -2.3057 -0.6201
   25MOL0     H 3295   3.585   9.897  10.544 -0.8843  0.1557 -0.9536
   25MOL0     H 3296   3.395   9.797  10.677  0.2909  0.6901 -0.7819
   25MOL0     H 3297   3.360   9.919  10.554 -0.5179 -1.0731 -0.3776
   25MOL0     H 3298   3.182   9.610  10.352 -0.7238  0.8346  1.1082
   25MOL0     H 3299   3.919   9.555  10.344 -2.1410  5.6780 -2.4803
   25MOL0     H 3300   4.147   9.611  10.284 -0.4046 -0.9104 -0.6483
   26MOL0     O 3301   8.888   7.880   9.793 -1.0346 -0.5496 -0.1367
   26MOL0     C 3302   8.994   7.936   9.771  0.7763 -0.1988  0.3878
   26MOL0     O 3303   9.072   7.918   9.660  0.3796  0.5355 -0.1220
   26MOL0     C 3304   9.012   7.835   9.564  0.5083 -0.5939  0.7703
   26MOL0     C 3305   9.043   7.702   9.535 -0.8658  0.2502 -0.1484
   26MOL0     C 3306   8.997   7.635   9.419  0.5208  0.2337  0.1510
   26MOL0     C 3307   8.919   7.704   9.320  0.0424 -0.1066 -0.2748
   26MOL0     O 3308   8.876   7.658   9.203  1.1053  0.6571 -0.5831
   26MOL0     C 3309   8.925   7.538   9.145  0.4780  0.2068  0.6365
   26MOL0     C 3310   8.881   7.521   9.005  0.1500 -0.9018  0.9838
   26MOL0     C 3311   8.916   7.383   8.949  0.4968  0.4167  0.0165
   26MOL0     C 3312   8.861   7.370   8.801 -0.1758 -0.7824  0.7176
   26MOL0     C 3313   8.790   7.237   8.768 -0.1294 -0.8155  0.1226
   26MOL0     C 3314   8.768   7.237   8.618  0.4867  0.2787  0.0199
   26MOL0     C 3315   8.898   7.231   8.537  0.3223 -0.3803 -0.1185
   26MOL0     C 3316   8.875   7.205   8.391 -1.1736 -0.8765  0.9306
   26MOL0     N 3317   8.784   7.093   8.356  0.4008  0.2515 -0.1337
   26MOL0     C 3318   8.814   6.955   8.368 -0.6455  0.0405 -0.6721
   26MOL0     C 3319   8.736   6.894   8.281  0.5626 -0.3695 -0.9095
   26MOL0     C 3320   8.724   6.744   8.252  0.4199  0.0057  0.4417
   26MOL0     C 3321   8.822   6.680   8.155 -0.8753 -0.1451 -0.3462
   26MOL0     C 3322   8.805   6.721   8.007  0.1234  1.1216 -0.4126
   26MOL0     C 3323   8.931   6.688   7.921 -0.5721  0.8241  0.4417
   26MOL0     O 3324   8.911   6.559   7.853  0.0440 -0.2906 -0.5968
   26MOL0     C 3325   9.015   6.473   7.849 -0.3675 -1.0579 -0.4721
   26MOL0     C 3326   9.070   6.427   7.961 -0.4126 -0.0375  0.1508
   26MOL0     C 3327   9.163   6.327   7.957 -0.5798 -0.4976  0.6026
   26MOL0     C 3328   9.191   6.261   7.838 -0.5563  0.4750 -0.2881
   26MOL0     C 3329   9.284   6.146   7.842 -0.3759  0.1569  0.3561
   26MOL0     O 3330   9.345   6.125   7.966  1.0009 -0.3233  1.3398
   26MOL0     C 3331   9.432   6.015   7.965  0.7068 -0.3760 -0.2854
   26MOL0     C 3332   9.545   6.017   7.887  0.4556 -0.5282  0.0254
   26MOL0     C 3333   9.624   5.906   7.890 -0.6303  0.4323 -0.0547
   26MOL0     C 3334   9.597   5.783   7.958 -0.0508 -0.7701 -0.0779
   26MOL0     O 3335   9.678   5.663   7.967  0.4290 -0.6605  0.1323
   26MOL0     C 3336   9.806   5.672   7.905  0.1178  0.7427  0.7056
   26MOL0     C 3337   9.878   5.539   7.919  0.0532 -1.2374  0.5587
   26MOL0     C 3338   9.868   5.448   7.804  0.1097 -0.1303 -1.0847
   26MOL0     C 3339   9.941   5.318   7.827  0.0279  0.1929  0.0372
   26MOL0     C 3340   9.875   5.226   7.930 -0.5615  0.0978  0.4076
   26MOL0     C 3341   9.964   5.114   7.996  0.3480 -1.0634 -0.3616
   26MOL0     C 3342   9.885   5.045   8.104  0.0825  0.1967  0.2542
   26MOL0     C 3343   9.742   4.991   8.065  0.7007 -0.4481  0.6650
   26MOL0    Cl 3344   9.750   4.851   7.955 -0.2521 -0.0584 -0.4584
   26MOL0     C 3345   9.467   5.782   8.014 -0.7221  0.0834  0.2405
   26MOL0     C 3346   9.392   5.900   8.030  0.0967 -0.3675 -0.2225
   26MOL0     O 3347   9.307   6.082   7.733 -0.0228  0.2453 -0.5039
   26MOL0     C 3348   9.128   6.298   7.720 -0.1754  0.0932  1.6420
   26MOL0     C 3349   9.042   6.409   7.729 -0.3857 -0.9199 -0.9940
   26MOL0     N 3350   8.657   6.987   8.218 -0.5094  0.1268 -0.2945
   26MOL0     N 3351   8.671   7.103   8.273 -0.7018  0.2905 -0.6306
   26MOL0     C 3352   8.867   7.835   9.354  0.8259 -0.5606  0.4865
   26MOL0     C 3353   8.912   7.895   9.476 -0.2599  0.1611  0.2762
   26MOL0     C 3354   9.044   8.028   9.876  0.2526  1.1415  1.1598
   26MOL0     C 3355   8.952   8.063   9.977  0.1298  0.2467  0.7006
   26MOL0     C 3356   8.997   8.135  10.087 -0.0684 -1.3086 -0.0819
   26MOL0     C 3357   9.119   8.187  10.087  0.0050  0.0016  0.6743
   26MOL0     O 3358   9.176   8.267  10.182  0.5124 -0.3409 -0.2831
   26MOL0     C 3359   9.092   8.337  10.279 -0.8831  0.0466  0.6303
   26MOL0     C 3360   9.150   8.476  10.317 -0.0630 -0.1647  0.5391
   26MOL0     C 3361   9.296   8.468  10.386 -0.0368 -0.1900 -0.4560
   26MOL0     C 3362   9.415   8.455  10.296 -0.6088 -0.6240  0.1282
   26MOL0     C 3363   9.457   8.586  10.249  0.6639  0.0411 -0.9000
   26MOL0     C 3364   9.468   8.706  10.229  0.5361 -0.1689  0.5895
   26MOL0     C 3365   9.208   8.166   9.978  0.1711  0.3050  0.7709
   26MOL0     C 3366   9.174   8.073   9.876  0.0927 -0.6772 -0.1418
   26MOL0     H 3367   9.112   7.655   9.604  1.2763 -1.0093 -2.9387
   26MOL0     H 3368   9.024   7.531   9.405 -1.6414 -0.0811 -2.5387
   26MOL0     H 3369   8.884   7.461   9.210 -0.4080  2.3118  2.7045
   26MOL0     H 3370   9.034   7.531   9.150  0.5943  1.3277  0.0480
   26MOL0     H 3371   8.911   7.601   8.937 -1.8889 -1.0256 -0.1578
   26MOL0     H 3372   8.771   7.516   9.006 -0.0699  1.9022  0.1530
   26MOL0     H 3373   8.873   7.311   9.019 -1.5298  1.7119  0.2148
   26MOL0     H 3374   9.023   7.378   8.929 -0.0841  1.0137 -4.3104
   26MOL0     H 3375   8.775   7.436   8.786 -1.8867 -2.7146  1.5430
   26MOL0     H 3376   8.941   7.401   8.733  0.2578  1.2253  2.0407
   26MOL0     H 3377   8.693   7.239   8.819 -1.0489 -0.5769 -1.5622
   26MOL0     H 3378   8.856   7.157   8.804 -0.0565 -1.6650 -1.7549
   26MOL0     H 3379   8.710   7.325   8.593  0.8730  0.4050 -0.4565
   26MOL0     H 3380   8.707   7.150   8.593  2.3245 -1.6422  1.8038
   26MOL0     H 3381   8.953   7.326   8.542  1.9326 -1.2180 -1.1047
   26MOL0     H 3382   8.951   7.148   8.586  0.9216  0.1131  0.0926
   26MOL0     H 3383   8.968   7.173   8.343  0.2757  1.1806  2.1956
   26MOL0     H 3384   8.844   7.299   8.342  1.8687  0.8520  2.0848
   26MOL0     H 3385   8.889   6.900   8.425  1.2687  1.4082 -1.7481
   26MOL0     H 3386   8.623   6.719   8.219  1.2839 -4.3260  0.4684
   26MOL0     H 3387   8.744   6.708   8.354  2.6508  2.3235  0.9409
   26MOL0     H 3388   8.824   6.570   8.162  0.8356 -0.1381 -0.3608
   26MOL0     H 3389   8.918   6.717   8.190  0.6127 -3.6312 -0.3478
   26MOL0     H 3390   8.722   6.664   7.966  0.6068 -2.1751  2.7007
   26MOL0     H 3391   8.792   6.829   7.998  1.5670  1.2912 -0.7197
   26MOL0     H 3392   9.014   6.697   7.991 -0.5628  2.4048  0.2558
   26MOL0     H 3393   8.948   6.754   7.836 -0.2716 -3.8899 -3.6491
   26MOL0     H 3394   9.028   6.468   8.052 -0.9589  0.7866 -0.4570
   26MOL0     H 3395   9.193   6.285   8.053 -0.6686 -1.6674  0.1297
   26MOL0     H 3396   9.563   6.105   7.826 -0.4002  1.0618  1.9677
   26MOL0     H 3397   9.718   5.920   7.838  0.6389  1.1245  2.3169
   26MOL0     H 3398   9.863   5.751   7.954  2.0598  0.1239 -0.4312
   26MOL0     H 3399   9.799   5.697   7.799 -0.2860 -0.5204  0.4121
   26MOL0     H 3400   9.849   5.498   8.016 -1.4664  0.5650  0.9060
   26MOL0     H 3401   9.986   5.560   7.921  0.1657 -1.3564 -1.8675
   26MOL0     H 3402   9.910   5.485   7.709  0.9672 -1.2470 -1.1514
   26MOL0     H 3403   9.764   5.420   7.785  0.2373 -1.4137  0.0037
   26MOL0     H 3404   9.958   5.260   7.736  3.9062 -1.9751  1.8967
   26MOL0     H 3405  10.042   5.347   7.859  0.5391 -0.7171 -0.7154
   26MOL0     H 3406   9.785   5.179   7.891 -0.9882 -1.8218  3.3767
   26MOL0     H 3407   9.850   5.293   8.014 -2.3858  2.5635 -1.9384
   26MOL0     H 3408  10.052   5.156   8.044 -1.0604  0.9124  0.6492
   26MOL0     H 3409   9.983   5.046   7.913  0.2610  0.3554 -1.5918
   26MOL0     H 3410   9.938   4.975   8.169 -2.2483 -3.0377 -1.0236
   26MOL0     H 3411   9.861   5.126   8.173 -1.1217  0.9721 -1.0290
   26MOL0     H 3412   9.686   5.075   8.022  1.5648 -0.0751  0.2238
   26MOL0     H 3413   9.688   4.970   8.158 -1.2571  1.6343  0.0874
   26MOL0     H 3414   9.430   5.692   8.063 -4.3152  0.6750 -1.1235
   26MOL0     H 3415   9.300   5.886   8.086  1.0287 -5.2011  0.5346
   26MOL0     H 3416   9.155   6.247   7.627 -2.0915  1.3048  0.3596
   26MOL0     H 3417   9.018   6.460   7.637  1.6293 -1.4745 -1.8909
   26MOL0     H 3418   8.788   7.880   9.295  0.5053 -1.5894  0.1050
   26MOL0     H 3419   8.877   7.996   9.496  0.0987  0.4589 -0.5405
   26MOL0     H 3420   8.852   8.022   9.965  0.7319 -1.9458  2.3629
   26MOL0     H 3421   8.934   8.168  10.169  1.7028  2.9501 -0.1617
   26MOL0     H 3422   9.075   8.284  10.373  0.5390  2.6631  2.4819
   26MOL0     H 3423   8.992   8.361  10.242 -0.4569  2.1928  0.7786
   26MOL0     H 3424   9.157   8.519  10.217 -0.0608 -3.3018 -0.9460
   26MOL0     H 3425   9.069   8.527  10.369 -1.1024 -1.9278  0.7551
   26MOL0     H 3426   9.284   8.384  10.455 -2.8583 -0.7679 -1.5364
   26MOL0     H 3427   9.297   8.556  10.452 -3.1563 -3.1678  4.1753
   26MOL0     H 3428   9.494   8.402  10.351 -2.1131 -1.9051  1.1708
   26MOL0     H 3429   9.392   8.381  10.218  0.0810 -2.0522  1.2213
   26MOL0     H 3430   9.467   8.811  10.208  4.8705 -0.1898 -0.7041
   26MOL0     H 3431   9.299   8.224   9.970 -0.7244  1.5882 -1.1794
   26MOL0     H 3432   9.241   8.047   9.795 -1.2322 -1.8337 -0.9227
   27MOL0     O 3433   1.616   1.818   3.771  0.3656  0.4234 -0.0744
   27MOL0     C 3434   1.515   1.884   3.808  0.0263  0.2646  0.7661
   27MOL0     O 3435   1.493   2.008   3.770  0.4963 -0.6873 -0.6719
   27MOL0     C 3436   1.598   2.100   3.767 -1.1723 -0.2694 -0.4669
   27MOL0     C 3437   1.683   2.116   3.659  0.4143  0.7803 -0.4659
   27MOL0     C 3438   1.782   2.215   3.656 -0.2701  0.8699 -0.0001
   27MOL0     C 3439   1.804   2.295   3.769  0.0403  0.0253 -0.2752
   27MOL0     O 3440   1.907   2.383   3.767 -0.1496 -0.1815 -0.3377
   27MOL0     C 3441   1.910   2.478   3.873 -0.2412  0.0318  0.3284
   27MOL0     C 3442   2.019   2.589   3.878  0.8561  0.0374 -0.1210
   27MOL0     C 3443   2.137   2.534   3.799  0.9814 -0.0259 -0.0637
   27MOL0     C 3444   2.254   2.623   3.807  0.1451 -0.0532  0.0474
   27MOL0     C 3445   2.388   2.568   3.763  0.8047  0.0820  0.2159
   27MOL0     C 3446   2.493   2.681   3.768  0.2662  0.1339 -0.0356
   27MOL0     C 3447   2.629   2.627   3.727 -0.8893  0.3653  0.2532
   27MOL0     C 3448   2.730   2.737   3.744  0.1493  0.5996  0.3729
   27MOL0     N 3449   2.855   2.710   3.674 -0.6287 -0.2530 -0.2222
   27MOL0     C 3450   2.899   2.789   3.568  0.2803 -0.7604  0.3071
   27MOL0     C 3451   3.013   2.735   3.523  0.2143 -0.0698 -0.1754
   27MOL0     C 3452   3.092   2.769   3.397  0.1153  1.2179 -0.3323
   27MOL0     C 3453   3.044   2.687   3.275  1.0995  0.2060  0.1325
   27MOL0     C 3454   2.888   2.659   3.286 -1.2370 -1.0399 -0.0815
   27MOL0     C 3455   2.843   2.589   3.157 -0.0957 -0.3610  0.0506
   27MOL0     O 3456   2.819   2.679   3.049  0.0878  0.4097  0.2260
   27MOL0     C 3457   2.749   2.630   2.939  0.3217  0.1969 -0.3200
   27MOL0     C 3458   2.712   2.718   2.834 -0.1953  0.8780  1.1914
   27MOL0     C 3459   2.650   2.667   2.710 -0.1683 -0.9437 -0.5503
   27MOL0     C 3460   2.617   2.527   2.687  0.5290 -0.1537  0.1241
   27MOL0     C 3461   2.560   2.488   2.556 -0.0635  0.6110 -0.2059
   27MOL0     O 3462   2.543   2.353   2.551 -0.1083  0.4066  0.8964
   27MOL0     C 3463   2.452   2.309   2.467  0.1358  0.5376 -0.6134
   27MOL0     C 3464   2.466   2.302   2.337 -0.6147  0.1304 -0.3762
   27MOL0     C 3465   2.376   2.241   2.247  0.6242  0.2017  0.8780
   27MOL0     C 3466   2.264   2.166   2.296  0.4694 -0.5287  0.0084
   27MOL0     O 3467   2.177   2.091   2.207 -0.0417 -0.1748  0.0626
   27MOL0     C 3468   2.044   2.065   2.258  0.4176  0.5930 -0.1538
   27MOL0     C 3469   1.951   2.011   2.140  0.5635  0.2260 -1.6617
   27MOL0     C 3470   1.973   2.071   2.000  0.7372 -0.2550 -0.0858
   27MOL0     C 3471   1.866   2.023   1.895  1.4156 -0.4013  0.7205
   27MOL0     C 3472   1.864   1.872   1.872 -1.0376 -0.2533  0.2695
   27MOL0     C 3473   2.011   1.823   1.833  1.2879 -0.6948 -0.1221
   27MOL0     C 3474   2.003   1.677   1.793  0.1164 -1.2085 -0.0390
   27MOL0     C 3475   2.147   1.610   1.777  0.4284  0.2144 -0.2528
   27MOL0    Cl 3476   2.146   1.464   1.675 -0.1212 -0.1495  0.5490
   27MOL0     C 3477   2.251   2.170   2.438 -0.2114  0.1764  0.3522
   27MOL0     C 3478   2.348   2.233   2.519  1.1936 -0.4212  0.0464
   27MOL0     O 3479   2.521   2.577   2.485  0.8279 -0.0359  0.8207
   27MOL0     C 3480   2.644   2.444   2.799 -0.4548 -0.6300  0.0714
   27MOL0     C 3481   2.705   2.489   2.921 -0.3184  0.3294  0.1658
   27MOL0     N 3482   3.038   2.625   3.610 -0.1402 -1.6199 -0.8444
   27MOL0     N 3483   2.947   2.611   3.697  0.0845 -0.4964  1.2613
   27MOL0     C 3484   1.710   2.287   3.876  0.5667  0.8756 -0.2981
   27MOL0     C 3485   1.611   2.182   3.881  0.2582 -0.2248  0.2281
   27MOL0     C 3486   1.415   1.817   3.888  0.4672 -0.2304  0.2815
   27MOL0     C 3487   1.301   1.888   3.920  1.0434 -0.7498  1.0353
   27MOL0     C 3488   1.222   1.848   4.024  0.6196 -0.5865  0.4622
   27MOL0     C 3489   1.240   1.719   4.084 -0.7817  0.1102 -0.5688
   27MOL0     O 3490   1.161   1.678   4.191 -0.6553 -1.0899 -0.3616
   27MOL0     C 3491   1.071   1.567   4.181  0.2483 -0.3554  0.8008
   27MOL0     C 3492   0.984   1.562   4.056 -0.0116 -0.1133 -0.1349
   27MOL0     C 3493   0.864   1.648   4.080  0.1154 -0.2120 -0.2202
   27MOL0     C 3494   0.762   1.626   3.963 -0.7376 -0.3407  0.1398
   27MOL0     C 3495   0.625   1.652   4.011  0.2459  0.4793 -0.1451
   27MOL0     C 3496   0.508   1.664   4.047  0.1438  0.1600  0.2731
   27MOL0     C 3497   1.350   1.642   4.044  0.3504  0.2031 -0.5927
   27MOL0     C 3498   1.434   1.690   3.952  0.0503 -0.2138 -0.2100
   27MOL0     H 3499   1.683   2.038   3.584  1.7719  0.3026  0.0032
   27MOL0     H 3500   1.839   2.222   3.564 -0.9000 -1.5683 -0.6483
   27MOL0     H 3501   1.918   2.426   3.969 -0.9823  1.4283  1.1800
   27MOL0     H 3502   1.817   2.536   3.879  0.0001  0.3030  1.8024
   27MOL0     H 3503   2.042   2.597   3.984  0.0114 -0.2523  0.0914
   27MOL0     H 3504   1.990   2.693   3.857  3.5386  0.5042 -2.0879
   27MOL0     H 3505   2.109   2.531   3.693 -0.6080  4.2049  0.0721
   27MOL0     H 3506   2.154   2.435   3.843 -2.0159 -1.1735 -1.2414
   27MOL0     H 3507   2.227   2.718   3.760 -1.3779 -1.5752 -2.3322
   27MOL0     H 3508   2.275   2.648   3.912  2.9813 -0.4344 -0.3538
   27MOL0     H 3509   2.369   2.522   3.665 -1.2265 -2.0667  1.5241
   27MOL0     H 3510   2.421   2.482   3.822 -3.2176 -1.9353 -0.1419
   27MOL0     H 3511   2.502   2.731   3.865  2.1488 -2.0663  1.0347
   27MOL0     H 3512   2.464   2.756   3.694 -1.7525  0.0714  0.6343
   27MOL0     H 3513   2.650   2.539   3.789 -0.9923  0.4580  0.4186
   27MOL0     H 3514   2.626   2.598   3.621  2.8236  0.7233 -0.1057
   27MOL0     H 3515   2.742   2.751   3.852 -0.3907  3.1244  0.1892
   27MOL0     H 3516   2.675   2.829   3.719 -0.7239 -0.1391 -0.4894
   27MOL0     H 3517   2.840   2.867   3.521  0.1818 -1.5776 -0.9875
   27MOL0     H 3518   3.201   2.760   3.405  0.4470  0.7448 -4.0488
   27MOL0     H 3519   3.072   2.876   3.385 -0.8262  1.2323  1.1358
   27MOL0     H 3520   3.096   2.590   3.279 -1.8727 -1.5911 -1.2004
   27MOL0     H 3521   3.075   2.741   3.186 -0.2779  0.1458 -0.4087
   27MOL0     H 3522   2.884   2.592   3.372  2.0607 -0.9161  0.2735
   27MOL0     H 3523   2.836   2.752   3.315 -0.1038 -0.1688 -0.7851
   27MOL0     H 3524   2.744   2.552   3.187 -0.6341  0.0706 -1.1090
   27MOL0     H 3525   2.908   2.505   3.135  1.4149  1.2558 -2.0853
   27MOL0     H 3526   2.734   2.823   2.848 -2.5534  1.1871  3.4395
   27MOL0     H 3527   2.628   2.740   2.633  1.6686 -2.2193 -2.4029
   27MOL0     H 3528   2.564   2.333   2.303 -0.5771 -1.3328 -1.7120
   27MOL0     H 3529   2.404   2.222   2.144  1.5122 -2.1812  1.5071
   27MOL0     H 3530   2.012   2.163   2.295 -1.5152  1.3636 -3.4775
   27MOL0     H 3531   2.051   1.980   2.327 -1.7654  0.7346  0.3379
   27MOL0     H 3532   1.845   2.009   2.167  1.1588 -3.8754  1.2476
   27MOL0     H 3533   1.964   1.904   2.123 -0.3935 -0.5510  1.7996
   27MOL0     H 3534   2.074   2.064   1.957  1.0134  1.5109  0.1803
   27MOL0     H 3535   1.964   2.178   2.019  5.4947  0.2060  0.8286
   27MOL0     H 3536   1.770   2.055   1.935 -1.2117 -5.8752 -0.3291
   27MOL0     H 3537   1.893   2.068   1.799 -1.6621  3.0840  1.2924
   27MOL0     H 3538   1.809   1.849   1.781  2.1566 -1.7361 -1.4393
   27MOL0     H 3539   1.810   1.810   1.944 -2.0136 -4.3022 -3.5510
   27MOL0     H 3540   2.063   1.836   1.928  2.3237 -0.1667 -0.7498
   27MOL0     H 3541   2.056   1.883   1.754 -0.1113  2.6382  1.4554
   27MOL0     H 3542   1.928   1.636   1.862 -1.4785  1.8247  0.2180
   27MOL0     H 3543   1.957   1.682   1.694  2.5345  2.0129 -1.1821
   27MOL0     H 3544   2.181   1.574   1.874 -3.7275 -1.8914  0.6353
   27MOL0     H 3545   2.221   1.676   1.731  1.7138 -1.1828 -0.2638
   27MOL0     H 3546   2.177   2.118   2.498  1.3433 -0.7784  1.5496
   27MOL0     H 3547   2.348   2.216   2.626  2.2694 -2.7766 -0.2741
   27MOL0     H 3548   2.600   2.347   2.816  1.1175 -1.5657 -0.9591
   27MOL0     H 3549   2.729   2.416   2.998  1.2731  1.4013  0.7505
   27MOL0     H 3550   1.713   2.358   3.958 -1.5238  3.4673 -2.3142
   27MOL0     H 3551   1.536   2.178   3.959 -1.6489 -3.1343 -1.5890
   27MOL0     H 3552   1.276   1.981   3.868  1.2408 -1.2508  0.0251
   27MOL0     H 3553   1.145   1.908   4.070  1.9176 -0.0066  1.9794
   27MOL0     H 3554   0.998   1.568   4.262  1.2582  0.5600  1.7259
   27MOL0     H 3555   1.140   1.482   4.181 -0.1238 -0.7554 -1.6808
   27MOL0     H 3556   1.044   1.592   3.970  2.1667  0.3223  1.4516
   27MOL0     H 3557   0.955   1.457   4.040 -2.1910  0.1452  1.5344
   27MOL0     H 3558   0.896   1.752   4.086  2.2164 -0.6788 -2.2296
   27MOL0     H 3559   0.820   1.618   4.176  2.7040 -3.6269  0.0768
   27MOL0     H 3560   0.768   1.680   3.868  2.5446  0.8946  0.9171
   27MOL0     H 3561   0.775   1.524   3.926 -2.6100 -0.2674 -0.8473
   27MOL0     H 3562   0.408   1.676   4.085 -0.2388  0.5019 -0.8219
   27MOL0     H 3563   1.369   1.549   4.097 -2.2702 -1.9308 -3.0482
   27MOL0     H 3564   1.516   1.621   3.930 -3.0198 -3.8443 -1.3755
   28MOL0     O 3565   6.703   9.198   0.475 -0.4304 -0.4039 -0.2095
   28MOL0     C 3566   6.653   9.237   0.580  0.8982  0.6948 -0.0786
   28MOL0     O 3567   6.653   9.158   0.692 -0.2233  0.1085 -0.1616
   28MOL0     C 3568   6.743   9.055   0.698 -0.5173  0.7122 -1.2323
   28MOL0     C 3569   6.878   9.063   0.660 -0.5512 -0.2463  0.2787
   28MOL0     C 3570   6.973   8.962   0.676  0.6723  0.6554  0.6543
   28MOL0     C 3571   6.933   8.844   0.741  0.3721 -0.8176  0.1148
   28MOL0     O 3572   6.996   8.725   0.749  0.5101  0.8369  0.3516
   28MOL0     C 3573   7.133   8.714   0.703 -0.7155 -0.9167  0.6525
   28MOL0     C 3574   7.176   8.575   0.721 -0.4866  0.1258 -0.2280
   28MOL0     C 3575   7.099   8.489   0.622 -1.0624  0.2696  0.6603
   28MOL0     C 3576   7.174   8.359   0.576  0.6996  0.0802 -0.3915
   28MOL0     C 3577   7.096   8.275   0.482 -0.0811  0.8300  0.4722
   28MOL0     C 3578   7.175   8.165   0.428 -0.4858  0.1963 -0.2622
   28MOL0     C 3579   7.087   8.065   0.348 -0.8455  0.2985 -0.4745
   28MOL0     C 3580   7.165   7.948   0.285  0.2201  0.8245 -1.8226
   28MOL0     N 3581   7.187   7.825   0.375 -1.0541 -1.3052  0.8785
   28MOL0     C 3582   7.195   7.689   0.329 -0.2418 -0.5783 -0.1834
   28MOL0     C 3583   7.217   7.613   0.440 -0.1446  0.6242  0.0530
   28MOL0     C 3584   7.225   7.462   0.455  0.3153  0.5276  0.8157
   28MOL0     C 3585   7.107   7.392   0.373 -0.6986 -0.4359 -1.0727
   28MOL0     C 3586   7.137   7.255   0.317  0.1067  0.1138 -0.3732
   28MOL0     C 3587   7.251   7.239   0.208 -0.1036  0.3158 -0.7461
   28MOL0     O 3588   7.222   7.317   0.092 -0.4069  0.0955 -0.3817
   28MOL0     C 3589   7.181   7.246  -0.011  0.1186  0.0417 -0.1936
   28MOL0     C 3590   7.051   7.245  -0.038  0.4765  0.2300  0.4365
   28MOL0     C 3591   6.999   7.173  -0.148  0.9712 -0.4573  0.2156
   28MOL0     C 3592   7.078   7.094  -0.235 -0.7333  1.0556  0.2662
   28MOL0     C 3593   7.008   7.015  -0.341  0.4653  0.8278 -0.3775
   28MOL0     O 3594   6.883   7.059  -0.369  1.2404  0.2607  0.5043
   28MOL0     C 3595   6.814   6.996  -0.472  0.2593  0.4355  0.2159
   28MOL0     C 3596   6.749   6.881  -0.458 -0.2537  0.0803 -0.1693
   28MOL0     C 3597   6.684   6.818  -0.566 -0.0362  0.4037  0.0504
   28MOL0     C 3598   6.678   6.885  -0.694  0.5802  0.0872 -0.7135
   28MOL0     O 3599   6.612   6.827  -0.795 -0.4068  0.0140  0.2366
   28MOL0     C 3600   6.658   6.711  -0.838 -0.9244  1.5711 -0.5222
   28MOL0     C 3601   6.576   6.666  -0.958 -0.4803 -0.1399  0.4699
   28MOL0     C 3602   6.618   6.748  -1.082  0.8300 -0.4412  0.0370
   28MOL0     C 3603   6.545   6.697  -1.205  0.0944 -0.4841  0.1792
   28MOL0     C 3604   6.584   6.791  -1.324 -1.0674  0.1531 -1.2227
   28MOL0     C 3605   6.499   6.770  -1.454  0.7516 -0.2623  0.1768
   28MOL0     C 3606   6.518   6.880  -1.566  0.2153 -0.6899  0.2557
   28MOL0     C 3607   6.645   6.853  -1.653  1.5478 -0.3714  0.3414
   28MOL0    Cl 3608   6.647   6.974  -1.771 -0.4057  0.3527  0.2584
   28MOL0     C 3609   6.745   7.007  -0.704  0.6229 -0.5716 -0.2594
   28MOL0     C 3610   6.811   7.063  -0.595  0.5873  1.1972 -0.1026
   28MOL0     O 3611   7.075   6.927  -0.406  0.3412 -0.7667 -1.3077
   28MOL0     C 3612   7.219   7.082  -0.194 -0.7126 -0.0582 -0.9447
   28MOL0     C 3613   7.268   7.155  -0.076  0.2181  1.2314  0.8614
   28MOL0     N 3614   7.217   7.704   0.548 -1.3079  0.3911 -0.1571
   28MOL0     N 3615   7.193   7.830   0.512  0.3788  0.0913  0.2781
   28MOL0     C 3616   6.800   8.827   0.785 -0.0859  0.0987  0.5636
   28MOL0     C 3617   6.707   8.932   0.762  0.8291  0.2232  0.0801
   28MOL0     C 3618   6.592   9.365   0.591  1.1035  0.3388 -0.0359
   28MOL0     C 3619   6.499   9.395   0.695 -0.0393 -0.7798  1.0357
   28MOL0     C 3620   6.432   9.517   0.681  0.7778 -0.2100 -0.4364
   28MOL0     C 3621   6.459   9.614   0.585  0.5113 -0.1714 -0.0528
   28MOL0     O 3622   6.384   9.735   0.571 -0.7778 -0.1087 -0.8613
   28MOL0     C 3623   6.334   9.791   0.692 -0.0358 -0.2748 -0.8167
   28MOL0     C 3624   6.288   9.934   0.677  0.5950 -0.5057 -0.1880
   28MOL0     C 3625   6.152   9.954   0.600 -0.0698  0.8769  0.4997
   28MOL0     C 3626   6.108  10.097   0.577  0.3606 -1.4985  0.0863
   28MOL0     C 3627   5.973  10.114   0.509  0.0676 -0.1966  0.6419
   28MOL0     C 3628   5.871  10.123   0.447  0.0132  0.7568 -0.3760
   28MOL0     C 3629   6.558   9.586   0.497  0.2324 -0.1172 -0.0691
   28MOL0     C 3630   6.610   9.459   0.489 -0.4412  0.4881  1.0077
   28MOL0     H 3631   6.924   9.147   0.609  0.3112 -1.6150 -1.3059
   28MOL0     H 3632   7.065   8.957   0.618  1.5228 -1.5093  2.0578
   28MOL0     H 3633   7.195   8.781   0.763 -0.6603 -0.0078 -0.3792
   28MOL0     H 3634   7.142   8.744   0.598 -0.2239  1.0427  1.1997
   28MOL0     H 3635   7.169   8.532   0.822 -0.3556 -1.3125 -0.8110
   28MOL0     H 3636   7.282   8.566   0.695 -0.8771  0.5744 -2.1000
   28MOL0     H 3637   7.068   8.544   0.533  0.0512 -2.7332 -1.7942
   28MOL0     H 3638   7.006   8.475   0.678 -0.6075 -1.0706  1.1233
   28MOL0     H 3639   7.270   8.381   0.530 -0.1599  0.1533 -2.2282
   28MOL0     H 3640   7.193   8.303   0.668  1.3734  3.3563  1.6179
   28MOL0     H 3641   7.052   8.336   0.403 -3.7523 -1.9548  0.0820
   28MOL0     H 3642   7.013   8.235   0.541  0.7943  1.2661  2.0638
   28MOL0     H 3643   7.224   8.111   0.510 -1.9957  1.9130  1.8866
   28MOL0     H 3644   7.252   8.207   0.362  1.3123  0.2098  1.7379
   28MOL0     H 3645   7.017   8.035   0.426  2.7393  0.2112  3.0437
   28MOL0     H 3646   7.042   8.122   0.265  0.5689 -0.9040 -2.1440
   28MOL0     H 3647   7.262   7.997   0.274 -0.8627  3.5286 -0.4243
   28MOL0     H 3648   7.100   7.923   0.200 -2.3186  0.6763  0.0473
   28MOL0     H 3649   7.153   7.654   0.235 -1.7563 -1.1577  0.6764
   28MOL0     H 3650   7.220   7.429   0.559 -4.1872  1.7366  1.1993
   28MOL0     H 3651   7.320   7.432   0.410 -0.8797  2.5169 -3.5639
   28MOL0     H 3652   7.067   7.451   0.290 -1.5075  1.6176  0.6823
   28MOL0     H 3653   7.030   7.388   0.450  0.4878  0.2232  0.1975
   28MOL0     H 3654   7.155   7.196   0.408 -0.6509  0.4801  0.0295
   28MOL0     H 3655   7.039   7.224   0.281 -0.7902 -1.0249  2.6988
   28MOL0     H 3656   7.264   7.134   0.181 -2.1629  0.5842 -3.1106
   28MOL0     H 3657   7.349   7.271   0.246 -0.6496  1.5905 -0.3735
   28MOL0     H 3658   6.988   7.304   0.027 -0.6912 -0.3806 -0.1221
   28MOL0     H 3659   6.890   7.177  -0.152  1.0446  2.3705 -1.1829
   28MOL0     H 3660   6.768   6.834  -0.362  3.2290  0.9766 -0.2802
   28MOL0     H 3661   6.633   6.724  -0.549 -0.6525  1.0531  2.0502
   28MOL0     H 3662   6.653   6.630  -0.764 -1.0447  0.3774 -1.8030
   28MOL0     H 3663   6.764   6.717  -0.864 -0.8451  0.4574 -0.5208
   28MOL0     H 3664   6.472   6.674  -0.925 -0.2169 -1.0196  1.6087
   28MOL0     H 3665   6.598   6.561  -0.975  2.0184  0.2388  0.9034
   28MOL0     H 3666   6.727   6.750  -1.092  0.8767 -1.4568  0.2526
   28MOL0     H 3667   6.585   6.852  -1.073  1.6099 -0.1238 -0.5611
   28MOL0     H 3668   6.576   6.593  -1.215  1.1168 -0.3708  1.8566
   28MOL0     H 3669   6.437   6.700  -1.189 -0.2289  2.4544 -1.6425
   28MOL0     H 3670   6.688   6.766  -1.347  0.3616  1.8015  2.6094
   28MOL0     H 3671   6.585   6.894  -1.286 -3.3104 -1.0283  2.4749
   28MOL0     H 3672   6.394   6.764  -1.422  0.2944  0.0641 -1.2143
   28MOL0     H 3673   6.518   6.674  -1.504 -1.0169 -0.3021 -0.4681
   28MOL0     H 3674   6.437   6.891  -1.640 -0.1022  0.2189  0.7210
   28MOL0     H 3675   6.536   6.970  -1.507 -3.0546 -1.1984  2.2567
   28MOL0     H 3676   6.640   6.750  -1.690 -1.3108 -0.4844  0.7844
   28MOL0     H 3677   6.734   6.865  -1.591  1.9611 -3.9006  0.6389
   28MOL0     H 3678   6.747   7.067  -0.795  5.1891  0.9610  0.5382
   28MOL0     H 3679   6.861   7.153  -0.630 -3.5200  2.8555 -2.3402
   28MOL0     H 3680   7.283   7.021  -0.257  1.9191 -0.1412  1.5984
   28MOL0     H 3681   7.358   7.134  -0.020 -0.1298 -0.4950  0.8207
   28MOL0     H 3682   6.778   8.724   0.814 -2.1467 -0.0917 -1.4196
   28MOL0     H 3683   6.600   8.924   0.782  0.5123  1.5090 -0.9495
   28MOL0     H 3684   6.477   9.323   0.774  1.2945 -0.8950  1.3292
   28MOL0     H 3685   6.358   9.532   0.759  1.7796 -0.5041  0.5935
   28MOL0     H 3686   6.414   9.792   0.767  1.1212 -0.2537 -2.0296
   28MOL0     H 3687   6.256   9.720   0.721  0.2309  0.3844  1.7510
   28MOL0     H 3688   6.277   9.977   0.777  1.4108 -2.0183  0.5749
   28MOL0     H 3689   6.370   9.989   0.630  1.2132 -0.5394  0.8291
   28MOL0     H 3690   6.071   9.900   0.651 -2.4201  1.1958 -2.5575
   28MOL0     H 3691   6.167   9.895   0.509 -0.1024 -2.2772  2.3886
   28MOL0     H 3692   6.105  10.141   0.677  0.9277 -1.0731 -0.0807
   28MOL0     H 3693   6.180  10.158   0.522  0.0164 -0.4654  0.7504
   28MOL0     H 3694   5.772  10.128   0.407 -0.7322  2.2944  1.4998
   28MOL0     H 3695   6.575   9.648   0.410  2.5043 -0.9120 -0.2404
   28MOL0     H 3696   6.676   9.430   0.408 -1.2800 -3.8632  1.6452
   29MOL0     O 3697   1.612   6.167   3.851 -0.1519  0.8325 -0.4333
   29MOL0     C 3698   1.691   6.246   3.798 -0.5396  1.1844 -0.7019
   29MOL0     O 3699   1.720   6.371   3.847 -0.8974  0.4869  0.7397
   29MOL0     C 3700   1.636   6.443   3.938  0.8402 -1.2038  0.7878
   29MOL0     C 3701   1.662   6.573   3.935  0.0928 -0.9940  0.2187
   29MOL0     C 3702   1.598   6.670   4.022 -0.3854 -0.3437 -0.4342
   29MOL0     C 3703   1.501   6.628   4.103  0.5857 -0.4560  0.3387
   29MOL0     O 3704   1.460   6.722   4.190  0.3094  0.2704  0.4710
   29MOL0     C 3705   1.441   6.679   4.317 -0.1542 -0.5380 -0.4131
   29MOL0     C 3706   1.406   6.788   4.423 -0.3733  0.5127 -0.1343
   29MOL0     C 3707   1.511   6.887   4.450 -0.9788 -0.2302 -1.1062
   29MOL0     C 3708   1.626   6.830   4.534  0.1162  0.4070 -0.7761
   29MOL0     C 3709   1.720   6.936   4.594  0.1075  0.3030  0.6227
   29MOL0     C 3710   1.646   6.992   4.716 -0.5230  0.6307  0.5198
   29MOL0     C 3711   1.737   7.092   4.795  0.3404 -0.1371  0.1092
   29MOL0     C 3712   1.650   7.164   4.898 -0.4722 -0.6575 -0.6653
   29MOL0     N 3713   1.743   7.264   4.972  0.1764 -0.3175 -0.2108
   29MOL0     C 3714   1.803   7.234   5.086  0.3337 -0.6227  0.2340
   29MOL0     C 3715   1.859   7.339   5.133 -0.1843 -0.4969 -0.5857
   29MOL0     C 3716   1.919   7.369   5.272 -0.0279 -0.0723 -0.5531
   29MOL0     C 3717   1.902   7.527   5.303 -0.1498  0.1426 -0.1029
   29MOL0     C 3718   1.941   7.551   5.449 -0.4221 -0.2021  0.0932
   29MOL0     C 3719   1.996   7.690   5.479  0.0855  0.8646 -0.6551
   29MOL0     O 3720   1.882   7.777   5.471 -0.3162 -0.4464 -0.0880
   29MOL0     C 3721   1.877   7.878   5.571 -0.7722 -0.3808 -0.1417
   29MOL0     C 3722   1.761   7.944   5.582  0.1974 -0.6104  0.0323
   29MOL0     C 3723   1.747   8.030   5.689  0.6807  0.4189  0.0417
   29MOL0     C 3724   1.851   8.071   5.781 -0.6083 -0.1740  0.8998
   29MOL0     C 3725   1.821   8.174   5.884  0.2854  0.0808  0.0178
   29MOL0     O 3726   1.904   8.163   5.994 -0.7269  0.1924  0.5999
   29MOL0     C 3727   1.857   8.217   6.111 -0.3805 -0.1071  1.0537
   29MOL0     C 3728   1.804   8.140   6.204 -0.2388 -0.7668 -0.4255
   29MOL0     C 3729   1.757   8.198   6.322 -0.0578  0.4285 -0.1246
   29MOL0     C 3730   1.773   8.329   6.354 -0.2548 -0.3679  0.5782
   29MOL0     O 3731   1.749   8.382   6.477  0.0244 -0.3267  0.2531
   29MOL0     C 3732   1.746   8.290   6.589  0.5285  0.2102 -0.1944
   29MOL0     C 3733   1.727   8.365   6.717  0.3055 -0.1667 -1.4116
   29MOL0     C 3734   1.821   8.309   6.837 -0.6203 -1.1185  0.8200
   29MOL0     C 3735   1.825   8.406   6.945  0.1206  0.1976  0.3485
   29MOL0     C 3736   1.835   8.324   7.078 -0.4067  0.0625  0.1856
   29MOL0     C 3737   1.974   8.291   7.115  0.1601  0.2581  0.1694
   29MOL0     C 3738   1.978   8.237   7.254 -0.3901 -0.1838  0.8530
   29MOL0     C 3739   2.120   8.174   7.275 -0.2535 -0.2582 -1.4186
   29MOL0    Cl 3740   2.129   8.132   7.447 -0.5013  0.1976 -0.0644
   29MOL0     C 3741   1.824   8.413   6.254  0.4316  0.5458  0.0778
   29MOL0     C 3742   1.863   8.353   6.134  0.3737 -0.0664  0.6877
   29MOL0     O 3743   1.720   8.255   5.876 -0.7494 -0.2245  0.3735
   29MOL0     C 3744   1.971   8.008   5.769 -0.3160  0.2969 -0.1617
   29MOL0     C 3745   1.981   7.909   5.663 -0.1380 -0.8082 -0.0432
   29MOL0     N 3746   1.827   7.439   5.042 -0.3556 -1.0907 -0.4843
   29MOL0     N 3747   1.759   7.393   4.933  0.5854 -0.1957 -0.1695
   29MOL0     C 3748   1.469   6.485   4.101  0.4036 -0.8862  0.1003
   29MOL0     C 3749   1.538   6.396   4.027  0.1481  0.2425 -0.1024
   29MOL0     C 3750   1.772   6.185   3.679  0.5997 -0.1103  0.0347
   29MOL0     C 3751   1.721   6.088   3.592 -0.3924  0.1034 -0.1052
   29MOL0     C 3752   1.782   6.052   3.473 -1.4879 -0.1113  0.1872
   29MOL0     C 3753   1.898   6.119   3.428  0.3166  0.2836 -0.7994
   29MOL0     O 3754   1.958   6.060   3.320  0.3751  0.5318 -0.2104
   29MOL0     C 3755   2.094   6.023   3.354  0.1151  0.1568 -0.0955
   29MOL0     C 3756   2.136   5.901   3.270  0.8046  0.1929  0.5604
   29MOL0     C 3757   2.107   5.758   3.333 -0.5623  0.4301 -0.2600
   29MOL0     C 3758   2.143   5.632   3.251 -0.0263 -0.0410 -0.1494
   29MOL0     C 3759   2.029   5.579   3.174  0.0764 -0.7458 -0.1020
   29MOL0     C 3760   1.955   5.518   3.094 -0.2973  0.6919  0.3174
   29MOL0     C 3761   1.960   6.206   3.512 -0.0829 -0.6191 -0.0922
   29MOL0     C 3762   1.895   6.243   3.635 -0.2902 -0.7901 -0.5306
   29MOL0     H 3763   1.740   6.598   3.864 -1.6266 -1.4175 -1.8995
   29MOL0     H 3764   1.617   6.775   4.042 -1.4508 -0.2650  0.2208
   29MOL0     H 3765   1.531   6.622   4.341  1.1147  0.2789 -2.7707
   29MOL0     H 3766   1.358   6.609   4.327 -0.7078  0.0776 -0.6027
   29MOL0     H 3767   1.372   6.736   4.514 -0.6287  2.4085  0.8966
   29MOL0     H 3768   1.319   6.840   4.381 -1.0349 -1.3348 -1.1694
   29MOL0     H 3769   1.462   6.964   4.510  2.0676  0.3018  0.9402
   29MOL0     H 3770   1.554   6.943   4.366 -0.8105  2.5048  0.7058
   29MOL0     H 3771   1.577   6.766   4.608 -1.5844 -0.0184 -2.1953
   29MOL0     H 3772   1.695   6.772   4.472  0.2575 -1.5929  1.1591
   29MOL0     H 3773   1.750   7.006   4.515  2.9186 -0.2471  1.1026
   29MOL0     H 3774   1.812   6.883   4.619 -0.0653 -1.2778 -1.6631
   29MOL0     H 3775   1.604   6.916   4.781  1.8750 -0.7724  0.5577
   29MOL0     H 3776   1.565   7.048   4.669 -0.9987  1.6117  2.4303
   29MOL0     H 3777   1.820   7.047   4.850  0.8247  0.2257 -0.3151
   29MOL0     H 3778   1.757   7.175   4.728  0.6727  1.1533  1.7565
   29MOL0     H 3779   1.603   7.101   4.974  0.2226  0.0567  0.3812
   29MOL0     H 3780   1.581   7.233   4.849  2.2990  2.1297 -0.9821
   29MOL0     H 3781   1.791   7.147   5.149  2.5192  1.4726  3.8980
   29MOL0     H 3782   2.021   7.329   5.276  0.1423 -0.5183 -4.8180
   29MOL0     H 3783   1.853   7.310   5.335  0.4159  0.7591  0.7354
   29MOL0     H 3784   1.795   7.545   5.296 -0.5861 -2.4820 -1.3671
   29MOL0     H 3785   1.959   7.584   5.229 -0.1455  0.0940 -0.1374
   29MOL0     H 3786   1.854   7.513   5.504 -1.3052  1.1941 -0.2987
   29MOL0     H 3787   2.024   7.486   5.478  0.9412  1.9440  1.2238
   29MOL0     H 3788   2.076   7.735   5.418  1.8770  0.4881  1.2859
   29MOL0     H 3789   2.049   7.680   5.574 -1.7116 -1.0044  0.2163
   29MOL0     H 3790   1.680   7.937   5.510 -0.0137 -1.8996  0.3814
   29MOL0     H 3791   1.644   8.063   5.699 -0.2234 -1.9022 -0.9435
   29MOL0     H 3792   1.800   8.032   6.198 -1.1496 -0.9919  2.6727
   29MOL0     H 3793   1.691   8.130   6.375  0.8306 -3.0804 -3.1358
   29MOL0     H 3794   1.841   8.236   6.593  0.9326  0.5292 -2.9959
   29MOL0     H 3795   1.671   8.210   6.585  0.9484 -0.1585 -0.9015
   29MOL0     H 3796   1.623   8.369   6.750  1.0066 -0.2302  0.9771
   29MOL0     H 3797   1.763   8.467   6.698  0.7531  0.0498  0.3992
   29MOL0     H 3798   1.926   8.296   6.810 -0.4828  2.0121 -0.6103
   29MOL0     H 3799   1.780   8.213   6.870 -1.1828 -1.1702 -0.0075
   29MOL0     H 3800   1.910   8.475   6.939 -0.0533  0.6545  2.3200
   29MOL0     H 3801   1.733   8.465   6.942  1.1945  1.8935 -2.4002
   29MOL0     H 3802   1.776   8.232   7.071 -2.2525  1.2234 -0.4082
   29MOL0     H 3803   1.784   8.389   7.150 -4.9509 -1.0287 -1.6992
   29MOL0     H 3804   2.040   8.376   7.097  2.0035 -0.9069  1.1065
   29MOL0     H 3805   1.998   8.213   7.042 -0.7096  0.8982 -0.8279
   29MOL0     H 3806   1.960   8.318   7.326  2.0247  1.0459  0.1689
   29MOL0     H 3807   1.914   8.150   7.271 -0.1050 -0.2554  1.6149
   29MOL0     H 3808   2.206   8.236   7.249 -0.7551  0.8293 -0.5742
   29MOL0     H 3809   2.117   8.080   7.219 -0.5994 -1.5786  0.6878
   29MOL0     H 3810   1.841   8.519   6.267 -0.9426  0.7126  0.6321
   29MOL0     H 3811   1.917   8.415   6.062 -0.5458  0.5671  0.5201
   29MOL0     H 3812   2.049   8.022   5.844 -0.5028  0.5876 -0.0228
   29MOL0     H 3813   2.080   7.869   5.640  1.3862  3.2905 -1.4931
   29MOL0     H 3814   1.398   6.449   4.175 -0.7069 -1.7503 -1.3281
   29MOL0     H 3815   1.524   6.294   4.060 -0.6127  1.0836  2.3813
   29MOL0     H 3816   1.632   6.039   3.630  1.0290 -0.9560  2.0480
   29MOL0     H 3817   1.740   5.974   3.410 -0.0853  1.2715 -2.6562
   29MOL0     H 3818   2.099   5.977   3.453 -0.1144 -0.8506 -0.5388
   29MOL0     H 3819   2.163   6.106   3.338  0.1316 -0.0237 -1.0051
   29MOL0     H 3820   2.080   5.910   3.177  0.7060  0.3602  0.6354
   29MOL0     H 3821   2.242   5.909   3.243  0.9808 -2.4204  0.3040
   29MOL0     H 3822   1.999   5.760   3.351 -0.4575  1.4268  0.3033
   29MOL0     H 3823   2.162   5.748   3.427 -0.5434 -0.8260 -0.3782
   29MOL0     H 3824   2.227   5.645   3.182  1.2514  0.6727  1.4706
   29MOL0     H 3825   2.173   5.558   3.326  0.3818  0.5260  0.2469
   29MOL0     H 3826   1.896   5.454   3.031  0.9935 -2.1258  1.8078
   29MOL0     H 3827   2.052   6.257   3.485 -0.0358  2.4172  4.6759
   29MOL0     H 3828   1.939   6.315   3.703  2.1903 -0.9820 -1.8371
   30MOL0     O 3829   0.291   4.057   2.471 -0.0369 -0.3040  0.2559
   30MOL0     C 3830   0.377   4.028   2.390  0.4622 -1.0394  0.6589
   30MOL0     O 3831   0.351   3.963   2.273 -0.6934  0.4317  0.8290
   30MOL0     C 3832   0.223   3.937   2.234  0.0900 -0.1287  0.6037
   30MOL0     C 3833   0.137   3.837   2.279  0.3901  0.0345  0.4114
   30MOL0     C 3834   0.000   3.834   2.242  0.0742 -0.2333  0.4688
   30MOL0     C 3835  -0.055   3.913   2.142 -0.0549  0.4608 -0.0654
   30MOL0     O 3836  -0.188   3.906   2.111 -0.4154 -0.6515 -0.2940
   30MOL0     C 3837  -0.246   3.778   2.088  0.3534  0.4447  0.1748
   30MOL0     C 3838  -0.401   3.782   2.092  0.1840  0.1862  0.2015
   30MOL0     C 3839  -0.469   3.657   2.138 -0.7723  0.3165  1.3009
   30MOL0     C 3840  -0.421   3.521   2.059  0.4798  0.5457  0.3636
   30MOL0     C 3841  -0.514   3.403   2.085  0.1166 -0.4934 -0.8355
   30MOL0     C 3842  -0.618   3.390   1.978  0.4059 -0.2642 -0.1141
   30MOL0     C 3843  -0.723   3.282   2.010  0.5549  0.9238 -0.1973
   30MOL0     C 3844  -0.825   3.283   1.895 -0.5607  0.5171  0.8160
   30MOL0     N 3845  -0.777   3.239   1.765 -0.5605  0.2420  0.0864
   30MOL0     C 3846  -0.698   3.124   1.745  0.2548  0.9487 -0.6662
   30MOL0     C 3847  -0.675   3.125   1.610 -0.9427  0.2689 -0.2833
   30MOL0     C 3848  -0.583   3.031   1.531 -0.0687 -0.2416 -0.2170
   30MOL0     C 3849  -0.432   3.089   1.537 -0.1121 -0.1345  0.3606
   30MOL0     C 3850  -0.365   3.072   1.677  0.5354  0.2316 -0.8111
   30MOL0     C 3851  -0.208   3.092   1.658  0.3664  0.0767 -0.2415
   30MOL0     O 3852  -0.142   3.032   1.777  0.3810  0.3411  0.7478
   30MOL0     C 3853  -0.164   3.102   1.889  1.4411  0.5472  0.5068
   30MOL0     C 3854  -0.244   3.051   1.989 -0.9761 -0.9218  1.5302
   30MOL0     C 3855  -0.256   3.117   2.115  0.2286 -0.3896  0.5386
   30MOL0     C 3856  -0.195   3.248   2.135  0.4494  0.0476  0.3647
   30MOL0     C 3857  -0.186   3.316   2.275  1.2481  0.3383 -0.5053
   30MOL0     O 3858  -0.101   3.421   2.298 -0.3925 -0.0224 -0.0867
   30MOL0     C 3859  -0.115   3.490   2.423  0.3960 -0.7644  0.8007
   30MOL0     C 3860  -0.244   3.537   2.459 -0.1508  0.7766 -1.2543
   30MOL0     C 3861  -0.258   3.634   2.556  0.0101 -0.7438 -0.7278
   30MOL0     C 3862  -0.137   3.670   2.624 -0.2496  0.0750 -0.4465
   30MOL0     O 3863  -0.165   3.764   2.716  0.0607  0.5781 -0.3675
   30MOL0     C 3864  -0.086   3.802   2.823 -1.8531 -0.5396 -0.5981
   30MOL0     C 3865  -0.169   3.880   2.933 -1.3241 -0.8992 -1.0900
   30MOL0     C 3866  -0.230   3.776   3.025  0.2435 -0.4145  0.7735
   30MOL0     C 3867  -0.332   3.833   3.118  0.3430 -0.2467 -0.9212
   30MOL0     C 3868  -0.265   3.892   3.244  0.9751 -0.1337 -0.2072
   30MOL0     C 3869  -0.384   3.928   3.341  0.1742  0.0680  0.7120
   30MOL0     C 3870  -0.322   3.975   3.472  0.0851  0.0542 -0.3524
   30MOL0     C 3871  -0.425   4.010   3.578  0.5703  0.1468 -0.0690
   30MOL0    Cl 3872  -0.479   3.853   3.646  0.0106 -0.2645  0.2247
   30MOL0     C 3873  -0.010   3.622   2.589 -0.6849 -0.0429 -0.7510
   30MOL0     C 3874   0.006   3.526   2.484  0.3381  0.4597 -0.2238
   30MOL0     O 3875  -0.265   3.270   2.356 -0.1866  0.5430 -0.9961
   30MOL0     C 3876  -0.122   3.295   2.023 -0.0077  0.2972 -0.6509
   30MOL0     C 3877  -0.111   3.228   1.906  0.6309  0.6150  0.6338
   30MOL0     N 3878  -0.713   3.247   1.553 -0.1590  0.3188  0.9326
   30MOL0     N 3879  -0.771   3.316   1.652  0.5317  0.7141  0.7244
   30MOL0     C 3880   0.020   4.022   2.098 -0.7723  1.0057 -0.0969
   30MOL0     C 3881   0.160   4.033   2.141  0.0122  0.4714  0.7409
   30MOL0     C 3882   0.520   4.060   2.416  0.6039 -0.4160 -0.4251
   30MOL0     C 3883   0.566   4.105   2.541 -0.8831  0.1839 -0.3051
   30MOL0     C 3884   0.699   4.112   2.571  0.3751  0.2592  0.3169
   30MOL0     C 3885   0.797   4.089   2.472 -0.0870  0.6855 -0.5269
   30MOL0     O 3886   0.931   4.097   2.507 -0.4026  0.7630  0.1973
   30MOL0     C 3887   1.028   4.041   2.423 -0.5832 -0.1253  0.4101
   30MOL0     C 3888   1.117   4.145   2.353  0.0603  0.7333  0.3676
   30MOL0     C 3889   1.024   4.221   2.250 -0.5549 -0.2018 -0.3165
   30MOL0     C 3890   1.085   4.345   2.185 -1.1077  0.1106  0.7487
   30MOL0     C 3891   1.178   4.285   2.087  0.1664  0.1267  0.6941
   30MOL0     C 3892   1.244   4.230   1.997 -0.6833 -0.5382 -0.6593
   30MOL0     C 3893   0.746   4.056   2.346 -0.1760  0.3159  0.8075
   30MOL0     C 3894   0.614   4.049   2.312  0.3325  0.9300 -1.0596
   30MOL0     H 3895   0.181   3.754   2.335 -0.0605 -0.9259 -0.6191
   30MOL0     H 3896  -0.060   3.765   2.300 -1.8380 -0.6199 -1.8086
   30MOL0     H 3897  -0.224   3.716   2.175 -0.6325 -0.0547  0.0838
   30MOL0     H 3898  -0.203   3.732   1.998  2.0625 -1.6204  1.9257
   30MOL0     H 3899  -0.420   3.791   1.984  1.7632 -3.5224 -0.5544
   30MOL0     H 3900  -0.436   3.868   2.149  2.8642 -0.1680  2.6430
   30MOL0     H 3901  -0.578   3.666   2.131 -0.8010  1.0517  2.4580
   30MOL0     H 3902  -0.450   3.638   2.244 -0.0937  1.1418  1.3291
   30MOL0     H 3903  -0.407   3.528   1.950  3.2437 -1.4334  0.5039
   30MOL0     H 3904  -0.326   3.492   2.103 -0.6492  0.3623  2.8255
   30MOL0     H 3905  -0.557   3.394   2.185 -0.4366 -2.2110 -1.2007
   30MOL0     H 3906  -0.452   3.313   2.075  0.0231 -0.7800  0.8636
   30MOL0     H 3907  -0.569   3.358   1.886 -0.8062 -1.5807 -0.3362
   30MOL0     H 3908  -0.667   3.487   1.968 -0.9874 -0.9597 -0.3126
   30MOL0     H 3909  -0.675   3.185   2.027 -0.8341  0.5093  1.7448
   30MOL0     H 3910  -0.769   3.302   2.108  0.2333 -1.6390  0.2337
   30MOL0     H 3911  -0.856   3.386   1.876 -3.1667 -0.0543  1.5931
   30MOL0     H 3912  -0.913   3.221   1.912 -1.6678  1.4307 -1.3136
   30MOL0     H 3913  -0.665   3.050   1.817 -1.5564  0.4739 -0.2659
   30MOL0     H 3914  -0.619   3.017   1.428 -0.2320  0.1719 -0.2181
   30MOL0     H 3915  -0.582   2.932   1.577  3.3041  0.8526  2.5050
   30MOL0     H 3916  -0.450   3.191   1.501 -0.3365 -0.1944  0.3021
   30MOL0     H 3917  -0.384   3.030   1.459 -2.5946  0.2915 -1.6352
   30MOL0     H 3918  -0.406   3.144   1.749  3.0737 -0.9675  2.0492
   30MOL0     H 3919  -0.395   2.974   1.715 -0.8438  0.4785 -1.2069
   30MOL0     H 3920  -0.193   3.201   1.652 -1.0978  0.2660 -0.8794
   30MOL0     H 3921  -0.183   3.041   1.564 -0.7149  1.2321 -1.1931
   30MOL0     H 3922  -0.279   2.949   1.974  1.4194 -1.2694 -4.5976
   30MOL0     H 3923  -0.312   3.065   2.192  1.0038 -2.1837 -0.0471
   30MOL0     H 3924  -0.330   3.513   2.397 -0.5718  1.5002 -0.9685
   30MOL0     H 3925  -0.354   3.677   2.584 -0.5991 -1.6246 -1.4440
   30MOL0     H 3926  -0.009   3.867   2.779 -1.4716 -1.4382 -1.2873
   30MOL0     H 3927  -0.039   3.719   2.876 -0.8681 -0.3274 -1.1132
   30MOL0     H 3928  -0.248   3.943   2.891 -0.7867  0.8685  0.4208
   30MOL0     H 3929  -0.103   3.942   2.995 -2.2634  1.0116 -1.9099
   30MOL0     H 3930  -0.162   3.707   3.077  1.2617 -0.5661 -0.7107
   30MOL0     H 3931  -0.286   3.708   2.960 -0.7307 -0.7197  1.8781
   30MOL0     H 3932  -0.387   3.914   3.068  3.8089  3.3966  0.6124
   30MOL0     H 3933  -0.386   3.747   3.156  0.3658  0.1696  0.0699
   30MOL0     H 3934  -0.206   3.982   3.221 -0.8285  1.7563  2.0584
   30MOL0     H 3935  -0.195   3.824   3.294 -0.6327  0.7711  3.5626
   30MOL0     H 3936  -0.446   3.841   3.360  1.3363 -1.1654 -0.7931
   30MOL0     H 3937  -0.440   4.015   3.307  2.0808  2.0538  2.3176
   30MOL0     H 3938  -0.248   3.902   3.508  3.1985  4.1349  2.5190
   30MOL0     H 3939  -0.268   4.068   3.451 -3.8789  2.7919  0.4997
   30MOL0     H 3940  -0.508   4.069   3.539  2.5356  2.6558 -0.6799
   30MOL0     H 3941  -0.386   4.068   3.661 -1.7076 -1.3719  2.2112
   30MOL0     H 3942   0.082   3.642   2.642  0.1108 -2.0515 -1.2873
   30MOL0     H 3943   0.098   3.483   2.447  0.7464 -0.8934  2.1776
   30MOL0     H 3944  -0.057   3.382   2.032 -0.6204  0.6438  0.6409
   30MOL0     H 3945  -0.048   3.270   1.828 -0.2490  0.7880 -0.0037
   30MOL0     H 3946  -0.027   4.097   2.035  1.2033  0.4632 -2.3773
   30MOL0     H 3947   0.214   4.116   2.097 -1.1946 -0.3600 -2.5540
   30MOL0     H 3948   0.489   4.121   2.615 -1.5032  2.5532 -1.3631
   30MOL0     H 3949   0.734   4.137   2.671  1.0565 -0.9540  0.3988
   30MOL0     H 3950   0.988   3.969   2.350  1.9098 -1.4956  0.3038
   30MOL0     H 3951   1.102   3.984   2.479 -1.4878 -1.5903  0.1779
   30MOL0     H 3952   1.168   4.224   2.410  0.0390  2.0213 -1.3314
   30MOL0     H 3953   1.198   4.106   2.292 -0.5343  0.6856 -0.4021
   30MOL0     H 3954   0.941   4.245   2.317 -1.8801 -2.6475 -0.9609
   30MOL0     H 3955   0.987   4.159   2.169  0.8434 -0.7876 -0.5309
   30MOL0     H 3956   1.015   4.402   2.125 -0.1740 -2.8546 -3.6195
   30MOL0     H 3957   1.133   4.406   2.262  4.4722 -2.6964  0.0229
   30MOL0     H 3958   1.289   4.183   1.912  0.0542 -3.1083  1.0207
   30MOL0     H 3959   0.815   4.033   2.265 -1.3761  0.4791 -0.2853
   30MOL0     H 3960   0.595   4.026   2.208  0.8489  3.2272 -1.7115
   31MOL0     O 3961  10.432   0.006   6.402  0.4323  0.6437  0.6243
   31MOL0     C 3962  10.392  -0.102   6.357  0.5842  0.8576 -0.5043
   31MOL0     O 3963  10.453  -0.159   6.246 -0.3695  0.7244 -0.0235
   31MOL0     C 3964  10.563  -0.094   6.187  0.1342  0.6735 -0.5800
   31MOL0     C 3965  10.677  -0.062   6.264  0.4198  0.5864  0.2840
   31MOL0     C 3966  10.794  -0.028   6.199 -0.0585  0.0782 -0.2738
   31MOL0     C 3967  10.803  -0.023   6.059  1.1565  0.8389  0.0357
   31MOL0     O 3968  10.922   0.023   6.009 -0.0493  0.2101  0.2380
   31MOL0     C 3969  10.938   0.014   5.869 -0.1010  0.6021  0.3347
   31MOL0     C 3970  11.084   0.044   5.810  0.4847  0.3768  0.7385
   31MOL0     C 3971  11.126   0.189   5.822 -0.4556  0.3472 -0.5337
   31MOL0     C 3972  11.025   0.302   5.766  0.0895  0.7856 -0.1030
   31MOL0     C 3973  11.002   0.288   5.616  0.4567 -1.0666  0.8893
   31MOL0     C 3974  10.995   0.422   5.528  0.4324  0.2433 -0.7684
   31MOL0     C 3975  11.128   0.455   5.480 -0.1303  0.7365 -0.2273
   31MOL0     C 3976  11.140   0.601   5.459  0.2575  0.1581 -0.0049
   31MOL0     N 3977  11.025   0.677   5.393 -0.5695 -0.3438 -0.3778
   31MOL0     C 3978  10.942   0.768   5.464 -0.4249 -0.2459  0.3167
   31MOL0     C 3979  10.865   0.839   5.373  0.5497  0.2151 -0.5167
   31MOL0     C 3980  10.762   0.943   5.401 -0.6854 -0.3200 -0.2534
   31MOL0     C 3981  10.621   0.876   5.406 -0.6788 -1.1064 -1.4873
   31MOL0     C 3982  10.519   0.971   5.466  1.0718 -1.2390  0.3443
   31MOL0     C 3983  10.375   0.909   5.476 -0.0525  0.8893  0.1388
   31MOL0     O 3984  10.318   0.913   5.344  0.1210 -0.6075  0.0027
   31MOL0     C 3985  10.232   0.819   5.308 -0.8055  0.1161 -1.2646
   31MOL0     C 3986  10.094   0.844   5.295  0.5654  0.4078  0.5990
   31MOL0     C 3987   9.998   0.745   5.264 -0.7724  0.1732  0.6773
   31MOL0     C 3988  10.050   0.616   5.221 -0.3453 -0.0099 -0.2445
   31MOL0     C 3989   9.955   0.508   5.182  0.1737 -0.3106 -0.7962
   31MOL0     O 3990   9.827   0.542   5.185 -0.0906  1.0440 -0.2849
   31MOL0     C 3991   9.734   0.446   5.132 -0.1324  0.3555 -0.6017
   31MOL0     C 3992   9.726   0.305   5.170 -0.6580 -0.5769  0.2045
   31MOL0     C 3993   9.628   0.223   5.110 -0.4909 -0.2665 -0.0349
   31MOL0     C 3994   9.529   0.284   5.036 -0.1510 -0.9846 -0.1703
   31MOL0     O 3995   9.427   0.216   4.972 -0.1019  0.1694  0.7455
   31MOL0     C 3996   9.374   0.101   5.041 -1.2507 -1.1155  0.2630
   31MOL0     C 3997   9.224   0.118   5.041 -0.2870  0.4121 -0.1278
   31MOL0     C 3998   9.148  -0.002   5.094 -0.7153 -0.6798 -1.2661
   31MOL0     C 3999   9.015   0.039   5.140  0.7329  0.2615 -0.0189
   31MOL0     C 4000   8.955  -0.069   5.235 -0.6829  0.2677 -0.0948
   31MOL0     C 4001   8.800  -0.082   5.226 -0.3932 -0.7601  0.5509
   31MOL0     C 4002   8.728   0.043   5.269 -0.2501 -0.1575  0.4287
   31MOL0     C 4003   8.747   0.069   5.418 -0.4314  0.4094  0.0148
   31MOL0    Cl 4004   8.645  -0.044   5.517  0.2940  0.1277  0.3163
   31MOL0     C 4005   9.531   0.422   5.015  0.1059 -0.8091  0.4213
   31MOL0     C 4006   9.633   0.505   5.057  0.1070 -0.1254 -0.7947
   31MOL0     O 4007   9.997   0.398   5.153  0.7557  0.2200 -0.7730
   31MOL0     C 4008  10.184   0.587   5.238 -0.8874 -0.1683 -1.0697
   31MOL0     C 4009  10.277   0.691   5.270  0.7278 -0.1136 -0.6693
   31MOL0     N 4010  10.888   0.784   5.243  0.0424  0.2719 -0.0845
   31MOL0     N 4011  10.994   0.696   5.260  0.1026 -0.5138  0.0885
   31MOL0     C 4012  10.677  -0.047   5.988  0.0401 -0.3688  0.4796
   31MOL0     C 4013  10.558  -0.079   6.051  0.2510  0.3736 -0.3419
   31MOL0     C 4014  10.261  -0.148   6.419  0.2414  0.3182  0.8649
   31MOL0     C 4015  10.216  -0.104   6.544 -0.3866  0.0718  1.1185
   31MOL0     C 4016  10.104  -0.155   6.597  0.3302  0.2571  0.0129
   31MOL0     C 4017  10.030  -0.261   6.536 -0.0984  0.5257  0.1728
   31MOL0     O 4018   9.934  -0.331   6.596  0.2675  0.5625  0.3851
   31MOL0     C 4019   9.870  -0.279   6.721  0.1909  0.6309 -0.9967
   31MOL0     C 4020   9.821  -0.392   6.793  0.1426  0.4779 -0.6869
   31MOL0     C 4021   9.687  -0.451   6.733 -0.1227  0.0382 -0.2563
   31MOL0     C 4022   9.626  -0.572   6.807 -0.6030 -0.3772 -0.4740
   31MOL0     C 4023   9.529  -0.625   6.715 -0.5401 -0.2087 -1.0370
   31MOL0     C 4024   9.442  -0.681   6.646 -0.2546  0.3550  1.0802
   31MOL0     C 4025  10.063  -0.297   6.403 -0.0289  0.2957  1.0063
   31MOL0     C 4026  10.175  -0.242   6.350 -0.3204  0.0424  0.0253
   31MOL0     H 4027  10.675  -0.068   6.372 -2.4433  1.7572  0.3578
   31MOL0     H 4028  10.888   0.004   6.242 -0.0812 -0.5643  0.2822
   31MOL0     H 4029  10.864   0.072   5.812 -0.3876  0.1197  0.2046
   31MOL0     H 4030  10.908  -0.087   5.837  0.2090  0.6615 -0.1411
   31MOL0     H 4031  11.085   0.016   5.704  1.1196 -0.6691  1.0107
   31MOL0     H 4032  11.158  -0.026   5.850  1.3443  1.4093  1.0039
   31MOL0     H 4033  11.220   0.197   5.768 -0.8837  1.0013 -1.2140
   31MOL0     H 4034  11.140   0.214   5.928  0.7087 -3.0608  0.2322
   31MOL0     H 4035  10.935   0.278   5.822  1.4026 -2.5838  0.7610
   31MOL0     H 4036  11.065   0.404   5.778  3.7735 -0.3304 -1.3367
   31MOL0     H 4037  10.905   0.238   5.602  0.2969 -0.1863 -1.5502
   31MOL0     H 4038  11.077   0.223   5.572  1.6245 -0.0387  1.3090
   31MOL0     H 4039  10.950   0.495   5.595  0.7386  0.0082 -0.2978
   31MOL0     H 4040  10.921   0.405   5.450  0.9662 -2.6744 -0.7755
   31MOL0     H 4041  11.202   0.430   5.556  2.0831  0.2175 -2.4219
   31MOL0     H 4042  11.156   0.410   5.385 -2.7991 -1.5671 -0.0198
   31MOL0     H 4043  11.227   0.608   5.393 -0.2691 -0.0256 -0.7314
   31MOL0     H 4044  11.159   0.656   5.551  2.6947 -3.9176  2.2419
   31MOL0     H 4045  10.949   0.805   5.566  0.4892 -0.3847  0.3042
   31MOL0     H 4046  10.763   1.028   5.332  0.6091  0.4583  0.6790
   31MOL0     H 4047  10.782   0.995   5.495  0.8084 -0.0547 -0.6832
   31MOL0     H 4048  10.625   0.782   5.463 -0.7709 -1.0008 -1.3075
   31MOL0     H 4049  10.592   0.843   5.305 -0.1636 -1.7096 -1.4453
   31MOL0     H 4050  10.549   1.010   5.564 -0.8601 -0.1563  0.5572
   31MOL0     H 4051  10.519   1.062   5.405  2.3922 -2.8067 -2.1446
   31MOL0     H 4052  10.312   0.957   5.551 -2.7955 -2.3555  0.1609
   31MOL0     H 4053  10.380   0.806   5.512 -1.2080  0.9185  0.4435
   31MOL0     H 4054  10.058   0.943   5.322  0.5821  2.3914 -5.3540
   31MOL0     H 4055   9.890   0.748   5.263 -0.7592  1.2568  1.4912
   31MOL0     H 4056   9.802   0.262   5.234  1.4788 -1.2400 -2.5451
   31MOL0     H 4057   9.633   0.116   5.129 -2.7577 -0.0122  2.5869
   31MOL0     H 4058   9.418   0.089   5.140  1.0707  0.5261 -0.4500
   31MOL0     H 4059   9.412   0.012   4.990  0.6644 -0.7467  0.9628
   31MOL0     H 4060   9.185   0.142   4.941  1.6011 -1.7748 -1.5067
   31MOL0     H 4061   9.203   0.201   5.108 -1.0125  1.4887 -1.6312
   31MOL0     H 4062   9.212  -0.047   5.171 -0.0386 -0.8129 -1.8933
   31MOL0     H 4063   9.124  -0.071   5.013 -5.5683 -0.0517 -0.6629
   31MOL0     H 4064   9.023   0.139   5.184  3.4511  1.1001 -2.1218
   31MOL0     H 4065   8.959   0.051   5.047  1.9298 -0.0162 -0.8110
   31MOL0     H 4066   8.992  -0.046   5.336 -1.0429 -2.6182  0.7644
   31MOL0     H 4067   8.998  -0.165   5.204 -3.9899 -1.1303 -0.7734
   31MOL0     H 4068   8.765  -0.160   5.294  0.0228 -1.0199  0.4679
   31MOL0     H 4069   8.772  -0.102   5.122  0.2801 -1.7442  0.5465
   31MOL0     H 4070   8.781   0.112   5.203  3.3653 -2.5054  0.6000
   31MOL0     H 4071   8.621   0.041   5.246  0.1839  4.1440 -3.3980
   31MOL0     H 4072   8.723   0.173   5.443  1.5493  1.2303 -1.2197
   31MOL0     H 4073   8.854   0.060   5.437  0.1418  3.9672 -0.8646
   31MOL0     H 4074   9.448   0.465   4.959 -0.7240 -3.0040 -0.1483
   31MOL0     H 4075   9.630   0.613   5.053  2.0495  0.1933  2.8814
   31MOL0     H 4076  10.211   0.484   5.221  1.9091 -0.0449  1.7492
   31MOL0     H 4077  10.382   0.664   5.274  0.9010  0.5710  2.3041
   31MOL0     H 4078  10.673  -0.046   5.880 -2.5295  0.6787  0.5250
   31MOL0     H 4079  10.470  -0.111   5.996 -0.5777 -1.4847  1.9494
   31MOL0     H 4080  10.270  -0.021   6.589 -3.4846  3.8332 -1.4481
   31MOL0     H 4081  10.080  -0.109   6.693  1.8395 -1.8861  1.4995
   31MOL0     H 4082   9.784  -0.218   6.691  1.5865  3.8753  1.1125
   31MOL0     H 4083   9.935  -0.223   6.788  1.9709  0.1490 -2.2574
   31MOL0     H 4084   9.899  -0.469   6.790  3.2639  3.3117  1.1107
   31MOL0     H 4085   9.816  -0.364   6.899 -1.9079 -0.4941 -0.4774
   31MOL0     H 4086   9.705  -0.473   6.628  0.3875 -0.6121 -0.0350
   31MOL0     H 4087   9.611  -0.372   6.732 -0.4207 -0.2453 -0.9387
   31MOL0     H 4088   9.702  -0.649   6.821 -0.4050 -0.4615 -1.8876
   31MOL0     H 4089   9.581  -0.548   6.904 -2.3991  0.5674 -1.4968
   31MOL0     H 4090   9.372  -0.721   6.576 -1.3730  1.7980  1.3062
   31MOL0     H 4091  10.018  -0.373   6.340  2.8324  0.2236 -1.1526
   31MOL0     H 4092  10.206  -0.262   6.248  3.4466 -3.4891  1.5837
   32MOL0     O 4093   4.429   8.048  10.733  0.4296 -0.1512 -0.0656
   32MOL0     C 4094   4.361   8.039  10.626  0.8267  0.3337  0.7197
   32MOL0     O 4095   4.332   7.922  10.551 -0.1825  1.0263  0.2485
   32MOL0     C 4096   4.333   7.808  10.626 -0.3149 -0.4658  0.8991
   32MOL0     C 4097   4.249   7.787  10.736 -0.3473  0.6758  0.5567
   32MOL0     C 4098   4.233   7.658  10.791 -0.3239  0.2095 -0.0804
   32MOL0     C 4099   4.317   7.557  10.747  0.8128  0.3026  0.0081
   32MOL0     O 4100   4.323   7.436  10.806  0.3054 -0.5973  0.1934
   32MOL0     C 4101   4.207   7.388  10.886 -0.4201 -0.2027  0.2811
   32MOL0     C 4102   4.225   7.243  10.919 -0.2654  0.1644  0.3359
   32MOL0     C 4103   4.182   7.160  10.786 -0.4815 -0.4197  0.0784
   32MOL0     C 4104   4.133   7.024  10.833  0.1659 -0.9630 -1.3565
   32MOL0     C 4105   4.069   6.940  10.720 -0.4869  1.1016  0.3929
   32MOL0     C 4106   4.170   6.877  10.618 -0.4470 -0.7283 -0.8364
   32MOL0     C 4107   4.105   6.779  10.524 -0.9145 -0.1882  1.0404
   32MOL0     C 4108   4.226   6.716  10.452  0.1037  0.1234 -0.7954
   32MOL0     N 4109   4.184   6.615  10.353 -0.8742  0.2594  0.2772
   32MOL0     C 4110   4.100   6.646  10.256 -0.2528 -0.1070 -0.7081
   32MOL0     C 4111   4.101   6.536  10.176  0.2955 -0.9837 -0.2229
   32MOL0     C 4112   4.031   6.517  10.044  0.0346 -0.0634 -0.3151
   32MOL0     C 4113   3.908   6.421  10.065 -1.7205 -0.5939 -0.4103
   32MOL0     C 4114   3.862   6.371   9.928  0.2655 -0.5021  0.2290
   32MOL0     C 4115   3.731   6.293   9.942 -0.3399 -0.4409  0.0396
   32MOL0     O 4116   3.752   6.159   9.986 -0.1392  0.7537 -0.3142
   32MOL0     C 4117   3.666   6.054   9.968  0.2322  0.1079  0.0236
   32MOL0     C 4118   3.707   5.927  10.009  0.4152 -0.1851  0.4757
   32MOL0     C 4119   3.624   5.812   9.996  0.3477 -0.3969  0.1657
   32MOL0     C 4120   3.502   5.826   9.928 -0.4213 -0.7028  0.0357
   32MOL0     C 4121   3.409   5.704   9.928 -0.7650 -0.0704  0.0036
   32MOL0     O 4122   3.321   5.708   9.828 -0.1522  0.0576  0.4462
   32MOL0     C 4123   3.216   5.625   9.796  0.2677 -0.1779 -0.5140
   32MOL0     C 4124   3.175   5.509   9.876 -0.3316  0.6213  0.7255
   32MOL0     C 4125   3.053   5.437   9.838  1.1394 -0.2187 -0.3604
   32MOL0     C 4126   2.977   5.479   9.724 -0.5628 -0.3026 -1.1879
   32MOL0     O 4127   2.857   5.404   9.701  0.1144  0.3641 -0.3618
   32MOL0     C 4128   2.785   5.422   9.587 -0.0940 -0.0716  0.2391
   32MOL0     C 4129   2.682   5.306   9.572 -0.2010  0.0739  0.7893
   32MOL0     C 4130   2.625   5.294   9.432 -0.8124  0.3259 -0.5724
   32MOL0     C 4131   2.499   5.196   9.431 -0.3148  0.0153 -0.1331
   32MOL0     C 4132   2.427   5.204   9.299  0.0876 -0.2473  0.1709
   32MOL0     C 4133   2.506   5.145   9.185  0.3772 -0.9591 -1.6034
   32MOL0     C 4134   2.434   5.102   9.056  0.1290 -0.0427  0.0582
   32MOL0     C 4135   2.382   4.954   9.064 -0.2851 -0.2008 -0.9939
   32MOL0    Cl 4136   2.257   4.928   8.939 -0.1498 -0.6730  0.1776
   32MOL0     C 4137   3.011   5.600   9.660 -0.7285  1.1647  0.1129
   32MOL0     C 4138   3.129   5.665   9.698  0.7704 -0.6204 -0.1872
   32MOL0     O 4139   3.429   5.617  10.006 -0.5240  0.6794  0.0716
   32MOL0     C 4140   3.468   5.946   9.870  0.2213 -0.7859 -0.7687
   32MOL0     C 4141   3.550   6.055   9.887  0.3301  0.0751  0.3471
   32MOL0     N 4142   4.186   6.445  10.238  0.0268  0.0641 -0.3857
   32MOL0     N 4143   4.248   6.499  10.336 -0.1989  0.2278 -1.2041
   32MOL0     C 4144   4.409   7.582  10.646 -0.4435  0.6457 -0.2457
   32MOL0     C 4145   4.417   7.704  10.589  0.5783 -0.4253  0.8533
   32MOL0     C 4146   4.323   8.176  10.575  0.7888  0.4653 -0.0826
   32MOL0     C 4147   4.360   8.297  10.636 -1.3915 -0.0908  0.2764
   32MOL0     C 4148   4.315   8.428  10.596  0.4903 -0.2438  0.5909
   32MOL0     C 4149   4.217   8.432  10.496 -0.4474  0.2684  0.0736
   32MOL0     O 4150   4.144   8.540  10.461 -0.4164 -0.4740  0.1520
   32MOL0     C 4151   4.222   8.636  10.398 -0.0929  0.4402 -0.7852
   32MOL0     C 4152   4.205   8.643  10.247  1.0408 -0.0693 -0.1891
   32MOL0     C 4153   4.060   8.657  10.210 -0.4041 -0.3998  0.3635
   32MOL0     C 4154   4.002   8.800  10.245 -0.2169  0.1309 -0.3230
   32MOL0     C 4155   3.860   8.811  10.207 -0.1582 -0.1694  0.8557
   32MOL0     C 4156   3.749   8.837  10.167 -0.2724 -0.5040 -0.2307
   32MOL0     C 4157   4.177   8.315  10.441  0.0522  0.4970 -0.1214
   32MOL0     C 4158   4.223   8.187  10.476  0.3057  0.3304 -0.1672
   32MOL0     H 4159   4.186   7.872  10.760  0.8553  0.7177  4.2348
   32MOL0     H 4160   4.165   7.643  10.875 -2.6777  2.1743 -1.4835
   32MOL0     H 4161   4.114   7.386  10.827 -0.4974 -2.7629  0.3561
   32MOL0     H 4162   4.207   7.447  10.978  1.7572 -4.0452  3.0651
   32MOL0     H 4163   4.171   7.208  11.007  1.0501 -1.0309  0.7093
   32MOL0     H 4164   4.332   7.225  10.936 -0.0485 -2.2136 -2.6012
   32MOL0     H 4165   4.273   7.149  10.726  0.5212  1.5744  1.0969
   32MOL0     H 4166   4.101   7.207  10.730 -1.9975  0.6434  2.9622
   32MOL0     H 4167   4.213   6.964  10.880  0.5328  2.3697  2.9228
   32MOL0     H 4168   4.058   7.051  10.907  3.2379  2.1910  0.9804
   32MOL0     H 4169   3.989   7.005  10.682 -2.0650  1.6605  4.1926
   32MOL0     H 4170   4.002   6.865  10.763 -3.9486  0.7003 -4.7465
   32MOL0     H 4171   4.238   6.822  10.683  0.6150  1.8735  0.3937
   32MOL0     H 4172   4.220   6.949  10.552 -1.4268 -2.1944 -3.3417
   32MOL0     H 4173   4.037   6.716  10.582 -3.6129  2.7754  1.3622
   32MOL0     H 4174   4.048   6.833  10.447  2.3795  1.4050 -0.4748
   32MOL0     H 4175   4.289   6.671  10.529 -2.1771 -0.9084  0.6070
   32MOL0     H 4176   4.276   6.795  10.396 -1.7621  0.2418 -2.4209
   32MOL0     H 4177   4.027   6.725  10.238 -1.5775 -1.6698 -2.7069
   32MOL0     H 4178   4.103   6.469   9.977 -1.1078  0.4288 -1.9481
   32MOL0     H 4179   3.996   6.611  10.001  0.4155 -0.2557 -1.0525
   32MOL0     H 4180   3.828   6.476  10.117 -3.2151  0.5449 -3.6438
   32MOL0     H 4181   3.927   6.332  10.125 -2.1754 -0.0514  0.5721
   32MOL0     H 4182   3.857   6.447   9.849  1.6577 -1.6810 -1.0728
   32MOL0     H 4183   3.935   6.301   9.886  1.2862  0.5140  0.2827
   32MOL0     H 4184   3.698   6.272   9.840  0.9754 -1.0713 -0.2776
   32MOL0     H 4185   3.658   6.351  10.000 -0.7389  0.4330 -1.2837
   32MOL0     H 4186   3.789   5.921  10.081 -0.1305 -2.1122  1.0019
   32MOL0     H 4187   3.658   5.722  10.047 -0.3347 -2.9114 -3.4536
   32MOL0     H 4188   3.240   5.474   9.956 -0.1721  1.0262  0.7765
   32MOL0     H 4189   3.023   5.341   9.880  0.6742 -0.0458 -0.2875
   32MOL0     H 4190   2.852   5.412   9.501 -0.2906 -0.0770  0.0848
   32MOL0     H 4191   2.728   5.515   9.578 -1.4568 -1.0818 -3.1399
   32MOL0     H 4192   2.600   5.319   9.643 -0.1611 -1.2272  1.1047
   32MOL0     H 4193   2.708   5.200   9.581  2.2565  0.3043 -2.2069
   32MOL0     H 4194   2.700   5.253   9.364 -2.7203  0.1379 -2.6859
   32MOL0     H 4195   2.604   5.392   9.389  0.5016  0.5075 -0.8457
   32MOL0     H 4196   2.535   5.093   9.435  0.1733  0.1496 -0.7885
   32MOL0     H 4197   2.431   5.210   9.515 -0.3695 -0.5110 -0.0912
   32MOL0     H 4198   2.382   5.299   9.269  0.6172 -0.5276 -1.5986
   32MOL0     H 4199   2.336   5.145   9.310 -0.8805  0.7327 -1.9909
   32MOL0     H 4200   2.554   5.055   9.224  2.1097  1.0124  1.1480
   32MOL0     H 4201   2.571   5.229   9.158 -1.4301  0.9475 -0.3974
   32MOL0     H 4202   2.345   5.163   9.037  0.8403  0.8502 -0.4983
   32MOL0     H 4203   2.503   5.106   8.971  1.1427 -3.1745  0.5889
   32MOL0     H 4204   2.338   4.933   9.162  2.6991 -2.3655  0.0320
   32MOL0     H 4205   2.466   4.886   9.047  0.0660 -0.5802  1.8169
   32MOL0     H 4206   2.961   5.640   9.572 -1.2971  3.0513  1.2238
   32MOL0     H 4207   3.160   5.755   9.645  1.1087 -1.5050 -1.5292
   32MOL0     H 4208   3.378   5.974   9.815  1.0733 -1.1174 -2.4015
   32MOL0     H 4209   3.523   6.146   9.834  0.4754  1.6292  2.7752
   32MOL0     H 4210   4.470   7.503  10.602  0.8656  1.2993  0.3403
   32MOL0     H 4211   4.487   7.714  10.507 -0.1173 -0.2513  0.2760
   32MOL0     H 4212   4.436   8.296  10.714 -1.3709  0.5694  0.2674
   32MOL0     H 4213   4.343   8.528  10.630 -0.7450  0.6747 -0.9755
   32MOL0     H 4214   4.326   8.631  10.432 -0.2254  2.6698  0.1019
   32MOL0     H 4215   4.181   8.724  10.449 -0.9568 -0.3298 -0.1130
   32MOL0     H 4216   4.258   8.732  10.210  0.8209  0.8765  1.6567
   32MOL0     H 4217   4.245   8.545  10.217  1.0271 -1.4724  3.8293
   32MOL0     H 4218   4.002   8.580  10.261  0.5130 -0.6964  0.9890
   32MOL0     H 4219   4.048   8.639  10.103 -1.0710  1.8688  0.0093
   32MOL0     H 4220   4.009   8.827  10.351  1.0843  0.8933 -0.5820
   32MOL0     H 4221   4.060   8.862  10.175  0.6167 -2.1529 -1.7927
   32MOL0     H 4222   3.646   8.851  10.140 -0.2208  1.6503  0.4652
   32MOL0     H 4223   4.109   8.333  10.359 -1.0065  0.3179  0.7021
   32MOL0     H 4224   4.190   8.097  10.425  2.4248 -0.5827 -0.0499
   33MOL0     O 4225   3.901  10.767   5.061 -0.7109  0.4099 -0.0786
   33MOL0     C 4226   3.996  10.805   5.122 -0.2297  0.0187  0.6958
   33MOL0     O 4227   4.002  10.915   5.204 -0.5585  0.0987  0.9587
   33MOL0     C 4228   3.911  11.013   5.225  0.1556  0.4628 -0.3338
   33MOL0     C 4229   3.959  11.127   5.277 -0.1565  0.6448 -0.1306
   33MOL0     C 4230   3.877  11.228   5.328  0.1890 -0.0890 -1.6606
   33MOL0     C 4231   3.737  11.209   5.305  0.4556 -0.7431  0.4506
   33MOL0     O 4232   3.638  11.295   5.355 -0.0086  0.6579 -0.2410
   33MOL0     C 4233   3.673  11.428   5.397 -0.2396  0.0864 -0.0338
   33MOL0     C 4234   3.741  11.529   5.296 -1.1087  0.1164 -0.1991
   33MOL0     C 4235   3.673  11.540   5.161 -0.6781 -0.3154 -0.4264
   33MOL0     C 4236   3.527  11.571   5.187  0.9939 -0.6323  0.4442
   33MOL0     C 4237   3.440  11.580   5.064 -0.0754 -0.2037  0.0429
   33MOL0     C 4238   3.411  11.443   5.000  0.4375  0.2711  0.0194
   33MOL0     C 4239   3.363  11.446   4.857 -0.7555  0.0293 -0.1123
   33MOL0     C 4240   3.285  11.326   4.799 -0.3497  0.3144 -0.3114
   33MOL0     N 4241   3.250  11.354   4.663  0.7059 -0.3522 -0.0412
   33MOL0     C 4242   3.248  11.254   4.570 -0.0321  0.2279  0.0871
   33MOL0     C 4243   3.215  11.324   4.454 -0.3364 -0.3825 -0.0187
   33MOL0     C 4244   3.232  11.271   4.319 -0.1011  0.0194  0.6304
   33MOL0     C 4245   3.386  11.277   4.274 -0.6337  0.5814  0.1188
   33MOL0     C 4246   3.427  11.409   4.210  0.2157 -0.1742  0.4759
   33MOL0     C 4247   3.567  11.417   4.153 -0.9787 -0.0800  0.7693
   33MOL0     O 4248   3.655  11.391   4.263 -0.5977  0.5802  0.1601
   33MOL0     C 4249   3.780  11.344   4.231  0.1447  1.2378  0.2645
   33MOL0     C 4250   3.858  11.384   4.115 -0.0688  0.1193 -0.3854
   33MOL0     C 4251   3.982  11.317   4.089  0.0758 -0.3185 -0.7153
   33MOL0     C 4252   4.024  11.223   4.176 -0.0652  0.6277 -0.5165
   33MOL0     C 4253   4.151  11.147   4.155 -0.5312 -0.0540  0.2244
   33MOL0     O 4254   4.237  11.191   4.053  0.0758 -0.6699  0.2790
   33MOL0     C 4255   4.353  11.114   4.054 -0.5986 -0.4082  0.2620
   33MOL0     C 4256   4.467  11.189   4.091 -0.0760  0.2272  0.4584
   33MOL0     C 4257   4.598  11.141   4.093  1.1471  0.8947 -0.0404
   33MOL0     C 4258   4.618  11.017   4.040 -0.4797  0.2853 -0.2003
   33MOL0     O 4259   4.741  10.962   4.032 -0.2814 -0.6640  0.1370
   33MOL0     C 4260   4.768  10.850   4.120 -0.6081 -0.4629 -0.2854
   33MOL0     C 4261   4.915  10.809   4.108  0.6249  0.3635  0.1093
   33MOL0     C 4262   5.011  10.928   4.099  0.5063 -0.0062  0.4086
   33MOL0     C 4263   5.046  10.996   3.966  0.7544  0.3052 -0.3535
   33MOL0     C 4264   5.133  10.906   3.876  1.0086 -0.0192 -0.4033
   33MOL0     C 4265   5.154  10.976   3.735 -0.0465  0.0662  0.1315
   33MOL0     C 4266   5.043  10.971   3.641  0.7001  0.6266 -1.0480
   33MOL0     C 4267   4.990  11.102   3.583  0.4395 -0.2385 -0.3399
   33MOL0    Cl 4268   5.118  11.193   3.489  0.4039  0.0219  0.3202
   33MOL0     C 4269   4.503  10.938   4.019  0.0058  0.0539 -0.7204
   33MOL0     C 4270   4.372  10.975   4.026  1.8039 -0.0881  0.8298
   33MOL0     O 4271   4.169  11.039   4.213  1.0430 -0.8282 -0.3096
   33MOL0     C 4272   3.960  11.190   4.295  0.1301 -0.1852 -0.6910
   33MOL0     C 4273   3.838  11.250   4.319  0.7792 -1.1240  0.8502
   33MOL0     N 4274   3.193  11.457   4.490  0.0043 -0.0767 -0.9999
   33MOL0     N 4275   3.209  11.475   4.620  0.3362 -0.0917 -0.0531
   33MOL0     C 4276   3.686  11.107   5.234  0.3362 -0.5576  0.0404
   33MOL0     C 4277   3.775  11.000   5.198 -0.1556  0.0440 -1.3264
   33MOL0     C 4278   4.123  10.764   5.071 -0.3972  0.1126  0.1079
   33MOL0     C 4279   4.139  10.672   4.965  0.6543 -0.1272 -0.7651
   33MOL0     C 4280   4.256  10.627   4.918  0.5014  0.2384 -0.4865
   33MOL0     C 4281   4.375  10.676   4.977 -0.5807  0.1859 -0.4481
   33MOL0     O 4282   4.496  10.638   4.925  0.3336 -0.6303 -0.2022
   33MOL0     C 4283   4.616  10.659   4.992  0.8236  0.3971 -0.5749
   33MOL0     C 4284   4.688  10.789   4.963  1.1396  0.2527 -0.2230
   33MOL0     C 4285   4.847  10.798   4.990  0.7088 -0.2718  0.5923
   33MOL0     C 4286   4.939  10.735   4.889 -0.0565 -0.4489 -0.1247
   33MOL0     C 4287   4.946  10.820   4.767  0.7876  0.0192 -1.2708
   33MOL0     C 4288   4.947  10.903   4.678 -0.9987 -0.0841  0.7597
   33MOL0     C 4289   4.367  10.763   5.082 -0.2071  0.2019 -0.1677
   33MOL0     C 4290   4.242  10.805   5.130  0.3356 -1.0293 -0.0207
   33MOL0     H 4291   4.068  11.134   5.277 -0.1307  0.4131  1.3679
   33MOL0     H 4292   3.913  11.314   5.383 -0.3554 -1.8829  1.7502
   33MOL0     H 4293   3.733  11.416   5.488  0.6795 -0.7756 -0.7283
   33MOL0     H 4294   3.574  11.463   5.426 -0.6391  0.2990 -1.6114
   33MOL0     H 4295   3.843  11.495   5.275 -1.0642  0.2505 -0.1949
   33MOL0     H 4296   3.745  11.626   5.345  4.7642 -0.2548  0.8555
   33MOL0     H 4297   3.676  11.451   5.099 -2.6270 -0.4887 -0.3549
   33MOL0     H 4298   3.705  11.633   5.112 -2.5521  1.2016  1.0303
   33MOL0     H 4299   3.483  11.490   5.245 -0.5584 -1.6220 -1.9861
   33MOL0     H 4300   3.507  11.664   5.242 -0.7903 -0.1515 -0.9246
   33MOL0     H 4301   3.496  11.651   5.002  2.3166 -3.7391 -2.1705
   33MOL0     H 4302   3.344  11.622   5.094  0.4367 -0.1581  1.7000
   33MOL0     H 4303   3.329  11.403   5.060 -0.6811  2.8861  0.3955
   33MOL0     H 4304   3.495  11.374   5.009  0.1175 -0.0625  0.5171
   33MOL0     H 4305   3.300  11.535   4.845 -1.9827 -1.0236 -1.8867
   33MOL0     H 4306   3.450  11.457   4.792 -1.3913 -0.3108 -1.0402
   33MOL0     H 4307   3.190  11.305   4.850 -0.8539  1.0005 -0.9477
   33MOL0     H 4308   3.343  11.234   4.798 -1.2036 -0.2540  0.3847
   33MOL0     H 4309   3.271  11.148   4.576 -0.5958  0.1107  0.2138
   33MOL0     H 4310   3.170  11.317   4.242 -0.2233 -0.3018  0.5342
   33MOL0     H 4311   3.190  11.170   4.327  0.0481 -0.0663  0.3490
   33MOL0     H 4312   3.397  11.200   4.198  1.0423 -2.0280  2.7778
   33MOL0     H 4313   3.449  11.266   4.363  1.7339 -0.4614 -1.5878
   33MOL0     H 4314   3.359  11.410   4.125  2.2785 -2.2723 -1.3082
   33MOL0     H 4315   3.414  11.500   4.270  0.7107  0.2483 -0.0459
   33MOL0     H 4316   3.601  11.515   4.118 -0.0438 -1.3300 -2.1585
   33MOL0     H 4317   3.564  11.359   4.060 -0.1247  0.9870  0.0525
   33MOL0     H 4318   3.803  11.455   4.056  0.9825 -0.0416 -1.5995
   33MOL0     H 4319   4.031  11.335   3.993 -1.5473  1.8912 -1.2202
   33MOL0     H 4320   4.448  11.294   4.112  0.1965  0.3397  0.1555
   33MOL0     H 4321   4.669  11.198   4.152 -1.0594  0.9296  2.8358
   33MOL0     H 4322   4.703  10.770   4.085 -1.9057  0.9904 -1.3403
   33MOL0     H 4323   4.757  10.891   4.221  0.1461  0.7981 -0.6822
   33MOL0     H 4324   4.945  10.740   4.028  2.5158  3.1338 -1.7711
   33MOL0     H 4325   4.936  10.760   4.204 -3.0643  0.4269  1.0713
   33MOL0     H 4326   5.102  10.890   4.146  1.4849 -2.0668 -2.7970
   33MOL0     H 4327   4.978  11.007   4.168 -2.1179  1.1864 -1.9978
   33MOL0     H 4328   4.952  11.021   3.915  0.0881 -1.2967  0.0309
   33MOL0     H 4329   5.083  11.097   3.989 -1.7429  0.8350  1.9250
   33MOL0     H 4330   5.079  10.814   3.852  2.0725 -0.7899  0.0483
   33MOL0     H 4331   5.224  10.881   3.932  0.9555  1.8747  0.6173
   33MOL0     H 4332   5.240  10.936   3.681  0.9183  1.5739  0.4828
   33MOL0     H 4333   5.191  11.078   3.750 -1.1060  0.1550  2.6242
   33MOL0     H 4334   5.066  10.911   3.553  2.7321 -0.2336 -0.0001
   33MOL0     H 4335   4.961  10.924   3.696  1.3828 -0.2408 -0.7351
   33MOL0     H 4336   4.966  11.162   3.671 -1.2129 -2.7085  0.9959
   33MOL0     H 4337   4.901  11.069   3.529  1.5597 -3.2883 -0.5352
   33MOL0     H 4338   4.512  10.831   4.001  2.2711  0.1144 -0.3408
   33MOL0     H 4339   4.289  10.909   4.001  1.2740  0.8466  0.0283
   33MOL0     H 4340   3.993  11.116   4.367 -1.3635 -0.8833 -0.6983
   33MOL0     H 4341   3.769  11.226   4.399 -0.2177  2.0949  1.0976
   33MOL0     H 4342   3.579  11.114   5.214  0.3564  3.2157  0.5965
   33MOL0     H 4343   3.734  10.906   5.162 -2.4698  1.1670 -1.8193
   33MOL0     H 4344   4.049  10.627   4.925  1.6274 -1.6320 -1.3352
   33MOL0     H 4345   4.253  10.556   4.836 -1.0883 -0.5656  0.2325
   33MOL0     H 4346   4.682  10.583   4.948 -0.8109 -2.9466  2.2687
   33MOL0     H 4347   4.614  10.644   5.101  1.8290 -1.9294 -0.8062
   33MOL0     H 4348   4.663  10.817   4.860 -3.8233 -1.2875  0.2615
   33MOL0     H 4349   4.640  10.866   5.025  1.5957 -1.9669  3.1557
   33MOL0     H 4350   4.866  10.748   5.085  1.6029 -0.6422  0.2291
   33MOL0     H 4351   4.877  10.903   4.986  0.8155 -0.3217 -0.1025
   33MOL0     H 4352   5.040  10.715   4.926 -0.7294  0.9947  2.8438
   33MOL0     H 4353   4.890  10.637   4.879  3.2208 -2.5994  2.5102
   33MOL0     H 4354   4.955  10.988   4.614 -0.5598 -0.7048 -0.0345
   33MOL0     H 4355   4.453  10.803   5.134 -1.3357  0.1818  1.8456
   33MOL0     H 4356   4.235  10.878   5.210 -0.1712 -0.8606 -0.2175
   34MOL0     O 4357  11.080   3.225   9.981  0.5870 -0.2203 -0.1000
   34MOL0     C 4358  11.129   3.189   9.876  0.2099 -0.0757  0.5143
   34MOL0     O 4359  11.257   3.134   9.858  0.0411  0.7416 -0.1988
   34MOL0     C 4360  11.346   3.108   9.961 -0.7066  0.2172 -0.4151
   34MOL0     C 4361  11.361   3.208  10.056 -0.8343  0.4893 -0.0311
   34MOL0     C 4362  11.458   3.193  10.162 -0.4832 -0.5263  0.6712
   34MOL0     C 4363  11.521   3.063  10.180  0.7738  0.1052 -0.1249
   34MOL0     O 4364  11.595   3.035  10.287  0.0590  0.0437 -0.0546
   34MOL0     C 4365  11.725   3.102  10.308 -0.2037 -0.4450 -0.1190
   34MOL0     C 4366  11.724   3.217  10.409 -1.1214  0.0433 -0.6349
   34MOL0     C 4367  11.606   3.234  10.507  0.5149 -0.2571  0.0245
   34MOL0     C 4368  11.579   3.131  10.614  0.0866 -0.3984  0.0749
   34MOL0     C 4369  11.510   3.190  10.732  0.5190  0.2830 -0.0848
   34MOL0     C 4370  11.477   3.076  10.829  0.2826 -0.6130  0.6312
   34MOL0     C 4371  11.339   3.107  10.898 -0.5560  0.3362 -0.3443
   34MOL0     C 4372  11.312   3.018  11.027 -0.0343  0.3425 -1.1785
   34MOL0     N 4373  11.293   2.872  10.996 -1.1906 -0.3012  0.6385
   34MOL0     C 4374  11.181   2.818  10.940  0.3862 -0.0880  0.0343
   34MOL0     C 4375  11.189   2.678  10.960  0.1378 -0.5419 -0.0327
   34MOL0     C 4376  11.073   2.592  10.898 -0.4282  0.2208  0.4741
   34MOL0     C 4377  10.941   2.608  10.967  0.0514  0.1406 -0.4368
   34MOL0     C 4378  10.848   2.513  10.891  0.3052  1.4484  0.1704
   34MOL0     C 4379  10.708   2.528  10.937 -0.7436 -0.3864 -0.1912
   34MOL0     O 4380  10.697   2.535  11.081  0.2297 -0.0048 -0.0585
   34MOL0     C 4381  10.599   2.623  11.114 -0.5113 -0.2968 -0.1389
   34MOL0     C 4382  10.469   2.569  11.163  0.6392 -0.0652  1.2839
   34MOL0     C 4383  10.362   2.658  11.198 -0.3513 -0.8658  0.5298
   34MOL0     C 4384  10.377   2.792  11.197 -0.9849 -0.1385  0.1310
   34MOL0     C 4385  10.267   2.882  11.238  0.0349  0.7218 -0.3088
   34MOL0     O 4386  10.156   2.818  11.301 -0.1615 -0.6614  0.4202
   34MOL0     C 4387  10.041   2.877  11.351  0.1323 -0.2221  0.5418
   34MOL0     C 4388   9.967   2.798  11.434  0.5195 -0.8079 -0.8116
   34MOL0     C 4389   9.845   2.845  11.482  0.6135 -0.0681 -0.4215
   34MOL0     C 4390   9.798   2.979  11.448  0.1404 -0.2895 -0.6772
   34MOL0     O 4391   9.677   3.031  11.481 -0.0640  0.2142 -0.2220
   34MOL0     C 4392   9.582   2.945  11.546 -1.4315 -0.8012  0.4257
   34MOL0     C 4393   9.604   2.922  11.699  0.5363  0.0894  0.3690
   34MOL0     C 4394   9.502   2.817  11.740 -0.1665 -0.0711  0.3694
   34MOL0     C 4395   9.478   2.859  11.880  1.1921  0.4762  0.1826
   34MOL0     C 4396   9.428   2.742  11.968 -0.3027  0.0477  0.2096
   34MOL0     C 4397   9.365   2.799  12.101 -0.6539 -0.8979  0.1443
   34MOL0     C 4398   9.351   2.691  12.208 -0.9569 -0.2266  0.3026
   34MOL0     C 4399   9.273   2.739  12.332 -0.6413 -0.2681 -0.6777
   34MOL0    Cl 4400   9.110   2.727  12.279  0.2778  0.2657  0.2338
   34MOL0     C 4401   9.876   3.057  11.372  0.2306  0.2909 -0.3023
   34MOL0     C 4402   9.998   3.016  11.323 -0.3451  0.7462 -0.0967
   34MOL0     O 4403  10.281   2.997  11.227 -0.3111  0.0694  0.1369
   34MOL0     C 4404  10.511   2.845  11.155 -0.0427 -0.5530 -0.2565
   34MOL0     C 4405  10.617   2.765  11.110 -0.4621 -0.0914 -0.2028
   34MOL0     N 4406  11.299   2.649  11.033 -0.2146  0.1176  0.2899
   34MOL0     N 4407  11.365   2.767  11.050 -0.5262  0.9206  0.9990
   34MOL0     C 4408  11.504   2.966  10.079 -0.5834  0.5156  0.4556
   34MOL0     C 4409  11.414   2.984   9.972 -0.3737  0.4141  0.2276
   34MOL0     C 4410  11.052   3.215   9.757  0.4683  0.8322 -0.8832
   34MOL0     C 4411  11.116   3.192   9.638 -0.4146 -0.2389  0.4055
   34MOL0     C 4412  11.057   3.221   9.515 -0.8271 -0.4867  0.3731
   34MOL0     C 4413  10.921   3.267   9.511  0.4337  0.6700  0.2256
   34MOL0     O 4414  10.871   3.283   9.387 -0.1344 -0.2283  0.8622
   34MOL0     C 4415  10.755   3.362   9.360 -0.2653 -0.5836 -0.1228
   34MOL0     C 4416  10.744   3.423   9.221  0.8954  0.8733  0.3762
   34MOL0     C 4417  10.870   3.503   9.180  0.4728  0.1331 -0.1648
   34MOL0     C 4418  10.850   3.553   9.038  0.4749  0.1530  0.8726
   34MOL0     C 4419  10.971   3.616   8.975  0.0833 -0.0383  0.9917
   34MOL0     C 4420  11.065   3.674   8.918  0.5974 -0.1300  0.6090
   34MOL0     C 4421  10.858   3.291   9.631  0.1220  0.0676  0.0429
   34MOL0     C 4422  10.916   3.260   9.755 -0.6024 -0.7031  0.4878
   34MOL0     H 4423  11.323   3.310  10.047 -2.1061 -0.0234 -0.7362
   34MOL0     H 4424  11.466   3.278  10.229 -3.1650  1.4006 -1.2373
   34MOL0     H 4425  11.777   3.132  10.216 -1.3777 -1.1289 -1.0189
   34MOL0     H 4426  11.796   3.028  10.346  0.4190 -0.9739 -2.2097
   34MOL0     H 4427  11.738   3.307  10.349 -2.0278  0.4228 -0.2912
   34MOL0     H 4428  11.811   3.213  10.475 -0.9231  1.0129 -0.8271
   34MOL0     H 4429  11.516   3.250  10.448  0.3628 -1.8185 -0.2129
   34MOL0     H 4430  11.636   3.328  10.553  2.8710 -1.0288  0.2158
   34MOL0     H 4431  11.521   3.045  10.578 -0.9592  1.4076 -2.8857
   34MOL0     H 4432  11.676   3.095  10.650  0.6434  2.1967  1.4039
   34MOL0     H 4433  11.424   3.249  10.699  1.0619  0.9043 -0.4251
   34MOL0     H 4434  11.579   3.261  10.780 -1.4978  2.7726 -0.6707
   34MOL0     H 4435  11.558   3.062  10.901  0.6496  0.0975  0.3712
   34MOL0     H 4436  11.466   2.985  10.770 -1.1418  0.3829 -0.7289
   34MOL0     H 4437  11.334   3.212  10.929  0.6501 -0.3665  2.5356
   34MOL0     H 4438  11.257   3.093  10.827 -0.7028  2.1299 -0.5643
   34MOL0     H 4439  11.216   3.047  11.071 -0.7640 -2.4502 -0.7424
   34MOL0     H 4440  11.396   3.037  11.095 -1.4809 -1.4348  1.2243
   34MOL0     H 4441  11.104   2.866  10.882 -0.3253  1.1832  1.9146
   34MOL0     H 4442  11.111   2.490  10.902  2.5898  1.2611  0.7816
   34MOL0     H 4443  11.050   2.629  10.798  0.6843 -1.0514 -0.2855
   34MOL0     H 4444  10.904   2.710  10.955  0.3449  0.7663  2.9653
   34MOL0     H 4445  10.948   2.582  11.073  2.5481  3.3464  0.3376
   34MOL0     H 4446  10.856   2.532  10.784  2.6416  3.8826  0.6675
   34MOL0     H 4447  10.888   2.413  10.911  0.2989  1.1418 -1.2633
   34MOL0     H 4448  10.649   2.444  10.898 -2.7986  0.2321  1.4227
   34MOL0     H 4449  10.671   2.622  10.896 -2.3074 -0.3686  1.1635
   34MOL0     H 4450  10.455   2.462  11.159 -0.7434  0.1070 -1.6676
   34MOL0     H 4451  10.270   2.618  11.238 -2.0711 -0.0111 -2.2633
   34MOL0     H 4452   9.986   2.692  11.451  0.7113 -0.6467 -0.0019
   34MOL0     H 4453   9.789   2.776  11.544 -1.5236 -0.9641 -3.1543
   34MOL0     H 4454   9.584   2.852  11.489 -0.8998 -1.3887  1.3732
   34MOL0     H 4455   9.478   2.979  11.544 -1.7578 -1.7488  0.5224
   34MOL0     H 4456   9.581   3.017  11.748 -1.7924  0.4455 -1.2584
   34MOL0     H 4457   9.707   2.899  11.728  1.2651  1.8666 -0.6366
   34MOL0     H 4458   9.546   2.717  11.735 -1.5433 -0.7636  1.3137
   34MOL0     H 4459   9.407   2.810  11.686  1.2009 -2.9773 -1.9382
   34MOL0     H 4460   9.561   2.909  11.930 -1.0585  1.7171  2.9870
   34MOL0     H 4461   9.400   2.936  11.876  2.0742  1.3312 -1.8123
   34MOL0     H 4462   9.508   2.672  11.997  1.0732  1.2796 -0.5003
   34MOL0     H 4463   9.354   2.680  11.917  0.5805  0.6310 -1.8636
   34MOL0     H 4464   9.275   2.860  12.093  0.6222  1.0727  0.0528
   34MOL0     H 4465   9.441   2.867  12.141 -1.2357 -0.1972  0.0911
   34MOL0     H 4466   9.308   2.599  12.167  2.9159 -1.0282 -2.5781
   34MOL0     H 4467   9.444   2.645  12.243 -0.2892  3.3004  3.8841
   34MOL0     H 4468   9.286   2.845  12.358 -0.6168 -0.3253 -0.4570
   34MOL0     H 4469   9.298   2.684  12.422 -2.9716 -1.3397 -0.6224
   34MOL0     H 4470   9.826   3.144  11.331  0.1216 -0.6718 -2.3176
   34MOL0     H 4471  10.053   3.067  11.244  1.0479  0.1354  0.4490
   34MOL0     H 4472  10.531   2.951  11.148  0.2030 -0.4801  1.2191
   34MOL0     H 4473  10.711   2.811  11.082 -0.7270  1.5258  1.4426
   34MOL0     H 4474  11.561   2.878  10.105  2.1336  1.2335 -2.4610
   34MOL0     H 4475  11.382   2.906   9.905  0.6669  0.5838 -0.4970
   34MOL0     H 4476  11.218   3.156   9.640  0.6904  2.5698 -0.4755
   34MOL0     H 4477  11.094   3.165   9.430 -0.9371  2.2815 -1.6245
   34MOL0     H 4478  10.751   3.441   9.436  0.7548 -1.3957  0.8188
   34MOL0     H 4479  10.666   3.302   9.380 -0.4184  0.0219  1.1412
   34MOL0     H 4480  10.735   3.342   9.149 -3.6170  0.2116  1.3363
   34MOL0     H 4481  10.657   3.489   9.217 -1.1949 -1.6315  1.5095
   34MOL0     H 4482  10.965   3.450   9.189 -0.2967 -1.1776  0.4107
   34MOL0     H 4483  10.878   3.585   9.253 -1.2014 -1.0720  1.4401
   34MOL0     H 4484  10.821   3.468   8.975  1.3815  1.1694 -0.9856
   34MOL0     H 4485  10.774   3.632   9.039  2.3976  2.0698  1.8683
   34MOL0     H 4486  11.156   3.709   8.875 -0.0320 -0.7142 -1.2928
   34MOL0     H 4487  10.757   3.328   9.643  0.0908 -0.1411  0.4461
   34MOL0     H 4488  10.876   3.277   9.855 -2.3197 -0.5990 -0.1906
   35MOL0     O 4489   5.359   5.512   6.361  0.1323  0.2660 -0.5660
   35MOL0     C 4490   5.402   5.404   6.317 -0.4246 -0.5853  0.1691
   35MOL0     O 4491   5.533   5.388   6.279 -0.5249  0.0283  0.2293
   35MOL0     C 4492   5.629   5.481   6.284  0.4128  1.0187 -0.1851
   35MOL0     C 4493   5.736   5.488   6.200 -0.2281  0.0465 -0.9193
   35MOL0     C 4494   5.834   5.585   6.209  0.2406 -0.2427 -0.3883
   35MOL0     C 4495   5.835   5.680   6.312  0.2597 -0.4108 -1.1079
   35MOL0     O 4496   5.951   5.755   6.339 -0.1893  1.3076 -0.2047
   35MOL0     C 4497   5.928   5.877   6.404 -0.1470 -0.2271  0.2567
   35MOL0     C 4498   6.042   5.983   6.386  0.3861  0.2439 -1.1691
   35MOL0     C 4499   6.173   5.946   6.469  0.2257 -0.3503 -0.4444
   35MOL0     C 4500   6.148   5.913   6.623 -0.8616  0.7703 -0.4495
   35MOL0     C 4501   6.283   5.959   6.698  0.3975 -0.3384 -0.7586
   35MOL0     C 4502   6.404   5.869   6.653  0.0405  0.3123 -0.2989
   35MOL0     C 4503   6.523   5.915   6.746  0.1651 -1.0884 -0.6504
   35MOL0     C 4504   6.662   5.875   6.700 -0.1848 -0.4345  1.2330
   35MOL0     N 4505   6.668   5.740   6.655 -1.2294 -0.3238  0.1949
   35MOL0     C 4506   6.641   5.632   6.738  1.6002  0.3055 -0.7769
   35MOL0     C 4507   6.634   5.524   6.653 -0.3352 -0.7840 -0.3297
   35MOL0     C 4508   6.585   5.387   6.687 -0.4841 -0.9540  0.6921
   35MOL0     C 4509   6.597   5.298   6.564 -0.0139  0.9511 -0.0322
   35MOL0     C 4510   6.739   5.262   6.518  0.1789  0.8032 -0.7064
   35MOL0     C 4511   6.725   5.167   6.395 -0.9225 -0.6026 -0.0511
   35MOL0     O 4512   6.697   5.029   6.441  0.2240 -0.4295 -0.2415
   35MOL0     C 4513   6.578   4.967   6.391 -1.0636 -0.1985 -0.5908
   35MOL0     C 4514   6.592   4.830   6.400 -0.2346  0.2829  0.7010
   35MOL0     C 4515   6.491   4.745   6.347  0.3965  0.1869 -0.0484
   35MOL0     C 4516   6.368   4.809   6.312  0.5337 -0.2517  0.4631
   35MOL0     C 4517   6.241   4.741   6.272 -0.0064 -0.7272  0.1410
   35MOL0     O 4518   6.123   4.809   6.279 -0.7457  0.7010  1.1482
   35MOL0     C 4519   6.019   4.754   6.213 -0.2968 -0.2649 -0.3863
   35MOL0     C 4520   5.940   4.662   6.288  0.6954 -0.5704  0.4888
   35MOL0     C 4521   5.820   4.618   6.234  0.9135  0.3405  0.9435
   35MOL0     C 4522   5.784   4.651   6.098  0.4617  0.5700 -0.2765
   35MOL0     O 4523   5.669   4.586   6.056  0.2063 -1.0462 -0.8728
   35MOL0     C 4524   5.625   4.591   5.920  0.3805 -0.4218 -0.3279
   35MOL0     C 4525   5.504   4.496   5.900  0.9039 -0.1069  0.4242
   35MOL0     C 4526   5.399   4.523   6.017  0.5301 -0.1154 -0.4149
   35MOL0     C 4527   5.422   4.437   6.142  0.6695  0.1463  0.8544
   35MOL0     C 4528   5.351   4.506   6.256 -0.4395  0.7444  0.5297
   35MOL0     C 4529   5.349   4.397   6.372  0.0487  0.6429  0.2034
   35MOL0     C 4530   5.226   4.386   6.454 -0.1284  0.0755 -0.0296
   35MOL0     C 4531   5.208   4.249   6.522 -0.9812  1.1619  0.7822
   35MOL0    Cl 4532   5.042   4.243   6.566  0.0484 -0.5344 -0.0746
   35MOL0     C 4533   5.863   4.739   6.028  0.2186 -0.3491 -0.3853
   35MOL0     C 4534   5.976   4.794   6.088 -0.1681  0.8002  1.1909
   35MOL0     O 4535   6.255   4.626   6.236  0.6165 -0.4695  0.1056
   35MOL0     C 4536   6.356   4.949   6.316 -0.4354  0.5632  0.3154
   35MOL0     C 4537   6.466   5.037   6.349 -0.5276  0.7336  0.1283
   35MOL0     N 4538   6.646   5.577   6.525  0.6835  0.1605 -0.6878
   35MOL0     N 4539   6.645   5.707   6.525 -0.2191  0.7419 -0.5278
   35MOL0     C 4540   5.725   5.689   6.399 -0.1695  0.3412 -0.4732
   35MOL0     C 4541   5.635   5.584   6.383  0.0139 -0.2567  0.4500
   35MOL0     C 4542   5.314   5.290   6.309 -0.1882  0.5660 -0.0857
   35MOL0     C 4543   5.173   5.307   6.331 -0.4641  0.0451 -0.8860
   35MOL0     C 4544   5.096   5.196   6.304  0.0707  0.2896 -0.0864
   35MOL0     C 4545   5.150   5.069   6.288 -0.7948 -0.2429  0.0502
   35MOL0     O 4546   5.059   4.964   6.264 -0.3628 -0.2450  0.2980
   35MOL0     C 4547   5.093   4.819   6.274 -0.4155  0.3062 -0.0741
   35MOL0     C 4548   4.962   4.741   6.234 -0.5253 -0.5332 -0.5420
   35MOL0     C 4549   4.860   4.741   6.347 -0.4861  0.1871 -0.1363
   35MOL0     C 4550   4.714   4.717   6.302 -0.3445  0.3331  0.5677
   35MOL0     C 4551   4.648   4.713   6.429 -0.5208 -0.3669  0.0987
   35MOL0     C 4552   4.585   4.730   6.526  0.0423 -0.5639 -0.6683
   35MOL0     C 4553   5.289   5.050   6.282 -1.0023 -0.8229  0.1068
   35MOL0     C 4554   5.367   5.162   6.270  0.1132 -0.0150  0.0125
   35MOL0     H 4555   5.746   5.418   6.117 -0.9594  1.0744 -1.9034
   35MOL0     H 4556   5.920   5.601   6.144  1.3836 -1.9016  0.6573
   35MOL0     H 4557   5.909   5.858   6.510  1.6733  1.6269  0.9876
   35MOL0     H 4558   5.844   5.933   6.362 -0.0970  1.0661  1.7637
   35MOL0     H 4559   5.987   6.074   6.410 -1.6105 -1.3466  0.7959
   35MOL0     H 4560   6.077   5.993   6.283  0.6934 -1.6090 -1.2944
   35MOL0     H 4561   6.254   6.020   6.457  2.8756 -3.0506 -0.3642
   35MOL0     H 4562   6.207   5.853   6.422 -1.3067  0.6548 -3.9114
   35MOL0     H 4563   6.060   5.971   6.653 -1.9423 -0.2773 -1.4990
   35MOL0     H 4564   6.120   5.811   6.651 -0.1105  1.5402  3.9871
   35MOL0     H 4565   6.267   5.948   6.806  2.3188 -2.7993 -0.6192
   35MOL0     H 4566   6.308   6.063   6.677 -2.7647  1.3393  2.7884
   35MOL0     H 4567   6.441   5.884   6.552  1.4870 -1.7219 -0.1432
   35MOL0     H 4568   6.375   5.764   6.656  1.4170 -0.1325 -1.4909
   35MOL0     H 4569   6.536   6.024   6.748  2.1808 -1.2398  3.1619
   35MOL0     H 4570   6.508   5.889   6.851  1.9362  2.2368  0.5687
   35MOL0     H 4571   6.732   5.873   6.784  1.4187  2.0743  0.0856
   35MOL0     H 4572   6.691   5.942   6.618 -4.1886 -0.3680 -0.3792
   35MOL0     H 4573   6.622   5.617   6.844  2.4385  0.0275 -0.6590
   35MOL0     H 4574   6.479   5.382   6.715 -0.2155  1.7822  2.5366
   35MOL0     H 4575   6.647   5.349   6.768  1.1789  0.7483  0.2958
   35MOL0     H 4576   6.551   5.344   6.476 -0.4340 -0.0292 -0.3413
   35MOL0     H 4577   6.545   5.203   6.584  1.5666  0.3219  1.2595
   35MOL0     H 4578   6.783   5.360   6.496 -1.7992  2.0249  0.3903
   35MOL0     H 4579   6.803   5.211   6.590  0.7905 -1.4089 -2.7120
   35MOL0     H 4580   6.821   5.172   6.344 -1.3019  0.9324 -0.6805
   35MOL0     H 4581   6.666   5.205   6.310 -0.7258  0.2395  0.1790
   35MOL0     H 4582   6.682   4.791   6.448 -1.2292 -0.3135  2.1436
   35MOL0     H 4583   6.503   4.637   6.358 -0.6968  0.2358  2.3061
   35MOL0     H 4584   5.983   4.637   6.384  1.6692 -1.4552 -0.1544
   35MOL0     H 4585   5.769   4.552   6.303  1.1699  0.2543  1.0548
   35MOL0     H 4586   5.710   4.549   5.865  1.1809  0.7068  0.0278
   35MOL0     H 4587   5.599   4.688   5.878  4.2176  1.2025  0.6194
   35MOL0     H 4588   5.536   4.391   5.903  1.5267  0.1012  2.3481
   35MOL0     H 4589   5.454   4.524   5.806  0.2681  4.7711  1.9550
   35MOL0     H 4590   5.294   4.504   5.993  0.3355 -0.6106  0.7672
   35MOL0     H 4591   5.406   4.632   6.026  0.7438 -0.1448 -0.2001
   35MOL0     H 4592   5.394   4.333   6.125 -1.6156 -0.2423  5.3854
   35MOL0     H 4593   5.529   4.435   6.167  1.1728  0.0738 -1.1816
   35MOL0     H 4594   5.250   4.526   6.221  0.9339 -1.2379 -5.7491
   35MOL0     H 4595   5.405   4.600   6.274  1.7198 -0.7699  2.7038
   35MOL0     H 4596   5.431   4.418   6.441 -2.0316  0.5742  2.8699
   35MOL0     H 4597   5.346   4.296   6.331 -4.2508  0.3776  0.6202
   35MOL0     H 4598   5.220   4.449   6.543 -2.6749 -3.1262  2.3253
   35MOL0     H 4599   5.145   4.392   6.382 -1.2308 -1.5961  0.9989
   35MOL0     H 4600   5.273   4.231   6.609 -0.5269  0.5039  0.3167
   35MOL0     H 4601   5.225   4.169   6.449 -1.6744  2.7104 -1.1509
   35MOL0     H 4602   5.849   4.766   5.924  3.7555 -0.1241 -0.9109
   35MOL0     H 4603   6.027   4.882   6.049 -0.0642 -0.4198 -1.6884
   35MOL0     H 4604   6.263   5.005   6.310 -2.9886 -3.2109  1.0108
   35MOL0     H 4605   6.459   5.146   6.350 -0.3265  0.7592 -0.5385
   35MOL0     H 4606   5.720   5.750   6.488 -0.1575  3.0682 -2.2443
   35MOL0     H 4607   5.559   5.587   6.461 -0.2947 -1.5526  0.2288
   35MOL0     H 4608   5.140   5.403   6.370  0.2335 -0.4143  0.9252
   35MOL0     H 4609   4.988   5.201   6.312  0.0733  0.7416 -0.3207
   35MOL0     H 4610   5.122   4.804   6.378  2.3554 -0.6110 -0.8744
   35MOL0     H 4611   5.169   4.801   6.197 -0.7259  0.5536 -0.4406
   35MOL0     H 4612   4.910   4.802   6.159 -1.0744 -0.2877  0.0290
   35MOL0     H 4613   4.972   4.636   6.206 -1.5161 -0.2776 -1.9977
   35MOL0     H 4614   4.855   4.833   6.405  1.0359 -0.8498  1.7474
   35MOL0     H 4615   4.894   4.659   6.411  1.0684 -1.1556 -2.5496
   35MOL0     H 4616   4.677   4.795   6.235  0.3118 -0.4356 -0.7231
   35MOL0     H 4617   4.706   4.625   6.244 -2.0256  0.6209  0.2979
   35MOL0     H 4618   4.527   4.738   6.615 -0.0900  0.9105 -0.8529
   35MOL0     H 4619   5.345   4.959   6.264  1.0330  0.4264 -0.2521
   35MOL0     H 4620   5.471   5.144   6.242  0.3216 -0.4073  1.0123
   36MOL0     O 4621   8.423   1.621  10.304  0.0076 -0.9100 -0.4570
   36MOL0     C 4622   8.476   1.638  10.410 -0.0551  0.7878  1.6092
   36MOL0     O 4623   8.416   1.676  10.529  0.4154 -0.2882  0.3509
   36MOL0     C 4624   8.275   1.664  10.535  0.0892  0.6310  0.1174
   36MOL0     C 4625   8.197   1.742  10.451  0.2964  0.2540 -0.0395
   36MOL0     C 4626   8.053   1.718  10.444  0.2374  0.2940 -0.9595
   36MOL0     C 4627   7.995   1.619  10.524  0.0027  0.1560  0.8542
   36MOL0     O 4628   7.861   1.590  10.500  0.4094 -0.5215  0.3098
   36MOL0     C 4629   7.793   1.565  10.626  0.8441  0.2552 -0.4362
   36MOL0     C 4630   7.647   1.568  10.603  0.6761 -0.2656 -0.3907
   36MOL0     C 4631   7.565   1.548  10.729 -0.4813 -0.3132 -0.2582
   36MOL0     C 4632   7.549   1.413  10.784 -0.9170  0.7924 -1.1756
   36MOL0     C 4633   7.420   1.341  10.741  0.2008 -0.4368  0.6013
   36MOL0     C 4634   7.423   1.312  10.592  0.8538 -0.1231 -0.5429
   36MOL0     C 4635   7.350   1.181  10.562 -0.1889 -0.4681  0.0914
   36MOL0     C 4636   7.212   1.197  10.496 -0.1859 -0.6834  0.3628
   36MOL0     N 4637   7.111   1.213  10.601  1.2267  0.0947 -0.3214
   36MOL0     C 4638   7.040   1.125  10.670 -0.4042 -0.5028  0.0685
   36MOL0     C 4639   6.978   1.189  10.764 -0.9358  0.0812 -0.8039
   36MOL0     C 4640   6.888   1.122  10.872 -0.6514  0.2453 -0.4317
   36MOL0     C 4641   6.754   1.089  10.800  0.6964 -0.2756 -0.7635
   36MOL0     C 4642   6.655   1.038  10.893  1.1021 -0.6636 -0.3646
   36MOL0     C 4643   6.504   1.044  10.857  0.6883 -0.4010  0.1896
   36MOL0     O 4644   6.421   1.014  10.976 -0.0187 -0.7884  0.0740
   36MOL0     C 4645   6.289   1.005  10.959 -0.2300  0.7541  0.1694
   36MOL0     C 4646   6.203   1.056  10.860 -0.6657  0.6955 -0.2605
   36MOL0     C 4647   6.060   1.047  10.857 -0.3154 -1.4325  0.0811
   36MOL0     C 4648   5.995   1.000  10.971 -0.7796  0.8322 -0.2314
   36MOL0     C 4649   5.854   0.999  10.983 -0.4364 -0.3108 -0.5395
   36MOL0     O 4650   5.800   0.982  11.101 -1.0519 -0.4491 -0.0081
   36MOL0     C 4651   5.658   0.985  11.096  0.0070  0.9007 -0.6533
   36MOL0     C 4652   5.586   0.870  11.054 -0.8826 -0.4945  0.7687
   36MOL0     C 4653   5.447   0.874  11.076 -1.0359 -0.9466 -0.2100
   36MOL0     C 4654   5.389   0.985  11.132  0.1593 -0.2051  0.1231
   36MOL0     O 4655   5.250   0.982  11.129 -0.9349  0.1521  0.0311
   36MOL0     C 4656   5.178   1.108  11.146  0.2401 -0.0940 -0.5480
   36MOL0     C 4657   5.027   1.090  11.119  0.7891 -0.1254 -0.7297
   36MOL0     C 4658   5.010   1.084  10.969  0.7602  1.1388  0.0325
   36MOL0     C 4659   4.858   1.088  10.934 -0.3293  0.1450  1.1998
   36MOL0     C 4660   4.828   1.061  10.779 -0.1626  0.4523 -0.9388
   36MOL0     C 4661   4.880   1.173  10.695  0.2899  0.3357 -0.5656
   36MOL0     C 4662   4.827   1.151  10.552 -0.3009  0.7981  0.6979
   36MOL0     C 4663   4.854   1.275  10.464  0.6357 -0.3870  0.7193
   36MOL0    Cl 4664   5.016   1.346  10.487 -0.6076 -0.5000 -0.0756
   36MOL0     C 4665   5.463   1.086  11.192  0.4899 -0.4193  0.3905
   36MOL0     C 4666   5.592   1.087  11.164  0.5939  0.4432 -0.2883
   36MOL0     O 4667   5.793   1.025  10.874 -0.0694 -0.5007 -0.2030
   36MOL0     C 4668   6.077   0.954  11.077  0.1604  0.7479 -0.4114
   36MOL0     C 4669   6.214   0.963  11.071  0.1259  0.1768 -0.2281
   36MOL0     N 4670   7.009   1.314  10.764  1.0895 -0.1658  0.4601
   36MOL0     N 4671   7.085   1.334  10.663 -0.6681  0.3568  0.3989
   36MOL0     C 4672   8.075   1.553  10.618  0.7578 -0.3395  0.2253
   36MOL0     C 4673   8.214   1.579  10.624  0.0125 -0.2783  0.1914
   36MOL0     C 4674   8.624   1.624  10.412 -0.1555  0.0178 -0.5674
   36MOL0     C 4675   8.699   1.691  10.511 -0.4808  0.1832  0.5949
   36MOL0     C 4676   8.828   1.653  10.538 -0.4005 -0.5071  0.1803
   36MOL0     C 4677   8.896   1.558  10.456  0.6737  0.4159 -0.4369
   36MOL0     O 4678   9.024   1.536  10.492  0.0880  0.0636 -0.0277
   36MOL0     C 4679   9.102   1.498  10.379  0.6055  0.0835 -0.0252
   36MOL0     C 4680   9.249   1.508  10.411 -0.4634  0.1190  1.1103
   36MOL0     C 4681   9.306   1.384  10.471  0.8863  0.1768 -0.3613
   36MOL0     C 4682   9.461   1.395  10.475  0.8783 -0.1094  0.5948
   36MOL0     C 4683   9.518   1.292  10.565 -0.0782 -1.0525  0.5299
   36MOL0     C 4684   9.555   1.204  10.641 -0.5656 -0.2649 -0.0515
   36MOL0     C 4685   8.822   1.495  10.353  0.2721  0.0318  1.4746
   36MOL0     C 4686   8.693   1.543  10.328  0.0520 -0.1217  0.1459
   36MOL0     H 4687   8.252   1.811  10.388 -0.5795  2.4402  1.4269
   36MOL0     H 4688   7.989   1.764  10.369  1.3059  1.0798 -1.4121
   36MOL0     H 4689   7.824   1.627  10.711 -2.8704 -2.0485  2.9486
   36MOL0     H 4690   7.825   1.463  10.651  1.7265  0.1556 -1.8171
   36MOL0     H 4691   7.604   1.507  10.523 -1.2228 -0.4426  0.6950
   36MOL0     H 4692   7.623   1.669  10.568 -1.6294 -0.1457  1.3391
   36MOL0     H 4693   7.465   1.590  10.715  0.5870  2.5680  0.2342
   36MOL0     H 4694   7.616   1.610  10.803  0.7903 -2.2462  0.5817
   36MOL0     H 4695   7.631   1.346  10.757 -1.5119  0.4756 -2.2241
   36MOL0     H 4696   7.548   1.406  10.894  0.1824 -1.6762 -1.2520
   36MOL0     H 4697   7.328   1.393  10.770 -0.0243 -0.2428 -0.4133
   36MOL0     H 4698   7.429   1.245  10.792  0.7232 -1.6208 -1.6050
   36MOL0     H 4699   7.528   1.296  10.568  1.4929  0.0809  1.8751
   36MOL0     H 4700   7.385   1.402  10.543 -0.9204 -0.4587  0.1114
   36MOL0     H 4701   7.418   1.132  10.491 -1.0526  0.9823 -1.8315
   36MOL0     H 4702   7.347   1.121  10.653 -0.0550  2.1891  1.9659
   36MOL0     H 4703   7.186   1.105  10.444 -0.5953 -0.0458 -0.5875
   36MOL0     H 4704   7.213   1.282  10.427  1.7665 -1.7972 -1.0813
   36MOL0     H 4705   7.025   1.019  10.648  1.0054 -0.9970  1.3232
   36MOL0     H 4706   6.879   1.182  10.963  0.2851 -1.1262  0.6163
   36MOL0     H 4707   6.946   1.033  10.899 -0.0889  0.0156 -2.2526
   36MOL0     H 4708   6.769   1.016  10.719  2.0218 -0.1986 -0.6142
   36MOL0     H 4709   6.713   1.176  10.747  1.7053 -0.3156 -1.6634
   36MOL0     H 4710   6.687   0.936  10.916  2.5464  0.1446  1.4895
   36MOL0     H 4711   6.676   1.094  10.985  0.7789 -0.9918 -0.0903
   36MOL0     H 4712   6.478   0.967  10.784 -1.2972 -0.3819  0.8214
   36MOL0     H 4713   6.489   1.149  10.828  5.9093  0.5382 -0.0654
   36MOL0     H 4714   6.234   1.105  10.768 -0.5332  0.1766 -0.4962
   36MOL0     H 4715   6.007   1.082  10.769 -0.5330 -1.3076  0.2599
   36MOL0     H 4716   5.638   0.796  10.995 -0.9844 -1.0676  1.3914
   36MOL0     H 4717   5.388   0.794  11.031  0.3369 -1.0838 -1.9149
   36MOL0     H 4718   5.218   1.185  11.079 -0.3854 -1.2095 -2.2447
   36MOL0     H 4719   5.184   1.132  11.253  0.0081  0.3298 -0.6236
   36MOL0     H 4720   4.984   1.184  11.157  3.0935  0.9161 -0.5360
   36MOL0     H 4721   4.986   1.000  11.166 -2.1842  0.7733 -1.3657
   36MOL0     H 4722   5.052   0.991  10.930 -1.2407  0.5165 -0.7791
   36MOL0     H 4723   5.056   1.169  10.917  2.6088  0.4138  0.3887
   36MOL0     H 4724   4.824   1.002  10.993 -0.2475  1.6247  3.5404
   36MOL0     H 4725   4.816   1.181  10.975  0.0475  0.9109 -0.1008
   36MOL0     H 4726   4.719   1.070  10.783 -0.0727  2.2974 -1.6325
   36MOL0     H 4727   4.868   0.963  10.751  0.3865 -0.0476  1.3542
   36MOL0     H 4728   4.988   1.183  10.690  0.1547  1.3652 -2.3197
   36MOL0     H 4729   4.834   1.269  10.724 -2.1276 -1.2193  1.1933
   36MOL0     H 4730   4.876   1.061  10.514  2.9868  2.5525  0.3460
   36MOL0     H 4731   4.720   1.131  10.556  0.0742 -1.6176  0.3287
   36MOL0     H 4732   4.774   1.347  10.483 -1.0272 -1.2554 -2.3758
   36MOL0     H 4733   4.844   1.248  10.359 -1.1715  0.4951  0.6335
   36MOL0     H 4734   5.423   1.173  11.243  4.0352  2.4791 -1.2643
   36MOL0     H 4735   5.658   1.156  11.216  3.1634 -0.5700 -2.0085
   36MOL0     H 4736   6.026   0.908  11.162 -0.7624 -1.2324 -1.9570
   36MOL0     H 4737   6.268   0.922  11.156 -0.0205  2.8594  1.2468
   36MOL0     H 4738   8.029   1.470  10.670 -1.5255 -0.4892 -1.8469
   36MOL0     H 4739   8.273   1.512  10.685 -0.7070 -0.1759  1.0216
   36MOL0     H 4740   8.664   1.783  10.556 -0.1517  0.5849  0.0322
   36MOL0     H 4741   8.892   1.708  10.605 -2.1981  2.9978 -0.7515
   36MOL0     H 4742   9.076   1.581  10.312 -0.1035  0.2667  0.4644
   36MOL0     H 4743   9.080   1.400  10.336 -0.0546 -0.3945  1.3361
   36MOL0     H 4744   9.300   1.536  10.318 -5.9063  2.6511 -1.5630
   36MOL0     H 4745   9.252   1.592  10.481 -0.1465  1.9063 -0.9381
   36MOL0     H 4746   9.281   1.288  10.425  1.1809 -0.0391 -0.0817
   36MOL0     H 4747   9.271   1.386  10.574 -2.2492  3.8800 -1.2463
   36MOL0     H 4748   9.497   1.363  10.377 -3.7515 -2.7591 -0.5207
   36MOL0     H 4749   9.505   1.493  10.492  1.2700 -0.0507 -0.6469
   36MOL0     H 4750   9.594   1.120  10.695 -1.4065 -1.4761 -1.2644
   36MOL0     H 4751   8.866   1.419  10.288  1.8879  2.5014 -0.5126
   36MOL0     H 4752   8.635   1.500  10.247 -0.9982  2.1371 -0.3657
   37MOL0     O 4753   8.576   3.455   8.782  0.3605 -0.0292  0.0877
   37MOL0     C 4754   8.599   3.389   8.686 -0.6338  0.7745  0.5091
   37MOL0     O 4755   8.679   3.426   8.567  0.0854  0.2606  0.1033
   37MOL0     C 4756   8.763   3.526   8.581 -0.6399  0.2016  0.0740
   37MOL0     C 4757   8.844   3.553   8.691 -0.4923 -0.4288  0.7552
   37MOL0     C 4758   8.931   3.662   8.687 -0.2818  0.2558  0.3795
   37MOL0     C 4759   8.956   3.732   8.569  0.7381  0.8373 -0.2554
   37MOL0     O 4760   9.053   3.831   8.557 -0.0295 -0.3282 -0.2321
   37MOL0     C 4761   9.148   3.840   8.664  0.1642 -0.2282  0.1919
   37MOL0     C 4762   9.248   3.950   8.621 -0.5620 -0.0975 -0.1689
   37MOL0     C 4763   9.351   3.986   8.737  0.1022  0.1577  0.1243
   37MOL0     C 4764   9.445   4.099   8.704 -0.7899 -0.4850 -0.0123
   37MOL0     C 4765   9.551   4.111   8.813 -1.0600 -0.4200  0.4277
   37MOL0     C 4766   9.492   4.156   8.945 -0.7128  0.5133  0.5746
   37MOL0     C 4767   9.588   4.197   9.052 -0.6423 -0.4633 -0.3220
   37MOL0     C 4768   9.682   4.312   9.012  0.2596 -0.0998 -1.3710
   37MOL0     N 4769   9.727   4.385   9.124 -0.5400 -0.4426 -0.9170
   37MOL0     C 4770   9.647   4.468   9.199 -0.1048 -0.0952  0.9565
   37MOL0     C 4771   9.719   4.518   9.298  0.0825  0.3759  1.0543
   37MOL0     C 4772   9.664   4.618   9.392  0.4012 -0.8859 -1.2292
   37MOL0     C 4773   9.675   4.592   9.551 -0.9735  0.1362  0.0748
   37MOL0     C 4774   9.634   4.450   9.594 -0.0591  0.3689  0.8585
   37MOL0     C 4775   9.586   4.428   9.742 -0.8339  0.3601  0.5139
   37MOL0     O 4776   9.487   4.522   9.778 -0.8958  0.5858  0.0577
   37MOL0     C 4777   9.462   4.553   9.913 -0.8240 -0.0831 -1.0201
   37MOL0     C 4778   9.346   4.627   9.942  0.3085  0.5250 -0.9433
   37MOL0     C 4779   9.317   4.668  10.072 -0.3231 -0.4183  0.9589
   37MOL0     C 4780   9.394   4.623  10.180 -0.3029  0.4101  0.2916
   37MOL0     C 4781   9.345   4.657  10.320  0.4462 -0.0529 -0.4792
   37MOL0     O 4782   9.228   4.726  10.340 -0.8928 -0.3427 -0.1588
   37MOL0     C 4783   9.174   4.756  10.465  0.8696 -0.2249  0.9236
   37MOL0     C 4784   9.117   4.877  10.478 -0.0871  1.0004 -0.1024
   37MOL0     C 4785   9.051   4.910  10.588  0.9696  0.3172 -0.4201
   37MOL0     C 4786   9.047   4.836  10.697  0.2786  0.0464  0.5913
   37MOL0     O 4787   9.011   4.901  10.811 -0.1915 -0.3717  0.3052
   37MOL0     C 4788   8.895   4.837  10.878  0.7311 -0.8322 -0.2263
   37MOL0     C 4789   8.826   4.928  10.984 -0.1125  0.9572 -0.5565
   37MOL0     C 4790   8.776   5.057  10.910 -0.1050 -0.2318 -0.6755
   37MOL0     C 4791   8.732   5.157  11.009  0.0173 -0.1428  0.3595
   37MOL0     C 4792   8.633   5.257  10.959  0.0763 -0.9344 -1.1128
   37MOL0     C 4793   8.569   5.324  11.082 -0.3334 -0.1550 -0.6587
   37MOL0     C 4794   8.492   5.438  11.040 -0.6317 -0.2455  0.5199
   37MOL0     C 4795   8.422   5.526  11.146 -0.1423 -1.4970 -1.3312
   37MOL0    Cl 4796   8.517   5.639  11.249 -0.4828 -0.3349  0.1806
   37MOL0     C 4797   9.105   4.715  10.694  0.4899 -0.0491 -0.1975
   37MOL0     C 4798   9.168   4.665  10.579  0.6278 -0.2174  0.9552
   37MOL0     O 4799   9.398   4.605  10.412 -0.2003  1.0276 -0.1880
   37MOL0     C 4800   9.506   4.542  10.159  0.0981  0.6988  0.1734
   37MOL0     C 4801   9.538   4.505  10.025  0.5518  0.0691  0.5182
   37MOL0     N 4802   9.841   4.454   9.294  0.1225 -0.0570  0.3089
   37MOL0     N 4803   9.854   4.389   9.177 -0.0217 -0.1299 -0.8839
   37MOL0     C 4804   8.866   3.711   8.467 -0.3339  0.9220 -0.0220
   37MOL0     C 4805   8.766   3.611   8.469  0.4691  0.4086  0.4315
   37MOL0     C 4806   8.535   3.249   8.694 -0.7105  0.5601  0.0001
   37MOL0     C 4807   8.549   3.163   8.583  0.2137  0.0665 -0.3803
   37MOL0     C 4808   8.491   3.027   8.577 -0.5469  0.1293 -1.2595
   37MOL0     C 4809   8.425   2.976   8.687  1.1243 -0.9090  0.3738
   37MOL0     O 4810   8.410   2.845   8.676  0.2654 -0.3570 -0.7175
   37MOL0     C 4811   8.365   2.771   8.789  0.1660  0.4511 -0.2923
   37MOL0     C 4812   8.334   2.635   8.730  0.4685  1.7674  0.0231
   37MOL0     C 4813   8.470   2.570   8.711  0.2260  0.1507 -0.5035
   37MOL0     C 4814   8.459   2.436   8.624 -0.1576 -0.1638  0.3267
   37MOL0     C 4815   8.449   2.473   8.476 -0.9438  0.2114 -0.2791
   37MOL0     C 4816   8.455   2.475   8.359 -0.3600  0.2109  0.6384
   37MOL0     C 4817   8.403   3.067   8.794  0.0965  0.1477 -0.3316
   37MOL0     C 4818   8.463   3.194   8.802  0.7952 -0.0846  0.2319
   37MOL0     H 4819   8.841   3.484   8.775  1.4370 -2.6308 -0.8255
   37MOL0     H 4820   8.984   3.675   8.780  1.4108  0.7472 -0.6202
   37MOL0     H 4821   9.200   3.744   8.662  1.4561  0.4710 -0.5171
   37MOL0     H 4822   9.114   3.859   8.767  2.4083  0.8134  0.7985
   37MOL0     H 4823   9.200   4.041   8.585  0.7886 -0.3083 -2.7032
   37MOL0     H 4824   9.306   3.907   8.539  4.1374  2.3691  1.4394
   37MOL0     H 4825   9.406   3.895   8.765  0.6129  0.0439 -1.1632
   37MOL0     H 4826   9.301   4.001   8.833  1.8854 -0.9195  1.2730
   37MOL0     H 4827   9.483   4.073   8.604  3.1306 -0.1513  1.2129
   37MOL0     H 4828   9.394   4.195   8.692 -3.6661 -2.1947 -3.3849
   37MOL0     H 4829   9.621   4.192   8.793 -1.7893 -0.1991 -1.3487
   37MOL0     H 4830   9.602   4.014   8.814  0.9995  0.5798  2.3142
   37MOL0     H 4831   9.445   4.067   8.988 -0.7066 -0.5036 -1.4166
   37MOL0     H 4832   9.424   4.238   8.920  0.1708  1.2949  0.6722
   37MOL0     H 4833   9.528   4.222   9.140  0.1658 -0.5772  0.2724
   37MOL0     H 4834   9.651   4.109   9.070 -3.0943 -2.8563 -2.5198
   37MOL0     H 4835   9.641   4.384   8.940 -0.8866  1.2519  0.5476
   37MOL0     H 4836   9.771   4.262   8.974 -0.0708 -0.1577 -2.0874
   37MOL0     H 4837   9.552   4.506   9.162 -0.8342 -3.1410 -0.6138
   37MOL0     H 4838   9.556   4.614   9.376  0.1128 -2.1045  0.7663
   37MOL0     H 4839   9.691   4.723   9.373 -2.6014  0.7047  2.1316
   37MOL0     H 4840   9.610   4.664   9.600 -1.5075  1.1144 -1.9819
   37MOL0     H 4841   9.778   4.598   9.587 -0.4391 -3.2844 -0.4729
   37MOL0     H 4842   9.544   4.422   9.539 -2.2112  0.7526  3.9569
   37MOL0     H 4843   9.712   4.376   9.572 -2.2617 -1.7869 -0.2709
   37MOL0     H 4844   9.667   4.439   9.814 -1.0324 -1.2576  1.0110
   37MOL0     H 4845   9.544   4.328   9.755 -0.9562  0.0354 -1.9246
   37MOL0     H 4846   9.287   4.660   9.857 -0.1395 -2.2345 -1.8192
   37MOL0     H 4847   9.221   4.715  10.093 -1.2575 -1.5932 -0.4575
   37MOL0     H 4848   9.127   4.953  10.401 -0.3037  2.5692  1.3365
   37MOL0     H 4849   9.024   5.014  10.603 -1.0124 -0.3643  1.3417
   37MOL0     H 4850   8.934   4.756  10.939  0.8832 -1.9645 -1.7650
   37MOL0     H 4851   8.831   4.795  10.799  0.0441 -1.1204  0.4697
   37MOL0     H 4852   8.893   4.953  11.067 -4.2611 -1.8288  4.2962
   37MOL0     H 4853   8.754   4.865  11.038  1.7146 -1.2961 -0.6296
   37MOL0     H 4854   8.687   5.036  10.850 -0.2697  0.8368 -0.8279
   37MOL0     H 4855   8.857   5.105  10.854  1.8150  0.2457  2.2652
   37MOL0     H 4856   8.684   5.109  11.094 -2.4290 -3.6763 -2.6650
   37MOL0     H 4857   8.822   5.215  11.028  0.0814 -0.9908  2.9934
   37MOL0     H 4858   8.548   5.212  10.905 -2.7378  2.6830 -0.0823
   37MOL0     H 4859   8.683   5.330  10.895 -0.3949  1.5890  1.2462
   37MOL0     H 4860   8.647   5.354  11.152 -0.5596  5.2504 -2.2720
   37MOL0     H 4861   8.502   5.258  11.139  0.8209 -1.1909 -0.4702
   37MOL0     H 4862   8.553   5.502  10.977 -0.1408 -0.3117  0.9184
   37MOL0     H 4863   8.415   5.401  10.972 -1.4570  2.3576 -0.0500
   37MOL0     H 4864   8.358   5.467  11.211 -1.6168  1.5174  0.1729
   37MOL0     H 4865   8.354   5.586  11.084 -2.6007 -1.2065  1.4102
   37MOL0     H 4866   9.115   4.649  10.780 -0.0245  0.7613  0.4983
   37MOL0     H 4867   9.206   4.565  10.561 -1.7842 -0.9537 -0.6938
   37MOL0     H 4868   9.574   4.501  10.233  1.0854 -3.3408 -2.5618
   37MOL0     H 4869   9.628   4.446  10.021 -0.4473 -1.6893  2.3543
   37MOL0     H 4870   8.873   3.782   8.385 -1.1177  2.5855  1.2767
   37MOL0     H 4871   8.693   3.600   8.389 -1.0916 -1.2169  1.9839
   37MOL0     H 4872   8.614   3.184   8.499 -0.0618  1.0318 -0.3624
   37MOL0     H 4873   8.518   2.968   8.491 -1.5117 -2.3805  0.0413
   37MOL0     H 4874   8.271   2.809   8.831  0.5128  0.9853  0.0108
   37MOL0     H 4875   8.440   2.769   8.868 -0.5646  2.9445  0.5572
   37MOL0     H 4876   8.285   2.577   8.809  0.3887 -3.1043 -3.2519
   37MOL0     H 4877   8.279   2.643   8.636 -2.8415  1.6995  1.8057
   37MOL0     H 4878   8.501   2.548   8.813  1.2966 -0.3430 -0.9254
   37MOL0     H 4879   8.549   2.638   8.677  2.0606  0.0854  3.1402
   37MOL0     H 4880   8.546   2.371   8.635  0.1148 -0.1345 -1.4495
   37MOL0     H 4881   8.381   2.366   8.654  1.9191 -2.8953 -0.2611
   37MOL0     H 4882   8.457   2.475   8.252  1.6894 -1.2734  0.6237
   37MOL0     H 4883   8.352   3.021   8.878  4.3112 -1.4033  1.7079
   37MOL0     H 4884   8.448   3.262   8.885 -0.3724 -0.6019  0.4677
   38MOL0     O 4885   5.314   6.064   6.640 -0.0667  0.5319  0.7510
   38MOL0     C 4886   5.341   5.971   6.559  1.1646 -0.0764  1.2336
   38MOL0     O 4887   5.463   5.943   6.515 -0.2488 -0.1179 -0.7595
   38MOL0     C 4888   5.563   6.012   6.568 -0.6135  0.2197 -0.0328
   38MOL0     C 4889   5.639   6.087   6.475 -0.8968 -0.0868 -0.3793
   38MOL0     C 4890   5.748   6.168   6.515  0.1743  0.4856  0.2213
   38MOL0     C 4891   5.776   6.169   6.650  0.9603  0.4366 -1.9888
   38MOL0     O 4892   5.891   6.238   6.674 -0.7507  0.9366 -0.3797
   38MOL0     C 4893   5.907   6.301   6.807 -0.4740  0.0385  0.0749
   38MOL0     C 4894   6.008   6.415   6.793  0.2498 -0.0518 -0.2286
   38MOL0     C 4895   6.144   6.361   6.779  0.0873  0.2093  0.3071
   38MOL0     C 4896   6.241   6.392   6.885  1.1913 -0.7227  0.6006
   38MOL0     C 4897   6.389   6.350   6.854 -0.0254 -1.3824 -0.0685
   38MOL0     C 4898   6.462   6.342   6.993  0.2477  0.3208  0.0365
   38MOL0     C 4899   6.612   6.316   6.967 -0.7581  0.4136 -0.3101
   38MOL0     C 4900   6.679   6.277   7.104  0.6278 -0.3048  0.1141
   38MOL0     N 4901   6.827   6.266   7.104  0.5553 -0.0783 -0.6168
   38MOL0     C 4902   6.904   6.314   7.206 -0.4333  0.3956 -0.2948
   38MOL0     C 4903   7.027   6.306   7.168 -0.5461 -0.2842  0.7168
   38MOL0     C 4904   7.149   6.351   7.251  0.9598  0.3168 -0.6663
   38MOL0     C 4905   7.150   6.280   7.387 -0.5000  0.0623  0.0636
   38MOL0     C 4906   7.126   6.131   7.386  0.3750  1.1537  0.9116
   38MOL0     C 4907   7.125   6.083   7.528 -0.4568 -0.1108  0.4111
   38MOL0     O 4908   6.997   6.107   7.576  0.2196  0.1911  0.5273
   38MOL0     C 4909   6.996   6.172   7.690  0.5769 -0.3228 -0.1342
   38MOL0     C 4910   6.949   6.300   7.681  0.1509 -0.7173  0.4472
   38MOL0     C 4911   6.940   6.371   7.799 -0.1923  0.0889  0.3189
   38MOL0     C 4912   6.987   6.318   7.921 -0.1107 -0.1189 -0.4203
   38MOL0     C 4913   6.983   6.401   8.049  0.1912 -0.4246  0.7011
   38MOL0     O 4914   6.929   6.524   8.034 -0.2877 -0.2916 -0.0021
   38MOL0     C 4915   6.911   6.618   8.135 -0.1849  0.6666  0.4152
   38MOL0     C 4916   6.848   6.735   8.090 -0.1061 -0.8060  0.0824
   38MOL0     C 4917   6.825   6.840   8.178 -0.3493 -0.8122  0.2459
   38MOL0     C 4918   6.887   6.839   8.310  0.4776  0.0845 -0.4955
   38MOL0     O 4919   6.850   6.941   8.403  0.4633  0.0973  0.8693
   38MOL0     C 4920   6.785   6.906   8.522 -0.9296  0.6459  0.6520
   38MOL0     C 4921   6.709   7.019   8.582 -0.5407 -0.1549 -0.1445
   38MOL0     C 4922   6.808   7.141   8.616  0.4173  0.0575  0.0002
   38MOL0     C 4923   6.897   7.121   8.742  0.6858  0.5898  0.1007
   38MOL0     C 4924   6.958   7.253   8.799  0.6518  0.2000 -0.2527
   38MOL0     C 4925   6.876   7.298   8.917 -0.0449  0.0226 -0.8023
   38MOL0     C 4926   6.942   7.418   8.974  0.3078 -0.5497  0.2104
   38MOL0     C 4927   6.839   7.482   9.080  0.2223  0.1435 -0.8862
   38MOL0    Cl 4928   6.684   7.529   9.009  0.2222  0.1010 -0.2488
   38MOL0     C 4929   6.957   6.728   8.350  0.4794  0.3231 -0.5533
   38MOL0     C 4930   6.965   6.613   8.267  1.1897 -0.4764 -1.0440
   38MOL0     O 4931   7.015   6.343   8.154 -0.8480 -1.1177  0.6027
   38MOL0     C 4932   7.040   6.189   7.922  0.0775 -0.6383  0.5495
   38MOL0     C 4933   7.035   6.108   7.807  0.9524 -0.7261  0.9993
   38MOL0     N 4934   7.026   6.262   7.030  0.3824 -0.8982 -1.0179
   38MOL0     N 4935   6.906   6.249   6.990 -0.2067 -0.1869 -0.0528
   38MOL0     C 4936   5.699   6.097   6.749  0.9010 -0.7044 -0.3938
   38MOL0     C 4937   5.587   6.021   6.707  0.2945 -0.7456 -0.4480
   38MOL0     C 4938   5.233   5.886   6.503 -0.5687 -0.0033  0.6380
   38MOL0     C 4939   5.100   5.915   6.529 -0.3756 -0.6870  0.4796
   38MOL0     C 4940   5.001   5.852   6.470  0.0386  0.5194 -0.1625
   38MOL0     C 4941   5.019   5.757   6.374  0.8810 -0.2458 -0.7273
   38MOL0     O 4942   4.906   5.692   6.320 -0.4075  0.7122 -0.6400
   38MOL0     C 4943   4.915   5.598   6.203 -0.9315 -0.0250 -0.0637
   38MOL0     C 4944   4.768   5.570   6.167 -0.6576  0.1581  0.3725
   38MOL0     C 4945   4.694   5.690   6.111  0.3916  1.5147  0.3718
   38MOL0     C 4946   4.576   5.728   6.197 -1.0494 -0.8340  0.1389
   38MOL0     C 4947   4.603   5.822   6.300 -0.5923  0.3232 -0.4939
   38MOL0     C 4948   4.636   5.910   6.384 -0.2700  0.4166 -0.4564
   38MOL0     C 4949   5.146   5.715   6.350 -0.5809  0.3700  0.2294
   38MOL0     C 4950   5.252   5.782   6.407 -0.2212  0.1994 -0.6975
   38MOL0     H 4951   5.603   6.083   6.373 -1.3819 -2.5085 -0.1583
   38MOL0     H 4952   5.797   6.224   6.435  1.5498 -1.4096 -0.3422
   38MOL0     H 4953   5.937   6.227   6.882 -0.3832 -2.0317 -1.8937
   38MOL0     H 4954   5.809   6.334   6.841  0.6202  0.0086  3.6306
   38MOL0     H 4955   5.999   6.494   6.869 -5.8755  1.0567 -1.5838
   38MOL0     H 4956   5.984   6.464   6.698 -0.5347  2.6442  1.2621
   38MOL0     H 4957   6.178   6.400   6.682 -3.6215  1.4118 -0.6878
   38MOL0     H 4958   6.144   6.252   6.790 -0.9493  0.1401 -0.1994
   38MOL0     H 4959   6.223   6.500   6.893  1.3961 -0.6185 -0.2264
   38MOL0     H 4960   6.189   6.338   6.964 -2.0222  1.0710 -0.1076
   38MOL0     H 4961   6.425   6.425   6.782 -4.2615  1.0431 -0.0185
   38MOL0     H 4962   6.400   6.254   6.803 -2.5036 -2.9359  2.1056
   38MOL0     H 4963   6.413   6.263   7.051 -4.0990  0.5043 -2.9044
   38MOL0     H 4964   6.452   6.435   7.048 -2.6028 -0.2113  0.6150
   38MOL0     H 4965   6.619   6.232   6.898 -0.8727 -0.5172  0.7814
   38MOL0     H 4966   6.660   6.401   6.919  1.5134 -0.8491 -0.4046
   38MOL0     H 4967   6.635   6.178   7.119 -1.0090 -0.1073 -2.7308
   38MOL0     H 4968   6.637   6.342   7.182  0.1493 -0.9688  0.4189
   38MOL0     H 4969   6.867   6.361   7.296  4.2102  2.4079  0.8278
   38MOL0     H 4970   7.141   6.459   7.263  0.4749  0.3910 -1.6084
   38MOL0     H 4971   7.249   6.333   7.210  1.9235 -0.9117  1.9445
   38MOL0     H 4972   7.070   6.333   7.440 -1.4238  1.1285 -2.2460
   38MOL0     H 4973   7.244   6.293   7.440 -0.8257 -0.4294  0.7708
   38MOL0     H 4974   7.037   6.094   7.335 -0.0435 -0.3347  2.6524
   38MOL0     H 4975   7.207   6.080   7.333  0.5224  2.4598 -0.1950
   38MOL0     H 4976   7.203   6.140   7.578  0.5232  0.5880 -1.7767
   38MOL0     H 4977   7.141   5.978   7.551 -3.2627 -0.6709  0.1978
   38MOL0     H 4978   6.919   6.329   7.581  0.5501 -0.5178  0.3838
   38MOL0     H 4979   6.888   6.466   7.794  1.2237  0.8546 -0.5561
   38MOL0     H 4980   6.825   6.751   7.985  3.0077 -1.9451 -0.8892
   38MOL0     H 4981   6.772   6.933   8.162 -1.4051 -1.1832  1.3871
   38MOL0     H 4982   6.868   6.878   8.587 -0.4610  1.6068  0.4746
   38MOL0     H 4983   6.718   6.823   8.496  1.4994 -0.5767 -2.2703
   38MOL0     H 4984   6.665   6.999   8.680  1.0317  0.8481  0.8293
   38MOL0     H 4985   6.638   7.067   8.514  2.0573  2.4180 -1.2353
   38MOL0     H 4986   6.742   7.228   8.629  1.5112  0.5978  2.4663
   38MOL0     H 4987   6.880   7.141   8.534  0.4977 -4.3138 -0.1550
   38MOL0     H 4988   6.837   7.065   8.814  1.4656 -1.3587 -0.7025
   38MOL0     H 4989   6.985   7.057   8.729 -0.7035 -1.2769 -0.5870
   38MOL0     H 4990   6.953   7.336   8.728 -1.8545 -0.5471 -1.0760
   38MOL0     H 4991   7.062   7.239   8.828  0.0356 -0.1973  1.9276
   38MOL0     H 4992   6.855   7.224   8.995 -1.2921  2.1842  1.0278
   38MOL0     H 4993   6.775   7.318   8.883  0.1139  2.2201 -0.1203
   38MOL0     H 4994   7.039   7.397   9.018 -0.1914 -2.3542  0.5173
   38MOL0     H 4995   6.951   7.497   8.899  1.6207 -1.4887 -0.6696
   38MOL0     H 4996   6.879   7.578   9.117  1.5536  0.0011 -1.8615
   38MOL0     H 4997   6.826   7.415   9.165  3.8154  0.9992  0.5046
   38MOL0     H 4998   6.993   6.733   8.452 -3.1055  5.2993  0.8682
   38MOL0     H 4999   7.025   6.526   8.292 -0.6196 -2.1681 -2.3282
   38MOL0     H 5000   7.091   6.146   8.008 -0.5542  0.6887  1.6473
   38MOL0     H 5001   7.078   6.009   7.804  1.1757 -0.6029 -0.6540
   38MOL0     H 5002   5.733   6.101   6.852 -1.0875  2.2892  0.3024
   38MOL0     H 5003   5.535   5.960   6.781  1.0396 -2.9112 -1.6101
   38MOL0     H 5004   5.070   5.997   6.594 -0.2227 -1.1130  1.0927
   38MOL0     H 5005   4.901   5.888   6.494  1.2073  3.3794  0.9252
   38MOL0     H 5006   4.963   5.505   6.234  1.2673  2.4159  4.8934
   38MOL0     H 5007   4.973   5.635   6.118  1.7194 -1.1750  1.1464
   38MOL0     H 5008   4.761   5.494   6.089  0.5628  2.6193 -2.2967
   38MOL0     H 5009   4.725   5.526   6.258 -1.6556 -0.8393 -0.5573
   38MOL0     H 5010   4.665   5.664   6.009  2.5745 -0.8009  0.2285
   38MOL0     H 5011   4.766   5.772   6.100  1.7099  0.3494  0.0886
   38MOL0     H 5012   4.514   5.785   6.127 -2.9789 -0.7758  1.8063
   38MOL0     H 5013   4.519   5.643   6.235 -3.4001 -1.4599 -4.1517
   38MOL0     H 5014   4.680   5.969   6.462 -0.3131 -0.4119  0.2110
   38MOL0     H 5015   5.171   5.645   6.271 -0.3644  0.5326  0.1531
   38MOL0     H 5016   5.356   5.750   6.397  0.5811  0.3088  4.5657
   39MOL0     O 5017   3.051   7.669   7.086  0.0318  0.0069 -0.0037
   39MOL0     C 5018   3.000   7.736   7.181 -0.3493 -0.6422  0.0864
   39MOL0     O 5019   3.048   7.750   7.300 -0.3367 -0.1174 -0.2183
   39MOL0     C 5020   3.155   7.675   7.343 -0.6713  0.5605  0.2422
   39MOL0     C 5021   3.236   7.741   7.437  0.2270  0.1709 -0.5235
   39MOL0     C 5022   3.333   7.672   7.511  0.8867  0.0232  0.5909
   39MOL0     C 5023   3.357   7.535   7.483  0.2502 -1.2920 -0.2456
   39MOL0     O 5024   3.455   7.464   7.551 -0.1894  0.0396 -0.5530
   39MOL0     C 5025   3.533   7.530   7.658 -0.3475  0.1039  1.3679
   39MOL0     C 5026   3.631   7.422   7.710 -0.5002 -0.4865 -0.1096
   39MOL0     C 5027   3.714   7.472   7.823 -0.1328 -0.9842  0.3660
   39MOL0     C 5028   3.815   7.371   7.859  0.4643 -0.2080 -0.4220
   39MOL0     C 5029   3.874   7.363   7.998  0.2903  0.0338  0.7238
   39MOL0     C 5030   3.779   7.390   8.123  0.8989  0.1437  0.1018
   39MOL0     C 5031   3.631   7.324   8.130  0.1974  0.0600 -1.6907
   39MOL0     C 5032   3.537   7.338   8.255  0.0476  0.2551  1.1911
   39MOL0     N 5033   3.592   7.306   8.389 -0.0175  0.5057  0.3830
   39MOL0     C 5034   3.517   7.338   8.502 -0.3673  0.1863 -0.5107
   39MOL0     C 5035   3.563   7.252   8.606 -0.1231 -0.6759  0.1888
   39MOL0     C 5036   3.516   7.264   8.756  0.9579  0.1410  0.1857
   39MOL0     C 5037   3.364   7.241   8.769  0.0979  0.3477  0.3502
   39MOL0     C 5038   3.321   7.224   8.916  0.3326  0.1689  0.6426
   39MOL0     C 5039   3.304   7.359   8.986  0.5640 -0.0628  0.2451
   39MOL0     O 5040   3.172   7.395   8.948  0.4206  0.3742 -0.4872
   39MOL0     C 5041   3.064   7.339   9.007  0.0528  0.3465 -0.3285
   39MOL0     C 5042   2.952   7.300   8.920 -0.0454  0.1087 -0.5458
   39MOL0     C 5043   2.832   7.253   8.981  0.6001 -0.2819  0.3035
   39MOL0     C 5044   2.813   7.274   9.112  0.3557  0.3149 -0.4399
   39MOL0     C 5045   2.682   7.245   9.178 -0.0112 -0.0402 -0.4532
   39MOL0     O 5046   2.582   7.239   9.093  0.1724  0.3828 -0.1006
   39MOL0     C 5047   2.449   7.218   9.127  0.3791  0.6339  0.4960
   39MOL0     C 5048   2.381   7.096   9.084  0.4447 -0.3560  0.7837
   39MOL0     C 5049   2.251   7.069   9.126  0.6240 -0.0485  0.5099
   39MOL0     C 5050   2.176   7.168   9.190 -0.2101 -0.5299  0.3944
   39MOL0     O 5051   2.039   7.144   9.221  0.1642  0.1899  0.2840
   39MOL0     C 5052   2.003   7.201   9.348 -1.3670 -0.4151  0.7842
   39MOL0     C 5053   1.885   7.136   9.406 -0.8759 -0.1285 -0.9923
   39MOL0     C 5054   1.904   6.987   9.446 -0.7521  0.0457  0.2326
   39MOL0     C 5055   1.775   6.940   9.524 -0.4400 -0.2765  0.4754
   39MOL0     C 5056   1.640   6.957   9.436 -0.5139  0.0455 -0.4930
   39MOL0     C 5057   1.534   6.881   9.514 -0.2166 -1.0623  0.0024
   39MOL0     C 5058   1.397   6.913   9.465 -0.5155 -0.1472 -0.1351
   39MOL0     C 5059   1.278   6.829   9.521 -0.2096 -0.6444 -0.9327
   39MOL0    Cl 5060   1.280   6.661   9.467 -0.1303  0.5059  0.5723
   39MOL0     C 5061   2.244   7.288   9.222 -0.2438  0.3005  0.9227
   39MOL0     C 5062   2.374   7.311   9.186 -0.7615 -0.4816  1.0537
   39MOL0     O 5063   2.682   7.228   9.300 -0.6908 -0.0106  0.2731
   39MOL0     C 5064   2.918   7.305   9.199 -0.0908 -0.4471  0.7957
   39MOL0     C 5065   3.042   7.348   9.145 -1.3168 -0.5225 -0.0796
   39MOL0     N 5066   3.659   7.176   8.550 -1.3041 -0.1571 -0.0427
   39MOL0     N 5067   3.675   7.201   8.419  0.3008  0.1643  0.1578
   39MOL0     C 5068   3.284   7.471   7.387 -0.3441 -0.1820  0.0253
   39MOL0     C 5069   3.180   7.536   7.320  0.5694  0.3429  0.3284
   39MOL0     C 5070   2.868   7.800   7.161  0.6766 -0.9275  0.2487
   39MOL0     C 5071   2.820   7.823   7.030  0.2502  0.0819  0.1478
   39MOL0     C 5072   2.687   7.885   7.020 -0.0862  1.0715  0.4136
   39MOL0     C 5073   2.620   7.937   7.137 -0.6193  0.4468  0.2191
   39MOL0     O 5074   2.497   8.000   7.139 -0.2202 -0.1303 -0.1750
   39MOL0     C 5075   2.433   8.044   7.021  0.3200  0.6263  0.2552
   39MOL0     C 5076   2.473   8.184   6.990 -0.2477 -0.3229 -0.1692
   39MOL0     C 5077   2.437   8.296   7.097 -0.0414 -0.0505 -0.6308
   39MOL0     C 5078   2.508   8.433   7.070 -1.0949 -0.3373 -1.0878
   39MOL0     C 5079   2.465   8.494   6.947  0.5828 -0.5724 -0.6332
   39MOL0     C 5080   2.423   8.549   6.850 -0.2192 -0.5337  0.2395
   39MOL0     C 5081   2.668   7.908   7.261  0.0355  0.2533 -0.1508
   39MOL0     C 5082   2.789   7.835   7.271  0.2685  0.7811 -0.3109
   39MOL0     H 5083   3.215   7.844   7.465  1.2969  0.5453 -1.0322
   39MOL0     H 5084   3.380   7.712   7.600  1.5073 -0.8871  0.6916
   39MOL0     H 5085   3.461   7.558   7.735 -2.7297 -0.5450 -0.4945
   39MOL0     H 5086   3.586   7.621   7.630 -2.2600  1.2492  1.3493
   39MOL0     H 5087   3.699   7.398   7.628  0.4337 -0.9577  0.7790
   39MOL0     H 5088   3.581   7.326   7.728 -1.2080 -0.3885 -1.4626
   39MOL0     H 5089   3.651   7.507   7.905 -0.1446 -0.4036  0.1070
   39MOL0     H 5090   3.762   7.560   7.779  1.3799 -0.6976  2.4215
   39MOL0     H 5091   3.768   7.274   7.839 -2.8857  0.9213  1.1970
   39MOL0     H 5092   3.901   7.380   7.792 -0.2123  0.9734 -1.1754
   39MOL0     H 5093   3.957   7.432   8.009  1.6415 -1.0934 -1.6595
   39MOL0     H 5094   3.921   7.265   8.012 -3.2554 -2.3742 -2.0607
   39MOL0     H 5095   3.757   7.497   8.119  1.5465  0.2448 -2.3566
   39MOL0     H 5096   3.840   7.360   8.209 -1.1301 -2.5090  0.7572
   39MOL0     H 5097   3.578   7.360   8.041  1.2910 -0.1057 -2.4375
   39MOL0     H 5098   3.646   7.216   8.119  2.3769  0.0513  0.4680
   39MOL0     H 5099   3.452   7.273   8.231  0.9673 -0.7711  0.5587
   39MOL0     H 5100   3.498   7.439   8.258  0.2813  0.4017 -0.1012
   39MOL0     H 5101   3.442   7.411   8.529 -4.5830 -4.7220  3.1186
   39MOL0     H 5102   3.532   7.368   8.786 -1.2993  0.1670  1.6139
   39MOL0     H 5103   3.572   7.186   8.808  0.7473 -1.6566 -2.1303
   39MOL0     H 5104   3.340   7.146   8.720  1.3175 -0.3459  1.0389
   39MOL0     H 5105   3.310   7.324   8.722  0.0782  0.4832  0.6083
   39MOL0     H 5106   3.226   7.169   8.921 -2.6804  4.7928 -0.0254
   39MOL0     H 5107   3.398   7.161   8.964  1.2001 -0.0051 -0.8949
   39MOL0     H 5108   3.368   7.442   8.953 -1.3777  2.5698  2.5636
   39MOL0     H 5109   3.333   7.331   9.088 -2.2807  0.5955  1.3385
   39MOL0     H 5110   2.958   7.297   8.812  0.4347 -0.2035 -0.5146
   39MOL0     H 5111   2.758   7.210   8.915  0.0781 -1.4353  1.5787
   39MOL0     H 5112   2.438   7.018   9.035  0.7886  0.9267 -0.9362
   39MOL0     H 5113   2.196   6.981   9.093  0.3449 -0.1972  1.3457
   39MOL0     H 5114   1.981   7.308   9.340 -2.3862 -0.7863 -3.8318
   39MOL0     H 5115   2.086   7.199   9.419  0.2899  1.7790 -0.9589
   39MOL0     H 5116   1.821   7.125   9.318  0.9246  1.7164 -2.6644
   39MOL0     H 5117   1.853   7.196   9.491  3.0970 -1.0073  1.3975
   39MOL0     H 5118   2.000   6.976   9.497 -0.2017  0.4525 -0.6923
   39MOL0     H 5119   1.906   6.924   9.356 -0.5728  4.0619 -2.8838
   39MOL0     H 5120   1.799   6.838   9.556  0.0757 -0.7399 -1.3171
   39MOL0     H 5121   1.755   6.998   9.615 -1.4002 -0.5400  0.4385
   39MOL0     H 5122   1.647   6.913   9.336 -1.9398  1.0361 -1.0540
   39MOL0     H 5123   1.618   7.064   9.431  0.9723  0.4207  0.3540
   39MOL0     H 5124   1.543   6.911   9.619  2.5360 -2.6894  0.3303
   39MOL0     H 5125   1.547   6.773   9.504  3.6390 -1.2126  3.5840
   39MOL0     H 5126   1.381   7.016   9.500 -1.4534 -0.7581  1.3553
   39MOL0     H 5127   1.406   6.901   9.357  0.8093  1.4161 -0.2483
   39MOL0     H 5128   1.187   6.879   9.489  1.8605  2.7331 -2.0896
   39MOL0     H 5129   1.288   6.827   9.630  3.3764 -0.9344 -1.1246
   39MOL0     H 5130   2.189   7.374   9.260 -0.8091  2.0979 -3.3412
   39MOL0     H 5131   2.418   7.407   9.207  2.0418 -1.5798  0.6057
   39MOL0     H 5132   2.903   7.319   9.306  1.3005  0.1534  0.9266
   39MOL0     H 5133   3.121   7.390   9.205 -2.2092  3.4921 -1.3893
   39MOL0     H 5134   3.303   7.371   7.350 -6.4193 -1.9105  0.4602
   39MOL0     H 5135   3.114   7.484   7.251 -1.7884 -2.2814  4.2079
   39MOL0     H 5136   2.864   7.778   6.942  0.0188 -4.4213  2.0665
   39MOL0     H 5137   2.639   7.881   6.923 -0.5821  2.9657  0.5432
   39MOL0     H 5138   2.326   8.041   7.041  0.7537 -1.7212  2.9060
   39MOL0     H 5139   2.456   7.975   6.939 -0.2736 -0.5551  1.0473
   39MOL0     H 5140   2.582   8.187   6.981 -0.0368 -0.8747  1.8697
   39MOL0     H 5141   2.434   8.212   6.891  2.2223 -1.0468 -1.4381
   39MOL0     H 5142   2.458   8.260   7.198 -1.4851  0.6052 -0.0681
   39MOL0     H 5143   2.331   8.316   7.079 -0.0278 -0.6040 -1.3706
   39MOL0     H 5144   2.482   8.508   7.146  0.6714  1.0787 -1.8138
   39MOL0     H 5145   2.617   8.422   7.075 -0.3987  2.3396 -5.3520
   39MOL0     H 5146   2.362   8.583   6.768 -2.0165  1.3151  2.2103
   39MOL0     H 5147   2.613   7.935   7.351  1.7870  1.7818  0.5244
   39MOL0     H 5148   2.818   7.813   7.373 -1.6524  0.4680  0.2115
   40MOL0     O 5149   2.911   3.950   3.585 -0.1763 -1.0456 -0.1032
   40MOL0     C 5150   3.032   3.950   3.605 -0.6746  0.6226 -1.0114
   40MOL0     O 5151   3.100   4.036   3.703  0.6837  0.1064  0.2623
   40MOL0     C 5152   3.019   4.134   3.758  0.0922  0.9493 -0.7534
   40MOL0     C 5153   2.969   4.124   3.894 -0.0497 -0.5457  0.3611
   40MOL0     C 5154   2.861   4.209   3.943  0.4821  0.1460 -0.2744
   40MOL0     C 5155   2.827   4.322   3.871 -0.5655 -0.1689  0.9712
   40MOL0     O 5156   2.742   4.420   3.912 -0.3065 -0.7936 -0.3049
   40MOL0     C 5157   2.705   4.424   4.056  0.2105 -0.3320 -0.2208
   40MOL0     C 5158   2.647   4.559   4.098 -0.2307  0.4753  0.4827
   40MOL0     C 5159   2.751   4.663   4.083 -0.1252 -0.6571  0.0337
   40MOL0     C 5160   2.718   4.797   4.156  0.5686  0.0342  0.1910
   40MOL0     C 5161   2.651   4.895   4.073  0.9522  0.4112  0.8671
   40MOL0     C 5162   2.640   5.037   4.129 -0.5191  0.0744 -0.3938
   40MOL0     C 5163   2.580   5.055   4.263 -0.6710  0.4312 -0.7072
   40MOL0     C 5164   2.537   5.191   4.286  0.6371  0.3696 -0.2739
   40MOL0     N 5165   2.522   5.237   4.423 -0.7732 -0.7544  0.3044
   40MOL0     C 5166   2.407   5.261   4.490 -0.6203  0.3910  0.5325
   40MOL0     C 5167   2.450   5.337   4.604 -0.3904  1.6307 -0.6255
   40MOL0     C 5168   2.362   5.395   4.711 -0.0855  0.7167  0.5461
   40MOL0     C 5169   2.379   5.542   4.714 -1.0074  0.2785 -0.0935
   40MOL0     C 5170   2.263   5.607   4.776  0.4728  0.5540 -0.2597
   40MOL0     C 5171   2.296   5.749   4.811  0.1960 -0.4593 -0.0587
   40MOL0     O 5172   2.377   5.754   4.928  0.8167 -0.1610 -0.3736
   40MOL0     C 5173   2.315   5.741   5.048 -0.3159 -1.0585 -0.1510
   40MOL0     C 5174   2.184   5.790   5.084  0.2617 -0.5782 -0.5247
   40MOL0     C 5175   2.145   5.784   5.218 -0.1226  0.2073  0.5453
   40MOL0     C 5176   2.232   5.721   5.309 -0.0164  1.1965 -0.0316
   40MOL0     C 5177   2.210   5.723   5.455  0.4384  0.6646 -0.0701
   40MOL0     O 5178   2.265   5.629   5.531  0.0596 -0.0001 -0.6688
   40MOL0     C 5179   2.235   5.609   5.662  0.3658  0.3035 -1.1844
   40MOL0     C 5180   2.115   5.555   5.706  0.3953 -0.2477  0.5730
   40MOL0     C 5181   2.073   5.539   5.842  0.6969  0.5126 -0.0046
   40MOL0     C 5182   2.169   5.568   5.943 -0.7696 -0.0449 -0.1390
   40MOL0     O 5183   2.148   5.563   6.075 -1.3713  0.5404  0.1677
   40MOL0     C 5184   2.008   5.554   6.127  0.3547  0.6333  0.4350
   40MOL0     C 5185   2.008   5.584   6.279 -0.1471  0.2431  0.2104
   40MOL0     C 5186   2.092   5.708   6.309 -0.3456  0.4269 -0.2707
   40MOL0     C 5187   2.029   5.773   6.431 -0.4969 -0.2089  0.0387
   40MOL0     C 5188   2.121   5.892   6.474 -0.0021 -0.0518  0.7707
   40MOL0     C 5189   2.049   5.980   6.573 -0.0729 -0.0506  0.7095
   40MOL0     C 5190   2.140   6.086   6.613 -0.1307 -0.8699 -0.9563
   40MOL0     C 5191   2.077   6.171   6.720 -0.6852 -0.7815  0.4055
   40MOL0    Cl 5192   2.047   6.073   6.869 -0.0897 -0.0036 -0.2415
   40MOL0     C 5193   2.294   5.620   5.900 -0.6182 -0.4548  0.6514
   40MOL0     C 5194   2.326   5.646   5.767 -0.0044  0.0439 -0.8749
   40MOL0     O 5195   2.116   5.785   5.488 -0.6654 -0.4400  0.7216
   40MOL0     C 5196   2.351   5.669   5.265 -0.6209 -0.1689 -0.5781
   40MOL0     C 5197   2.402   5.683   5.144  0.4326  0.1457  0.3623
   40MOL0     N 5198   2.587   5.343   4.595 -0.6598  0.6713 -0.0659
   40MOL0     N 5199   2.627   5.288   4.489  0.3684 -0.4338  0.7574
   40MOL0     C 5200   2.888   4.334   3.743  0.6205 -0.4219  0.0644
   40MOL0     C 5201   2.980   4.250   3.688  0.7038  0.6858  0.7677
   40MOL0     C 5202   3.117   3.859   3.518  0.5866 -0.9096 -0.6418
   40MOL0     C 5203   3.254   3.843   3.544  0.6614  0.1251 -1.2981
   40MOL0     C 5204   3.325   3.755   3.471 -0.6292  0.4314 -0.0540
   40MOL0     C 5205   3.273   3.695   3.355 -0.4469  0.4481  0.2406
   40MOL0     O 5206   3.349   3.626   3.267 -0.2459 -0.3365  0.1511
   40MOL0     C 5207   3.284   3.529   3.187  1.0464  0.2182  0.6537
   40MOL0     C 5208   3.391   3.436   3.110  0.7965 -0.0522  0.6477
   40MOL0     C 5209   3.489   3.525   3.027 -0.0027  0.2049 -0.5957
   40MOL0     C 5210   3.599   3.442   2.940 -0.4519  0.3393 -0.0829
   40MOL0     C 5211   3.526   3.387   2.826  0.0345 -0.5890  0.8680
   40MOL0     C 5212   3.494   3.352   2.715 -0.1450 -0.7459 -0.2044
   40MOL0     C 5213   3.137   3.711   3.329  0.1514  0.2094  0.1235
   40MOL0     C 5214   3.057   3.793   3.407 -1.1141 -0.2435 -0.3775
   40MOL0     H 5215   3.004   4.036   3.947  0.8426  1.0021  2.4928
   40MOL0     H 5216   2.827   4.187   4.044 -0.4007  3.5677  0.2793
   40MOL0     H 5217   2.796   4.408   4.114  0.4554  2.9377  0.4565
   40MOL0     H 5218   2.638   4.341   4.082 -0.9963  0.8683  0.6166
   40MOL0     H 5219   2.602   4.550   4.197  0.3785 -0.1334  0.7056
   40MOL0     H 5220   2.560   4.585   4.036 -2.3122  0.4022  3.1585
   40MOL0     H 5221   2.775   4.676   3.977  0.6453 -0.3683  0.2387
   40MOL0     H 5222   2.833   4.619   4.140 -0.4519 -0.1856  0.8833
   40MOL0     H 5223   2.666   4.778   4.250 -1.5617  0.5376 -0.8307
   40MOL0     H 5224   2.812   4.837   4.196  0.5164  1.3471 -0.9467
   40MOL0     H 5225   2.550   4.853   4.066  2.3191 -2.9083 -2.2569
   40MOL0     H 5226   2.686   4.895   3.970  4.2878  0.2329  1.9003
   40MOL0     H 5227   2.578   5.090   4.058  2.6184  1.2888 -2.4468
   40MOL0     H 5228   2.745   5.068   4.131 -0.6789  0.6549  1.2633
   40MOL0     H 5229   2.503   4.979   4.283  0.8077 -1.3373 -1.4689
   40MOL0     H 5230   2.642   5.025   4.348 -3.0384 -1.1754  0.5859
   40MOL0     H 5231   2.449   5.224   4.229 -0.6059  1.4369  2.1230
   40MOL0     H 5232   2.615   5.249   4.236 -1.3559  1.6333 -2.1106
   40MOL0     H 5233   2.304   5.237   4.468 -0.5891  0.4350  0.3398
   40MOL0     H 5234   2.376   5.354   4.811 -1.1404  0.5289  0.6287
   40MOL0     H 5235   2.260   5.365   4.686  0.1041  1.0350 -0.6941
   40MOL0     H 5236   2.393   5.593   4.619  2.4202  0.1674  0.2196
   40MOL0     H 5237   2.468   5.574   4.770 -3.0670  3.6548  1.5386
   40MOL0     H 5238   2.174   5.609   4.712 -0.4690  1.1206  1.0316
   40MOL0     H 5239   2.224   5.561   4.868 -0.9928 -0.1542 -1.1886
   40MOL0     H 5240   2.204   5.806   4.824 -0.1373 -1.3735  1.9185
   40MOL0     H 5241   2.342   5.797   4.724  1.1148 -1.8213 -0.3555
   40MOL0     H 5242   2.126   5.837   5.005  0.0431 -0.8279 -0.5150
   40MOL0     H 5243   2.047   5.821   5.247 -0.7724 -1.5303  0.6537
   40MOL0     H 5244   2.039   5.529   5.633  0.1488  0.9312  0.3897
   40MOL0     H 5245   1.975   5.500   5.867  0.7198  0.3755 -0.1255
   40MOL0     H 5246   1.976   5.453   6.100  0.3705  0.5784  0.6214
   40MOL0     H 5247   1.937   5.616   6.072 -3.3791 -1.3704  2.5561
   40MOL0     H 5248   2.040   5.496   6.335 -0.9767 -0.0803  0.1949
   40MOL0     H 5249   1.906   5.577   6.317  0.8199 -1.6530  2.6715
   40MOL0     H 5250   2.085   5.774   6.222  2.6515  0.9700 -0.1935
   40MOL0     H 5251   2.197   5.684   6.322 -0.2309  0.1397 -1.5543
   40MOL0     H 5252   1.931   5.811   6.399 -0.7705  0.3348  1.4405
   40MOL0     H 5253   2.021   5.699   6.511  0.7966  1.6537  1.9874
   40MOL0     H 5254   2.149   5.967   6.399 -1.5754 -0.0239  0.1854
   40MOL0     H 5255   2.221   5.860   6.506  1.4072  0.3759 -2.7795
   40MOL0     H 5256   2.009   5.925   6.659 -0.7610 -5.2591 -2.5029
   40MOL0     H 5257   1.960   6.020   6.523  0.0057 -0.5722  0.1452
   40MOL0     H 5258   2.229   6.046   6.663 -0.2506  0.6354  0.5541
   40MOL0     H 5259   2.158   6.152   6.527 -1.1467  0.9719  0.1972
   40MOL0     H 5260   1.984   6.215   6.682 -1.6411 -1.9940  1.2702
   40MOL0     H 5261   2.142   6.256   6.742  0.9532 -2.0056  0.5008
   40MOL0     H 5262   2.376   5.631   5.970 -1.1623 -0.6343  1.3254
   40MOL0     H 5263   2.428   5.675   5.744  0.1709  2.5976  2.4624
   40MOL0     H 5264   2.407   5.615   5.341  0.7444  0.4997 -1.0779
   40MOL0     H 5265   2.489   5.633   5.105 -1.2455 -0.6031 -2.8263
   40MOL0     H 5266   2.865   4.425   3.688  0.6053 -2.6114 -3.9752
   40MOL0     H 5267   3.009   4.271   3.586  0.2127  1.1928  0.7319
   40MOL0     H 5268   3.302   3.892   3.628 -0.5452 -2.1655  0.8564
   40MOL0     H 5269   3.428   3.732   3.496 -0.1915  2.3366  0.0065
   40MOL0     H 5270   3.243   3.591   3.106 -2.3794  0.2667  2.2532
   40MOL0     H 5271   3.211   3.475   3.246  0.6713  2.0906  1.9986
   40MOL0     H 5272   3.453   3.375   3.177 -0.8754 -1.9386  0.5703
   40MOL0     H 5273   3.339   3.362   3.050  3.6167  0.5411 -2.8435
   40MOL0     H 5274   3.551   3.583   3.096 -2.8465  2.4760  0.2237
   40MOL0     H 5275   3.438   3.605   2.973 -3.2695  0.9436  3.1059
   40MOL0     H 5276   3.677   3.514   2.913 -1.5064  1.7325  0.4002
   40MOL0     H 5277   3.633   3.364   3.008 -0.0106  0.2323 -0.4250
   40MOL0     H 5278   3.445   3.330   2.622 -0.3456 -0.0735 -0.2650
   40MOL0     H 5279   3.079   3.682   3.242 -2.7759 -0.4942  2.1449
   40MOL0     H 5280   2.951   3.805   3.390 -1.0242  1.6989  0.2488
   41MOL0     O 5281   4.502   5.254   7.518  0.1868  0.2454 -0.3562
   41MOL0     C 5282   4.547   5.362   7.520 -0.0086  0.3271 -0.0049
   41MOL0     O 5283   4.484   5.472   7.557 -0.0699  0.2718  0.3658
   41MOL0     C 5284   4.352   5.489   7.586 -0.3323 -0.5441 -0.5153
   41MOL0     C 5285   4.250   5.394   7.559 -0.0017 -0.4029  0.7302
   41MOL0     C 5286   4.116   5.416   7.583 -0.1309  0.2660 -0.1754
   41MOL0     C 5287   4.075   5.536   7.635  0.2376  0.2597  0.5729
   41MOL0     O 5288   3.942   5.546   7.663  0.8060 -0.6560  0.4425
   41MOL0     C 5289   3.905   5.667   7.735  0.8538  0.3389 -0.1672
   41MOL0     C 5290   3.754   5.684   7.745  0.0940  1.1431  0.6061
   41MOL0     C 5291   3.710   5.581   7.862  0.1923 -0.5554  0.2964
   41MOL0     C 5292   3.554   5.591   7.868  0.5909 -0.4070 -0.8241
   41MOL0     C 5293   3.486   5.485   7.952  1.0980  0.2536  0.7680
   41MOL0     C 5294   3.547   5.451   8.085  0.1618 -1.0047  0.2351
   41MOL0     C 5295   3.438   5.372   8.165  0.1387  0.8830 -0.5978
   41MOL0     C 5296   3.453   5.375   8.315  0.5377  0.9026 -0.3762
   41MOL0     N 5297   3.362   5.282   8.393  0.1551 -0.8851 -0.0230
   41MOL0     C 5298   3.317   5.299   8.517 -0.7903 -0.1042  0.2447
   41MOL0     C 5299   3.233   5.195   8.545  0.6121  0.1193  0.1743
   41MOL0     C 5300   3.153   5.159   8.668 -0.0971 -0.7830  0.7022
   41MOL0     C 5301   3.237   5.175   8.794  0.0539  0.4771 -0.3691
   41MOL0     C 5302   3.375   5.105   8.772 -0.4146  0.3282 -0.3181
   41MOL0     C 5303   3.456   5.107   8.898  0.0952  0.4215 -0.6403
   41MOL0     O 5304   3.477   5.232   8.962  0.3845  0.2217 -0.5759
   41MOL0     C 5305   3.547   5.239   9.085  0.0504 -0.2238  0.8651
   41MOL0     C 5306   3.669   5.171   9.095 -0.2624  0.2085 -0.1769
   41MOL0     C 5307   3.738   5.176   9.222  0.2059 -0.1112  0.4662
   41MOL0     C 5308   3.675   5.240   9.335 -0.6967 -0.1109 -0.4545
   41MOL0     C 5309   3.735   5.245   9.477 -0.3569 -0.8620 -0.0464
   41MOL0     O 5310   3.862   5.188   9.477 -0.3926 -0.7821  0.0975
   41MOL0     C 5311   3.947   5.183   9.589 -0.4681  0.3343 -0.7543
   41MOL0     C 5312   4.076   5.192   9.556 -0.8188 -0.1352  0.0743
   41MOL0     C 5313   4.174   5.164   9.655 -0.4607  0.2275 -0.3577
   41MOL0     C 5314   4.146   5.138   9.790 -0.3849  0.3313  0.7634
   41MOL0     O 5315   4.244   5.103   9.880 -0.3583 -0.8517  0.2404
   41MOL0     C 5316   4.377   5.145   9.861  0.0986  0.2147  0.1588
   41MOL0     C 5317   4.468   5.026   9.791  0.3182 -0.4435  0.2197
   41MOL0     C 5318   4.613   5.067   9.765  0.1413 -0.4806 -0.4567
   41MOL0     C 5319   4.679   4.956   9.692  0.0443  0.3085  0.6740
   41MOL0     C 5320   4.828   4.995   9.650 -0.0182 -0.1178 -0.6742
   41MOL0     C 5321   4.885   4.876   9.574 -0.2660  1.5627 -0.3315
   41MOL0     C 5322   5.010   4.912   9.508 -0.6333 -0.4511  0.0185
   41MOL0     C 5323   5.129   4.950   9.597  0.2336  0.2051  0.3457
   41MOL0    Cl 5324   5.206   4.800   9.655  0.2490 -0.3666  0.0343
   41MOL0     C 5325   4.013   5.130   9.818  0.7945 -0.5263 -1.2828
   41MOL0     C 5326   3.907   5.145   9.721  0.2120  0.6853 -0.1601
   41MOL0     O 5327   3.686   5.302   9.576 -0.6057  0.5431  0.2857
   41MOL0     C 5328   3.546   5.300   9.316 -0.3816  1.0965 -0.2116
   41MOL0     C 5329   3.485   5.291   9.191 -0.8649 -1.1928 -0.2293
   41MOL0     N 5330   3.222   5.118   8.432  0.2939  0.1957  0.0687
   41MOL0     N 5331   3.311   5.164   8.346 -0.1056  0.5911 -0.4894
   41MOL0     C 5332   4.177   5.637   7.663  0.5841 -1.2921  0.0687
   41MOL0     C 5333   4.316   5.616   7.640  0.4549 -0.1547 -1.2026
   41MOL0     C 5334   4.687   5.372   7.476  0.1571 -0.3102 -0.2138
   41MOL0     C 5335   4.752   5.277   7.407 -0.0316  0.0840  0.0065
   41MOL0     C 5336   4.884   5.286   7.356  0.3972  0.2816 -0.5040
   41MOL0     C 5337   4.952   5.408   7.374 -0.2435 -0.1671 -1.4798
   41MOL0     O 5338   5.069   5.418   7.306 -0.3948  0.1031 -0.0695
   41MOL0     C 5339   5.148   5.543   7.315  0.2814  0.4516 -1.2252
   41MOL0     C 5340   5.265   5.531   7.225 -0.0645  0.4519 -0.5252
   41MOL0     C 5341   5.363   5.441   7.319  0.5071  0.2198  0.3778
   41MOL0     C 5342   5.507   5.499   7.317  0.1001  0.9638  0.4660
   41MOL0     C 5343   5.505   5.620   7.395  0.0671 -0.0049 -0.3659
   41MOL0     C 5344   5.505   5.731   7.459  0.0429  0.4333  0.2310
   41MOL0     C 5345   4.891   5.506   7.450 -0.8984 -0.6615  0.1203
   41MOL0     C 5346   4.767   5.494   7.502  1.1830 -0.1982  0.0519
   41MOL0     H 5347   4.265   5.304   7.500 -2.9168 -1.1902  1.0706
   41MOL0     H 5348   4.039   5.340   7.575 -1.1109  0.7496  3.0803
   41MOL0     H 5349   3.941   5.754   7.680  1.2831  1.8613  2.3774
   41MOL0     H 5350   3.948   5.665   7.836  1.1685  1.9396 -0.2513
   41MOL0     H 5351   3.714   5.664   7.645  2.2713 -0.8651  0.0430
   41MOL0     H 5352   3.737   5.787   7.776 -0.0861  1.4995 -0.6059
   41MOL0     H 5353   3.764   5.603   7.954  1.5742  3.5085 -1.2401
   41MOL0     H 5354   3.741   5.478   7.844  0.0835 -0.5993  0.3582
   41MOL0     H 5355   3.523   5.685   7.913  0.4587  0.9633 -3.5599
   41MOL0     H 5356   3.523   5.584   7.763 -1.1294  1.2889 -0.4749
   41MOL0     H 5357   3.481   5.394   7.892 -0.8958  1.0274 -0.3613
   41MOL0     H 5358   3.381   5.512   7.967  0.9623 -0.4002  1.0475
   41MOL0     H 5359   3.570   5.543   8.140 -1.1436 -0.9512  0.7309
   41MOL0     H 5360   3.643   5.399   8.089  0.0484 -1.2417 -0.0791
   41MOL0     H 5361   3.341   5.415   8.142  0.2710  0.9801 -1.0022
   41MOL0     H 5362   3.442   5.266   8.137 -0.1262  1.0991 -1.4975
   41MOL0     H 5363   3.449   5.475   8.359  0.4462  0.6082  0.2822
   41MOL0     H 5364   3.554   5.333   8.316 -0.9854 -3.2114  0.1423
   41MOL0     H 5365   3.333   5.386   8.580  3.1308  0.1148 -0.8111
   41MOL0     H 5366   3.120   5.057   8.647  1.6488 -1.1074 -0.7030
   41MOL0     H 5367   3.062   5.220   8.667  0.7031  0.5704 -2.2693
   41MOL0     H 5368   3.192   5.130   8.883  3.7160 -2.4129  0.3207
   41MOL0     H 5369   3.251   5.280   8.819  0.4433  0.7699 -1.7650
   41MOL0     H 5370   3.362   5.001   8.741  2.3953 -0.9277  2.2005
   41MOL0     H 5371   3.440   5.160   8.703  1.8141  2.2171  2.9701
   41MOL0     H 5372   3.546   5.045   8.893  0.3969  0.9374 -1.8893
   41MOL0     H 5373   3.407   5.057   8.982 -0.6805 -1.1917 -1.9909
   41MOL0     H 5374   3.701   5.106   9.013 -1.0844 -0.3385 -0.0799
   41MOL0     H 5375   3.835   5.127   9.230  0.1294 -0.4474 -0.5627
   41MOL0     H 5376   4.106   5.213   9.454 -0.2055  2.2935  0.7061
   41MOL0     H 5377   4.278   5.160   9.626 -0.8694 -3.1429 -1.8469
   41MOL0     H 5378   4.427   5.153   9.959  1.5781 -0.6382 -0.4787
   41MOL0     H 5379   4.394   5.243   9.816  1.7062 -0.6711 -1.2818
   41MOL0     H 5380   4.436   5.016   9.687  2.1368  3.0068 -0.8530
   41MOL0     H 5381   4.458   4.935   9.850  2.5188 -0.1742  1.1132
   41MOL0     H 5382   4.658   5.076   9.864  0.0675 -1.2520 -0.3449
   41MOL0     H 5383   4.624   5.160   9.709 -0.0253  0.3302  0.8154
   41MOL0     H 5384   4.697   4.869   9.756  1.0958 -1.3226 -1.7314
   41MOL0     H 5385   4.622   4.911   9.610  1.8776 -1.9808  0.5669
   41MOL0     H 5386   4.882   5.018   9.742  2.0669 -2.5332 -1.1722
   41MOL0     H 5387   4.823   5.080   9.582  4.1880 -0.4473 -1.6850
   41MOL0     H 5388   4.825   4.839   9.490  0.8904 -1.1133 -0.0645
   41MOL0     H 5389   4.898   4.793   9.643 -1.0839  0.8849 -0.9714
   41MOL0     H 5390   5.030   4.827   9.442 -1.8178 -0.7839  0.0579
   41MOL0     H 5391   5.000   5.003   9.448  2.6866 -1.6660 -2.6876
   41MOL0     H 5392   5.110   5.017   9.681 -0.9157  0.1248  0.1744
   41MOL0     H 5393   5.201   5.001   9.532  1.4100  0.2128  1.6234
   41MOL0     H 5394   3.988   5.112   9.922  1.4348 -1.8008 -1.3320
   41MOL0     H 5395   3.802   5.121   9.726  0.8545 -3.5910 -2.4596
   41MOL0     H 5396   3.494   5.354   9.394  0.6979  1.8558 -0.0045
   41MOL0     H 5397   3.392   5.346   9.177 -0.6717 -0.8407 -0.1470
   41MOL0     H 5398   4.148   5.740   7.681 -3.2631 -2.2409  0.2144
   41MOL0     H 5399   4.380   5.701   7.663 -1.0343  0.9046 -0.7962
   41MOL0     H 5400   4.709   5.181   7.380 -1.4156 -0.7751  4.5146
   41MOL0     H 5401   4.935   5.216   7.290 -1.2419 -1.1728 -0.2737
   41MOL0     H 5402   5.184   5.564   7.416  0.0000  0.7164 -1.1764
   41MOL0     H 5403   5.089   5.633   7.293  1.5769  3.0905  4.4015
   41MOL0     H 5404   5.248   5.483   7.128  2.0313  0.2164 -0.8210
   41MOL0     H 5405   5.313   5.630   7.222 -1.2039  1.3860  4.2790
   41MOL0     H 5406   5.370   5.339   7.279  0.9967  0.8692 -1.2733
   41MOL0     H 5407   5.332   5.432   7.423 -4.2430 -1.6402 -0.9255
   41MOL0     H 5408   5.585   5.432   7.355  2.7307  1.8650 -2.8389
   41MOL0     H 5409   5.531   5.525   7.214  1.3189  2.3881  1.0818
   41MOL0     H 5410   5.505   5.823   7.514 -0.6966  2.3443 -2.6976
   41MOL0     H 5411   4.949   5.596   7.466 -2.6874  0.6122 -0.2071
   41MOL0     H 5412   4.732   5.577   7.564 -1.0351  1.9431 -3.7000
   42MOL0     O 5413   3.953   5.536   6.667 -0.9204 -0.0319  0.6595
   42MOL0     C 5414   4.056   5.504   6.598 -0.2532 -0.0791  0.1736
   42MOL0     O 5415   4.071   5.393   6.519 -0.1591 -0.3804  0.3111
   42MOL0     C 5416   3.969   5.302   6.498  0.5493 -0.6898  0.0353
   42MOL0     C 5417   3.897   5.231   6.600 -0.0576 -0.3175  0.7242
   42MOL0     C 5418   3.797   5.133   6.564 -0.0223  0.7706  0.1777
   42MOL0     C 5419   3.784   5.101   6.423  0.4498 -0.4134  0.1927
   42MOL0     O 5420   3.695   5.016   6.368  0.6945  0.7984 -0.4732
   42MOL0     C 5421   3.618   4.923   6.449  0.1560  0.5673 -0.3261
   42MOL0     C 5422   3.481   4.987   6.488 -0.4513 -0.1048 -0.5571
   42MOL0     C 5423   3.359   4.919   6.420  0.0909  0.8844  0.2280
   42MOL0     C 5424   3.219   4.961   6.462  0.2852 -0.5679 -0.3086
   42MOL0     C 5425   3.183   5.083   6.377  0.6676  0.2510  0.2329
   42MOL0     C 5426   3.074   5.159   6.449  0.3444  0.3603 -1.1906
   42MOL0     C 5427   2.980   5.230   6.366  0.8724  0.1278 -0.9720
   42MOL0     C 5428   2.888   5.132   6.297  0.2333  1.0062 -1.2072
   42MOL0     N 5429   2.795   5.060   6.381  0.3944  0.2887 -0.7606
   42MOL0     C 5430   2.726   4.947   6.357  0.7577 -0.4118  0.6251
   42MOL0     C 5431   2.637   4.932   6.449  0.5108 -0.0800 -0.4156
   42MOL0     C 5432   2.528   4.833   6.442  0.9154 -0.0907 -0.2584
   42MOL0     C 5433   2.383   4.888   6.460  1.0900  0.3276  0.4997
   42MOL0     C 5434   2.296   4.763   6.426  0.3560 -1.0305  0.3759
   42MOL0     C 5435   2.159   4.806   6.458  0.2483  0.2023 -0.1443
   42MOL0     O 5436   2.122   4.904   6.356  0.3013  0.4246 -0.7851
   42MOL0     C 5437   2.005   4.975   6.377  0.0500  0.5768 -0.7973
   42MOL0     C 5438   1.968   5.079   6.291  0.9444 -0.1326 -0.6216
   42MOL0     C 5439   1.872   5.173   6.314  0.0840  0.3169  0.4026
   42MOL0     C 5440   1.787   5.157   6.428 -0.1871 -0.4128 -0.2056
   42MOL0     C 5441   1.673   5.249   6.464 -0.4134  0.9439  0.0754
   42MOL0     O 5442   1.666   5.364   6.397  0.5056 -0.1957  0.2488
   42MOL0     C 5443   1.548   5.441   6.393 -0.1419 -0.0554 -0.6615
   42MOL0     C 5444   1.421   5.392   6.355  0.6044 -1.0616  0.1405
   42MOL0     C 5445   1.300   5.460   6.362  0.3103 -0.1037 -0.5466
   42MOL0     C 5446   1.310   5.592   6.407  0.9273  0.3140  0.1090
   42MOL0     O 5447   1.197   5.680   6.424  0.5958 -0.3184  0.1535
   42MOL0     C 5448   1.062   5.628   6.413  0.1092 -0.4866  1.3558
   42MOL0     C 5449   0.951   5.735   6.427  0.4053 -0.7841 -0.4836
   42MOL0     C 5450   0.811   5.671   6.423  0.5092 -0.7790  0.2985
   42MOL0     C 5451   0.795   5.564   6.309  0.8486 -0.0085  0.4737
   42MOL0     C 5452   0.644   5.524   6.308 -0.6869 -0.0013 -0.3416
   42MOL0     C 5453   0.612   5.391   6.236  0.0040 -0.5219  1.2547
   42MOL0     C 5454   0.630   5.400   6.084 -0.3110 -0.2177 -0.7923
   42MOL0     C 5455   0.662   5.261   6.018 -0.4582 -0.0449 -1.2730
   42MOL0    Cl 5456   0.660   5.285   5.847 -0.0072 -0.0396  0.6205
   42MOL0     C 5457   1.433   5.656   6.423  0.4447  0.1804 -0.0291
   42MOL0     C 5458   1.550   5.582   6.414  0.8275 -0.5795 -0.9102
   42MOL0     O 5459   1.594   5.212   6.553  0.4321 -0.0827  0.0269
   42MOL0     C 5460   1.807   5.042   6.509  1.3004  0.5969 -0.2515
   42MOL0     C 5461   1.925   4.962   6.495  0.7206 -0.3669 -0.1229
   42MOL0     N 5462   2.646   5.029   6.551  0.4751 -0.0758  0.5173
   42MOL0     N 5463   2.741   5.105   6.501 -0.3252 -0.3641  0.2325
   42MOL0     C 5464   3.868   5.167   6.327  1.0115  0.1559  0.6385
   42MOL0     C 5465   3.953   5.279   6.366  0.4586  1.5587 -0.3878
   42MOL0     C 5466   4.176   5.590   6.616 -0.7835  0.1227  0.6350
   42MOL0     C 5467   4.299   5.570   6.540 -0.4203  0.3731 -0.1685
   42MOL0     C 5468   4.405   5.656   6.560 -0.1260  0.8448  0.3140
   42MOL0     C 5469   4.403   5.763   6.652  0.4252 -1.1493 -0.1522
   42MOL0     O 5470   4.507   5.860   6.637 -0.7184  0.5636 -0.3392
   42MOL0     C 5471   4.516   5.957   6.741  0.3533 -0.3765  0.9146
   42MOL0     C 5472   4.642   6.039   6.744 -0.3941 -0.1559 -0.1730
   42MOL0     C 5473   4.651   6.140   6.857  0.6773  0.4698 -0.2967
   42MOL0     C 5474   4.756   6.248   6.836  0.0761 -0.3135 -0.3418
   42MOL0     C 5475   4.900   6.227   6.816  0.2330  0.2444 -0.5549
   42MOL0     C 5476   5.017   6.231   6.807  1.4586  0.0132  0.0345
   42MOL0     C 5477   4.295   5.764   6.746 -0.0609  0.0820  1.1907
   42MOL0     C 5478   4.182   5.684   6.721  0.0916 -0.2057  0.1531
   42MOL0     H 5479   3.901   5.269   6.701 -1.0724  1.7786  0.0408
   42MOL0     H 5480   3.726   5.098   6.638 -2.2984 -1.0485 -2.6462
   42MOL0     H 5481   3.677   4.904   6.539  2.8323  1.5725 -1.7766
   42MOL0     H 5482   3.608   4.829   6.394  1.1761 -0.9898  1.9990
   42MOL0     H 5483   3.484   5.090   6.452  1.2389  0.0528 -0.0463
   42MOL0     H 5484   3.466   4.977   6.596 -0.7199  1.1720 -0.4642
   42MOL0     H 5485   3.353   4.811   6.435 -3.6022  0.6918 -1.3094
   42MOL0     H 5486   3.369   4.929   6.311  1.6458  2.6482  0.4830
   42MOL0     H 5487   3.132   4.895   6.450  1.3382 -1.6522 -2.5780
   42MOL0     H 5488   3.231   4.999   6.564  2.3314 -1.9103  0.0131
   42MOL0     H 5489   3.149   5.049   6.279 -0.4412 -0.2935  0.7923
   42MOL0     H 5490   3.265   5.154   6.361  0.7711  0.3948  1.3116
   42MOL0     H 5491   3.119   5.231   6.517 -1.3558 -1.1091  1.6702
   42MOL0     H 5492   3.023   5.089   6.516  1.0841 -2.3301 -3.2687
   42MOL0     H 5493   2.919   5.292   6.433 -1.4260 -0.9738 -1.9502
   42MOL0     H 5494   3.024   5.296   6.290 -1.5128 -0.7307 -3.2272
   42MOL0     H 5495   2.943   5.049   6.252 -0.3680 -1.2158  1.7712
   42MOL0     H 5496   2.834   5.190   6.222 -0.8143  2.3441  0.4740
   42MOL0     H 5497   2.730   4.892   6.264 -1.9096  1.1389 -0.5336
   42MOL0     H 5498   2.544   4.768   6.528  0.9086 -0.0431 -0.2203
   42MOL0     H 5499   2.538   4.782   6.346  0.9427  1.4917 -1.1280
   42MOL0     H 5500   2.362   4.975   6.397 -1.0823 -1.1567 -0.9699
   42MOL0     H 5501   2.362   4.921   6.562 -0.6215  0.7557  0.0340
   42MOL0     H 5502   2.290   4.739   6.319 -1.4283  0.9422 -0.0518
   42MOL0     H 5503   2.318   4.682   6.495 -0.8386  0.1281  2.2195
   42MOL0     H 5504   2.151   4.848   6.558 -2.5628 -1.4164  0.4385
   42MOL0     H 5505   2.086   4.725   6.444 -3.5633  3.2044  0.7436
   42MOL0     H 5506   2.024   5.088   6.199  1.0269  0.3099 -0.5297
   42MOL0     H 5507   1.850   5.241   6.233  0.4034 -0.9136 -0.7518
   42MOL0     H 5508   1.418   5.289   6.320 -1.3785 -0.8574 -0.4135
   42MOL0     H 5509   1.209   5.405   6.339  0.0920  0.4512 -1.0376
   42MOL0     H 5510   1.047   5.544   6.482  1.9695 -0.8173  1.4006
   42MOL0     H 5511   1.054   5.593   6.309  2.1004 -1.4966  1.4923
   42MOL0     H 5512   0.965   5.803   6.343 -0.2612 -2.6682 -2.1809
   42MOL0     H 5513   0.966   5.794   6.518  0.8765 -2.0238  0.2722
   42MOL0     H 5514   0.733   5.747   6.415 -0.2654 -1.6576 -0.9613
   42MOL0     H 5515   0.789   5.616   6.515 -0.6497 -1.9193 -0.6217
   42MOL0     H 5516   0.822   5.600   6.210  1.9111 -0.9843  0.3799
   42MOL0     H 5517   0.853   5.476   6.339  2.3114  0.3638 -1.1350
   42MOL0     H 5518   0.591   5.608   6.262 -3.2798 -2.5976 -2.5135
   42MOL0     H 5519   0.597   5.501   6.404  0.2230  0.9754  0.3532
   42MOL0     H 5520   0.506   5.380   6.259 -0.4376  2.2386  0.8847
   42MOL0     H 5521   0.672   5.310   6.278  0.5941 -1.5106 -1.2760
   42MOL0     H 5522   0.538   5.451   6.053 -0.3180  2.5916  3.0824
   42MOL0     H 5523   0.715   5.468   6.066 -0.6983  0.7776  0.9370
   42MOL0     H 5524   0.589   5.186   6.050 -0.8557  0.6372 -0.5451
   42MOL0     H 5525   0.753   5.211   6.049 -1.6581 -2.0395 -0.8170
   42MOL0     H 5526   1.439   5.760   6.451  2.1144  0.3516 -0.9362
   42MOL0     H 5527   1.639   5.642   6.432 -1.1635  1.7109  2.5619
   42MOL0     H 5528   1.740   5.025   6.593  2.2148  0.3343  0.4489
   42MOL0     H 5529   1.937   4.892   6.577  2.2827  2.2830  2.0700
   42MOL0     H 5530   3.866   5.144   6.221  0.7151  1.5775  0.3134
   42MOL0     H 5531   4.018   5.328   6.294  3.7123 -1.2801  0.3440
   42MOL0     H 5532   4.314   5.480   6.480 -1.4292 -0.8409  1.3105
   42MOL0     H 5533   4.499   5.646   6.507 -0.0398  2.0991  0.2113
   42MOL0     H 5534   4.501   5.902   6.834  0.5909  0.4239  1.4422
   42MOL0     H 5535   4.428   6.020   6.728  1.1828  0.3865 -1.5148
   42MOL0     H 5536   4.722   5.965   6.738 -2.3777 -2.4646  0.0894
   42MOL0     H 5537   4.633   6.092   6.649 -0.7181 -1.8283 -1.1249
   42MOL0     H 5538   4.660   6.082   6.949  1.2977 -4.2494 -2.9826
   42MOL0     H 5539   4.553   6.188   6.858  1.2852  1.7261  0.2673
   42MOL0     H 5540   4.719   6.306   6.751  2.1867  2.5532  0.5494
   42MOL0     H 5541   4.733   6.307   6.925 -2.1039  0.3097 -1.2497
   42MOL0     H 5542   5.123   6.232   6.795  1.7157 -1.7172  1.7788
   42MOL0     H 5543   4.286   5.833   6.829 -1.3336  2.1223 -0.5231
   42MOL0     H 5544   4.095   5.689   6.786  0.3866  0.7984  0.4974
   43MOL0     O 5545   2.028  10.457   1.129 -0.2671 -0.6333 -0.1552
   43MOL0     C 5546   2.077  10.547   1.055  0.0307  0.8001 -0.3669
   43MOL0     O 5547   2.197  10.610   1.083 -0.6332 -0.5989 -0.4493
   43MOL0     C 5548   2.274  10.576   1.197 -0.4906  0.5070  0.6035
   43MOL0     C 5549   2.349  10.687   1.244  0.1736 -0.1127 -0.8146
   43MOL0     C 5550   2.444  10.682   1.351  0.6206  0.1210  0.3746
   43MOL0     C 5551   2.456  10.555   1.417 -0.4185  0.3969  0.6202
   43MOL0     O 5552   2.536  10.538   1.523 -0.1806 -0.0880  0.3413
   43MOL0     C 5553   2.679  10.586   1.505 -0.0225  0.5561 -0.4603
   43MOL0     C 5554   2.762  10.557   1.633 -0.6860  0.3291 -0.0272
   43MOL0     C 5555   2.795  10.402   1.667  0.9912 -0.0186  0.3190
   43MOL0     C 5556   2.892  10.396   1.782  0.1370  0.5734  0.2436
   43MOL0     C 5557   2.955  10.258   1.806  0.3566  0.1592 -0.1875
   43MOL0     C 5558   3.076  10.242   1.706  0.4376  0.4776 -0.5513
   43MOL0     C 5559   3.151  10.105   1.703  0.2200 -0.7904 -0.4985
   43MOL0     C 5560   3.085   9.995   1.620 -1.3436  0.7652  0.4732
   43MOL0     N 5561   2.956   9.948   1.664 -0.5435  0.0169 -0.3041
   43MOL0     C 5562   2.834   9.988   1.612 -0.3989  0.5686  0.4446
   43MOL0     C 5563   2.751   9.884   1.634 -0.8368 -0.3051 -0.0149
   43MOL0     C 5564   2.607   9.876   1.592  0.4111 -0.0527 -0.1571
   43MOL0     C 5565   2.559   9.732   1.577 -0.6591  0.0711  0.0945
   43MOL0     C 5566   2.406   9.736   1.549 -0.5646 -0.7630 -0.4983
   43MOL0     C 5567   2.356   9.619   1.466  0.4966  0.6621 -0.1024
   43MOL0     O 5568   2.368   9.485   1.521 -0.1336 -0.0141 -0.2500
   43MOL0     C 5569   2.255   9.449   1.589 -0.7016  1.0522  0.8296
   43MOL0     C 5570   2.255   9.456   1.722 -0.0263  0.4309  0.4605
   43MOL0     C 5571   2.155   9.401   1.801 -0.8310  0.4828 -0.1938
   43MOL0     C 5572   2.038   9.362   1.757 -0.5603 -0.7209  0.0531
   43MOL0     C 5573   1.922   9.346   1.850  0.1761  0.1175  0.1722
   43MOL0     O 5574   1.937   9.394   1.983 -0.0455  0.4047  0.3918
   43MOL0     C 5575   1.842   9.353   2.071  0.3985  0.0592  0.2203
   43MOL0     C 5576   1.726   9.412   2.106  0.5577 -0.5759 -0.2535
   43MOL0     C 5577   1.647   9.361   2.209  0.0489  0.1049  0.3638
   43MOL0     C 5578   1.699   9.251   2.283  0.3690 -0.0810  0.1503
   43MOL0     O 5579   1.627   9.167   2.353  0.5092 -0.6875 -0.6062
   43MOL0     C 5580   1.487   9.196   2.366 -0.0766  0.1057  0.2263
   43MOL0     C 5581   1.421   9.075   2.454  0.4571 -1.1807 -0.3716
   43MOL0     C 5582   1.267   9.082   2.450 -0.3541  0.0253  0.2631
   43MOL0     C 5583   1.185   8.965   2.518  0.0765 -0.7340 -0.4914
   43MOL0     C 5584   1.049   8.999   2.551  1.2400  0.2289 -0.1447
   43MOL0     C 5585   0.949   8.992   2.433  0.4043  0.3293  0.1009
   43MOL0     C 5586   0.811   9.046   2.471 -0.1849  0.1040 -0.0758
   43MOL0     C 5587   0.708   9.005   2.358 -0.4710 -0.0458  0.5169
   43MOL0    Cl 5588   0.559   8.943   2.439  0.1268 -0.4268 -0.3383
   43MOL0     C 5589   1.822   9.194   2.256  0.4090 -0.1841 -0.0861
   43MOL0     C 5590   1.894   9.244   2.143  0.6095  0.0449  0.1743
   43MOL0     O 5591   1.820   9.289   1.801 -0.2471  0.1988 -0.0971
   43MOL0     C 5592   2.036   9.347   1.612 -0.2146 -0.1411 -0.7046
   43MOL0     C 5593   2.153   9.377   1.531 -0.2376  0.6639  0.4136
   43MOL0     N 5594   2.818   9.791   1.712  0.5990 -1.2565  0.4114
   43MOL0     N 5595   2.937   9.833   1.735 -0.3810 -0.5800 -0.4370
   43MOL0     C 5596   2.382  10.447   1.363 -0.1808 -0.0437 -0.0758
   43MOL0     C 5597   2.294  10.453   1.255  0.0181 -0.8454  0.5548
   43MOL0     C 5598   1.989  10.601   0.941 -0.2025  0.6265 -0.7552
   43MOL0     C 5599   1.859  10.558   0.919  1.3679 -0.5532  0.0124
   43MOL0     C 5600   1.791  10.608   0.801 -1.1107  0.7821  0.3613
   43MOL0     C 5601   1.853  10.699   0.711  0.7734 -0.0140 -0.7463
   43MOL0     O 5602   1.775  10.750   0.607 -0.1931 -0.7540  0.4971
   43MOL0     C 5603   1.841  10.834   0.519  0.0236 -0.6007  0.3492
   43MOL0     C 5604   1.722  10.890   0.435 -0.2033 -0.0910  0.1163
   43MOL0     C 5605   1.771  11.002   0.341  0.7869 -0.2017  0.5660
   43MOL0     C 5606   1.830  10.970   0.202  0.3312  0.2741  0.7805
   43MOL0     C 5607   1.971  10.918   0.215 -0.1156 -0.6699 -0.7872
   43MOL0     C 5608   2.088  10.879   0.214 -0.4947 -0.8350 -0.7041
   43MOL0     C 5609   1.988  10.734   0.742 -0.6320  0.3649 -1.0865
   43MOL0     C 5610   2.047  10.691   0.855  0.8518 -0.4435 -0.8965
   43MOL0     H 5611   2.351  10.788   1.204  3.9905  1.1600  1.9943
   43MOL0     H 5612   2.483  10.778   1.383  0.0418  0.8066 -0.9243
   43MOL0     H 5613   2.676  10.695   1.496 -1.5149  0.8665  2.4965
   43MOL0     H 5614   2.728  10.548   1.415  1.5700  0.8087  0.2591
   43MOL0     H 5615   2.719  10.611   1.718  0.0258  1.4698 -0.3756
   43MOL0     H 5616   2.860  10.605   1.622 -1.8339  2.5329 -1.2110
   43MOL0     H 5617   2.836  10.355   1.577 -1.7038  1.3269 -1.7661
   43MOL0     H 5618   2.700  10.349   1.679  0.5641  0.7367  0.3907
   43MOL0     H 5619   2.972  10.470   1.773  0.0526  0.8416  1.5469
   43MOL0     H 5620   2.835  10.417   1.873  0.8991 -1.2899  1.2095
   43MOL0     H 5621   2.871  10.190   1.793  0.8239 -0.3606 -0.5478
   43MOL0     H 5622   2.989  10.251   1.910  0.1265 -0.2098 -0.1360
   43MOL0     H 5623   3.154  10.312   1.736  1.3147 -0.8358  0.3869
   43MOL0     H 5624   3.056  10.271   1.603 -0.6004  0.4973 -0.3604
   43MOL0     H 5625   3.250  10.119   1.659  0.9834 -1.1378  1.0505
   43MOL0     H 5626   3.156  10.082   1.809  2.0258  0.0255 -0.3799
   43MOL0     H 5627   3.162   9.917   1.613  1.6480  3.5076 -6.5478
   43MOL0     H 5628   3.086  10.033   1.518 -1.4180  1.5711  0.7614
   43MOL0     H 5629   2.804  10.080   1.561  1.0442  0.0560 -1.4779
   43MOL0     H 5630   2.592   9.922   1.494 -0.1472 -2.3307 -1.1926
   43MOL0     H 5631   2.545   9.943   1.652  1.1768  0.0664  0.5269
   43MOL0     H 5632   2.571   9.683   1.674 -2.6771  1.0795  0.9196
   43MOL0     H 5633   2.601   9.682   1.489  0.4691  3.6729 -1.6187
   43MOL0     H 5634   2.349   9.747   1.642 -2.2717 -2.4448 -1.2754
   43MOL0     H 5635   2.379   9.827   1.495  0.5488 -0.1796 -0.1072
   43MOL0     H 5636   2.398   9.623   1.365  1.4693 -0.0271  0.2586
   43MOL0     H 5637   2.249   9.636   1.453 -0.1171 -0.7721  2.5618
   43MOL0     H 5638   2.337   9.516   1.761 -1.2640  3.8630 -1.7893
   43MOL0     H 5639   2.151   9.398   1.909 -6.3459 -2.7928 -0.0839
   43MOL0     H 5640   1.706   9.504   2.052  1.8221 -0.4364 -0.5157
   43MOL0     H 5641   1.547   9.394   2.234  1.5728  3.0768  3.3818
   43MOL0     H 5642   1.447   9.188   2.265 -1.5950 -3.0422  0.9478
   43MOL0     H 5643   1.467   9.288   2.422 -1.8220  0.9071 -1.5933
   43MOL0     H 5644   1.455   9.089   2.557 -2.3174  2.9967  0.2258
   43MOL0     H 5645   1.464   8.982   2.414 -2.0225 -0.9489 -4.0901
   43MOL0     H 5646   1.247   9.073   2.343  2.2166 -1.3365 -0.1848
   43MOL0     H 5647   1.241   9.179   2.493 -2.0372 -1.1082  1.9184
   43MOL0     H 5648   1.183   8.893   2.436  1.0826 -2.5421  0.9938
   43MOL0     H 5649   1.235   8.926   2.608  0.4774  1.3182  0.2468
   43MOL0     H 5650   1.051   9.099   2.595  0.6881  0.9578 -1.7048
   43MOL0     H 5651   1.013   8.935   2.632  4.4275 -0.6292  0.7202
   43MOL0     H 5652   0.944   8.889   2.398  2.2396  0.0474  0.5191
   43MOL0     H 5653   0.989   9.055   2.353  2.3488  0.1065  0.8186
   43MOL0     H 5654   0.783   8.996   2.564  0.5294 -0.4331 -0.1424
   43MOL0     H 5655   0.813   9.156   2.478  1.6015  0.0968  0.0269
   43MOL0     H 5656   0.737   8.931   2.284 -1.4511 -3.2009  3.0292
   43MOL0     H 5657   0.695   9.100   2.305  0.2721  0.4349  1.1562
   43MOL0     H 5658   1.861   9.104   2.300  0.3623 -1.4285 -2.4127
   43MOL0     H 5659   1.993   9.202   2.129  0.2602 -0.3872 -1.0644
   43MOL0     H 5660   1.946   9.316   1.561  0.2534  2.3887 -3.2656
   43MOL0     H 5661   2.141   9.357   1.425  1.1558 -0.8055  0.4991
   43MOL0     H 5662   2.391  10.349   1.410 -1.8186  0.1325  0.6797
   43MOL0     H 5663   2.242  10.371   1.207 -0.1422  0.6345 -1.9340
   43MOL0     H 5664   1.815  10.484   0.985  0.4760 -0.6898 -0.7152
   43MOL0     H 5665   1.690  10.588   0.766 -0.5762 -0.7194 -0.3746
   43MOL0     H 5666   1.908  10.770   0.460 -0.5561 -1.0472  0.1648
   43MOL0     H 5667   1.892  10.916   0.570 -2.9154  0.1906  2.2601
   43MOL0     H 5668   1.668  10.813   0.379 -0.1927  0.7944 -1.1539
   43MOL0     H 5669   1.637  10.928   0.491 -0.8826 -2.5563  0.9018
   43MOL0     H 5670   1.836  11.073   0.392 -0.4024  1.0984  0.3204
   43MOL0     H 5671   1.682  11.059   0.314  1.7435  0.5530 -1.1167
   43MOL0     H 5672   1.753  10.915   0.149 -4.3846  5.4198  1.3364
   43MOL0     H 5673   1.821  11.065   0.147 -2.1139  0.3177  1.1241
   43MOL0     H 5674   2.191  10.856   0.231 -0.1668  0.9242 -0.0850
   43MOL0     H 5675   2.039  10.809   0.682 -0.2413  1.1369  0.1732
   43MOL0     H 5676   2.146  10.734   0.865  2.3272 -3.9295  1.7258
   44MOL0     O 5677   3.916   4.138   2.778  0.5674 -0.7254 -1.3266
   44MOL0     C 5678   3.973   4.037   2.821  0.3295 -1.1283  0.0775
   44MOL0     O 5679   3.918   3.916   2.856  0.0148  0.2119  0.3275
   44MOL0     C 5680   3.798   3.884   2.805 -0.7590 -0.0467 -0.7010
   44MOL0     C 5681   3.686   3.880   2.882  0.2526  0.8004  0.3632
   44MOL0     C 5682   3.561   3.843   2.821  0.1253  0.5763 -0.4422
   44MOL0     C 5683   3.549   3.817   2.686  0.7862 -0.2330  0.2357
   44MOL0     O 5684   3.423   3.802   2.633 -0.2075 -0.4541 -0.1087
   44MOL0     C 5685   3.401   3.888   2.520  0.2599 -0.5129  0.4378
   44MOL0     C 5686   3.250   3.897   2.477 -0.0277  0.4395 -0.6376
   44MOL0     C 5687   3.203   4.039   2.466  0.6890 -0.6892 -1.0161
   44MOL0     C 5688   3.049   4.034   2.428  0.8762 -0.7091 -0.5679
   44MOL0     C 5689   2.956   4.133   2.505  0.0429  0.1612 -0.2885
   44MOL0     C 5690   2.806   4.111   2.484  0.4345  0.6669 -0.9015
   44MOL0     C 5691   2.712   4.212   2.553 -0.5632  0.3565 -0.3225
   44MOL0     C 5692   2.570   4.149   2.545  0.7977  0.0778  0.6750
   44MOL0     N 5693   2.536   4.059   2.660  0.5556 -0.1354 -0.4363
   44MOL0     C 5694   2.510   4.092   2.792  0.0944  0.4779  0.6601
   44MOL0     C 5695   2.487   3.974   2.845  0.1667  0.2104 -0.2436
   44MOL0     C 5696   2.455   3.965   2.994  0.2102 -0.1114 -0.3679
   44MOL0     C 5697   2.328   3.892   3.033  0.1198  0.0133  0.0515
   44MOL0     C 5698   2.225   3.972   3.115  0.1075  0.0826  0.6827
   44MOL0     C 5699   2.088   3.885   3.138 -1.3331  0.8494  1.0010
   44MOL0     O 5700   1.967   3.958   3.151  0.6068  0.0628  0.4667
   44MOL0     C 5701   1.967   4.044   3.253  0.7767  0.4482 -0.0675
   44MOL0     C 5702   1.915   4.167   3.205  0.0027 -0.3722  0.5130
   44MOL0     C 5703   1.899   4.274   3.292  1.0442 -1.0207 -0.4170
   44MOL0     C 5704   1.957   4.275   3.427 -0.3442 -0.1081  0.6781
   44MOL0     C 5705   1.961   4.389   3.519 -0.2038  0.1422  0.3952
   44MOL0     O 5706   1.862   4.485   3.506  1.3045  0.1639 -0.3972
   44MOL0     C 5707   1.838   4.583   3.601  1.3017  0.4067 -0.5913
   44MOL0     C 5708   1.879   4.574   3.740  0.4173  0.7968  0.6354
   44MOL0     C 5709   1.859   4.678   3.832 -0.3511  0.0630 -0.0665
   44MOL0     C 5710   1.812   4.802   3.786  0.3347  0.2126  0.6529
   44MOL0     O 5711   1.792   4.909   3.877 -0.1043 -0.5680  0.6192
   44MOL0     C 5712   1.694   4.891   3.976  0.0835 -0.5527 -0.6486
   44MOL0     C 5713   1.753   4.875   4.113 -0.3427 -0.3089  0.4393
   44MOL0     C 5714   1.802   5.006   4.169 -0.2835 -0.2746  0.7426
   44MOL0     C 5715   1.702   5.122   4.180  0.5466 -0.2894  0.0605
   44MOL0     C 5716   1.746   5.232   4.281 -0.0049 -0.5103 -0.2137
   44MOL0     C 5717   1.646   5.346   4.308 -1.0019 -0.3916  0.4775
   44MOL0     C 5718   1.656   5.465   4.216 -0.6441 -0.2006 -0.3177
   44MOL0     C 5719   1.792   5.532   4.207  0.0483 -0.0554 -0.0081
   44MOL0    Cl 5720   1.850   5.589   4.368  0.0627  0.1285 -0.3818
   44MOL0     C 5721   1.762   4.809   3.654  0.9254 -0.3462  0.3226
   44MOL0     C 5722   1.772   4.699   3.567 -0.5552 -0.0577  0.4259
   44MOL0     O 5723   2.049   4.389   3.608  0.0958 -0.5504 -0.4587
   44MOL0     C 5724   2.017   4.148   3.467 -0.2354  0.0391  0.5923
   44MOL0     C 5725   2.015   4.039   3.378 -0.8866  0.2560 -0.1378
   44MOL0     N 5726   2.483   3.875   2.753  0.3021 -0.7708  0.8364
   44MOL0     N 5727   2.508   3.922   2.641 -0.6946 -0.3657 -0.5064
   44MOL0     C 5728   3.658   3.812   2.607 -0.6192  0.2014  1.1888
   44MOL0     C 5729   3.787   3.843   2.670  0.9278  0.4607 -0.2628
   44MOL0     C 5730   4.109   4.061   2.867 -0.2372  0.5417  0.3848
   44MOL0     C 5731   4.163   3.995   2.982 -0.9226  0.2616 -0.6761
   44MOL0     C 5732   4.304   4.006   3.012 -0.0174 -0.4136 -0.6888
   44MOL0     C 5733   4.385   4.079   2.920  0.3551  0.0196 -0.0756
   44MOL0     O 5734   4.521   4.088   2.941  0.6857 -0.4449 -0.5241
   44MOL0     C 5735   4.617   4.046   2.848  0.3751  0.6431  0.8035
   44MOL0     C 5736   4.748   4.088   2.903 -0.5549  0.0086  0.7724
   44MOL0     C 5737   4.868   4.032   2.817 -0.1655  0.1843 -0.2169
   44MOL0     C 5738   4.996   4.090   2.868 -1.3730  0.1356  0.0874
   44MOL0     C 5739   5.112   4.008   2.825 -0.7164 -0.0587 -0.1231
   44MOL0     C 5740   5.221   3.954   2.796 -0.8714 -0.1755 -0.2862
   44MOL0     C 5741   4.330   4.135   2.804  0.0545 -0.7640 -0.6275
   44MOL0     C 5742   4.196   4.136   2.783  0.4510 -0.5524  0.2509
   44MOL0     H 5743   3.679   3.897   2.989 -1.1948 -0.8923  0.5869
   44MOL0     H 5744   3.475   3.842   2.886 -1.7521 -1.6680 -2.7725
   44MOL0     H 5745   3.451   3.851   2.431  0.6087 -0.3797  0.5782
   44MOL0     H 5746   3.441   3.989   2.534 -1.0112 -0.0254  0.7349
   44MOL0     H 5747   3.198   3.848   2.560 -0.1041  2.4851  0.5808
   44MOL0     H 5748   3.240   3.848   2.380 -0.3262  2.3038 -1.5943
   44MOL0     H 5749   3.274   4.080   2.393  4.4456 -2.7304  1.1267
   44MOL0     H 5750   3.229   4.103   2.551  1.1830  1.0972 -2.4403
   44MOL0     H 5751   3.039   4.042   2.319 -0.0244 -3.7585 -0.8160
   44MOL0     H 5752   3.005   3.935   2.445 -1.8355  0.9553  3.4426
   44MOL0     H 5753   2.982   4.236   2.479  2.3864 -0.3539 -0.2175
   44MOL0     H 5754   2.980   4.126   2.611  1.1303 -1.1576 -0.6089
   44MOL0     H 5755   2.782   4.017   2.534 -1.1735  1.6044  0.1845
   44MOL0     H 5756   2.784   4.116   2.377 -1.3924  2.8884 -0.5030
   44MOL0     H 5757   2.742   4.239   2.655 -0.4129 -1.3554  0.1227
   44MOL0     H 5758   2.721   4.302   2.492  3.5793  0.9147  0.7911
   44MOL0     H 5759   2.568   4.081   2.459  1.5021 -0.8231  1.3556
   44MOL0     H 5760   2.487   4.220   2.550 -2.0931 -2.9259 -0.5551
   44MOL0     H 5761   2.510   4.187   2.844 -1.5041  1.2499 -0.6910
   44MOL0     H 5762   2.470   4.062   3.043  0.8379 -0.4045  0.0327
   44MOL0     H 5763   2.537   3.903   3.031  0.4896  0.1521 -0.5359
   44MOL0     H 5764   2.359   3.807   3.096 -1.8220  0.7476  2.1276
   44MOL0     H 5765   2.280   3.860   2.940  0.3348 -1.3686  0.3915
   44MOL0     H 5766   2.264   3.999   3.213  1.0550  0.0153  0.3320
   44MOL0     H 5767   2.187   4.065   3.072 -2.4754 -0.8961  0.6492
   44MOL0     H 5768   2.097   3.819   3.224  0.5547  0.7808  0.7854
   44MOL0     H 5769   2.083   3.817   3.052  3.3644 -1.1193  1.9620
   44MOL0     H 5770   1.900   4.178   3.098  0.0908  0.4864  0.5785
   44MOL0     H 5771   1.868   4.365   3.242  0.9240 -1.0506 -0.3964
   44MOL0     H 5772   1.906   4.477   3.779 -1.4076  0.0651  0.1450
   44MOL0     H 5773   1.877   4.660   3.938 -3.5324  2.3598  1.0234
   44MOL0     H 5774   1.648   4.791   3.976 -1.1790  0.0061 -1.1133
   44MOL0     H 5775   1.609   4.960   3.966  1.6132  1.6345  0.6806
   44MOL0     H 5776   1.844   4.821   4.085  0.2459  1.6696 -1.8708
   44MOL0     H 5777   1.695   4.818   4.186  2.2951 -3.3583  0.3521
   44MOL0     H 5778   1.880   5.051   4.107  0.1616 -1.1826  0.6323
   44MOL0     H 5779   1.840   4.988   4.270 -0.6450  0.0547  0.9391
   44MOL0     H 5780   1.678   5.164   4.081 -1.6719 -1.1502  0.1567
   44MOL0     H 5781   1.608   5.094   4.229  1.9290 -1.8423  1.9301
   44MOL0     H 5782   1.840   5.282   4.254 -2.0347  2.1352 -3.2277
   44MOL0     H 5783   1.765   5.182   4.376  0.2193 -1.0786 -0.5529
   44MOL0     H 5784   1.654   5.379   4.412 -0.4195 -1.7072  0.8727
   44MOL0     H 5785   1.542   5.315   4.291  0.0203 -3.0153 -1.7803
   44MOL0     H 5786   1.617   5.421   4.124 -1.4604 -4.4453  1.8187
   44MOL0     H 5787   1.583   5.540   4.249  2.1494  0.5787  5.2980
   44MOL0     H 5788   1.784   5.611   4.132  1.2904 -0.9396 -1.1272
   44MOL0     H 5789   1.847   5.452   4.157  0.1091 -0.6953  1.0505
   44MOL0     H 5790   1.706   4.901   3.637 -0.9217 -1.9969 -3.5625
   44MOL0     H 5791   1.731   4.702   3.467 -3.4212 -0.6860  1.4763
   44MOL0     H 5792   2.059   4.140   3.567 -0.6654 -0.5052  0.7374
   44MOL0     H 5793   2.053   3.945   3.416  2.4412  2.1552  1.7836
   44MOL0     H 5794   3.662   3.789   2.501 -0.2911 -1.4992  1.5358
   44MOL0     H 5795   3.868   3.836   2.598 -0.0353 -2.6819 -1.1856
   44MOL0     H 5796   4.102   3.929   3.041  0.4984 -3.8311 -3.3670
   44MOL0     H 5797   4.358   3.965   3.097 -3.0490  0.1679  1.6907
   44MOL0     H 5798   4.596   4.087   2.748 -1.7293 -3.8274 -0.8414
   44MOL0     H 5799   4.617   3.939   2.826 -3.3470  0.7490 -0.3211
   44MOL0     H 5800   4.752   4.197   2.893  0.0095  0.0502  1.3443
   44MOL0     H 5801   4.754   4.056   3.008  2.4882  1.4703  1.1493
   44MOL0     H 5802   4.843   4.070   2.718 -0.9846 -0.9321 -0.4650
   44MOL0     H 5803   4.861   3.923   2.826 -2.5538  0.1988 -1.1148
   44MOL0     H 5804   5.023   4.185   2.821  1.4375 -0.3834  0.4889
   44MOL0     H 5805   5.007   4.082   2.977 -0.7260 -2.0940 -0.0855
   44MOL0     H 5806   5.318   3.910   2.779 -0.4417  1.8042 -3.8398
   44MOL0     H 5807   4.390   4.189   2.730 -2.5742  1.1379 -1.5087
   44MOL0     H 5808   4.162   4.190   2.695  5.1056  1.8459 -0.4007
   45MOL0     O 5809  10.783  10.772   3.731  0.1313  0.3524 -1.0528
   45MOL0     C 5810  10.727  10.761   3.845  1.0327  0.1067 -0.3651
   45MOL0     O 5811  10.784  10.778   3.964  0.1437 -0.2177 -0.6144
   45MOL0     C 5812  10.911  10.823   3.982 -0.0590  0.0606 -0.1508
   45MOL0     C 5813  11.024  10.775   3.922 -0.5652 -1.3150 -0.0788
   45MOL0     C 5814  11.152  10.827   3.950  0.0950 -0.9257 -0.4687
   45MOL0     C 5815  11.172  10.934   4.028  0.6160 -0.5655 -0.0020
   45MOL0     O 5816  11.296  10.982   4.066  0.4417 -0.5235  0.9099
   45MOL0     C 5817  11.417  10.913   4.040  0.2354  0.7926 -0.8775
   45MOL0     C 5818  11.530  10.992   4.114 -0.4150 -0.5913  0.6732
   45MOL0     C 5819  11.472  11.102   4.207 -0.8596  0.2713 -0.5778
   45MOL0     C 5820  11.571  11.164   4.311  0.1612 -0.2482  0.6499
   45MOL0     C 5821  11.500  11.236   4.428 -0.5447  0.3374  0.1028
   45MOL0     C 5822  11.425  11.356   4.389  0.5007 -0.4991 -0.7105
   45MOL0     C 5823  11.334  11.397   4.505 -0.4405 -0.7938  1.0670
   45MOL0     C 5824  11.258  11.535   4.487  0.9004  0.3784  0.1064
   45MOL0     N 5825  11.137  11.557   4.558 -0.4810 -0.1143  0.2762
   45MOL0     C 5826  11.124  11.580   4.693  0.6388 -0.2591  0.3509
   45MOL0     C 5827  11.005  11.638   4.714 -0.3100 -0.1294  0.0455
   45MOL0     C 5828  10.957  11.708   4.839  0.5623 -1.0224  0.0227
   45MOL0     C 5829  10.905  11.850   4.808  0.5084 -0.2628 -0.8812
   45MOL0     C 5830  10.901  11.936   4.937  0.5002  0.1416 -0.7259
   45MOL0     C 5831  10.777  12.028   4.947 -1.1376  0.2591  0.8257
   45MOL0     O 5832  10.651  11.953   4.940 -0.0580  0.5541  0.0705
   45MOL0     C 5833  10.606  11.893   5.059 -0.1335  0.5490  1.0530
   45MOL0     C 5834  10.657  11.914   5.190 -0.0274  1.6969  0.6525
   45MOL0     C 5835  10.606  11.850   5.301 -1.0689 -0.2167  0.5118
   45MOL0     C 5836  10.503  11.750   5.284  0.4384 -0.4098  0.2597
   45MOL0     C 5837  10.424  11.711   5.400 -0.0806  0.0454  0.5112
   45MOL0     O 5838  10.313  11.642   5.381  0.2102  0.7519  0.6831
   45MOL0     C 5839  10.222  11.610   5.478 -0.5626  0.3648 -0.4182
   45MOL0     C 5840  10.201  11.478   5.526 -0.6662  0.2579 -0.0832
   45MOL0     C 5841  10.107  11.444   5.622 -0.7659 -0.1451 -0.4539
   45MOL0     C 5842  10.016  11.540   5.666  0.8019  0.1909  0.3945
   45MOL0     O 5843   9.930  11.512   5.768  0.2642 -0.5984 -0.0161
   45MOL0     C 5844   9.805  11.472   5.716 -0.1770 -0.1572 -0.1118
   45MOL0     C 5845   9.702  11.582   5.740 -0.1421 -0.0542  0.1934
   45MOL0     C 5846   9.573  11.535   5.676  0.3708 -0.3099  0.5132
   45MOL0     C 5847   9.455  11.637   5.694  0.8271  0.3429 -0.5769
   45MOL0     C 5848   9.470  11.769   5.625  0.1165 -0.0495  1.0263
   45MOL0     C 5849   9.471  11.759   5.470 -0.9068  0.0929 -0.0417
   45MOL0     C 5850   9.535  11.891   5.425 -0.4485 -0.5870 -0.1661
   45MOL0     C 5851   9.460  12.017   5.478  0.8176 -0.3892 -0.0448
   45MOL0    Cl 5852   9.514  12.163   5.384 -0.0894  0.0189 -0.0486
   45MOL0     C 5853  10.024  11.671   5.612  0.8749 -0.2661 -0.2521
   45MOL0     C 5854  10.136  11.701   5.534 -0.3515 -0.7501  0.6062
   45MOL0     O 5855  10.459  11.747   5.511 -0.2544 -0.5582 -0.1425
   45MOL0     C 5856  10.455  11.718   5.148 -0.0749 -0.6057  0.6711
   45MOL0     C 5857  10.513  11.792   5.046 -0.4509  0.3817  0.4154
   45MOL0     N 5858  10.940  11.642   4.597 -0.2457 -0.5750 -0.6313
   45MOL0     N 5859  11.008  11.572   4.510  0.2867  0.3489  0.2076
   45MOL0     C 5860  11.063  10.991   4.088 -0.6088  0.1415 -0.2005
   45MOL0     C 5861  10.936  10.933   4.065  0.0960 -0.9258 -1.2225
   45MOL0     C 5862  10.591  10.701   3.851  0.5659  0.2479 -0.0724
   45MOL0     C 5863  10.532  10.669   3.723  0.7109  0.2430  0.7203
   45MOL0     C 5864  10.400  10.634   3.714 -0.0605  0.5143 -0.2245
   45MOL0     C 5865  10.332  10.612   3.839  0.1002  0.0484 -0.0105
   45MOL0     O 5866  10.206  10.552   3.847 -0.3732 -0.0985 -0.4546
   45MOL0     C 5867  10.162  10.476   3.727  0.1244  0.5641  0.0999
   45MOL0     C 5868  10.020  10.518   3.669  0.2334 -0.6019 -0.1195
   45MOL0     C 5869  10.042  10.585   3.533  0.2284  0.2488 -0.5408
   45MOL0     C 5870   9.922  10.538   3.439  0.2559 -0.0909 -0.2091
   45MOL0     C 5871   9.955  10.399   3.400  0.2319  0.1457 -0.3578
   45MOL0     C 5872   9.968  10.280   3.382  0.9435  0.0163 -1.2301
   45MOL0     C 5873  10.387  10.637   3.964 -0.1882 -0.6587 -0.7755
   45MOL0     C 5874  10.518  10.683   3.969 -0.6012 -0.5587  0.9624
   45MOL0     H 5875  11.019  10.695   3.850 -0.8227 -2.5207  1.2250
   45MOL0     H 5876  11.231  10.780   3.893  2.3228  2.6853 -0.6168
   45MOL0     H 5877  11.426  10.896   3.932  1.5539  0.9325 -0.8111
   45MOL0     H 5878  11.429  10.816   4.089  0.7019  1.0526 -0.4704
   45MOL0     H 5879  11.578  11.051   4.036 -0.2846  0.8548  1.7853
   45MOL0     H 5880  11.586  10.914   4.167 -0.6181  0.0363  1.8663
   45MOL0     H 5881  11.400  11.048   4.269 -0.0355  1.7713  1.8314
   45MOL0     H 5882  11.427  11.183   4.149 -0.7323  1.4450  0.9240
   45MOL0     H 5883  11.637  11.089   4.356 -1.4572 -1.2664  1.4140
   45MOL0     H 5884  11.628  11.240   4.257 -1.5315  0.5724 -0.0446
   45MOL0     H 5885  11.571  11.259   4.508 -0.1605 -2.0246  0.5374
   45MOL0     H 5886  11.424  11.167   4.467 -1.3824  0.5222 -1.1597
   45MOL0     H 5887  11.367  11.330   4.301  1.5563  0.7686 -1.8405
   45MOL0     H 5888  11.501  11.427   4.356  1.9176 -1.8131 -0.3994
   45MOL0     H 5889  11.262  11.318   4.528 -0.4455 -0.5691  1.8746
   45MOL0     H 5890  11.381  11.391   4.604  1.4567 -2.5490  0.1459
   45MOL0     H 5891  11.245  11.555   4.381 -0.5504  0.9919  0.3749
   45MOL0     H 5892  11.325  11.611   4.531 -0.3974  0.4825  2.0431
   45MOL0     H 5893  11.196  11.561   4.772 -1.0757 -2.0057  1.6010
   45MOL0     H 5894  11.046  11.714   4.903  2.7215 -2.2853 -2.6492
   45MOL0     H 5895  10.880  11.648   4.888  1.1333 -0.5802  1.5309
   45MOL0     H 5896  10.801  11.846   4.774 -0.3147  1.1528  1.2289
   45MOL0     H 5897  10.968  11.900   4.734  1.5281  2.1913  1.4433
   45MOL0     H 5898  10.881  11.864   5.017 -1.7596  2.6679  1.1632
   45MOL0     H 5899  10.995  11.986   4.962 -0.3242  1.0311  0.7941
   45MOL0     H 5900  10.771  12.091   4.858 -1.6586  0.2093  0.8215
   45MOL0     H 5901  10.777  12.097   5.031 -1.8845  3.4059 -1.5775
   45MOL0     H 5902  10.733  11.988   5.211  1.0415  0.7903  0.1030
   45MOL0     H 5903  10.656  11.876   5.394  4.0077 -1.0619 -1.6098
   45MOL0     H 5904  10.277  11.409   5.490 -1.0091  0.4610 -1.2417
   45MOL0     H 5905  10.100  11.352   5.679  0.5275  0.4283  0.6841
   45MOL0     H 5906   9.786  11.382   5.775  2.7553  0.0984  1.4375
   45MOL0     H 5907   9.800  11.422   5.618 -1.2720 -1.7274  0.7084
   45MOL0     H 5908   9.741  11.673   5.693 -0.3496  0.9609  1.9174
   45MOL0     H 5909   9.682  11.598   5.846 -2.1159 -0.4490 -0.0886
   45MOL0     H 5910   9.559  11.438   5.725  2.7756 -0.2438  1.5113
   45MOL0     H 5911   9.586  11.518   5.569 -2.3593  2.4519 -0.3729
   45MOL0     H 5912   9.362  11.586   5.669  0.8735 -0.8159  1.4289
   45MOL0     H 5913   9.447  11.664   5.800 -0.7596  1.7647 -1.0141
   45MOL0     H 5914   9.557  11.823   5.664 -0.2822  1.7848 -0.5086
   45MOL0     H 5915   9.384  11.836   5.633 -1.5137 -1.3235 -3.2260
   45MOL0     H 5916   9.370  11.757   5.428 -1.0618  1.1769  0.2448
   45MOL0     H 5917   9.530  11.681   5.422 -0.3646 -1.7377  3.2984
   45MOL0     H 5918   9.641  11.893   5.452 -0.2812 -1.6670 -0.6626
   45MOL0     H 5919   9.539  11.891   5.316  2.2430  1.0295 -0.1640
   45MOL0     H 5920   9.467  12.044   5.583 -2.3216  1.1864 -0.1295
   45MOL0     H 5921   9.354  12.023   5.452  0.8247  1.1309  0.2015
   45MOL0     H 5922   9.956  11.741   5.659  0.1445 -1.1628  0.0550
   45MOL0     H 5923  10.138  11.806   5.510  1.1138 -1.0996 -0.9583
   45MOL0     H 5924  10.366  11.660   5.126  0.6539 -1.2588 -0.6651
   45MOL0     H 5925  10.487  11.770   4.943  2.0842  0.0321 -0.2142
   45MOL0     H 5926  11.087  11.067   4.162  1.3387 -3.5174  3.3445
   45MOL0     H 5927  10.854  10.972   4.125  1.1378 -0.6032  0.0508
   45MOL0     H 5928  10.589  10.689   3.632 -1.3508  1.5363 -0.3639
   45MOL0     H 5929  10.347  10.621   3.620  1.1959 -0.1969 -0.8559
   45MOL0     H 5930  10.159  10.372   3.758 -1.0652  0.0601 -1.6025
   45MOL0     H 5931  10.226  10.479   3.639 -1.1823 -0.6455 -0.9257
   45MOL0     H 5932   9.941  10.443   3.660  0.8892 -1.1847 -1.4461
   45MOL0     H 5933   9.980  10.588   3.742  2.6340 -1.4094  2.0807
   45MOL0     H 5934  10.143  10.586   3.489  0.3098  0.4766 -0.3474
   45MOL0     H 5935  10.029  10.692   3.546  1.6704  0.5031 -0.9829
   45MOL0     H 5936   9.828  10.553   3.492 -0.4777 -0.5162 -1.3378
   45MOL0     H 5937   9.907  10.594   3.346 -0.3178  0.7593  0.3877
   45MOL0     H 5938   9.961  10.174   3.372 -1.1492 -0.3262  2.3394
   45MOL0     H 5939  10.335  10.607   4.055  2.1098 -1.7869  0.2607
   45MOL0     H 5940  10.559  10.720   4.062  3.8679 -2.7543  0.1138
   46MOL0     O 5941   0.487   5.474   6.746 -0.2668  0.2635 -0.3196
   46MOL0     C 5942   0.542   5.386   6.813 -0.5951  0.0901 -0.8172
   46MOL0     O 5943   0.545   5.251   6.791 -0.4475 -0.5539 -0.4633
   46MOL0     C 5944   0.510   5.218   6.667 -0.1518 -0.3443 -0.3438
   46MOL0     C 5945   0.378   5.197   6.631 -0.2069  0.7689  0.6505
   46MOL0     C 5946   0.355   5.142   6.502  0.4105 -0.6943  0.5152
   46MOL0     C 5947   0.460   5.101   6.414 -0.9740  0.5229  0.8581
   46MOL0     O 5948   0.442   5.048   6.289  0.4385  0.7214  0.7274
   46MOL0     C 5949   0.312   5.064   6.229  0.4849  0.0785  0.3300
   46MOL0     C 5950   0.222   4.943   6.260  0.4291  0.0993  0.1850
   46MOL0     C 5951   0.080   4.978   6.217 -0.1201  0.2383  0.0248
   46MOL0     C 5952  -0.014   4.858   6.230  0.9485  0.7611  0.7555
   46MOL0     C 5953  -0.162   4.896   6.211  0.0781  1.1267 -0.2537
   46MOL0     C 5954  -0.245   4.775   6.166 -0.6800 -0.1767 -0.7036
   46MOL0     C 5955  -0.393   4.809   6.131  0.5610 -0.4871 -0.9142
   46MOL0     C 5956  -0.413   4.913   6.027  0.3343  0.1545 -0.2364
   46MOL0     N 5957  -0.366   4.874   5.890 -0.8108 -0.3006 -0.2953
   46MOL0     C 5958  -0.426   4.776   5.814 -0.5464  0.6354  0.1738
   46MOL0     C 5959  -0.367   4.796   5.689 -0.2882 -0.3735 -0.0434
   46MOL0     C 5960  -0.406   4.704   5.578 -1.1987 -0.5815 -0.1889
   46MOL0     C 5961  -0.305   4.597   5.551 -0.3017 -0.4725  0.2774
   46MOL0     C 5962  -0.335   4.511   5.424  0.1946 -1.0251 -0.7519
   46MOL0     C 5963  -0.213   4.414   5.405  0.6528 -0.8351  0.4518
   46MOL0     O 5964  -0.193   4.386   5.271  0.6875  0.1404  0.0666
   46MOL0     C 5965  -0.081   4.325   5.211 -0.3352 -0.0800 -0.1275
   46MOL0     C 5966   0.042   4.303   5.278 -0.1138  0.8599  0.1284
   46MOL0     C 5967   0.156   4.251   5.207 -0.5743 -0.5869 -0.0931
   46MOL0     C 5968   0.145   4.204   5.078  0.6957 -0.1945 -0.4706
   46MOL0     C 5969   0.256   4.145   5.007 -0.5885 -0.1494  0.1127
   46MOL0     O 5970   0.369   4.129   5.095 -0.0900  0.4892  0.3123
   46MOL0     C 5971   0.473   4.053   5.050  0.1097 -0.0784 -0.8194
   46MOL0     C 5972   0.469   3.924   4.988  0.4478  0.4510  0.7851
   46MOL0     C 5973   0.588   3.856   4.951  0.0250  0.2015  1.1679
   46MOL0     C 5974   0.709   3.902   4.988  0.3478 -0.1589  0.6841
   46MOL0     O 5975   0.819   3.823   4.966 -0.0916  0.1027 -0.4281
   46MOL0     C 5976   0.938   3.832   5.048  0.2803  0.4406 -0.0402
   46MOL0     C 5977   1.048   3.736   4.998  0.2145  0.2215  0.3694
   46MOL0     C 5978   1.171   3.719   5.090 -0.5399  0.2024 -0.6778
   46MOL0     C 5979   1.126   3.637   5.225 -0.4188  0.0536  0.2244
   46MOL0     C 5980   1.243   3.571   5.289 -0.3198 -0.5340  0.2306
   46MOL0     C 5981   1.373   3.560   5.216 -1.2093  1.4762  0.6541
   46MOL0     C 5982   1.480   3.480   5.300  0.2815 -0.1350  1.0301
   46MOL0     C 5983   1.625   3.517   5.258 -0.2508 -0.0430  0.1948
   46MOL0    Cl 5984   1.680   3.398   5.139 -0.1845  0.6290 -0.1300
   46MOL0     C 5985   0.712   4.027   5.060  0.0416  0.2447  0.6724
   46MOL0     C 5986   0.597   4.112   5.089  0.1484  0.0910  0.3067
   46MOL0     O 5987   0.248   4.104   4.889  0.4054 -0.7338 -0.4837
   46MOL0     C 5988   0.023   4.225   5.011 -0.2901  0.2466 -0.1814
   46MOL0     C 5989  -0.086   4.290   5.080  0.0453 -0.1075  0.2694
   46MOL0     N 5990  -0.279   4.898   5.690  0.9401  0.6026  0.1434
   46MOL0     N 5991  -0.281   4.941   5.811  0.4338 -0.0606  0.4817
   46MOL0     C 5992   0.585   5.137   6.450 -0.6740  0.0588 -0.4202
   46MOL0     C 5993   0.613   5.194   6.578  0.9008 -0.0432  0.4975
   46MOL0     C 5994   0.597   5.422   6.944 -0.2512 -0.0623  0.1802
   46MOL0     C 5995   0.606   5.320   7.054  0.2076 -0.8958 -0.7375
   46MOL0     C 5996   0.678   5.350   7.174 -0.9860  0.1371  1.2617
   46MOL0     C 5997   0.739   5.472   7.188  0.1293 -0.0077 -0.1497
   46MOL0     O 5998   0.805   5.509   7.300  0.3841  0.0713  1.0037
   46MOL0     C 5999   0.790   5.425   7.419  0.2923  0.7272  0.1255
   46MOL0     C 6000   0.889   5.308   7.425 -0.4669  0.1203 -0.8487
   46MOL0     C 6001   1.035   5.328   7.398  0.1107  0.2503 -0.1873
   46MOL0     C 6002   1.120   5.214   7.428  0.3743 -0.5025  0.2323
   46MOL0     C 6003   1.098   5.158   7.568  0.0921 -0.3561 -0.0443
   46MOL0     C 6004   1.078   5.095   7.667 -0.2127 -0.4051  0.2960
   46MOL0     C 6005   0.706   5.570   7.094 -0.9252  0.1660  0.4226
   46MOL0     C 6006   0.652   5.553   6.968 -0.5166  0.2231 -0.2617
   46MOL0     H 6007   0.295   5.216   6.698 -0.4281  0.4815  0.4626
   46MOL0     H 6008   0.250   5.132   6.476 -0.2771  3.0555  1.2146
   46MOL0     H 6009   0.332   5.084   6.123  1.8231  1.5889  0.8260
   46MOL0     H 6010   0.257   5.153   6.262  3.7772  2.0823  0.8711
   46MOL0     H 6011   0.227   4.910   6.364 -0.5200  0.6867  0.4368
   46MOL0     H 6012   0.252   4.855   6.203 -0.9266 -0.9241  1.0031
   46MOL0     H 6013   0.089   5.008   6.112  0.5640  0.3666  0.1124
   46MOL0     H 6014   0.043   5.057   6.282 -1.4081 -0.4223  0.1161
   46MOL0     H 6015   0.014   4.782   6.157  1.2328 -1.3176  2.8836
   46MOL0     H 6016  -0.006   4.812   6.329  1.2235  0.7837  0.7424
   46MOL0     H 6017  -0.170   4.974   6.134  1.0843  1.4732 -0.0228
   46MOL0     H 6018  -0.194   4.919   6.313 -0.9758  1.2433 -0.5997
   46MOL0     H 6019  -0.241   4.699   6.244 -1.8899  1.0689  0.6570
   46MOL0     H 6020  -0.197   4.736   6.075 -1.0445 -0.2138 -0.8811
   46MOL0     H 6021  -0.459   4.722   6.117  0.4989 -0.3823 -1.2839
   46MOL0     H 6022  -0.441   4.858   6.216  2.3056  1.9016 -1.2076
   46MOL0     H 6023  -0.375   5.011   6.058  0.3549  0.1678 -0.3021
   46MOL0     H 6024  -0.520   4.930   6.015  0.1041  0.2697  1.7524
   46MOL0     H 6025  -0.502   4.705   5.846  0.0994 -0.5815 -0.9007
   46MOL0     H 6026  -0.400   4.753   5.481  1.7613 -3.5998 -1.7489
   46MOL0     H 6027  -0.503   4.656   5.598 -1.0645 -0.7534  0.0434
   46MOL0     H 6028  -0.294   4.529   5.636 -3.5164 -1.5614 -0.0476
   46MOL0     H 6029  -0.209   4.647   5.533 -0.8812 -0.0995 -2.1576
   46MOL0     H 6030  -0.427   4.453   5.432 -0.1158 -0.2713  3.2750
   46MOL0     H 6031  -0.350   4.582   5.341  4.0362  1.5199  0.4533
   46MOL0     H 6032  -0.238   4.318   5.451  0.0359 -0.5697  0.6918
   46MOL0     H 6033  -0.124   4.457   5.450  0.6121 -0.1726 -0.0880
   46MOL0     H 6034   0.059   4.323   5.383 -0.2743  3.0681 -0.2254
   46MOL0     H 6035   0.251   4.252   5.260  0.3981  0.7941 -1.7547
   46MOL0     H 6036   0.371   3.893   4.955  1.4050 -2.1733  0.2255
   46MOL0     H 6037   0.583   3.772   4.883 -1.7435  0.6373  0.7190
   46MOL0     H 6038   0.903   3.803   5.147  3.7920  0.7192  1.4188
   46MOL0     H 6039   0.984   3.931   5.055  0.8995  0.0368  2.8027
   46MOL0     H 6040   1.079   3.769   4.898  0.1170 -3.4580 -1.0345
   46MOL0     H 6041   1.005   3.638   4.977 -1.2080 -0.4704  5.3015
   46MOL0     H 6042   1.191   3.822   5.119  2.8230 -0.7277  0.8280
   46MOL0     H 6043   1.257   3.689   5.030 -1.9847 -0.7893 -2.3575
   46MOL0     H 6044   1.078   3.712   5.288  0.4495  0.7919  0.0378
   46MOL0     H 6045   1.047   3.564   5.208  1.5911 -1.7228 -2.5552
   46MOL0     H 6046   1.215   3.466   5.301 -1.3860 -0.2042  0.7314
   46MOL0     H 6047   1.251   3.610   5.391 -1.5071  0.2873  0.0344
   46MOL0     H 6048   1.422   3.655   5.195  0.6177  0.7897  1.5504
   46MOL0     H 6049   1.360   3.500   5.126  0.0640 -1.6369  2.3628
   46MOL0     H 6050   1.473   3.513   5.404 -2.0127 -1.4142  1.3615
   46MOL0     H 6051   1.443   3.377   5.299 -1.4385  0.4423  1.2905
   46MOL0     H 6052   1.699   3.519   5.338 -0.5134  2.3311  0.4597
   46MOL0     H 6053   1.631   3.613   5.207 -0.2033 -0.1373  0.0212
   46MOL0     H 6054   0.801   4.075   5.098 -0.7749  1.7524  0.7465
   46MOL0     H 6055   0.602   4.205   5.145  1.3491 -0.5151  1.2237
   46MOL0     H 6056   0.008   4.195   4.908  1.9598  1.7600 -1.0224
   46MOL0     H 6057  -0.181   4.324   5.038  0.9080  0.0439 -1.6898
   46MOL0     H 6058   0.669   5.104   6.390  1.0674 -1.6633  2.7040
   46MOL0     H 6059   0.714   5.219   6.608  0.6006 -2.3327  4.0934
   46MOL0     H 6060   0.555   5.227   7.030 -0.3758 -0.7855  0.0278
   46MOL0     H 6061   0.707   5.264   7.234  5.2247 -1.7523 -3.4117
   46MOL0     H 6062   0.685   5.394   7.429  0.0586  1.9501  2.0423
   46MOL0     H 6063   0.807   5.482   7.511  0.8940 -0.6381  0.8881
   46MOL0     H 6064   0.877   5.266   7.525  0.9861  1.2576 -0.1490
   46MOL0     H 6065   0.844   5.233   7.359  0.2771  1.0558 -2.5012
   46MOL0     H 6066   1.054   5.418   7.457 -0.2216 -0.6303  1.3202
   46MOL0     H 6067   1.051   5.359   7.295 -0.0059  1.6857  0.1979
   46MOL0     H 6068   1.107   5.138   7.350 -2.7637  0.9811 -0.8479
   46MOL0     H 6069   1.219   5.260   7.431 -0.1438  0.5680  1.4607
   46MOL0     H 6070   1.045   5.068   7.765 -1.8322  1.7500  0.4369
   46MOL0     H 6071   0.733   5.672   7.120 -5.1406  1.3634  0.8952
   46MOL0     H 6072   0.645   5.627   6.889 -2.8941 -0.4061 -0.7092
   47MOL0     O 6073   8.879  10.261   9.002 -0.0440  0.8132 -0.3482
   47MOL0     C 6074   8.761  10.252   9.012  0.5631  0.6131  0.6270
   47MOL0     O 6075   8.679  10.339   9.064  0.1365 -0.3075  0.0245
   47MOL0     C 6076   8.730  10.440   9.141 -0.1230  0.4229  0.5509
   47MOL0     C 6077   8.843  10.437   9.225  0.2316  0.1983 -0.1274
   47MOL0     C 6078   8.885  10.556   9.301  0.4467 -0.4048  0.0127
   47MOL0     C 6079   8.814  10.672   9.287  0.1209  0.2674 -1.2118
   47MOL0     O 6080   8.849  10.780   9.359 -0.6273 -0.2330 -0.2248
   47MOL0     C 6081   8.831  10.911   9.312  0.4043 -0.6707 -0.0028
   47MOL0     C 6082   8.782  11.002   9.432  0.6895  0.0727 -0.0334
   47MOL0     C 6083   8.661  10.940   9.508  0.4004 -0.1100 -0.8794
   47MOL0     C 6084   8.536  11.013   9.461  0.5468  0.9409  0.2039
   47MOL0     C 6085   8.404  10.983   9.545 -0.3365 -0.3273  0.2386
   47MOL0     C 6086   8.267  10.989   9.472  0.7205 -1.0086  0.5785
   47MOL0     C 6087   8.154  11.022   9.572 -0.7411 -0.0899 -0.2531
   47MOL0     C 6088   8.117  10.891   9.652 -0.1085 -0.1492 -0.6790
   47MOL0     N 6089   8.005  10.925   9.740 -0.1992  0.1373 -0.1447
   47MOL0     C 6090   7.875  10.914   9.709 -0.8930 -0.2521  0.4823
   47MOL0     C 6091   7.807  10.973   9.807  0.1970  0.1098 -1.3862
   47MOL0     C 6092   7.663  11.004   9.813  0.6259  0.5850 -0.4418
   47MOL0     C 6093   7.639  11.136   9.739 -0.0299 -0.7084  0.4388
   47MOL0     C 6094   7.704  11.251   9.816  0.1516 -0.3151  0.4892
   47MOL0     C 6095   7.657  11.384   9.745 -0.0044 -0.4180 -0.1101
   47MOL0     O 6096   7.734  11.379   9.624  0.2277 -0.2120 -0.2093
   47MOL0     C 6097   7.867  11.407   9.607  0.0094  0.1984  0.3312
   47MOL0     C 6098   7.942  11.510   9.670 -0.7177 -0.4039 -1.1083
   47MOL0     C 6099   8.073  11.527   9.626 -0.0010  0.6360 -1.0741
   47MOL0     C 6100   8.135  11.445   9.529  0.4095 -0.8067 -0.0397
   47MOL0     C 6101   8.278  11.466   9.477 -0.2605 -0.1983  0.6239
   47MOL0     O 6102   8.365  11.538   9.556  0.3190  0.8044 -0.5417
   47MOL0     C 6103   8.496  11.551   9.540 -0.2594 -0.6231 -0.4912
   47MOL0     C 6104   8.580  11.536   9.648  0.2518  1.1102  0.2134
   47MOL0     C 6105   8.719  11.561   9.648 -0.5582 -0.0073  0.2532
   47MOL0     C 6106   8.779  11.608   9.536  0.2269  0.4396  0.3476
   47MOL0     O 6107   8.911  11.638   9.541  0.1205 -0.6469 -0.1646
   47MOL0     C 6108   8.996  11.555   9.459  0.6954 -1.1721  0.2003
   47MOL0     C 6109   9.146  11.587   9.482 -0.3875  0.4385  0.0446
   47MOL0     C 6110   9.192  11.530   9.618  0.4230  0.2997 -0.3065
   47MOL0     C 6111   9.345  11.557   9.634 -0.7491  0.4280  0.3034
   47MOL0     C 6112   9.393  11.590   9.774  0.7814 -0.0179 -0.3145
   47MOL0     C 6113   9.334  11.720   9.832 -0.6775 -0.3306  0.0255
   47MOL0     C 6114   9.345  11.849   9.746 -1.2038 -0.4243  0.5157
   47MOL0     C 6115   9.490  11.863   9.686  0.4975  0.8228 -0.8857
   47MOL0    Cl 6116   9.502  12.017   9.607  0.2726 -0.0303 -0.0063
   47MOL0     C 6117   8.702  11.622   9.426 -0.7266 -1.0347  0.3430
   47MOL0     C 6118   8.557  11.607   9.429  0.0966 -1.0551  0.8039
   47MOL0     O 6119   8.308  11.429   9.360  0.1803 -0.1793 -0.2774
   47MOL0     C 6120   8.060  11.351   9.469  0.1181 -0.7456  0.3639
   47MOL0     C 6121   7.930  11.333   9.498  0.6632  0.3519 -1.0044
   47MOL0     N 6122   7.906  11.007   9.905  0.8851  0.2976 -0.0726
   47MOL0     N 6123   8.022  10.976   9.867 -0.4616 -0.5276  1.1074
   47MOL0     C 6124   8.697  10.671   9.207  0.0172  0.5885  0.2182
   47MOL0     C 6125   8.659  10.561   9.130 -0.4473  0.5254  0.4415
   47MOL0     C 6126   8.701  10.136   8.949 -0.3924 -1.2534 -0.4522
   47MOL0     C 6127   8.774  10.016   8.921 -0.0895 -0.3984 -1.5053
   47MOL0     C 6128   8.719   9.906   8.862 -0.2708 -0.0796 -0.5998
   47MOL0     C 6129   8.599   9.920   8.801  0.0832 -0.2995 -0.2129
   47MOL0     O 6130   8.543   9.822   8.724  0.2203  0.3134  0.5674
   47MOL0     C 6131   8.579   9.857   8.584  0.3126 -0.3915  0.1161
   47MOL0     C 6132   8.549   9.734   8.492 -0.1192  0.6907  0.2702
   47MOL0     C 6133   8.616   9.751   8.353  0.3047  0.0151 -0.3498
   47MOL0     C 6134   8.575   9.641   8.266 -0.6961  0.1618 -0.4501
   47MOL0     C 6135   8.437   9.638   8.214  0.3950 -0.0603 -0.3565
   47MOL0     C 6136   8.319   9.633   8.179 -0.6684 -0.4680  0.5736
   47MOL0     C 6137   8.518  10.028   8.826  0.5907 -1.3306  0.0848
   47MOL0     C 6138   8.571  10.142   8.895 -0.1763 -0.7811 -0.1825
   47MOL0     H 6139   8.897  10.342   9.229  0.3327  0.2160 -1.0084
   47MOL0     H 6140   8.970  10.550   9.368  0.6085 -1.3826 -0.2558
   47MOL0     H 6141   8.750  10.912   9.239  0.7190 -0.4087 -0.3491
   47MOL0     H 6142   8.921  10.956   9.269  1.2149 -2.8041 -0.6673
   47MOL0     H 6143   8.758  11.094   9.378 -0.2563  0.2740  0.7095
   47MOL0     H 6144   8.863  11.011   9.505  1.8690 -2.5984 -0.8805
   47MOL0     H 6145   8.666  10.938   9.618 -1.5333 -3.0063 -0.7247
   47MOL0     H 6146   8.653  10.836   9.476  2.0710  0.4420 -3.3405
   47MOL0     H 6147   8.565  11.119   9.465  0.8729  0.8453  0.4477
   47MOL0     H 6148   8.521  10.986   9.356 -2.0106  2.0902  0.2102
   47MOL0     H 6149   8.404  11.052   9.630 -1.0338  0.8161 -0.6590
   47MOL0     H 6150   8.405  10.885   9.596  0.3107  0.5711  2.0589
   47MOL0     H 6151   8.257  10.894   9.419  1.1914  0.0005 -1.4178
   47MOL0     H 6152   8.273  11.068   9.396  2.6184  0.9470  2.5994
   47MOL0     H 6153   8.186  11.106   9.633 -1.3016  1.7716 -2.3713
   47MOL0     H 6154   8.061  11.060   9.528 -0.6841 -0.4877 -0.7318
   47MOL0     H 6155   8.204  10.850   9.705 -2.0990 -1.2228  1.9324
   47MOL0     H 6156   8.075  10.816   9.585 -1.2506 -1.2756  1.2228
   47MOL0     H 6157   7.841  10.880   9.612  3.1054 -0.3336 -1.0777
   47MOL0     H 6158   7.634  11.007   9.918 -1.9211  0.0981 -1.0751
   47MOL0     H 6159   7.603  10.922   9.774  2.4328 -0.7529 -0.5784
   47MOL0     H 6160   7.536  11.167   9.720 -1.5536 -3.4295  3.2872
   47MOL0     H 6161   7.700  11.120   9.650 -0.6647 -0.8540  0.0251
   47MOL0     H 6162   7.656  11.271   9.912 -0.6043 -2.3710  0.5796
   47MOL0     H 6163   7.812  11.252   9.832  0.7632  3.2920 -2.3725
   47MOL0     H 6164   7.673  11.476   9.801 -2.6561 -0.5702  1.0286
   47MOL0     H 6165   7.552  11.375   9.714 -0.5477 -1.7956  1.9253
   47MOL0     H 6166   7.914  11.572   9.755  2.2283 -0.0502 -0.2799
   47MOL0     H 6167   8.132  11.596   9.685 -0.7849  0.3255  0.1059
   47MOL0     H 6168   8.530  11.509   9.740  1.0373  2.1211  0.9524
   47MOL0     H 6169   8.772  11.548   9.742  0.6428  0.3597 -0.3581
   47MOL0     H 6170   8.966  11.578   9.357  3.6444 -1.9040 -0.9425
   47MOL0     H 6171   8.976  11.452   9.489  0.5193 -0.9045  1.0473
   47MOL0     H 6172   9.172  11.692   9.464 -1.7292  0.5686 -1.3752
   47MOL0     H 6173   9.188  11.537   9.394 -1.7136  0.3735 -0.5867
   47MOL0     H 6174   9.164  11.425   9.619  0.0640  0.3766 -1.1824
   47MOL0     H 6175   9.139  11.572   9.704 -0.5169 -2.0507  0.3453
   47MOL0     H 6176   9.401  11.472   9.594  0.3404 -0.1853  2.9584
   47MOL0     H 6177   9.365  11.642   9.567 -1.9887  0.5975  0.1323
   47MOL0     H 6178   9.501  11.582   9.786  0.7627  2.1846  1.9518
   47MOL0     H 6179   9.347  11.514   9.839  0.1378  1.9107  1.5932
   47MOL0     H 6180   9.389  11.743   9.924  1.2241  0.6604 -1.3041
   47MOL0     H 6181   9.227  11.704   9.852 -1.0069  1.6979  0.0122
   47MOL0     H 6182   9.278  11.854   9.660  0.1607  1.4648 -0.5353
   47MOL0     H 6183   9.307  11.933   9.804 -0.3242  2.6906 -2.9849
   47MOL0     H 6184   9.523  11.785   9.617  1.3467  1.3052 -1.0318
   47MOL0     H 6185   9.540  11.854   9.783 -1.4382  1.0283  0.1929
   47MOL0     H 6186   8.733  11.660   9.329  0.6844 -0.7353  0.9014
   47MOL0     H 6187   8.491  11.631   9.347  1.8585  1.1182 -0.0702
   47MOL0     H 6188   8.116  11.303   9.390  0.6479  1.2786 -0.5676
   47MOL0     H 6189   7.859  11.274   9.441  1.5647 -0.9593 -0.7972
   47MOL0     H 6190   8.630  10.755   9.192  0.1975  0.4801 -1.3670
   47MOL0     H 6191   8.589  10.572   9.048 -1.0950 -1.1966  0.7214
   47MOL0     H 6192   8.878  10.018   8.950 -0.7394 -0.1473  1.0245
   47MOL0     H 6193   8.785   9.825   8.833 -1.3156 -3.0367  4.0981
   47MOL0     H 6194   8.684   9.889   8.584  0.8001 -1.9009 -0.7075
   47MOL0     H 6195   8.522   9.944   8.549 -1.7977 -1.7141  0.1004
   47MOL0     H 6196   8.598   9.643   8.530  0.0560  0.3023 -0.8589
   47MOL0     H 6197   8.441   9.720   8.490 -0.3668  2.4261  0.2372
   47MOL0     H 6198   8.724   9.750   8.369  0.6616  0.5691 -2.4888
   47MOL0     H 6199   8.595   9.847   8.304  0.2915 -0.2970 -0.9607
   47MOL0     H 6200   8.651   9.641   8.187  2.2729  0.5021  2.2236
   47MOL0     H 6201   8.591   9.549   8.322  0.0255  1.2730  1.2421
   47MOL0     H 6202   8.217   9.621   8.148 -0.5560 -1.7404  0.6430
   47MOL0     H 6203   8.415  10.034   8.791  0.9859  0.9774 -0.8878
   47MOL0     H 6204   8.506  10.225   8.923 -0.5425 -0.8570 -0.7844
   48MOL0     O 6205   0.874   3.638   7.250 -0.0075  0.5474 -0.1390
   48MOL0     C 6206   0.795   3.615   7.157  0.5518  0.2701 -0.3848
   48MOL0     O 6207   0.807   3.648   7.026  0.6159 -0.5526 -0.0855
   48MOL0     C 6208   0.931   3.686   6.984 -1.2194  0.0042 -0.7042
   48MOL0     C 6209   0.946   3.790   6.902  0.1333  0.1309  0.1945
   48MOL0     C 6210   1.068   3.841   6.866 -0.7895 -0.1188 -0.2917
   48MOL0     C 6211   1.189   3.776   6.914 -0.5696  0.0879 -0.0124
   48MOL0     O 6212   1.316   3.805   6.868 -0.4159  0.3965  0.0492
   48MOL0     C 6213   1.354   3.928   6.812  0.1935  1.3532  0.1933
   48MOL0     C 6214   1.491   3.966   6.875  0.3461 -0.7824  0.3836
   48MOL0     C 6215   1.496   4.009   7.017  0.3811  0.3957 -0.1588
   48MOL0     C 6216   1.638   4.061   7.044  0.4601 -0.0324  0.2028
   48MOL0     C 6217   1.639   4.123   7.185  0.1525 -0.9744  0.3755
   48MOL0     C 6218   1.767   4.213   7.215  0.1921  0.9926  0.0118
   48MOL0     C 6219   1.780   4.345   7.132  0.0693  0.3532 -0.5108
   48MOL0     C 6220   1.668   4.453   7.149  0.5812  0.5284  0.2869
   48MOL0     N 6221   1.532   4.425   7.096  0.0130 -0.5003  0.6172
   48MOL0     C 6222   1.499   4.388   6.963 -0.1108 -0.5108 -0.8000
   48MOL0     C 6223   1.368   4.368   6.962  0.1296 -1.7317  0.1153
   48MOL0     C 6224   1.282   4.316   6.845  0.1820 -0.2171  0.1966
   48MOL0     C 6225   1.172   4.425   6.801 -0.8402 -0.2695  1.1060
   48MOL0     C 6226   1.052   4.448   6.896 -0.0941 -0.6930  0.7526
   48MOL0     C 6227   0.993   4.326   6.967 -0.0045  0.9767 -0.3426
   48MOL0     O 6228   0.956   4.217   6.877  0.0125  1.0188  0.2843
   48MOL0     C 6229   0.831   4.218   6.814  0.3611 -1.2981 -0.2738
   48MOL0     C 6230   0.731   4.319   6.836 -0.1826 -0.2178 -0.5023
   48MOL0     C 6231   0.600   4.309   6.789 -0.9075  0.4806  1.4567
   48MOL0     C 6232   0.570   4.195   6.705 -0.1102  0.5592  0.1183
   48MOL0     C 6233   0.430   4.186   6.659 -0.8808  0.3361  0.5181
   48MOL0     O 6234   0.383   4.066   6.621 -0.7333  0.4454 -0.1935
   48MOL0     C 6235   0.261   4.057   6.558 -0.7477 -0.5346 -0.3563
   48MOL0     C 6236   0.205   4.158   6.480  0.1897  1.2037 -0.8301
   48MOL0     C 6237   0.082   4.128   6.426 -0.8489 -0.3539  0.6837
   48MOL0     C 6238   0.015   4.014   6.447 -0.5969  0.4208 -0.5592
   48MOL0     O 6239  -0.111   4.002   6.403  0.2499  0.1436 -0.0871
   48MOL0     C 6240  -0.208   4.095   6.450  1.9645 -0.6052  0.4007
   48MOL0     C 6241  -0.332   4.007   6.467 -0.3729  0.7078  0.9591
   48MOL0     C 6242  -0.454   4.083   6.507 -0.7585  0.4752 -0.1664
   48MOL0     C 6243  -0.573   3.994   6.557 -0.4470 -0.6216  0.1328
   48MOL0     C 6244  -0.613   3.866   6.495  0.2167  1.5146 -0.1764
   48MOL0     C 6245  -0.745   3.827   6.555  0.1119  1.4165  0.5370
   48MOL0     C 6246  -0.737   3.754   6.696 -0.6374 -0.1922  0.8562
   48MOL0     C 6247  -0.842   3.641   6.695  1.1920 -0.1415  0.5703
   48MOL0    Cl 6248  -1.018   3.704   6.692 -0.2340 -0.0472  0.2682
   48MOL0     C 6249   0.068   3.905   6.517  0.0847  0.5102  0.2565
   48MOL0     C 6250   0.196   3.934   6.578  0.6129  0.0278 -0.3065
   48MOL0     O 6251   0.362   4.275   6.687 -0.2377 -0.0511 -0.0251
   48MOL0     C 6252   0.674   4.105   6.664  0.0121  0.9456 -0.3269
   48MOL0     C 6253   0.798   4.122   6.722 -0.4543 -0.6008 -0.1385
   48MOL0     N 6254   1.324   4.388   7.095  0.5765  0.6174  0.6324
   48MOL0     N 6255   1.416   4.424   7.178 -0.5382  0.7751 -0.5706
   48MOL0     C 6256   1.178   3.674   7.010  0.3067 -0.0258  0.3558
   48MOL0     C 6257   1.052   3.630   7.038 -0.1858 -0.1223 -0.6799
   48MOL0     C 6258   0.668   3.562   7.197  1.0070 -0.0726 -0.0657
   48MOL0     C 6259   0.556   3.558   7.101  0.6112 -0.2277 -0.1267
   48MOL0     C 6260   0.432   3.501   7.137 -0.1122 -0.3642  0.8118
   48MOL0     C 6261   0.423   3.435   7.266 -0.8552 -1.1080  0.0910
   48MOL0     O 6262   0.318   3.365   7.311 -1.0407  0.2364  0.0252
   48MOL0     C 6263   0.202   3.365   7.230  0.9599  0.9098  0.0523
   48MOL0     C 6264   0.089   3.328   7.315  0.1936  0.5602  0.4148
   48MOL0     C 6265   0.044   3.452   7.382 -0.6383  0.0525 -0.3150
   48MOL0     C 6266  -0.055   3.411   7.487 -0.4449 -0.0210  0.1136
   48MOL0     C 6267  -0.081   3.530   7.567 -0.0831  0.3103  0.1057
   48MOL0     C 6268  -0.085   3.633   7.632  0.0815  0.2572  0.3820
   48MOL0     C 6269   0.520   3.453   7.359 -0.2421 -0.3573  0.6240
   48MOL0     C 6270   0.640   3.515   7.323 -0.4870  0.9552 -0.5858
   48MOL0     H 6271   0.866   3.848   6.859  1.0984  2.8022  1.7457
   48MOL0     H 6272   1.077   3.919   6.791 -0.0414  0.9651  0.9031
   48MOL0     H 6273   1.282   4.007   6.834 -0.7550  1.2506 -2.2104
   48MOL0     H 6274   1.368   3.915   6.704  0.6567 -3.2150  0.6028
   48MOL0     H 6275   1.540   4.036   6.808  0.1204 -1.7416 -0.8084
   48MOL0     H 6276   1.564   3.885   6.863  3.5836  1.8530  0.8579
   48MOL0     H 6277   1.492   3.915   7.072  4.8759 -0.1454 -0.4049
   48MOL0     H 6278   1.416   4.075   7.054  2.0532  2.4698 -0.0274
   48MOL0     H 6279   1.705   3.979   7.017 -0.4897 -0.0199 -2.4578
   48MOL0     H 6280   1.666   4.145   6.980  0.8596  1.4743  2.2609
   48MOL0     H 6281   1.629   4.043   7.259 -3.6266  0.3873  1.5494
   48MOL0     H 6282   1.556   4.191   7.206 -0.1782 -1.0170 -0.7485
   48MOL0     H 6283   1.856   4.157   7.183  1.2618  2.0180  1.0723
   48MOL0     H 6284   1.771   4.245   7.319 -1.5387  2.1211 -0.2292
   48MOL0     H 6285   1.879   4.379   7.162  0.2328 -0.3518 -0.2454
   48MOL0     H 6286   1.796   4.309   7.030  1.1291 -1.6764  0.3247
   48MOL0     H 6287   1.695   4.552   7.112 -2.1730  1.1825 -0.2581
   48MOL0     H 6288   1.668   4.472   7.257 -0.7859  3.6741 -0.1558
   48MOL0     H 6289   1.560   4.383   6.873 -4.3901 -0.5573 -4.0178
   48MOL0     H 6290   1.229   4.224   6.872 -0.0012 -0.4899 -1.0148
   48MOL0     H 6291   1.347   4.287   6.762  0.3549 -0.5950  0.4585
   48MOL0     H 6292   1.123   4.391   6.709  1.4801 -2.0810  0.4539
   48MOL0     H 6293   1.229   4.518   6.789  2.5023 -2.2001  0.8881
   48MOL0     H 6294   1.086   4.517   6.974 -0.1409  0.8808 -0.5828
   48MOL0     H 6295   0.974   4.493   6.835  1.1836 -1.0355 -1.2190
   48MOL0     H 6296   0.909   4.346   7.034 -0.2570 -1.8417  0.3323
   48MOL0     H 6297   1.066   4.286   7.038 -0.9019 -1.5900 -0.7474
   48MOL0     H 6298   0.734   4.403   6.904 -5.1906 -1.1243  1.2519
   48MOL0     H 6299   0.530   4.385   6.820 -2.3489  0.4135 -1.3404
   48MOL0     H 6300   0.239   4.261   6.475 -1.0943  1.6762 -0.2794
   48MOL0     H 6301   0.041   4.201   6.357  1.3627  1.7542  1.4516
   48MOL0     H 6302  -0.224   4.181   6.385 -0.2912 -0.8336  0.5859
   48MOL0     H 6303  -0.198   4.143   6.548 -0.7889 -0.5953  0.7467
   48MOL0     H 6304  -0.311   3.928   6.539  0.3066  1.4294  1.5662
   48MOL0     H 6305  -0.343   3.957   6.370  0.3003 -0.4194  1.4523
   48MOL0     H 6306  -0.478   4.126   6.410  1.4071 -2.5038 -2.2036
   48MOL0     H 6307  -0.425   4.156   6.583 -2.1309  0.2909  0.5685
   48MOL0     H 6308  -0.553   3.980   6.664  0.7479 -1.7252 -0.2012
   48MOL0     H 6309  -0.661   4.056   6.540  0.7066  0.2210 -4.0652
   48MOL0     H 6310  -0.542   3.785   6.518  0.2527  1.2771 -1.1010
   48MOL0     H 6311  -0.620   3.867   6.386  0.3203 -3.2138 -0.4685
   48MOL0     H 6312  -0.794   3.756   6.487  0.2435 -0.4362  2.2986
   48MOL0     H 6313  -0.816   3.910   6.562 -2.1770 -0.3240 -0.5568
   48MOL0     H 6314  -0.635   3.715   6.698  1.1477  3.7711 -1.2999
   48MOL0     H 6315  -0.754   3.815   6.786 -3.1529  1.2097 -0.4491
   48MOL0     H 6316  -0.838   3.575   6.782 -4.0361 -0.4153  0.9172
   48MOL0     H 6317  -0.838   3.577   6.606  0.5568 -1.6220  1.5745
   48MOL0     H 6318   0.017   3.815   6.549  0.2606  0.7322  1.2149
   48MOL0     H 6319   0.258   3.866   6.636  2.2779  2.7144  1.3139
   48MOL0     H 6320   0.653   4.020   6.599  3.7099  0.6741 -1.3645
   48MOL0     H 6321   0.882   4.055   6.701  3.0137  3.1399  0.5748
   48MOL0     H 6322   1.258   3.624   7.064 -0.2307 -1.0223  0.2431
   48MOL0     H 6323   1.048   3.540   7.098  2.3228  2.2668  3.5477
   48MOL0     H 6324   0.569   3.608   7.006  0.3618  1.2929  0.6150
   48MOL0     H 6325   0.351   3.486   7.067 -1.2050  2.3395  1.3936
   48MOL0     H 6326   0.215   3.290   7.152  2.2902 -0.1373  1.2323
   48MOL0     H 6327   0.180   3.458   7.177 -1.7566  1.5047  1.9723
   48MOL0     H 6328   0.007   3.289   7.254  1.1158 -2.4465  0.9660
   48MOL0     H 6329   0.114   3.258   7.395 -0.0050  0.1515  0.1201
   48MOL0     H 6330  -0.003   3.524   7.314  0.8906  0.6239 -0.8222
   48MOL0     H 6331   0.119   3.519   7.425 -0.1098 -0.7776  0.0593
   48MOL0     H 6332  -0.151   3.386   7.440  0.2152  1.2967 -2.0714
   48MOL0     H 6333  -0.014   3.336   7.556 -0.9263 -0.1149  0.3000
   48MOL0     H 6334  -0.091   3.726   7.685  1.8222  3.1224 -3.8502
   48MOL0     H 6335   0.499   3.425   7.462 -3.4213  0.1094  0.1876
   48MOL0     H 6336   0.721   3.526   7.395 -1.1364 -2.7740  0.9536
   49MOL0     O 6337  10.637   4.505   4.272 -0.1573 -0.5597 -0.6267
   49MOL0     C 6338  10.566   4.435   4.344 -0.0834 -0.1687 -0.5539
   49MOL0     O 6339  10.453   4.480   4.411  0.6937 -0.0311 -0.1633
   49MOL0     C 6340  10.417   4.611   4.404  0.1210  0.0598 -0.3546
   49MOL0     C 6341  10.276   4.632   4.426 -0.0016  0.0008  0.5032
   49MOL0     C 6342  10.230   4.763   4.447  0.0670  0.1172  0.4612
   49MOL0     C 6343  10.317   4.874   4.441  0.7406  0.6692 -0.4494
   49MOL0     O 6344  10.284   5.007   4.456  0.3616  0.6965 -0.3481
   49MOL0     C 6345  10.165   5.032   4.530 -0.0585  0.2185 -0.0169
   49MOL0     C 6346  10.054   5.069   4.429 -0.3348 -0.3081  0.8701
   49MOL0     C 6347   9.916   5.065   4.498  0.0620  0.5638  0.7795
   49MOL0     C 6348   9.810   5.100   4.393 -0.9037 -0.3600  0.4467
   49MOL0     C 6349   9.672   5.104   4.456  0.5898 -0.6962  0.1127
   49MOL0     C 6350   9.569   5.096   4.332 -0.1665  0.3187  0.3409
   49MOL0     C 6351   9.419   5.075   4.361  0.1163 -0.3937 -0.0274
   49MOL0     C 6352   9.386   4.946   4.429  0.0603  0.4295  1.1191
   49MOL0     N 6353   9.239   4.917   4.430  0.6761 -0.5461  0.5823
   49MOL0     C 6354   9.201   4.860   4.316  0.0708 -0.7664 -0.2476
   49MOL0     C 6355   9.077   4.827   4.352  0.3576 -0.4091 -0.6286
   49MOL0     C 6356   8.986   4.776   4.246  0.2868  0.5998  0.2284
   49MOL0     C 6357   8.839   4.806   4.275 -0.5116 -0.8020  0.6753
   49MOL0     C 6358   8.776   4.697   4.370  0.0306 -0.2798 -0.3403
   49MOL0     C 6359   8.620   4.719   4.405 -0.5239 -0.9230  0.1563
   49MOL0     O 6360   8.540   4.619   4.344 -0.2719  0.2509  0.1905
   49MOL0     C 6361   8.402   4.612   4.376 -0.3349  0.5916 -0.8645
   49MOL0     C 6362   8.330   4.704   4.440  0.1273 -0.3523  0.2994
   49MOL0     C 6363   8.186   4.688   4.461 -1.3920 -0.1527  0.0791
   49MOL0     C 6364   8.125   4.567   4.432  0.1371 -0.3634  0.3958
   49MOL0     C 6365   7.980   4.550   4.453  0.0975 -0.6911 -0.0294
   49MOL0     O 6366   7.921   4.432   4.410 -0.9527 -0.5560  0.3884
   49MOL0     C 6367   7.786   4.436   4.406  1.0350  0.1131  0.1655
   49MOL0     C 6368   7.730   4.309   4.408  0.1761 -0.5987  0.5570
   49MOL0     C 6369   7.591   4.284   4.384 -0.3177  0.2191  0.3787
   49MOL0     C 6370   7.493   4.387   4.354  0.1836 -0.1986  0.0182
   49MOL0     O 6371   7.362   4.375   4.320  0.1608  0.4965  0.1281
   49MOL0     C 6372   7.285   4.259   4.372  0.5858  0.1353  0.8982
   49MOL0     C 6373   7.139   4.293   4.346 -0.5256 -0.1039  0.9160
   49MOL0     C 6374   7.051   4.188   4.408  0.2032  0.1755 -0.2405
   49MOL0     C 6375   6.898   4.224   4.416 -0.6478 -0.7937  0.3939
   49MOL0     C 6376   6.855   4.142   4.539  0.1187 -0.2260  0.4451
   49MOL0     C 6377   6.712   4.180   4.580 -0.2502 -0.3787 -0.1974
   49MOL0     C 6378   6.689   4.108   4.711 -0.0066 -0.1062 -0.2189
   49MOL0     C 6379   6.565   4.170   4.774  0.2335 -0.4587 -0.1657
   49MOL0    Cl 6380   6.489   4.054   4.893 -0.1906 -0.3970 -0.3872
   49MOL0     C 6381   7.556   4.516   4.355 -0.5887 -0.0440 -0.7431
   49MOL0     C 6382   7.693   4.539   4.386 -0.6039 -0.7737  0.2581
   49MOL0     O 6383   7.923   4.647   4.502 -0.6662 -0.0787 -0.6297
   49MOL0     C 6384   8.204   4.482   4.361  0.6197  0.6842  0.7968
   49MOL0     C 6385   8.347   4.497   4.337 -0.1115 -0.4767 -0.5468
   49MOL0     N 6386   9.048   4.867   4.487 -0.4818 -0.4064  0.0870
   49MOL0     N 6387   9.154   4.923   4.532  0.5505  0.0434 -0.5715
   49MOL0     C 6388  10.452   4.850   4.425  0.1444 -0.9827  0.0907
   49MOL0     C 6389  10.500   4.722   4.410  0.2245  0.1546  0.4810
   49MOL0     C 6390  10.604   4.297   4.375 -0.6143  0.9268 -0.7334
   49MOL0     C 6391  10.737   4.266   4.370 -0.4111 -0.2120  0.5725
   49MOL0     C 6392  10.783   4.135   4.395 -0.6994 -0.6666 -0.0746
   49MOL0     C 6393  10.694   4.032   4.418 -0.1255  0.0842  0.6712
   49MOL0     O 6394  10.719   3.896   4.431  0.4124 -0.1685 -0.3087
   49MOL0     C 6395  10.836   3.844   4.424 -0.7128  0.2064  0.7112
   49MOL0     C 6396  10.823   3.690   4.446  0.0266 -0.5052 -0.3028
   49MOL0     C 6397  10.953   3.629   4.446 -0.3899  0.7254 -0.0162
   49MOL0     C 6398  11.030   3.647   4.313  0.5384 -0.9091 -0.6113
   49MOL0     C 6399  11.135   3.548   4.310 -0.1563 -0.3957 -0.7817
   49MOL0     C 6400  11.228   3.464   4.300 -0.0361 -0.3122 -0.2120
   49MOL0     C 6401  10.554   4.061   4.410  0.1453  0.5405  0.0323
   49MOL0     C 6402  10.518   4.192   4.409  0.7296 -0.0272  1.0149
   49MOL0     H 6403  10.224   4.538   4.434  0.8486 -0.3646  2.4282
   49MOL0     H 6404  10.126   4.760   4.477 -0.3930  0.8550 -0.9968
   49MOL0     H 6405  10.163   5.109   4.608  0.4686  0.0593  0.1587
   49MOL0     H 6406  10.140   4.938   4.579 -0.0472  1.1626  1.8933
   49MOL0     H 6407  10.054   4.995   4.348 -0.5252  0.8990 -0.2556
   49MOL0     H 6408  10.070   5.170   4.392 -0.2272  0.0323  1.8115
   49MOL0     H 6409   9.906   5.137   4.579 -0.2618  2.1392 -0.5879
   49MOL0     H 6410   9.899   4.962   4.531  2.1462 -0.4202 -1.0074
   49MOL0     H 6411   9.835   5.197   4.350  4.5952  0.3966  4.3046
   49MOL0     H 6412   9.818   5.026   4.313  3.1930 -1.4351  1.5949
   49MOL0     H 6413   9.661   5.200   4.506  1.5099  1.0058 -2.6981
   49MOL0     H 6414   9.654   5.023   4.527 -4.2810  1.1898  1.3629
   49MOL0     H 6415   9.599   5.015   4.265 -1.3729  2.0395 -2.4623
   49MOL0     H 6416   9.590   5.180   4.266  0.0836 -1.2134 -1.6007
   49MOL0     H 6417   9.399   5.157   4.431  0.5097  2.5225 -3.1114
   49MOL0     H 6418   9.366   5.102   4.270 -1.2561 -1.0271  0.5518
   49MOL0     H 6419   9.429   4.945   4.530  1.6651 -0.5283  0.4714
   49MOL0     H 6420   9.453   4.873   4.382  1.3952  1.3582  1.5232
   49MOL0     H 6421   9.255   4.825   4.228  1.9105  1.1818  0.0070
   49MOL0     H 6422   8.993   4.667   4.234  1.6516  0.8077 -1.1055
   49MOL0     H 6423   9.019   4.807   4.146  1.0995 -3.3398 -0.9055
   49MOL0     H 6424   8.771   4.819   4.191  0.2680  0.5570  0.2143
   49MOL0     H 6425   8.826   4.901   4.330  1.2635 -0.3417  0.3565
   49MOL0     H 6426   8.798   4.597   4.332  1.2303  0.8976 -3.0127
   49MOL0     H 6427   8.833   4.704   4.464 -0.6209  0.7338 -0.0009
   49MOL0     H 6428   8.590   4.820   4.376  3.2693 -0.1765 -1.8400
   49MOL0     H 6429   8.607   4.711   4.514  1.5043 -0.6814  0.4646
   49MOL0     H 6430   8.366   4.805   4.453  1.1745 -0.2915 -2.4785
   49MOL0     H 6431   8.137   4.774   4.506 -0.6380 -0.1459  0.9209
   49MOL0     H 6432   7.804   4.233   4.432 -0.6460 -0.5440  3.6339
   49MOL0     H 6433   7.553   4.183   4.377  3.4673 -1.3983  0.5658
   49MOL0     H 6434   7.309   4.261   4.479  2.6982  3.3958  0.5053
   49MOL0     H 6435   7.307   4.160   4.332  2.0110 -0.9325  4.0169
   49MOL0     H 6436   7.120   4.288   4.239  0.0873  0.5932  0.7734
   49MOL0     H 6437   7.103   4.390   4.382  1.3962  0.0808  2.5311
   49MOL0     H 6438   7.092   4.180   4.509  1.0823  0.6452 -0.5510
   49MOL0     H 6439   7.071   4.097   4.351  4.1415  1.2778 -0.9587
   49MOL0     H 6440   6.882   4.330   4.436 -1.0994 -0.4676 -1.4874
   49MOL0     H 6441   6.843   4.197   4.326  1.8028 -3.9471 -0.3857
   49MOL0     H 6442   6.926   4.147   4.622  2.3784 -2.6049 -1.1945
   49MOL0     H 6443   6.859   4.037   4.507 -0.1581 -0.2741  0.5655
   49MOL0     H 6444   6.649   4.146   4.498  2.4932 -0.5921 -2.3858
   49MOL0     H 6445   6.704   4.289   4.585  0.2747 -0.3692  0.6027
   49MOL0     H 6446   6.673   4.002   4.687  0.1438 -0.9437  2.8955
   49MOL0     H 6447   6.777   4.117   4.775  0.9804  1.9801 -1.7585
   49MOL0     H 6448   6.496   4.190   4.692 -0.3239  0.3138  0.4652
   49MOL0     H 6449   6.576   4.272   4.811 -0.5858 -0.2915 -0.3701
   49MOL0     H 6450   7.505   4.608   4.330  1.0731  1.2317  0.3258
   49MOL0     H 6451   7.712   4.646   4.397 -1.7288 -0.7363  2.3884
   49MOL0     H 6452   8.140   4.396   4.344 -1.9578  2.0734  2.6677
   49MOL0     H 6453   8.404   4.420   4.286 -2.4668 -1.6170 -1.6547
   49MOL0     H 6454  10.531   4.922   4.404  1.3776 -2.0533  0.9053
   49MOL0     H 6455  10.605   4.698   4.408  0.3890  0.6559  1.8810
   49MOL0     H 6456  10.817   4.340   4.364  1.5345 -2.3070 -2.6475
   49MOL0     H 6457  10.887   4.106   4.406 -1.0123 -2.1861 -0.9064
   49MOL0     H 6458  10.910   3.887   4.492  0.0029 -0.8088  0.6006
   49MOL0     H 6459  10.878   3.873   4.327 -2.3265  0.5880  0.0985
   49MOL0     H 6460  10.767   3.679   4.539 -1.0589 -0.1331 -0.8896
   49MOL0     H 6461  10.756   3.652   4.368  2.0372 -0.8453 -1.9535
   49MOL0     H 6462  10.935   3.521   4.441  0.6401  0.5925 -3.1558
   49MOL0     H 6463  11.013   3.660   4.532 -1.5728  0.2740  1.0068
   49MOL0     H 6464  10.966   3.641   4.224 -1.1089 -1.8218  0.5731
   49MOL0     H 6465  11.059   3.751   4.295 -0.0369 -0.4238  1.0804
   49MOL0     H 6466  11.322   3.416   4.290  0.2116 -0.0662  0.8280
   49MOL0     H 6467  10.478   3.986   4.424  0.5201 -0.0942 -1.2014
   49MOL0     H 6468  10.411   4.204   4.400  0.7514 -1.0776 -1.5523
   50MOL0     O 6469   1.923   6.466   7.488 -0.4306 -0.4488  0.1135
   50MOL0     C 6470   1.813   6.424   7.524 -0.2773  0.2928  0.9317
   50MOL0     O 6471   1.789   6.342   7.624 -0.7872 -0.2323 -0.3794
   50MOL0     C 6472   1.895   6.270   7.690  0.0334  0.3940  0.6217
   50MOL0     C 6473   1.870   6.239   7.826 -0.0655  0.0681 -0.1048
   50MOL0     C 6474   1.955   6.152   7.895  0.3638  0.7422 -0.4656
   50MOL0     C 6475   2.065   6.107   7.834 -0.4763  0.5407  1.0938
   50MOL0     O 6476   2.149   6.034   7.911  0.6931 -0.4101  0.2554
   50MOL0     C 6477   2.179   5.891   7.878  0.1868  0.9910 -0.1421
   50MOL0     C 6478   2.154   5.790   7.997  0.2138  0.0735  0.2597
   50MOL0     C 6479   2.209   5.652   7.948  0.4175  0.0875 -0.5198
   50MOL0     C 6480   2.192   5.566   8.070  0.0339  0.4193 -0.7990
   50MOL0     C 6481   2.234   5.426   8.026  0.7733  0.6648 -0.7971
   50MOL0     C 6482   2.166   5.309   8.105 -0.0499 -0.2702  0.2379
   50MOL0     C 6483   2.169   5.163   8.048  0.6317  0.3413  0.2979
   50MOL0     C 6484   2.123   5.051   8.149 -0.0401  0.7953 -0.5787
   50MOL0     N 6485   1.983   5.054   8.185 -0.6280  0.5866 -0.3222
   50MOL0     C 6486   1.894   4.977   8.111  0.0740 -0.5274 -0.3371
   50MOL0     C 6487   1.778   5.012   8.170  0.8431 -0.1973 -0.5144
   50MOL0     C 6488   1.647   4.960   8.128 -0.3019 -0.2651  0.5661
   50MOL0     C 6489   1.599   4.843   8.214 -0.0347  0.5816  0.4898
   50MOL0     C 6490   1.447   4.816   8.221 -0.0258 -0.7259 -0.3073
   50MOL0     C 6491   1.389   4.827   8.368 -0.3341  0.8919 -0.1573
   50MOL0     O 6492   1.408   4.938   8.447 -0.1587 -0.5476 -0.8931
   50MOL0     C 6493   1.380   5.047   8.381 -0.1160 -0.7522 -0.6318
   50MOL0     C 6494   1.258   5.062   8.306 -0.2695 -0.1149 -0.6184
   50MOL0     C 6495   1.229   5.188   8.249 -0.6162 -0.7648  0.2698
   50MOL0     C 6496   1.311   5.307   8.265 -0.0010  0.2505  0.7721
   50MOL0     C 6497   1.256   5.443   8.221 -0.7518 -0.1621  0.5754
   50MOL0     O 6498   1.343   5.541   8.223 -0.6845 -0.3159  0.0212
   50MOL0     C 6499   1.296   5.673   8.212  0.0238  0.2235  0.7362
   50MOL0     C 6500   1.326   5.756   8.100  0.4847  0.2673 -1.2642
   50MOL0     C 6501   1.250   5.870   8.084  0.5838  1.1331  0.1780
   50MOL0     C 6502   1.147   5.903   8.171 -0.2450 -0.1573 -0.0759
   50MOL0     O 6503   1.066   6.013   8.129  0.9684  1.0681  0.4784
   50MOL0     C 6504   0.972   6.070   8.228 -0.1836  0.5178  0.3547
   50MOL0     C 6505   0.943   6.213   8.175 -0.8232  0.3625 -0.0236
   50MOL0     C 6506   0.946   6.320   8.287  0.0406 -0.4659  1.0760
   50MOL0     C 6507   0.827   6.286   8.382 -0.3078 -0.3344 -0.3841
   50MOL0     C 6508   0.782   6.400   8.481 -0.4528  0.6203 -0.4781
   50MOL0     C 6509   0.890   6.415   8.588  0.1746  0.1659 -0.4826
   50MOL0     C 6510   0.850   6.512   8.700  0.4808  0.1460 -0.2118
   50MOL0     C 6511   0.949   6.528   8.817  0.3383  0.4268  0.3501
   50MOL0    Cl 6512   0.949   6.387   8.932  0.0662  0.2790 -0.0419
   50MOL0     C 6513   1.122   5.828   8.291 -0.1160 -0.5534  0.0674
   50MOL0     C 6514   1.202   5.717   8.310 -0.1063 -0.0053 -0.6068
   50MOL0     O 6515   1.139   5.453   8.198  0.2292  0.3870  0.3794
   50MOL0     C 6516   1.426   5.287   8.334 -0.1071 -0.5471 -0.5350
   50MOL0     C 6517   1.459   5.159   8.399 -0.0950 -0.6372 -0.9902
   50MOL0     N 6518   1.804   5.104   8.278  0.7899 -0.5221 -0.2503
   50MOL0     N 6519   1.921   5.141   8.280 -0.9090 -0.1474  0.8422
   50MOL0     C 6520   2.108   6.149   7.709 -0.3223 -0.1475  0.2520
   50MOL0     C 6521   2.022   6.228   7.636 -0.5008 -0.1438  0.5649
   50MOL0     C 6522   1.688   6.458   7.450  0.2009  0.4578 -0.6574
   50MOL0     C 6523   1.693   6.544   7.341 -0.2169 -0.5340  0.0790
   50MOL0     C 6524   1.571   6.577   7.283  0.5372  0.0357  0.5806
   50MOL0     C 6525   1.453   6.516   7.318  1.1690 -0.0951  0.3994
   50MOL0     O 6526   1.350   6.564   7.234 -0.3058  0.4597 -0.1510
   50MOL0     C 6527   1.215   6.523   7.257 -0.0435  0.7411 -0.4665
   50MOL0     C 6528   1.117   6.576   7.148 -0.0986 -0.5877  0.4860
   50MOL0     C 6529   1.114   6.729   7.157 -0.2763  0.2635  0.6123
   50MOL0     C 6530   1.044   6.790   7.035  0.4474  0.0563  0.0380
   50MOL0     C 6531   0.901   6.759   7.030 -0.5440 -0.1397  0.7350
   50MOL0     C 6532   0.783   6.744   7.018  0.2017  0.8784 -0.2449
   50MOL0     C 6533   1.451   6.414   7.412 -0.8122  0.7236 -0.1778
   50MOL0     C 6534   1.569   6.389   7.487  0.1868  0.7785  0.0269
   50MOL0     H 6535   1.780   6.287   7.863 -1.9685 -1.0888 -2.9518
   50MOL0     H 6536   1.941   6.132   8.001  4.6795 -1.2255 -0.0447
   50MOL0     H 6537   2.284   5.882   7.851  0.0954  0.5697 -0.3624
   50MOL0     H 6538   2.117   5.863   7.793  0.7310 -0.8518  0.0349
   50MOL0     H 6539   2.048   5.782   8.020  0.1225  1.9631  0.6904
   50MOL0     H 6540   2.202   5.815   8.092 -1.0070 -1.1699  1.2448
   50MOL0     H 6541   2.315   5.659   7.922  0.3878 -2.4448 -1.5852
   50MOL0     H 6542   2.154   5.618   7.860  1.5861  1.7221 -1.9462
   50MOL0     H 6543   2.254   5.603   8.153 -1.5763 -0.6514  0.9627
   50MOL0     H 6544   2.093   5.574   8.115  1.2729 -0.7366  2.4766
   50MOL0     H 6545   2.342   5.412   8.033  0.5098 -1.0913  0.2306
   50MOL0     H 6546   2.205   5.411   7.922  2.1675 -2.5006 -0.8308
   50MOL0     H 6547   2.061   5.335   8.125  0.3817  0.4805  1.6413
   50MOL0     H 6548   2.211   5.305   8.204 -0.3233  0.3833  0.3947
   50MOL0     H 6549   2.103   5.161   7.961  1.8534  1.3889 -0.6897
   50MOL0     H 6550   2.269   5.139   8.009 -0.1040 -1.9863 -0.3707
   50MOL0     H 6551   2.181   5.044   8.242 -1.2295 -5.2803  0.1161
   50MOL0     H 6552   2.145   4.958   8.095  0.2779  1.0510 -0.8899
   50MOL0     H 6553   1.911   4.911   8.026 -2.1680 -0.9433 -0.5346
   50MOL0     H 6554   1.628   4.945   8.021  0.8402 -1.4727  0.5042
   50MOL0     H 6555   1.579   5.039   8.159  0.4196  0.2532  0.8699
   50MOL0     H 6556   1.633   4.849   8.318 -1.8097  0.6705  1.1078
   50MOL0     H 6557   1.637   4.749   8.172 -0.0966 -0.8090  3.3065
   50MOL0     H 6558   1.397   4.890   8.158 -0.2306  0.7144  1.4467
   50MOL0     H 6559   1.409   4.722   8.180 -2.3772  0.2394 -0.5032
   50MOL0     H 6560   1.445   4.756   8.429 -0.2122  1.2946  0.2096
   50MOL0     H 6561   1.285   4.795   8.376  0.1631 -0.5614  0.8982
   50MOL0     H 6562   1.180   4.986   8.310  0.5687 -0.9316  2.5755
   50MOL0     H 6563   1.135   5.200   8.195 -0.3334  2.4985  0.3136
   50MOL0     H 6564   1.405   5.724   8.033  0.0484 -0.1779 -1.5694
   50MOL0     H 6565   1.249   5.937   7.998 -1.8935 -2.2798 -2.7859
   50MOL0     H 6566   1.021   6.066   8.326 -0.7314  0.9250  0.6449
   50MOL0     H 6567   0.879   6.012   8.226  1.0697 -1.6782  1.5301
   50MOL0     H 6568   0.848   6.218   8.120 -1.8957  2.0589  1.8741
   50MOL0     H 6569   1.021   6.230   8.100 -0.0915 -0.9734  0.3871
   50MOL0     H 6570   0.925   6.417   8.241 -0.3249 -1.8264 -1.8413
   50MOL0     H 6571   1.044   6.326   8.336  1.0600 -1.1329 -0.7625
   50MOL0     H 6572   0.754   6.274   8.301  0.9218  0.2039 -1.6168
   50MOL0     H 6573   0.835   6.191   8.436  0.5118 -0.9778 -1.6025
   50MOL0     H 6574   0.693   6.362   8.533 -0.0769  2.2344  1.4559
   50MOL0     H 6575   0.760   6.492   8.427  1.8591  2.2853  1.2627
   50MOL0     H 6576   0.985   6.445   8.542  1.3339 -0.4395  1.4134
   50MOL0     H 6577   0.901   6.314   8.628 -1.3059 -0.6920 -2.0918
   50MOL0     H 6578   0.844   6.610   8.652 -0.5896  0.8060  1.2242
   50MOL0     H 6579   0.762   6.468   8.746  3.5084 -1.8304  4.4416
   50MOL0     H 6580   0.930   6.622   8.870  0.3034  0.1697  0.7954
   50MOL0     H 6581   1.043   6.515   8.763 -0.3153 -0.6495 -0.5697
   50MOL0     H 6582   1.040   5.855   8.357 -1.1982  3.6359 -2.6274
   50MOL0     H 6583   1.192   5.654   8.398  1.7585 -0.5359 -0.7245
   50MOL0     H 6584   1.498   5.368   8.341 -1.9889  1.2068 -0.8027
   50MOL0     H 6585   1.544   5.150   8.465 -0.3894  2.8456  0.0564
   50MOL0     H 6586   2.200   6.120   7.660 -0.6797  1.4858 -1.5136
   50MOL0     H 6587   2.054   6.261   7.538 -1.1432  1.3400  0.8150
   50MOL0     H 6588   1.786   6.573   7.294 -0.1190 -0.5235  0.2774
   50MOL0     H 6589   1.578   6.645   7.199 -1.2896 -0.6195 -0.1542
   50MOL0     H 6590   1.187   6.566   7.354 -4.0474  2.0685 -2.0194
   50MOL0     H 6591   1.202   6.414   7.257 -2.7587  1.0148 -1.5956
   50MOL0     H 6592   1.144   6.539   7.048  1.3113 -0.8102  0.9273
   50MOL0     H 6593   1.014   6.547   7.167 -0.5717  0.2458 -0.6988
   50MOL0     H 6594   1.212   6.776   7.168 -1.0821  2.7420 -1.6005
   50MOL0     H 6595   1.056   6.747   7.248  1.4072 -0.7626  1.9473
   50MOL0     H 6596   1.069   6.896   7.027  0.5485  0.0949  0.8373
   50MOL0     H 6597   1.085   6.739   6.947 -0.2522 -2.6593  1.1747
   50MOL0     H 6598   0.679   6.724   7.002 -0.6819  3.4676  1.5840
   50MOL0     H 6599   1.361   6.355   7.428 -0.4607 -0.0344 -0.9527
   50MOL0     H 6600   1.560   6.302   7.552 -1.2331  1.6173  1.0165
   51MOL0     O 6601  10.320   9.879   0.634  0.1469  0.4908  0.6827
   51MOL0     C 6602  10.331   9.883   0.509 -0.7926  0.1143  0.9423
   51MOL0     O 6603  10.299   9.777   0.429 -0.6332  0.1152 -0.2063
   51MOL0     C 6604  10.320   9.654   0.477 -0.7141  0.6441  0.1405
   51MOL0     C 6605  10.447   9.604   0.510  0.0655  1.0975 -0.5625
   51MOL0     C 6606  10.460   9.481   0.577  0.6516  0.5270  0.0350
   51MOL0     C 6607  10.341   9.398   0.586  0.9109  0.5603 -0.0633
   51MOL0     O 6608  10.353   9.269   0.632 -0.6193 -0.4364 -0.3735
   51MOL0     C 6609  10.238   9.201   0.697  0.7495 -0.0999 -0.0202
   51MOL0     C 6610  10.271   9.137   0.820 -1.2509 -0.1384  1.0268
   51MOL0     C 6611  10.157   9.093   0.910 -0.5075  0.0726  0.1490
   51MOL0     C 6612  10.196   9.043   1.046 -0.0514 -0.1846  0.2802
   51MOL0     C 6613  10.072   8.964   1.099  0.6133 -0.3973 -0.9173
   51MOL0     C 6614   9.948   9.049   1.091 -0.4810 -0.2429 -0.1153
   51MOL0     C 6615   9.839   8.981   1.183  0.5557  1.0376 -0.1897
   51MOL0     C 6616   9.708   9.056   1.202  0.5761 -0.6364  0.0442
   51MOL0     N 6617   9.730   9.191   1.266 -0.6170  0.1275  0.4843
   51MOL0     C 6618   9.838   9.226   1.351  0.0855  0.5319  0.6006
   51MOL0     C 6619   9.795   9.338   1.410 -0.4285 -0.3967 -0.4937
   51MOL0     C 6620   9.858   9.411   1.527 -1.1069 -0.6113 -0.0627
   51MOL0     C 6621   9.921   9.542   1.489  0.0582 -0.5607  0.7597
   51MOL0     C 6622  10.037   9.540   1.385  0.0655  0.1275 -0.4518
   51MOL0     C 6623  10.136   9.659   1.392 -0.7460  0.7838 -0.3982
   51MOL0     O 6624  10.204   9.648   1.521 -0.2328  0.2891  0.0987
   51MOL0     C 6625  10.270   9.761   1.566 -0.2210 -0.8642 -0.2130
   51MOL0     C 6626  10.286   9.763   1.702 -0.4922 -0.1381 -0.3371
   51MOL0     C 6627  10.365   9.866   1.759 -0.4808  0.8286 -0.3539
   51MOL0     C 6628  10.415   9.974   1.688 -0.3125 -0.1923 -0.2771
   51MOL0     C 6629  10.502  10.076   1.750 -0.5934 -0.0731  0.3441
   51MOL0     O 6630  10.511  10.181   1.675  0.4918  0.1874 -0.3475
   51MOL0     C 6631  10.588  10.289   1.703  0.2857 -0.2996 -0.4985
   51MOL0     C 6632  10.732  10.276   1.704 -0.0399  0.5361 -0.2046
   51MOL0     C 6633  10.809  10.388   1.723 -0.1836 -0.2100 -0.7126
   51MOL0     C 6634  10.755  10.514   1.744 -1.2263  0.8516 -0.2086
   51MOL0     O 6635  10.839  10.628   1.742 -0.4954 -0.7114  1.2112
   51MOL0     C 6636  10.960  10.620   1.822  0.4800 -0.7383  0.4139
   51MOL0     C 6637  11.032  10.755   1.824 -0.0329 -0.6134  0.1618
   51MOL0     C 6638  11.178  10.749   1.834  0.2118 -0.9573 -0.8992
   51MOL0     C 6639  11.220  10.686   1.962  0.1112 -0.7445 -0.2994
   51MOL0     C 6640  11.372  10.704   1.991  0.1611  0.0703  0.3056
   51MOL0     C 6641  11.423  10.597   2.073  0.5526  0.1731  0.5243
   51MOL0     C 6642  11.485  10.497   1.979  0.4629 -0.9824 -0.0400
   51MOL0     C 6643  11.526  10.371   2.035  0.5302  0.4372 -0.2356
   51MOL0    Cl 6644  11.670  10.392   2.148  0.1583 -0.0565 -0.7349
   51MOL0     C 6645  10.613  10.526   1.722 -0.3361  0.5829 -0.3612
   51MOL0     C 6646  10.531  10.415   1.707  0.5508 -0.3934 -0.5087
   51MOL0     O 6647  10.545  10.073   1.867  0.3217  0.1039  0.2921
   51MOL0     C 6648  10.387   9.977   1.546 -0.3619 -0.0206  0.1806
   51MOL0     C 6649  10.319   9.867   1.496 -0.2339 -0.5729 -0.4378
   51MOL0     N 6650   9.677   9.380   1.354  0.2723  0.2258 -0.2943
   51MOL0     N 6651   9.646   9.293   1.264  0.3106  0.0168  0.9422
   51MOL0     C 6652  10.220   9.449   0.540  1.3941 -0.4589  1.7492
   51MOL0     C 6653  10.211   9.577   0.487  0.4504 -0.3472  0.7693
   51MOL0     C 6654  10.392  10.005   0.440  0.0195 -0.8143 -0.4962
   51MOL0     C 6655  10.470  10.105   0.503  1.0698  0.1546 -0.0145
   51MOL0     C 6656  10.540  10.202   0.430  0.9260  1.9561 -0.2709
   51MOL0     C 6657  10.496  10.223   0.295 -0.7575 -0.8076  0.1247
   51MOL0     O 6658  10.504  10.338   0.212  0.0300  0.4585  0.5268
   51MOL0     C 6659  10.521  10.465   0.275  0.5075  0.3363  0.2317
   51MOL0     C 6660  10.378  10.508   0.320 -0.5485  0.7236 -0.3041
   51MOL0     C 6661  10.379  10.647   0.380 -0.0532 -0.2806 -0.1880
   51MOL0     C 6662  10.334  10.653   0.523 -0.7893 -0.5398  0.0230
   51MOL0     C 6663  10.450  10.602   0.606 -0.7371  0.0396 -0.2797
   51MOL0     C 6664  10.548  10.558   0.667  1.0128 -0.7594 -0.3019
   51MOL0     C 6665  10.413  10.128   0.235  0.0837  0.1980 -0.0007
   51MOL0     C 6666  10.359  10.022   0.310 -0.1569  0.3106 -0.3972
   51MOL0     H 6667  10.527   9.677   0.502  0.2886  1.3368  2.6151
   51MOL0     H 6668  10.552   9.426   0.596  1.4421  1.5317 -0.7855
   51MOL0     H 6669  10.198   9.125   0.629 -1.3116  2.6365 -2.1163
   51MOL0     H 6670  10.163   9.273   0.732  3.9626  2.9386  1.1203
   51MOL0     H 6671  10.337   9.203   0.877  0.1652  2.4164 -3.0614
   51MOL0     H 6672  10.317   9.041   0.794 -2.3512 -0.5958  0.7081
   51MOL0     H 6673  10.111   9.011   0.855  1.1054  0.6432 -2.1979
   51MOL0     H 6674  10.091   9.180   0.915 -0.7200 -0.1366  1.4158
   51MOL0     H 6675  10.279   8.971   1.046  1.4004  1.3930  1.9564
   51MOL0     H 6676  10.224   9.119   1.119  0.7351 -3.1319  3.3159
   51MOL0     H 6677  10.095   8.945   1.205  0.3252  3.4233 -0.0175
   51MOL0     H 6678  10.063   8.865   1.055  1.9807 -1.8000  1.7061
   51MOL0     H 6679   9.909   9.054   0.989 -0.3566  0.0030 -0.1507
   51MOL0     H 6680   9.973   9.145   1.136 -0.9720  0.4309 -1.2561
   51MOL0     H 6681   9.817   8.890   1.125 -1.5123 -0.8145  3.2006
   51MOL0     H 6682   9.888   8.944   1.273  2.3209 -1.0064 -1.8712
   51MOL0     H 6683   9.627   8.998   1.246  1.4603 -2.2405 -0.3597
   51MOL0     H 6684   9.666   9.073   1.102 -1.6822 -2.1656  0.6645
   51MOL0     H 6685   9.930   9.168   1.361  0.7359  0.9453 -1.9964
   51MOL0     H 6686   9.937   9.353   1.576  0.0217  1.5455  0.8181
   51MOL0     H 6687   9.787   9.422   1.609  0.8143  0.8409  1.5101
   51MOL0     H 6688   9.953   9.594   1.580 -0.3332  2.4976 -0.7156
   51MOL0     H 6689   9.847   9.619   1.466 -0.1876  0.2064  3.6657
   51MOL0     H 6690  10.114   9.470   1.417  1.9479  3.1263  2.2493
   51MOL0     H 6691  10.008   9.522   1.281  0.1149  0.1586 -0.4721
   51MOL0     H 6692  10.081   9.754   1.392 -0.0010  1.2996  1.8362
   51MOL0     H 6693  10.209   9.636   1.314  1.0125 -1.9638  1.8600
   51MOL0     H 6694  10.238   9.697   1.775 -0.2518  0.7046  0.5962
   51MOL0     H 6695  10.373   9.857   1.866  0.2924 -1.4308 -0.5445
   51MOL0     H 6696  10.773  10.177   1.691 -2.0122 -0.2720 -0.6973
   51MOL0     H 6697  10.916  10.375   1.716 -0.2038 -1.2556  0.5228
   51MOL0     H 6698  11.033  10.551   1.778  1.2468 -0.1324  0.6971
   51MOL0     H 6699  10.941  10.570   1.918 -1.7848 -0.8008 -0.0238
   51MOL0     H 6700  10.994  10.807   1.912 -1.3945 -0.0545 -0.7321
   51MOL0     H 6701  11.006  10.810   1.734  1.0278 -0.3986 -0.0309
   51MOL0     H 6702  11.198  10.857   1.831  0.3359 -0.9979 -2.2278
   51MOL0     H 6703  11.232  10.712   1.747  1.1632  2.9912 -2.2164
   51MOL0     H 6704  11.167  10.724   2.050 -0.8679 -0.9770 -0.7754
   51MOL0     H 6705  11.196  10.580   1.968  0.0229 -0.6324  1.8064
   51MOL0     H 6706  11.373  10.796   2.050  1.3220  0.1932  0.1024
   51MOL0     H 6707  11.432  10.712   1.900 -0.6030 -0.0953 -0.2215
   51MOL0     H 6708  11.340  10.560   2.133 -1.0215  1.9489 -0.4423
   51MOL0     H 6709  11.504  10.635   2.136  0.4605  0.1745  0.6412
   51MOL0     H 6710  11.406  10.476   1.907 -0.9607  1.0946  0.8194
   51MOL0     H 6711  11.567  10.543   1.923 -0.1465 -0.0918 -0.2231
   51MOL0     H 6712  11.540  10.317   1.940  0.0712  1.8940 -1.1688
   51MOL0     H 6713  11.445  10.312   2.080  0.5537  1.2656  0.9310
   51MOL0     H 6714  10.563  10.622   1.720 -0.7467  0.3695 -2.5984
   51MOL0     H 6715  10.424  10.431   1.694  0.3092  0.2278  1.8892
   51MOL0     H 6716  10.402  10.055   1.472 -1.2366 -1.4828 -1.6313
   51MOL0     H 6717  10.290   9.866   1.392 -3.8878  0.9739  0.4088
   51MOL0     H 6718  10.125   9.397   0.543  0.9957 -0.2363 -2.0524
   51MOL0     H 6719  10.116   9.621   0.456 -1.1831 -3.2837  1.2507
   51MOL0     H 6720  10.458  10.108   0.611  1.3778 -4.4206  0.3270
   51MOL0     H 6721  10.578  10.276   0.499  1.0914  3.0938 -1.5278
   51MOL0     H 6722  10.552  10.538   0.199  1.2429 -1.9958 -1.8405
   51MOL0     H 6723  10.597  10.470   0.353  0.9781  0.7312 -0.2427
   51MOL0     H 6724  10.309  10.501   0.236 -2.8808  0.1262  1.5498
   51MOL0     H 6725  10.361  10.428   0.393  0.1843  0.6066 -0.2537
   51MOL0     H 6726  10.311  10.707   0.318  0.0163  0.5679  0.5328
   51MOL0     H 6727  10.478  10.694   0.376 -0.1133 -0.0516  0.7921
   51MOL0     H 6728  10.298  10.750   0.557 -1.5812 -0.1079 -1.9289
   51MOL0     H 6729  10.248  10.591   0.549 -2.3062  1.5930  0.3717
   51MOL0     H 6730  10.637  10.510   0.702  0.8410 -1.0707 -0.2862
   51MOL0     H 6731  10.374  10.147   0.136  1.8304  0.9704 -0.5958
   51MOL0     H 6732  10.288   9.960   0.257  0.4203  2.0400 -3.3827
   52MOL0     O 6733   2.693   8.856   9.543 -0.2031 -0.2553 -0.7047
   52MOL0     C 6734   2.611   8.812   9.625  0.5569 -0.2419  0.1121
   52MOL0     O 6735   2.647   8.745   9.736  0.0471 -0.0358  0.1940
   52MOL0     C 6736   2.781   8.732   9.766  1.1591 -0.7411  1.1034
   52MOL0     C 6737   2.853   8.848   9.784 -0.4273 -0.1169  0.3663
   52MOL0     C 6738   2.994   8.837   9.813  0.0857 -0.8608  0.3263
   52MOL0     C 6739   3.061   8.714   9.818  0.4893 -0.5733 -0.7346
   52MOL0     O 6740   3.189   8.709   9.863 -0.1434  0.1127  0.5607
   52MOL0     C 6741   3.247   8.576   9.893  0.4458  0.0738 -0.2736
   52MOL0     C 6742   3.384   8.609   9.965  0.5812  0.2329  0.2607
   52MOL0     C 6743   3.431   8.496  10.057  1.0224  0.5945 -0.9760
   52MOL0     C 6744   3.495   8.397   9.967 -0.5630 -0.0204 -0.1234
   52MOL0     C 6745   3.555   8.281  10.042  0.1891 -0.2959 -0.0972
   52MOL0     C 6746   3.694   8.316  10.085 -0.7275 -0.9272 -0.7042
   52MOL0     C 6747   3.758   8.224  10.191  0.3386  0.4235 -0.8441
   52MOL0     C 6748   3.783   8.095  10.123 -0.9012  0.3198  0.2338
   52MOL0     N 6749   3.845   7.996  10.218 -0.5942 -0.4003 -0.5840
   52MOL0     C 6750   3.800   7.922  10.323  0.7671 -0.0175  0.0813
   52MOL0     C 6751   3.905   7.854  10.371 -0.0847  0.6805  0.3252
   52MOL0     C 6752   3.900   7.750  10.476  0.9545 -0.3330 -0.1106
   52MOL0     C 6753   3.855   7.606  10.422  0.6825 -0.5106 -0.2054
   52MOL0     C 6754   3.977   7.512  10.424 -0.5853  0.7341  0.0674
   52MOL0     C 6755   4.002   7.458  10.576 -0.0396  0.0728 -0.2804
   52MOL0     O 6756   3.892   7.377  10.629 -0.9111 -0.0855  0.2868
   52MOL0     C 6757   3.864   7.252  10.587  0.6636  1.0378  0.4988
   52MOL0     C 6758   3.770   7.195  10.666 -0.7609 -0.5784  0.4142
   52MOL0     C 6759   3.710   7.072  10.636 -0.0147  0.3180 -0.1672
   52MOL0     C 6760   3.766   6.995  10.525  0.0482 -0.6418 -0.0000
   52MOL0     C 6761   3.715   6.862  10.490 -0.1827 -0.6455  0.1666
   52MOL0     O 6762   3.790   6.789  10.406 -0.1684 -0.3948  0.5516
   52MOL0     C 6763   3.728   6.672  10.378 -0.0332  0.2147 -0.7578
   52MOL0     C 6764   3.782   6.554  10.415 -0.4011  1.4977 -0.9685
   52MOL0     C 6765   3.725   6.430  10.373 -0.6442 -0.6569 -0.5499
   52MOL0     C 6766   3.600   6.423  10.301 -0.1440 -0.5427 -0.4798
   52MOL0     O 6767   3.536   6.304  10.264 -1.5089 -0.7755 -0.3029
   52MOL0     C 6768   3.596   6.191  10.317  0.7777  0.4082  0.0043
   52MOL0     C 6769   3.510   6.056  10.279  0.6916 -0.5086  0.2412
   52MOL0     C 6770   3.386   6.022  10.367 -0.0607 -0.0459  0.6511
   52MOL0     C 6771   3.309   5.898  10.308  0.4706  0.0059  0.4882
   52MOL0     C 6772   3.225   5.944  10.189 -0.1659 -0.4296  0.1109
   52MOL0     C 6773   3.119   5.833  10.161  0.3005 -0.1346  0.3721
   52MOL0     C 6774   3.049   5.862  10.028  1.1573 -0.6301  0.5930
   52MOL0     C 6775   2.916   5.796  10.004  1.3100  0.4151 -0.7505
   52MOL0    Cl 6776   2.785   5.852  10.110  0.1113 -0.1517  0.5312
   52MOL0     C 6777   3.552   6.547  10.247  0.3234  0.5472  0.3301
   52MOL0     C 6778   3.613   6.666  10.297 -0.4783  0.7219  0.6272
   52MOL0     O 6779   3.604   6.834  10.531 -0.2411 -0.2633 -0.3836
   52MOL0     C 6780   3.874   7.052  10.454  0.0256  0.1228  0.2750
   52MOL0     C 6781   3.921   7.176  10.484 -0.0169 -0.2499 -0.2747
   52MOL0     N 6782   4.019   7.906  10.313 -0.7440 -0.2298  0.0908
   52MOL0     N 6783   3.981   7.991  10.218  0.4114 -0.5400  0.6046
   52MOL0     C 6784   2.978   8.597   9.792 -0.0953 -0.1039  0.6252
   52MOL0     C 6785   2.834   8.607   9.774 -0.5275 -0.3529 -0.6455
   52MOL0     C 6786   2.471   8.810   9.577 -0.1330  0.5354 -0.2878
   52MOL0     C 6787   2.375   8.757   9.666 -0.3574  0.2048 -0.6719
   52MOL0     C 6788   2.242   8.747   9.627 -0.3017 -0.0809  0.6995
   52MOL0     C 6789   2.205   8.796   9.501 -0.7759  0.0788 -0.5976
   52MOL0     O 6790   2.076   8.790   9.484  0.4990 -0.5699 -0.5194
   52MOL0     C 6791   2.032   8.821   9.350  0.2902  0.7723 -0.6031
   52MOL0     C 6792   1.885   8.792   9.320 -0.7925  0.3707  0.2636
   52MOL0     C 6793   1.845   8.646   9.343 -0.6134  0.5077  1.0075
   52MOL0     C 6794   1.808   8.625   9.490 -0.0639  0.0818 -0.6446
   52MOL0     C 6795   1.677   8.680   9.522 -0.3748 -0.0547 -0.3495
   52MOL0     C 6796   1.570   8.718   9.571  0.1186  0.3085  0.4057
   52MOL0     C 6797   2.299   8.853   9.415  0.4835 -1.1073  1.1052
   52MOL0     C 6798   2.435   8.861   9.452 -0.6164 -0.4077  0.3449
   52MOL0     H 6799   2.799   8.942   9.776 -0.9538  0.0477  4.0572
   52MOL0     H 6800   3.038   8.934   9.835 -1.0619 -0.6686  1.9953
   52MOL0     H 6801   3.260   8.512   9.805  1.3444 -0.4848  0.2478
   52MOL0     H 6802   3.181   8.514   9.954  0.6132 -0.4241 -0.5878
   52MOL0     H 6803   3.375   8.696  10.031 -0.2528 -0.1820  0.7161
   52MOL0     H 6804   3.456   8.622   9.884  1.4105 -0.7564  0.8090
   52MOL0     H 6805   3.355   8.464  10.129  1.1203  0.5178 -0.9055
   52MOL0     H 6806   3.512   8.548  10.110 -0.2214  1.6956 -0.1070
   52MOL0     H 6807   3.423   8.353   9.897  0.1685  0.6647 -1.3500
   52MOL0     H 6808   3.560   8.449   9.896  1.1567  0.3839  1.6676
   52MOL0     H 6809   3.558   8.188   9.984  0.3639  1.3568 -2.8951
   52MOL0     H 6810   3.489   8.260  10.126 -2.0154  1.8870 -1.1478
   52MOL0     H 6811   3.692   8.416  10.130 -0.2771 -0.2422 -2.1330
   52MOL0     H 6812   3.756   8.321   9.995  2.4137  0.0094  1.3247
   52MOL0     H 6813   3.837   8.275  10.247 -2.9810  4.7312  0.5347
   52MOL0     H 6814   3.688   8.195  10.270  1.1851  0.0724 -0.2066
   52MOL0     H 6815   3.858   8.105  10.045  0.1247 -1.0218  1.0116
   52MOL0     H 6816   3.691   8.052  10.082  0.7165 -2.7161 -0.5226
   52MOL0     H 6817   3.700   7.923  10.365 -0.3123  0.5571 -2.3610
   52MOL0     H 6818   3.838   7.802  10.549  2.0405 -1.2544  1.5395
   52MOL0     H 6819   3.999   7.740  10.522  0.2616 -0.6024  1.3486
   52MOL0     H 6820   3.797   7.615  10.329 -0.7201 -0.1180  0.6687
   52MOL0     H 6821   3.786   7.560  10.493  2.0353 -0.5651  1.1154
   52MOL0     H 6822   3.942   7.427  10.364 -1.0692  1.9231 -1.4168
   52MOL0     H 6823   4.058   7.547  10.358 -2.2126 -1.8663 -3.7087
   52MOL0     H 6824   4.017   7.542  10.645  2.6933 -0.8862  0.4441
   52MOL0     H 6825   4.092   7.395  10.571  1.0767  1.6641 -2.1271
   52MOL0     H 6826   3.724   7.259  10.741 -1.0015  1.0659 -1.0688
   52MOL0     H 6827   3.620   7.031  10.680 -1.1039  2.5008 -0.2504
   52MOL0     H 6828   3.871   6.559  10.476  1.0131  2.3486 -2.9988
   52MOL0     H 6829   3.783   6.341  10.394  1.6098  0.6590 -0.8746
   52MOL0     H 6830   3.615   6.191  10.424 -0.5767 -2.1578  0.3060
   52MOL0     H 6831   3.689   6.162  10.265  3.9075  1.5795  4.3953
   52MOL0     H 6832   3.585   5.977  10.291  1.9077  0.9587  3.7527
   52MOL0     H 6833   3.478   6.064  10.175 -2.8572 -3.8074  0.8244
   52MOL0     H 6834   3.328   6.115  10.358  0.2762  0.1320  0.2835
   52MOL0     H 6835   3.411   6.012  10.473  1.1532  4.3743  0.9715
   52MOL0     H 6836   3.382   5.822  10.280  0.8223  0.7044 -0.5291
   52MOL0     H 6837   3.258   5.858  10.396 -1.0390  1.3000  0.2500
   52MOL0     H 6838   3.300   5.960  10.112  1.2350  1.4119  1.7636
   52MOL0     H 6839   3.172   6.037  10.209  1.5055  0.3800  0.9255
   52MOL0     H 6840   3.042   5.827  10.239 -3.0774 -0.8457 -2.7486
   52MOL0     H 6841   3.183   5.745  10.154  0.9658  0.4802 -2.6858
   52MOL0     H 6842   3.032   5.970  10.030  2.8371 -0.3267 -0.0013
   52MOL0     H 6843   3.122   5.836   9.951 -0.7881 -1.4163 -1.0786
   52MOL0     H 6844   2.924   5.687   9.995 -3.1266 -0.2399  0.5889
   52MOL0     H 6845   2.886   5.828   9.904 -0.0852  0.7346 -0.2522
   52MOL0     H 6846   3.469   6.558  10.178  1.1892  1.6171 -0.6001
   52MOL0     H 6847   3.579   6.753  10.242 -1.7063 -0.8773 -1.2949
   52MOL0     H 6848   3.914   7.007  10.363 -0.9008  2.9078 -1.6595
   52MOL0     H 6849   3.996   7.226  10.423 -1.3253  0.2462 -1.5241
   52MOL0     H 6850   3.032   8.503   9.783  0.5956  0.0967  2.2715
   52MOL0     H 6851   2.774   8.519   9.756 -0.7276 -0.3164 -0.1484
   52MOL0     H 6852   2.389   8.726   9.769  1.3898  1.4860 -0.4840
   52MOL0     H 6853   2.179   8.699   9.702  3.1532 -4.5864  1.1510
   52MOL0     H 6854   2.085   8.756   9.280 -0.0286 -0.8865  0.6534
   52MOL0     H 6855   2.046   8.927   9.323  2.7729  1.3926  2.4918
   52MOL0     H 6856   1.822   8.862   9.377  0.1183  0.5207  1.1072
   52MOL0     H 6857   1.878   8.808   9.212  2.5956  2.7897  0.2543
   52MOL0     H 6858   1.912   8.569   9.305 -1.4714 -1.8817  3.9120
   52MOL0     H 6859   1.754   8.620   9.288 -0.1243  1.5350 -0.3138
   52MOL0     H 6860   1.813   8.517   9.506  1.6458  0.0478 -1.1971
   52MOL0     H 6861   1.879   8.676   9.555 -1.5527  1.2759  0.0829
   52MOL0     H 6862   1.487   8.735   9.636  0.5237 -0.1046  1.0415
   52MOL0     H 6863   2.272   8.899   9.320  2.8710 -1.3900  0.2080
   52MOL0     H 6864   2.505   8.906   9.382 -0.9691 -1.6144 -0.8218
   53MOL0     O 6865   8.881   6.502   6.286  0.4793 -0.3786 -0.8227
   53MOL0     C 6866   8.892   6.579   6.380 -0.0347  0.7567 -0.4233
   53MOL0     O 6867   8.808   6.683   6.399 -0.3263  0.6228  0.1125
   53MOL0     C 6868   8.695   6.707   6.322  0.1765  0.3345  0.4155
   53MOL0     C 6869   8.688   6.732   6.182  0.3036 -1.0098  0.6391
   53MOL0     C 6870   8.561   6.752   6.122  0.3615 -0.0424 -0.1809
   53MOL0     C 6871   8.438   6.733   6.183 -0.1125 -0.7849 -1.8011
   53MOL0     O 6872   8.318   6.734   6.127  0.3238 -0.5580 -0.4912
   53MOL0     C 6873   8.300   6.657   6.011 -0.8248  0.8564  0.0933
   53MOL0     C 6874   8.157   6.678   5.956 -0.3592 -0.2105 -0.4164
   53MOL0     C 6875   8.044   6.600   6.021 -0.1925  0.8674  0.1130
   53MOL0     C 6876   8.064   6.446   6.005 -0.8334 -0.6170  0.3881
   53MOL0     C 6877   7.942   6.352   5.988  0.4557  1.1492  0.0836
   53MOL0     C 6878   7.837   6.367   6.105 -0.3222 -0.2015 -0.2671
   53MOL0     C 6879   7.720   6.270   6.096 -0.0126  0.5112 -0.2714
   53MOL0     C 6880   7.599   6.299   5.993 -0.7130 -0.3024  0.1895
   53MOL0     N 6881   7.569   6.444   5.980  0.1908  0.8299  0.0587
   53MOL0     C 6882   7.483   6.518   6.056  0.1792  0.1585 -0.0200
   53MOL0     C 6883   7.487   6.641   5.998 -0.6394 -0.5046 -0.0966
   53MOL0     C 6884   7.392   6.758   6.043  0.1541 -0.7135  0.2135
   53MOL0     C 6885   7.248   6.742   5.991 -0.7742  0.1869  0.5062
   53MOL0     C 6886   7.253   6.689   5.851  0.4607 -0.7338  0.5727
   53MOL0     C 6887   7.116   6.711   5.785 -0.5092  0.0967 -0.5328
   53MOL0     O 6888   7.080   6.633   5.674 -0.7407  0.4776 -0.0849
   53MOL0     C 6889   6.959   6.646   5.614 -0.7104 -0.9916  0.9226
   53MOL0     C 6890   6.862   6.757   5.626  0.2085  0.3282 -0.9443
   53MOL0     C 6891   6.733   6.766   5.567 -1.2642 -0.6221  0.6085
   53MOL0     C 6892   6.706   6.662   5.484  0.1008  0.2155  0.2483
   53MOL0     C 6893   6.566   6.675   5.429 -0.6498  0.2970  1.2032
   53MOL0     O 6894   6.507   6.554   5.390  0.2487 -0.2704 -0.4046
   53MOL0     C 6895   6.389   6.557   5.330  0.8225  0.2724  0.3406
   53MOL0     C 6896   6.275   6.643   5.356 -0.2912  0.1288  0.1923
   53MOL0     C 6897   6.155   6.638   5.281 -0.1443 -0.2261  0.0782
   53MOL0     C 6898   6.149   6.543   5.179 -0.2363  0.5335  0.7571
   53MOL0     O 6899   6.023   6.528   5.116  0.0902  0.3286 -0.1057
   53MOL0     C 6900   5.998   6.405   5.041  0.5254 -1.0197 -0.4590
   53MOL0     C 6901   5.847   6.419   5.011 -0.0078 -0.4377 -0.4107
   53MOL0     C 6902   5.790   6.290   4.940  0.0029  0.3602 -1.0160
   53MOL0     C 6903   5.639   6.276   4.939 -0.6942 -0.1188 -0.4494
   53MOL0     C 6904   5.593   6.142   4.880  0.1503  0.0055  0.2569
   53MOL0     C 6905   5.489   6.165   4.771  0.1082 -0.2222  0.4551
   53MOL0     C 6906   5.449   6.032   4.713 -0.3285 -0.4904 -0.2563
   53MOL0     C 6907   5.355   5.957   4.798  0.4478  0.0621  0.2767
   53MOL0    Cl 6908   5.237   5.862   4.708  0.1016 -0.2984  0.3640
   53MOL0     C 6909   6.263   6.469   5.145 -0.4145 -0.1726  0.4475
   53MOL0     C 6910   6.380   6.478   5.219 -0.3184 -0.8678 -0.9851
   53MOL0     O 6911   6.514   6.786   5.407 -0.5087 -0.1271  0.0689
   53MOL0     C 6912   6.799   6.558   5.465 -0.8074 -0.1896  0.5144
   53MOL0     C 6913   6.917   6.542   5.529 -0.2677 -0.4071  1.1044
   53MOL0     N 6914   7.571   6.642   5.892  0.7697  0.5324  0.0453
   53MOL0     N 6915   7.625   6.522   5.879  0.9775  0.4666 -1.5614
   53MOL0     C 6916   8.448   6.708   6.325 -0.3486  0.3426  0.1518
   53MOL0     C 6917   8.576   6.704   6.397  0.9117 -0.0627 -0.6631
   53MOL0     C 6918   8.984   6.551   6.495  0.3069  0.3547  0.2133
   53MOL0     C 6919   8.952   6.603   6.627  0.1931 -0.2154 -1.0341
   53MOL0     C 6920   9.045   6.570   6.736 -1.0219 -0.2834  0.1413
   53MOL0     C 6921   9.148   6.484   6.714 -0.9987  0.4962  0.2365
   53MOL0     O 6922   9.215   6.453   6.830 -0.2604  0.0468 -0.1704
   53MOL0     C 6923   9.340   6.381   6.818 -0.5611 -0.7633 -1.0925
   53MOL0     C 6924   9.417   6.396   6.949  0.5722  0.2483  0.1790
   53MOL0     C 6925   9.346   6.308   7.061  0.3414 -0.5201 -0.1973
   53MOL0     C 6926   9.425   6.301   7.193  0.5203 -1.0257 -0.1625
   53MOL0     C 6927   9.442   6.436   7.258  0.2907  0.1998  0.6188
   53MOL0     C 6928   9.437   6.544   7.318 -0.7634 -0.0324  0.8001
   53MOL0     C 6929   9.175   6.431   6.586  0.1399 -0.0160 -0.3985
   53MOL0     C 6930   9.084   6.462   6.482  0.1423  0.1201 -1.2615
   53MOL0     H 6931   8.779   6.737   6.123 -1.7537 -1.2929 -2.8341
   53MOL0     H 6932   8.573   6.769   6.015  1.0295 -1.4395 -0.3368
   53MOL0     H 6933   8.331   6.554   6.033  0.0047  0.9168 -0.7383
   53MOL0     H 6934   8.368   6.700   5.937  0.4610  1.9566  1.8530
   53MOL0     H 6935   8.163   6.656   5.849  1.0861 -0.4972 -0.2941
   53MOL0     H 6936   8.130   6.781   5.979 -1.3361 -0.4488 -0.4274
   53MOL0     H 6937   7.945   6.632   5.990 -0.7234  1.9757  2.7017
   53MOL0     H 6938   8.060   6.624   6.127  1.1368 -0.0463  0.1465
   53MOL0     H 6939   8.127   6.443   5.915  0.3328 -1.4425  1.2031
   53MOL0     H 6940   8.132   6.410   6.083  2.8553  3.1884 -0.6568
   53MOL0     H 6941   7.975   6.248   5.991 -0.9834  0.6294 -1.2188
   53MOL0     H 6942   7.878   6.367   5.901 -0.0585 -0.1987  0.1963
   53MOL0     H 6943   7.796   6.469   6.100  0.6048  0.1102 -2.3913
   53MOL0     H 6944   7.887   6.346   6.200  0.4956  1.9220 -0.1693
   53MOL0     H 6945   7.765   6.173   6.074  3.2915  2.4320 -2.8268
   53MOL0     H 6946   7.677   6.265   6.196  0.0444  3.2304 -0.0511
   53MOL0     H 6947   7.511   6.258   6.044 -0.0191 -1.5579  0.4337
   53MOL0     H 6948   7.615   6.249   5.897 -2.6214 -0.0139 -0.3247
   53MOL0     H 6949   7.435   6.492   6.149 -0.7247 -0.1630 -0.5645
   53MOL0     H 6950   7.439   6.846   5.997  1.0932 -0.7043  1.1494
   53MOL0     H 6951   7.401   6.780   6.150  1.3799  0.9596 -0.1907
   53MOL0     H 6952   7.199   6.839   6.006  0.1655  0.5230  1.4939
   53MOL0     H 6953   7.192   6.676   6.058  1.4808 -1.8685  0.4849
   53MOL0     H 6954   7.329   6.734   5.787 -0.1897  1.3006  1.1277
   53MOL0     H 6955   7.276   6.583   5.860  1.6113 -0.4590  1.0721
   53MOL0     H 6956   7.106   6.818   5.765  1.5399  0.3466 -0.4294
   53MOL0     H 6957   7.041   6.695   5.863 -0.1378 -1.3186 -0.4236
   53MOL0     H 6958   6.882   6.839   5.693  0.3935 -0.6147  0.1787
   53MOL0     H 6959   6.675   6.855   5.592  0.8636  1.2564 -0.6858
   53MOL0     H 6960   6.286   6.704   5.444 -0.6483 -0.4331  0.6336
   53MOL0     H 6961   6.071   6.704   5.301 -1.6320 -1.6238 -1.3279
   53MOL0     H 6962   6.021   6.322   5.108  3.3165  1.6852  2.2197
   53MOL0     H 6963   6.040   6.405   4.940 -2.1511  1.1760 -1.7093
   53MOL0     H 6964   5.818   6.494   4.937 -0.5687 -1.9048 -1.7117
   53MOL0     H 6965   5.799   6.424   5.110  1.4975 -1.1792  0.3931
   53MOL0     H 6966   5.830   6.208   5.000  0.6161  1.6821  0.4317
   53MOL0     H 6967   5.826   6.284   4.837  1.1933 -2.1056 -0.5485
   53MOL0     H 6968   5.595   6.275   5.039 -1.6044 -0.1985 -0.8356
   53MOL0     H 6969   5.613   6.366   4.883 -2.2157  1.3238  2.3329
   53MOL0     H 6970   5.566   6.070   4.958  1.9028 -0.6734  0.2867
   53MOL0     H 6971   5.672   6.101   4.816  0.1569 -1.4974  1.1732
   53MOL0     H 6972   5.530   6.227   4.690  0.6103 -1.6756 -0.4501
   53MOL0     H 6973   5.401   6.219   4.805  0.6684  3.1047 -2.7186
   53MOL0     H 6974   5.387   6.054   4.626 -1.1361 -1.3094  0.0980
   53MOL0     H 6975   5.526   5.962   4.678  1.4340  0.9755  0.5364
   53MOL0     H 6976   5.309   6.032   4.863  1.4421  1.7511 -0.8941
   53MOL0     H 6977   5.404   5.882   4.860  0.8866 -1.5241 -1.8520
   53MOL0     H 6978   6.249   6.400   5.062 -0.2586 -1.5237  1.5167
   53MOL0     H 6979   6.473   6.431   5.188  1.8515  1.9771  0.6781
   53MOL0     H 6980   6.769   6.485   5.391 -0.5940  0.2087  0.0269
   53MOL0     H 6981   6.994   6.470   5.504 -0.2540 -0.2901  0.7979
   53MOL0     H 6982   8.355   6.696   6.379  0.9842  0.0084  2.4782
   53MOL0     H 6983   8.578   6.700   6.505  3.8559 -1.0986 -0.6534
   53MOL0     H 6984   8.869   6.668   6.654  0.3670 -1.0323  1.7378
   53MOL0     H 6985   9.022   6.601   6.838 -1.0227  0.5633 -0.1046
   53MOL0     H 6986   9.410   6.408   6.738 -3.0322 -1.5471 -3.6618
   53MOL0     H 6987   9.340   6.273   6.808  4.4101 -1.2499  1.1409
   53MOL0     H 6988   9.523   6.374   6.931  0.3687 -0.1069 -0.6473
   53MOL0     H 6989   9.429   6.499   6.983  5.8603 -0.2226  0.5283
   53MOL0     H 6990   9.334   6.205   7.028  0.5957 -0.1061 -1.6632
   53MOL0     H 6991   9.250   6.349   7.093 -0.1428 -1.4822 -0.4009
   53MOL0     H 6992   9.379   6.227   7.259  0.9874 -0.9236  0.2854
   53MOL0     H 6993   9.530   6.273   7.178  0.6217 -0.3386 -0.7805
   53MOL0     H 6994   9.407   6.634   7.367 -0.9242  0.4093 -0.0848
   53MOL0     H 6995   9.262   6.368   6.572 -0.2838 -1.2316  1.8960
   53MOL0     H 6996   9.100   6.415   6.386 -0.0736 -0.8030 -0.8651
   54MOL0     O 6997   4.312   7.296   2.398 -0.2875 -0.3038 -0.1635
   54MOL0     C 6998   4.267   7.181   2.418  0.4334 -0.4427  1.3968
   54MOL0     O 6999   4.189   7.121   2.333 -0.5535  0.9278  0.2674
   54MOL0     C 7000   4.134   7.203   2.238 -0.2668 -0.0516  0.5477
   54MOL0     C 7001   4.188   7.234   2.111  0.1182  0.6930  0.1660
   54MOL0     C 7002   4.123   7.316   2.021 -0.7087  0.9030 -0.8611
   54MOL0     C 7003   4.004   7.377   2.058  0.8151  0.3085  0.2550
   54MOL0     O 7004   3.965   7.470   1.968  0.3516  0.2666 -0.2811
   54MOL0     C 7005   3.826   7.509   1.962 -1.1207  0.7352 -0.4447
   54MOL0     C 7006   3.799   7.585   1.827  0.8282  0.1494  0.7246
   54MOL0     C 7007   3.654   7.623   1.829  0.0062  0.3002 -0.5697
   54MOL0     C 7008   3.624   7.731   1.929 -0.7578  0.5513 -0.0266
   54MOL0     C 7009   3.484   7.790   1.929  0.4175 -0.7356 -0.0716
   54MOL0     C 7010   3.470   7.921   2.011  0.4730 -0.6332 -0.2414
   54MOL0     C 7011   3.334   7.990   1.995  0.1057 -0.2053 -0.2965
   54MOL0     C 7012   3.211   7.911   2.034 -0.4594 -0.0720  0.0014
   54MOL0     N 7013   3.106   8.003   2.057 -0.2918  0.1130  0.4011
   54MOL0     C 7014   3.039   8.017   2.177 -0.7743  0.2005  0.3838
   54MOL0     C 7015   2.953   8.122   2.154  1.0945  0.2793 -0.2039
   54MOL0     C 7016   2.843   8.165   2.250  0.1457 -0.7649 -1.2063
   54MOL0     C 7017   2.767   8.296   2.211  0.1647 -0.5963  0.4560
   54MOL0     C 7018   2.666   8.349   2.319 -0.1431  0.1636  0.4331
   54MOL0     C 7019   2.567   8.457   2.267  0.1325  0.0572  0.6722
   54MOL0     O 7020   2.488   8.483   2.382  0.1074 -0.2072  0.0289
   54MOL0     C 7021   2.432   8.609   2.399 -1.0806 -0.1587 -0.6423
   54MOL0     C 7022   2.468   8.727   2.321 -0.3891 -0.6039  0.4423
   54MOL0     C 7023   2.400   8.843   2.350 -0.5490 -1.2163 -0.0924
   54MOL0     C 7024   2.293   8.858   2.431 -0.1025 -0.4310 -1.2505
   54MOL0     C 7025   2.233   8.988   2.452  0.0835 -0.2715 -0.8230
   54MOL0     O 7026   2.119   9.007   2.528 -0.5449  0.3665  0.2696
   54MOL0     C 7027   2.061   9.132   2.543  0.1693  0.5436 -0.9512
   54MOL0     C 7028   2.131   9.250   2.551  0.1716  0.0986  1.2790
   54MOL0     C 7029   2.070   9.369   2.568  0.0918 -0.4018 -0.2311
   54MOL0     C 7030   1.928   9.374   2.575  0.1965 -0.0956 -0.6066
   54MOL0     O 7031   1.873   9.497   2.591 -0.6500  0.6071 -0.0726
   54MOL0     C 7032   1.759   9.536   2.521  0.3254 -0.2499 -1.0664
   54MOL0     C 7033   1.639   9.515   2.607  1.3836  0.0638  0.1789
   54MOL0     C 7034   1.510   9.577   2.532  0.6022  0.5304  0.3460
   54MOL0     C 7035   1.375   9.504   2.573 -0.5428 -0.7394 -0.2590
   54MOL0     C 7036   1.259   9.577   2.498  0.0970 -0.8285 -0.2427
   54MOL0     C 7037   1.144   9.487   2.509 -0.0830  0.1444 -0.8663
   54MOL0     C 7038   1.057   9.489   2.377  0.7777  0.6028  1.6169
   54MOL0     C 7039   0.940   9.390   2.391  0.2466 -0.5105 -0.5924
   54MOL0    Cl 7040   0.796   9.452   2.475  0.0949  0.2206  0.0452
   54MOL0     C 7041   1.857   9.257   2.585 -0.5616 -0.1523 -0.4681
   54MOL0     C 7042   1.923   9.140   2.563  0.2770 -0.3205  0.2797
   54MOL0     O 7043   2.294   9.084   2.401  0.5631  1.2357  0.7557
   54MOL0     C 7044   2.254   8.742   2.501 -0.2026  0.9796 -0.2536
   54MOL0     C 7045   2.324   8.624   2.483 -0.6100  0.6083  0.1466
   54MOL0     N 7046   2.973   8.173   2.027 -0.3415  0.7091 -0.2275
   54MOL0     N 7047   3.067   8.102   1.972 -0.7518  0.1357  0.5232
   54MOL0     C 7048   3.944   7.352   2.183  0.2557 -0.2917 -0.1090
   54MOL0     C 7049   4.006   7.254   2.268  0.0112 -0.5607  0.2278
   54MOL0     C 7050   4.323   7.106   2.532 -0.0917  0.9918 -0.8532
   54MOL0     C 7051   4.289   6.967   2.557 -0.7195  0.6644  0.3114
   54MOL0     C 7052   4.357   6.891   2.658  0.5331 -0.4060 -0.0140
   54MOL0     C 7053   4.455   6.956   2.730 -0.2751  0.5885  1.1601
   54MOL0     O 7054   4.536   6.888   2.820  0.7051  0.0993 -0.0605
   54MOL0     C 7055   4.551   6.743   2.810 -1.0518 -0.6751 -0.3359
   54MOL0     C 7056   4.698   6.720   2.859 -0.4090  0.8739  0.0129
   54MOL0     C 7057   4.726   6.773   3.000  0.0243 -0.9842  0.2523
   54MOL0     C 7058   4.663   6.679   3.104  0.1474 -0.2805 -0.2747
   54MOL0     C 7059   4.522   6.681   3.129  0.1878 -0.6518 -0.3979
   54MOL0     C 7060   4.405   6.674   3.157 -1.0093  0.1018 -0.6221
   54MOL0     C 7061   4.492   7.095   2.713 -0.2588 -0.8862  0.6061
   54MOL0     C 7062   4.415   7.168   2.613 -0.2568  0.2825 -0.9472
   54MOL0     H 7063   4.281   7.193   2.074 -1.0181 -1.6171 -0.3167
   54MOL0     H 7064   4.181   7.352   1.936 -1.2767  2.1531 -0.7450
   54MOL0     H 7065   3.812   7.578   2.045  0.8242 -1.0357  1.4840
   54MOL0     H 7066   3.766   7.418   1.970 -0.5917  0.5494  2.3700
   54MOL0     H 7067   3.808   7.516   1.744 -2.6286 -2.7963  2.5363
   54MOL0     H 7068   3.865   7.670   1.808 -1.2042  1.8310  0.8254
   54MOL0     H 7069   3.588   7.537   1.848 -1.9365  1.6605 -0.8949
   54MOL0     H 7070   3.635   7.659   1.728 -0.1661  0.4743 -0.4749
   54MOL0     H 7071   3.640   7.689   2.028 -0.9848  0.5316  0.0010
   54MOL0     H 7072   3.702   7.807   1.921  1.1701 -1.2564  0.7058
   54MOL0     H 7073   3.414   7.716   1.969  0.5099 -0.1036  1.3058
   54MOL0     H 7074   3.468   7.806   1.822  1.0214  0.1251 -0.0423
   54MOL0     H 7075   3.541   7.989   1.964 -1.4784  0.6447 -1.5086
   54MOL0     H 7076   3.498   7.905   2.116  1.1161 -0.8300 -0.4422
   54MOL0     H 7077   3.347   8.078   2.058  1.5588 -2.0810  2.2488
   54MOL0     H 7078   3.329   8.027   1.892 -0.6300 -1.7810 -0.8621
   54MOL0     H 7079   3.218   7.840   2.118  0.5933 -5.3008 -3.9782
   54MOL0     H 7080   3.195   7.834   1.958  3.0722 -1.4046  0.4551
   54MOL0     H 7081   3.049   7.963   2.270  3.3829  0.8204  0.4800
   54MOL0     H 7082   2.884   8.181   2.350  1.1139 -1.6405 -1.4444
   54MOL0     H 7083   2.763   8.090   2.255 -2.8336  2.2375  0.8364
   54MOL0     H 7084   2.728   8.285   2.110  1.3037 -0.8306  0.0300
   54MOL0     H 7085   2.852   8.365   2.206  0.3907 -0.8864  0.3137
   54MOL0     H 7086   2.614   8.266   2.369 -2.2081  1.4507  0.5629
   54MOL0     H 7087   2.729   8.394   2.397  4.1131 -2.7279 -0.9990
   54MOL0     H 7088   2.507   8.443   2.176  1.9144  1.0016 -0.7324
   54MOL0     H 7089   2.640   8.536   2.241  0.9136 -1.8034 -3.7503
   54MOL0     H 7090   2.554   8.717   2.256 -0.7465 -0.5887 -0.0443
   54MOL0     H 7091   2.433   8.930   2.294  1.9436 -0.8779  1.7660
   54MOL0     H 7092   2.239   9.262   2.544  0.3881 -1.3056  1.7848
   54MOL0     H 7093   2.126   9.462   2.563 -1.9470  0.8249 -2.9932
   54MOL0     H 7094   1.743   9.484   2.426  1.1400 -0.7582 -0.9407
   54MOL0     H 7095   1.772   9.642   2.500 -3.0608  0.5410  0.1374
   54MOL0     H 7096   1.647   9.575   2.698  1.1258 -3.0337  2.3831
   54MOL0     H 7097   1.619   9.409   2.626 -0.3997  0.7345  2.4650
   54MOL0     H 7098   1.527   9.571   2.424 -0.3187  3.1145 -0.0182
   54MOL0     H 7099   1.507   9.686   2.541  1.5801  0.9543 -2.9046
   54MOL0     H 7100   1.389   9.397   2.554  1.6546 -0.2430 -1.7472
   54MOL0     H 7101   1.353   9.514   2.680  0.2194 -2.9505  0.1683
   54MOL0     H 7102   1.275   9.591   2.391  0.4264 -5.5679 -0.9966
   54MOL0     H 7103   1.233   9.672   2.546  1.1499  1.2607 -3.4357
   54MOL0     H 7104   1.078   9.518   2.591  1.9854  2.8674 -0.0943
   54MOL0     H 7105   1.167   9.382   2.526  3.5703  1.0349  0.4910
   54MOL0     H 7106   1.013   9.585   2.348  0.4764 -0.2703 -1.0276
   54MOL0     H 7107   1.114   9.463   2.288 -1.0817 -0.4755  0.6988
   54MOL0     H 7108   0.981   9.302   2.442  2.2013  0.3961 -0.4996
   54MOL0     H 7109   0.889   9.373   2.296 -2.5509 -0.5252  0.7918
   54MOL0     H 7110   1.750   9.258   2.603 -0.3815 -1.4672  0.8517
   54MOL0     H 7111   1.866   9.048   2.562 -3.9248  2.0460  0.2704
   54MOL0     H 7112   2.170   8.741   2.570  0.3860 -0.2158  0.4785
   54MOL0     H 7113   2.288   8.538   2.538  0.4218 -0.0640 -0.2069
   54MOL0     H 7114   3.859   7.406   2.224  0.2817 -0.7317  0.5507
   54MOL0     H 7115   3.968   7.227   2.366  2.9830 -2.9822  0.8601
   54MOL0     H 7116   4.225   6.910   2.490 -0.8987 -0.7448  1.6284
   54MOL0     H 7117   4.322   6.788   2.660  0.5026 -0.3988 -0.1346
   54MOL0     H 7118   4.546   6.709   2.706  1.6391  0.6865 -0.9933
   54MOL0     H 7119   4.476   6.689   2.869  1.0423 -0.4981  2.7213
   54MOL0     H 7120   4.703   6.610   2.861 -2.3922  0.7332 -0.7424
   54MOL0     H 7121   4.769   6.766   2.790  0.9495 -0.1051  0.7025
   54MOL0     H 7122   4.695   6.877   3.013  0.2193 -0.9009  0.0517
   54MOL0     H 7123   4.834   6.777   3.010 -0.2250 -0.3262  6.0734
   54MOL0     H 7124   4.702   6.579   3.081  2.3112  0.5763 -0.5703
   54MOL0     H 7125   4.709   6.719   3.195 -0.4533  1.6598 -0.7915
   54MOL0     H 7126   4.300   6.687   3.173 -0.6959  0.8205  0.9710
   54MOL0     H 7127   4.567   7.139   2.778 -1.1337  1.3803  0.1765
   54MOL0     H 7128   4.423   7.277   2.615  3.6687  0.1322  0.6112
   55MOL0     O 7129   0.220   4.644   1.270 -0.0087 -0.9174  0.1045
   55MOL0     C 7130   0.204   4.558   1.357 -0.4301  0.4507 -0.3589
   55MOL0     O 7131   0.299   4.464   1.394  0.2692 -0.1465 -0.8222
   55MOL0     C 7132   0.434   4.482   1.367 -0.9090 -1.0550  0.3038
   55MOL0     C 7133   0.525   4.535   1.463  0.3303  0.7135 -0.5435
   55MOL0     C 7134   0.656   4.574   1.431 -0.1271  1.1018 -0.5021
   55MOL0     C 7135   0.715   4.558   1.306  0.7258  0.2106  0.9846
   55MOL0     O 7136   0.841   4.579   1.268  0.6000 -0.8429  0.4586
   55MOL0     C 7137   0.934   4.591   1.362 -0.1857 -0.1248  0.2215
   55MOL0     C 7138   1.077   4.627   1.317 -0.6461 -0.2868  0.6951
   55MOL0     C 7139   1.123   4.530   1.218  0.3217 -0.1845  0.9614
   55MOL0     C 7140   1.273   4.502   1.198 -0.1496  0.3906  0.2410
   55MOL0     C 7141   1.307   4.387   1.100 -0.3320  1.1372  0.9487
   55MOL0     C 7142   1.454   4.401   1.045 -0.2163  0.0926  0.1270
   55MOL0     C 7143   1.563   4.429   1.147  0.3422 -0.4969  0.9365
   55MOL0     C 7144   1.698   4.392   1.095 -1.0032  0.2175 -0.1126
   55MOL0     N 7145   1.768   4.265   1.153  0.7222  0.1293 -0.0636
   55MOL0     C 7146   1.902   4.235   1.166 -0.1456 -0.4541 -0.7933
   55MOL0     C 7147   1.896   4.105   1.205 -0.5787  0.2412  0.4174
   55MOL0     C 7148   2.012   4.005   1.219  0.3616  1.3442  0.5377
   55MOL0     C 7149   2.094   3.957   1.085 -0.0785 -0.6321  0.4898
   55MOL0     C 7150   2.212   4.051   1.043  0.5030  0.4999  0.1692
   55MOL0     C 7151   2.174   4.159   0.939  0.0695 -0.4110 -0.3768
   55MOL0     O 7152   2.276   4.186   0.845 -0.2980  0.1863  0.0032
   55MOL0     C 7153   2.385   4.254   0.886  0.2116 -0.5081 -0.4887
   55MOL0     C 7154   2.405   4.305   1.019  0.8019  0.0505 -0.3937
   55MOL0     C 7155   2.517   4.379   1.054 -0.0444  0.0334 -0.4393
   55MOL0     C 7156   2.610   4.408   0.954  0.1818 -0.7905  0.9586
   55MOL0     C 7157   2.712   4.512   0.983  0.4022 -0.4392 -0.1421
   55MOL0     O 7158   2.725   4.544   1.110  0.4255  0.2372 -0.9771
   55MOL0     C 7159   2.823   4.612   1.171 -1.0808 -0.2213 -0.7310
   55MOL0     C 7160   2.956   4.610   1.144 -0.6274  1.2111 -1.3268
   55MOL0     C 7161   3.047   4.687   1.225  0.9748  0.3023  0.8392
   55MOL0     C 7162   3.001   4.781   1.315 -0.1961  0.5032 -0.0226
   55MOL0     O 7163   3.090   4.842   1.402 -0.6706  0.5838  0.3833
   55MOL0     C 7164   3.216   4.785   1.420  0.5485 -0.1791 -0.1929
   55MOL0     C 7165   3.302   4.855   1.525  0.6123 -0.5145  1.0471
   55MOL0     C 7166   3.314   5.007   1.512  0.5140 -0.3016  0.1200
   55MOL0     C 7167   3.348   5.068   1.648  0.4435  0.7208 -0.6074
   55MOL0     C 7168   3.431   5.201   1.630 -0.5916 -0.3415 -0.2149
   55MOL0     C 7169   3.373   5.299   1.530  0.7855  0.0445  0.5558
   55MOL0     C 7170   3.434   5.434   1.568 -0.3014 -0.6280 -0.4123
   55MOL0     C 7171   3.440   5.531   1.450 -0.1747 -0.1697  0.0267
   55MOL0    Cl 7172   3.553   5.658   1.500  0.6626  0.0319  0.5498
   55MOL0     C 7173   2.864   4.791   1.335 -0.0238 -0.5718  0.7333
   55MOL0     C 7174   2.780   4.709   1.261  0.7889  0.7866 -0.5461
   55MOL0     O 7175   2.771   4.565   0.891  0.3537 -0.2396  0.4855
   55MOL0     C 7176   2.598   4.359   0.824 -0.3119 -0.2752  0.4560
   55MOL0     C 7177   2.482   4.293   0.787  1.1613 -0.1080  0.2322
   55MOL0     N 7178   1.766   4.058   1.231  0.2275  0.2938 -0.2224
   55MOL0     N 7179   1.694   4.161   1.194  0.1893 -0.7322 -0.4676
   55MOL0     C 7180   0.629   4.516   1.201 -0.4091  1.1865  0.1437
   55MOL0     C 7181   0.498   4.476   1.235 -0.2894  0.5940  0.4555
   55MOL0     C 7182   0.074   4.549   1.417 -0.0285 -0.1946  1.2875
   55MOL0     C 7183   0.046   4.420   1.466 -0.6583 -0.5515 -0.5758
   55MOL0     C 7184  -0.087   4.392   1.500  1.1226  0.0092 -0.1862
   55MOL0     C 7185  -0.185   4.490   1.500  0.2718  0.3073  0.7996
   55MOL0     O 7186  -0.311   4.446   1.544  0.7471 -0.3313  0.1134
   55MOL0     C 7187  -0.423   4.527   1.552  0.2238 -1.1020  0.6085
   55MOL0     C 7188  -0.515   4.484   1.675 -0.5092 -0.2143  0.1516
   55MOL0     C 7189  -0.467   4.546   1.799 -0.5638 -0.3529  0.0029
   55MOL0     C 7190  -0.360   4.468   1.873  0.5772 -0.2360  0.6780
   55MOL0     C 7191  -0.416   4.337   1.927  0.2833 -0.2940  0.0889
   55MOL0     C 7192  -0.460   4.240   1.985  0.6846  0.4798  0.2326
   55MOL0     C 7193  -0.148   4.615   1.464 -0.0146 -0.6490 -0.7850
   55MOL0     C 7194  -0.021   4.646   1.419 -0.3434 -0.1844  0.1753
   55MOL0     H 7195   0.480   4.554   1.560 -2.0167 -2.4145 -0.8452
   55MOL0     H 7196   0.710   4.620   1.513 -1.6129  0.2972  0.9886
   55MOL0     H 7197   0.930   4.499   1.421 -3.8146 -1.3117 -1.5642
   55MOL0     H 7198   0.902   4.675   1.425 -0.4748 -0.3165  0.3357
   55MOL0     H 7199   1.150   4.632   1.398 -0.8727 -1.5346  0.9963
   55MOL0     H 7200   1.078   4.725   1.269  0.0014  0.2845  1.8303
   55MOL0     H 7201   1.076   4.570   1.128 -3.9597  0.4484  3.2254
   55MOL0     H 7202   1.084   4.428   1.223  1.4900 -0.6153  1.6476
   55MOL0     H 7203   1.331   4.591   1.171  0.9380 -1.2515 -3.4332
   55MOL0     H 7204   1.322   4.463   1.288  1.4937  0.8032 -0.4472
   55MOL0     H 7205   1.224   4.388   1.029 -1.3829  1.8715  2.1350
   55MOL0     H 7206   1.294   4.291   1.152 -3.1995  0.0445 -1.4885
   55MOL0     H 7207   1.462   4.490   0.982 -0.0411  0.2349  0.3475
   55MOL0     H 7208   1.488   4.313   0.989 -0.6445  1.6980 -2.8894
   55MOL0     H 7209   1.560   4.535   1.175 -1.0765 -0.5350  1.0374
   55MOL0     H 7210   1.545   4.369   1.236  2.0066 -0.4937  1.3011
   55MOL0     H 7211   1.760   4.481   1.103  1.1759 -1.0290 -1.9125
   55MOL0     H 7212   1.682   4.375   0.988 -1.4802  2.9528 -0.5413
   55MOL0     H 7213   1.993   4.290   1.150  0.7371 -0.5068  3.1951
   55MOL0     H 7214   1.982   3.911   1.266 -0.1201  0.7384 -0.8985
   55MOL0     H 7215   2.090   4.034   1.291  0.3866 -0.2881  1.2137
   55MOL0     H 7216   2.019   3.938   1.008 -0.7010 -0.0348  0.9344
   55MOL0     H 7217   2.144   3.863   1.111  0.7947 -0.8768 -1.8548
   55MOL0     H 7218   2.242   4.107   1.132  0.5918 -1.4523  1.4436
   55MOL0     H 7219   2.292   3.995   0.992 -1.4888 -0.8483 -1.6651
   55MOL0     H 7220   2.158   4.251   0.997 -1.3948  1.4499 -3.4719
   55MOL0     H 7221   2.090   4.114   0.887 -0.4370  1.0989 -0.9226
   55MOL0     H 7222   2.364   4.253   1.105  3.5459  1.3698  1.8932
   55MOL0     H 7223   2.519   4.419   1.155 -0.2685  1.2864 -0.9222
   55MOL0     H 7224   2.976   4.539   1.064 -0.8962 -3.0680  2.0195
   55MOL0     H 7225   3.150   4.654   1.212  1.3985  1.8103  0.1737
   55MOL0     H 7226   3.266   4.789   1.323  0.0778 -1.1406 -0.4890
   55MOL0     H 7227   3.193   4.683   1.453  0.1042  0.0707  0.2814
   55MOL0     H 7228   3.390   4.791   1.540  0.1395 -0.9904  1.8646
   55MOL0     H 7229   3.248   4.843   1.618 -0.3700 -0.1186  0.5395
   55MOL0     H 7230   3.223   5.055   1.474  1.1040 -0.3260 -1.4033
   55MOL0     H 7231   3.390   5.020   1.434 -0.8788 -4.0642 -2.1334
   55MOL0     H 7232   3.257   5.067   1.710 -0.2014 -1.9742 -1.4412
   55MOL0     H 7233   3.407   4.994   1.703  0.3848  0.3508 -1.0344
   55MOL0     H 7234   3.535   5.174   1.610  0.2090  2.2304  0.1186
   55MOL0     H 7235   3.417   5.243   1.731  0.3381 -0.4504 -0.0306
   55MOL0     H 7236   3.264   5.296   1.535  0.8492 -0.1094  2.3783
   55MOL0     H 7237   3.396   5.271   1.427  0.2706  2.9358 -0.4510
   55MOL0     H 7238   3.376   5.472   1.653  1.1835 -3.7026  2.1621
   55MOL0     H 7239   3.536   5.429   1.605 -1.4186 -2.6147  2.7218
   55MOL0     H 7240   3.342   5.577   1.435 -0.2384 -0.5653 -0.8794
   55MOL0     H 7241   3.468   5.490   1.352 -0.0502 -0.0344  0.0061
   55MOL0     H 7242   2.838   4.864   1.411 -0.0640  0.7936 -0.5512
   55MOL0     H 7243   2.672   4.704   1.270  0.7835  0.9637 -0.5028
   55MOL0     H 7244   2.659   4.395   0.742  2.4228  1.1755  2.9421
   55MOL0     H 7245   2.458   4.281   0.682 -1.5370 -0.0939  0.7592
   55MOL0     H 7246   0.674   4.518   1.102  0.3470  2.6207  0.4955
   55MOL0     H 7247   0.439   4.430   1.157  0.8783 -0.8399  0.3899
   55MOL0     H 7248   0.115   4.336   1.472  0.2952  0.2737  0.5214
   55MOL0     H 7249  -0.128   4.296   1.531 -2.5434  1.4808  0.1181
   55MOL0     H 7250  -0.479   4.513   1.460  1.6567  2.3665 -0.9656
   55MOL0     H 7251  -0.398   4.633   1.562  0.0415 -1.0394  0.3856
   55MOL0     H 7252  -0.616   4.516   1.649 -0.7921 -2.5502 -1.8930
   55MOL0     H 7253  -0.500   4.376   1.682  2.9505  0.2392  1.8049
   55MOL0     H 7254  -0.538   4.547   1.882 -0.4018 -4.2018  0.3727
   55MOL0     H 7255  -0.435   4.649   1.782  1.7907 -1.2031 -1.1466
   55MOL0     H 7256  -0.271   4.453   1.812  0.1082 -0.3708  0.0065
   55MOL0     H 7257  -0.324   4.528   1.957  1.4191 -1.5208  1.2683
   55MOL0     H 7258  -0.490   4.154   2.041  0.2704  1.5142  1.6764
   55MOL0     H 7259  -0.221   4.695   1.462  0.6663  0.1534  1.9060
   55MOL0     H 7260  -0.001   4.746   1.380 -1.8198  0.7950  1.7670
   56MOL0     O 7261   2.798   6.516   6.301 -0.4369 -0.5072 -0.9834
   56MOL0     C 7262   2.908   6.513   6.254 -0.4172 -0.3821 -0.0931
   56MOL0     O 7263   3.000   6.412   6.267  0.3837 -0.8017  0.1050
   56MOL0     C 7264   2.964   6.285   6.303  0.7203 -0.0197  0.1301
   56MOL0     C 7265   3.072   6.209   6.355  0.2213  0.5264  0.3999
   56MOL0     C 7266   3.048   6.084   6.415 -0.2306 -0.1178  0.0515
   56MOL0     C 7267   2.918   6.029   6.422 -0.3405  0.3096  0.8449
   56MOL0     O 7268   2.883   5.923   6.498 -0.1781 -1.1739 -0.2159
   56MOL0     C 7269   2.978   5.863   6.600  0.3074 -0.3241  0.4457
   56MOL0     C 7270   2.897   5.774   6.692 -1.3246  1.0452 -0.2454
   56MOL0     C 7271   3.001   5.697   6.785  0.8896 -0.1207 -0.5790
   56MOL0     C 7272   2.936   5.581   6.850  0.4601  0.3698 -0.1246
   56MOL0     C 7273   2.937   5.444   6.779 -0.5906 -1.0911 -0.4439
   56MOL0     C 7274   2.866   5.328   6.848 -0.0322  0.2512  0.3479
   56MOL0     C 7275   2.713   5.346   6.832  0.3019  0.4734  0.0044
   56MOL0     C 7276   2.637   5.232   6.907 -0.3812 -0.3627  0.2577
   56MOL0     N 7277   2.497   5.245   6.883  0.2885 -0.2296  0.0282
   56MOL0     C 7278   2.442   5.226   6.770 -0.1225  0.1340  0.6267
   56MOL0     C 7279   2.308   5.225   6.799 -0.3427 -0.0767 -0.0985
   56MOL0     C 7280   2.197   5.224   6.701 -0.7141  0.5105 -0.7675
   56MOL0     C 7281   2.197   5.352   6.619  0.0785  0.1305 -0.0488
   56MOL0     C 7282   2.142   5.483   6.688  0.4575  0.3746 -0.0157
   56MOL0     C 7283   1.991   5.479   6.699  0.2749 -0.0876 -0.4196
   56MOL0     O 7284   1.953   5.595   6.774  0.2152 -0.4705  0.3224
   56MOL0     C 7285   1.824   5.637   6.774  1.0131 -0.0016 -0.6105
   56MOL0     C 7286   1.799   5.750   6.853 -0.2190 -0.0643 -0.0820
   56MOL0     C 7287   1.668   5.795   6.876  0.2979  0.1582 -0.2196
   56MOL0     C 7288   1.554   5.734   6.811 -0.3850  0.7815 -0.3834
   56MOL0     C 7289   1.416   5.785   6.850 -0.1981  0.4849  1.0769
   56MOL0     O 7290   1.318   5.695   6.853 -0.6725  0.2823 -0.4627
   56MOL0     C 7291   1.191   5.740   6.893  1.0743  0.0132 -0.9853
   56MOL0     C 7292   1.159   5.730   7.034  0.3171  0.2633 -1.2304
   56MOL0     C 7293   1.041   5.793   7.080  0.4007 -0.5816  0.7486
   56MOL0     C 7294   0.945   5.841   6.984 -0.0245  0.3481  0.3728
   56MOL0     O 7295   0.821   5.900   7.016  1.1782 -0.9322 -0.2269
   56MOL0     C 7296   0.804   5.930   7.150  0.4573  0.6209 -0.0607
   56MOL0     C 7297   0.684   6.008   7.171 -0.3805  0.0245  0.0579
   56MOL0     C 7298   0.676   6.127   7.064 -0.2751 -0.1134  0.5096
   56MOL0     C 7299   0.568   6.239   7.103  0.8462 -0.3569 -0.0926
   56MOL0     C 7300   0.587   6.356   7.006  0.2847  0.0474 -0.5605
   56MOL0     C 7301   0.464   6.448   7.003  0.6904 -0.4880 -0.3177
   56MOL0     C 7302   0.458   6.539   7.121  0.1144  0.5954  1.0869
   56MOL0     C 7303   0.326   6.610   7.151  0.2321  0.7595  0.4075
   56MOL0    Cl 7304   0.197   6.489   7.194 -0.0861  0.1656 -0.1894
   56MOL0     C 7305   0.988   5.850   6.851  0.9204 -0.0054  0.1143
   56MOL0     C 7306   1.107   5.804   6.799  0.3228  0.1153 -0.7378
   56MOL0     O 7307   1.406   5.901   6.879  0.7851 -0.7117 -0.5677
   56MOL0     C 7308   1.583   5.625   6.732  0.4232  1.2157 -0.4865
   56MOL0     C 7309   1.712   5.581   6.710 -0.8307 -0.5568  0.2989
   56MOL0     N 7310   2.292   5.235   6.939  0.4773  0.5667  0.3402
   56MOL0     N 7311   2.411   5.233   6.982 -0.2487  0.9397 -0.7136
   56MOL0     C 7312   2.817   6.105   6.376  0.0946  0.0168  0.9621
   56MOL0     C 7313   2.835   6.229   6.313 -0.1133 -0.4839 -1.5632
   56MOL0     C 7314   2.932   6.609   6.144  0.5427 -0.5705 -0.2249
   56MOL0     C 7315   3.051   6.602   6.065  0.4203 -0.4167  0.9429
   56MOL0     C 7316   3.070   6.694   5.960 -0.1417  0.0917  0.5166
   56MOL0     C 7317   2.967   6.778   5.919  0.0812 -0.5880 -0.1085
   56MOL0     O 7318   2.991   6.865   5.815  0.4682 -0.0395 -0.1544
   56MOL0     C 7319   2.907   6.972   5.791 -0.4160 -0.6013  0.4169
   56MOL0     C 7320   2.793   6.934   5.687 -0.6117  0.7620 -0.3011
   56MOL0     C 7321   2.865   6.930   5.553 -0.8296 -0.1619  0.0067
   56MOL0     C 7322   2.962   6.818   5.515  0.0059 -0.3543  0.3902
   56MOL0     C 7323   3.104   6.856   5.525  0.6405  0.9678 -0.6339
   56MOL0     C 7324   3.212   6.908   5.526 -0.1800 -0.7177  0.8826
   56MOL0     C 7325   2.846   6.784   6.001  0.0933  0.5710  0.4427
   56MOL0     C 7326   2.839   6.713   6.120 -0.4077  0.0839  0.5139
   56MOL0     H 7327   3.172   6.251   6.345  0.1194  0.3015 -2.5004
   56MOL0     H 7328   3.122   6.035   6.478 -0.7271 -0.6576  0.2183
   56MOL0     H 7329   3.033   5.942   6.650  0.0959  0.3117 -0.3091
   56MOL0     H 7330   3.048   5.800   6.545  1.0224  1.1162 -0.3369
   56MOL0     H 7331   2.839   5.701   6.635  0.6176 -0.0495 -0.9160
   56MOL0     H 7332   2.822   5.833   6.745 -3.3042 -1.7333  0.2486
   56MOL0     H 7333   3.032   5.773   6.858 -1.9248  0.3276  0.2882
   56MOL0     H 7334   3.085   5.655   6.730  1.0207  1.1779 -1.4179
   56MOL0     H 7335   2.971   5.562   6.952  4.1452 -1.0525 -1.4687
   56MOL0     H 7336   2.831   5.611   6.843  0.1595 -0.2802  1.1878
   56MOL0     H 7337   3.043   5.429   6.756 -0.3513  1.3861 -1.2483
   56MOL0     H 7338   2.895   5.473   6.683  2.6762  2.4262 -1.0336
   56MOL0     H 7339   2.908   5.322   6.949  1.5042 -1.6588 -0.3376
   56MOL0     H 7340   2.901   5.237   6.798  3.0639 -0.0251  2.6898
   56MOL0     H 7341   2.677   5.439   6.875 -0.0503 -1.1797  3.7142
   56MOL0     H 7342   2.702   5.344   6.724  2.3088  3.2664 -0.3707
   56MOL0     H 7343   2.657   5.251   7.013 -0.2775  5.1349 -0.4473
   56MOL0     H 7344   2.668   5.132   6.876 -2.5388 -1.6196  1.9307
   56MOL0     H 7345   2.486   5.228   6.671 -0.6773 -0.6157  0.3519
   56MOL0     H 7346   2.108   5.213   6.764 -1.4266  1.7045 -1.5227
   56MOL0     H 7347   2.210   5.152   6.620 -1.0033 -0.5017  0.0642
   56MOL0     H 7348   2.124   5.332   6.539 -2.8824  2.0598  1.9540
   56MOL0     H 7349   2.295   5.371   6.575  0.0452 -1.5522 -0.9684
   56MOL0     H 7350   2.193   5.494   6.785  3.1554 -1.1642 -1.1509
   56MOL0     H 7351   2.170   5.571   6.629 -0.7144  0.9464  0.2564
   56MOL0     H 7352   1.950   5.392   6.752 -0.5017  0.5281  0.0197
   56MOL0     H 7353   1.935   5.472   6.605 -1.7014  0.4015  0.6652
   56MOL0     H 7354   1.882   5.807   6.892 -0.0883  0.2883 -0.8547
   56MOL0     H 7355   1.645   5.880   6.940  0.9541 -0.4415  0.8229
   56MOL0     H 7356   1.229   5.675   7.096 -1.5272 -0.2397  0.5501
   56MOL0     H 7357   1.026   5.795   7.188  1.6939 -1.6742  0.9710
   56MOL0     H 7358   0.886   5.983   7.200  0.9674  0.2780 -0.5246
   56MOL0     H 7359   0.795   5.839   7.209 -0.8259  1.3275  0.8744
   56MOL0     H 7360   0.671   6.032   7.278  0.9186  0.0037  0.2336
   56MOL0     H 7361   0.599   5.941   7.154  0.0607 -1.0495  1.7744
   56MOL0     H 7362   0.660   6.089   6.962 -1.1298 -0.2056  0.6677
   56MOL0     H 7363   0.768   6.185   7.051 -0.8196  0.2247 -2.6318
   56MOL0     H 7364   0.476   6.181   7.085 -0.1957  0.8728  1.0513
   56MOL0     H 7365   0.584   6.266   7.208 -0.5553 -1.0923  0.3363
   56MOL0     H 7366   0.594   6.304   6.910  0.2900 -0.3334 -0.3563
   56MOL0     H 7367   0.684   6.404   7.022  0.3603 -0.1761 -0.3429
   56MOL0     H 7368   0.367   6.402   6.985  0.1073  0.7321 -0.4376
   56MOL0     H 7369   0.465   6.525   6.925  0.1784  1.2119  1.2698
   56MOL0     H 7370   0.493   6.477   7.205 -0.9202 -2.7511 -0.7661
   56MOL0     H 7371   0.539   6.608   7.098  1.0945 -0.9589 -0.3409
   56MOL0     H 7372   0.312   6.662   7.056  0.1198 -2.4764 -1.4481
   56MOL0     H 7373   0.352   6.665   7.242  2.7174 -1.7537  1.3679
   56MOL0     H 7374   0.919   5.896   6.781  1.5026  1.9778  0.7710
   56MOL0     H 7375   1.136   5.830   6.698  3.7344  2.1533  0.5852
   56MOL0     H 7376   1.500   5.568   6.693  0.2452  0.6605  0.6731
   56MOL0     H 7377   1.716   5.485   6.660 -3.4497  0.2350 -1.6103
   56MOL0     H 7378   2.716   6.074   6.402  0.6315 -1.5773  1.2350
   56MOL0     H 7379   2.750   6.289   6.283 -0.0170  0.2513 -0.4107
   56MOL0     H 7380   3.130   6.538   6.102  1.7707  0.8240  0.3425
   56MOL0     H 7381   3.165   6.700   5.908 -0.2460 -1.1771  0.1564
   56MOL0     H 7382   2.967   7.054   5.751 -1.3067  0.8711  1.9829
   56MOL0     H 7383   2.852   7.003   5.880  1.3043 -2.8451  2.4242
   56MOL0     H 7384   2.752   6.835   5.710  1.9102 -1.5486 -4.5308
   56MOL0     H 7385   2.724   7.019   5.682  1.0708  2.1637 -0.8804
   56MOL0     H 7386   2.916   7.024   5.533  1.5023 -1.6137 -1.4542
   56MOL0     H 7387   2.786   6.927   5.478 -1.7572  1.6845  0.8738
   56MOL0     H 7388   2.940   6.730   5.576 -2.5973  0.4808  0.8085
   56MOL0     H 7389   2.935   6.795   5.412  2.6815 -2.9007  0.1276
   56MOL0     H 7390   3.307   6.957   5.528  0.0105 -1.0729  0.5012
   56MOL0     H 7391   2.759   6.844   5.977 -0.9526  0.4408  3.4908
   56MOL0     H 7392   2.756   6.712   6.190  0.5354 -1.2419  1.6661
   57MOL0     O 7393   2.897   6.576   0.371  0.8151  0.4738 -0.6137
   57MOL0     C 7394   2.868   6.457   0.369 -0.6701 -0.9313 -0.0656
   57MOL0     O 7395   2.744   6.409   0.327  0.4583  0.5217  0.0240
   57MOL0     C 7396   2.653   6.492   0.264  0.2790  1.3940 -0.8619
   57MOL0     C 7397   2.519   6.497   0.313  0.1198 -0.1779 -0.4032
   57MOL0     C 7398   2.427   6.578   0.263 -0.6716  0.3839 -0.0664
   57MOL0     C 7399   2.446   6.628   0.133  0.4029 -0.3549  0.2164
   57MOL0     O 7400   2.341   6.678   0.060 -0.2258 -0.3639  0.1517
   57MOL0     C 7401   2.267   6.570  -0.011 -0.6142 -0.1994  0.3490
   57MOL0     C 7402   2.149   6.635  -0.072  0.9198 -0.7965 -0.7106
   57MOL0     C 7403   2.072   6.529  -0.153  0.8165 -0.4265  0.0942
   57MOL0     C 7404   1.958   6.602  -0.231  0.8318 -0.0658  0.3257
   57MOL0     C 7405   1.884   6.511  -0.329 -0.2999  0.3287  0.3797
   57MOL0     C 7406   1.803   6.587  -0.429  0.3635 -0.0885  0.9443
   57MOL0     C 7407   1.721   6.492  -0.527 -0.2307 -0.2366  0.6127
   57MOL0     C 7408   1.621   6.563  -0.622  0.8833  0.4237  0.7896
   57MOL0     N 7409   1.563   6.465  -0.704  0.4146  0.0685 -0.6851
   57MOL0     C 7410   1.579   6.455  -0.839 -1.2091 -0.0506  0.3112
   57MOL0     C 7411   1.526   6.339  -0.880  1.1740  1.2047 -0.7345
   57MOL0     C 7412   1.494   6.276  -1.018 -0.1719  0.4051 -0.1688
   57MOL0     C 7413   1.615   6.260  -1.108  0.1843  1.1657 -0.8652
   57MOL0     C 7414   1.636   6.367  -1.223 -0.0729  0.1482 -0.3106
   57MOL0     C 7415   1.594   6.317  -1.356  0.2382  0.5249  0.2906
   57MOL0     O 7416   1.668   6.207  -1.395 -0.1265  0.5558  0.3875
   57MOL0     C 7417   1.650   6.138  -1.516  0.5968 -0.8462  0.4993
   57MOL0     C 7418   1.693   6.012  -1.537  0.1721 -0.1421 -0.2407
   57MOL0     C 7419   1.640   5.926  -1.641  0.8908 -0.7754  1.1005
   57MOL0     C 7420   1.532   5.973  -1.718  0.3465 -0.7582  0.0338
   57MOL0     C 7421   1.459   5.882  -1.806  0.8011  0.0597 -0.0479
   57MOL0     O 7422   1.525   5.760  -1.830  0.1778  0.1805 -0.3097
   57MOL0     C 7423   1.522   5.721  -1.961  1.3445 -0.0284 -0.2257
   57MOL0     C 7424   1.401   5.703  -2.034  1.0661 -0.4435  0.3159
   57MOL0     C 7425   1.406   5.679  -2.175 -0.8210 -0.3559 -0.4068
   57MOL0     C 7426   1.529   5.657  -2.244 -0.5454  0.0666  0.6456
   57MOL0     O 7427   1.557   5.641  -2.376  0.5865 -1.1701  0.1440
   57MOL0     C 7428   1.443   5.675  -2.460  0.0035 -0.6199 -0.4806
   57MOL0     C 7429   1.477   5.720  -2.604 -0.5227  0.3449 -0.0769
   57MOL0     C 7430   1.569   5.838  -2.606  0.7047  0.5228  0.8120
   57MOL0     C 7431   1.585   5.887  -2.756 -0.1676 -0.3448 -0.2085
   57MOL0     C 7432   1.709   5.819  -2.830  0.4361 -0.2550 -0.1312
   57MOL0     C 7433   1.723   5.902  -2.957 -0.5386  0.2163 -0.3771
   57MOL0     C 7434   1.637   5.858  -3.073  0.0251 -0.6163 -0.0053
   57MOL0     C 7435   1.707   5.882  -3.206 -0.7833  0.4644 -0.3940
   57MOL0    Cl 7436   1.708   6.051  -3.248  0.0034  0.3926  0.2724
   57MOL0     C 7437   1.643   5.669  -2.163  0.8243  0.7327  1.4135
   57MOL0     C 7438   1.642   5.690  -2.025  0.2161  0.2194 -0.4046
   57MOL0     O 7439   1.345   5.908  -1.841  0.1083  0.0463 -0.4613
   57MOL0     C 7440   1.490   6.108  -1.699  0.9637  0.5425  0.5899
   57MOL0     C 7441   1.555   6.188  -1.606 -0.0759  0.2457 -0.7310
   57MOL0     N 7442   1.470   6.281  -0.766  0.3986 -0.8785  0.2404
   57MOL0     N 7443   1.489   6.360  -0.664 -0.1954 -0.0663  0.1602
   57MOL0     C 7444   2.576   6.632   0.084 -0.7981  0.5733 -0.7772
   57MOL0     C 7445   2.681   6.569   0.160 -0.4405 -0.2840  0.3616
   57MOL0     C 7446   2.966   6.368   0.412 -0.3323  0.6606 -0.7931
   57MOL0     C 7447   2.948   6.225   0.433 -0.6589  0.6357  0.1529
   57MOL0     C 7448   3.060   6.136   0.450  0.5463  0.3499 -0.5065
   57MOL0     C 7449   3.185   6.185   0.466 -0.1998 -0.0608 -0.5108
   57MOL0     O 7450   3.297   6.106   0.498 -0.3853  0.1763  0.7121
   57MOL0     C 7451   3.400   6.108   0.398  0.1178  0.2692  0.3840
   57MOL0     C 7452   3.537   6.131   0.465  0.0865 -0.2441 -0.1955
   57MOL0     C 7453   3.656   6.154   0.361 -0.1374 -0.9838 -0.0986
   57MOL0     C 7454   3.782   6.196   0.423  0.3509  0.4549  0.4540
   57MOL0     C 7455   3.768   6.305   0.522 -0.5664 -0.1587  0.2564
   57MOL0     C 7456   3.738   6.403   0.588 -0.0379  0.3080  1.0541
   57MOL0     C 7457   3.203   6.325   0.453 -0.1996  0.0854 -0.5295
   57MOL0     C 7458   3.101   6.414   0.418  0.4224  0.2398  0.0015
   57MOL0     H 7459   2.503   6.442   0.405 -2.7747  2.9277  1.1594
   57MOL0     H 7460   2.327   6.570   0.303 -1.0319 -2.6301 -1.2495
   57MOL0     H 7461   2.228   6.495   0.059 -0.2022 -0.5984  0.1562
   57MOL0     H 7462   2.331   6.519  -0.084  0.0262  1.2486 -0.1325
   57MOL0     H 7463   2.178   6.722  -0.132  0.7633 -0.5792 -0.4734
   57MOL0     H 7464   2.087   6.676   0.009  1.0282 -1.0998 -0.4708
   57MOL0     H 7465   2.019   6.459  -0.087 -0.9917  0.0152 -0.8172
   57MOL0     H 7466   2.138   6.475  -0.221  1.3020 -2.9499  2.4185
   57MOL0     H 7467   1.895   6.658  -0.161 -0.2716 -2.6253  1.4857
   57MOL0     H 7468   2.004   6.681  -0.292  1.8375 -0.1065  1.0077
   57MOL0     H 7469   1.815   6.447  -0.273 -2.4396 -0.5685 -2.9795
   57MOL0     H 7470   1.958   6.448  -0.379 -1.8476 -0.2360 -1.2810
   57MOL0     H 7471   1.860   6.659  -0.487 -2.4995  0.1966 -1.8030
   57MOL0     H 7472   1.726   6.638  -0.371  0.3219  0.2311  0.6105
   57MOL0     H 7473   1.795   6.462  -0.601  1.6024  3.7303  0.5682
   57MOL0     H 7474   1.676   6.412  -0.468  0.4198  0.7253  2.4975
   57MOL0     H 7475   1.665   6.634  -0.692 -1.7359  1.0244 -0.3401
   57MOL0     H 7476   1.542   6.604  -0.559 -0.3638 -0.4895 -0.1447
   57MOL0     H 7477   1.625   6.526  -0.907  1.3747 -1.4857  0.4082
   57MOL0     H 7478   1.409   6.327  -1.063 -0.2639  1.9713  1.6305
   57MOL0     H 7479   1.462   6.173  -1.006 -1.1610  0.5202 -1.6320
   57MOL0     H 7480   1.611   6.161  -1.155  0.2384  1.1522 -0.8411
   57MOL0     H 7481   1.701   6.250  -1.041 -1.1181  0.4999  0.7748
   57MOL0     H 7482   1.587   6.459  -1.189  2.2366  1.5348 -0.5591
   57MOL0     H 7483   1.744   6.381  -1.225  0.1258  0.1891  3.5888
   57MOL0     H 7484   1.609   6.398  -1.427  1.8786 -0.0175 -0.0211
   57MOL0     H 7485   1.489   6.287  -1.357 -0.2549  2.2003 -0.5801
   57MOL0     H 7486   1.752   5.964  -1.459  0.3914 -0.3157 -0.5088
   57MOL0     H 7487   1.692   5.831  -1.652  1.5888 -0.1156 -2.7573
   57MOL0     H 7488   1.300   5.723  -2.002  0.6166  2.7197 -2.4959
   57MOL0     H 7489   1.315   5.668  -2.233 -0.6824  1.8797 -1.1375
   57MOL0     H 7490   1.382   5.759  -2.425  0.5558  0.1785 -1.3987
   57MOL0     H 7491   1.392   5.579  -2.469  1.5177 -1.2523 -2.9940
   57MOL0     H 7492   1.386   5.756  -2.652 -0.5656  3.1187  1.8613
   57MOL0     H 7493   1.521   5.634  -2.656  1.8271  0.8389  0.9565
   57MOL0     H 7494   1.667   5.813  -2.563  0.6125 -1.2330  0.1011
   57MOL0     H 7495   1.519   5.915  -2.548 -1.7354 -0.6939  0.4537
   57MOL0     H 7496   1.486   5.880  -2.802 -1.1169  1.1629  1.4694
   57MOL0     H 7497   1.599   5.995  -2.748 -1.4659  0.2049 -3.8376
   57MOL0     H 7498   1.695   5.712  -2.844  0.3489 -0.4071  0.9858
   57MOL0     H 7499   1.801   5.837  -2.773  0.5817  1.4171 -0.8308
   57MOL0     H 7500   1.822   5.884  -2.998 -1.5031 -3.2618 -1.4798
   57MOL0     H 7501   1.708   6.009  -2.940  0.6409  0.4242 -0.6064
   57MOL0     H 7502   1.619   5.750  -3.076  0.2254 -0.6436 -0.3410
   57MOL0     H 7503   1.549   5.922  -3.066 -0.7254 -1.7217  1.0661
   57MOL0     H 7504   1.658   5.836  -3.292  1.0221  0.1915 -1.3185
   57MOL0     H 7505   1.809   5.843  -3.208 -1.1451 -1.4385  4.5044
   57MOL0     H 7506   1.742   5.672  -2.207  0.1077  3.7107 -0.2757
   57MOL0     H 7507   1.741   5.701  -1.982  1.6195 -3.2460 -2.3155
   57MOL0     H 7508   1.408   6.143  -1.761 -1.2230 -2.1543  1.7291
   57MOL0     H 7509   1.503   6.283  -1.595  1.1169  0.6775  2.0404
   57MOL0     H 7510   2.604   6.679  -0.010  4.7026 -0.5375 -0.0065
   57MOL0     H 7511   2.782   6.564   0.121 -1.2029 -0.4590 -1.6828
   57MOL0     H 7512   2.850   6.178   0.441 -0.0210 -0.3686  4.7828
   57MOL0     H 7513   3.048   6.028   0.459  4.7692 -0.1045  2.3957
   57MOL0     H 7514   3.372   6.187   0.328 -1.1051 -1.3006 -0.9933
   57MOL0     H 7515   3.403   6.017   0.337  2.1403  0.9189 -0.5772
   57MOL0     H 7516   3.522   6.220   0.527 -1.9883 -2.5116  2.8276
   57MOL0     H 7517   3.560   6.044   0.526  0.3115 -0.5662 -0.7251
   57MOL0     H 7518   3.629   6.228   0.286 -2.4888 -0.2570  1.3467
   57MOL0     H 7519   3.668   6.058   0.310 -1.4672 -1.6879  0.8437
   57MOL0     H 7520   3.827   6.112   0.476  0.0227  0.1070  0.1766
   57MOL0     H 7521   3.855   6.233   0.351  0.5980 -0.2582  0.3316
   57MOL0     H 7522   3.699   6.491   0.636 -0.5865  1.8083 -1.8634
   57MOL0     H 7523   3.301   6.366   0.471  0.7529 -1.3887 -2.1365
   57MOL0     H 7524   3.123   6.521   0.414  0.9121  0.1039 -1.3293
   58MOL0     O 7525   9.604   6.596   6.762  0.0656  0.2229  0.4187
   58MOL0     C 7526   9.606   6.702   6.826 -0.3182  1.1051  0.1240
   58MOL0     O 7527   9.559   6.822   6.776 -0.0057  0.7886  0.2075
   58MOL0     C 7528   9.504   6.815   6.649 -1.1082 -0.1044  0.5314
   58MOL0     C 7529   9.577   6.860   6.539 -1.0218 -0.6565  0.4544
   58MOL0     C 7530   9.514   6.871   6.414 -0.2760 -0.0916 -0.7156
   58MOL0     C 7531   9.387   6.825   6.399  0.3005  0.0124 -0.3365
   58MOL0     O 7532   9.338   6.813   6.269 -0.4441 -0.2630 -0.1857
   58MOL0     C 7533   9.386   6.686   6.225 -0.7891 -0.1148  0.3954
   58MOL0     C 7534   9.336   6.662   6.080 -0.0408 -0.5918  0.0720
   58MOL0     C 7535   9.181   6.662   6.073 -0.7445 -0.0408  0.5384
   58MOL0     C 7536   9.148   6.648   5.926 -0.0535  0.6277 -0.1214
   58MOL0     C 7537   9.003   6.654   5.897 -0.6803 -0.5456  0.1351
   58MOL0     C 7538   8.966   6.581   5.774  0.1626 -0.3844  0.8736
   58MOL0     C 7539   8.828   6.629   5.723  0.6253 -0.1755 -0.2601
   58MOL0     C 7540   8.717   6.601   5.825 -0.0416  0.8452 -0.4218
   58MOL0     N 7541   8.593   6.588   5.744 -0.0998 -0.5516  0.3009
   58MOL0     C 7542   8.545   6.696   5.683  0.4407 -0.3505  0.4869
   58MOL0     C 7543   8.429   6.650   5.629  0.3028 -0.3857 -0.4676
   58MOL0     C 7544   8.348   6.736   5.534 -0.4068 -0.1545 -0.1495
   58MOL0     C 7545   8.400   6.766   5.400 -0.1163 -0.6719  0.9912
   58MOL0     C 7546   8.411   6.649   5.307 -0.7816 -0.1757 -0.2590
   58MOL0     C 7547   8.280   6.574   5.280 -0.4333 -0.9365 -0.8735
   58MOL0     O 7548   8.309   6.472   5.186 -0.1331  0.1134 -0.6369
   58MOL0     C 7549   8.196   6.403   5.146 -0.2425 -0.6576 -0.3420
   58MOL0     C 7550   8.222   6.281   5.087 -0.0326 -0.1226  0.3328
   58MOL0     C 7551   8.125   6.191   5.055 -0.2584 -0.0770  0.0761
   58MOL0     C 7552   7.983   6.226   5.064 -0.3940 -0.4464 -1.8410
   58MOL0     C 7553   7.884   6.120   5.034  0.2052 -0.5720 -0.4560
   58MOL0     O 7554   7.748   6.164   5.024  0.1715  0.0323 -0.2334
   58MOL0     C 7555   7.642   6.073   5.033 -0.5269  0.1219 -0.2703
   58MOL0     C 7556   7.518   6.091   4.978  0.5237 -0.8856  0.7543
   58MOL0     C 7557   7.405   6.006   4.995  0.6250 -0.1301 -0.6581
   58MOL0     C 7558   7.415   5.899   5.084  0.4780 -0.6349 -0.3792
   58MOL0     O 7559   7.304   5.813   5.092  0.0125  0.1811  0.5197
   58MOL0     C 7560   7.296   5.713   5.195 -0.8991  0.4769 -0.4973
   58MOL0     C 7561   7.174   5.628   5.192  0.4299  0.3204 -0.5652
   58MOL0     C 7562   7.191   5.492   5.245 -0.0402  0.0411  0.4906
   58MOL0     C 7563   7.058   5.417   5.244  0.3223  0.3353 -0.2483
   58MOL0     C 7564   7.071   5.285   5.316  0.1054  0.1999 -0.5331
   58MOL0     C 7565   6.961   5.174   5.299 -0.2817 -0.2182 -0.3297
   58MOL0     C 7566   6.836   5.224   5.364 -0.1230  0.1727 -0.6500
   58MOL0     C 7567   6.729   5.129   5.335  0.3259 -0.4590  0.3177
   58MOL0    Cl 7568   6.711   5.096   5.163 -0.0450  0.9284  0.2509
   58MOL0     C 7569   7.540   5.881   5.142  0.4264  0.2455  0.8852
   58MOL0     C 7570   7.650   5.962   5.116  0.6828 -0.3898  0.0346
   58MOL0     O 7571   7.928   6.007   5.003  0.0158  0.4249  0.3301
   58MOL0     C 7572   7.954   6.358   5.121  0.4610 -0.3680  0.5882
   58MOL0     C 7573   8.059   6.443   5.163  0.3283  0.3044 -0.0289
   58MOL0     N 7574   8.417   6.514   5.659 -0.7520 -0.3829  0.3542
   58MOL0     N 7575   8.522   6.475   5.724 -0.0912 -0.2013  0.7428
   58MOL0     C 7576   9.324   6.761   6.508  0.6009 -0.4588  0.3183
   58MOL0     C 7577   9.380   6.760   6.637  0.3119 -0.1093  0.5382
   58MOL0     C 7578   9.681   6.703   6.955 -0.3781 -0.3548  0.6389
   58MOL0     C 7579   9.763   6.592   6.992  0.0289 -0.3991 -0.6103
   58MOL0     C 7580   9.836   6.593   7.112  0.2315  0.2258 -0.3722
   58MOL0     C 7581   9.854   6.717   7.178 -0.9643 -0.1109 -0.8757
   58MOL0     O 7582   9.915   6.724   7.300 -0.4837 -0.4546  0.5542
   58MOL0     C 7583   9.975   6.610   7.366 -0.3152 -0.0678  0.2041
   58MOL0     C 7584  10.012   6.638   7.512 -0.2515 -0.5810  1.0822
   58MOL0     C 7585   9.903   6.706   7.595 -0.0035  0.5059  1.2343
   58MOL0     C 7586   9.933   6.852   7.625  0.2388 -0.3871 -0.7508
   58MOL0     C 7587   9.822   6.919   7.690 -0.3890  0.4351  0.7871
   58MOL0     C 7588   9.730   6.963   7.759 -1.0448  0.8421 -0.5172
   58MOL0     C 7589   9.773   6.831   7.136 -1.1849  0.5826  0.5110
   58MOL0     C 7590   9.691   6.817   7.024  0.0270  0.1634  0.0530
   58MOL0     H 7591   9.682   6.885   6.550 -0.0322 -2.3098 -3.4222
   58MOL0     H 7592   9.560   6.908   6.323 -1.9533 -0.3956 -1.7383
   58MOL0     H 7593   9.351   6.603   6.286  0.4584 -1.9713 -1.2824
   58MOL0     H 7594   9.494   6.678   6.238 -0.9490 -0.3935  1.7075
   58MOL0     H 7595   9.371   6.564   6.046  2.7904  0.0055  0.9862
   58MOL0     H 7596   9.381   6.750   6.034 -0.0601  0.7144  2.4224
   58MOL0     H 7597   9.141   6.754   6.118 -1.4892 -0.1704  0.1676
   58MOL0     H 7598   9.134   6.586   6.136 -1.6711 -0.0314 -0.1172
   58MOL0     H 7599   9.189   6.728   5.864 -2.0805  1.6917 -0.1627
   58MOL0     H 7600   9.182   6.552   5.886 -0.2564 -1.0400  3.2796
   58MOL0     H 7601   8.980   6.759   5.883 -0.8689 -0.7974 -1.7100
   58MOL0     H 7602   8.956   6.617   5.989  0.5985  0.6269  1.3064
   58MOL0     H 7603   8.968   6.472   5.784  1.3333 -0.4090  0.5948
   58MOL0     H 7604   9.041   6.604   5.699 -0.1896  0.4508  0.7761
   58MOL0     H 7605   8.834   6.736   5.702  0.3262  0.3093  1.8680
   58MOL0     H 7606   8.800   6.585   5.627 -3.7209  2.4383 -0.4443
   58MOL0     H 7607   8.720   6.678   5.902  0.5392  1.6031 -1.1713
   58MOL0     H 7608   8.721   6.500   5.866  1.6259  1.1211  0.1639
   58MOL0     H 7609   8.592   6.794   5.679 -0.9698  0.3990  1.4059
   58MOL0     H 7610   8.325   6.832   5.581  0.2902 -0.1936  0.2922
   58MOL0     H 7611   8.256   6.676   5.533  0.0494 -0.8678 -1.6901
   58MOL0     H 7612   8.500   6.808   5.413  0.0564 -0.3165 -1.0862
   58MOL0     H 7613   8.326   6.833   5.354  2.7784  2.9062  1.1304
   58MOL0     H 7614   8.446   6.690   5.212  0.2752 -0.6782 -0.1026
   58MOL0     H 7615   8.494   6.586   5.342 -0.0730 -0.7124 -2.7018
   58MOL0     H 7616   8.213   6.649   5.236  0.1106 -0.5697 -1.0818
   58MOL0     H 7617   8.242   6.541   5.378  0.2245  0.6480 -0.0589
   58MOL0     H 7618   8.327   6.260   5.068  0.1546  0.3969  0.7986
   58MOL0     H 7619   8.161   6.108   4.995 -1.5558  0.4889 -1.5707
   58MOL0     H 7620   7.501   6.185   4.926  0.9102 -1.7837 -1.0870
   58MOL0     H 7621   7.316   6.025   4.936  0.3231  0.8725  0.0870
   58MOL0     H 7622   7.307   5.767   5.290  0.1552  0.0302 -0.3473
   58MOL0     H 7623   7.388   5.654   5.186 -0.7191  0.7381 -0.3742
   58MOL0     H 7624   7.129   5.618   5.093 -0.6075  0.7921 -0.1547
   58MOL0     H 7625   7.091   5.678   5.243  0.1649 -0.1420 -0.5378
   58MOL0     H 7626   7.230   5.495   5.348  1.2965 -3.0229  0.1851
   58MOL0     H 7627   7.259   5.434   5.182  0.3929 -0.1029  1.0818
   58MOL0     H 7628   6.978   5.476   5.289 -1.1385 -0.5558 -1.5768
   58MOL0     H 7629   7.025   5.393   5.142  0.1809 -0.8947  0.0677
   58MOL0     H 7630   7.078   5.301   5.424 -0.3139 -1.3404 -0.2427
   58MOL0     H 7631   7.167   5.238   5.295 -0.3079 -2.0794  2.0134
   58MOL0     H 7632   6.989   5.083   5.352  0.7102 -0.4946 -1.2804
   58MOL0     H 7633   6.956   5.149   5.193 -0.0129 -1.6425 -0.0249
   58MOL0     H 7634   6.849   5.233   5.472  3.7234  3.3371 -1.1468
   58MOL0     H 7635   6.802   5.317   5.318  0.4634  0.9297  0.4305
   58MOL0     H 7636   6.638   5.186   5.360  1.2283  2.4311 -2.3788
   58MOL0     H 7637   6.728   5.035   5.391  1.9703  0.1317  1.3970
   58MOL0     H 7638   7.571   5.797   5.202  3.8120  1.1595  0.5899
   58MOL0     H 7639   7.742   5.942   5.170  0.6768 -1.3153 -0.2752
   58MOL0     H 7640   7.849   6.385   5.121  0.7202  0.7251  1.4949
   58MOL0     H 7641   8.036   6.541   5.202  1.2079  0.1914  0.8332
   58MOL0     H 7642   9.221   6.726   6.500 -0.5102  1.6026  3.5046
   58MOL0     H 7643   9.335   6.708   6.721 -0.7508 -2.2011 -1.2288
   58MOL0     H 7644   9.756   6.494   6.945  1.6549 -1.9319  2.0144
   58MOL0     H 7645   9.874   6.500   7.154 -2.6457 -0.3444  1.2648
   58MOL0     H 7646  10.067   6.584   7.313 -0.6402  0.6692 -0.7307
   58MOL0     H 7647   9.907   6.525   7.361  1.0141 -1.1243 -0.6251
   58MOL0     H 7648  10.045   6.542   7.550  3.5754  1.0002  2.2181
   58MOL0     H 7649  10.100   6.702   7.505 -0.9690  0.2842 -3.8125
   58MOL0     H 7650   9.873   6.657   7.688 -0.6811  0.9872  1.2786
   58MOL0     H 7651   9.806   6.710   7.543 -0.4783 -3.3692  1.5133
   58MOL0     H 7652  10.025   6.854   7.684 -0.2645  0.7791  0.0262
   58MOL0     H 7653   9.940   6.909   7.531 -0.1562 -3.1321 -2.5738
   58MOL0     H 7654   9.660   6.980   7.838  1.1271 -0.1924  1.7872
   58MOL0     H 7655   9.781   6.922   7.194 -3.0883  1.0410  0.1303
   58MOL0     H 7656   9.627   6.903   7.002  0.4969  0.2217 -1.1607
   59MOL0     O 7657   7.016   9.465   8.947  0.4480  0.1608 -1.2722
   59MOL0     C 7658   6.967   9.463   9.060  0.8257 -1.1435 -0.4594
   59MOL0     O 7659   7.042   9.452   9.169 -0.2163  0.5753 -0.2498
   59MOL0     C 7660   7.174   9.416   9.162 -0.4913  0.5009  0.5402
   59MOL0     C 7661   7.209   9.280   9.170 -0.2138 -0.0981 -0.1295
   59MOL0     C 7662   7.332   9.232   9.167 -0.8281 -0.3075  0.8508
   59MOL0     C 7663   7.438   9.317   9.145 -0.2657  1.1033 -0.9293
   59MOL0     O 7664   7.564   9.270   9.144 -0.0341 -0.0722 -0.5829
   59MOL0     C 7665   7.641   9.319   9.039  0.0567 -0.3362  0.3059
   59MOL0     C 7666   7.756   9.231   9.003  0.0351  0.4456 -0.8768
   59MOL0     C 7667   7.846   9.247   9.133 -0.3071 -0.2560  0.4064
   59MOL0     C 7668   7.971   9.161   9.133 -0.4019  0.0122  0.7159
   59MOL0     C 7669   8.055   9.186   9.000  0.4254  0.1160 -0.5763
   59MOL0     C 7670   8.191   9.109   9.028 -0.4848  0.0917  0.6215
   59MOL0     C 7671   8.267   9.105   8.892 -0.0166  0.0489 -0.1525
   59MOL0     C 7672   8.395   9.013   8.890  0.5686  0.7595  0.6056
   59MOL0     N 7673   8.385   8.875   8.950 -0.2190 -0.2531  1.0626
   59MOL0     C 7674   8.320   8.772   8.888 -0.1727  0.2365  0.7386
   59MOL0     C 7675   8.368   8.662   8.951 -0.4025  0.7545  0.7012
   59MOL0     C 7676   8.350   8.519   8.902  0.0623 -0.6527  0.2983
   59MOL0     C 7677   8.227   8.452   8.965 -0.0224 -0.1362  0.0178
   59MOL0     C 7678   8.107   8.505   8.886 -0.0450  0.0039  0.8724
   59MOL0     C 7679   7.981   8.464   8.946 -0.8302  0.0001  0.4772
   59MOL0     O 7680   7.987   8.323   8.980 -0.0817 -0.6928  0.5265
   59MOL0     C 7681   7.879   8.244   8.945  0.0642  0.1834  0.1444
   59MOL0     C 7682   7.835   8.228   8.812  0.5975  0.1734 -0.6055
   59MOL0     C 7683   7.707   8.177   8.793  0.4567  0.0466 -0.1946
   59MOL0     C 7684   7.629   8.124   8.903 -0.5257  0.5797  0.8039
   59MOL0     C 7685   7.491   8.072   8.884 -0.1879 -0.1724  0.4398
   59MOL0     O 7686   7.453   8.031   8.761  0.0005 -0.4059 -0.9398
   59MOL0     C 7687   7.328   7.961   8.754  0.8316  0.3448  0.4027
   59MOL0     C 7688   7.241   7.987   8.646 -0.2107  0.1400  0.1052
   59MOL0     C 7689   7.135   7.902   8.624 -0.5316  0.0175 -0.2283
   59MOL0     C 7690   7.096   7.802   8.725 -0.6147  0.1123 -0.4146
   59MOL0     O 7691   6.998   7.715   8.708  0.0483  0.0737  0.3606
   59MOL0     C 7692   6.864   7.764   8.689  0.3736 -0.2795  0.3996
   59MOL0     C 7693   6.810   7.666   8.599 -0.4297 -0.3423  0.5558
   59MOL0     C 7694   6.658   7.695   8.576 -0.3978  0.3893 -0.1460
   59MOL0     C 7695   6.615   7.591   8.471 -0.2439  0.3814 -0.0915
   59MOL0     C 7696   6.647   7.609   8.323  0.1905 -0.6110 -0.2516
   59MOL0     C 7697   6.588   7.487   8.258  0.2603  0.4189 -1.1291
   59MOL0     C 7698   6.626   7.475   8.113  0.3825  0.1064  0.3535
   59MOL0     C 7699   6.616   7.602   8.025  0.1291 -0.6671  0.5267
   59MOL0    Cl 7700   6.743   7.595   7.882 -0.0697  0.3705 -0.3913
   59MOL0     C 7701   7.179   7.788   8.841 -0.8881  0.1531 -0.2539
   59MOL0     C 7702   7.301   7.861   8.843  0.9611  0.5290 -0.1124
   59MOL0     O 7703   7.423   8.074   8.989  0.1127  0.4040 -0.0341
   59MOL0     C 7704   7.690   8.120   9.024 -0.6932 -0.1914 -0.4197
   59MOL0     C 7705   7.809   8.186   9.050  0.1608 -0.6261  0.5835
   59MOL0     N 7706   8.438   8.702   9.058 -0.1139 -0.9901 -0.8942
   59MOL0     N 7707   8.462   8.834   9.052 -0.0764  0.6140 -0.4461
   59MOL0     C 7708   7.413   9.457   9.143  0.7322  0.3506 -0.0010
   59MOL0     C 7709   7.280   9.507   9.162  0.6280  0.1630 -0.3485
   59MOL0     C 7710   6.827   9.497   9.083  0.9698  0.2879  0.0651
   59MOL0     C 7711   6.765   9.507   9.208 -0.1918 -0.2351 -0.1762
   59MOL0     C 7712   6.636   9.546   9.224  0.3381  0.1857 -0.3743
   59MOL0     C 7713   6.563   9.588   9.114 -0.8731  0.0404  1.3077
   59MOL0     O 7714   6.436   9.630   9.143  0.1699 -0.1432 -0.0672
   59MOL0     C 7715   6.338   9.696   9.054  1.1790  0.4376  0.0220
   59MOL0     C 7716   6.380   9.830   9.006 -0.3256 -0.0895  0.3655
   59MOL0     C 7717   6.359   9.937   9.115 -0.5661 -0.6300 -0.0559
   59MOL0     C 7718   6.378  10.076   9.060 -0.1614 -0.4899  0.6919
   59MOL0     C 7719   6.280  10.121   8.954 -0.5786 -0.4680 -0.8054
   59MOL0     C 7720   6.207  10.176   8.883  0.7430 -0.8329  0.2295
   59MOL0     C 7721   6.622   9.590   8.988 -0.4870  0.1741  0.0799
   59MOL0     C 7722   6.758   9.539   8.972 -0.1973 -0.1384  1.0304
   59MOL0     H 7723   7.128   9.209   9.183 -0.4717  0.3305  0.6449
   59MOL0     H 7724   7.354   9.126   9.174  0.4437 -0.4912 -3.1835
   59MOL0     H 7725   7.668   9.423   9.059 -1.4539  0.9130 -3.2825
   59MOL0     H 7726   7.587   9.317   8.944  0.6623  0.8801 -0.0924
   59MOL0     H 7727   7.814   9.271   8.920 -1.3152  3.7650 -0.3709
   59MOL0     H 7728   7.714   9.131   8.989 -1.2022  0.6468  1.0039
   59MOL0     H 7729   7.796   9.214   9.225 -0.1091  0.8177  0.9176
   59MOL0     H 7730   7.877   9.352   9.127  1.9898 -0.9648 -1.4164
   59MOL0     H 7731   8.032   9.180   9.222 -2.8918  1.1890  2.2961
   59MOL0     H 7732   7.937   9.057   9.133 -3.5460  0.9066  2.1730
   59MOL0     H 7733   8.073   9.293   8.984  1.0381 -0.2768 -2.9358
   59MOL0     H 7734   8.004   9.135   8.918 -0.8708  1.0674 -0.3904
   59MOL0     H 7735   8.173   9.005   9.057  0.3687 -0.8586 -1.9922
   59MOL0     H 7736   8.236   9.168   9.108  1.4080  2.1248 -1.7935
   59MOL0     H 7737   8.201   9.070   8.813 -2.9667 -2.7433  3.1996
   59MOL0     H 7738   8.296   9.210   8.883 -2.6494  0.9214  0.7360
   59MOL0     H 7739   8.469   9.067   8.952 -0.5612  1.2040  1.6031
   59MOL0     H 7740   8.443   9.011   8.791 -1.5660 -0.0470 -0.4688
   59MOL0     H 7741   8.251   8.782   8.805  1.8841 -0.0993 -1.1155
   59MOL0     H 7742   8.438   8.465   8.937  1.4620  1.5536  0.4025
   59MOL0     H 7743   8.345   8.516   8.793  0.1583 -0.6217  0.2927
   59MOL0     H 7744   8.218   8.466   9.073  2.0724 -3.6114  0.7880
   59MOL0     H 7745   8.232   8.343   8.954 -0.1301  0.0375 -2.2070
   59MOL0     H 7746   8.119   8.613   8.870  1.2077 -0.1547  0.5806
   59MOL0     H 7747   8.103   8.469   8.783 -1.5973  0.2174  0.8348
   59MOL0     H 7748   7.901   8.489   8.875  1.0604  1.0784 -1.3573
   59MOL0     H 7749   7.966   8.519   9.040  3.5022 -0.5744  1.7023
   59MOL0     H 7750   7.894   8.282   8.739  0.7259  2.4544  1.0803
   59MOL0     H 7751   7.653   8.184   8.698 -2.2717 -0.1128  1.2338
   59MOL0     H 7752   7.274   8.070   8.585  1.3501  0.2137  0.9808
   59MOL0     H 7753   7.075   7.906   8.534  0.2813  1.3480 -0.7366
   59MOL0     H 7754   6.840   7.869   8.667  1.2129  0.0475  0.9724
   59MOL0     H 7755   6.809   7.746   8.782 -3.8832 -2.1696 -2.1868
   59MOL0     H 7756   6.830   7.569   8.644  0.4060 -0.0555  0.8247
   59MOL0     H 7757   6.866   7.696   8.510 -0.6465  0.5568  0.7118
   59MOL0     H 7758   6.644   7.796   8.538 -1.2771  0.7634  1.0940
   59MOL0     H 7759   6.606   7.684   8.672 -0.7709 -0.0534 -0.3903
   59MOL0     H 7760   6.649   7.489   8.494 -2.1531 -0.3665 -0.3717
   59MOL0     H 7761   6.506   7.591   8.473 -0.3549  3.9040  0.3325
   59MOL0     H 7762   6.755   7.592   8.314  0.2206 -0.6618  0.2033
   59MOL0     H 7763   6.614   7.705   8.281  0.3684 -0.8584 -0.9744
   59MOL0     H 7764   6.481   7.502   8.278  0.6642  1.7584  0.1655
   59MOL0     H 7765   6.614   7.396   8.314 -2.0363  0.7522  0.6486
   59MOL0     H 7766   6.721   7.421   8.115 -1.7723 -4.0676 -0.0144
   59MOL0     H 7767   6.565   7.396   8.070  0.8702 -0.3791  0.5365
   59MOL0     H 7768   6.646   7.689   8.084  1.5735  0.4071 -1.6547
   59MOL0     H 7769   6.518   7.633   7.987 -0.7110 -1.0555  2.2591
   59MOL0     H 7770   7.154   7.704   8.905  1.1206 -0.8494 -0.6833
   59MOL0     H 7771   7.373   7.834   8.920  0.0694  1.6469  1.1664
   59MOL0     H 7772   7.639   8.070   9.106  1.5933 -0.9144  0.6477
   59MOL0     H 7773   7.852   8.192   9.150  0.0763  1.2730  0.5397
   59MOL0     H 7774   7.498   9.524   9.144  1.0139  0.0466 -1.6325
   59MOL0     H 7775   7.275   9.615   9.171  3.3446  0.2417  1.3499
   59MOL0     H 7776   6.822   9.511   9.300 -0.5034 -0.3271  0.0227
   59MOL0     H 7777   6.591   9.567   9.320  1.4175  2.7179 -0.3340
   59MOL0     H 7778   6.242   9.711   9.104 -0.0298  1.7352 -2.4830
   59MOL0     H 7779   6.330   9.648   8.957  3.5959  2.2631 -1.1913
   59MOL0     H 7780   6.488   9.822   8.988 -0.6361  0.5603 -2.1214
   59MOL0     H 7781   6.324   9.841   8.913 -0.9475 -4.0454  0.0845
   59MOL0     H 7782   6.431   9.929   9.196  3.3544  3.1398 -2.7438
   59MOL0     H 7783   6.256   9.921   9.149 -0.7589 -0.9493 -0.7646
   59MOL0     H 7784   6.378  10.145   9.146  2.1903 -2.4878  2.4512
   59MOL0     H 7785   6.478  10.089   9.018  0.3634 -0.1906  1.9676
   59MOL0     H 7786   6.135  10.224   8.820  0.4440  0.3979  1.4308
   59MOL0     H 7787   6.584   9.643   8.902  1.8273  1.5865 -0.1608
   59MOL0     H 7788   6.797   9.521   8.872 -2.2271 -2.1305  0.5148
   60MOL0     O 7789   6.696   9.628   6.964  0.9999 -0.8076 -0.0751
   60MOL0     C 7790   6.617   9.546   6.913  0.5555 -0.2252 -0.7558
   60MOL0     O 7791   6.534   9.568   6.812 -0.2324  0.2481  0.1663
   60MOL0     C 7792   6.561   9.669   6.718 -0.3200  0.1716  0.4621
   60MOL0     C 7793   6.685   9.714   6.666  0.1121  0.3248  0.8599
   60MOL0     C 7794   6.702   9.793   6.555 -0.2615 -0.4684 -1.2500
   60MOL0     C 7795   6.589   9.850   6.504  0.8558  0.0576 -0.2752
   60MOL0     O 7796   6.603   9.931   6.398 -0.1699 -0.5293 -0.3549
   60MOL0     C 7797   6.503   9.930   6.293 -0.1508  0.0961 -0.6883
   60MOL0     C 7798   6.539  10.031   6.190  0.1570 -0.0667  0.1518
   60MOL0     C 7799   6.516  10.179   6.236 -0.0481  0.2900  0.6075
   60MOL0     C 7800   6.592  10.285   6.159  0.3809 -0.1916  0.1886
   60MOL0     C 7801   6.557  10.424   6.205 -0.2407 -0.2353 -0.7521
   60MOL0     C 7802   6.648  10.527   6.160  0.5489 -0.9785 -0.9331
   60MOL0     C 7803   6.590  10.669   6.161  0.5691 -0.2716 -0.8438
   60MOL0     C 7804   6.702  10.776   6.133  0.4404 -0.5708 -0.2395
   60MOL0     N 7805   6.794  10.801   6.241  0.5782  0.6359  0.2778
   60MOL0     C 7806   6.758  10.862   6.359 -0.2504 -0.3846 -0.1250
   60MOL0     C 7807   6.846  10.819   6.455  0.6507  0.7406  0.1027
   60MOL0     C 7808   6.827  10.849   6.601  0.2579  0.6819 -0.4016
   60MOL0     C 7809   6.849  10.715   6.677 -0.7650 -0.3113 -0.3434
   60MOL0     C 7810   6.834  10.700   6.825 -0.1715  0.6855  0.0689
   60MOL0     C 7811   6.889  10.572   6.883 -0.8465  0.6786 -0.5593
   60MOL0     O 7812   6.903  10.576   7.026 -0.6043  0.3865 -0.3897
   60MOL0     C 7813   6.929  10.469   7.092  0.4824 -0.5325 -0.4355
   60MOL0     C 7814   6.841  10.428   7.198 -0.9163  1.4012  0.1511
   60MOL0     C 7815   6.862  10.307   7.270 -0.6757 -0.0890  1.1532
   60MOL0     C 7816   6.953  10.214   7.221 -0.7823  0.3659  0.4644
   60MOL0     C 7817   6.972  10.080   7.270 -0.2121  0.3698  0.2233
   60MOL0     O 7818   7.050  10.006   7.193  0.6108  0.0412  0.4670
   60MOL0     C 7819   7.049   9.872   7.222 -0.3066  0.3099  0.7156
   60MOL0     C 7820   7.118   9.824   7.336  0.4218 -0.6966  1.7684
   60MOL0     C 7821   7.125   9.683   7.356  0.3825 -0.5966  0.2539
   60MOL0     C 7822   7.081   9.589   7.253 -0.1748  0.5029 -0.4039
   60MOL0     O 7823   7.092   9.456   7.284 -0.4986 -0.0675 -0.2253
   60MOL0     C 7824   6.999   9.410   7.379  0.2571 -0.0172 -0.5914
   60MOL0     C 7825   7.000   9.264   7.411 -0.7479  0.9543  0.1971
   60MOL0     C 7826   6.912   9.220   7.527 -0.3001  0.2257 -0.4508
   60MOL0     C 7827   6.912   9.065   7.532 -0.0074  0.6222 -0.7111
   60MOL0     C 7828   6.826   9.024   7.653  0.5270  0.8227 -1.0309
   60MOL0     C 7829   6.822   8.875   7.667 -0.5643  0.3429  0.2270
   60MOL0     C 7830   6.771   8.814   7.533  0.1917 -0.4544  0.3367
   60MOL0     C 7831   6.768   8.667   7.538 -0.3440  1.3856  0.4441
   60MOL0    Cl 7832   6.614   8.581   7.594 -0.2124 -0.5267 -0.2386
   60MOL0     C 7833   7.008   9.638   7.139 -1.2474  0.0427  0.9885
   60MOL0     C 7834   6.985   9.778   7.128  0.1523 -0.7584 -0.5300
   60MOL0     O 7835   6.919  10.038   7.372 -0.6593 -0.3550 -0.0883
   60MOL0     C 7836   7.046  10.265   7.127 -0.7109  0.1165  0.3527
   60MOL0     C 7837   7.036  10.385   7.061  0.0935 -0.0650  0.9527
   60MOL0     N 7838   6.939  10.734   6.398  0.5714 -0.4789 -0.0916
   60MOL0     N 7839   6.911  10.722   6.272  1.1121  0.3051 -0.3745
   60MOL0     C 7840   6.464   9.824   6.559  0.0707 -0.5676  0.2250
   60MOL0     C 7841   6.447   9.733   6.669  0.7366 -0.4794  0.6158
   60MOL0     C 7842   6.599   9.415   7.001 -0.4576  0.5772 -0.2619
   60MOL0     C 7843   6.495   9.329   6.977  0.2853 -0.2612  0.5564
   60MOL0     C 7844   6.485   9.203   7.045  0.6700  0.3642 -0.0656
   60MOL0     C 7845   6.580   9.176   7.143  0.6157 -0.0392 -0.4541
   60MOL0     O 7846   6.588   9.053   7.210 -0.4204 -0.6619 -0.9359
   60MOL0     C 7847   6.621   8.948   7.122 -0.4089 -0.0954 -0.3764
   60MOL0     C 7848   6.769   8.912   7.129 -0.6522  0.1793  0.4011
   60MOL0     C 7849   6.798   8.784   7.039  0.3788 -0.8122 -0.6840
   60MOL0     C 7850   6.777   8.654   7.118  0.1773  0.0770  0.2938
   60MOL0     C 7851   6.635   8.621   7.150  0.4007 -0.3105  0.1693
   60MOL0     C 7852   6.519   8.591   7.174 -0.6154  0.7289  0.2689
   60MOL0     C 7853   6.677   9.272   7.179  0.1445 -0.4234  0.8744
   60MOL0     C 7854   6.682   9.388   7.107 -0.4212  1.0040  0.8710
   60MOL0     H 7855   6.773   9.660   6.701 -0.3769 -0.6906  0.5846
   60MOL0     H 7856   6.798   9.811   6.509 -0.6363 -0.5950 -2.1073
   60MOL0     H 7857   6.416   9.965   6.349 -0.4535 -2.5941  0.6687
   60MOL0     H 7858   6.475   9.832   6.254 -0.6402 -0.7207  1.5708
   60MOL0     H 7859   6.477  10.012   6.102 -2.7876  3.6477  1.1659
   60MOL0     H 7860   6.642  10.013   6.159  0.8370  0.6362  1.8516
   60MOL0     H 7861   6.547  10.192   6.340  2.8084  0.5002 -0.1822
   60MOL0     H 7862   6.408  10.197   6.243 -0.7012 -1.8495 -2.2795
   60MOL0     H 7863   6.697  10.271   6.187  0.3932 -0.5324 -0.0284
   60MOL0     H 7864   6.566  10.266   6.054 -1.7162  0.6119  0.5031
   60MOL0     H 7865   6.548  10.432   6.313  0.1170  3.8896 -0.8639
   60MOL0     H 7866   6.454  10.449   6.177 -0.2848  0.6745  0.1720
   60MOL0     H 7867   6.672  10.508   6.055  2.1032  1.6551 -1.1431
   60MOL0     H 7868   6.741  10.520   6.216 -0.4214  1.0820  1.1049
   60MOL0     H 7869   6.517  10.667   6.079 -0.0201 -2.2158 -0.3278
   60MOL0     H 7870   6.532  10.689   6.251  1.6398  0.0427 -0.2161
   60MOL0     H 7871   6.656  10.868   6.096 -1.6408 -0.9112  1.2848
   60MOL0     H 7872   6.761  10.736   6.050 -1.1773 -1.0659 -1.2030
   60MOL0     H 7873   6.669  10.923   6.369  0.2084  0.4724 -1.1122
   60MOL0     H 7874   6.730  10.892   6.630 -0.5085 -0.7855 -0.6548
   60MOL0     H 7875   6.901  10.925   6.626  0.4233  1.8961 -3.9810
   60MOL0     H 7876   6.953  10.694   6.649 -1.0590 -1.6513 -0.4826
   60MOL0     H 7877   6.785  10.642   6.626 -1.4171  0.2656 -0.3702
   60MOL0     H 7878   6.892  10.785   6.862  1.2579 -1.3925  2.9750
   60MOL0     H 7879   6.730  10.710   6.857  0.4033  1.5207  1.8383
   60MOL0     H 7880   6.988  10.542   6.847 -0.6766  0.0543  0.4003
   60MOL0     H 7881   6.831  10.487   6.843  0.4443 -0.6729  0.3267
   60MOL0     H 7882   6.750  10.483   7.220 -1.5802  1.3160 -2.1422
   60MOL0     H 7883   6.801  10.283   7.356 -0.9191 -1.6855  0.5746
   60MOL0     H 7884   7.151   9.898   7.408 -0.0534  0.5332  0.7526
   60MOL0     H 7885   7.176   9.636   7.440  0.7253 -1.1873 -0.2780
   60MOL0     H 7886   6.900   9.415   7.332  1.5302 -5.6682 -4.9688
   60MOL0     H 7887   7.019   9.458   7.475  1.5057 -0.9915 -0.3294
   60MOL0     H 7888   7.101   9.227   7.428 -0.8405  0.8266  0.4874
   60MOL0     H 7889   6.968   9.214   7.320  0.4897 -0.3959  0.4736
   60MOL0     H 7890   6.810   9.256   7.511 -1.2619 -1.8521  0.5902
   60MOL0     H 7891   6.942   9.267   7.622 -0.9149 -0.9515  0.3512
   60MOL0     H 7892   6.860   9.039   7.439 -0.3689  0.8844 -0.5895
   60MOL0     H 7893   7.011   9.021   7.545 -0.5696 -0.2343  0.9169
   60MOL0     H 7894   6.728   9.070   7.642  0.0243 -0.4204 -1.8929
   60MOL0     H 7895   6.881   9.059   7.741  2.3591 -1.8082 -1.0224
   60MOL0     H 7896   6.742   8.838   7.733 -1.1980  0.7884 -0.2842
   60MOL0     H 7897   6.923   8.844   7.696 -1.5270 -2.6501  0.7168
   60MOL0     H 7898   6.675   8.861   7.513  0.1667 -0.0452  1.3285
   60MOL0     H 7899   6.841   8.835   7.451 -3.7776  3.5318 -2.4828
   60MOL0     H 7900   6.836   8.642   7.620 -0.3525 -1.6704 -0.3313
   60MOL0     H 7901   6.811   8.624   7.447 -1.5912 -1.7382  1.1938
   60MOL0     H 7902   6.968   9.574   7.060  2.1222 -1.5270  0.3603
   60MOL0     H 7903   6.932   9.821   7.044  0.1358 -0.4428 -0.3616
   60MOL0     H 7904   7.129  10.206   7.089 -1.4371  1.1195 -3.1567
   60MOL0     H 7905   7.108  10.412   6.984 -0.9494  0.0884  0.0030
   60MOL0     H 7906   6.372   9.857   6.512  0.9030 -0.2980 -1.2983
   60MOL0     H 7907   6.350   9.699   6.701  0.5538 -0.8766 -0.3325
   60MOL0     H 7908   6.424   9.348   6.897 -0.9791  0.1640  1.7402
   60MOL0     H 7909   6.401   9.136   7.028  0.4320  0.9315 -1.1987
   60MOL0     H 7910   6.590   8.966   7.018  1.9832 -0.7401 -1.2767
   60MOL0     H 7911   6.561   8.861   7.149  2.2948 -2.0524 -0.2256
   60MOL0     H 7912   6.816   9.005   7.095 -0.0689 -0.2457  0.0261
   60MOL0     H 7913   6.796   8.879   7.230  3.1476 -3.5800 -1.5184
   60MOL0     H 7914   6.900   8.795   6.999 -0.2025  1.5124 -1.7112
   60MOL0     H 7915   6.731   8.794   6.953 -0.2899  2.7668  0.0617
   60MOL0     H 7916   6.828   8.570   7.069 -0.2295 -1.9284  3.0780
   60MOL0     H 7917   6.826   8.660   7.215 -0.4247  1.6404  0.5269
   60MOL0     H 7918   6.418   8.563   7.196 -0.4133  1.9919  3.2538
   60MOL0     H 7919   6.754   9.242   7.249  2.2908  2.7027  0.0433
   60MOL0     H 7920   6.761   9.459   7.126  4.0281 -3.0722 -0.4848
   61MOL0     O 7921   3.755   9.058   8.604  0.3236  0.3622 -0.4910
   61MOL0     C 7922   3.836   9.045   8.510 -0.2960 -0.0525  0.3411
   61MOL0     O 7923   3.807   9.039   8.373  0.3044  0.1314 -0.0208
   61MOL0     C 7924   3.669   9.027   8.332  0.1516 -0.6835 -0.2383
   61MOL0     C 7925   3.648   8.945   8.222  0.2179  1.1430 -0.1524
   61MOL0     C 7926   3.529   8.938   8.149 -0.3521 -1.1770 -0.5255
   61MOL0     C 7927   3.426   9.018   8.195  0.1699 -0.1348 -0.2969
   61MOL0     O 7928   3.305   9.001   8.134  0.1910 -0.4736 -0.4065
   61MOL0     C 7929   3.184   8.965   8.206  0.1246 -0.3550  0.1298
   61MOL0     C 7930   3.099   9.095   8.237 -0.0817 -0.3681  0.0039
   61MOL0     C 7931   2.954   9.088   8.278 -0.2023 -0.0955 -1.7041
   61MOL0     C 7932   2.944   8.993   8.390 -0.4058 -0.7442 -0.1832
   61MOL0     C 7933   2.788   8.977   8.424 -0.6087 -0.2235  0.0159
   61MOL0     C 7934   2.751   8.910   8.559 -0.4978  0.3068 -0.0736
   61MOL0     C 7935   2.854   8.799   8.601 -0.1505  0.7754 -0.2294
   61MOL0     C 7936   2.811   8.728   8.728 -0.3094 -0.8666  0.7080
   61MOL0     N 7937   2.933   8.655   8.760  0.4572  0.7128  0.2643
   61MOL0     C 7938   3.021   8.690   8.864 -0.2738  0.1258  0.4969
   61MOL0     C 7939   3.108   8.588   8.883  0.8745  0.0314 -0.5141
   61MOL0     C 7940   3.210   8.579   8.994  0.0769  0.9031  0.9133
   61MOL0     C 7941   3.317   8.470   8.971  0.9830 -0.8070  0.7786
   61MOL0     C 7942   3.450   8.501   9.049 -0.9270 -0.1703  0.1789
   61MOL0     C 7943   3.578   8.421   9.017 -0.4179  0.2611  0.0675
   61MOL0     O 7944   3.688   8.475   9.099  0.8750  0.4437 -0.3537
   61MOL0     C 7945   3.789   8.379   9.118 -0.3201 -0.2424 -0.8374
   61MOL0     C 7946   3.871   8.401   9.228 -0.9932 -0.7396  0.4601
   61MOL0     C 7947   3.970   8.306   9.272  0.1143  0.2127  0.5125
   61MOL0     C 7948   4.000   8.193   9.194 -0.8042  0.8226 -0.2736
   61MOL0     C 7949   4.104   8.099   9.231 -0.2039  1.0091  0.1178
   61MOL0     O 7950   4.162   8.124   9.353  0.7661  0.6557  0.7297
   61MOL0     C 7951   4.247   8.031   9.396 -0.7794 -0.4958  0.4559
   61MOL0     C 7952   4.206   7.930   9.476  1.0452 -0.2593  0.5306
   61MOL0     C 7953   4.296   7.825   9.517 -0.9723 -1.8303 -0.1674
   61MOL0     C 7954   4.428   7.827   9.474  0.2904 -0.8423  0.7383
   61MOL0     O 7955   4.513   7.722   9.507  0.3459  0.7067  0.3044
   61MOL0     C 7956   4.644   7.729   9.437  0.2857 -0.0308 -0.7271
   61MOL0     C 7957   4.706   7.592   9.462 -0.7094 -0.1822 -0.7222
   61MOL0     C 7958   4.716   7.549   9.608 -0.5893 -0.0540  0.0136
   61MOL0     C 7959   4.842   7.462   9.625 -0.1722 -0.0792 -0.1104
   61MOL0     C 7960   4.857   7.401   9.767 -0.1075 -0.2630  0.2076
   61MOL0     C 7961   4.755   7.297   9.779 -0.5296  0.5965 -1.2004
   61MOL0     C 7962   4.778   7.207   9.900  0.2580  0.2390  0.2075
   61MOL0     C 7963   4.660   7.115   9.925 -0.9721  0.3389 -0.4831
   61MOL0    Cl 7964   4.515   7.219   9.917  0.0650  0.2097 -0.6444
   61MOL0     C 7965   4.475   7.944   9.400  0.6163 -0.0550  0.1570
   61MOL0     C 7966   4.382   8.047   9.358  0.0192  0.2255  0.5024
   61MOL0     O 7967   4.133   8.004   9.156  0.4917  0.1504  0.8892
   61MOL0     C 7968   3.936   8.174   9.072  0.2062 -0.6825  0.1786
   61MOL0     C 7969   3.825   8.269   9.040 -0.9162  0.5404 -0.0235
   61MOL0     N 7970   3.074   8.485   8.803  0.7738 -0.4379  1.0939
   61MOL0     N 7971   2.973   8.524   8.732  0.0596 -0.1793 -0.8134
   61MOL0     C 7972   3.455   9.115   8.298  0.3551  0.9674 -0.2442
   61MOL0     C 7973   3.577   9.124   8.370 -0.8200  0.4027  0.1756
   61MOL0     C 7974   3.971   9.072   8.545 -0.1032 -1.0545 -0.0697
   61MOL0     C 7975   4.013   9.041   8.677 -0.5471 -0.4480 -0.1619
   61MOL0     C 7976   4.144   9.076   8.716 -0.5057  0.1169 -0.5049
   61MOL0     C 7977   4.236   9.128   8.629  0.2906 -0.3053  0.4259
   61MOL0     O 7978   4.354   9.142   8.693 -0.6191  0.0705  0.3840
   61MOL0     C 7979   4.445   9.223   8.633 -0.5589  0.5791 -0.6041
   61MOL0     C 7980   4.420   9.365   8.672  0.6343 -0.4766 -0.6346
   61MOL0     C 7981   4.498   9.464   8.581 -0.9571 -0.3048 -0.2067
   61MOL0     C 7982   4.457   9.610   8.598  0.1684 -0.0356  0.8550
   61MOL0     C 7983   4.329   9.622   8.526 -0.1118 -0.1767  0.6690
   61MOL0     C 7984   4.233   9.619   8.454 -0.2350 -0.5136  0.4489
   61MOL0     C 7985   4.197   9.158   8.498 -0.0496  0.3417 -0.3251
   61MOL0     C 7986   4.063   9.128   8.459 -1.0989 -0.3594 -0.6919
   61MOL0     H 7987   3.730   8.880   8.195 -0.1299  0.0300  1.3056
   61MOL0     H 7988   3.516   8.870   8.065 -2.8830 -3.8321  1.8196
   61MOL0     H 7989   3.209   8.924   8.304  0.5974  1.4258  0.7792
   61MOL0     H 7990   3.132   8.891   8.144 -3.2745  2.2127 -0.3635
   61MOL0     H 7991   3.099   9.143   8.138  0.5221  0.3266  0.3310
   61MOL0     H 7992   3.149   9.159   8.310  0.0740  0.5910 -0.9179
   61MOL0     H 7993   2.896   9.039   8.199 -2.9771  1.1078 -0.5292
   61MOL0     H 7994   2.924   9.191   8.295 -0.6742 -0.7271  2.1150
   61MOL0     H 7995   2.975   8.891   8.368 -4.7088 -1.5988 -3.5837
   61MOL0     H 7996   3.001   9.030   8.476  2.0092  0.3173 -2.0870
   61MOL0     H 7997   2.735   8.924   8.345  1.3066  0.1353 -1.5798
   61MOL0     H 7998   2.744   9.077   8.422 -0.9954 -0.2559  2.6627
   61MOL0     H 7999   2.661   8.850   8.548  0.5181 -1.8723  2.3669
   61MOL0     H 8000   2.738   8.988   8.636  3.2787  3.5776 -2.3653
   61MOL0     H 8001   2.861   8.719   8.526  2.7396 -1.5877  2.2845
   61MOL0     H 8002   2.951   8.847   8.612  1.3749 -1.8881 -1.1055
   61MOL0     H 8003   2.720   8.669   8.713  0.1163 -0.6400 -4.2320
   61MOL0     H 8004   2.783   8.802   8.803 -1.8563 -3.6451  3.0881
   61MOL0     H 8005   3.024   8.776   8.930 -0.1356 -0.5176  1.3487
   61MOL0     H 8006   3.173   8.584   9.096 -3.3157 -1.9839  0.0050
   61MOL0     H 8007   3.269   8.670   8.977  0.8612  0.3639  0.6775
   61MOL0     H 8008   3.340   8.454   8.866  2.4235 -1.3591  1.1551
   61MOL0     H 8009   3.287   8.369   9.001  2.3260 -1.5977 -0.4330
   61MOL0     H 8010   3.472   8.607   9.031  0.6022 -0.7323 -1.6210
   61MOL0     H 8011   3.446   8.483   9.156 -1.2107 -1.6497 -0.0614
   61MOL0     H 8012   3.597   8.418   8.909  1.0854  3.3533  0.1385
   61MOL0     H 8013   3.563   8.322   9.060  1.5395  0.2102  0.7287
   61MOL0     H 8014   3.874   8.491   9.288  0.4108 -0.0933 -0.5087
   61MOL0     H 8015   4.014   8.333   9.367 -1.0575  2.7564  0.4128
   61MOL0     H 8016   4.106   7.925   9.517  2.6833 -1.2333  4.9123
   61MOL0     H 8017   4.280   7.753   9.596  4.4257 -1.1969  1.9236
   61MOL0     H 8018   4.716   7.805   9.469  2.1353 -1.7580 -0.6312
   61MOL0     H 8019   4.637   7.729   9.328 -2.7381  3.1347 -0.7127
   61MOL0     H 8020   4.808   7.591   9.422 -0.9201  0.0193 -1.2782
   61MOL0     H 8021   4.650   7.513   9.411  1.8260 -2.2956 -0.4321
   61MOL0     H 8022   4.619   7.502   9.628 -0.4842 -0.4473 -0.3859
   61MOL0     H 8023   4.732   7.637   9.672 -3.4208  0.5899 -0.0341
   61MOL0     H 8024   4.831   7.374   9.561 -2.2906  0.6626 -0.8564
   61MOL0     H 8025   4.930   7.522   9.599 -0.9312  0.8805 -0.5570
   61MOL0     H 8026   4.836   7.467   9.852 -2.8690  0.7757 -1.1535
   61MOL0     H 8027   4.954   7.351   9.768 -1.1134 -2.5218 -2.5263
   61MOL0     H 8028   4.742   7.228   9.695 -0.4826  0.3685 -1.0220
   61MOL0     H 8029   4.661   7.354   9.785  0.6942  2.7313  4.0784
   61MOL0     H 8030   4.863   7.142   9.878 -1.5911 -2.4800  0.5969
   61MOL0     H 8031   4.782   7.279   9.982  0.2576 -2.6388  2.8903
   61MOL0     H 8032   4.664   7.074  10.027 -3.4024  1.8893  0.3198
   61MOL0     H 8033   4.665   7.045   9.841  1.3251  1.0113 -0.9577
   61MOL0     H 8034   4.575   7.952   9.359  1.0926 -0.2012  1.2663
   61MOL0     H 8035   4.416   8.130   9.297 -1.3199  1.4989  1.4361
   61MOL0     H 8036   3.961   8.089   9.009  1.3239 -1.0775  1.1250
   61MOL0     H 8037   3.771   8.244   8.949 -0.0668 -1.9909  0.0811
   61MOL0     H 8038   3.372   9.172   8.338 -0.5543 -1.7054  2.0051
   61MOL0     H 8039   3.592   9.196   8.451  0.2662 -0.2178  0.5375
   61MOL0     H 8040   3.950   9.001   8.756  2.2205 -1.7359  1.5476
   61MOL0     H 8041   4.188   9.068   8.815  2.1585 -0.8746 -1.6630
   61MOL0     H 8042   4.442   9.211   8.524 -0.1353 -0.9906 -0.4574
   61MOL0     H 8043   4.540   9.187   8.673 -2.8789 -1.6131  3.6333
   61MOL0     H 8044   4.313   9.385   8.665  0.0150 -1.7111  3.0162
   61MOL0     H 8045   4.460   9.386   8.772  1.7749 -4.8429  0.0416
   61MOL0     H 8046   4.495   9.435   8.476  2.0729 -1.5557 -0.0322
   61MOL0     H 8047   4.604   9.455   8.607 -1.0188 -1.0272 -0.1889
   61MOL0     H 8048   4.442   9.637   8.703 -1.1913 -1.0162  0.9496
   61MOL0     H 8049   4.535   9.671   8.552 -1.4231  1.8507  0.5702
   61MOL0     H 8050   4.145   9.637   8.396  0.8740 -1.5895 -1.7130
   61MOL0     H 8051   4.270   9.183   8.422  3.5198  0.5519  2.8421
   61MOL0     H 8052   4.030   9.148   8.357 -1.1459  0.9359 -0.4389
   62MOL0     O 8053   8.803   2.784   5.779  1.0667  0.0847  0.4213
   62MOL0     C 8054   8.757   2.680   5.729  0.5773  0.2838  0.7110
   62MOL0     O 8055   8.775   2.637   5.607 -0.3422 -0.2613  0.3781
   62MOL0     C 8056   8.886   2.693   5.537  0.7274  0.5376 -0.7061
   62MOL0     C 8057   9.011   2.667   5.591  0.1926  0.6182  0.0499
   62MOL0     C 8058   9.125   2.701   5.522  0.6063 -0.2940  0.5952
   62MOL0     C 8059   9.120   2.788   5.410  0.7515 -0.2745 -0.4163
   62MOL0     O 8060   9.234   2.832   5.344 -0.2932 -0.4062  0.1436
   62MOL0     C 8061   9.228   2.944   5.260 -1.2131  1.1766  0.0589
   62MOL0     C 8062   9.360   2.997   5.199 -0.0840  0.3000  0.1287
   62MOL0     C 8063   9.417   2.915   5.079  0.3467 -0.7392 -0.1299
   62MOL0     C 8064   9.345   2.956   4.946 -0.5187 -0.0648 -0.3716
   62MOL0     C 8065   9.266   2.848   4.867 -0.5134  0.2621  0.2259
   62MOL0     C 8066   9.365   2.747   4.804 -0.6773  0.5183  0.1509
   62MOL0     C 8067   9.356   2.599   4.853 -0.5861 -0.6300 -0.2171
   62MOL0     C 8068   9.434   2.502   4.777 -0.2672  0.5520  0.0879
   62MOL0     N 8069   9.582   2.520   4.798  0.3990 -0.2642  0.1019
   62MOL0     C 8070   9.661   2.488   4.910 -0.4331 -0.4084  0.0716
   62MOL0     C 8071   9.787   2.540   4.885 -0.5102  0.2600  0.6165
   62MOL0     C 8072   9.911   2.536   4.974 -0.3497  0.4117 -0.0771
   62MOL0     C 8073   9.878   2.595   5.112 -0.3832  0.1309  0.1453
   62MOL0     C 8074   9.849   2.742   5.116 -0.0967 -0.5062  0.6259
   62MOL0     C 8075   9.963   2.811   5.043 -0.9819 -0.2983 -0.1945
   62MOL0     O 8076   9.952   2.952   5.079 -0.1946 -0.2929  0.0294
   62MOL0     C 8077   9.831   3.027   5.028 -0.5285 -0.2001  0.0351
   62MOL0     C 8078   9.796   3.129   5.114 -0.5619  0.8065  0.2782
   62MOL0     C 8079   9.700   3.217   5.077 -0.4448 -0.4704 -0.2869
   62MOL0     C 8080   9.620   3.201   4.962  0.7749  0.2992  0.1718
   62MOL0     C 8081   9.509   3.295   4.923  0.1300 -1.0172 -1.2581
   62MOL0     O 8082   9.475   3.388   5.017 -0.2187  0.3674 -0.7835
   62MOL0     C 8083   9.354   3.449   5.022 -0.4181  0.9990 -0.8328
   62MOL0     C 8084   9.236   3.409   4.954 -0.8236  0.5928 -0.5175
   62MOL0     C 8085   9.125   3.493   4.957  0.5732 -0.6624 -0.7039
   62MOL0     C 8086   9.144   3.627   5.013  0.0734 -0.7997  1.0397
   62MOL0     O 8087   9.033   3.698   5.025 -0.1319  1.1098  0.1942
   62MOL0     C 8088   9.049   3.834   4.999 -0.0678 -1.3654 -0.2343
   62MOL0     C 8089   9.094   3.870   4.851 -0.9197 -0.2828  0.2291
   62MOL0     C 8090   9.110   4.019   4.827  0.1588  0.3274  1.1083
   62MOL0     C 8091   9.234   4.089   4.899  1.4497 -0.5572  0.6050
   62MOL0     C 8092   9.243   4.238   4.869  0.4402  1.0069 -0.7429
   62MOL0     C 8093   9.367   4.293   4.944 -0.4213  0.5253  0.3354
   62MOL0     C 8094   9.486   4.274   4.847  0.7160  0.8862 -1.0986
   62MOL0     C 8095   9.622   4.308   4.902 -0.6951  0.2567  0.6335
   62MOL0    Cl 8096   9.729   4.324   4.767 -0.0747 -0.2668  0.4542
   62MOL0     C 8097   9.271   3.661   5.072 -0.4380 -0.5126 -0.6065
   62MOL0     C 8098   9.375   3.572   5.072  0.3898 -0.2727  0.2450
   62MOL0     O 8099   9.452   3.266   4.819 -0.2383  0.6577  0.2289
   62MOL0     C 8100   9.656   3.094   4.880  0.7089  0.1182 -0.1353
   62MOL0     C 8101   9.765   3.015   4.907 -0.8122  0.4142  0.1999
   62MOL0     N 8102   9.774   2.613   4.768  0.5899  0.2409 -0.2018
   62MOL0     N 8103   9.657   2.600   4.718 -0.3262  0.4549 -0.5683
   62MOL0     C 8104   8.985   2.809   5.354  0.0535  0.1218  0.2521
   62MOL0     C 8105   8.870   2.765   5.421  0.4370 -0.5279 -0.6201
   62MOL0     C 8106   8.676   2.584   5.827  1.1310 -0.1832  0.0552
   62MOL0     C 8107   8.626   2.472   5.767 -0.2435 -0.1538  0.1457
   62MOL0     C 8108   8.548   2.382   5.839 -0.4342 -0.1346 -0.1188
   62MOL0     C 8109   8.514   2.411   5.968 -0.6497 -1.4599  0.0298
   62MOL0     O 8110   8.416   2.350   6.041 -0.5815 -0.0771  0.1767
   62MOL0     C 8111   8.406   2.213   6.014 -0.0327  0.2750 -0.3300
   62MOL0     C 8112   8.335   2.139   6.123 -0.6623  0.2671  1.1171
   62MOL0     C 8113   8.251   2.028   6.060  0.1289  0.0794 -0.3363
   62MOL0     C 8114   8.196   1.934   6.169 -0.4572  0.2830 -0.1352
   62MOL0     C 8115   8.140   1.808   6.099 -0.6439 -0.2046 -0.6046
   62MOL0     C 8116   8.121   1.700   6.060 -1.0037  0.4036 -0.2017
   62MOL0     C 8117   8.563   2.530   6.030 -0.3980  0.3648  0.1981
   62MOL0     C 8118   8.654   2.615   5.962  0.4622  1.1721  0.5136
   62MOL0     H 8119   9.018   2.612   5.684  2.8041  0.3845 -0.2037
   62MOL0     H 8120   9.215   2.660   5.566  1.6405 -1.3920 -2.3249
   62MOL0     H 8121   9.174   3.021   5.315 -5.8363 -2.0007  0.5605
   62MOL0     H 8122   9.170   2.913   5.172  2.4671 -1.7155 -1.6415
   62MOL0     H 8123   9.439   3.010   5.274  1.5005 -0.5001 -1.3316
   62MOL0     H 8124   9.344   3.099   5.163 -0.6253  1.0579  2.3639
   62MOL0     H 8125   9.412   2.808   5.102  2.0713 -1.0789 -1.1613
   62MOL0     H 8126   9.521   2.945   5.062 -0.3890  0.8246 -2.2952
   62MOL0     H 8127   9.286   3.042   4.980 -2.8181 -1.8816  0.5298
   62MOL0     H 8128   9.424   3.002   4.886 -1.7019  0.0335 -1.9375
   62MOL0     H 8129   9.199   2.887   4.790 -2.5509 -3.6869 -0.2886
   62MOL0     H 8130   9.205   2.795   4.941 -1.3679  2.2559  1.0108
   62MOL0     H 8131   9.471   2.773   4.811  1.5882 -5.5778 -3.4234
   62MOL0     H 8132   9.350   2.754   4.696 -1.4237  1.2115  0.2935
   62MOL0     H 8133   9.391   2.590   4.957 -2.4518 -1.4164  0.3752
   62MOL0     H 8134   9.253   2.567   4.838 -1.1992  0.5574  1.2306
   62MOL0     H 8135   9.404   2.507   4.672 -1.7110 -0.0938  0.4484
   62MOL0     H 8136   9.399   2.405   4.814 -0.3116  0.9028  0.9892
   62MOL0     H 8137   9.626   2.424   4.990 -0.4182  2.2913  2.3883
   62MOL0     H 8138  10.002   2.582   4.935 -0.7302 -0.6635 -2.4039
   62MOL0     H 8139   9.928   2.430   4.998  0.3112  0.3341 -0.8485
   62MOL0     H 8140   9.968   2.576   5.171  0.0845 -1.7478 -1.1272
   62MOL0     H 8141   9.799   2.538   5.163 -0.9174 -1.7603 -2.5639
   62MOL0     H 8142   9.757   2.761   5.061  1.2166  0.8215 -1.2156
   62MOL0     H 8143   9.828   2.774   5.219 -2.6520  0.3257 -0.0852
   62MOL0     H 8144   9.947   2.811   4.934 -3.8421  2.0494  0.0794
   62MOL0     H 8145  10.062   2.776   5.074 -1.3341  0.9309  2.6472
   62MOL0     H 8146   9.846   3.145   5.209 -2.5864  1.6630  1.2787
   62MOL0     H 8147   9.683   3.304   5.141 -1.1559 -2.7733  2.9277
   62MOL0     H 8148   9.212   3.308   4.922  0.9626 -0.0474  0.0419
   62MOL0     H 8149   9.027   3.462   4.923  0.5317 -2.7381  1.1213
   62MOL0     H 8150   9.121   3.887   5.062 -2.6641  0.9799  0.9717
   62MOL0     H 8151   8.954   3.878   5.030  1.7096  1.4148  1.6697
   62MOL0     H 8152   9.028   3.826   4.776  1.7568 -2.1573 -1.1959
   62MOL0     H 8153   9.194   3.836   4.825 -1.8110 -0.3024 -3.8294
   62MOL0     H 8154   9.019   4.073   4.852 -1.3687 -2.2365  1.4269
   62MOL0     H 8155   9.119   4.036   4.719 -1.8468 -0.3148  0.8021
   62MOL0     H 8156   9.234   4.059   5.005 -0.1148  1.0200  1.0916
   62MOL0     H 8157   9.316   4.031   4.855  0.3063 -0.1427 -2.2666
   62MOL0     H 8158   9.158   4.287   4.917 -0.6952 -0.3371 -1.3227
   62MOL0     H 8159   9.246   4.255   4.761  2.2005  1.3194 -0.6804
   62MOL0     H 8160   9.373   4.233   5.035  0.8162  0.0117 -0.0702
   62MOL0     H 8161   9.347   4.400   4.961  0.1267  0.6671  0.1007
   62MOL0     H 8162   9.476   4.171   4.813 -2.7594 -0.9627  4.3199
   62MOL0     H 8163   9.455   4.343   4.767 -0.3159  0.7073 -0.8633
   62MOL0     H 8164   9.649   4.223   4.964 -2.9970 -1.5548 -0.6887
   62MOL0     H 8165   9.619   4.403   4.955 -0.4177  0.8995 -0.4600
   62MOL0     H 8166   9.303   3.761   5.097 -1.6366 -0.3488  0.3608
   62MOL0     H 8167   9.471   3.603   5.113 -1.0976  0.6178  3.3466
   62MOL0     H 8168   9.607   3.072   4.786  0.0482 -1.2602  0.4950
   62MOL0     H 8169   9.791   2.934   4.839 -0.4034 -0.7954  1.7567
   62MOL0     H 8170   8.970   2.876   5.270  0.2167  4.2135  3.1577
   62MOL0     H 8171   8.769   2.795   5.397 -1.2749 -3.2432  2.3439
   62MOL0     H 8172   8.651   2.443   5.665 -0.1959 -0.9923  0.3884
   62MOL0     H 8173   8.514   2.296   5.783  1.3952  0.2695 -1.9700
   62MOL0     H 8174   8.511   2.186   6.004 -0.1302  0.2344 -1.4929
   62MOL0     H 8175   8.359   2.210   5.914  0.0565  2.0208 -0.4569
   62MOL0     H 8176   8.401   2.095   6.198 -1.0691  0.3341  1.5194
   62MOL0     H 8177   8.272   2.210   6.178  2.2949  5.2241 -1.1770
   62MOL0     H 8178   8.295   1.978   5.973 -1.7635 -0.7156 -0.8859
   62MOL0     H 8179   8.154   2.070   6.033 -0.8055 -1.8980 -0.2457
   62MOL0     H 8180   8.278   1.917   6.240  0.1462 -0.8704 -1.0774
   62MOL0     H 8181   8.113   1.974   6.227  0.5064  3.7483 -0.8889
   62MOL0     H 8182   8.099   1.598   6.033 -0.4966  0.2480 -0.0334
   62MOL0     H 8183   8.542   2.553   6.134  2.1106  1.4384  0.5336
   62MOL0     H 8184   8.705   2.700   6.005  4.2370 -0.9240  0.6229
   63MOL0     O 8185  10.814  10.879   5.326 -0.5500  0.4822 -0.0659
   63MOL0     C 8186  10.746  10.793   5.267 -0.5899  0.1406  0.5198
   63MOL0     O 8187  10.655  10.725   5.327 -0.6659  0.7982 -0.1394
   63MOL0     C 8188  10.643  10.716   5.459  0.5386 -0.4088 -0.0690
   63MOL0     C 8189  10.525  10.741   5.530  0.3250 -0.5721  0.5680
   63MOL0     C 8190  10.513  10.716   5.670  0.1690 -0.5839 -0.6609
   63MOL0     C 8191  10.615  10.659   5.742  0.4050  0.2195 -0.4155
   63MOL0     O 8192  10.605  10.655   5.880 -0.6307  0.1857  0.0384
   63MOL0     C 8193  10.483  10.670   5.946  0.3322 -0.7684 -0.6459
   63MOL0     C 8194  10.508  10.606   6.083 -0.3254 -1.0477 -0.0550
   63MOL0     C 8195  10.556  10.456   6.078  0.2521  0.1209  0.3925
   63MOL0     C 8196  10.569  10.390   6.223  0.3013 -0.7652 -0.0814
   63MOL0     C 8197  10.720  10.376   6.252  0.5055 -1.1587  1.0072
   63MOL0     C 8198  10.793  10.512   6.252  0.0308 -0.6229  0.0346
   63MOL0     C 8199  10.939  10.491   6.303 -0.0936  0.3340  0.2237
   63MOL0     C 8200  11.040  10.422   6.209  0.2076 -0.4706  0.1848
   63MOL0     N 8201  11.059  10.504   6.090  0.5977 -0.8018 -1.1857
   63MOL0     C 8202  11.106  10.632   6.083 -0.5616  0.3126 -0.3545
   63MOL0     C 8203  11.115  10.652   5.941  0.2350  0.5553 -1.3587
   63MOL0     C 8204  11.166  10.773   5.876  0.4581 -0.8618 -0.7231
   63MOL0     C 8205  11.059  10.877   5.836  0.7610 -0.5963 -1.3676
   63MOL0     C 8206  11.078  10.943   5.699 -1.1023  0.5909  0.1701
   63MOL0     C 8207  10.956  10.970   5.618 -0.4568  0.1763  0.0711
   63MOL0     O 8208  10.904  11.081   5.683  0.5505  0.2695 -0.6500
   63MOL0     C 8209  10.766  11.077   5.695 -0.2008  0.1936 -0.6382
   63MOL0     C 8210  10.682  11.163   5.621  0.1695  0.8734  0.0855
   63MOL0     C 8211  10.547  11.176   5.648 -0.2947  0.2756 -0.5144
   63MOL0     C 8212  10.485  11.095   5.747  0.6738 -0.3976 -0.9162
   63MOL0     C 8213  10.343  11.107   5.782 -0.7639 -0.9284  0.6416
   63MOL0     O 8214  10.290  11.039   5.885  0.3201 -0.6208 -0.9490
   63MOL0     C 8215  10.164  11.073   5.934  0.4093  0.8497  0.3766
   63MOL0     C 8216  10.111  11.204   5.935 -0.1568 -0.5300  0.1981
   63MOL0     C 8217   9.988  11.229   5.996 -0.4966  0.2480  0.3298
   63MOL0     C 8218   9.896  11.124   6.023 -0.8491 -0.7452 -0.3320
   63MOL0     O 8219   9.779  11.141   6.084 -0.3826  1.0811  0.3420
   63MOL0     C 8220   9.713  11.267   6.055  0.6454  0.4660 -0.6890
   63MOL0     C 8221   9.566  11.262   6.093  1.1888  0.1303  0.4945
   63MOL0     C 8222   9.484  11.375   6.035 -0.4472  0.1991  1.0120
   63MOL0     C 8223   9.336  11.362   6.050  0.2006 -0.4821  0.7481
   63MOL0     C 8224   9.284  11.390   6.196 -0.6178  0.2955  0.0374
   63MOL0     C 8225   9.137  11.363   6.222  0.2684 -0.9416  0.3942
   63MOL0     C 8226   9.093  11.228   6.177 -0.8485  0.1285  0.0667
   63MOL0     C 8227   8.975  11.168   6.255 -0.0454 -0.2833  0.3459
   63MOL0    Cl 8228   8.837  11.279   6.261 -0.0359  0.1052 -0.3458
   63MOL0     C 8229   9.941  10.988   6.007  0.1074  0.3322  0.2889
   63MOL0     C 8230  10.077  10.963   5.968 -0.0279 -0.5473  0.0506
   63MOL0     O 8231  10.278  11.169   5.706  0.5978  0.4289 -0.6491
   63MOL0     C 8232  10.564  11.009   5.822 -0.5863  0.2588  0.2987
   63MOL0     C 8233  10.706  11.005   5.802  0.6200 -0.0009  0.0889
   63MOL0     N 8234  11.079  10.543   5.871  0.0214  0.4354 -2.0522
   63MOL0     N 8235  11.042  10.451   5.963 -0.0385 -0.1831 -0.0192
   63MOL0     C 8236  10.735  10.643   5.682 -0.8228  1.0847 -0.2805
   63MOL0     C 8237  10.751  10.662   5.539 -0.3838 -0.0137 -0.0779
   63MOL0     C 8238  10.750  10.788   5.118  0.9030  1.1432  0.7735
   63MOL0     C 8239  10.655  10.723   5.044  0.1939  1.6207  1.1532
   63MOL0     C 8240  10.665  10.712   4.897 -0.8340 -0.2920  0.3742
   63MOL0     C 8241  10.770  10.767   4.824 -0.4078 -0.2160 -0.1210
   63MOL0     O 8242  10.793  10.760   4.685  0.1684  0.0969  0.2543
   63MOL0     C 8243  10.741  10.667   4.598  0.1284  0.4196  0.8803
   63MOL0     C 8244  10.767  10.692   4.447 -0.4595 -0.5708 -0.3311
   63MOL0     C 8245  10.915  10.693   4.408  0.0876  0.2571  0.3322
   63MOL0     C 8246  10.991  10.552   4.423  0.2533  0.0357 -0.3426
   63MOL0     C 8247  10.934  10.449   4.336  0.5005  0.1050  0.4877
   63MOL0     C 8248  10.877  10.368   4.268 -0.6397  0.3698  1.0250
   63MOL0     C 8249  10.865  10.828   4.906  0.0244 -0.3499 -0.2315
   63MOL0     C 8250  10.854  10.840   5.046 -0.2117  0.0636  0.2372
   63MOL0     H 8251  10.438  10.779   5.478 -1.3187  1.0493  4.1098
   63MOL0     H 8252  10.419  10.739   5.718 -2.5591 -3.9602 -3.8505
   63MOL0     H 8253  10.399  10.629   5.889  0.3397 -1.4546 -0.1776
   63MOL0     H 8254  10.453  10.774   5.959 -3.7720 -1.6519 -1.6211
   63MOL0     H 8255  10.421  10.619   6.147  0.6039 -0.8716  1.1895
   63MOL0     H 8256  10.589  10.657   6.136 -2.1096  0.7253  1.1098
   63MOL0     H 8257  10.641  10.446   6.010  1.6322  2.4857  1.6162
   63MOL0     H 8258  10.471  10.393   6.047  1.7253 -2.7035  1.7162
   63MOL0     H 8259  10.542  10.455   6.306  2.4779 -0.7684  0.6815
   63MOL0     H 8260  10.521  10.292   6.233 -0.0210 -0.8988 -2.3763
   63MOL0     H 8261  10.760  10.305   6.180  0.5144  0.0669 -0.2417
   63MOL0     H 8262  10.729  10.331   6.352 -1.4449 -2.1544  0.7820
   63MOL0     H 8263  10.755  10.583   6.326  1.0664 -1.9923  1.9817
   63MOL0     H 8264  10.789  10.562   6.155 -0.0609  2.0018  1.3058
   63MOL0     H 8265  10.978  10.587   6.339 -0.4571  0.6992 -0.3455
   63MOL0     H 8266  10.934  10.426   6.391  3.1489 -2.6335 -1.5325
   63MOL0     H 8267  11.007  10.320   6.188  2.0150 -1.0293 -0.1853
   63MOL0     H 8268  11.137  10.410   6.260 -0.2480 -0.1919  1.1301
   63MOL0     H 8269  11.134  10.702   6.160  2.8847 -1.5073  0.2637
   63MOL0     H 8270  11.227  10.746   5.789  3.0536 -0.6653  0.9267
   63MOL0     H 8271  11.240  10.818   5.942  2.3555 -0.8318 -2.7664
   63MOL0     H 8272  11.052  10.949   5.918  3.3907 -2.1054  0.3112
   63MOL0     H 8273  10.971  10.812   5.828  0.8514 -0.9285  0.1289
   63MOL0     H 8274  11.136  11.036   5.695  0.4032 -0.3479 -2.3137
   63MOL0     H 8275  11.137  10.872   5.640 -0.1100 -1.0543  2.9872
   63MOL0     H 8276  10.886  10.886   5.620  1.5981 -1.6963 -1.7808
   63MOL0     H 8277  10.974  11.012   5.519  4.0765  0.4383  0.7935
   63MOL0     H 8278  10.718  11.234   5.547 -0.8825  0.0964 -1.2320
   63MOL0     H 8279  10.503  11.254   5.587  0.1126 -0.3697 -1.6525
   63MOL0     H 8280  10.180  11.285   5.912 -2.5089  0.2272 -5.7497
   63MOL0     H 8281   9.965  11.331   6.023  0.9642  0.3994  1.0633
   63MOL0     H 8282   9.731  11.298   5.952  0.5685 -0.4151 -0.9794
   63MOL0     H 8283   9.748  11.353   6.112 -0.0956  1.2362 -1.3884
   63MOL0     H 8284   9.560  11.253   6.202  0.1588 -0.8172  0.3738
   63MOL0     H 8285   9.527  11.168   6.053  0.0686  0.2466  1.2751
   63MOL0     H 8286   9.504  11.369   5.928 -1.4371 -1.8873  0.8952
   63MOL0     H 8287   9.511  11.471   6.082 -0.5086  0.6096  0.2258
   63MOL0     H 8288   9.286  11.436   5.986  2.5719  1.5946  1.1457
   63MOL0     H 8289   9.316  11.259   6.020  2.7378 -1.5204  2.3074
   63MOL0     H 8290   9.310  11.494   6.218  2.3474 -0.3226 -0.1835
   63MOL0     H 8291   9.348  11.339   6.268  1.5178  2.0631 -0.5321
   63MOL0     H 8292   9.074  11.440   6.176  3.1101  3.2913  2.8433
   63MOL0     H 8293   9.125  11.380   6.330  2.7195  1.7148  0.3841
   63MOL0     H 8294   9.060  11.252   6.076  1.9278  2.3777 -0.4353
   63MOL0     H 8295   9.177  11.160   6.163  0.1726  1.2367  0.5880
   63MOL0     H 8296   9.019  11.146   6.353  0.1048  1.0378  0.5963
   63MOL0     H 8297   8.951  11.068   6.219  1.2319 -0.9479  1.2455
   63MOL0     H 8298   9.870  10.906   6.019  0.6384 -0.1688  0.0045
   63MOL0     H 8299  10.120  10.863   5.959  1.9313  0.1582  0.9244
   63MOL0     H 8300  10.530  10.949   5.905 -0.9015 -1.3622 -0.9461
   63MOL0     H 8301  10.759  10.929   5.859 -0.7097 -1.0994 -0.0683
   63MOL0     H 8302  10.817  10.619   5.749 -1.4312  2.1348  0.8942
   63MOL0     H 8303  10.846  10.639   5.494 -0.0303  1.6673 -0.2487
   63MOL0     H 8304  10.574  10.671   5.093  0.6893 -0.7039 -0.3253
   63MOL0     H 8305  10.590  10.654   4.845 -0.3080 -1.3256  0.7164
   63MOL0     H 8306  10.632  10.666   4.607  0.0349 -3.7629  1.2056
   63MOL0     H 8307  10.772  10.567   4.629 -3.0862 -0.5858  1.1904
   63MOL0     H 8308  10.717  10.618   4.385 -0.0051  2.4251 -4.8254
   63MOL0     H 8309  10.729  10.792   4.423  1.5151  1.1660  2.9565
   63MOL0     H 8310  10.969  10.755   4.481 -2.7260  2.5246  0.6661
   63MOL0     H 8311  10.933  10.725   4.305  0.2744  1.7200  0.7900
   63MOL0     H 8312  11.096  10.573   4.401 -0.1388  2.5863 -0.1323
   63MOL0     H 8313  10.991  10.522   4.528  3.6135 -0.7668 -0.4510
   63MOL0     H 8314  10.838  10.310   4.187 -0.3445  0.9716  0.4368
   63MOL0     H 8315  10.944  10.889   4.864 -0.6742  0.8381  0.1394
   63MOL0     H 8316  10.936  10.885   5.100  0.5557 -2.4670  1.3641
   64MOL0     O 8317   1.622   2.172   4.622 -0.4309  0.2667  0.0483
   64MOL0     C 8318   1.707   2.254   4.595  0.4542  1.0197 -0.8338
   64MOL0     O 8319   1.679   2.385   4.548 -0.0145 -0.1501 -0.7151
   64MOL0     C 8320   1.549   2.427   4.574  0.2934 -0.3591 -0.0067
   64MOL0     C 8321   1.492   2.522   4.485  0.4653  0.6697 -0.5313
   64MOL0     C 8322   1.361   2.573   4.522  0.1740  0.0631  0.6949
   64MOL0     C 8323   1.285   2.527   4.636 -0.9556 -0.8048 -0.4911
   64MOL0     O 8324   1.152   2.563   4.661  0.0924 -0.3017  0.6028
   64MOL0     C 8325   1.057   2.569   4.548 -0.1231  0.1332 -0.5086
   64MOL0     C 8326   0.919   2.530   4.605  0.8914  0.1047 -0.3824
   64MOL0     C 8327   0.799   2.603   4.534  0.6140  0.2678  0.2809
   64MOL0     C 8328   0.668   2.567   4.603  0.0418 -1.4943 -0.4073
   64MOL0     C 8329   0.558   2.671   4.552  0.2301 -0.1474  0.4378
   64MOL0     C 8330   0.419   2.621   4.572 -0.6616  0.2877 -0.0286
   64MOL0     C 8331   0.306   2.723   4.542  0.7397 -0.4544 -0.4242
   64MOL0     C 8332   0.179   2.666   4.596 -0.2276 -0.2962  0.1737
   64MOL0     N 8333   0.148   2.720   4.735 -0.3306  0.2344  0.0257
   64MOL0     C 8334   0.018   2.758   4.769  0.1954 -0.5226  0.2581
   64MOL0     C 8335   0.022   2.767   4.902 -0.0990  0.5177  1.3847
   64MOL0     C 8336  -0.094   2.812   4.979  0.1625  0.3327  0.1337
   64MOL0     C 8337  -0.232   2.750   4.950  0.2544  0.1632 -0.9430
   64MOL0     C 8338  -0.332   2.807   5.038  0.6409 -0.1598  0.0345
   64MOL0     C 8339  -0.471   2.762   5.004  0.2839  0.5646 -0.8385
   64MOL0     O 8340  -0.494   2.622   5.037 -0.2482 -0.1912  0.0625
   64MOL0     C 8341  -0.601   2.561   4.991  0.3553 -0.3244  0.5355
   64MOL0     C 8342  -0.650   2.455   5.063 -0.2581  0.3267 -0.2856
   64MOL0     C 8343  -0.773   2.395   5.043  0.1523  0.1339 -1.2387
   64MOL0     C 8344  -0.847   2.442   4.941  0.4551 -0.0934  0.3310
   64MOL0     C 8345  -0.978   2.369   4.908 -0.2462 -0.9466 -0.8691
   64MOL0     O 8346  -1.032   2.306   5.019  0.0428  0.4465  0.1267
   64MOL0     C 8347  -1.162   2.271   5.024 -0.9557  0.5589 -0.1958
   64MOL0     C 8348  -1.231   2.283   5.146 -0.3107  0.2861 -0.3470
   64MOL0     C 8349  -1.357   2.242   5.168  0.1348 -0.0699  0.2958
   64MOL0     C 8350  -1.430   2.173   5.062  0.2899  0.8083  0.5994
   64MOL0     O 8351  -1.554   2.114   5.070 -0.1810 -0.0194  0.2161
   64MOL0     C 8352  -1.618   2.090   5.200 -0.3275 -0.3012 -0.7601
   64MOL0     C 8353  -1.755   2.016   5.173  0.2344 -0.0351  0.3401
   64MOL0     C 8354  -1.727   1.875   5.108  0.6402 -0.3486 -0.0214
   64MOL0     C 8355  -1.837   1.783   5.077 -0.3634 -0.0578  0.4188
   64MOL0     C 8356  -1.918   1.841   4.961 -0.7269 -0.8241  1.7459
   64MOL0     C 8357  -2.048   1.767   4.923  1.1343  0.0907 -0.7696
   64MOL0     C 8358  -2.153   1.750   5.022  0.3845  0.3406 -0.7593
   64MOL0     C 8359  -2.226   1.869   5.080 -0.4174 -0.2890  0.4051
   64MOL0    Cl 8360  -2.119   1.963   5.198 -0.3126  0.1114 -0.0725
   64MOL0     C 8361  -1.357   2.157   4.945 -0.0731 -0.7142  0.1601
   64MOL0     C 8362  -1.223   2.197   4.925 -0.2182  0.0299  0.3223
   64MOL0     O 8363  -1.038   2.389   4.802  0.2134 -0.3925 -0.1065
   64MOL0     C 8364  -0.799   2.548   4.857 -0.1499 -0.1742  0.4902
   64MOL0     C 8365  -0.677   2.607   4.877  0.0307 -1.3499 -0.9949
   64MOL0     N 8366   0.152   2.745   4.951 -0.5275 -0.0017 -0.0282
   64MOL0     N 8367   0.229   2.707   4.847 -0.7271 -0.0605  0.0395
   64MOL0     C 8368   1.342   2.429   4.719 -0.1157  0.0343  0.0317
   64MOL0     C 8369   1.479   2.393   4.694  0.0478 -0.0157 -0.7432
   64MOL0     C 8370   1.850   2.215   4.618  0.5485  0.4836 -0.3737
   64MOL0     C 8371   1.881   2.083   4.667  0.3971 -0.3558  0.8473
   64MOL0     C 8372   2.019   2.047   4.684 -0.0388  0.0072  0.0474
   64MOL0     C 8373   2.120   2.142   4.682 -0.0109 -1.2068  0.2837
   64MOL0     O 8374   2.255   2.120   4.684  0.3040  0.0192 -0.2054
   64MOL0     C 8375   2.302   1.988   4.648  0.0479  0.1052 -0.7986
   64MOL0     C 8376   2.258   1.938   4.509  0.0923  0.3269 -0.4911
   64MOL0     C 8377   2.264   2.063   4.406 -0.3769  0.7378 -0.3282
   64MOL0     C 8378   2.226   2.015   4.270  0.1868  0.3898  0.0692
   64MOL0     C 8379   2.268   2.092   4.156  0.4904 -0.5103 -0.8537
   64MOL0     C 8380   2.306   2.159   4.063  0.6136 -0.2332  1.1429
   64MOL0     C 8381   2.086   2.274   4.642 -0.5333 -0.6930  0.3193
   64MOL0     C 8382   1.957   2.309   4.604  0.0067 -0.1865 -1.0067
   64MOL0     H 8383   1.544   2.558   4.397 -1.0213 -1.4038 -2.3601
   64MOL0     H 8384   1.320   2.636   4.444  1.6088 -0.5536 -0.6122
   64MOL0     H 8385   1.068   2.506   4.459  4.2844 -2.1580  1.3336
   64MOL0     H 8386   1.046   2.675   4.521 -1.9354  0.6859  2.0412
   64MOL0     H 8387   0.906   2.549   4.711 -0.6796 -2.4916 -0.0362
   64MOL0     H 8388   0.909   2.422   4.589 -0.4444  0.1614 -0.0453
   64MOL0     H 8389   0.796   2.562   4.433  1.1248 -0.2843  0.4827
   64MOL0     H 8390   0.814   2.711   4.543 -1.5498  0.5114  1.8287
   64MOL0     H 8391   0.637   2.464   4.585  1.2987 -2.7798  3.6024
   64MOL0     H 8392   0.675   2.568   4.712 -3.5196 -1.0987 -0.0839
   64MOL0     H 8393   0.569   2.692   4.445 -2.1109  0.4460  0.2466
   64MOL0     H 8394   0.560   2.768   4.604 -3.5986 -0.0477  0.7255
   64MOL0     H 8395   0.410   2.579   4.673 -1.6459 -2.8514 -1.2885
   64MOL0     H 8396   0.405   2.534   4.507  1.6131 -0.4377  0.3355
   64MOL0     H 8397   0.318   2.819   4.593 -2.4302 -0.6582  0.9540
   64MOL0     H 8398   0.282   2.747   4.438  4.4571 -1.4321 -1.6643
   64MOL0     H 8399   0.196   2.558   4.607  3.0586  0.0309 -0.6944
   64MOL0     H 8400   0.096   2.683   4.528 -1.7729 -0.2726  1.9850
   64MOL0     H 8401  -0.073   2.768   4.710 -1.4483 -1.1744  2.5387
   64MOL0     H 8402  -0.108   2.919   4.961 -0.3835  0.2965  0.3179
   64MOL0     H 8403  -0.068   2.805   5.085 -1.1176  0.9990  0.5147
   64MOL0     H 8404  -0.230   2.641   4.964 -1.2509  0.1072 -1.0087
   64MOL0     H 8405  -0.248   2.766   4.844 -0.0730  0.0398 -0.9137
   64MOL0     H 8406  -0.314   2.775   5.141  0.1087  2.8161  1.1523
   64MOL0     H 8407  -0.349   2.915   5.034 -4.2042 -0.6130  1.6980
   64MOL0     H 8408  -0.473   2.762   4.895 -0.3202 -3.1484 -0.9724
   64MOL0     H 8409  -0.556   2.823   5.038  0.7054  0.1742  1.0062
   64MOL0     H 8410  -0.581   2.420   5.139  1.5593  1.2011 -1.4665
   64MOL0     H 8411  -0.805   2.329   5.123 -0.3768  0.4352 -1.1972
   64MOL0     H 8412  -1.208   2.347   5.231 -2.0288 -2.1976  2.1583
   64MOL0     H 8413  -1.410   2.258   5.261  4.4510  0.1911  3.0041
   64MOL0     H 8414  -1.629   2.188   5.246  2.4004  0.1194 -0.8267
   64MOL0     H 8415  -1.550   2.035   5.266  0.4324  2.2936  0.7702
   64MOL0     H 8416  -1.816   2.069   5.098 -0.9280 -0.9681  0.5956
   64MOL0     H 8417  -1.805   2.001   5.269  0.1951 -1.2421  0.1427
   64MOL0     H 8418  -1.669   1.811   5.176  0.9930 -0.3868 -0.3551
   64MOL0     H 8419  -1.668   1.892   5.017  0.4465 -0.4673 -0.1699
   64MOL0     H 8420  -1.792   1.688   5.046  1.8052  0.2900  2.1837
   64MOL0     H 8421  -1.896   1.767   5.167 -1.1695 -1.3825 -0.3066
   64MOL0     H 8422  -1.854   1.842   4.872  0.0524  2.3239  2.2056
   64MOL0     H 8423  -1.942   1.946   4.975  0.0336  0.0475 -2.2697
   64MOL0     H 8424  -2.020   1.671   4.879  3.2314  1.4481 -2.6321
   64MOL0     H 8425  -2.100   1.826   4.847 -0.8677  2.1051  1.9757
   64MOL0     H 8426  -2.235   1.693   4.978  0.6281  0.0373 -0.8249
   64MOL0     H 8427  -2.120   1.679   5.100  0.5641 -1.3520 -2.3128
   64MOL0     H 8428  -2.320   1.830   5.122 -2.0544  2.1965 -0.7270
   64MOL0     H 8429  -2.242   1.932   4.992  0.7023  1.6977  1.5539
   64MOL0     H 8430  -1.413   2.107   4.866 -0.3243 -2.7785  1.5901
   64MOL0     H 8431  -1.167   2.186   4.833  1.7839  0.5532  1.4266
   64MOL0     H 8432  -0.865   2.584   4.778 -1.4112 -0.9028  1.1974
   64MOL0     H 8433  -0.651   2.689   4.811 -4.3582  3.6208  2.5658
   64MOL0     H 8434   1.288   2.397   4.807 -1.6518 -0.0345 -0.8984
   64MOL0     H 8435   1.509   2.324   4.772  0.4669 -0.8790 -1.6550
   64MOL0     H 8436   1.801   2.010   4.682 -0.0092  0.2619  1.7338
   64MOL0     H 8437   2.040   1.942   4.704 -1.7104  0.2136  3.7211
   64MOL0     H 8438   2.286   1.922   4.734  0.6082  0.5506 -0.3402
   64MOL0     H 8439   2.409   2.007   4.635  0.0836  1.9249  1.5616
   64MOL0     H 8440   2.332   1.865   4.474 -0.4308  0.6269 -2.3238
   64MOL0     H 8441   2.156   1.899   4.509 -0.2015  0.9641  1.5386
   64MOL0     H 8442   2.362   2.111   4.398  0.8368 -1.1846  1.8393
   64MOL0     H 8443   2.197   2.145   4.436  1.9918  1.9991  1.8422
   64MOL0     H 8444   2.276   1.922   4.241  0.2429  0.1232  0.9799
   64MOL0     H 8445   2.118   2.000   4.275  0.4344 -1.1630  1.5653
   64MOL0     H 8446   2.340   2.220   3.981 -0.4068  0.7400  1.4171
   64MOL0     H 8447   2.166   2.342   4.615  0.8210 -3.1453 -2.2436
   64MOL0     H 8448   1.943   2.413   4.576  0.5667  0.4316  0.8525
   65MOL0     O 8449   3.546   0.369   4.237  0.7375  0.0726 -0.7372
   65MOL0     C 8450   3.621   0.460   4.262 -0.6443  0.7658 -0.2548
   65MOL0     O 8451   3.618   0.591   4.222  0.3314 -0.2751  0.3144
   65MOL0     C 8452   3.497   0.625   4.168 -1.4454  0.1582 -0.6563
   65MOL0     C 8453   3.482   0.672   4.037 -0.4999  0.0942  0.6634
   65MOL0     C 8454   3.358   0.713   3.989 -0.1658 -0.0892 -0.4543
   65MOL0     C 8455   3.248   0.708   4.070 -0.1409 -0.2367 -0.4191
   65MOL0     O 8456   3.118   0.747   4.042 -0.0427  0.4205 -0.2902
   65MOL0     C 8457   3.083   0.800   3.907  0.2670  0.0384 -0.2934
   65MOL0     C 8458   3.067   0.689   3.800 -0.0320 -0.2406  0.0585
   65MOL0     C 8459   3.048   0.756   3.666 -0.4967  1.0053 -0.2568
   65MOL0     C 8460   2.887   0.791   3.667 -0.2556  0.0870  0.4689
   65MOL0     C 8461   2.845   0.857   3.534 -0.1496 -0.1843  0.9318
   65MOL0     C 8462   2.694   0.893   3.525  0.3865  0.1155 -0.0114
   65MOL0     C 8463   2.604   0.787   3.463 -0.1929 -0.8112 -0.0013
   65MOL0     C 8464   2.462   0.835   3.456  0.0056 -0.5801  0.3977
   65MOL0     N 8465   2.385   0.866   3.586 -0.7197  0.3168 -0.2951
   65MOL0     C 8466   2.324   0.770   3.661  1.3213  0.0001  1.0152
   65MOL0     C 8467   2.278   0.835   3.776 -0.1107  1.0422 -0.6387
   65MOL0     C 8468   2.197   0.780   3.890  0.5259 -0.1315  0.1814
   65MOL0     C 8469   2.203   0.872   4.014  0.4158  0.7547  0.5810
   65MOL0     C 8470   2.123   0.820   4.135  0.0158 -0.0109  0.7331
   65MOL0     C 8471   2.140   0.923   4.251 -0.1284 -0.6726  0.2392
   65MOL0     O 8472   2.267   0.942   4.305 -0.5628  0.9626  0.3171
   65MOL0     C 8473   2.290   1.081   4.333 -0.6053  0.5696  0.0072
   65MOL0     C 8474   2.398   1.141   4.274  0.3064  0.7247  0.3321
   65MOL0     C 8475   2.419   1.278   4.307 -0.0604 -0.4411  0.6667
   65MOL0     C 8476   2.332   1.358   4.385  0.3364 -0.0298  0.1148
   65MOL0     C 8477   2.362   1.496   4.426  0.8141  0.3685 -0.4692
   65MOL0     O 8478   2.455   1.560   4.348  0.2768  0.4715 -0.1046
   65MOL0     C 8479   2.530   1.676   4.387  0.3364  0.4148  0.8586
   65MOL0     C 8480   2.586   1.762   4.285 -1.0639  0.3491 -0.2404
   65MOL0     C 8481   2.647   1.878   4.324  0.5042 -0.1688  0.1885
   65MOL0     C 8482   2.665   1.918   4.456 -0.7886 -0.5428 -0.5967
   65MOL0     O 8483   2.721   2.038   4.482 -0.7710 -0.2392  0.1846
   65MOL0     C 8484   2.625   2.150   4.489 -1.2184  1.0428  0.0546
   65MOL0     C 8485   2.692   2.274   4.549 -0.1142 -0.2142 -0.4162
   65MOL0     C 8486   2.758   2.236   4.683  0.3565  0.2332 -0.3402
   65MOL0     C 8487   2.812   2.346   4.763 -0.6115 -0.5093 -0.3436
   65MOL0     C 8488   2.881   2.310   4.898  1.7424  0.2480  0.0326
   65MOL0     C 8489   2.813   2.203   4.993  0.7783  0.1234  0.2398
   65MOL0     C 8490   2.671   2.240   5.061  0.0882 -0.6847  0.1746
   65MOL0     C 8491   2.595   2.123   5.119 -0.4555 -0.3812 -1.0622
   65MOL0    Cl 8492   2.687   1.967   5.135 -0.1975  0.2540 -0.6803
   65MOL0     C 8493   2.615   1.832   4.556  0.1011 -0.0213  0.2593
   65MOL0     C 8494   2.557   1.700   4.519 -0.1020 -0.4945 -0.3143
   65MOL0     O 8495   2.302   1.548   4.525  0.7227  0.1903 -0.4919
   65MOL0     C 8496   2.217   1.289   4.442 -0.4971 -0.2568 -0.1193
   65MOL0     C 8497   2.205   1.153   4.421  0.5210 -0.6992  0.1291
   65MOL0     N 8498   2.323   0.965   3.766  0.5929  0.6535  0.4586
   65MOL0     N 8499   2.372   0.984   3.650  0.1076  0.3478  0.6694
   65MOL0     C 8500   3.256   0.659   4.200  0.1339 -0.2892  0.4415
   65MOL0     C 8501   3.379   0.614   4.249 -0.1695 -0.4005  0.1810
   65MOL0     C 8502   3.750   0.414   4.312 -0.1720 -0.0397 -0.0745
   65MOL0     C 8503   3.778   0.275   4.355  0.6170 -0.2318 -0.0432
   65MOL0     C 8504   3.896   0.244   4.413 -0.2084 -0.2624 -0.0129
   65MOL0     C 8505   4.003   0.329   4.412 -0.7159  0.2863 -0.1107
   65MOL0     O 8506   4.125   0.294   4.458  0.7226 -0.8456  0.0350
   65MOL0     C 8507   4.189   0.165   4.423  0.9933 -0.3475  0.1501
   65MOL0     C 8508   4.175   0.068   4.539  0.9312  0.2042  0.2030
   65MOL0     C 8509   4.193   0.140   4.682  0.1900  0.8828  0.1262
   65MOL0     C 8510   4.344   0.180   4.699 -0.0662 -0.8383 -0.2485
   65MOL0     C 8511   4.377   0.198   4.839 -0.5190  0.4165 -0.8083
   65MOL0     C 8512   4.406   0.192   4.956  0.5639  0.7394 -0.1367
   65MOL0     C 8513   3.978   0.454   4.369 -0.1668 -0.8103  0.1267
   65MOL0     C 8514   3.854   0.499   4.323 -0.8317  0.4877  0.3732
   65MOL0     H 8515   3.573   0.680   3.979  1.2692 -2.1503  2.8981
   65MOL0     H 8516   3.360   0.746   3.886  1.4157  0.6291 -0.2136
   65MOL0     H 8517   3.167   0.866   3.881 -0.0087 -0.2752 -2.1321
   65MOL0     H 8518   2.996   0.866   3.902 -0.3419 -0.8214 -2.0729
   65MOL0     H 8519   2.992   0.612   3.816  3.1138 -3.6182 -0.2443
   65MOL0     H 8520   3.166   0.642   3.804  1.1314  2.0826  2.5798
   65MOL0     H 8521   3.068   0.693   3.580  0.3610  3.7953 -2.2234
   65MOL0     H 8522   3.113   0.843   3.653  1.1274  0.2082  1.8643
   65MOL0     H 8523   2.818   0.715   3.705 -2.3028  1.6652  0.1124
   65MOL0     H 8524   2.873   0.867   3.744 -1.4779 -0.5207  0.8844
   65MOL0     H 8525   2.873   0.802   3.443  3.2680  2.2335  0.3260
   65MOL0     H 8526   2.893   0.955   3.539 -3.1649  1.3289  3.8280
   65MOL0     H 8527   2.690   0.979   3.457  0.2673 -1.2207 -1.7536
   65MOL0     H 8528   2.657   0.919   3.625 -0.5647  4.4833 -1.2658
   65MOL0     H 8529   2.653   0.763   3.368  4.4568 -2.4705  2.4789
   65MOL0     H 8530   2.605   0.696   3.524  0.9750  0.6089  2.2009
   65MOL0     H 8531   2.406   0.762   3.397  1.0941 -1.0492 -0.0791
   65MOL0     H 8532   2.457   0.918   3.385 -0.8690  0.2812  1.4234
   65MOL0     H 8533   2.316   0.665   3.632 -0.5903  0.8571 -2.0229
   65MOL0     H 8534   2.224   0.680   3.925 -2.9568 -1.1251  0.4416
   65MOL0     H 8535   2.096   0.776   3.849 -0.6332  0.7830  2.7336
   65MOL0     H 8536   2.176   0.976   3.997  0.6851  1.4112  3.6299
   65MOL0     H 8537   2.304   0.869   4.056  0.5796 -1.6666  0.1521
   65MOL0     H 8538   2.024   0.803   4.090  0.0092  2.5337 -0.3601
   65MOL0     H 8539   2.159   0.725   4.175 -0.8095 -0.1912  1.0746
   65MOL0     H 8540   2.073   0.878   4.325 -0.9727 -0.6034 -0.4689
   65MOL0     H 8541   2.104   1.020   4.216  0.0116 -0.4847  0.6143
   65MOL0     H 8542   2.462   1.089   4.203  0.6647  1.4847  0.0813
   65MOL0     H 8543   2.506   1.326   4.263 -1.9283  1.7724 -0.8693
   65MOL0     H 8544   2.566   1.726   4.184  1.3447 -1.6563 -0.1138
   65MOL0     H 8545   2.691   1.939   4.246  0.6235 -0.8550 -0.2954
   65MOL0     H 8546   2.548   2.119   4.560 -0.4672  0.0900  0.4807
   65MOL0     H 8547   2.590   2.189   4.394 -2.0368  0.4037  0.0786
   65MOL0     H 8548   2.622   2.353   4.578 -0.3632  0.9241 -3.6792
   65MOL0     H 8549   2.771   2.318   4.487 -1.6727  0.2788 -2.1329
   65MOL0     H 8550   2.849   2.179   4.661 -0.4148 -0.9914 -0.4417
   65MOL0     H 8551   2.683   2.171   4.730 -0.6710 -0.0150 -2.2153
   65MOL0     H 8552   2.886   2.401   4.705 -1.6460  1.2574 -0.0424
   65MOL0     H 8553   2.730   2.416   4.780  0.9541  2.2575 -3.1950
   65MOL0     H 8554   2.908   2.399   4.956 -1.0659  0.6747  0.8153
   65MOL0     H 8555   2.978   2.268   4.870  2.0999 -0.1809  1.7464
   65MOL0     H 8556   2.887   2.179   5.071 -2.3844  2.9848  4.5667
   65MOL0     H 8557   2.787   2.111   4.939  1.1797  0.2188 -0.1254
   65MOL0     H 8558   2.697   2.305   5.145 -2.8617 -0.7604  1.2759
   65MOL0     H 8559   2.601   2.293   4.996  2.2059  0.2119 -1.4900
   65MOL0     H 8560   2.508   2.112   5.054  0.5419 -4.3305 -1.9938
   65MOL0     H 8561   2.562   2.153   5.219 -0.8196  1.4441 -1.6852
   65MOL0     H 8562   2.615   1.860   4.661  0.4053  2.1767 -0.2810
   65MOL0     H 8563   2.531   1.643   4.607  0.4523 -0.5359 -0.1699
   65MOL0     H 8564   2.149   1.355   4.495 -1.6297  0.6740 -2.6181
   65MOL0     H 8565   2.122   1.111   4.476 -0.2131  1.9533  1.2229
   65MOL0     H 8566   3.170   0.652   4.265 -2.0538 -2.8407 -2.4474
   65MOL0     H 8567   3.385   0.587   4.354 -0.2114 -0.5803  0.1364
   65MOL0     H 8568   3.699   0.201   4.350 -0.9756  1.2399  1.7733
   65MOL0     H 8569   3.907   0.147   4.460 -0.6543  1.0623  3.0456
   65MOL0     H 8570   4.295   0.172   4.399  0.6542 -2.0565 -2.1604
   65MOL0     H 8571   4.138   0.114   4.341  2.8792 -2.7583  0.3888
   65MOL0     H 8572   4.072   0.029   4.533  0.1430  2.1995  0.0181
   65MOL0     H 8573   4.239  -0.020   4.533  1.8787  0.9955 -2.3832
   65MOL0     H 8574   4.165   0.068   4.759 -0.5769 -1.7686 -2.4316
   65MOL0     H 8575   4.128   0.224   4.709  0.1881  0.4990  1.3647
   65MOL0     H 8576   4.409   0.098   4.666  1.7444  1.1189 -1.7789
   65MOL0     H 8577   4.367   0.274   4.648  1.6553 -0.1119  1.7154
   65MOL0     H 8578   4.433   0.216   5.056 -0.3595  1.2653 -0.0026
   65MOL0     H 8579   4.053   0.532   4.367 -1.5153  0.5582  1.1013
   65MOL0     H 8580   3.843   0.603   4.291  0.9173  1.1188  1.6839
   66MOL0     O 8581   9.564  10.386   0.832  0.4394  0.0922  0.3100
   66MOL0     C 8582   9.507  10.339   0.930 -0.3695 -0.4643  0.4100
   66MOL0     O 8583   9.563  10.325   1.056  0.2682 -0.1573  0.2549
   66MOL0     C 8584   9.687  10.389   1.061  1.0047  0.0527 -0.1925
   66MOL0     C 8585   9.699  10.522   1.015 -0.6043  0.2348  0.0208
   66MOL0     C 8586   9.819  10.591   1.014  0.3816  0.3519 -0.0977
   66MOL0     C 8587   9.937  10.522   1.066 -0.7196 -0.6081  0.8473
   66MOL0     O 8588  10.052  10.588   1.074 -0.2496 -0.2745 -0.5896
   66MOL0     C 8589  10.170  10.523   1.024  0.5362 -1.0082 -1.1213
   66MOL0     C 8590  10.247  10.623   0.941 -0.5721  0.0715  0.5010
   66MOL0     C 8591  10.293  10.748   1.024  0.5549 -0.9166  0.2711
   66MOL0     C 8592  10.382  10.847   0.943  0.0804  1.1930  0.1714
   66MOL0     C 8593  10.428  10.965   1.023  0.0935  0.6490  0.0288
   66MOL0     C 8594  10.526  11.060   0.949  0.0082 -0.3249 -0.2903
   66MOL0     C 8595  10.499  11.088   0.801 -0.1064 -0.5680  0.4229
   66MOL0     C 8596  10.366  11.159   0.772  0.5116 -0.9283  0.1399
   66MOL0     N 8597  10.326  11.214   0.644  0.6964  0.4627  0.4534
   66MOL0     C 8598  10.301  11.139   0.534 -0.5160 -0.7782 -0.0899
   66MOL0     C 8599  10.241  11.218   0.452  1.0242 -0.2326 -0.3512
   66MOL0     C 8600  10.190  11.192   0.312 -0.9532  0.4704  0.0500
   66MOL0     C 8601  10.045  11.147   0.299 -0.9519 -0.0956  0.1440
   66MOL0     C 8602   9.937  11.233   0.353  0.2918  0.2108 -0.3066
   66MOL0     C 8603   9.805  11.187   0.308  1.0905 -0.4448  0.6117
   66MOL0     O 8604   9.705  11.274   0.362  0.0542 -0.1280 -0.2535
   66MOL0     C 8605   9.565  11.249   0.339 -0.4705  0.1581 -0.3744
   66MOL0     C 8606   9.475  11.351   0.357 -0.1685  0.6813 -0.8959
   66MOL0     C 8607   9.343  11.342   0.323 -1.0701 -0.8657 -0.4669
   66MOL0     C 8608   9.298  11.227   0.262 -0.0502 -0.1398  0.2514
   66MOL0     C 8609   9.153  11.206   0.232 -0.6274 -0.4036  0.5374
   66MOL0     O 8610   9.117  11.078   0.188 -0.6245 -0.4668  1.1062
   66MOL0     C 8611   8.988  11.055   0.149 -0.3542 -0.7363 -0.7389
   66MOL0     C 8612   8.928  10.934   0.199 -1.2347 -0.3681 -0.2857
   66MOL0     C 8613   8.799  10.893   0.162  0.3654  0.0432 -0.2047
   66MOL0     C 8614   8.728  10.983   0.093  0.0034  0.5006  0.3439
   66MOL0     O 8615   8.607  10.924   0.067  0.0156 -0.5153  0.6106
   66MOL0     C 8616   8.499  11.014   0.098  0.4116  0.0811  0.2448
   66MOL0     C 8617   8.394  10.954   0.186 -0.3672  1.5321  0.1825
   66MOL0     C 8618   8.308  10.863   0.091 -0.5498  0.3584 -0.1896
   66MOL0     C 8619   8.189  10.796   0.174  0.4653 -0.6727  0.5987
   66MOL0     C 8620   8.122  10.692   0.077  0.6825  0.1018 -0.3409
   66MOL0     C 8621   7.999  10.625   0.138 -0.4359 -0.3891  0.3839
   66MOL0     C 8622   7.880  10.721   0.180 -0.4846  1.0230  0.1324
   66MOL0     C 8623   7.744  10.694   0.105  0.0980 -0.1234  0.2862
   66MOL0    Cl 8624   7.772  10.711  -0.073  0.2709 -0.0004 -0.1199
   66MOL0     C 8625   8.776  11.105   0.035 -0.0053  0.0205 -0.2380
   66MOL0     C 8626   8.904  11.134   0.074  0.9393  0.0546 -1.4701
   66MOL0     O 8627   9.077  11.302   0.237 -0.1112  0.1665  0.8037
   66MOL0     C 8628   9.389  11.130   0.223 -0.6327  0.2400  0.0584
   66MOL0     C 8629   9.522  11.144   0.258  0.0999  0.6688 -0.0540
   66MOL0     N 8630  10.231  11.345   0.505  0.6493 -0.3789 -0.0939
   66MOL0     N 8631  10.288  11.342   0.623  0.9749 -0.3243  0.2297
   66MOL0     C 8632   9.919  10.393   1.116  0.3715  0.0277  0.0362
   66MOL0     C 8633   9.797  10.326   1.114 -0.1332  1.0481  0.0889
   66MOL0     C 8634   9.370  10.309   0.923 -0.5273 -0.0533  0.2499
   66MOL0     C 8635   9.289  10.380   0.841  0.1629 -0.1872  0.7333
   66MOL0     C 8636   9.158  10.348   0.823 -0.8468  0.6952  1.0276
   66MOL0     C 8637   9.098  10.251   0.894 -0.1027 -0.0224  0.1023
   66MOL0     O 8638   8.965  10.241   0.889  0.3947 -0.8254  0.3350
   66MOL0     C 8639   8.908  10.181   0.776 -0.5240 -0.1329 -0.1874
   66MOL0     C 8640   8.773  10.260   0.760 -0.8110  1.1176 -0.2914
   66MOL0     C 8641   8.691  10.212   0.639  0.3792 -0.4902  0.7040
   66MOL0     C 8642   8.619  10.081   0.650  0.1721 -0.5558 -0.8262
   66MOL0     C 8643   8.524  10.058   0.535 -0.7384 -0.9356  1.0481
   66MOL0     C 8644   8.469  10.032   0.429  0.0172 -0.2395  0.1858
   66MOL0     C 8645   9.172  10.178   0.992  0.5205 -0.1268 -0.2025
   66MOL0     C 8646   9.313  10.203   0.998  0.2121  0.5858  0.1891
   66MOL0     H 8647   9.613  10.576   0.976 -2.5175 -2.2067  0.6039
   66MOL0     H 8648   9.823  10.697   0.989  1.0532  0.0351 -1.3554
   66MOL0     H 8649  10.161  10.419   0.990  2.0189 -1.7429  0.5781
   66MOL0     H 8650  10.238  10.522   1.110  0.6127  4.2290 -0.8306
   66MOL0     H 8651  10.169  10.649   0.868 -3.0244 -0.3369  2.7942
   66MOL0     H 8652  10.332  10.577   0.890 -3.3605 -0.0693 -4.7006
   66MOL0     H 8653  10.357  10.718   1.107  4.2322  0.5324 -1.7520
   66MOL0     H 8654  10.208  10.809   1.054 -1.5109 -3.4666 -0.0563
   66MOL0     H 8655  10.458  10.781   0.900 -3.2670 -0.6452 -3.6493
   66MOL0     H 8656  10.329  10.891   0.857  0.5304  1.8326  0.2139
   66MOL0     H 8657  10.475  10.925   1.113  0.8236 -2.6507 -1.6495
   66MOL0     H 8658  10.342  11.022   1.060 -1.7027 -1.6953 -0.2618
   66MOL0     H 8659  10.618  10.999   0.945  0.1114 -0.1316 -1.2081
   66MOL0     H 8660  10.538  11.152   1.006 -2.7993  1.3816 -2.2022
   66MOL0     H 8661  10.581  11.147   0.760  1.7157 -0.7865  3.4331
   66MOL0     H 8662  10.503  10.992   0.748  0.0366  0.1784 -0.9587
   66MOL0     H 8663  10.356  11.246   0.837 -0.2591  2.1211 -3.6578
   66MOL0     H 8664  10.281  11.095   0.798  0.9914 -1.6539 -0.0544
   66MOL0     H 8665  10.316  11.032   0.519 -2.5684 -1.2690  1.0579
   66MOL0     H 8666  10.248  11.108   0.271 -1.5805 -0.1827  0.4920
   66MOL0     H 8667  10.207  11.280   0.248  0.1914  1.0725  1.1299
   66MOL0     H 8668  10.048  11.051   0.350  0.2457 -0.4534 -0.5515
   66MOL0     H 8669  10.012  11.129   0.196 -1.5145 -2.6948  0.7160
   66MOL0     H 8670   9.947  11.231   0.462  1.6104 -1.4252 -0.4216
   66MOL0     H 8671   9.954  11.336   0.321  1.7356  0.4357  1.0535
   66MOL0     H 8672   9.792  11.082   0.338  0.1981 -0.3495  0.5562
   66MOL0     H 8673   9.798  11.186   0.199  0.7756  2.8656  0.5075
   66MOL0     H 8674   9.505  11.441   0.408 -2.6587 -0.5417  3.1571
   66MOL0     H 8675   9.277  11.424   0.351 -0.8043 -1.3895  1.9051
   66MOL0     H 8676   9.003  10.876   0.252 -1.0827  0.9051  0.9341
   66MOL0     H 8677   8.766  10.796   0.197  0.8675 -1.2164 -3.0219
   66MOL0     H 8678   8.454  11.043   0.003  1.3365  1.3383  0.1693
   66MOL0     H 8679   8.523  11.110   0.144  1.5898  1.5241 -3.1107
   66MOL0     H 8680   8.335  11.027   0.242  2.6638  0.8205  4.8046
   66MOL0     H 8681   8.446  10.893   0.259  1.2037  1.9885 -0.5230
   66MOL0     H 8682   8.383  10.791   0.055  1.0116  1.9184 -0.1759
   66MOL0     H 8683   8.258  10.928   0.019 -0.2811  0.5489 -0.2042
   66MOL0     H 8684   8.216  10.755   0.271  1.3078  0.8123  1.0224
   66MOL0     H 8685   8.128  10.885   0.194  0.8917 -0.0005 -0.8959
   66MOL0     H 8686   8.200  10.615   0.068  0.7784 -0.2592  2.7425
   66MOL0     H 8687   8.100  10.739  -0.019  3.4353 -0.4198 -1.3385
   66MOL0     H 8688   8.031  10.581   0.233  2.4139 -0.0143 -0.3147
   66MOL0     H 8689   7.960  10.546   0.073 -4.7288  2.4426 -0.8307
   66MOL0     H 8690   7.859  10.711   0.287 -2.7284 -0.4747 -0.3702
   66MOL0     H 8691   7.903  10.825   0.155 -1.6855  0.7637 -2.3427
   66MOL0     H 8692   7.661  10.759   0.135 -0.7666  0.1901 -2.5038
   66MOL0     H 8693   7.703  10.595   0.124 -0.4383 -0.0059 -0.2410
   66MOL0     H 8694   8.706  11.169  -0.017 -2.6028 -3.0156 -0.7819
   66MOL0     H 8695   8.928  11.238   0.053 -0.6691  0.8139  0.1374
   66MOL0     H 8696   9.341  11.048   0.170 -0.7183  0.6966 -0.5868
   66MOL0     H 8697   9.585  11.062   0.225  0.0125 -0.3889  2.1979
   66MOL0     H 8698   9.995  10.336   1.169 -1.0737 -3.2348 -1.1037
   66MOL0     H 8699   9.793  10.220   1.134  0.6575  0.1193 -3.8223
   66MOL0     H 8700   9.316  10.469   0.784 -2.9127  0.1159 -0.4748
   66MOL0     H 8701   9.095  10.412   0.762  1.5663  1.5812 -0.7336
   66MOL0     H 8702   8.894  10.074   0.794  2.2071 -0.8873 -1.8849
   66MOL0     H 8703   8.983  10.194   0.697 -0.5354  1.6815  0.0528
   66MOL0     H 8704   8.711  10.240   0.847  1.6864  0.3466  1.4427
   66MOL0     H 8705   8.793  10.367   0.748  0.2474  1.0807  0.9438
   66MOL0     H 8706   8.752  10.212   0.549 -0.8345  0.0561 -0.1497
   66MOL0     H 8707   8.617  10.291   0.620  0.5497 -0.4829  0.0581
   66MOL0     H 8708   8.695  10.003   0.655  1.3447  0.6236  0.6382
   66MOL0     H 8709   8.570  10.085   0.748  4.7323 -0.9531  1.7089
   66MOL0     H 8710   8.422  10.010   0.335  1.0952 -1.2271 -0.1439
   66MOL0     H 8711   9.126  10.096   1.047 -2.5512  1.2291 -0.5591
   66MOL0     H 8712   9.371  10.146   1.070 -0.2717  0.4123  0.4510
   67MOL0     O 8713  10.736   3.654   9.986  0.1591  0.1998 -0.1391
   67MOL0     C 8714  10.828   3.579   9.962  0.1961  0.1245 -0.2414
   67MOL0     O 8715  10.863   3.473  10.049 -0.8410 -0.2260  0.7305
   67MOL0     C 8716  10.818   3.475  10.179 -0.1672  1.3266  0.0306
   67MOL0     C 8717  10.763   3.360  10.229 -0.2393 -0.0792  1.0239
   67MOL0     C 8718  10.718   3.366  10.367  0.5645 -0.1007  1.5277
   67MOL0     C 8719  10.712   3.481  10.450 -0.5184 -0.0761 -0.2753
   67MOL0     O 8720  10.642   3.482  10.568 -0.4583 -0.7065  0.5357
   67MOL0     C 8721  10.526   3.388  10.581  0.4997 -0.7196 -0.3969
   67MOL0     C 8722  10.417   3.448  10.667  0.3032 -0.8790 -0.7203
   67MOL0     C 8723  10.439   3.404  10.820  0.4318  0.0607 -0.9066
   67MOL0     C 8724  10.358   3.482  10.922 -1.1459  0.7165  0.2879
   67MOL0     C 8725  10.356   3.637  10.926 -0.1193  0.2873  0.6432
   67MOL0     C 8726  10.251   3.675  11.026  0.0905 -0.3552  0.1717
   67MOL0     C 8727  10.214   3.822  11.028  0.2717 -0.6729  0.2683
   67MOL0     C 8728  10.320   3.929  10.995 -0.3257  0.1979 -0.4889
   67MOL0     N 8729  10.279   4.069  11.011  0.6883 -0.4341  0.3796
   67MOL0     C 8730  10.205   4.138  10.923 -0.0132 -0.0459 -0.1283
   67MOL0     C 8731  10.169   4.249  10.989  0.3696 -1.1163  0.8862
   67MOL0     C 8732  10.052   4.342  10.941 -0.0656  0.3060 -0.1201
   67MOL0     C 8733   9.953   4.388  11.055 -0.1527  0.4613  0.0742
   67MOL0     C 8734   9.882   4.285  11.136  0.5944  0.3556  1.5172
   67MOL0     C 8735   9.767   4.345  11.223  0.1438  0.5460  0.4182
   67MOL0     O 8736   9.662   4.394  11.145 -0.2179  0.0050 -0.2129
   67MOL0     C 8737   9.557   4.459  11.212  0.4795  0.6943  0.1669
   67MOL0     C 8738   9.562   4.576  11.286 -0.3919 -0.4344 -0.3723
   67MOL0     C 8739   9.452   4.643  11.330 -0.7507 -0.0725  0.0430
   67MOL0     C 8740   9.323   4.591  11.295 -0.7975  0.3046  0.0610
   67MOL0     C 8741   9.200   4.666  11.328 -0.1692 -0.6336 -0.0684
   67MOL0     O 8742   9.088   4.602  11.306  0.1770  0.4535  0.0076
   67MOL0     C 8743   8.957   4.647  11.300 -0.2051 -0.4518  0.3043
   67MOL0     C 8744   8.911   4.783  11.309  0.5306 -0.7165 -0.6107
   67MOL0     C 8745   8.770   4.810  11.314  0.2516  0.0856 -0.0557
   67MOL0     C 8746   8.670   4.714  11.294 -0.5356  0.3459  0.6322
   67MOL0     O 8747   8.528   4.739  11.282  0.1819  0.4226 -0.1855
   67MOL0     C 8748   8.492   4.877  11.268  0.2596 -0.0637  0.2742
   67MOL0     C 8749   8.343   4.870  11.284 -0.0952  0.1785 -0.0584
   67MOL0     C 8750   8.289   4.824  11.428  0.0159  0.9839 -0.0571
   67MOL0     C 8751   8.358   4.895  11.545  0.5584  0.4678  0.4793
   67MOL0     C 8752   8.313   4.839  11.682  0.2849  0.0049 -0.0514
   67MOL0     C 8753   8.163   4.846  11.708  0.4469  0.7826  0.5171
   67MOL0     C 8754   8.119   4.815  11.847 -0.4062 -0.7355  0.3280
   67MOL0     C 8755   7.965   4.826  11.870 -0.2297 -0.2012 -0.3814
   67MOL0    Cl 8756   7.888   4.987  11.884 -0.5811 -0.4647  0.0716
   67MOL0     C 8757   8.716   4.582  11.295  0.4288  0.4158  0.5200
   67MOL0     C 8758   8.855   4.550  11.295 -0.1059 -0.3668 -0.5821
   67MOL0     O 8759   9.203   4.781  11.381 -0.1371 -0.0785 -0.1055
   67MOL0     C 8760   9.320   4.468  11.238  0.7157  1.1107 -0.2278
   67MOL0     C 8761   9.433   4.408  11.182 -0.0886  0.4042  0.1392
   67MOL0     N 8762  10.239   4.255  11.112 -0.4380 -0.7129  0.1268
   67MOL0     N 8763  10.307   4.148  11.120 -0.5468 -1.0445 -0.0222
   67MOL0     C 8764  10.770   3.590  10.395 -0.2818 -0.1579  0.6565
   67MOL0     C 8765  10.826   3.587  10.265 -1.0121  0.0269  0.2516
   67MOL0     C 8766  10.896   3.584   9.833 -0.4960  0.3046 -0.4828
   67MOL0     C 8767  10.837   3.630   9.721  0.0904  0.2798  0.0028
   67MOL0     C 8768  10.902   3.636   9.599  0.5580  0.5442 -0.4148
   67MOL0     C 8769  11.039   3.593   9.590  0.1950  0.1836  0.2254
   67MOL0     O 8770  11.092   3.611   9.460 -0.4820 -0.5316 -0.5410
   67MOL0     C 8771  11.225   3.571   9.437 -0.6620  0.7826 -0.4646
   67MOL0     C 8772  11.256   3.568   9.283 -0.2837  0.7613 -1.1174
   67MOL0     C 8773  11.277   3.709   9.232 -0.9349 -1.6529 -0.4723
   67MOL0     C 8774  11.391   3.797   9.294 -0.4069 -0.2895 -0.0334
   67MOL0     C 8775  11.522   3.731   9.285 -0.3494  0.4745 -0.2624
   67MOL0     C 8776  11.625   3.665   9.296  0.7090  0.5556 -0.0572
   67MOL0     C 8777  11.105   3.552   9.707 -0.3785  0.7575  0.5749
   67MOL0     C 8778  11.036   3.550   9.829  0.2634 -0.4755 -0.4446
   67MOL0     H 8779  10.751   3.258  10.194  0.5350 -0.1998  1.0890
   67MOL0     H 8780  10.702   3.265  10.403  1.2047 -0.5270  0.6605
   67MOL0     H 8781  10.561   3.288  10.609  1.3659 -0.2122  0.3676
   67MOL0     H 8782  10.483   3.357  10.485  5.1312 -0.2393 -2.9388
   67MOL0     H 8783  10.319   3.403  10.648  1.3636 -3.1579 -1.0725
   67MOL0     H 8784  10.414   3.556  10.652 -5.7613  0.1572  3.8730
   67MOL0     H 8785  10.545   3.421  10.841  0.7065  0.1882 -2.3322
   67MOL0     H 8786  10.423   3.296  10.827  0.1598  0.1565  0.0334
   67MOL0     H 8787  10.260   3.434  10.909 -1.5150  1.0668  1.5550
   67MOL0     H 8788  10.386   3.443  11.021  3.7402  0.0168 -1.1180
   67MOL0     H 8789  10.324   3.670  10.826 -3.3191 -2.8369  0.4796
   67MOL0     H 8790  10.457   3.674  10.948 -0.0410 -1.0224  2.7380
   67MOL0     H 8791  10.277   3.642  11.127 -1.7338 -0.0402  0.7815
   67MOL0     H 8792  10.165   3.615  10.995 -1.3590  1.2173  0.9602
   67MOL0     H 8793  10.129   3.844  10.963 -0.0597 -2.6301 -0.0119
   67MOL0     H 8794  10.171   3.840  11.127 -1.6626 -1.6846 -0.3443
   67MOL0     H 8795  10.347   3.916  10.890  1.2935  2.1937 -0.3887
   67MOL0     H 8796  10.414   3.908  11.047  0.0517  1.4858 -0.6146
   67MOL0     H 8797  10.167   4.102  10.828  0.0200  1.7868 -0.8759
   67MOL0     H 8798  10.009   4.291  10.854  0.6520  0.2156 -0.4222
   67MOL0     H 8799  10.103   4.432  10.905  2.4462 -0.6557  0.8514
   67MOL0     H 8800   9.881   4.443  10.992  2.1471  1.1489 -2.1341
   67MOL0     H 8801  10.000   4.459  11.124 -2.2488  0.5680  1.4961
   67MOL0     H 8802   9.843   4.198  11.082 -1.3747  0.7938  2.1304
   67MOL0     H 8803   9.959   4.239  11.199  3.2135  0.2648 -1.5190
   67MOL0     H 8804   9.806   4.429  11.281  1.2010 -1.2269  2.4043
   67MOL0     H 8805   9.718   4.279  11.295 -0.3287  0.1227 -0.2825
   67MOL0     H 8806   9.662   4.614  11.310 -0.4203  0.4973 -1.6437
   67MOL0     H 8807   9.442   4.744  11.369 -1.3104  0.3490 -1.1556
   67MOL0     H 8808   8.979   4.867  11.311  0.2162 -0.4226 -1.8103
   67MOL0     H 8809   8.744   4.915  11.315  4.4889  1.3286  1.0557
   67MOL0     H 8810   8.527   4.927  11.178  1.0347 -0.0359  0.5779
   67MOL0     H 8811   8.521   4.945  11.349 -1.4663  3.3505 -1.7833
   67MOL0     H 8812   8.295   4.830  11.194 -2.6869 -0.9300  1.7011
   67MOL0     H 8813   8.301   4.971  11.275  0.0319  0.2080 -0.3448
   67MOL0     H 8814   8.282   4.715  11.425 -3.7859  1.0855 -2.1944
   67MOL0     H 8815   8.185   4.860  11.428  0.7284  3.5482 -3.1583
   67MOL0     H 8816   8.465   4.875  11.545  0.0925 -2.4920  0.9316
   67MOL0     H 8817   8.351   5.004  11.539  1.0023  0.5865  1.8519
   67MOL0     H 8818   8.371   4.903  11.749 -3.4734  1.5995  2.0079
   67MOL0     H 8819   8.360   4.741  11.679  1.9907  0.8052 -2.2424
   67MOL0     H 8820   8.119   4.773  11.639 -0.2721 -1.2900  3.0228
   67MOL0     H 8821   8.126   4.947  11.689  0.9536  0.8775  0.0019
   67MOL0     H 8822   8.142   4.709  11.862 -1.5503 -1.2681 -1.3523
   67MOL0     H 8823   8.174   4.872  11.923 -0.1703 -1.3769  0.6453
   67MOL0     H 8824   7.947   4.768  11.962  1.2706  0.1215  0.1387
   67MOL0     H 8825   7.912   4.763  11.798  0.1283 -2.2708  1.0555
   67MOL0     H 8826   8.651   4.501  11.326  1.2667 -0.5279 -0.1227
   67MOL0     H 8827   8.884   4.446  11.305 -2.4709 -1.0198  0.0923
   67MOL0     H 8828   9.225   4.423  11.210  1.7708 -1.1588 -0.4121
   67MOL0     H 8829   9.442   4.315  11.126  3.3949 -0.9227  2.5116
   67MOL0     H 8830  10.777   3.683  10.452  0.0869  1.6573 -2.1752
   67MOL0     H 8831  10.878   3.672  10.223  1.7258 -0.2072  2.7746
   67MOL0     H 8832  10.732   3.651   9.735  0.3286  0.1247  2.3818
   67MOL0     H 8833  10.841   3.674   9.517  2.8060  0.5345 -2.1949
   67MOL0     H 8834  11.250   3.469   9.468 -0.0415  1.3006  0.8206
   67MOL0     H 8835  11.294   3.633   9.495 -1.9305  1.3460  0.4742
   67MOL0     H 8836  11.348   3.511   9.267 -0.7871 -0.1475 -0.8760
   67MOL0     H 8837  11.175   3.510   9.236 -0.0463 -0.1224 -0.4525
   67MOL0     H 8838  11.183   3.763   9.247 -0.3388 -0.9981  1.1010
   67MOL0     H 8839  11.299   3.706   9.125 -1.4246 -1.5620 -0.5778
   67MOL0     H 8840  11.402   3.896   9.249 -3.1892 -0.1428 -0.5564
   67MOL0     H 8841  11.362   3.808   9.399  1.4569  2.2302  0.3170
   67MOL0     H 8842  11.719   3.616   9.307  0.4301 -0.9391 -3.1697
   67MOL0     H 8843  11.208   3.521   9.718 -0.4098  0.4030 -0.0802
   67MOL0     H 8844  11.070   3.518   9.927 -2.5376  1.4979  1.3510
   68MOL0     O 8845   8.694   2.080  10.999  0.4067 -0.7834 -0.3073
   68MOL0     C 8846   8.782   2.024  10.931 -0.0310 -0.2111 -0.3579
   68MOL0     O 8847   8.763   1.994  10.800  0.1593  0.9925 -0.6073
   68MOL0     C 8848   8.657   2.045  10.737 -0.2363 -0.1357  0.7153
   68MOL0     C 8849   8.657   2.177  10.704 -0.9493 -0.9020 -0.3930
   68MOL0     C 8850   8.553   2.242  10.645 -0.2263 -0.6185 -0.1452
   68MOL0     C 8851   8.443   2.168  10.609 -0.1385 -0.1544  0.0494
   68MOL0     O 8852   8.338   2.221  10.541  0.4646  0.4957  0.2924
   68MOL0     C 8853   8.206   2.157  10.536 -0.2783  0.0781  0.1175
   68MOL0     C 8854   8.127   2.265  10.469 -0.4711 -0.2288 -0.1038
   68MOL0     C 8855   7.971   2.252  10.465  0.2888 -0.2613  0.3342
   68MOL0     C 8856   7.912   2.375  10.402 -0.6039 -0.1863 -0.0219
   68MOL0     C 8857   7.767   2.346  10.378 -0.2746  0.3878  1.0168
   68MOL0     C 8858   7.677   2.456  10.330 -0.5412  0.2737  0.7890
   68MOL0     C 8859   7.529   2.427  10.339  0.3785 -0.0584  0.3035
   68MOL0     C 8860   7.458   2.498  10.220  1.0836  0.3793 -0.0239
   68MOL0     N 8861   7.305   2.494  10.238  0.5937  0.7639  0.5299
   68MOL0     C 8862   7.226   2.400  10.178  0.4878 -0.2954 -0.0905
   68MOL0     C 8863   7.107   2.461  10.184 -0.6869  0.0911 -0.6683
   68MOL0     C 8864   6.982   2.424  10.121  0.5154 -1.1481  1.4093
   68MOL0     C 8865   6.908   2.318  10.198 -0.2645 -0.4426  1.0168
   68MOL0     C 8866   6.782   2.295  10.121  0.6738  0.3606  0.2756
   68MOL0     C 8867   6.694   2.183  10.170 -0.2707 -0.2225  0.2726
   68MOL0     O 8868   6.677   2.199  10.310 -0.1348  0.4561  0.4887
   68MOL0     C 8869   6.566   2.134  10.369 -0.6199 -0.3445  0.2417
   68MOL0     C 8870   6.549   2.158  10.503 -0.1157  0.2817  0.0684
   68MOL0     C 8871   6.437   2.114  10.568  1.3709  0.9757 -0.3090
   68MOL0     C 8872   6.335   2.031  10.507  0.2237 -0.6255 -0.0118
   68MOL0     C 8873   6.215   1.990  10.572  0.1858  0.3234 -0.2187
   68MOL0     O 8874   6.197   2.014  10.705 -0.9926 -0.1211 -0.4933
   68MOL0     C 8875   6.075   1.977  10.762  0.8853  0.1285 -0.1979
   68MOL0     C 8876   6.068   1.862  10.845  0.3745  0.3489  0.3568
   68MOL0     C 8877   5.948   1.820  10.901  0.2129  0.1738  0.0832
   68MOL0     C 8878   5.826   1.897  10.889  0.3408  0.4705  0.0180
   68MOL0     O 8879   5.704   1.857  10.934  0.0020  0.3190  0.2687
   68MOL0     C 8880   5.656   1.945  11.033 -0.2149  0.5701  0.5144
   68MOL0     C 8881   5.533   2.021  10.981  0.4870 -0.3191 -0.2576
   68MOL0     C 8882   5.420   1.916  10.967  0.0339 -1.2998  0.4419
   68MOL0     C 8883   5.293   1.988  10.911  0.0691 -0.9147 -1.0351
   68MOL0     C 8884   5.177   1.888  10.932 -0.4348 -0.2241  0.9056
   68MOL0     C 8885   5.044   1.969  10.900 -0.8294  0.0213 -0.8510
   68MOL0     C 8886   4.996   2.065  11.014 -0.1277 -0.5066 -0.3849
   68MOL0     C 8887   4.889   1.984  11.106  0.0936 -0.7284 -0.8804
   68MOL0    Cl 8888   4.801   2.092  11.217  0.0763  0.8151 -0.2585
   68MOL0     C 8889   5.835   2.012  10.803 -0.2183 -0.1977  0.1216
   68MOL0     C 8890   5.956   2.046  10.736 -0.8523  0.2128 -0.6751
   68MOL0     O 8891   6.145   1.921  10.499 -0.1462  0.6128 -0.3153
   68MOL0     C 8892   6.357   1.999  10.369 -0.2796  1.4350 -0.7883
   68MOL0     C 8893   6.468   2.051  10.304  0.3948 -0.2828  0.4700
   68MOL0     N 8894   7.108   2.575  10.268 -0.0599  0.0694 -0.1335
   68MOL0     N 8895   7.228   2.598  10.295 -0.9757 -0.2732  0.1881
   68MOL0     C 8896   8.444   2.029  10.640  0.3428  1.8576 -1.0605
   68MOL0     C 8897   8.553   1.963  10.699  0.1834 -0.1397 -0.4430
   68MOL0     C 8898   8.908   1.990  10.990  0.3674  0.8716 -0.0310
   68MOL0     C 8899   9.023   1.969  10.911  0.9223 -0.6756 -0.2496
   68MOL0     C 8900   9.143   1.939  10.972  0.4417  0.5232  0.2713
   68MOL0     C 8901   9.154   1.904  11.111 -0.0945 -0.4108 -0.2978
   68MOL0     O 8902   9.266   1.882  11.174 -0.4846  0.6882 -0.0068
   68MOL0     C 8903   9.364   1.787  11.103  1.2063 -0.8378 -0.8109
   68MOL0     C 8904   9.493   1.830  11.152  0.3563 -0.4900  0.0508
   68MOL0     C 8905   9.527   1.973  11.110 -0.1728 -0.0768 -0.6959
   68MOL0     C 8906   9.679   2.003  11.121 -0.6218  0.0536 -0.4501
   68MOL0     C 8907   9.766   1.927  11.028 -1.0964  0.1270 -0.5447
   68MOL0     C 8908   9.844   1.876  10.954  0.2977 -0.1026  0.5423
   68MOL0     C 8909   9.040   1.911  11.184  1.6068 -0.2161 -0.1084
   68MOL0     C 8910   8.921   1.959  11.126 -0.5575 -0.0675  0.1141
   68MOL0     H 8911   8.731   2.241  10.750 -0.1847 -3.0630  1.5668
   68MOL0     H 8912   8.546   2.350  10.638 -2.0348 -0.6059  1.1983
   68MOL0     H 8913   8.166   2.142  10.636  1.8234 -0.5404  0.9075
   68MOL0     H 8914   8.200   2.065  10.476  1.1044  0.5429 -0.7868
   68MOL0     H 8915   8.160   2.271  10.365  0.7584  0.3782  0.3112
   68MOL0     H 8916   8.148   2.364  10.509 -3.9148  1.1995 -1.4508
   68MOL0     H 8917   7.923   2.247  10.563  0.2185  1.4597  0.4240
   68MOL0     H 8918   7.949   2.168  10.398 -0.5346  2.0357 -2.5156
   68MOL0     H 8919   7.930   2.456  10.473 -1.4682  0.5696 -0.6411
   68MOL0     H 8920   7.963   2.395  10.308 -0.0328  3.6377  0.9269
   68MOL0     H 8921   7.716   2.315  10.469 -0.9624 -0.9394  0.2160
   68MOL0     H 8922   7.760   2.271  10.298  0.4990 -0.5817  1.8364
   68MOL0     H 8923   7.701   2.476  10.225  1.4688  2.8529  1.6312
   68MOL0     H 8924   7.692   2.549  10.386 -1.0617  1.9948 -1.7611
   68MOL0     H 8925   7.505   2.320  10.339 -1.1343  0.2577  0.6301
   68MOL0     H 8926   7.480   2.477  10.423  0.4257  1.8521 -0.7604
   68MOL0     H 8927   7.490   2.450  10.127  1.1557  1.7492 -0.7436
   68MOL0     H 8928   7.487   2.603  10.236 -0.9170  0.7399  1.7475
   68MOL0     H 8929   7.247   2.297  10.152  1.6429 -0.3870  1.1280
   68MOL0     H 8930   7.000   2.401  10.016 -0.7718  1.6294  0.4869
   68MOL0     H 8931   6.921   2.515  10.121 -1.3437 -2.3468  1.1891
   68MOL0     H 8932   6.888   2.362  10.296  0.8839  3.8132 -0.4071
   68MOL0     H 8933   6.973   2.232  10.215  2.1092  1.1281  0.3261
   68MOL0     H 8934   6.729   2.391  10.121 -1.6550 -0.8524 -0.6488
   68MOL0     H 8935   6.810   2.264  10.019  1.0879  1.5642 -0.0050
   68MOL0     H 8936   6.746   2.088  10.160 -1.7316 -0.9033 -1.3693
   68MOL0     H 8937   6.605   2.172  10.108  0.5767  0.0297 -1.0150
   68MOL0     H 8938   6.622   2.216  10.558  2.8711 -0.7574 -2.5402
   68MOL0     H 8939   6.418   2.129  10.674 -0.1117 -0.9879 -0.2441
   68MOL0     H 8940   6.167   1.822  10.863  1.2388  2.2933  0.1854
   68MOL0     H 8941   5.948   1.731  10.963  0.4112  0.6940  0.8350
   68MOL0     H 8942   5.726   2.024  11.061  0.5890 -0.4478  1.4874
   68MOL0     H 8943   5.636   1.879  11.119 -1.7010 -1.2364 -1.1174
   68MOL0     H 8944   5.556   2.072  10.887  0.0772 -0.1148 -0.2495
   68MOL0     H 8945   5.505   2.101  11.051  1.8912 -0.0864  0.0724
   68MOL0     H 8946   5.391   1.891  11.069 -2.6748  2.7525  0.9309
   68MOL0     H 8947   5.450   1.831  10.905  2.3028 -0.1627 -0.1467
   68MOL0     H 8948   5.274   2.083  10.961 -0.9982 -0.8383 -1.5617
   68MOL0     H 8949   5.293   2.010  10.804 -2.0367 -0.3036 -0.9401
   68MOL0     H 8950   5.161   1.856  11.035  1.2303 -1.5905  0.7889
   68MOL0     H 8951   5.207   1.798  10.877 -0.4875 -1.2644  2.5089
   68MOL0     H 8952   4.966   1.895  10.882  0.7262 -2.5143  1.9556
   68MOL0     H 8953   5.076   2.020  10.809  3.0904  0.6029  0.6185
   68MOL0     H 8954   5.080   2.091  11.078 -0.3718 -2.7237  0.9656
   68MOL0     H 8955   4.935   2.147  10.975 -0.2650  0.0404  0.9583
   68MOL0     H 8956   4.942   1.910  11.167  0.1051 -1.3010 -1.5746
   68MOL0     H 8957   4.815   1.928  11.049 -2.6696 -0.1730  1.8857
   68MOL0     H 8958   5.743   2.058  10.768  0.5516  2.0260  0.8451
   68MOL0     H 8959   5.955   2.122  10.659 -3.5191  1.8207  0.7889
   68MOL0     H 8960   6.288   1.937  10.313  0.4090  1.6546 -1.9056
   68MOL0     H 8961   6.469   2.022  10.199  1.7200  1.2305  0.0116
   68MOL0     H 8962   8.353   1.973  10.622  0.6890  0.0609  1.9518
   68MOL0     H 8963   8.563   1.860  10.729  1.5627 -0.4328 -1.7688
   68MOL0     H 8964   9.004   1.992  10.806 -0.2222  0.0412  0.0894
   68MOL0     H 8965   9.228   1.938  10.904  2.2925  1.0687  2.4517
   68MOL0     H 8966   9.362   1.806  10.995  1.2838  0.6813 -0.5623
   68MOL0     H 8967   9.349   1.679  11.113  0.6996 -0.9246 -2.1606
   68MOL0     H 8968   9.499   1.818  11.261  2.6861 -1.8761 -0.1612
   68MOL0     H 8969   9.569   1.768  11.104 -0.4598 -2.4760  1.1580
   68MOL0     H 8970   9.466   2.039  11.173 -0.5178 -0.3172 -0.7791
   68MOL0     H 8971   9.499   1.980  11.005 -1.3372 -0.0284 -0.3904
   68MOL0     H 8972   9.689   2.111  11.103  2.8195 -0.2493 -1.0193
   68MOL0     H 8973   9.709   1.991  11.225 -1.1519 -2.3430 -0.5255
   68MOL0     H 8974   9.921   1.833  10.893 -0.3620  0.2891 -0.5858
   68MOL0     H 8975   9.035   1.923  11.292 -2.0474 -1.0500 -0.0500
   68MOL0     H 8976   8.835   1.976  11.191  0.3772  2.2583  0.8398
   69MOL0     O 8977   3.034   7.422   0.205 -0.3023  0.0370  0.6168
   69MOL0     C 8978   2.989   7.338   0.276 -0.6106  0.0237  0.3972
   69MOL0     O 8979   2.872   7.280   0.257 -0.2598  0.5675  0.8796
   69MOL0     C 8980   2.805   7.305   0.141 -0.6390 -0.3403 -0.3258
   69MOL0     C 8981   2.685   7.386   0.140  0.1582  0.5980  0.1894
   69MOL0     C 8982   2.628   7.429   0.020 -0.4304 -0.4218  0.2302
   69MOL0     C 8983   2.675   7.383  -0.101 -0.6060 -0.1635 -0.3862
   69MOL0     O 8984   2.633   7.428  -0.225 -0.2009  0.2580  0.2476
   69MOL0     C 8985   2.548   7.332  -0.296  0.4965  0.1219 -0.5215
   69MOL0     C 8986   2.406   7.355  -0.253 -0.1123  0.2373 -1.0744
   69MOL0     C 8987   2.312   7.268  -0.334  0.0803  0.8355 -0.3214
   69MOL0     C 8988   2.167   7.258  -0.290  0.2647  0.7855 -0.3724
   69MOL0     C 8989   2.161   7.180  -0.153  0.0181  0.0645  0.1911
   69MOL0     C 8990   2.016   7.168  -0.098 -0.9536 -0.2597  0.8221
   69MOL0     C 8991   2.011   7.095   0.041  0.6822 -0.3941  0.1502
   69MOL0     C 8992   1.865   7.073   0.096  0.6385  0.0254 -0.4745
   69MOL0     N 8993   1.777   6.982   0.018  0.0998 -0.5898  1.1608
   69MOL0     C 8994   1.778   6.845   0.022 -0.4872  0.3438  1.1301
   69MOL0     C 8995   1.666   6.802  -0.039 -0.1199 -0.4563  0.0169
   69MOL0     C 8996   1.612   6.667  -0.082 -0.9047 -0.4613  0.0314
   69MOL0     C 8997   1.587   6.575   0.041  0.3603  0.0859 -0.7176
   69MOL0     C 8998   1.485   6.464   0.009 -0.1114  0.0361  0.1459
   69MOL0     C 8999   1.432   6.386   0.143  0.1554  0.0037 -0.1741
   69MOL0     O 9000   1.529   6.389   0.251 -0.3396 -0.2493  0.1849
   69MOL0     C 9001   1.489   6.336   0.373  0.1700 -0.0046  0.6270
   69MOL0     C 9002   1.376   6.264   0.394  0.1497  0.6156 -1.2043
   69MOL0     C 9003   1.337   6.219   0.520 -0.3180  0.4332  1.0136
   69MOL0     C 9004   1.418   6.239   0.631  0.8627 -0.5161  0.8109
   69MOL0     C 9005   1.381   6.175   0.754 -0.3518 -0.3914 -0.5153
   69MOL0     O 9006   1.448   6.229   0.855 -0.1475  0.0833 -0.1006
   69MOL0     C 9007   1.445   6.181   0.978  0.6236 -0.5337 -0.4358
   69MOL0     C 9008   1.501   6.263   1.078  0.2575  0.0838 -0.2247
   69MOL0     C 9009   1.512   6.210   1.209  0.0994 -0.9939 -0.3589
   69MOL0     C 9010   1.446   6.085   1.243 -0.7262 -1.2996 -0.0137
   69MOL0     O 9011   1.480   6.050   1.375 -0.7970 -0.0577 -0.2217
   69MOL0     C 9012   1.398   5.965   1.454 -0.0681  0.0094 -0.0317
   69MOL0     C 9013   1.246   5.991   1.426 -0.7306  0.3157 -0.1870
   69MOL0     C 9014   1.202   6.138   1.468  0.5245  1.0045  0.8132
   69MOL0     C 9015   1.168   6.143   1.622 -0.0345 -0.1720  0.2843
   69MOL0     C 9016   1.018   6.095   1.658 -0.1683  0.1573  0.4041
   69MOL0     C 9017   1.006   6.055   1.805 -0.6331  0.5522 -0.5987
   69MOL0     C 9018   1.037   6.176   1.899 -0.0760 -0.0264 -0.1579
   69MOL0     C 9019   1.177   6.174   1.964  0.3179  0.7873  0.3609
   69MOL0    Cl 9020   1.206   6.329   2.057 -0.0388  0.7112 -0.5224
   69MOL0     C 9021   1.385   6.004   1.149 -0.4458  0.5036  0.2221
   69MOL0     C 9022   1.393   6.055   1.016  0.6150  0.8211 -0.3535
   69MOL0     O 9023   1.284   6.096   0.756  0.8485 -0.1072 -0.0773
   69MOL0     C 9024   1.542   6.303   0.613  0.2399 -0.3395 -0.9559
   69MOL0     C 9025   1.571   6.354   0.483 -0.5478  0.1199 -0.9453
   69MOL0     N 9026   1.593   6.919  -0.071 -0.8006  0.9063 -0.0752
   69MOL0     N 9027   1.664   7.021  -0.041 -0.3238  0.1983  0.2059
   69MOL0     C 9028   2.784   7.303  -0.096 -0.5432 -0.7298  0.1111
   69MOL0     C 9029   2.835   7.250   0.016 -0.3498 -0.4711  0.0839
   69MOL0     C 9030   3.072   7.295   0.385 -0.3887 -0.7114 -0.5251
   69MOL0     C 9031   3.208   7.328   0.394  0.7480  0.0191  0.2817
   69MOL0     C 9032   3.288   7.277   0.490  1.2253 -0.7666  0.1457
   69MOL0     C 9033   3.250   7.180   0.575  0.0342 -0.2102 -0.2802
   69MOL0     O 9034   3.333   7.120   0.673 -0.0700 -0.1932 -0.1237
   69MOL0     C 9035   3.459   7.178   0.705  0.6786 -0.4128 -0.2210
   69MOL0     C 9036   3.501   7.121   0.843 -0.4091  0.1857 -0.7078
   69MOL0     C 9037   3.562   6.979   0.825  0.3412 -0.4961  0.2272
   69MOL0     C 9038   3.541   6.897   0.957  0.5399 -0.7215 -0.0664
   69MOL0     C 9039   3.610   6.767   0.950 -0.1436 -0.7808 -1.1036
   69MOL0     C 9040   3.675   6.669   0.932  1.1149 -0.0608  0.7057
   69MOL0     C 9041   3.121   7.131   0.563  0.3216 -0.7346 -0.6514
   69MOL0     C 9042   3.030   7.189   0.470  0.0654  0.0183 -0.0136
   69MOL0     H 9043   2.658   7.428   0.237  2.9909  0.8842  0.9537
   69MOL0     H 9044   2.550   7.504   0.015 -0.7682 -0.2524  4.4516
   69MOL0     H 9045   2.581   7.229  -0.280  5.0536  1.3779 -0.3017
   69MOL0     H 9046   2.561   7.343  -0.404 -0.5206  1.6733 -0.5091
   69MOL0     H 9047   2.395   7.462  -0.272  2.5484  1.1916  1.8814
   69MOL0     H 9048   2.394   7.338  -0.146  0.8931 -0.7368 -1.0868
   69MOL0     H 9049   2.361   7.170  -0.333  1.3885  1.4330  1.4516
   69MOL0     H 9050   2.303   7.309  -0.435 -4.6430 -1.0261 -0.9104
   69MOL0     H 9051   2.116   7.354  -0.278  0.0842  0.6269  0.1282
   69MOL0     H 9052   2.102   7.205  -0.360 -0.1080 -0.2670  0.7377
   69MOL0     H 9053   2.203   7.248  -0.078  0.2827  1.1976 -0.9588
   69MOL0     H 9054   2.213   7.085  -0.140  2.3180  1.5034  2.8728
   69MOL0     H 9055   1.970   7.090  -0.159  1.6720 -2.4984  1.5003
   69MOL0     H 9056   1.954   7.258  -0.099 -0.1319  0.3287  1.3757
   69MOL0     H 9057   2.047   6.995   0.019  3.8385  0.5872  0.3107
   69MOL0     H 9058   2.066   7.143   0.124  0.3552 -0.2853  0.3063
   69MOL0     H 9059   1.818   7.171   0.082 -4.1605 -2.1927 -1.7755
   69MOL0     H 9060   1.871   7.043   0.201  1.4352 -4.0979 -1.5058
   69MOL0     H 9061   1.839   6.770   0.072 -0.9404 -0.4893  0.4614
   69MOL0     H 9062   1.672   6.611  -0.154 -2.3989 -1.1027 -0.7614
   69MOL0     H 9063   1.518   6.702  -0.125  0.8069  4.1524 -0.5791
   69MOL0     H 9064   1.540   6.648   0.108 -0.5723 -0.7313 -0.4631
   69MOL0     H 9065   1.681   6.534   0.080  1.1677 -0.2876 -2.9047
   69MOL0     H 9066   1.397   6.512  -0.035 -1.2607 -1.6056  0.5235
   69MOL0     H 9067   1.517   6.392  -0.068 -2.4032  2.8099 -3.7703
   69MOL0     H 9068   1.398   6.284   0.122 -2.8821  1.2717 -2.0974
   69MOL0     H 9069   1.351   6.438   0.194 -1.4827 -2.5605  0.0271
   69MOL0     H 9070   1.302   6.256   0.316 -1.4102 -1.1502  0.3287
   69MOL0     H 9071   1.240   6.170   0.528  0.7275 -1.7696  0.7190
   69MOL0     H 9072   1.535   6.362   1.051 -0.3037  0.7281  1.3035
   69MOL0     H 9073   1.565   6.259   1.289  1.9122 -6.5162  2.2883
   69MOL0     H 9074   1.428   5.974   1.559  3.7780  1.2935 -1.0811
   69MOL0     H 9075   1.420   5.861   1.430 -2.8845 -1.0015  1.2457
   69MOL0     H 9076   1.188   5.922   1.487 -2.0661  1.5655  0.0255
   69MOL0     H 9077   1.219   5.988   1.320 -0.7465  2.3598 -0.2933
   69MOL0     H 9078   1.116   6.166   1.407  0.6285  2.3279  1.2303
   69MOL0     H 9079   1.281   6.209   1.440  0.8573  0.4715  0.3964
   69MOL0     H 9080   1.232   6.073   1.675 -0.7777 -1.7117 -0.7410
   69MOL0     H 9081   1.188   6.243   1.660  4.0661 -1.1026  1.0152
   69MOL0     H 9082   0.999   6.013   1.588  0.2780  0.7439 -0.4358
   69MOL0     H 9083   0.947   6.172   1.627 -0.5777 -0.4188 -0.1093
   69MOL0     H 9084   1.082   5.979   1.826 -0.0321  0.8896 -1.4988
   69MOL0     H 9085   0.906   6.012   1.812 -0.0284 -1.0473 -1.2809
   69MOL0     H 9086   1.024   6.262   1.834 -0.0548 -0.8358 -1.2628
   69MOL0     H 9087   0.967   6.183   1.983 -1.6533 -1.0029 -1.3382
   69MOL0     H 9088   1.253   6.162   1.887 -1.8681 -0.3874 -1.7448
   69MOL0     H 9089   1.178   6.088   2.031 -1.8982 -0.9298 -1.6651
   69MOL0     H 9090   1.354   5.905   1.181  3.5861  0.0379  3.6587
   69MOL0     H 9091   1.359   5.990   0.936  0.3136  1.7137 -0.9670
   69MOL0     H 9092   1.610   6.329   0.693  1.1663 -0.1114 -1.7973
   69MOL0     H 9093   1.660   6.413   0.466 -1.7047  1.9096 -1.0150
   69MOL0     H 9094   2.834   7.268  -0.186  0.2229  0.9347 -0.1649
   69MOL0     H 9095   2.917   7.179   0.017  1.2882  1.2393  3.1021
   69MOL0     H 9096   3.256   7.401   0.330 -2.3992  1.6617 -0.3869
   69MOL0     H 9097   3.394   7.303   0.491  0.3568  3.9197 -1.9223
   69MOL0     H 9098   3.459   7.287   0.717 -0.6595 -0.2881 -1.0277
   69MOL0     H 9099   3.538   7.158   0.632 -0.3814 -3.0248 -0.7631
   69MOL0     H 9100   3.578   7.184   0.888 -0.5400 -2.6054  4.0987
   69MOL0     H 9101   3.417   7.119   0.914  2.1172  0.9683  2.5745
   69MOL0     H 9102   3.671   6.986   0.815  0.3410 -0.1842  0.4346
   69MOL0     H 9103   3.505   6.934   0.743 -0.6480 -2.6772  2.0299
   69MOL0     H 9104   3.577   6.959   1.040  2.8610 -1.3391 -0.5249
   69MOL0     H 9105   3.436   6.885   0.983  0.6616 -1.7394 -0.0215
   69MOL0     H 9106   3.747   6.591   0.912 -1.2176 -2.0312 -0.6006
   69MOL0     H 9107   3.094   7.047   0.627 -0.2890 -1.1235 -1.4027
   69MOL0     H 9108   2.925   7.158   0.468 -0.1589  0.4178  2.3237
   70MOL0     O 9109   0.856   5.932   2.789 -0.0349 -0.3735  1.1124
   70MOL0     C 9110   0.779   5.834   2.786  0.3279 -0.6108  0.3479
   70MOL0     O 9111   0.653   5.835   2.736 -0.3870  0.1088 -0.0125
   70MOL0     C 9112   0.610   5.949   2.671 -0.3497 -1.4130 -0.2051
   70MOL0     C 9113   0.520   6.029   2.731 -0.0460 -0.9829  0.4072
   70MOL0     C 9114   0.457   6.140   2.675 -0.3451  0.0558 -0.3448
   70MOL0     C 9115   0.495   6.174   2.544  0.2019  0.3713 -0.0395
   70MOL0     O 9116   0.437   6.286   2.490 -0.3976 -0.2207 -0.2201
   70MOL0     C 9117   0.360   6.265   2.370  0.6149  0.6574  0.1795
   70MOL0     C 9118   0.211   6.309   2.390 -0.3856  0.4668 -0.0992
   70MOL0     C 9119   0.136   6.234   2.502  1.7604  0.2625  0.2318
   70MOL0     C 9120   0.014   6.315   2.557  0.1978  0.3256 -0.0684
   70MOL0     C 9121  -0.105   6.338   2.452 -0.6282 -0.5988  0.4299
   70MOL0     C 9122  -0.215   6.411   2.535  0.3067 -0.5975 -0.4659
   70MOL0     C 9123  -0.339   6.464   2.456  0.1321 -0.3069 -1.0234
   70MOL0     C 9124  -0.303   6.579   2.355 -1.2015  0.2682  1.0382
   70MOL0     N 9125  -0.422   6.605   2.292  0.6088 -0.5214 -0.1007
   70MOL0     C 9126  -0.473   6.553   2.174  0.2790  0.5219  0.2866
   70MOL0     C 9127  -0.587   6.627   2.141 -1.0948  0.6750 -0.4541
   70MOL0     C 9128  -0.684   6.597   2.029 -0.1255 -0.0649 -0.9665
   70MOL0     C 9129  -0.623   6.595   1.894 -0.3445 -0.4360  0.3439
   70MOL0     C 9130  -0.576   6.736   1.850 -0.3694 -0.3063  0.0750
   70MOL0     C 9131  -0.548   6.731   1.698  0.4525  0.0076  0.8569
   70MOL0     O 9132  -0.664   6.701   1.628  0.9038 -0.4051  1.1465
   70MOL0     C 9133  -0.672   6.717   1.495  0.3373 -0.7055  0.5791
   70MOL0     C 9134  -0.565   6.760   1.415  0.8307  0.4432 -0.3906
   70MOL0     C 9135  -0.571   6.776   1.277  0.9266  0.3613  0.0139
   70MOL0     C 9136  -0.699   6.747   1.218 -0.3375 -0.0535  1.1055
   70MOL0     C 9137  -0.715   6.755   1.070 -0.7661 -0.0289 -0.6429
   70MOL0     O 9138  -0.831   6.713   1.017 -0.1422  0.2306  0.0227
   70MOL0     C 9139  -0.852   6.722   0.883 -0.1950  0.2569  0.4292
   70MOL0     C 9140  -0.777   6.664   0.781 -1.0784  0.6753 -0.4103
   70MOL0     C 9141  -0.829   6.651   0.655 -0.1813  0.5595  0.3406
   70MOL0     C 9142  -0.952   6.709   0.617  0.1371 -0.0402 -0.3146
   70MOL0     O 9143  -1.016   6.705   0.494  0.4816  0.5010 -0.3182
   70MOL0     C 9144  -1.010   6.577   0.443  0.5628  0.5524  0.5150
   70MOL0     C 9145  -1.135   6.564   0.342  0.8568 -0.7170  0.2155
   70MOL0     C 9146  -1.150   6.413   0.293  0.3075 -1.3749 -0.5722
   70MOL0     C 9147  -1.194   6.407   0.150  0.7782  0.4461 -0.1191
   70MOL0     C 9148  -1.318   6.483   0.126 -0.0442  0.3326 -0.5982
   70MOL0     C 9149  -1.411   6.426   0.020  0.6675 -0.2170  0.9606
   70MOL0     C 9150  -1.532   6.504  -0.041  0.2180  0.4581 -0.2034
   70MOL0     C 9151  -1.651   6.536   0.038 -0.2916 -0.0984  0.6292
   70MOL0    Cl 9152  -1.594   6.653   0.168 -0.2462 -0.1066  0.2513
   70MOL0     C 9153  -1.021   6.776   0.717 -0.6155 -0.8787  0.3258
   70MOL0     C 9154  -0.977   6.777   0.851  0.1333 -0.0731  0.2209
   70MOL0     O 9155  -0.616   6.788   1.004  0.6289 -0.5013  0.3256
   70MOL0     C 9156  -0.808   6.721   1.293  0.1657 -0.6185 -0.1136
   70MOL0     C 9157  -0.790   6.703   1.433 -0.8716 -0.5698  0.2338
   70MOL0     N 9158  -0.609   6.712   2.243 -0.0658 -0.1436  0.8047
   70MOL0     N 9159  -0.514   6.701   2.332  0.3373 -0.3375  0.6764
   70MOL0     C 9160   0.585   6.089   2.478 -0.1191 -0.7505  0.8268
   70MOL0     C 9161   0.634   5.976   2.541 -0.1546 -0.1373 -0.6375
   70MOL0     C 9162   0.827   5.704   2.828  0.1925  0.3730  1.6629
   70MOL0     C 9163   0.964   5.676   2.830 -0.2925  0.0602 -0.1089
   70MOL0     C 9164   1.013   5.559   2.887  0.6624  0.6427  1.2455
   70MOL0     C 9165   0.921   5.454   2.928  0.5103  1.2210  0.2848
   70MOL0     O 9166   0.956   5.340   3.004  0.2811 -0.3243 -0.4681
   70MOL0     C 9167   1.097   5.319   3.023  0.5630 -0.3840  0.0823
   70MOL0     C 9168   1.161   5.388   3.141  0.9589 -0.0973  0.1339
   70MOL0     C 9169   1.111   5.335   3.284 -0.7437 -0.0391  0.4809
   70MOL0     C 9170   1.147   5.437   3.390 -0.6320  0.4133  1.0551
   70MOL0     C 9171   1.167   5.373   3.521  0.7198 -0.3659  0.2582
   70MOL0     C 9172   1.183   5.331   3.631  0.9669 -0.2584 -0.2375
   70MOL0     C 9173   0.786   5.477   2.911  0.9274  0.4549  0.7601
   70MOL0     C 9174   0.737   5.601   2.870  0.0339 -0.8286 -0.2640
   70MOL0     H 9175   0.509   6.023   2.839  1.7880 -2.1869  0.5788
   70MOL0     H 9176   0.383   6.208   2.715 -1.0732  1.4714 -3.7346
   70MOL0     H 9177   0.366   6.162   2.336  1.7235  1.1782 -1.2740
   70MOL0     H 9178   0.392   6.326   2.285 -0.4740 -1.4389 -1.8309
   70MOL0     H 9179   0.165   6.325   2.291 -2.2636  1.0292  0.8193
   70MOL0     H 9180   0.200   6.410   2.431 -0.0097 -1.0145  4.0831
   70MOL0     H 9181   0.189   6.227   2.598  2.2116 -1.2588 -0.0966
   70MOL0     H 9182   0.110   6.134   2.467 -0.6001  0.9216 -0.0320
   70MOL0     H 9183  -0.025   6.255   2.640 -0.2744  0.4346 -0.2104
   70MOL0     H 9184   0.058   6.411   2.584 -1.7309  0.7163  1.9812
   70MOL0     H 9185  -0.136   6.243   2.407 -0.4431 -0.1920 -0.5892
   70MOL0     H 9186  -0.069   6.401   2.370  1.1526 -0.7066  1.0853
   70MOL0     H 9187  -0.176   6.502   2.581 -0.0058 -0.7055  0.0126
   70MOL0     H 9188  -0.260   6.351   2.614 -0.7407  1.0373  0.2432
   70MOL0     H 9189  -0.383   6.382   2.399  1.0055 -0.7266 -1.1005
   70MOL0     H 9190  -0.418   6.489   2.528  0.9283 -1.5100  0.3213
   70MOL0     H 9191  -0.226   6.553   2.281  0.4621  2.3154  1.9617
   70MOL0     H 9192  -0.263   6.670   2.400  1.2429 -0.4536  0.4851
   70MOL0     H 9193  -0.433   6.475   2.110  1.4697  1.3423  0.0062
   70MOL0     H 9194  -0.763   6.673   2.032 -0.1685 -0.1158 -0.8404
   70MOL0     H 9195  -0.724   6.497   2.048 -2.8326  1.1508  0.1465
   70MOL0     H 9196  -0.702   6.555   1.830 -0.9394  2.0376 -0.5841
   70MOL0     H 9197  -0.539   6.526   1.905 -0.3289 -0.5685 -0.5191
   70MOL0     H 9198  -0.650   6.815   1.862 -0.2194 -0.1113 -0.2741
   70MOL0     H 9199  -0.486   6.772   1.902  0.8355  0.3533 -2.3277
   70MOL0     H 9200  -0.483   6.644   1.688 -0.1274 -0.4105  0.7281
   70MOL0     H 9201  -0.514   6.830   1.664 -2.8216  0.7212 -0.6331
   70MOL0     H 9202  -0.465   6.770   1.457  0.4525  1.8773  0.1979
   70MOL0     H 9203  -0.487   6.790   1.211  0.7006  0.1566 -0.3206
   70MOL0     H 9204  -0.678   6.628   0.806 -0.8705  3.0128  2.6952
   70MOL0     H 9205  -0.773   6.607   0.573 -0.0259 -0.1973  0.8482
   70MOL0     H 9206  -1.018   6.488   0.505  0.6877 -0.5971 -1.0503
   70MOL0     H 9207  -0.915   6.570   0.388  2.4513 -0.9806  3.6453
   70MOL0     H 9208  -1.120   6.624   0.253  0.8724 -1.1862 -0.1042
   70MOL0     H 9209  -1.229   6.593   0.390  0.7401 -2.2266  0.9835
   70MOL0     H 9210  -1.214   6.354   0.359 -2.8084 -0.0908 -2.2298
   70MOL0     H 9211  -1.048   6.373   0.291  0.5074 -1.1239  1.8211
   70MOL0     H 9212  -1.114   6.459   0.096  0.1074 -0.5855 -2.2301
   70MOL0     H 9213  -1.194   6.303   0.113 -0.6652 -0.4581  2.2291
   70MOL0     H 9214  -1.304   6.590   0.106 -3.2826  0.3122 -4.3810
   70MOL0     H 9215  -1.374   6.482   0.220 -2.9529 -1.0400 -2.1958
   70MOL0     H 9216  -1.459   6.329   0.039 -1.4322  0.1498 -1.8386
   70MOL0     H 9217  -1.345   6.399  -0.063  3.1476  1.1911  2.3616
   70MOL0     H 9218  -1.483   6.588  -0.091  0.5939  1.9735  2.4768
   70MOL0     H 9219  -1.580   6.442  -0.117 -1.4975  1.0799  0.3203
   70MOL0     H 9220  -1.678   6.445   0.094  2.2356  0.1298  2.3822
   70MOL0     H 9221  -1.737   6.571  -0.020 -0.2953 -2.9167 -1.2895
   70MOL0     H 9222  -1.119   6.818   0.693 -0.3849 -0.8181 -0.5237
   70MOL0     H 9223  -1.039   6.837   0.917 -2.2009  0.5938 -2.3809
   70MOL0     H 9224  -0.897   6.691   1.238  0.1122 -1.2611  0.3251
   70MOL0     H 9225  -0.884   6.685   1.485 -2.1331  0.7091 -1.4808
   70MOL0     H 9226   0.620   6.095   2.376 -0.2297  3.7319  0.8608
   70MOL0     H 9227   0.701   5.909   2.489  0.9225  2.0166 -2.1928
   70MOL0     H 9228   1.030   5.758   2.803 -2.4805  1.4494 -1.5718
   70MOL0     H 9229   1.121   5.553   2.887  0.6334 -0.7117 -0.8319
   70MOL0     H 9230   1.154   5.349   2.935  0.4819  1.6938  0.6765
   70MOL0     H 9231   1.128   5.217   3.044  3.1673  0.7447  2.3600
   70MOL0     H 9232   1.268   5.366   3.136  1.1459  0.9144 -0.5292
   70MOL0     H 9233   1.145   5.496   3.135  0.4905 -0.1982 -0.5044
   70MOL0     H 9234   1.160   5.241   3.312 -2.1620 -0.6703  0.9007
   70MOL0     H 9235   1.004   5.317   3.292 -0.8171  0.1753  0.0119
   70MOL0     H 9236   1.239   5.491   3.365 -0.3160  0.4098  2.1546
   70MOL0     H 9237   1.072   5.516   3.395  2.7837  4.1118 -0.6641
   70MOL0     H 9238   1.216   5.293   3.725 -2.3196 -3.1223 -0.0485
   70MOL0     H 9239   0.709   5.404   2.934  0.2497  0.4146 -1.4650
   70MOL0     H 9240   0.632   5.628   2.872 -0.0924 -1.3387  0.1514
   71MOL0     O 9241   6.626   8.580   9.120  0.7250  0.1217  0.0715
   71MOL0     C 9242   6.574   8.470   9.111 -0.2827  0.7268  0.6134
   71MOL0     O 9243   6.507   8.416   9.000 -0.3859  0.6345  0.8776
   71MOL0     C 9244   6.488   8.503   8.898  1.0274  0.1715 -0.1107
   71MOL0     C 9245   6.365   8.546   8.852  0.1953 -0.0399 -0.4111
   71MOL0     C 9246   6.359   8.640   8.748  0.8345  0.1568  0.3303
   71MOL0     C 9247   6.472   8.687   8.679 -0.2490 -0.8384 -0.9458
   71MOL0     O 9248   6.469   8.788   8.585 -0.4363 -0.2914  0.1241
   71MOL0     C 9249   6.348   8.855   8.560  0.0245 -0.5027 -0.0186
   71MOL0     C 9250   6.402   8.962   8.462 -0.5975  0.2749  0.8390
   71MOL0     C 9251   6.303   9.075   8.437  0.3758 -0.1150 -0.5476
   71MOL0     C 9252   6.297   9.167   8.563 -0.5234  0.9923 -0.9157
   71MOL0     C 9253   6.176   9.261   8.593  0.1582  0.9669  0.6865
   71MOL0     C 9254   6.046   9.177   8.598  0.1557 -0.7409 -0.5708
   71MOL0     C 9255   5.917   9.250   8.636 -0.0315 -0.2297  0.5043
   71MOL0     C 9256   5.894   9.243   8.789 -0.8760  0.7780  0.3285
   71MOL0     N 9257   6.000   9.309   8.861  0.5371  0.0278  0.4918
   71MOL0     C 9258   6.094   9.238   8.931 -0.2924 -0.3058 -0.3679
   71MOL0     C 9259   6.170   9.328   8.992 -0.0733  0.7999  0.7610
   71MOL0     C 9260   6.282   9.299   9.079 -0.3331 -0.5352 -0.5384
   71MOL0     C 9261   6.233   9.313   9.223 -0.8488  0.0382  0.2789
   71MOL0     C 9262   6.350   9.324   9.331 -0.2372  0.8002  0.5006
   71MOL0     C 9263   6.282   9.309   9.473  0.4874  0.7157 -0.1479
   71MOL0     O 9264   6.375   9.325   9.579 -0.5901  0.0019  0.9862
   71MOL0     C 9265   6.333   9.322   9.702  0.1169 -0.2625  0.3606
   71MOL0     C 9266   6.236   9.413   9.749 -0.1074 -0.7200 -1.0053
   71MOL0     C 9267   6.180   9.398   9.879 -0.4464 -0.1670 -1.5506
   71MOL0     C 9268   6.215   9.285   9.962  0.2466  0.3466 -0.1131
   71MOL0     C 9269   6.181   9.270  10.101 -0.0268 -0.5583 -0.3861
   71MOL0     O 9270   6.276   9.216  10.181 -0.3348 -0.2091  0.7951
   71MOL0     C 9271   6.245   9.190  10.318  0.0839  0.5474 -0.3649
   71MOL0     C 9272   6.129   9.123  10.362 -0.3809 -0.3630 -0.5471
   71MOL0     C 9273   6.126   9.070  10.496 -0.2800 -0.3023 -0.5120
   71MOL0     C 9274   6.238   9.094  10.586  0.4669 -0.6597  0.3182
   71MOL0     O 9275   6.255   9.046  10.714 -0.5133  0.6457  0.3718
   71MOL0     C 9276   6.159   8.939  10.760 -0.7600 -1.8309  0.3521
   71MOL0     C 9277   6.220   8.884  10.886  0.5927 -0.4413  0.1998
   71MOL0     C 9278   6.223   8.983  11.010 -0.7133  0.4752 -0.2333
   71MOL0     C 9279   6.306   8.919  11.124 -0.1505  0.4985 -0.4841
   71MOL0     C 9280   6.301   9.011  11.250 -0.2263 -0.3648  0.6087
   71MOL0     C 9281   6.167   9.013  11.328 -1.1304  0.1340  0.2886
   71MOL0     C 9282   6.159   9.147  11.411 -0.6611 -0.2854 -0.0108
   71MOL0     C 9283   6.020   9.177  11.479  0.7868  0.4255  0.1793
   71MOL0    Cl 9284   6.039   9.298  11.621  0.0474  0.1597  0.3294
   71MOL0     C 9285   6.345   9.179  10.539 -0.0286  0.1537 -0.2622
   71MOL0     C 9286   6.349   9.216  10.406  0.2871 -0.9346 -1.3336
   71MOL0     O 9287   6.072   9.300  10.131  0.0920  0.7431  0.1222
   71MOL0     C 9288   6.318   9.196   9.914 -0.9065 -0.4364  0.2711
   71MOL0     C 9289   6.372   9.213   9.787  0.4362 -0.0747  0.4225
   71MOL0     N 9290   6.124   9.453   8.955  0.0568 -0.3124  0.3291
   71MOL0     N 9291   6.019   9.442   8.871 -0.2707  0.4409 -0.4653
   71MOL0     C 9292   6.588   8.634   8.724 -1.1050 -0.4070 -0.5549
   71MOL0     C 9293   6.599   8.543   8.828  0.1144  0.9024 -0.5151
   71MOL0     C 9294   6.601   8.369   9.216  0.0518 -0.7127 -0.1245
   71MOL0     C 9295   6.694   8.397   9.323  0.6911 -0.1437 -0.3394
   71MOL0     C 9296   6.719   8.295   9.416 -0.6659 -0.0145  0.6249
   71MOL0     C 9297   6.652   8.169   9.404 -0.7143 -0.3821  0.8407
   71MOL0     O 9298   6.685   8.087   9.506 -0.3964  1.1106  0.1633
   71MOL0     C 9299   6.612   7.964   9.526 -0.6307  0.1072  0.2130
   71MOL0     C 9300   6.715   7.849   9.546  0.3693 -0.0401  0.0284
   71MOL0     C 9301   6.824   7.835   9.435 -0.0273 -0.4428  0.8425
   71MOL0     C 9302   6.898   7.700   9.437  0.2309  0.0345 -0.4073
   71MOL0     C 9303   6.943   7.663   9.571 -0.7242 -0.2557  0.1665
   71MOL0     C 9304   6.987   7.625   9.679 -1.0656 -0.4778  1.5320
   71MOL0     C 9305   6.547   8.154   9.307 -0.1431 -0.7164 -0.2963
   71MOL0     C 9306   6.533   8.248   9.213 -0.7594  0.3201  0.7906
   71MOL0     H 9307   6.273   8.520   8.904  0.1276  0.2273 -0.3992
   71MOL0     H 9308   6.262   8.666   8.705  0.9525  1.6605  0.9480
   71MOL0     H 9309   6.313   8.902   8.653 -0.9020 -1.3678  0.0955
   71MOL0     H 9310   6.270   8.796   8.511 -0.7090 -0.2653  0.8178
   71MOL0     H 9311   6.434   8.917   8.368  0.2678  1.4063  0.5705
   71MOL0     H 9312   6.483   9.012   8.515 -1.1505  1.6821  0.3990
   71MOL0     H 9313   6.206   9.027   8.420 -0.5328  0.3677  2.6298
   71MOL0     H 9314   6.332   9.134   8.349  0.6234  2.8491  1.3791
   71MOL0     H 9315   6.304   9.110   8.656 -0.1576  1.7682 -0.4487
   71MOL0     H 9316   6.386   9.230   8.552  0.2472  0.1537  0.2825
   71MOL0     H 9317   6.171   9.342   8.519  2.5362  0.8222  0.2915
   71MOL0     H 9318   6.207   9.300   8.690 -1.0887  0.3190  1.3756
   71MOL0     H 9319   6.065   9.095   8.669  0.9367  0.6108  0.8466
   71MOL0     H 9320   6.028   9.131   8.501 -3.2010  0.7147 -0.7557
   71MOL0     H 9321   5.923   9.354   8.601 -1.2138 -0.7521 -1.3707
   71MOL0     H 9322   5.832   9.206   8.584  0.0184 -0.8697  0.9640
   71MOL0     H 9323   5.889   9.136   8.807  0.0443  0.4627 -1.1346
   71MOL0     H 9324   5.801   9.296   8.813 -1.5403  1.0497 -2.4942
   71MOL0     H 9325   6.092   9.130   8.943 -2.6388 -0.1358  1.3996
   71MOL0     H 9326   6.362   9.373   9.075  1.1727 -1.9767  1.1140
   71MOL0     H 9327   6.326   9.199   9.068  1.1172 -0.0513  0.6232
   71MOL0     H 9328   6.180   9.222   9.252 -1.1631 -0.4699 -1.7289
   71MOL0     H 9329   6.160   9.394   9.227  1.1418  1.9344  0.2306
   71MOL0     H 9330   6.429   9.252   9.313 -1.4432  0.2015 -3.1764
   71MOL0     H 9331   6.397   9.423   9.329 -0.4994  0.9746 -2.9332
   71MOL0     H 9332   6.226   9.216   9.486  2.3720 -0.5480 -0.6155
   71MOL0     H 9333   6.212   9.393   9.474 -0.5006 -0.0874 -0.6266
   71MOL0     H 9334   6.196   9.490   9.683  0.0296 -2.1463 -2.8433
   71MOL0     H 9335   6.113   9.468   9.929 -0.3367 -1.0375 -0.1307
   71MOL0     H 9336   6.057   9.087  10.289  0.5445  0.4709 -1.9312
   71MOL0     H 9337   6.035   9.015  10.514 -0.0234 -0.4334  0.4226
   71MOL0     H 9338   6.147   8.852  10.695 -0.1546 -1.2541 -0.5544
   71MOL0     H 9339   6.063   8.989  10.777 -0.2483 -0.8660  0.4465
   71MOL0     H 9340   6.321   8.852  10.859  0.6121  1.5310 -2.4653
   71MOL0     H 9341   6.162   8.793  10.908 -0.8636 -0.0058 -1.6363
   71MOL0     H 9342   6.120   9.001  11.042 -0.6680 -2.8662  2.4839
   71MOL0     H 9343   6.266   9.075  10.972 -2.2747  1.1216 -0.5118
   71MOL0     H 9344   6.276   8.816  11.149 -0.6006 -0.1783 -3.5018
   71MOL0     H 9345   6.413   8.909  11.103  0.8174  3.0129  2.4215
   71MOL0     H 9346   6.318   9.112  11.211 -0.9566 -0.0528  1.0789
   71MOL0     H 9347   6.377   8.981  11.322  1.7618 -0.8039 -1.5458
   71MOL0     H 9348   6.145   8.926  11.389 -0.3589  1.2570  2.2676
   71MOL0     H 9349   6.085   9.013  11.255 -0.3661 -0.2457 -0.5900
   71MOL0     H 9350   6.232   9.150  11.493 -1.3577  4.9663  0.7610
   71MOL0     H 9351   6.180   9.229  11.342 -0.4249  1.3272  1.8718
   71MOL0     H 9352   5.986   9.078  11.511 -1.1305  0.6020 -1.2096
   71MOL0     H 9353   5.944   9.204  11.405 -1.7662 -0.6002  2.2806
   71MOL0     H 9354   6.425   9.199  10.610  0.8611  3.5204 -1.9780
   71MOL0     H 9355   6.432   9.280  10.377 -0.5694  1.5154  1.1240
   71MOL0     H 9356   6.357   9.117   9.978  1.4293  2.4635  2.7407
   71MOL0     H 9357   6.458   9.152   9.760 -1.2053 -1.8209 -1.0728
   71MOL0     H 9358   6.682   8.665   8.678  2.6772 -6.6118  1.8320
   71MOL0     H 9359   6.698   8.510   8.856  1.3949  2.2187 -3.1007
   71MOL0     H 9360   6.732   8.494   9.350 -1.0623  0.1047  1.5111
   71MOL0     H 9361   6.781   8.305   9.504 -1.5779  0.7473  1.2022
   71MOL0     H 9362   6.558   7.941   9.433  0.9846  0.8876 -0.9691
   71MOL0     H 9363   6.530   7.975   9.598 -5.2429  2.0218 -4.6766
   71MOL0     H 9364   6.765   7.865   9.642 -0.1300 -3.9934  1.1527
   71MOL0     H 9365   6.663   7.753   9.557  0.4060  0.1147  1.9082
   71MOL0     H 9366   6.883   7.927   9.438 -0.6556  0.0170 -0.3397
   71MOL0     H 9367   6.766   7.838   9.343  1.2796 -2.2747 -0.0958
   71MOL0     H 9368   6.827   7.618   9.418  1.3567 -0.6309 -1.8917
   71MOL0     H 9369   6.972   7.699   9.357 -0.1742 -0.6121 -0.7833
   71MOL0     H 9370   7.030   7.588   9.769  1.5371 -0.3513  0.4296
   71MOL0     H 9371   6.476   8.073   9.301 -0.6714 -0.1910 -1.4343
   71MOL0     H 9372   6.446   8.246   9.149 -0.9258  0.2035  1.0228
   72MOL0     O 9373   9.067  10.905   7.641  0.0925 -0.0674 -0.2339
   72MOL0     C 9374   9.094  10.781   7.626  0.4985  0.7623 -1.2476
   72MOL0     O 9375   9.214  10.727   7.634  0.4455  1.1260  0.0395
   72MOL0     C 9376   9.330  10.793   7.637 -0.2400 -0.9566  0.1385
   72MOL0     C 9377   9.431  10.712   7.675  0.0715  0.8402 -0.2650
   72MOL0     C 9378   9.561  10.761   7.689 -0.3741 -0.2086  0.3085
   72MOL0     C 9379   9.580  10.897   7.691 -0.0549 -0.8744  0.1265
   72MOL0     O 9380   9.715  10.926   7.707  0.1555 -0.1133 -0.0797
   72MOL0     C 9381   9.745  11.048   7.784 -0.6440 -0.1073  0.1844
   72MOL0     C 9382   9.892  11.006   7.847  0.1075 -1.0921 -0.2400
   72MOL0     C 9383  10.002  11.039   7.747 -0.4753 -0.1702 -0.3013
   72MOL0     C 9384  10.147  10.989   7.793  0.1039 -0.7004 -0.7054
   72MOL0     C 9385  10.251  10.984   7.688  0.0645 -0.3425 -0.0933
   72MOL0     C 9386  10.335  10.857   7.703 -0.2869 -0.7022 -0.5376
   72MOL0     C 9387  10.415  10.794   7.587 -0.1198 -0.5401  0.3864
   72MOL0     C 9388  10.323  10.759   7.469  0.3286  0.6959  0.4460
   72MOL0     N 9389  10.243  10.646   7.512  0.0281 -0.0056 -0.7673
   72MOL0     C 9390  10.118  10.649   7.573 -1.0249 -1.2597  0.3743
   72MOL0     C 9391  10.097  10.519   7.610 -0.4413  0.2966  0.9833
   72MOL0     C 9392   9.974  10.444   7.659  0.3483 -0.1468  0.3168
   72MOL0     C 9393   9.891  10.388   7.555  0.7454  0.1811  0.9263
   72MOL0     C 9394   9.771  10.329   7.607  0.7971  0.1297 -0.1378
   72MOL0     C 9395   9.640  10.410   7.620  0.1030  0.2200 -0.9276
   72MOL0     O 9396   9.526  10.363   7.547 -0.4391 -0.1960  0.6970
   72MOL0     C 9397   9.426  10.292   7.603 -0.9719  0.4380  0.3093
   72MOL0     C 9398   9.305  10.271   7.521 -0.8075 -0.3853 -0.9144
   72MOL0     C 9399   9.192  10.222   7.580 -0.0365 -0.0972 -0.4881
   72MOL0     C 9400   9.202  10.171   7.714 -0.0673 -0.5156 -0.2427
   72MOL0     C 9401   9.083  10.112   7.776  0.0458  0.3368  0.0140
   72MOL0     O 9402   8.979  10.070   7.691 -0.2643 -0.0203 -0.5885
   72MOL0     C 9403   8.868   9.994   7.708 -0.7874  0.5158 -0.6645
   72MOL0     C 9404   8.846   9.920   7.826  0.4603  0.3505 -1.0055
   72MOL0     C 9405   8.736   9.835   7.846  0.8374  0.5329 -0.4175
   72MOL0     C 9406   8.625   9.845   7.762  0.2361  0.1869 -0.1886
   72MOL0     O 9407   8.500   9.785   7.787 -0.2838  0.3069 -0.2787
   72MOL0     C 9408   8.509   9.665   7.861 -0.2702  0.2342 -0.5451
   72MOL0     C 9409   8.371   9.601   7.841 -0.3676  0.2281 -0.3435
   72MOL0     C 9410   8.321   9.578   7.695  0.3365  0.0727 -0.4765
   72MOL0     C 9411   8.207   9.474   7.690 -0.3034  0.3716  0.2755
   72MOL0     C 9412   8.060   9.528   7.720 -0.0419 -0.7011  0.1697
   72MOL0     C 9413   8.016   9.600   7.590 -0.5543 -0.3233  0.1335
   72MOL0     C 9414   7.867   9.585   7.578  0.3129 -0.1388  0.9464
   72MOL0     C 9415   7.813   9.657   7.455  0.1611 -0.1343  0.7766
   72MOL0    Cl 9416   7.864   9.828   7.434  0.1333  0.4320  0.1347
   72MOL0     C 9417   8.635   9.931   7.652  0.3447  0.3226 -0.1248
   72MOL0     C 9418   8.760   9.998   7.620  0.2414 -1.7859 -0.5068
   72MOL0     O 9419   9.084  10.085   7.899  0.1523 -0.4671  0.3790
   72MOL0     C 9420   9.319  10.182   7.785 -0.5893 -0.4197 -0.3677
   72MOL0     C 9421   9.433  10.229   7.723 -0.2036  0.7827  0.6371
   72MOL0     N 9422  10.200  10.440   7.573  0.1014  0.1747  0.1294
   72MOL0     N 9423  10.287  10.515   7.516  0.4161  0.0745  0.3107
   72MOL0     C 9424   9.479  10.985   7.649  0.4671 -0.3017 -0.9805
   72MOL0     C 9425   9.350  10.932   7.640 -0.2133 -0.5678  0.4527
   72MOL0     C 9426   8.974  10.694   7.586 -0.1736  0.0795 -0.2604
   72MOL0     C 9427   8.861  10.745   7.515 -0.1074 -0.3263 -0.8225
   72MOL0     C 9428   8.758  10.664   7.468  0.0540 -0.0497  0.0009
   72MOL0     C 9429   8.766  10.527   7.479 -0.3813 -0.0384  0.3425
   72MOL0     O 9430   8.660  10.469   7.430  0.7378  0.0121  0.1491
   72MOL0     C 9431   8.634  10.340   7.478  0.1347 -0.1982 -0.6383
   72MOL0     C 9432   8.522  10.269   7.393  0.0365 -0.8336 -0.6888
   72MOL0     C 9433   8.582  10.227   7.254  0.1281  0.4314  0.1631
   72MOL0     C 9434   8.463  10.235   7.147  0.2625  0.4908 -0.0183
   72MOL0     C 9435   8.370  10.127   7.192 -0.5199  0.1170  1.3880
   72MOL0     C 9436   8.288  10.040   7.217  0.5969 -0.0778  0.7560
   72MOL0     C 9437   8.878  10.470   7.552  0.0109  0.0360  0.3583
   72MOL0     C 9438   8.984  10.550   7.598 -0.7985 -0.7606  0.0953
   72MOL0     H 9439   9.415  10.606   7.692 -1.9719  0.1416 -5.0227
   72MOL0     H 9440   9.645  10.706   7.730 -0.8735  0.1689  1.9465
   72MOL0     H 9441   9.667  11.063   7.859  0.6419 -0.8969  1.7454
   72MOL0     H 9442   9.765  11.141   7.731  1.5845 -0.8654 -0.4095
   72MOL0     H 9443   9.882  10.899   7.864  0.5815 -1.7919 -3.7128
   72MOL0     H 9444   9.907  11.054   7.944  0.8008 -2.0433  0.1334
   72MOL0     H 9445  10.014  11.147   7.749  0.1052 -0.1253  4.6769
   72MOL0     H 9446   9.969  11.005   7.648 -1.2873  2.0357 -0.8517
   72MOL0     H 9447  10.178  11.057   7.873 -1.3805  0.5287 -1.1322
   72MOL0     H 9448  10.129  10.889   7.832 -1.6264  0.2562  1.1486
   72MOL0     H 9449  10.312  11.075   7.687 -0.3459 -0.0329 -2.5129
   72MOL0     H 9450  10.204  10.976   7.589  0.9226  1.0067 -0.6409
   72MOL0     H 9451  10.285  10.768   7.743 -0.6726 -0.5228 -0.6169
   72MOL0     H 9452  10.418  10.881   7.771 -0.1629 -2.0309 -0.1960
   72MOL0     H 9453  10.488  10.859   7.537  0.4883  0.0741  2.0126
   72MOL0     H 9454  10.482  10.713   7.618  0.9758  0.5636  1.0171
   72MOL0     H 9455  10.383  10.743   7.379 -0.7248  1.7731 -0.4687
   72MOL0     H 9456  10.257  10.843   7.447 -1.2386 -0.4470  0.6780
   72MOL0     H 9457  10.048  10.731   7.579 -1.4015 -1.5442 -0.1620
   72MOL0     H 9458   9.916  10.521   7.710  0.4393  1.0045 -1.2397
   72MOL0     H 9459  10.013  10.369   7.728  0.0410 -1.1494 -0.5667
   72MOL0     H 9460   9.948  10.319   7.493 -1.3867  3.1041 -5.0735
   72MOL0     H 9461   9.858  10.471   7.492 -0.7567 -2.9287 -2.8638
   72MOL0     H 9462   9.740  10.241   7.550 -1.8589  1.7910 -1.4868
   72MOL0     H 9463   9.794  10.301   7.711  0.4429  0.6735  0.0907
   72MOL0     H 9464   9.653  10.507   7.569  2.0151 -0.4821 -1.8699
   72MOL0     H 9465   9.616  10.416   7.727  0.9156 -4.2156 -0.3034
   72MOL0     H 9466   9.298  10.316   7.423  2.5926  0.8659 -0.6983
   72MOL0     H 9467   9.097  10.229   7.527 -0.8580  3.3158  1.1787
   72MOL0     H 9468   8.933   9.904   7.890  0.8217 -1.3005 -1.8433
   72MOL0     H 9469   8.721   9.759   7.921 -1.8646  1.6300  0.2785
   72MOL0     H 9470   8.515   9.686   7.968 -1.6688  1.2233 -0.6273
   72MOL0     H 9471   8.590   9.599   7.830  1.7585  1.7497  1.2355
   72MOL0     H 9472   8.293   9.652   7.899 -0.3565 -1.1439  0.9467
   72MOL0     H 9473   8.369   9.504   7.891  0.4344  1.5680  2.5232
   72MOL0     H 9474   8.407   9.541   7.638  0.9582  1.1405 -0.2628
   72MOL0     H 9475   8.286   9.673   7.653 -2.9010 -1.2811 -1.1563
   72MOL0     H 9476   8.206   9.428   7.590 -3.3459 -2.6205  1.4816
   72MOL0     H 9477   8.240   9.391   7.754 -2.5981  0.3667  1.5401
   72MOL0     H 9478   8.067   9.585   7.812  1.7328  2.6070 -1.8261
   72MOL0     H 9479   7.997   9.442   7.742  0.6752 -0.6783  2.5377
   72MOL0     H 9480   8.076   9.578   7.502  2.8405  2.3219  1.5281
   72MOL0     H 9481   8.038   9.706   7.608 -1.2597  0.0086 -0.9090
   72MOL0     H 9482   7.849   9.478   7.563 -0.2466  0.2272 -1.5134
   72MOL0     H 9483   7.814   9.621   7.667  0.3853 -0.1245  0.9831
   72MOL0     H 9484   7.704   9.653   7.458  0.1964 -3.0361  0.3648
   72MOL0     H 9485   7.833   9.593   7.369 -2.8680 -0.7968  0.4847
   72MOL0     H 9486   8.545   9.928   7.593  0.5517 -3.3968 -0.4727
   72MOL0     H 9487   8.770  10.045   7.523  1.3993  2.1269  1.3052
   72MOL0     H 9488   9.322  10.152   7.889 -0.7383  1.4235  0.2075
   72MOL0     H 9489   9.526  10.231   7.780  1.7911 -0.7477 -2.3304
   72MOL0     H 9490   9.499  11.091   7.637  2.0106  0.0500  3.2996
   72MOL0     H 9491   9.259  10.989   7.626 -1.9942 -3.4656 -0.6340
   72MOL0     H 9492   8.858  10.851   7.492  0.8351 -0.2960 -0.8745
   72MOL0     H 9493   8.674  10.702   7.411  0.5841 -1.1735 -1.6051
   72MOL0     H 9494   8.594  10.344   7.580  0.2008  1.8838 -0.6441
   72MOL0     H 9495   8.724  10.279   7.465  0.8535  1.0458 -1.7291
   72MOL0     H 9496   8.480  10.179   7.438 -1.2509 -0.3104 -0.8120
   72MOL0     H 9497   8.434  10.333   7.388 -0.5073 -1.1848  2.3863
   72MOL0     H 9498   8.641  10.135   7.244  1.8932  1.1698  2.6147
   72MOL0     H 9499   8.659  10.301   7.230 -1.0507  2.2142  1.6064
   72MOL0     H 9500   8.413  10.332   7.160 -2.0782 -0.7448  0.7496
   72MOL0     H 9501   8.511  10.221   7.051  1.9175 -1.3146  1.0081
   72MOL0     H 9502   8.218   9.959   7.222  0.0570  0.2617 -0.9365
   72MOL0     H 9503   8.880  10.364   7.573  1.4043  0.2251  1.3306
   72MOL0     H 9504   9.067  10.501   7.647  0.8122  1.9592  0.2840
   73MOL0     O 9505   4.745   7.053   6.767 -0.2474 -0.4166 -0.4134
   73MOL0     C 9506   4.708   7.155   6.830  1.4279  0.1736 -0.0780
   73MOL0     O 9507   4.573   7.187   6.866  0.9387 -0.3557 -0.2717
   73MOL0     C 9508   4.477   7.094   6.874  1.0057  0.3369 -0.3599
   73MOL0     C 9509   4.397   7.063   6.981  0.1744 -0.5283  0.2670
   73MOL0     C 9510   4.299   6.964   6.971  0.2701  0.1949 -0.1307
   73MOL0     C 9511   4.282   6.894   6.847  0.8292  0.0955 -0.2117
   73MOL0     O 9512   4.175   6.803   6.855 -0.4165 -0.5456 -0.9726
   73MOL0     C 9513   4.109   6.768   6.729 -0.1920  0.4837 -0.2761
   73MOL0     C 9514   3.988   6.679   6.770  0.4491  0.1123 -0.3313
   73MOL0     C 9515   3.924   6.611   6.648 -0.6982 -0.2036 -0.3202
   73MOL0     C 9516   3.788   6.545   6.699  0.7043 -0.1974  0.0758
   73MOL0     C 9517   3.711   6.477   6.586 -0.8292 -0.2176  0.1604
   73MOL0     C 9518   3.571   6.417   6.635  0.8129  0.0740 -0.0897
   73MOL0     C 9519   3.480   6.520   6.698  0.3004 -0.2114  0.1829
   73MOL0     C 9520   3.323   6.500   6.665 -0.0873  0.0838 -0.1789
   73MOL0     N 9521   3.281   6.356   6.700 -0.1083  0.3540  0.8352
   73MOL0     C 9522   3.296   6.298   6.826 -0.7323 -0.3842  0.3578
   73MOL0     C 9523   3.303   6.167   6.797 -0.1434 -0.4175 -0.2813
   73MOL0     C 9524   3.348   6.044   6.882  0.2562  1.2327 -0.3850
   73MOL0     C 9525   3.482   6.083   6.952 -0.5616 -0.1882  0.1343
   73MOL0     C 9526   3.608   6.077   6.858 -1.0278  0.2150  0.1460
   73MOL0     C 9527   3.727   6.124   6.943 -0.1641 -0.1938 -1.4242
   73MOL0     O 9528   3.701   6.268   6.954 -0.6153 -0.4366 -0.7323
   73MOL0     C 9529   3.791   6.345   7.032  0.8615  0.9059 -0.5869
   73MOL0     C 9530   3.921   6.305   7.080  0.1375  0.0635 -0.0417
   73MOL0     C 9531   4.018   6.392   7.128 -0.4532 -0.3384 -0.2094
   73MOL0     C 9532   3.980   6.529   7.140 -0.7480  0.1746  0.8254
   73MOL0     C 9533   4.079   6.632   7.189 -0.9273  0.5055  0.1802
   73MOL0     O 9534   4.186   6.590   7.255  0.1388  1.1598 -0.4068
   73MOL0     C 9535   4.283   6.688   7.292 -0.6449  0.3890  0.3985
   73MOL0     C 9536   4.374   6.740   7.200  0.4996 -0.2393  0.4677
   73MOL0     C 9537   4.472   6.822   7.253 -0.0600 -0.1670 -0.0558
   73MOL0     C 9538   4.493   6.835   7.390  0.0990  0.8754 -0.0965
   73MOL0     O 9539   4.612   6.890   7.428 -0.5523  0.3893 -0.2502
   73MOL0     C 9540   4.606   6.964   7.553 -0.3320 -0.2106 -1.4551
   73MOL0     C 9541   4.746   6.987   7.607 -0.2175 -0.3044  0.0587
   73MOL0     C 9542   4.833   7.072   7.519  0.6374 -0.2038  0.2061
   73MOL0     C 9543   4.957   7.111   7.592 -0.7223 -0.4052  0.4956
   73MOL0     C 9544   4.964   7.265   7.641  0.1206  0.8357  0.5850
   73MOL0     C 9545   4.864   7.310   7.752  0.8087 -0.0333 -0.3302
   73MOL0     C 9546   4.898   7.446   7.811 -0.5322  0.4240 -0.0605
   73MOL0     C 9547   4.832   7.469   7.947 -0.1675 -0.1796  1.0059
   73MOL0    Cl 9548   4.939   7.419   8.080 -0.1998 -0.1791  0.3519
   73MOL0     C 9549   4.403   6.779   7.478 -0.8997 -0.0386  0.3494
   73MOL0     C 9550   4.305   6.704   7.431  0.2076  0.6930  0.4364
   73MOL0     O 9551   4.050   6.750   7.171  0.6676  0.6652  0.7652
   73MOL0     C 9552   3.852   6.569   7.096 -0.8938  0.0813  1.2216
   73MOL0     C 9553   3.760   6.479   7.038 -0.1778 -0.0504 -0.2789
   73MOL0     N 9554   3.272   6.150   6.663  0.0518  0.1417  0.8520
   73MOL0     N 9555   3.254   6.262   6.607  0.1363 -0.1208 -0.5018
   73MOL0     C 9556   4.357   6.935   6.736  0.6983  1.3570 -0.7734
   73MOL0     C 9557   4.456   7.030   6.760 -0.3194  0.0967  0.4901
   73MOL0     C 9558   4.824   7.247   6.867 -0.2079 -0.4737 -0.4844
   73MOL0     C 9559   4.819   7.381   6.901  1.4479  0.4009  0.7258
   73MOL0     C 9560   4.931   7.466   6.913 -0.7385 -0.0274  0.2196
   73MOL0     C 9561   5.064   7.423   6.889 -0.8156  0.6929  0.6130
   73MOL0     O 9562   5.166   7.511   6.904  0.2878 -0.1754  0.0036
   73MOL0     C 9563   5.303   7.469   6.903  1.3672  0.0547  0.2620
   73MOL0     C 9564   5.345   7.450   6.758  1.0984  0.8925  0.0311
   73MOL0     C 9565   5.495   7.398   6.750  0.8391  0.2946  0.7541
   73MOL0     C 9566   5.561   7.428   6.616  0.2689 -1.5905  1.1851
   73MOL0     C 9567   5.581   7.575   6.585 -0.8233  0.2793 -0.2682
   73MOL0     C 9568   5.588   7.698   6.565 -0.2931 -0.0755  0.3168
   73MOL0     C 9569   5.070   7.287   6.878  0.5703 -0.5047 -0.1139
   73MOL0     C 9570   4.953   7.206   6.857 -1.3600 -0.5756 -0.2265
   73MOL0     H 9571   4.423   7.124   7.067 -0.1150  0.6274 -0.4395
   73MOL0     H 9572   4.241   6.928   7.055  1.1499 -0.6292  0.1418
   73MOL0     H 9573   4.188   6.719   6.670 -0.9754 -1.1339 -0.0499
   73MOL0     H 9574   4.068   6.855   6.677  0.1989 -0.4296 -2.2090
   73MOL0     H 9575   3.924   6.758   6.812  0.7490  0.4784 -0.5591
   73MOL0     H 9576   4.003   6.602   6.847  0.6607  0.3733 -0.1109
   73MOL0     H 9577   3.988   6.527   6.618 -2.0743 -0.4293 -2.8944
   73MOL0     H 9578   3.915   6.682   6.565  0.5974  2.2771  1.5593
   73MOL0     H 9579   3.807   6.472   6.779 -0.9473 -0.3037  0.4001
   73MOL0     H 9580   3.734   6.628   6.746  4.0356  2.6016 -0.6289
   73MOL0     H 9581   3.781   6.410   6.535  0.0027  1.3426 -0.8203
   73MOL0     H 9582   3.681   6.547   6.508 -2.2239 -1.1446 -0.1674
   73MOL0     H 9583   3.590   6.334   6.703  0.4494 -0.0565 -0.1411
   73MOL0     H 9584   3.509   6.383   6.552 -2.8606  1.4765  1.8292
   73MOL0     H 9585   3.506   6.506   6.804 -2.2704 -2.4366  0.6238
   73MOL0     H 9586   3.514   6.618   6.663  1.9491 -0.7569  0.1583
   73MOL0     H 9587   3.298   6.522   6.560 -1.2964  1.8936  0.4543
   73MOL0     H 9588   3.259   6.573   6.715  1.5521  3.3185 -2.4158
   73MOL0     H 9589   3.327   6.329   6.926 -0.8767  0.5203  0.1305
   73MOL0     H 9590   3.356   5.950   6.826 -0.5975  0.0216  1.4312
   73MOL0     H 9591   3.270   6.014   6.952 -0.8399  1.9951 -1.2490
   73MOL0     H 9592   3.493   6.025   7.044  1.3077  0.0255  0.0830
   73MOL0     H 9593   3.483   6.186   6.989 -0.5694 -0.9380  2.3349
   73MOL0     H 9594   3.623   5.972   6.829 -0.4303 -0.8661  3.7890
   73MOL0     H 9595   3.604   6.144   6.772  2.9948  3.0803  1.8870
   73MOL0     H 9596   3.824   6.115   6.892  0.1872  0.0413 -0.8076
   73MOL0     H 9597   3.725   6.067   7.036  1.7693 -1.3605 -2.0397
   73MOL0     H 9598   3.948   6.200   7.079  0.4337  0.1188 -2.3820
   73MOL0     H 9599   4.118   6.365   7.160 -0.5641 -0.6075 -0.0866
   73MOL0     H 9600   4.372   6.719   7.094  1.8991  2.0630 -0.0774
   73MOL0     H 9601   4.537   6.870   7.181 -0.4371  1.4951  0.6626
   73MOL0     H 9602   4.559   6.918   7.640  1.9526  3.9752  2.4103
   73MOL0     H 9603   4.549   7.057   7.543 -0.7552  0.0614  2.2717
   73MOL0     H 9604   4.787   6.887   7.621  1.1240  0.3614  1.1810
   73MOL0     H 9605   4.726   7.047   7.697 -0.9033  0.4625 -0.5880
   73MOL0     H 9606   4.785   7.169   7.503  1.7099  0.4032  0.5522
   73MOL0     H 9607   4.850   7.016   7.427 -3.4880  1.1124 -1.5778
   73MOL0     H 9608   4.969   7.046   7.679  0.4466  3.3565  3.3845
   73MOL0     H 9609   5.038   7.079   7.525  0.9781 -0.5620  2.5134
   73MOL0     H 9610   4.959   7.334   7.556 -1.4784  1.0814  0.8412
   73MOL0     H 9611   5.064   7.271   7.685 -0.2072  3.5048  1.1386
   73MOL0     H 9612   4.863   7.236   7.833 -3.2629  1.7779  1.5942
   73MOL0     H 9613   4.762   7.314   7.713  1.0489 -4.4165 -1.9645
   73MOL0     H 9614   5.006   7.459   7.818 -0.3753 -1.1960  0.9767
   73MOL0     H 9615   4.872   7.527   7.742  0.2203  0.1051 -0.7418
   73MOL0     H 9616   4.739   7.415   7.965  0.8060 -1.7153  1.6241
   73MOL0     H 9617   4.812   7.577   7.946  1.0316  0.0594  0.8533
   73MOL0     H 9618   4.431   6.781   7.583 -0.8414  0.6938  0.3203
   73MOL0     H 9619   4.229   6.652   7.488 -1.3091  0.4904 -1.6698
   73MOL0     H 9620   3.820   6.673   7.094  0.3869  0.5240  2.5610
   73MOL0     H 9621   3.669   6.526   7.002  0.9767  2.7063  0.1236
   73MOL0     H 9622   4.345   6.888   6.639 -0.2258  0.5128 -0.2750
   73MOL0     H 9623   4.508   7.067   6.672  1.1980 -2.4637  0.2040
   73MOL0     H 9624   4.721   7.428   6.911  0.8578 -1.1364  3.0056
   73MOL0     H 9625   4.908   7.564   6.954 -1.7476  0.0448 -0.4808
   73MOL0     H 9626   5.306   7.385   6.973 -2.8037  2.5652  3.9255
   73MOL0     H 9627   5.359   7.552   6.948 -0.0596  1.7984 -1.0572
   73MOL0     H 9628   5.283   7.370   6.717  2.9319 -0.2401 -0.6453
   73MOL0     H 9629   5.333   7.536   6.692  2.4023 -0.8151 -2.6276
   73MOL0     H 9630   5.485   7.289   6.755  1.8951  0.0780 -1.0385
   73MOL0     H 9631   5.560   7.445   6.824  1.7383 -0.0322  0.1981
   73MOL0     H 9632   5.656   7.374   6.618 -0.1177 -2.2796  1.0943
   73MOL0     H 9633   5.502   7.385   6.535  1.6053  0.3886 -0.9695
   73MOL0     H 9634   5.587   7.804   6.552  4.4342  0.0672 -1.0540
   73MOL0     H 9635   5.164   7.232   6.877  0.3242 -1.0217 -2.5423
   73MOL0     H 9636   4.971   7.099   6.844  2.0474 -0.0969 -0.5186
   74MOL0     O 9637   7.020   4.869   8.822 -0.2303 -0.5248  0.1928
   74MOL0     C 9638   6.968   4.875   8.704  0.0735  0.8147 -0.3302
   74MOL0     O 9639   7.039   4.888   8.584  0.6445 -0.4934 -0.2630
   74MOL0     C 9640   7.176   4.862   8.587  0.7881 -0.5116  0.1679
   74MOL0     C 9641   7.240   4.743   8.545  0.2964 -0.5077 -0.1202
   74MOL0     C 9642   7.378   4.730   8.554  0.3995 -0.0615  0.5401
   74MOL0     C 9643   7.459   4.832   8.609  0.6447  0.1763 -0.1669
   74MOL0     O 9644   7.592   4.830   8.628  0.1477  0.7764  0.7323
   74MOL0     C 9645   7.677   4.730   8.577  0.5240 -0.2053  0.6828
   74MOL0     C 9646   7.823   4.768   8.601 -0.1708  0.4415 -0.1874
   74MOL0     C 9647   7.907   4.662   8.664 -0.0768 -0.5196  0.3603
   74MOL0     C 9648   8.052   4.695   8.700  0.2923  0.6420 -0.2149
   74MOL0     C 9649   8.132   4.608   8.792  0.0717  0.6179 -1.0082
   74MOL0     C 9650   8.092   4.638   8.935  0.1330 -0.9559 -0.4715
   74MOL0     C 9651   8.201   4.586   9.034  0.7192  0.0640  0.0147
   74MOL0     C 9652   8.179   4.636   9.178  0.8341 -0.3451  0.8198
   74MOL0     N 9653   8.270   4.585   9.276 -0.5101 -0.4245  0.7402
   74MOL0     C 9654   8.271   4.457   9.319 -0.9573  0.1993  0.3215
   74MOL0     C 9655   8.359   4.461   9.431  0.0159  0.2268  0.8822
   74MOL0     C 9656   8.365   4.356   9.530  0.0888  0.3825 -0.2687
   74MOL0     C 9657   8.257   4.247   9.526  0.6484  0.1291  0.3059
   74MOL0     C 9658   8.109   4.294   9.545  0.6667  0.6533 -0.2102
   74MOL0     C 9659   8.011   4.188   9.587  0.4716  0.0463 -1.3040
   74MOL0     O 9660   7.886   4.256   9.587 -0.0608 -0.3445  0.1507
   74MOL0     C 9661   7.766   4.186   9.599  0.8696 -0.2030  0.0026
   74MOL0     C 9662   7.648   4.236   9.566  0.5403  0.3834  0.0583
   74MOL0     C 9663   7.521   4.176   9.598  0.3034 -0.7204 -0.1653
   74MOL0     C 9664   7.513   4.048   9.651  0.4006  0.2154  0.5511
   74MOL0     C 9665   7.380   3.995   9.679 -0.0372 -0.1547 -0.0309
   74MOL0     O 9666   7.276   4.087   9.666  0.5213 -0.0274  0.2169
   74MOL0     C 9667   7.153   4.071   9.719  0.6600  0.2110 -0.1924
   74MOL0     C 9668   7.078   4.192   9.737 -0.5386  0.2504  0.2568
   74MOL0     C 9669   6.948   4.188   9.782  0.0369 -0.1033  0.0612
   74MOL0     C 9670   6.894   4.076   9.823  0.8219  0.3958  0.2164
   74MOL0     O 9671   6.770   4.057   9.880 -0.1414  0.0599  0.5335
   74MOL0     C 9672   6.680   4.162   9.885  0.3997  0.0581 -0.2422
   74MOL0     C 9673   6.541   4.092   9.905  0.1399 -0.2725  0.0913
   74MOL0     C 9674   6.429   4.189   9.872  0.2566 -0.4784 -0.1621
   74MOL0     C 9675   6.290   4.109   9.863  0.4217  0.1857 -0.0630
   74MOL0     C 9676   6.159   4.180   9.818 -0.8443  0.1197 -0.4620
   74MOL0     C 9677   6.115   4.288   9.927  0.6906 -0.5305 -0.2780
   74MOL0     C 9678   5.988   4.356   9.883  0.4013  0.6583  0.4612
   74MOL0     C 9679   5.905   4.407   9.999  0.0610  0.3776  0.3960
   74MOL0    Cl 9680   5.815   4.280  10.104 -0.0637 -0.0646 -0.2103
   74MOL0     C 9681   6.959   3.953   9.816 -0.2035 -0.5562  0.6195
   74MOL0     C 9682   7.091   3.957   9.771 -0.1872 -0.0123 -0.4848
   74MOL0     O 9683   7.373   3.880   9.715 -0.6311  0.4918 -0.2949
   74MOL0     C 9684   7.632   3.991   9.683 -0.0836  0.2374  0.1215
   74MOL0     C 9685   7.747   4.065   9.665 -1.3945 -0.3622 -0.0442
   74MOL0     N 9686   8.429   4.584   9.425 -0.9547  0.7510 -0.0137
   74MOL0     N 9687   8.362   4.663   9.347 -1.0318  0.8809 -0.9534
   74MOL0     C 9688   7.396   4.959   8.637  0.2064 -0.6943  0.9149
   74MOL0     C 9689   7.258   4.971   8.622  0.8554  0.3305 -0.8853
   74MOL0     C 9690   6.820   4.854   8.698 -0.0025  0.1315 -0.5671
   74MOL0     C 9691   6.758   4.881   8.582  0.0023  0.7476  0.4296
   74MOL0     C 9692   6.625   4.876   8.573  0.5594 -0.0145 -0.7591
   74MOL0     C 9693   6.545   4.857   8.691 -0.3210 -0.0523  0.6308
   74MOL0     O 9694   6.405   4.852   8.697  0.1073  0.7861  0.1023
   74MOL0     C 9695   6.324   4.878   8.583  0.0775 -0.8446 -0.1428
   74MOL0     C 9696   6.179   4.903   8.626 -0.9578 -0.2992  0.0351
   74MOL0     C 9697   6.158   5.036   8.692 -0.0297  0.6431 -0.7323
   74MOL0     C 9698   6.011   5.039   8.729  0.6507 -0.3589  0.4211
   74MOL0     C 9699   5.986   5.155   8.810 -0.9954  0.3043 -1.0249
   74MOL0     C 9700   5.947   5.260   8.854  0.4673 -0.4893  0.3867
   74MOL0     C 9701   6.604   4.830   8.812  0.2386 -0.7050  0.4513
   74MOL0     C 9702   6.748   4.829   8.816  0.3671  0.2083  0.8291
   74MOL0     H 9703   7.190   4.656   8.503  0.5405  0.0862 -1.6912
   74MOL0     H 9704   7.429   4.637   8.533  1.2550  1.1121 -3.3151
   74MOL0     H 9705   7.658   4.714   8.470  0.1588  0.1754  0.6899
   74MOL0     H 9706   7.647   4.641   8.633  0.2329  0.4349  1.5689
   74MOL0     H 9707   7.825   4.858   8.663 -3.2002  0.8551 -0.5644
   74MOL0     H 9708   7.864   4.801   8.505  0.6380 -0.0314 -0.0247
   74MOL0     H 9709   7.911   4.569   8.605 -0.2085 -0.3036  0.0069
   74MOL0     H 9710   7.858   4.626   8.755 -0.6387 -2.9191 -0.8187
   74MOL0     H 9711   8.110   4.688   8.608  1.0186  2.8009  0.0093
   74MOL0     H 9712   8.074   4.798   8.730 -0.9385  0.1348  2.8034
   74MOL0     H 9713   8.236   4.638   8.773  1.2660 -1.8043  1.0277
   74MOL0     H 9714   8.127   4.499   8.779 -2.6263 -0.2102  4.1619
   74MOL0     H 9715   8.003   4.586   8.971  0.0564 -0.0273  0.7721
   74MOL0     H 9716   8.086   4.746   8.953  2.1971 -0.6408 -1.4488
   74MOL0     H 9717   8.186   4.478   9.030  0.0467  0.1797 -1.1818
   74MOL0     H 9718   8.300   4.615   8.998 -0.3401  3.2451 -0.6594
   74MOL0     H 9719   8.077   4.618   9.214 -0.5790  1.7007 -1.7433
   74MOL0     H 9720   8.190   4.744   9.182 -1.2816  0.0574 -1.3833
   74MOL0     H 9721   8.205   4.377   9.289 -1.0333 -0.0555  1.1408
   74MOL0     H 9722   8.359   4.412   9.624 -2.1415  2.1739 -1.3823
   74MOL0     H 9723   8.459   4.300   9.524 -1.2834 -1.9863 -1.3800
   74MOL0     H 9724   8.265   4.174   9.607 -1.1723 -0.9897 -0.4605
   74MOL0     H 9725   8.281   4.187   9.438  3.3598  2.3805 -0.6633
   74MOL0     H 9726   8.093   4.376   9.615  1.9205 -0.0863  1.0127
   74MOL0     H 9727   8.064   4.321   9.449 -4.5880 -2.2893  1.0556
   74MOL0     H 9728   8.026   4.158   9.691  0.8320  1.5185 -0.9133
   74MOL0     H 9729   8.009   4.098   9.524  0.4217  0.2427 -1.5834
   74MOL0     H 9730   7.649   4.327   9.507 -3.3810  0.5149 -0.0419
   74MOL0     H 9731   7.433   4.230   9.565  0.8813  1.4761  1.6392
   74MOL0     H 9732   7.133   4.282   9.715  0.7925 -0.5946  0.0260
   74MOL0     H 9733   6.903   4.284   9.803  1.5247  0.6353 -0.0392
   74MOL0     H 9734   6.686   4.214   9.789  1.5429 -1.7104 -1.1825
   74MOL0     H 9735   6.708   4.227   9.968 -0.7729 -1.0642  1.1002
   74MOL0     H 9736   6.537   4.058  10.009 -1.4928  1.6000  0.7069
   74MOL0     H 9737   6.546   4.014   9.829  2.7809  1.2171 -1.4107
   74MOL0     H 9738   6.446   4.242   9.778  0.5000 -0.6967 -0.2401
   74MOL0     H 9739   6.422   4.258   9.957  5.5032  0.3630 -0.0979
   74MOL0     H 9740   6.303   4.033   9.785  2.5561  2.2052 -1.7878
   74MOL0     H 9741   6.278   4.044   9.950  1.3237 -1.4832 -1.1274
   74MOL0     H 9742   6.088   4.097   9.824 -0.5900 -0.1544 -1.1544
   74MOL0     H 9743   6.165   4.230   9.721 -2.2822 -0.3178 -0.7869
   74MOL0     H 9744   6.190   4.367   9.938 -2.4324  2.9717 -2.0862
   74MOL0     H 9745   6.093   4.244  10.024 -0.9290  2.5616  0.8736
   74MOL0     H 9746   6.020   4.438   9.818 -1.6647  0.3088 -1.1163
   74MOL0     H 9747   5.927   4.287   9.823  0.5895 -0.9343  2.0097
   74MOL0     H 9748   5.829   4.471   9.953  0.1530 -0.8604 -1.5887
   74MOL0     H 9749   5.972   4.454  10.072 -0.1519 -2.0044  2.2280
   74MOL0     H 9750   6.910   3.877   9.876 -0.0889 -1.0336  0.1134
   74MOL0     H 9751   7.133   3.857   9.778  2.3414  1.1090  1.8296
   74MOL0     H 9752   7.643   3.889   9.717  1.9840 -0.5136 -2.4572
   74MOL0     H 9753   7.834   4.026   9.716 -1.1437  0.1935 -0.0381
   74MOL0     H 9754   7.470   5.021   8.688 -0.0289 -0.5300  1.0561
   74MOL0     H 9755   7.206   5.056   8.665  1.6104  0.0398  0.7027
   74MOL0     H 9756   6.817   4.896   8.492 -4.0596 -0.9940 -2.8755
   74MOL0     H 9757   6.581   4.891   8.475 -0.0107  0.3138 -0.4545
   74MOL0     H 9758   6.321   4.785   8.526  3.4469 -1.1816  0.0109
   74MOL0     H 9759   6.360   4.957   8.516 -1.4376 -1.5925 -1.8867
   74MOL0     H 9760   6.118   4.905   8.535  0.0258  1.1794 -0.6287
   74MOL0     H 9761   6.153   4.823   8.696 -1.4424 -0.3469 -0.1931
   74MOL0     H 9762   6.187   5.116   8.624  0.1384  2.8685  1.7943
   74MOL0     H 9763   6.230   5.038   8.774  0.0195  2.8787 -0.7689
   74MOL0     H 9764   5.946   5.041   8.641 -2.3483 -0.3389  2.4995
   74MOL0     H 9765   5.993   4.947   8.784 -0.1539 -0.7617 -0.4955
   74MOL0     H 9766   5.897   5.342   8.901  0.4222 -1.1458  1.5315
   74MOL0     H 9767   6.557   4.801   8.906  4.1873 -0.7336  2.6298
   74MOL0     H 9768   6.805   4.816   8.907 -0.1999  1.8481  1.4600
   75MOL0     O 9769   4.951   6.200   4.530 -0.4368  0.5107  0.4063
   75MOL0     C 9770   4.956   6.074   4.531  0.0074 -0.1144  0.1823
   75MOL0     O 9771   4.848   5.997   4.591 -0.3591  0.1206  0.3821
   75MOL0     C 9772   4.734   6.059   4.627 -0.5383 -0.1703 -0.5077
   75MOL0     C 9773   4.691   6.061   4.764 -0.2812 -0.7411  0.0568
   75MOL0     C 9774   4.577   6.130   4.798  0.6631 -0.6945 -0.2733
   75MOL0     C 9775   4.494   6.201   4.708  0.1682  0.2249 -0.2007
   75MOL0     O 9776   4.400   6.285   4.756 -0.1510 -0.6072  0.7153
   75MOL0     C 9777   4.357   6.292   4.891  0.8901 -0.1948  0.2447
   75MOL0     C 9778   4.296   6.429   4.918 -0.4152  0.2428  0.4938
   75MOL0     C 9779   4.397   6.541   4.877  0.6405  0.6359 -0.8249
   75MOL0     C 9780   4.337   6.684   4.887  0.2979 -0.2032  0.1422
   75MOL0     C 9781   4.418   6.785   4.795  0.4748  0.0788 -0.6805
   75MOL0     C 9782   4.341   6.918   4.788 -0.3749 -0.4160 -0.2072
   75MOL0     C 9783   4.344   7.005   4.918  0.0880 -0.2825 -0.8116
   75MOL0     C 9784   4.482   7.031   4.979  0.0372 -0.3018 -0.0735
   75MOL0     N 9785   4.566   7.128   4.899 -0.3280  0.9372 -0.6119
   75MOL0     C 9786   4.692   7.152   4.952 -0.4726 -0.0785 -0.1268
   75MOL0     C 9787   4.753   7.211   4.850 -0.5368 -1.3762  0.0109
   75MOL0     C 9788   4.898   7.252   4.848  0.1390  0.1684  0.4411
   75MOL0     C 9789   4.920   7.399   4.896  0.0437  0.4261 -0.1834
   75MOL0     C 9790   5.071   7.421   4.919 -0.2463 -0.7872 -0.3848
   75MOL0     C 9791   5.103   7.525   5.020  0.0561 -1.0625 -0.7973
   75MOL0     O 9792   5.041   7.645   4.975  0.4917 -0.4780 -0.1400
   75MOL0     C 9793   5.009   7.732   5.079  0.6587  0.6107  0.0173
   75MOL0     C 9794   5.054   7.863   5.076 -0.1769  0.8263 -0.4787
   75MOL0     C 9795   5.028   7.954   5.181 -0.3255  0.2415 -0.1302
   75MOL0     C 9796   4.949   7.918   5.293 -0.6449  0.4886  0.0051
   75MOL0     C 9797   4.909   8.017   5.395  0.4109  0.2829  0.0009
   75MOL0     O 9798   4.985   8.133   5.398  0.6342 -0.0435 -0.0735
   75MOL0     C 9799   4.988   8.216   5.512  0.1396 -0.4448  0.2901
   75MOL0     C 9800   5.022   8.351   5.484  0.6148 -0.0761 -0.0512
   75MOL0     C 9801   5.051   8.436   5.590 -0.7994 -1.2388 -0.0500
   75MOL0     C 9802   5.052   8.386   5.721 -0.7164 -0.3916  0.1820
   75MOL0     O 9803   5.051   8.465   5.832 -0.0559  0.4289 -0.6176
   75MOL0     C 9804   4.976   8.585   5.837 -0.3122  0.2339  0.1343
   75MOL0     C 9805   4.837   8.555   5.790  0.3008 -0.2316  0.1912
   75MOL0     C 9806   4.744   8.684   5.831  0.8174  0.4595  0.3015
   75MOL0     C 9807   4.597   8.649   5.797 -1.0943  0.4237 -0.0559
   75MOL0     C 9808   4.502   8.767   5.786  0.6930 -0.2688 -0.5125
   75MOL0     C 9809   4.498   8.842   5.925  0.5369  0.2011 -0.4453
   75MOL0     C 9810   4.422   8.977   5.930 -0.4232 -0.4148 -0.8422
   75MOL0     C 9811   4.297   8.970   5.851  0.9681  0.6644  0.3106
   75MOL0    Cl 9812   4.157   8.887   5.941  0.0284 -0.2075  0.1307
   75MOL0     C 9813   5.030   8.256   5.746 -0.6869 -0.7712  0.0365
   75MOL0     C 9814   4.990   8.171   5.642 -0.0870 -0.5152 -0.7677
   75MOL0     O 9815   4.824   7.989   5.479  0.2246 -0.6852  0.9820
   75MOL0     C 9816   4.887   7.790   5.280 -0.7948 -0.5153  0.2485
   75MOL0     C 9817   4.927   7.694   5.185  0.2918  1.0512  0.1783
   75MOL0     N 9818   4.669   7.231   4.737  0.1639  0.7618  0.9164
   75MOL0     N 9819   4.553   7.181   4.773 -0.5290  0.8211 -0.1618
   75MOL0     C 9820   4.534   6.196   4.566 -0.2977 -0.7002 -0.6195
   75MOL0     C 9821   4.643   6.119   4.529 -0.0776 -1.0445  0.2705
   75MOL0     C 9822   5.071   6.018   4.466 -0.6043 -0.2675  0.4474
   75MOL0     C 9823   5.075   5.879   4.452  0.2194  0.1505  0.0896
   75MOL0     C 9824   5.184   5.823   4.396  0.6067 -0.1616 -0.3430
   75MOL0     C 9825   5.292   5.897   4.352  0.8126  0.1435  1.2667
   75MOL0     O 9826   5.400   5.833   4.290 -0.3648  0.8098  0.0018
   75MOL0     C 9827   5.452   5.713   4.337 -1.0330  0.6419 -0.5738
   75MOL0     C 9828   5.568   5.732   4.421 -0.6377 -0.6048  0.0408
   75MOL0     C 9829   5.613   5.600   4.475  0.6409  0.7760 -0.0094
   75MOL0     C 9830   5.769   5.595   4.455  0.4694  0.1257 -0.8415
   75MOL0     C 9831   5.841   5.700   4.538 -0.9426 -0.1224  0.6824
   75MOL0     C 9832   5.891   5.792   4.604 -0.1638  0.5209 -0.6147
   75MOL0     C 9833   5.289   6.036   4.350 -0.4870  0.5520  0.1592
   75MOL0     C 9834   5.178   6.094   4.411 -0.0936 -1.6658  0.9326
   75MOL0     H 9835   4.763   6.024   4.836  0.2680  0.0270 -0.0895
   75MOL0     H 9836   4.552   6.115   4.902  0.7168 -0.6990 -0.2612
   75MOL0     H 9837   4.435   6.288   4.968 -0.4008 -1.9650  1.5184
   75MOL0     H 9838   4.292   6.205   4.905  0.4258 -0.5479 -3.0845
   75MOL0     H 9839   4.270   6.441   5.023 -3.4432  2.5112 -0.3518
   75MOL0     H 9840   4.202   6.431   4.861 -1.4996  0.3385  2.2094
   75MOL0     H 9841   4.444   6.526   4.779 -1.0968 -1.1488 -1.4552
   75MOL0     H 9842   4.482   6.528   4.945 -0.1683 -0.7956 -0.0446
   75MOL0     H 9843   4.231   6.690   4.863  0.4352 -2.6121 -1.3702
   75MOL0     H 9844   4.342   6.725   4.989  3.4418 -3.0350  1.3648
   75MOL0     H 9845   4.403   6.740   4.696 -2.9800  0.5308 -0.4991
   75MOL0     H 9846   4.522   6.801   4.826 -0.3435  0.8843  1.8773
   75MOL0     H 9847   4.237   6.889   4.769  0.2559 -2.3424 -1.0779
   75MOL0     H 9848   4.372   6.979   4.702 -0.1864  0.7638  0.6801
   75MOL0     H 9849   4.307   7.106   4.899  0.4029  0.0534  0.2616
   75MOL0     H 9850   4.277   6.959   4.992 -0.6278  2.5350  0.4366
   75MOL0     H 9851   4.527   6.931   4.979 -1.7591 -1.2607 -2.8722
   75MOL0     H 9852   4.461   7.056   5.083 -1.7554  2.8073 -1.0346
   75MOL0     H 9853   4.736   7.123   5.048 -1.8143 -1.0663  0.2283
   75MOL0     H 9854   4.937   7.237   4.747  4.6837 -0.9530  2.1164
   75MOL0     H 9855   4.946   7.174   4.908 -1.4018 -1.3733 -0.2346
   75MOL0     H 9856   4.867   7.419   4.989 -0.5426  1.0956 -0.6538
   75MOL0     H 9857   4.885   7.468   4.819 -1.7440 -2.6986 -2.4041
   75MOL0     H 9858   5.120   7.326   4.946 -1.8056 -1.4762  0.1308
   75MOL0     H 9859   5.113   7.453   4.823  2.7111 -0.5364  0.8621
   75MOL0     H 9860   5.210   7.550   5.022 -0.7142  3.4084 -2.9596
   75MOL0     H 9861   5.075   7.490   5.120 -1.9258  2.5423  0.0835
   75MOL0     H 9862   5.117   7.905   4.997  0.7612  4.6859  2.0149
   75MOL0     H 9863   5.071   8.052   5.164  4.5585 -2.1485 -4.0078
   75MOL0     H 9864   5.034   8.397   5.386  3.1259 -1.3747 -0.4285
   75MOL0     H 9865   5.082   8.539   5.576 -4.2144  0.2519  1.9904
   75MOL0     H 9866   5.014   8.665   5.774 -1.8745  1.0594  0.1687
   75MOL0     H 9867   4.974   8.633   5.936  1.0434 -0.6792  0.6315
   75MOL0     H 9868   4.781   8.470   5.830 -4.1790  2.1527 -0.3626
   75MOL0     H 9869   4.835   8.542   5.681 -1.3213  0.7176  0.0675
   75MOL0     H 9870   4.770   8.775   5.776  1.0384  1.3015  1.7477
   75MOL0     H 9871   4.754   8.697   5.939  0.6478 -1.6313  0.6124
   75MOL0     H 9872   4.597   8.590   5.704 -0.6751  1.3879 -0.6865
   75MOL0     H 9873   4.545   8.589   5.872  2.2219  0.2728  2.3460
   75MOL0     H 9874   4.402   8.732   5.759  0.4580 -1.1513  1.3760
   75MOL0     H 9875   4.525   8.841   5.709 -0.4200 -0.0463 -0.6493
   75MOL0     H 9876   4.588   8.855   5.986 -0.6976  1.4510  1.2118
   75MOL0     H 9877   4.427   8.780   5.980 -1.9980  2.4638 -0.9020
   75MOL0     H 9878   4.392   9.011   6.030 -1.2914 -1.8300 -0.6057
   75MOL0     H 9879   4.498   9.050   5.898  0.1674 -1.0564 -0.9112
   75MOL0     H 9880   4.303   8.916   5.756  1.4772 -0.5543  1.0135
   75MOL0     H 9881   4.273   9.066   5.805  1.2009  1.0368  0.9499
   75MOL0     H 9882   5.033   8.204   5.842  0.2959 -1.1226 -0.1727
   75MOL0     H 9883   4.965   8.068   5.665 -1.5601 -0.0620 -0.1937
   75MOL0     H 9884   4.822   7.744   5.353  0.0730 -1.1392  0.6393
   75MOL0     H 9885   4.882   7.595   5.191  1.9005  0.2767  0.1448
   75MOL0     H 9886   4.485   6.264   4.498 -2.5875 -0.8233  0.7927
   75MOL0     H 9887   4.665   6.117   4.422  1.4247 -1.6759  0.5758
   75MOL0     H 9888   4.990   5.820   4.483 -0.9599  1.4655 -0.5219
   75MOL0     H 9889   5.170   5.718   4.371 -2.0035  0.3274 -1.2597
   75MOL0     H 9890   5.464   5.645   4.252 -1.0362 -1.0115  0.6953
   75MOL0     H 9891   5.381   5.660   4.401  0.6330 -0.5532  0.3431
   75MOL0     H 9892   5.645   5.777   4.356 -1.0388 -1.1591 -0.8324
   75MOL0     H 9893   5.540   5.787   4.511  0.6450 -0.3285  0.3020
   75MOL0     H 9894   5.586   5.510   4.418 -3.5794  1.0725  1.1686
   75MOL0     H 9895   5.586   5.584   4.580  0.4317  3.2095  0.3597
   75MOL0     H 9896   5.815   5.498   4.473 -1.4736 -0.6913  0.0802
   75MOL0     H 9897   5.787   5.623   4.351  0.1538 -0.7716 -1.1440
   75MOL0     H 9898   5.939   5.871   4.658 -0.9290 -0.8616  2.2620
   75MOL0     H 9899   5.374   6.094   4.316 -1.2828  1.6807  0.0011
   75MOL0     H 9900   5.175   6.202   4.423 -1.2986 -1.6225  0.4160
   76MOL0     O 9901   5.227   6.174   3.778 -0.5488 -0.0705  0.4602
   76MOL0     C 9902   5.194   6.293   3.800  0.3215 -0.1412  0.4466
   76MOL0     O 9903   5.256   6.402   3.749  0.5073  0.0937 -0.8646
   76MOL0     C 9904   5.368   6.381   3.663  0.4734  0.8847 -0.6405
   76MOL0     C 9905   5.355   6.320   3.533 -0.6801 -0.0229 -0.7633
   76MOL0     C 9906   5.464   6.310   3.449 -0.1489  0.0058  0.5821
   76MOL0     C 9907   5.579   6.379   3.479 -0.2012 -0.3645 -0.3304
   76MOL0     O 9908   5.677   6.397   3.382  0.2504 -0.0771  0.0596
   76MOL0     C 9909   5.787   6.300   3.405 -0.2085  0.4879  1.0777
   76MOL0     C 9910   5.912   6.316   3.313  0.6516 -0.5784  0.7307
   76MOL0     C 9911   5.865   6.289   3.160  0.1959 -0.9586 -0.9270
   76MOL0     C 9912   5.986   6.228   3.089 -0.0172  0.7559 -0.0900
   76MOL0     C 9913   6.096   6.318   3.047  0.0585 -0.2426 -0.7771
   76MOL0     C 9914   6.205   6.242   2.984  0.2153  0.5178 -0.3833
   76MOL0     C 9915   6.306   6.337   2.923 -1.0714 -0.1164  0.1166
   76MOL0     C 9916   6.402   6.250   2.846 -0.2796  0.4720 -0.1716
   76MOL0     N 9917   6.362   6.201   2.713 -0.3292  0.2667 -0.6926
   76MOL0     C 9918   6.294   6.275   2.620 -0.1632 -0.2896 -0.2973
   76MOL0     C 9919   6.294   6.190   2.510  0.7044 -1.0194  0.1552
   76MOL0     C 9920   6.239   6.232   2.381 -1.0551 -0.5387  1.0449
   76MOL0     C 9921   6.335   6.299   2.287  0.5386  0.6312 -0.2104
   76MOL0     C 9922   6.261   6.350   2.159  0.3249  0.5125  0.4700
   76MOL0     C 9923   6.350   6.354   2.035 -0.4600  0.4873 -0.2147
   76MOL0     O 9924   6.449   6.465   2.051  0.4941 -0.1854 -0.1526
   76MOL0     C 9925   6.582   6.434   2.060 -0.4911  1.0337  0.1514
   76MOL0     C 9926   6.640   6.332   1.977 -0.0081  0.5672 -0.7584
   76MOL0     C 9927   6.770   6.300   1.985 -0.1154  1.1078  0.6798
   76MOL0     C 9928   6.859   6.378   2.077 -0.2663  1.0423  0.6158
   76MOL0     C 9929   7.004   6.351   2.074  0.5141 -0.2740  0.5264
   76MOL0     O 9930   7.080   6.438   2.150  0.8815 -0.5105 -0.6136
   76MOL0     C 9931   7.197   6.401   2.198 -1.0259 -1.0825 -0.8402
   76MOL0     C 9932   7.208   6.289   2.286  0.0204 -0.0928 -0.0139
   76MOL0     C 9933   7.316   6.267   2.369 -0.9755 -0.1081  0.1247
   76MOL0     C 9934   7.436   6.352   2.353 -0.1694 -0.5119  0.8308
   76MOL0     O 9935   7.557   6.320   2.417 -0.3886  0.3385 -0.4425
   76MOL0     C 9936   7.549   6.294   2.556  0.7439  0.1466  0.0486
   76MOL0     C 9937   7.680   6.260   2.628 -0.1327 -0.1023  0.0297
   76MOL0     C 9938   7.667   6.279   2.780  0.3388 -0.1729 -0.0797
   76MOL0     C 9939   7.804   6.264   2.850 -0.4899 -0.4908  0.0337
   76MOL0     C 9940   7.778   6.251   3.002 -0.1327  0.4891  0.0452
   76MOL0     C 9941   7.901   6.182   3.071 -0.7207 -1.6713 -0.2843
   76MOL0     C 9942   7.925   6.239   3.217  0.3478  0.1857  0.5311
   76MOL0     C 9943   7.991   6.145   3.306  0.3242  0.7553  0.4833
   76MOL0    Cl 9944   8.173   6.158   3.295  0.1577  0.4867  0.1134
   76MOL0     C 9945   7.419   6.456   2.262 -0.3380  0.2422 -0.2404
   76MOL0     C 9946   7.304   6.491   2.202  0.7836 -0.4308  0.2096
   76MOL0     O 9947   7.037   6.252   2.014 -0.2033  0.2679 -0.1939
   76MOL0     C 9948   6.793   6.474   2.153  0.5851  0.3177  0.2589
   76MOL0     C 9949   6.660   6.500   2.151 -0.0645 -0.3018 -0.3616
   76MOL0     N 9950   6.368   6.076   2.542  0.6428  0.6431 -0.4885
   76MOL0     N 9951   6.403   6.085   2.659 -0.3012 -0.9426 -0.2326
   76MOL0     C 9952   5.598   6.442   3.604 -0.7195 -0.2053 -0.6625
   76MOL0     C 9953   5.493   6.445   3.698  1.0231  0.0456  0.0147
   76MOL0     C 9954   5.083   6.307   3.903  0.3189  0.9201  0.0418
   76MOL0     C 9955   5.051   6.198   3.993  0.1887  0.5161 -0.0048
   76MOL0     C 9956   4.953   6.227   4.095 -0.3440 -0.2436  0.7396
   76MOL0     C 9957   4.888   6.351   4.110  1.0657  0.4793  0.2822
   76MOL0     O 9958   4.782   6.363   4.202 -0.5139 -0.5977  0.1418
   76MOL0     C 9959   4.847   6.414   4.323 -0.0268 -0.1688  0.4796
   76MOL0     C 9960   4.823   6.563   4.322  0.8165 -0.2825  0.4525
   76MOL0     C 9961   4.832   6.597   4.472 -0.4124 -0.2914  0.4626
   76MOL0     C 9962   4.696   6.575   4.544 -1.2647 -0.7968  0.2411
   76MOL0     C 9963   4.713   6.600   4.686  0.7484 -0.5803 -0.6446
   76MOL0     C 9964   4.716   6.618   4.809 -0.8166  0.2573  0.4447
   76MOL0     C 9965   4.919   6.459   4.019  0.0682  0.1945 -0.2180
   76MOL0     C 9966   5.018   6.432   3.922  0.1396 -0.3243  0.4502
   76MOL0     H 9967   5.259   6.295   3.491 -1.7101  0.2924  1.2896
   76MOL0     H 9968   5.440   6.266   3.352 -1.2648  1.8606 -0.0282
   76MOL0     H 9969   5.766   6.194   3.392 -1.9134  0.9299 -0.0727
   76MOL0     H 9970   5.823   6.317   3.507  0.2232  0.7252  0.8902
   76MOL0     H 9971   5.977   6.234   3.347 -0.5215 -1.6122  0.5634
   76MOL0     H 9972   5.952   6.417   3.317 -1.4932  0.2517  3.1557
   76MOL0     H 9973   5.831   6.386   3.123  1.7953 -0.0647 -0.1827
   76MOL0     H 9974   5.772   6.234   3.151 -2.7872  3.3507  0.2782
   76MOL0     H 9975   6.017   6.141   3.149 -3.5816 -1.7110 -1.4927
   76MOL0     H 9976   5.941   6.186   2.999 -3.6702  3.7099  0.1358
   76MOL0     H 9977   6.128   6.369   3.139 -2.7536 -0.5467  0.4530
   76MOL0     H 9978   6.073   6.406   2.987  2.1958  0.5358 -0.5517
   76MOL0     H 9979   6.163   6.180   2.904 -1.0248  0.0877  0.5578
   76MOL0     H 9980   6.263   6.188   3.060  4.3605  2.1473 -2.1160
   76MOL0     H 9981   6.250   6.407   2.859 -1.9631 -0.0742  0.9151
   76MOL0     H 9982   6.361   6.398   2.995 -0.1486  1.3059 -1.7255
   76MOL0     H 9983   6.440   6.164   2.901  0.7335  2.4100  2.3436
   76MOL0     H 9984   6.490   6.310   2.822  1.4796 -0.8846  2.5203
   76MOL0     H 9985   6.250   6.374   2.630 -3.4010 -1.5314 -0.8872
   76MOL0     H 9986   6.147   6.287   2.406 -1.2033 -0.8069  1.0946
   76MOL0     H 9987   6.211   6.142   2.326  1.3354  0.4864 -2.1536
   76MOL0     H 9988   6.415   6.228   2.262 -0.0310 -0.2755  0.4891
   76MOL0     H 9989   6.384   6.379   2.343 -3.2090  0.5574  3.6305
   76MOL0     H 9990   6.178   6.282   2.138  1.6895 -0.7239 -1.2501
   76MOL0     H 9991   6.216   6.448   2.175  0.6313  1.3584 -3.0219
   76MOL0     H 9992   6.291   6.368   1.943 -1.6448  0.7741  0.5590
   76MOL0     H 9993   6.394   6.254   2.029  0.6150  0.8783  0.8217
   76MOL0     H 9994   6.584   6.279   1.900  1.4133  0.6892 -1.9121
   76MOL0     H 9995   6.813   6.224   1.920  0.3899  1.3891  0.6813
   76MOL0     H 9996   7.121   6.226   2.303 -0.1099  0.3243  0.9618
   76MOL0     H 9997   7.323   6.179   2.433 -1.0971 -0.9167 -0.9362
   76MOL0     H 9998   7.486   6.206   2.566  1.1513  0.0631  2.5034
   76MOL0     H 9999   7.498   6.378   2.605 -3.0715 -0.8357 -1.8909
   76MOL0     H10000   7.769   6.307   2.584 -1.7645 -0.7779 -4.4857
   76MOL0     H10001   7.694   6.151   2.620  1.1739  0.0007  0.5892
   76MOL0     H10002   7.589   6.211   2.815 -1.6033  1.0885 -1.7471
   76MOL0     H10003   7.626   6.377   2.802  2.6560  1.4709 -2.4334
   76MOL0     H10004   7.860   6.176   2.818 -1.8400 -1.2481 -0.2931
   76MOL0     H10005   7.871   6.347   2.824 -1.2482  0.7786  1.9160
   76MOL0     H10006   7.694   6.181   3.012 -0.5182  0.7835 -1.0165
   76MOL0     H10007   7.748   6.349   3.040  3.8604  2.4429 -1.3493
   76MOL0     H10008   7.988   6.200   3.007  1.3143  0.1067  2.6898
   76MOL0     H10009   7.876   6.076   3.063  0.9729 -1.9645 -2.5405
   76MOL0     H10010   7.996   6.322   3.207  0.1695  0.0837 -2.9781
   76MOL0     H10011   7.830   6.257   3.267  0.7205  0.8265  1.0215
   76MOL0     H10012   7.955   6.042   3.300  0.7283  0.6168  0.3503
   76MOL0     H10013   7.966   6.176   3.408 -1.0702 -1.9143  1.0424
   76MOL0     H10014   7.504   6.522   2.252 -1.3620  1.5316 -0.7348
   76MOL0     H10015   7.301   6.591   2.159  2.2972 -0.7169 -0.6269
   76MOL0     H10016   6.851   6.538   2.219  0.1791  2.4778 -1.3298
   76MOL0     H10017   6.618   6.570   2.221  0.3923 -1.5606  1.2351
   76MOL0     H10018   5.697   6.483   3.622 -0.3689 -1.6433  0.8951
   76MOL0     H10019   5.504   6.503   3.789  1.9267  0.0354 -0.0768
   76MOL0     H10020   5.102   6.103   3.988 -0.1239  0.1875  2.0878
   76MOL0     H10021   4.926   6.149   4.165  1.7005 -0.6722  1.1236
   76MOL0     H10022   4.955   6.395   4.330  0.2931  0.4941 -1.7523
   76MOL0     H10023   4.795   6.376   4.411 -2.5002  2.1018  0.1179
   76MOL0     H10024   4.896   6.626   4.270 -2.1612  1.2388 -2.2787
   76MOL0     H10025   4.724   6.585   4.281  0.5912 -0.7579  0.7321
   76MOL0     H10026   4.854   6.703   4.484  1.4182 -0.4159 -1.3434
   76MOL0     H10027   4.914   6.537   4.513  1.5789 -0.4261 -3.3564
   76MOL0     H10028   4.623   6.641   4.497 -1.2689 -1.7096 -1.0612
   76MOL0     H10029   4.669   6.472   4.519 -0.8483 -0.5097 -1.5348
   76MOL0     H10030   4.706   6.635   4.914 -2.4857 -0.6673  0.4717
   76MOL0     H10031   4.865   6.553   4.022  0.4759  0.4171  0.2872
   76MOL0     H10032   5.053   6.507   3.851 -0.3155 -1.8882 -1.5035
   77MOL0     O10033   2.404   2.537   1.985  0.1859  0.2359  0.0559
   77MOL0     C10034   2.468   2.498   1.887 -0.1244 -0.3584 -0.7121
   77MOL0     O10035   2.602   2.533   1.866 -0.0687  0.5332  0.0146
   77MOL0     C10036   2.673   2.592   1.967 -0.7752  0.5629  0.6552
   77MOL0     C10037   2.666   2.551   2.099 -0.3411  0.1490 -0.7106
   77MOL0     C10038   2.738   2.627   2.193 -0.2140  0.5329 -0.4583
   77MOL0     C10039   2.827   2.733   2.156 -0.4107 -0.0177  0.0463
   77MOL0     O10040   2.891   2.809   2.255  0.0479 -0.2309  0.4317
   77MOL0     C10041   2.891   2.756   2.385 -0.2024  0.1524  0.2950
   77MOL0     C10042   3.012   2.829   2.460 -1.4384 -0.2860  0.4959
   77MOL0     C10043   3.037   2.776   2.602  0.5670 -0.9256  1.0194
   77MOL0     C10044   3.038   2.626   2.613 -0.3831 -0.6473  0.0303
   77MOL0     C10045   3.062   2.574   2.754 -0.3982 -0.4427  0.1832
   77MOL0     C10046   3.048   2.423   2.781 -0.8189 -0.9831  0.0928
   77MOL0     C10047   3.149   2.339   2.698 -0.0946 -0.2503  0.8835
   77MOL0     C10048   3.168   2.198   2.745  0.2207 -0.7883 -0.8703
   77MOL0     N10049   3.244   2.121   2.645 -0.4096 -0.2137 -0.5668
   77MOL0     C10050   3.193   2.054   2.538  0.9069  0.3054 -0.1634
   77MOL0     C10051   3.295   1.981   2.485 -0.6905 -0.8146  0.1877
   77MOL0     C10052   3.297   1.882   2.371  0.5810  0.4327  0.3024
   77MOL0     C10053   3.333   1.935   2.234  0.7764  0.1946  0.7341
   77MOL0     C10054   3.249   2.064   2.207  0.2131 -0.0594 -0.1261
   77MOL0     C10055   3.212   2.096   2.067 -0.3342 -0.1329  0.3595
   77MOL0     O10056   3.111   2.196   2.053  0.0140 -1.2301  0.2758
   77MOL0     C10057   3.064   2.222   1.923 -0.5370  0.5930  0.5992
   77MOL0     C10058   2.951   2.304   1.913 -1.0949 -0.2684  0.5484
   77MOL0     C10059   2.890   2.338   1.786 -0.2977  0.1347 -0.2251
   77MOL0     C10060   2.938   2.279   1.666 -0.5048 -0.1527 -0.6979
   77MOL0     C10061   2.859   2.282   1.537 -0.6369 -1.5646  0.0784
   77MOL0     O10062   2.902   2.209   1.431  0.9058  0.2221 -0.0242
   77MOL0     C10063   2.828   2.187   1.319  0.0834 -0.2628  0.5341
   77MOL0     C10064   2.883   2.212   1.189 -1.1511  1.0572 -0.4870
   77MOL0     C10065   2.813   2.175   1.075  0.8716 -0.2705  0.2779
   77MOL0     C10066   2.680   2.118   1.084 -0.5737  0.5196  0.2671
   77MOL0     O10067   2.625   2.091   0.963  0.3121  0.7390  0.6723
   77MOL0     C10068   2.503   2.019   0.958  0.5293  0.0988 -0.4371
   77MOL0     C10069   2.471   1.952   0.823  0.2989 -0.6977 -1.0097
   77MOL0     C10070   2.525   1.816   0.792 -0.7985  0.1616  0.7208
   77MOL0     C10071   2.595   1.815   0.659  0.0665  0.8906 -0.5641
   77MOL0     C10072   2.624   1.669   0.622 -0.7634 -0.8485 -0.1932
   77MOL0     C10073   2.497   1.585   0.583 -0.7542  0.2648  0.2632
   77MOL0     C10074   2.540   1.442   0.553 -0.1956 -0.0165 -1.1369
   77MOL0     C10075   2.430   1.331   0.539  0.1805 -0.8515 -0.2202
   77MOL0    Cl10076   2.514   1.185   0.514 -0.0683 -0.0517  0.0366
   77MOL0     C10077   2.628   2.098   1.210 -0.0010 -0.5788 -2.0347
   77MOL0     C10078   2.703   2.134   1.323  0.6302  0.2931 -0.5754
   77MOL0     O10079   2.757   2.352   1.538  0.3755 -1.0000  0.1330
   77MOL0     C10080   3.038   2.187   1.679  0.0680 -0.0088 -0.6580
   77MOL0     C10081   3.109   2.163   1.796 -0.1400  0.3416 -0.5715
   77MOL0     N10082   3.414   2.008   2.563  0.5897  0.6731 -0.3250
   77MOL0     N10083   3.381   2.092   2.656 -0.1822 -0.0847  0.3716
   77MOL0     C10084   2.840   2.761   2.018  0.4132  0.7285 -0.3420
   77MOL0     C10085   2.761   2.691   1.929 -0.5408  0.3915  0.1106
   77MOL0     C10086   2.392   2.401   1.801  0.7727 -0.3593 -0.1789
   77MOL0     C10087   2.454   2.378   1.678  0.5467  0.5337  1.6243
   77MOL0     C10088   2.396   2.305   1.571  0.2408  1.3651  0.5027
   77MOL0     C10089   2.282   2.231   1.596  0.5530  0.3533 -0.4518
   77MOL0     O10090   2.227   2.134   1.508 -0.0460  0.1668 -1.1408
   77MOL0     C10091   2.317   2.068   1.425 -0.8337 -0.2309 -0.0288
   77MOL0     C10092   2.253   1.943   1.365 -0.6376  0.3489 -0.2658
   77MOL0     C10093   2.354   1.825   1.309 -0.2248  0.3000  0.5440
   77MOL0     C10094   2.422   1.729   1.416 -0.1561  0.3506 -0.0118
   77MOL0     C10095   2.519   1.801   1.511  0.7420  0.4717  0.2887
   77MOL0     C10096   2.580   1.846   1.600 -0.1245 -0.3663  0.0273
   77MOL0     C10097   2.225   2.243   1.728 -0.9872  0.2118  0.4324
   77MOL0     C10098   2.275   2.332   1.826  0.4403  0.7161 -0.2252
   77MOL0     H10099   2.612   2.462   2.129 -2.9098  1.5384 -0.9498
   77MOL0     H10100   2.716   2.592   2.293  2.2506  2.4151  0.8298
   77MOL0     H10101   2.907   2.648   2.376 -1.2997  0.0288 -0.3775
   77MOL0     H10102   2.795   2.749   2.437 -0.2999 -1.7420 -0.0741
   77MOL0     H10103   3.005   2.938   2.457  1.1832 -0.0508  0.3321
   77MOL0     H10104   3.106   2.811   2.407 -1.6138 -0.3108  0.1932
   77MOL0     H10105   2.948   2.812   2.656 -0.9686 -1.7552 -0.8608
   77MOL0     H10106   3.123   2.824   2.649 -0.5526  0.6399  1.5646
   77MOL0     H10107   2.944   2.579   2.584  0.0827 -2.3838  1.1586
   77MOL0     H10108   3.117   2.588   2.547 -1.3396  0.4850 -1.8451
   77MOL0     H10109   2.995   2.635   2.816 -1.0153 -0.6086 -0.3053
   77MOL0     H10110   3.163   2.605   2.783 -0.6680 -2.6035  3.9468
   77MOL0     H10111   2.942   2.400   2.762 -1.3138 -0.6164  2.1456
   77MOL0     H10112   3.072   2.408   2.886  1.8159  1.2452 -0.0974
   77MOL0     H10113   3.110   2.335   2.596  1.5215 -3.6084  0.2735
   77MOL0     H10114   3.242   2.396   2.703  1.3461 -2.5192  1.9021
   77MOL0     H10115   3.073   2.162   2.786 -0.5734  3.6248  1.8278
   77MOL0     H10116   3.232   2.203   2.833 -0.4205  0.3361 -0.4489
   77MOL0     H10117   3.090   2.063   2.504  1.1665 -0.4523 -1.2194
   77MOL0     H10118   3.197   1.847   2.343  1.9159 -0.4821 -3.9857
   77MOL0     H10119   3.348   1.790   2.400 -3.0208 -1.6765  0.5211
   77MOL0     H10120   3.309   1.855   2.163 -0.0345  1.7529 -0.8180
   77MOL0     H10121   3.439   1.965   2.234  1.1184 -0.9201  0.1434
   77MOL0     H10122   3.160   2.056   2.269  1.4092 -1.1692  1.5344
   77MOL0     H10123   3.307   2.146   2.251 -1.3693  0.0522  1.8556
   77MOL0     H10124   3.192   2.002   2.015  1.0544 -0.0431 -0.3913
   77MOL0     H10125   3.303   2.127   2.013  1.2838 -0.8292  2.5425
   77MOL0     H10126   2.911   2.347   2.004  0.1566 -0.1193  1.0489
   77MOL0     H10127   2.810   2.411   1.796  0.6843  1.1285  0.6619
   77MOL0     H10128   2.979   2.263   1.184 -0.3682 -0.3568 -0.4555
   77MOL0     H10129   2.861   2.193   0.980  1.9440  0.4376  0.9351
   77MOL0     H10130   2.419   2.088   0.974  0.7996  0.1620  0.7741
   77MOL0     H10131   2.499   1.934   1.026  0.8472 -0.3658 -0.9904
   77MOL0     H10132   2.500   2.027   0.748 -1.0162 -0.0365 -0.8823
   77MOL0     H10133   2.362   1.948   0.829  0.2166  1.8131  4.0437
   77MOL0     H10134   2.441   1.746   0.799  2.1588 -3.8920 -0.5938
   77MOL0     H10135   2.593   1.778   0.868  0.6919 -1.2275 -1.1992
   77MOL0     H10136   2.526   1.862   0.588 -1.4177  2.3265  1.6821
   77MOL0     H10137   2.688   1.873   0.661  3.0178 -3.3741 -1.3020
   77MOL0     H10138   2.674   1.629   0.710 -0.2966  1.6596  0.7751
   77MOL0     H10139   2.696   1.661   0.540 -1.4756  0.6092 -1.0215
   77MOL0     H10140   2.452   1.629   0.494 -0.5484  0.3319  0.1920
   77MOL0     H10141   2.414   1.576   0.653  0.0766 -0.5322  1.1839
   77MOL0     H10142   2.595   1.441   0.459 -1.0870 -0.2216 -1.6730
   77MOL0     H10143   2.604   1.416   0.637 -1.5904  1.3551  0.4424
   77MOL0     H10144   2.363   1.340   0.452 -0.6291 -2.4710  0.1877
   77MOL0     H10145   2.366   1.317   0.626 -2.3370  1.3391 -1.5624
   77MOL0     H10146   2.529   2.053   1.204 -1.0297  1.1370  0.3375
   77MOL0     H10147   2.648   2.125   1.416  0.0300 -0.8002 -1.0205
   77MOL0     H10148   3.085   2.135   1.596 -0.0592 -3.3096  1.1649
   77MOL0     H10149   3.193   2.099   1.775 -1.7321 -1.5002 -1.6115
   77MOL0     H10150   2.911   2.841   1.995  0.4349  0.1790 -2.3732
   77MOL0     H10151   2.765   2.741   1.833  2.0115 -0.2723 -0.2007
   77MOL0     H10152   2.555   2.412   1.657  1.5309 -4.0598 -3.0096
   77MOL0     H10153   2.442   2.314   1.473  1.0323  3.0509  1.0091
   77MOL0     H10154   2.396   2.033   1.492 -0.0369  1.8017  0.1512
   77MOL0     H10155   2.371   2.128   1.352 -0.0415  2.1930  2.3952
   77MOL0     H10156   2.194   1.898   1.445 -0.3571  1.4875  0.6010
   77MOL0     H10157   2.183   1.987   1.292  0.6566  2.8912 -0.0670
   77MOL0     H10158   2.431   1.882   1.256  1.0393 -0.4605  1.5186
   77MOL0     H10159   2.292   1.771   1.236  0.7267  1.2628 -1.0395
   77MOL0     H10160   2.346   1.671   1.468  0.7054 -0.4217  0.4058
   77MOL0     H10161   2.474   1.645   1.369 -3.6195 -2.3340  0.5503
   77MOL0     H10162   2.642   1.887   1.677 -1.2852  0.3527  0.6123
   77MOL0     H10163   2.140   2.182   1.758 -2.9776  0.9768 -3.1093
   77MOL0     H10164   2.217   2.351   1.916  0.4697 -0.3097  0.0262
   78MOL0     O10165   2.473   6.728  10.056 -0.0390  0.0467 -0.2089
   78MOL0     C10166   2.593   6.709  10.030 -0.2344  0.7863 -0.5080
   78MOL0     O10167   2.638   6.597   9.958 -0.7791 -0.1541  0.0730
   78MOL0     C10168   2.549   6.502   9.908 -0.5549 -0.3121 -0.0506
   78MOL0     C10169   2.434   6.460   9.960  0.1271  1.5829  0.1568
   78MOL0     C10170   2.355   6.366   9.897  0.3969  0.0996 -0.1160
   78MOL0     C10171   2.395   6.306   9.777 -0.4762  0.2001  0.6910
   78MOL0     O10172   2.318   6.218   9.710  0.3326  0.0564 -0.2295
   78MOL0     C10173   2.315   6.091   9.775  0.5178  0.1705  0.1800
   78MOL0     C10174   2.225   5.988   9.702 -0.5770  0.3104  0.2795
   78MOL0     C10175   2.095   6.038   9.640 -0.2235 -0.3783  0.2146
   78MOL0     C10176   2.066   5.965   9.514 -0.1815  0.2554  0.0838
   78MOL0     C10177   1.928   6.016   9.476  0.4065  0.1782  0.4751
   78MOL0     C10178   1.914   5.993   9.326  0.2675 -0.1210 -0.3293
   78MOL0     C10179   1.779   6.043   9.291  0.1234 -0.0041 -0.2791
   78MOL0     C10180   1.749   6.011   9.153 -0.3965  0.2344 -0.5294
   78MOL0     N10181   1.622   6.072   9.107 -0.5765 -0.1227 -1.3675
   78MOL0     C10182   1.505   6.049   9.170  0.3328  0.0568  0.2538
   78MOL0     C10183   1.417   6.128   9.095 -0.1248 -0.0998  0.1226
   78MOL0     C10184   1.275   6.156   9.107  0.0794 -0.1594 -0.4174
   78MOL0     C10185   1.225   6.234   9.230  0.1566  0.9809  0.9863
   78MOL0     C10186   1.234   6.383   9.224  0.1193 -0.0587 -0.2852
   78MOL0     C10187   1.377   6.434   9.223 -0.0863  0.1300 -0.4735
   78MOL0     O10188   1.437   6.402   9.352 -0.1750 -0.0184  0.4437
   78MOL0     C10189   1.562   6.448   9.383  0.5490  0.8934  0.2151
   78MOL0     C10190   1.608   6.457   9.512  0.3045 -0.1217  0.0754
   78MOL0     C10191   1.729   6.509   9.545 -0.3608 -0.3237 -0.1041
   78MOL0     C10192   1.815   6.556   9.445  1.2659 -0.3309 -0.0727
   78MOL0     C10193   1.948   6.610   9.480 -0.6568 -0.6601  0.9535
   78MOL0     O10194   2.032   6.658   9.375  0.2704  0.9187  0.2637
   78MOL0     C10195   2.153   6.710   9.418 -0.3596  0.3791  0.1374
   78MOL0     C10196   2.241   6.651   9.507  0.9601 -0.4177  0.7484
   78MOL0     C10197   2.356   6.717   9.547  0.8099  0.2735  0.2578
   78MOL0     C10198   2.383   6.846   9.512 -0.5581  0.1541  0.7805
   78MOL0     O10199   2.495   6.900   9.572 -0.2065  0.2667 -0.5948
   78MOL0     C10200   2.514   7.049   9.565  0.5570  0.0717  0.1029
   78MOL0     C10201   2.657   7.093   9.594  0.0315 -0.0252 -0.3945
   78MOL0     C10202   2.683   7.078   9.750 -0.4482  0.9871  0.2697
   78MOL0     C10203   2.837   7.102   9.781  0.6858  0.0124 -0.9251
   78MOL0     C10204   2.887   7.246   9.753  0.4613  0.1479 -0.3846
   78MOL0     C10205   3.024   7.269   9.819 -0.7250 -0.4266 -0.1987
   78MOL0     C10206   3.141   7.165   9.817  0.3101 -0.5358 -0.1300
   78MOL0     C10207   3.275   7.234   9.858  0.2013  0.1793 -0.3455
   78MOL0    Cl10208   3.328   7.338   9.725 -0.3582 -0.1723  0.2554
   78MOL0     C10209   2.292   6.903   9.422 -0.3625 -0.2549  0.6822
   78MOL0     C10210   2.190   6.831   9.363  1.1552 -1.2776 -0.6063
   78MOL0     O10211   1.970   6.624   9.599 -1.4137 -0.4372  0.5255
   78MOL0     C10212   1.779   6.546   9.309 -0.3813  0.1604  0.5422
   78MOL0     C10213   1.653   6.489   9.281 -0.7456 -1.0833 -0.2206
   78MOL0     N10214   1.492   6.196   9.002  0.1629 -0.9051  0.3752
   78MOL0     N10215   1.618   6.155   9.014 -0.0962 -0.4779  0.4618
   78MOL0     C10216   2.517   6.343   9.714 -0.3350 -0.0176 -0.5965
   78MOL0     C10217   2.588   6.452   9.782  0.0716  0.4555 -0.1184
   78MOL0     C10218   2.692   6.797  10.085  0.3232  0.9971  0.0764
   78MOL0     C10219   2.824   6.780  10.053  0.8903  0.3603  0.8390
   78MOL0     C10220   2.923   6.875  10.077  0.1298  0.0345 -0.1332
   78MOL0     C10221   2.883   6.985  10.154 -0.6706 -0.9635  0.1427
   78MOL0     O10222   2.979   7.083  10.182  0.1335 -0.0079 -0.8455
   78MOL0     C10223   2.938   7.205  10.260  0.1782 -1.0430  0.9342
   78MOL0     C10224   3.060   7.303  10.270  0.3831 -1.0068 -0.5363
   78MOL0     C10225   3.019   7.451  10.270  0.1743  0.6708 -0.2811
   78MOL0     C10226   3.133   7.538  10.254 -0.9383  0.8572 -0.8433
   78MOL0     C10227   3.160   7.550  10.111  0.2280  0.1612  0.6138
   78MOL0     C10228   3.193   7.555   9.990 -0.3744  0.3427  0.1619
   78MOL0     C10229   2.752   7.002  10.188 -0.6107  0.3410  0.5292
   78MOL0     C10230   2.653   6.908  10.158  0.6481 -0.5964 -0.5760
   78MOL0     H10231   2.396   6.503  10.053 -3.7192 -2.2629  0.6926
   78MOL0     H10232   2.257   6.326   9.924  0.8022 -1.0919 -0.3500
   78MOL0     H10233   2.277   6.104   9.877  0.3517  1.3481 -0.0119
   78MOL0     H10234   2.412   6.040   9.772  2.1839  3.0249  1.1235
   78MOL0     H10235   2.208   5.902   9.768  1.2844  0.9880  1.7816
   78MOL0     H10236   2.280   5.943   9.619  1.0643  0.7918  1.0586
   78MOL0     H10237   2.098   6.147   9.627 -4.1455 -0.1551 -0.1420
   78MOL0     H10238   2.011   6.024   9.709 -0.2501  2.7511  0.9849
   78MOL0     H10239   2.138   5.985   9.434 -2.3131 -0.1786 -2.0573
   78MOL0     H10240   2.056   5.856   9.515  1.2195  0.0532 -1.6259
   78MOL0     H10241   1.936   6.124   9.493  1.5873  0.2443 -0.3688
   78MOL0     H10242   1.853   5.963   9.534  2.1051 -2.0300  0.7797
   78MOL0     H10243   1.930   5.887   9.306 -0.9239 -0.1149 -1.4190
   78MOL0     H10244   1.988   6.052   9.271 -0.3411 -0.5054 -1.5955
   78MOL0     H10245   1.702   5.989   9.347 -1.7772  2.1712 -0.6694
   78MOL0     H10246   1.754   6.147   9.312  0.3278  0.0343 -0.2216
   78MOL0     H10247   1.733   5.903   9.146  2.5966 -0.3981  0.6061
   78MOL0     H10248   1.824   6.060   9.090  0.9505  0.4257  1.1455
   78MOL0     H10249   1.483   5.984   9.254 -2.2032 -0.8444 -0.9876
   78MOL0     H10250   1.213   6.067   9.093  1.0040 -0.6974 -1.2487
   78MOL0     H10251   1.245   6.218   9.021  0.7802 -0.3681 -0.8197
   78MOL0     H10252   1.259   6.192   9.326 -2.5617  2.3702  2.6787
   78MOL0     H10253   1.116   6.225   9.232 -0.0128  2.3182 -0.4842
   78MOL0     H10254   1.171   6.432   9.149 -0.4349  0.8207  0.7405
   78MOL0     H10255   1.195   6.423   9.317 -0.3039 -1.3378  0.1107
   78MOL0     H10256   1.360   6.539   9.199  0.7770  0.3870 -0.0260
   78MOL0     H10257   1.439   6.387   9.146 -1.5739  0.1714 -1.7569
   78MOL0     H10258   1.541   6.416   9.587  1.0921 -0.0260  0.8567
   78MOL0     H10259   1.750   6.517   9.651 -3.6393 -3.3729  0.9787
   78MOL0     H10260   2.218   6.560   9.561  1.7901 -0.8422  0.4142
   78MOL0     H10261   2.403   6.675   9.635  1.7727  1.0632  0.1432
   78MOL0     H10262   2.439   7.102   9.624 -2.8244 -0.5806 -3.2368
   78MOL0     H10263   2.488   7.078   9.463  0.6298 -2.4619 -0.7147
   78MOL0     H10264   2.681   7.198   9.574 -1.9785  0.2066 -1.9526
   78MOL0     H10265   2.715   7.020   9.538  3.0853  1.4070  0.6875
   78MOL0     H10266   2.652   6.978   9.780 -1.6949  1.7043  1.4978
   78MOL0     H10267   2.615   7.149   9.799  0.5757  1.0998  1.5870
   78MOL0     H10268   2.851   7.099   9.890 -2.2258  1.4036 -0.4206
   78MOL0     H10269   2.913   7.029   9.753  0.2063 -1.4158  1.2413
   78MOL0     H10270   2.817   7.316   9.798  0.3901 -0.4157  0.4245
   78MOL0     H10271   2.880   7.261   9.645 -1.3559  0.1839 -0.2906
   78MOL0     H10272   3.009   7.280   9.927 -0.3364 -5.6396  0.6511
   78MOL0     H10273   3.053   7.365   9.774 -0.7077 -0.0566  0.5833
   78MOL0     H10274   3.114   7.087   9.888  1.6536 -1.3990 -0.5334
   78MOL0     H10275   3.154   7.118   9.719 -0.5731 -1.3555  0.1307
   78MOL0     H10276   3.345   7.151   9.868 -0.9011 -0.8918 -1.2293
   78MOL0     H10277   3.269   7.276   9.959  1.4892 -1.0143  0.2562
   78MOL0     H10278   2.310   7.002   9.380  0.9931 -0.6440  0.2860
   78MOL0     H10279   2.134   6.882   9.286  1.5564 -1.4070 -0.9831
   78MOL0     H10280   1.843   6.577   9.226  0.9438 -0.2410  1.3836
   78MOL0     H10281   1.637   6.483   9.174  0.0869 -2.4078 -0.2981
   78MOL0     H10282   2.559   6.290   9.629  2.2857 -0.7442  1.0562
   78MOL0     H10283   2.676   6.490   9.731  1.8369  0.5064  2.7735
   78MOL0     H10284   2.850   6.687  10.004  0.3118 -0.3809  1.9133
   78MOL0     H10285   3.030   6.862  10.065  0.1674 -1.0360  1.1137
   78MOL0     H10286   2.909   7.178  10.362 -1.2762  1.4658  1.2628
   78MOL0     H10287   2.846   7.254  10.228  1.1968  1.3812  1.4762
   78MOL0     H10288   3.104   7.281  10.368  3.1480  1.5902 -1.0521
   78MOL0     H10289   3.128   7.284  10.186 -1.0975  1.7861 -2.5185
   78MOL0     H10290   2.962   7.474  10.360  1.7057  2.4951  0.3071
   78MOL0     H10291   2.947   7.476  10.192  2.6922 -0.2048 -3.0930
   78MOL0     H10292   3.107   7.637  10.292 -0.2845  0.4130  0.8545
   78MOL0     H10293   3.224   7.505  10.304 -1.5144 -1.0672 -0.9617
   78MOL0     H10294   3.228   7.562   9.889 -1.0443  0.4557 -0.0626
   78MOL0     H10295   2.711   7.082  10.248 -0.1497 -0.1285  1.5085
   78MOL0     H10296   2.554   6.931  10.197  1.2545  0.4800  0.4273
   79MOL0     O10297   1.029   6.787   5.722  0.0698 -0.6043  0.2020
   79MOL0     C10298   1.145   6.784   5.690 -0.4123  0.3381 -0.3298
   79MOL0     O10299   1.186   6.745   5.569 -0.5231  0.3443  0.0253
   79MOL0     C10300   1.099   6.703   5.461 -0.0334  0.1345 -0.2274
   79MOL0     C10301   1.018   6.586   5.464  0.5287  0.0711 -0.2562
   79MOL0     C10302   0.941   6.552   5.356  0.4473  0.6980 -0.3119
   79MOL0     C10303   0.958   6.630   5.236 -0.2159 -0.7058 -0.6414
   79MOL0     O10304   0.895   6.594   5.128 -0.0801  0.7419  0.4605
   79MOL0     C10305   0.878   6.676   5.007 -0.4568 -0.0599 -0.0327
   79MOL0     C10306   0.814   6.576   4.902  0.5012 -0.2524 -0.4486
   79MOL0     C10307   0.915   6.464   4.879 -1.0573  0.3310  0.0892
   79MOL0     C10308   0.892   6.362   4.768 -1.1597 -0.9363  0.3595
   79MOL0     C10309   0.997   6.247   4.778  0.4992 -0.1141 -0.5593
   79MOL0     C10310   1.012   6.155   4.659 -0.2394 -0.7710 -0.4751
   79MOL0     C10311   1.125   6.037   4.668 -0.0636 -0.7561 -0.1914
   79MOL0     C10312   1.088   5.933   4.544 -0.4591 -0.1462 -0.0440
   79MOL0     N10313   1.168   5.817   4.552  0.3690 -0.0195 -0.0834
   79MOL0     C10314   1.146   5.702   4.632 -0.2049  1.0121  0.1444
   79MOL0     C10315   1.258   5.629   4.594 -0.3721  0.4894  0.2018
   79MOL0     C10316   1.286   5.488   4.636  0.4046  0.1265  0.2467
   79MOL0     C10317   1.403   5.471   4.728 -0.5108 -0.3251  0.1709
   79MOL0     C10318   1.386   5.324   4.779  0.2327 -0.7159 -0.1530
   79MOL0     C10319   1.423   5.224   4.671  0.1398 -0.1431 -0.3048
   79MOL0     O10320   1.402   5.094   4.732 -0.6528 -0.2701 -0.6560
   79MOL0     C10321   1.463   4.983   4.679  0.3865 -0.1520  0.7467
   79MOL0     C10322   1.522   4.982   4.546  0.4167  0.6491 -0.2544
   79MOL0     C10323   1.577   4.864   4.495 -0.1215  0.1686  0.4261
   79MOL0     C10324   1.584   4.751   4.563  0.2267  0.1049 -1.7315
   79MOL0     C10325   1.644   4.629   4.520 -0.1619 -0.8336  0.6897
   79MOL0     O10326   1.693   4.632   4.385 -0.1617  0.1139  0.3523
   79MOL0     C10327   1.729   4.517   4.318  0.1895 -0.0644 -0.1238
   79MOL0     C10328   1.640   4.410   4.316 -0.4833 -0.0793 -0.0958
   79MOL0     C10329   1.685   4.292   4.242 -0.2111 -0.2570  0.5778
   79MOL0     C10330   1.798   4.289   4.158  0.2656 -0.5255 -0.3087
   79MOL0     O10331   1.837   4.172   4.098  0.2341  0.3722  0.3858
   79MOL0     C10332   1.976   4.154   4.091  0.0588 -0.0079  0.3436
   79MOL0     C10333   2.010   4.011   4.082 -0.9790  0.9237  1.0030
   79MOL0     C10334   1.972   3.953   3.947 -0.7000 -0.7363 -0.5563
   79MOL0     C10335   2.004   3.808   3.952  1.1528  0.6671 -0.0576
   79MOL0     C10336   1.982   3.748   3.818 -0.0938 -0.2811  0.9609
   79MOL0     C10337   2.114   3.757   3.729  0.3349 -0.6302 -0.8605
   79MOL0     C10338   2.102   3.665   3.617 -0.4075 -0.6717  0.4444
   79MOL0     C10339   2.029   3.530   3.632 -0.4114  1.5545  0.2919
   79MOL0    Cl10340   2.042   3.422   3.482  0.1950 -0.3529  0.2950
   79MOL0     C10341   1.877   4.403   4.166 -1.0952  0.1878  0.2508
   79MOL0     C10342   1.847   4.518   4.241 -0.3518 -0.3097 -0.1704
   79MOL0     O10343   1.644   4.527   4.588  0.5341  0.0962 -0.2868
   79MOL0     C10344   1.531   4.755   4.702 -0.5861 -0.0950  0.2104
   79MOL0     C10345   1.471   4.872   4.758  0.0038  0.0564  0.0276
   79MOL0     N10346   1.333   5.702   4.505  0.7697  0.1147 -0.1499
   79MOL0     N10347   1.285   5.822   4.482 -0.9157  0.3586  0.5839
   79MOL0     C10348   1.045   6.746   5.227 -0.0636  0.4408  0.0310
   79MOL0     C10349   1.108   6.778   5.345 -0.3654  0.1446 -0.8041
   79MOL0     C10350   1.245   6.825   5.787  0.7050 -0.7009 -0.0403
   79MOL0     C10351   1.380   6.869   5.758 -1.2459 -0.3923 -0.2996
   79MOL0     C10352   1.466   6.916   5.855  0.5005 -0.3702 -0.4404
   79MOL0     C10353   1.425   6.914   5.991 -0.4760  0.3466  0.6884
   79MOL0     O10354   1.500   6.968   6.088 -0.2844 -0.2146  0.3373
   79MOL0     C10355   1.613   7.047   6.067  0.6318 -0.4842  0.0020
   79MOL0     C10356   1.708   7.057   6.198 -0.0416 -1.3667  1.1098
   79MOL0     C10357   1.813   7.167   6.191  0.5480 -0.0819 -0.7171
   79MOL0     C10358   1.916   7.155   6.312  0.0602 -0.1484 -0.5483
   79MOL0     C10359   1.863   7.249   6.417 -0.5926 -0.0177  0.0574
   79MOL0     C10360   1.839   7.321   6.506 -0.3977 -0.8146 -0.0461
   79MOL0     C10361   1.297   6.866   6.026 -0.2491 -0.7328 -0.2592
   79MOL0     C10362   1.211   6.825   5.926 -0.5464  0.6415  0.1101
   79MOL0     H10363   1.033   6.533   5.557 -1.2081  0.0349  0.0479
   79MOL0     H10364   0.873   6.468   5.362 -2.0277  2.5486 -0.7292
   79MOL0     H10365   0.975   6.709   4.969 -1.3212  2.1824 -0.4714
   79MOL0     H10366   0.817   6.763   5.035  1.7591  1.2503  1.0245
   79MOL0     H10367   0.802   6.637   4.812  0.5069  0.1679 -0.1681
   79MOL0     H10368   0.719   6.528   4.929 -0.9761  3.1203  0.9739
   79MOL0     H10369   0.946   6.418   4.972 -0.4697  0.6852  0.0718
   79MOL0     H10370   1.003   6.522   4.850 -0.5849 -0.5329 -0.2363
   79MOL0     H10371   0.792   6.317   4.770 -0.5299 -2.5681 -1.8603
   79MOL0     H10372   0.900   6.409   4.670 -1.7841 -1.7024 -0.0707
   79MOL0     H10373   0.974   6.171   4.853  0.4218 -1.6404 -2.0634
   79MOL0     H10374   1.091   6.297   4.804  0.3986  2.4530 -4.1670
   79MOL0     H10375   1.045   6.214   4.573  2.6737 -0.7469  0.5396
   79MOL0     H10376   0.913   6.118   4.630 -1.0525  1.6557 -0.9741
   79MOL0     H10377   1.219   6.092   4.677 -1.3464  1.2359  2.2040
   79MOL0     H10378   1.111   5.985   4.764 -0.1198 -0.7880 -0.2171
   79MOL0     H10379   1.086   5.989   4.449  1.5561  0.3808  0.1706
   79MOL0     H10380   0.993   5.882   4.561 -0.2275 -0.3620  0.6459
   79MOL0     H10381   1.063   5.668   4.694  2.7872 -2.0219  2.9069
   79MOL0     H10382   1.298   5.427   4.546  3.0578 -2.6154  2.2624
   79MOL0     H10383   1.194   5.455   4.685  0.2192 -2.2477 -1.5162
   79MOL0     H10384   1.404   5.552   4.801  0.2139 -0.6363  0.5070
   79MOL0     H10385   1.496   5.479   4.672 -1.0247 -0.6755 -0.7578
   79MOL0     H10386   1.455   5.310   4.863  1.9611 -1.0381 -1.5741
   79MOL0     H10387   1.283   5.314   4.816 -0.1798  1.6707 -0.5331
   79MOL0     H10388   1.530   5.239   4.650 -0.0061 -2.5313 -3.4930
   79MOL0     H10389   1.373   5.241   4.576  2.8910  1.5834 -1.5612
   79MOL0     H10390   1.513   5.072   4.486  1.0603  2.5928  2.3962
   79MOL0     H10391   1.618   4.866   4.395 -0.1050 -2.7477  0.2930
   79MOL0     H10392   1.555   4.399   4.382 -0.0813 -0.2044  0.4029
   79MOL0     H10393   1.634   4.196   4.233  0.0511 -0.1537 -3.9236
   79MOL0     H10394   2.024   4.193   4.182 -2.0320  3.5301  0.1264
   79MOL0     H10395   2.017   4.212   4.007 -3.8947  1.0127 -1.0855
   79MOL0     H10396   1.956   3.946   4.151 -2.8527  0.7224 -0.5765
   79MOL0     H10397   2.117   3.995   4.100 -0.9752  0.2968  0.4613
   79MOL0     H10398   2.044   4.002   3.881  0.6909  1.2565  2.2749
   79MOL0     H10399   1.866   3.965   3.921 -0.2227  1.9628 -1.5139
   79MOL0     H10400   2.104   3.778   3.983  1.0394 -0.9338 -1.0879
   79MOL0     H10401   1.927   3.764   4.017 -1.1164  2.3294 -1.4635
   79MOL0     H10402   1.886   3.789   3.786 -1.3061 -3.2419  0.4695
   79MOL0     H10403   1.966   3.640   3.832  0.3753 -0.3188  1.2256
   79MOL0     H10404   2.200   3.738   3.794 -1.8050 -0.2483  2.2841
   79MOL0     H10405   2.122   3.864   3.707 -2.1988  0.4350  2.5269
   79MOL0     H10406   2.047   3.720   3.540 -2.3700 -2.2056  0.6856
   79MOL0     H10407   2.206   3.647   3.590  0.6770  0.7143  3.2796
   79MOL0     H10408   1.922   3.539   3.655 -0.8767  0.6484 -1.3385
   79MOL0     H10409   2.073   3.480   3.719  1.6272  2.0888 -0.3845
   79MOL0     H10410   1.976   4.402   4.121 -2.4095 -2.1166 -2.9695
   79MOL0     H10411   1.905   4.610   4.246  1.9576 -1.7083  0.5694
   79MOL0     H10412   1.541   4.673   4.773 -0.4894 -0.6226 -0.4063
   79MOL0     H10413   1.425   4.876   4.856  0.2832  1.6773  0.1246
   79MOL0     H10414   1.056   6.803   5.135 -2.8500 -0.6709 -1.1229
   79MOL0     H10415   1.182   6.857   5.338 -0.5268  0.3186 -0.6048
   79MOL0     H10416   1.413   6.878   5.655  2.4467  2.1345  0.9523
   79MOL0     H10417   1.561   6.951   5.815  1.4663 -1.8710  0.3897
   79MOL0     H10418   1.585   7.150   6.043 -0.1436 -0.3957  1.1831
   79MOL0     H10419   1.665   7.000   5.983 -0.6934 -0.9357 -0.6057
   79MOL0     H10420   1.644   7.079   6.284  1.9591  2.6976  1.7988
   79MOL0     H10421   1.748   6.955   6.195  2.0462 -0.6876  3.2433
   79MOL0     H10422   1.756   7.261   6.191 -1.5898 -1.3171  0.2854
   79MOL0     H10423   1.875   7.157   6.101 -0.7514 -3.2301 -1.3854
   79MOL0     H10424   1.907   7.052   6.348  1.4794 -0.1592 -0.1990
   79MOL0     H10425   2.021   7.162   6.285 -0.2210  0.3969 -1.5815
   79MOL0     H10426   1.812   7.387   6.586  1.5687  2.3150 -1.7920
   79MOL0     H10427   1.255   6.859   6.126  0.0158 -0.3122 -0.1171
   79MOL0     H10428   1.111   6.790   5.946 -1.6250  0.4903 -4.6009
   80MOL0     O10429   9.699   0.925   7.978 -0.4980 -1.0273 -0.7421
   80MOL0     C10430   9.575   0.915   7.963 -0.0856  0.3471  0.8433
   80MOL0     O10431   9.491   0.864   8.055 -0.4341  0.5431 -0.6099
   80MOL0     C10432   9.531   0.799   8.172  0.5948  0.2868  0.2769
   80MOL0     C10433   9.447   0.807   8.281 -0.1000 -0.4043  0.5124
   80MOL0     C10434   9.475   0.736   8.394 -0.0429 -0.3436  0.0294
   80MOL0     C10435   9.586   0.662   8.406 -0.3434  0.0808 -1.1411
   80MOL0     O10436   9.600   0.590   8.522 -0.5388  0.3940  0.2764
   80MOL0     C10437   9.714   0.524   8.550 -0.0264  0.0759  0.5039
   80MOL0     C10438   9.727   0.376   8.514  0.5894  0.5880  0.0051
   80MOL0     C10439   9.589   0.323   8.483 -0.4345  0.0139  1.2180
   80MOL0     C10440   9.606   0.187   8.408 -0.2793  0.7192  0.7790
   80MOL0     C10441   9.463   0.139   8.378  0.3806 -0.3893 -0.5282
   80MOL0     C10442   9.465   0.016   8.297  0.2819  0.1560 -0.9425
   80MOL0     C10443   9.490   0.033   8.144 -0.8530  0.2563  0.7159
   80MOL0     C10444   9.514  -0.100   8.068 -0.3132  0.3899 -0.2016
   80MOL0     N10445   9.511  -0.073   7.920  0.2422 -0.1507 -0.5736
   80MOL0     C10446   9.592   0.011   7.856  0.8482  0.0476  1.0505
   80MOL0     C10447   9.559   0.003   7.717  0.1732 -1.0744 -1.6104
   80MOL0     C10448   9.612   0.087   7.609  0.1644 -0.1308  0.1635
   80MOL0     C10449   9.606   0.235   7.640 -0.4785  0.9735  0.2068
   80MOL0     C10450   9.619   0.326   7.510  0.0825  0.8730  0.1968
   80MOL0     C10451   9.729   0.290   7.412 -1.0890  0.3431 -0.5105
   80MOL0     O10452   9.863   0.303   7.467 -1.1614  0.8199 -0.5662
   80MOL0     C10453   9.969   0.260   7.390 -0.6963 -0.7602  0.2830
   80MOL0     C10454  10.096   0.275   7.442  0.8308  0.0800 -0.7384
   80MOL0     C10455  10.206   0.244   7.365  0.6410 -0.1216  0.2746
   80MOL0     C10456  10.205   0.200   7.237  0.2860 -0.9855 -0.0224
   80MOL0     C10457  10.334   0.179   7.169 -0.5657  1.1106 -0.1187
   80MOL0     O10458  10.335   0.101   7.054  0.0962 -0.1814 -0.0358
   80MOL0     C10459  10.448   0.090   6.972  0.3011  0.5967  0.3312
   80MOL0     C10460  10.427   0.074   6.833 -0.7798  0.8673 -0.6946
   80MOL0     C10461  10.529   0.054   6.745 -0.1827 -0.2862 -0.0527
   80MOL0     C10462  10.653   0.043   6.800 -0.7849  1.3458  0.7107
   80MOL0     O10463  10.754  -0.006   6.713 -0.2112 -0.6731 -0.4303
   80MOL0     C10464  10.859   0.091   6.697  1.1929 -0.1452  0.0442
   80MOL0     C10465  10.929   0.049   6.568 -0.0651  0.0261  0.0463
   80MOL0     C10466  11.044   0.137   6.516  0.4343 -0.6653  0.5685
   80MOL0     C10467  11.129   0.075   6.406  0.0829 -0.1223 -0.5897
   80MOL0     C10468  11.249   0.160   6.365 -0.5305  0.3162  0.3900
   80MOL0     C10469  11.334   0.076   6.262 -0.8736  0.5833  0.2501
   80MOL0     C10470  11.472   0.138   6.226  0.0789 -0.4676  0.6372
   80MOL0     C10471  11.468   0.285   6.170  0.3594  1.0652 -0.5145
   80MOL0    Cl10472  11.629   0.355   6.108  0.2911 -0.1066  0.4285
   80MOL0     C10473  10.684   0.044   6.938  0.7008 -0.3536 -0.1581
   80MOL0     C10474  10.578   0.074   7.017  0.8402 -0.5803  0.1222
   80MOL0     O10475  10.436   0.238   7.217  0.5026 -0.2536  0.0900
   80MOL0     C10476  10.075   0.176   7.185 -0.1871  0.8588 -0.4726
   80MOL0     C10477   9.954   0.200   7.265 -0.0637  0.2245  0.8429
   80MOL0     N10478   9.449  -0.084   7.707  0.7023  0.7568 -0.1296
   80MOL0     N10479   9.435  -0.137   7.825 -0.7463 -0.4693 -0.3539
   80MOL0     C10480   9.661   0.640   8.287 -0.6418 -0.4552 -0.2774
   80MOL0     C10481   9.627   0.703   8.170  0.0705 -0.9439 -0.3358
   80MOL0     C10482   9.520   0.973   7.836  0.0207 -0.1564 -0.3446
   80MOL0     C10483   9.601   1.030   7.739 -0.1014  0.2432 -0.1603
   80MOL0     C10484   9.555   1.041   7.607 -0.6072 -0.8577 -1.0523
   80MOL0     C10485   9.422   1.001   7.575  0.4858 -0.8501 -0.4778
   80MOL0     O10486   9.401   1.004   7.439  0.0621 -0.5191 -0.0017
   80MOL0     C10487   9.274   0.988   7.384  0.4197 -0.0162  0.4005
   80MOL0     C10488   9.186   1.117   7.375 -0.4707 -0.5645 -0.0639
   80MOL0     C10489   9.222   1.205   7.257  1.0246 -0.0462 -1.3937
   80MOL0     C10490   9.202   1.357   7.296 -0.2327 -0.2039  0.3476
   80MOL0     C10491   9.059   1.388   7.316 -0.6360  0.0424 -0.6188
   80MOL0     C10492   8.946   1.436   7.320  0.5616 -0.5236  0.1468
   80MOL0     C10493   9.327   0.965   7.674 -0.1672 -0.4436 -0.2393
   80MOL0     C10494   9.384   0.950   7.800 -1.2445  1.1842  0.1309
   80MOL0     H10495   9.358   0.868   8.283  0.7682  0.9789 -0.7982
   80MOL0     H10496   9.403   0.751   8.473 -0.9479 -0.3216 -0.7783
   80MOL0     H10497   9.743   0.516   8.656 -2.0425 -2.1583  0.9629
   80MOL0     H10498   9.801   0.578   8.512  0.1516 -1.1374 -0.8854
   80MOL0     H10499   9.769   0.314   8.593 -1.9495 -0.6997  0.4571
   80MOL0     H10500   9.785   0.354   8.424  3.6831  0.3719  1.9057
   80MOL0     H10501   9.528   0.386   8.417 -1.9765 -2.4277  0.2150
   80MOL0     H10502   9.540   0.316   8.581  1.1392  2.9199  2.3636
   80MOL0     H10503   9.662   0.208   8.316  1.8049  2.2216  2.3038
   80MOL0     H10504   9.667   0.124   8.472  1.0381  1.6259  0.4573
   80MOL0     H10505   9.398   0.222   8.352  0.6923 -0.9499 -3.4453
   80MOL0     H10506   9.427   0.114   8.478 -0.0675  1.4425 -0.1994
   80MOL0     H10507   9.368  -0.033   8.315  0.9877 -1.3085 -0.9883
   80MOL0     H10508   9.548  -0.046   8.331 -1.1216 -0.3904  1.7384
   80MOL0     H10509   9.400   0.082   8.105 -0.6021  0.2764  0.1489
   80MOL0     H10510   9.570   0.105   8.126  0.7724 -1.8967 -1.2487
   80MOL0     H10511   9.436  -0.170   8.098  0.8065 -1.1092 -0.6531
   80MOL0     H10512   9.611  -0.143   8.097 -0.9273  0.5829  2.3992
   80MOL0     H10513   9.681   0.061   7.893  2.0280 -2.1521  1.4242
   80MOL0     H10514   9.553   0.081   7.517 -0.2964  1.5340  0.3164
   80MOL0     H10515   9.715   0.065   7.579 -0.1395  1.4903 -2.4416
   80MOL0     H10516   9.685   0.258   7.713 -0.4176  4.3330 -0.7468
   80MOL0     H10517   9.514   0.259   7.693  0.0512  1.7389  0.8199
   80MOL0     H10518   9.528   0.315   7.451  1.2673  0.5882 -1.6712
   80MOL0     H10519   9.626   0.433   7.534  3.7125  0.2024  3.0695
   80MOL0     H10520   9.717   0.349   7.321  1.0433  3.5918  1.1165
   80MOL0     H10521   9.711   0.184   7.392  1.0527 -0.2657  0.4601
   80MOL0     H10522  10.113   0.328   7.535 -0.9696 -0.2560 -0.1763
   80MOL0     H10523  10.303   0.266   7.408  1.4921 -1.5568 -0.8393
   80MOL0     H10524  10.331   0.066   6.784 -0.9562 -1.1482 -0.1243
   80MOL0     H10525  10.515   0.047   6.638 -4.0105  0.2324  0.2684
   80MOL0     H10526  10.935   0.095   6.776  0.1140  3.1830  1.0927
   80MOL0     H10527  10.813   0.190   6.685  2.0150 -0.0324 -3.0574
   80MOL0     H10528  10.861   0.053   6.482  0.3315 -1.2803 -0.3410
   80MOL0     H10529  10.975  -0.048   6.588  1.9980  1.4216  2.7693
   80MOL0     H10530  11.112   0.165   6.597 -2.2382  2.8183  1.8811
   80MOL0     H10531  11.001   0.231   6.480  1.7556  0.8812  2.8146
   80MOL0     H10532  11.180  -0.011   6.451 -1.5577 -1.1714 -0.6612
   80MOL0     H10533  11.073   0.060   6.313  1.5518 -1.0311 -1.3777
   80MOL0     H10534  11.321   0.179   6.445  0.5111 -0.3265 -0.3670
   80MOL0     H10535  11.231   0.262   6.329 -0.3363  0.3028  0.2515
   80MOL0     H10536  11.278   0.066   6.168 -0.0689  0.1467 -0.1887
   80MOL0     H10537  11.347  -0.026   6.300 -1.5954 -0.3999 -1.9650
   80MOL0     H10538  11.540   0.146   6.311  0.2468  0.5782  0.4225
   80MOL0     H10539  11.516   0.086   6.141 -1.7869 -0.6591 -0.2720
   80MOL0     H10540  11.435   0.350   6.252  2.0181 -0.3508  1.3716
   80MOL0     H10541  11.391   0.282   6.093 -2.0891 -1.9253  1.7769
   80MOL0     H10542  10.782   0.031   6.984 -0.3089 -0.4014  2.0961
   80MOL0     H10543  10.593   0.089   7.124  0.3109  4.4203 -0.2353
   80MOL0     H10544  10.064   0.129   7.088 -1.1292  3.3925 -1.6943
   80MOL0     H10545   9.854   0.167   7.241  0.3366 -0.9264  0.6583
   80MOL0     H10546   9.747   0.578   8.265 -0.2494  0.3150 -0.9368
   80MOL0     H10547   9.677   0.694   8.074  0.4924 -0.4286 -0.1616
   80MOL0     H10548   9.705   1.052   7.761 -0.6390  4.5641 -0.9690
   80MOL0     H10549   9.620   1.080   7.530 -2.0346  2.1900 -0.8481
   80MOL0     H10550   9.219   0.916   7.445 -2.0304 -0.4212 -2.0508
   80MOL0     H10551   9.285   0.941   7.286 -0.6484  1.8780 -0.6994
   80MOL0     H10552   9.080   1.094   7.360 -0.8757  0.6225  0.8522
   80MOL0     H10553   9.191   1.171   7.470 -1.6575  0.9405 -0.8096
   80MOL0     H10554   9.148   1.182   7.180 -1.6417 -0.4322  1.0932
   80MOL0     H10555   9.322   1.191   7.214  1.4549 -1.9314  0.0787
   80MOL0     H10556   9.267   1.395   7.375  3.1744 -0.4354 -2.1417
   80MOL0     H10557   9.236   1.419   7.213  3.3981  0.1803  1.9375
   80MOL0     H10558   8.842   1.464   7.321  0.6463 -0.2120  0.7129
   80MOL0     H10559   9.223   0.941   7.653 -0.1369 -0.1714 -0.6957
   80MOL0     H10560   9.322   0.885   7.862 -0.6768 -0.6301 -1.1216
   81MOL0     O10561   3.582  11.215   3.311  0.4340 -0.6202 -0.6911
   81MOL0     C10562   3.564  11.268   3.421  0.8946 -0.0514 -0.3741
   81MOL0     O10563   3.446  11.289   3.480  0.1532  0.4950 -0.0605
   81MOL0     C10564   3.322  11.280   3.419  0.2401  1.1618 -0.9177
   81MOL0     C10565   3.298  11.221   3.298  0.6519 -0.5566 -0.1577
   81MOL0     C10566   3.161  11.226   3.254  0.0152  0.6067  0.5752
   81MOL0     C10567   3.057  11.277   3.332 -0.2675  0.7132  1.4014
   81MOL0     O10568   2.930  11.263   3.300  0.4459 -0.2005 -0.0583
   81MOL0     C10569   2.892  11.363   3.208  0.3653  0.3679 -0.2606
   81MOL0     C10570   2.738  11.376   3.212 -0.3948 -0.8345  0.2964
   81MOL0     C10571   2.672  11.250   3.151  0.3238  0.7886 -1.3152
   81MOL0     C10572   2.519  11.262   3.149 -0.4759 -0.9871 -0.0388
   81MOL0     C10573   2.470  11.348   3.030  0.7057 -0.1686 -0.0581
   81MOL0     C10574   2.323  11.372   3.057 -0.2721  0.2957 -0.1966
   81MOL0     C10575   2.243  11.256   3.010  0.4133  0.5173 -0.4840
   81MOL0     C10576   2.095  11.285   3.023  0.3729  0.5368  0.6084
   81MOL0     N10577   2.051  11.395   2.927 -0.6582 -0.0685  0.0862
   81MOL0     C10578   2.059  11.405   2.791 -0.0735  0.2375 -0.2185
   81MOL0     C10579   2.043  11.537   2.764  0.0353 -0.3811 -0.0203
   81MOL0     C10580   2.055  11.600   2.623  0.8106  0.4967 -0.5705
   81MOL0     C10581   1.920  11.597   2.548 -0.6792  0.1340 -0.0492
   81MOL0     C10582   1.871  11.450   2.518  0.3910 -0.9812 -0.1863
   81MOL0     C10583   1.759  11.443   2.412  0.5741 -0.7729  0.3506
   81MOL0     O10584   1.719  11.305   2.386  0.1259  0.0941  0.4332
   81MOL0     C10585   1.620  11.286   2.294 -0.6359  0.0210 -0.4897
   81MOL0     C10586   1.537  11.383   2.245  0.1553 -0.0043  0.9719
   81MOL0     C10587   1.433  11.350   2.151 -0.0535 -0.1087 -0.2996
   81MOL0     C10588   1.422  11.211   2.114  0.4794 -0.2386  0.2603
   81MOL0     C10589   1.315  11.167   2.023 -0.7820 -0.0849  0.7039
   81MOL0     O10590   1.253  11.269   1.958  0.2863  0.1826  0.6381
   81MOL0     C10591   1.160  11.238   1.862  0.7562  0.3758 -0.4772
   81MOL0     C10592   1.046  11.161   1.893 -0.1473 -0.5820 -0.0516
   81MOL0     C10593   0.962  11.129   1.796  0.3916 -0.5630  0.0244
   81MOL0     C10594   0.982  11.163   1.663  0.2158 -0.5857 -0.1504
   81MOL0     O10595   0.884  11.136   1.572  0.7359 -0.2002  0.2520
   81MOL0     C10596   0.854  11.229   1.464  0.1148 -0.8882  0.6168
   81MOL0     C10597   0.712  11.197   1.432 -0.0350  0.1798  0.6852
   81MOL0     C10598   0.660  11.260   1.301 -0.6676  0.2892  0.9872
   81MOL0     C10599   0.754  11.230   1.185 -0.0603  0.0098 -0.5112
   81MOL0     C10600   0.701  11.277   1.046 -0.1867  1.1878 -0.0740
   81MOL0     C10601   0.563  11.220   0.997  0.1273  0.0559 -0.7855
   81MOL0     C10602   0.552  11.066   1.019  0.3196  0.2298  0.2857
   81MOL0     C10603   0.415  11.018   0.965  0.2400 -0.2200 -0.5660
   81MOL0    Cl10604   0.270  11.073   1.052  0.0278 -0.0084 -0.0642
   81MOL0     C10605   1.101  11.229   1.634 -0.3015 -0.0743 -0.0631
   81MOL0     C10606   1.179  11.273   1.731 -0.1446  0.0505 -0.6906
   81MOL0     O10607   1.304  11.046   2.000 -0.4991  0.0112  0.0148
   81MOL0     C10608   1.514  11.120   2.164 -0.2133 -0.6368 -0.6700
   81MOL0     C10609   1.616  11.153   2.246 -0.6792 -0.0516 -0.0553
   81MOL0     N10610   2.002  11.606   2.883 -0.1316 -0.5192  0.4550
   81MOL0     N10611   2.016  11.520   2.978 -0.3223 -0.4350 -0.6356
   81MOL0     C10612   3.090  11.332   3.455 -0.4857 -0.5060  0.7313
   81MOL0     C10613   3.225  11.352   3.482 -0.1829  0.4393  0.0964
   81MOL0     C10614   3.684  11.315   3.500 -0.8149 -0.3493  1.2324
   81MOL0     C10615   3.808  11.306   3.436 -0.3692 -0.2972 -0.7039
   81MOL0     C10616   3.923  11.353   3.513  1.5020  1.1150  0.7780
   81MOL0     C10617   3.900  11.395   3.642  0.5222  0.6070 -0.2386
   81MOL0     O10618   4.002  11.426   3.733  0.7363  0.7301 -0.7167
   81MOL0     C10619   4.143  11.419   3.699  1.4199 -0.2516  0.5672
   81MOL0     C10620   4.214  11.292   3.752  0.0659 -0.2188  0.0292
   81MOL0     C10621   4.348  11.291   3.683  0.9848 -1.0635  0.2331
   81MOL0     C10622   4.413  11.158   3.694  0.1448  0.2844 -0.0690
   81MOL0     C10623   4.530  11.147   3.606 -0.3569  0.5915  0.0109
   81MOL0     C10624   4.627  11.152   3.534 -1.1029  0.3147  1.2095
   81MOL0     C10625   3.774  11.384   3.705 -0.3088 -0.4367 -0.4090
   81MOL0     C10626   3.663  11.367   3.629  0.5621  0.5116  0.4211
   81MOL0     H10627   3.370  11.170   3.234  1.4278  1.1296 -0.6823
   81MOL0     H10628   3.139  11.165   3.166  0.3337  1.0801  0.1597
   81MOL0     H10629   2.931  11.340   3.108  0.8216 -0.8992  0.1877
   81MOL0     H10630   2.933  11.455   3.249  0.7351  0.0311  0.1382
   81MOL0     H10631   2.705  11.466   3.160 -1.2616 -0.6220  1.1828
   81MOL0     H10632   2.704  11.388   3.316 -2.7217 -1.0020 -0.3978
   81MOL0     H10633   2.706  11.174   3.222  1.7612  2.6180  0.0453
   81MOL0     H10634   2.717  11.235   3.052  0.6992  1.3128 -1.2315
   81MOL0     H10635   2.478  11.161   3.135  2.3661 -2.3420  0.7681
   81MOL0     H10636   2.472  11.298   3.241 -1.7608  0.8951 -1.3424
   81MOL0     H10637   2.481  11.302   2.932  1.7193 -0.0875  0.0024
   81MOL0     H10638   2.532  11.439   3.033  3.3088 -1.8117 -0.9946
   81MOL0     H10639   2.283  11.460   3.007 -3.4232 -0.3629  0.9630
   81MOL0     H10640   2.302  11.394   3.162 -0.4782  1.4783 -0.4758
   81MOL0     H10641   2.266  11.237   2.904  0.0518  3.3261 -1.1622
   81MOL0     H10642   2.272  11.165   3.063  1.9440 -0.5330 -2.9333
   81MOL0     H10643   2.077  11.303   3.130 -0.4868  0.8528  0.4129
   81MOL0     H10644   2.038  11.196   2.994  1.7337 -0.6026  1.2930
   81MOL0     H10645   2.090  11.333   2.715  4.6556 -1.5904  2.9897
   81MOL0     H10646   2.144  11.555   2.578  4.1247 -0.7295  6.0587
   81MOL0     H10647   2.071  11.708   2.633 -2.6122  1.4701 -3.3792
   81MOL0     H10648   1.922  11.656   2.456 -3.1896  1.1743  0.4789
   81MOL0     H10649   1.860  11.647   2.625  1.2346  0.5561  1.2285
   81MOL0     H10650   1.962  11.399   2.485 -1.4110 -2.5173 -3.2037
   81MOL0     H10651   1.844  11.412   2.617  3.4600  0.6132  1.4147
   81MOL0     H10652   1.799  11.484   2.318 -0.9920 -0.0936 -0.0408
   81MOL0     H10653   1.678  11.505   2.451 -0.1124  0.6902 -3.0328
   81MOL0     H10654   1.535  11.485   2.283  0.5749 -0.6275  2.8054
   81MOL0     H10655   1.364  11.426   2.116  2.5792  1.8485 -1.5433
   81MOL0     H10656   1.031  11.143   1.999 -2.3979 -1.4803 -0.4725
   81MOL0     H10657   0.868  11.081   1.821 -0.4475  1.5688  1.2834
   81MOL0     H10658   0.931  11.229   1.387  1.3211  0.7546  1.7391
   81MOL0     H10659   0.847  11.331   1.504 -1.1571  0.6788 -3.1181
   81MOL0     H10660   0.651  11.229   1.518  1.0103  1.2345  1.0528
   81MOL0     H10661   0.701  11.089   1.417  1.9434 -0.1341  1.2194
   81MOL0     H10662   0.670  11.368   1.313  0.4591  0.3948 -0.5216
   81MOL0     H10663   0.559  11.229   1.272 -0.1502 -0.6009  0.0622
   81MOL0     H10664   0.850  11.279   1.200 -1.2089  1.8479  1.4854
   81MOL0     H10665   0.758  11.122   1.167 -2.1828  0.3865 -4.3692
   81MOL0     H10666   0.784  11.252   0.980 -1.1717 -1.0119 -0.5715
   81MOL0     H10667   0.695  11.386   1.038  1.7637  1.1870 -2.6916
   81MOL0     H10668   0.551  11.246   0.892 -0.6309 -0.8184 -0.9296
   81MOL0     H10669   0.497  11.268   1.069  1.4460 -2.7867  2.6285
   81MOL0     H10670   0.624  11.011   0.958  0.8719  0.8138  0.4019
   81MOL0     H10671   0.565  11.042   1.125  3.3478 -0.8869 -0.2526
   81MOL0     H10672   0.415  10.908   0.968 -1.9668 -0.2568 -0.2903
   81MOL0     H10673   0.404  11.061   0.865  3.1346 -0.5625 -1.1166
   81MOL0     H10674   1.120  11.255   1.530 -3.1588  1.3158 -0.3418
   81MOL0     H10675   1.270  11.328   1.711 -0.3524  1.5864  2.0423
   81MOL0     H10676   1.535  11.023   2.119  1.4957 -0.6942  0.1499
   81MOL0     H10677   1.692  11.083   2.277 -2.5973 -1.9168  0.6833
   81MOL0     H10678   3.031  11.385   3.528  2.0084  1.1505  1.6704
   81MOL0     H10679   3.251  11.421   3.562 -0.0625  2.0150 -1.2514
   81MOL0     H10680   3.818  11.265   3.336 -2.1086 -1.3422 -0.4919
   81MOL0     H10681   4.020  11.357   3.464  0.8144  2.1805 -0.5650
   81MOL0     H10682   4.200  11.505   3.733  1.8809  0.5142 -1.9514
   81MOL0     H10683   4.156  11.433   3.592  1.4644  2.3487  0.8613
   81MOL0     H10684   4.230  11.297   3.860  2.7827 -0.7133 -0.2777
   81MOL0     H10685   4.162  11.200   3.722  3.6308 -2.1587 -0.8037
   81MOL0     H10686   4.408  11.370   3.731  1.0103 -0.4261 -0.8003
   81MOL0     H10687   4.334  11.320   3.578  1.0380  0.8168  0.7025
   81MOL0     H10688   4.437  11.141   3.799 -1.8495 -0.6073  0.2833
   81MOL0     H10689   4.347  11.082   3.653  2.2868 -1.5922 -0.2756
   81MOL0     H10690   4.710  11.146   3.466 -0.0801  1.1811  2.3156
   81MOL0     H10691   3.767  11.429   3.804  0.1840  2.2101 -1.4990
   81MOL0     H10692   3.579  11.388   3.694  0.4516  0.5835  0.2546
   82MOL0     O10693   2.508   7.235   7.764 -0.0147 -1.1730  0.8315
   82MOL0     C10694   2.483   7.346   7.803 -0.2808 -1.0475  0.5965
   82MOL0     O10695   2.376   7.423   7.774  0.8081  0.5617  0.3761
   82MOL0     C10696   2.297   7.399   7.665 -0.5545  0.1772 -0.8320
   82MOL0     C10697   2.332   7.325   7.547 -0.4835 -0.5479  0.5267
   82MOL0     C10698   2.253   7.332   7.432 -0.0030 -0.2037 -0.7059
   82MOL0     C10699   2.137   7.411   7.434  0.7236  0.4876  0.5039
   82MOL0     O10700   2.042   7.430   7.336 -0.0149  0.2039  0.2211
   82MOL0     C10701   2.056   7.363   7.209  0.4916 -0.2071 -0.1006
   82MOL0     C10702   1.981   7.425   7.089  0.1569  0.8832 -0.5393
   82MOL0     C10703   1.849   7.487   7.131 -1.0326  0.6056  0.2095
   82MOL0     C10704   1.808   7.575   7.015 -0.8743 -0.6539  0.2380
   82MOL0     C10705   1.766   7.512   6.889  0.4109  0.0849 -0.3533
   82MOL0     C10706   1.694   7.616   6.792  0.2286 -0.4696 -0.4405
   82MOL0     C10707   1.576   7.553   6.705  0.0003 -0.3148  1.0582
   82MOL0     C10708   1.535   7.659   6.602  0.5211 -0.3154 -0.4199
   82MOL0     N10709   1.639   7.706   6.509 -0.0621 -0.7967 -0.1959
   82MOL0     C10710   1.686   7.628   6.404  0.5795 -0.0909  0.7341
   82MOL0     C10711   1.758   7.719   6.333  0.4915  1.1012 -0.5760
   82MOL0     C10712   1.836   7.663   6.213 -0.2701  0.0234  0.6090
   82MOL0     C10713   1.760   7.577   6.108  0.5947 -0.0016 -0.1776
   82MOL0     C10714   1.634   7.643   6.055  0.2441  1.9271  0.5280
   82MOL0     C10715   1.557   7.557   5.941 -0.7840 -0.3272 -0.4053
   82MOL0     O10716   1.625   7.584   5.819  0.0813 -0.2765  0.0806
   82MOL0     C10717   1.599   7.495   5.713  0.3177  0.0871  0.6029
   82MOL0     C10718   1.591   7.564   5.585  0.4255  0.1531 -1.1405
   82MOL0     C10719   1.573   7.477   5.477  0.5028  0.7253  1.4329
   82MOL0     C10720   1.580   7.338   5.481 -0.7755 -0.0525 -0.4768
   82MOL0     C10721   1.582   7.263   5.360 -0.1947  0.0783  0.4182
   82MOL0     O10722   1.493   7.293   5.271  0.1550 -0.2872 -0.7786
   82MOL0     C10723   1.438   7.204   5.176  0.3926 -0.5757  0.3359
   82MOL0     C10724   1.371   7.258   5.065  0.0357  0.9135  0.2866
   82MOL0     C10725   1.288   7.170   4.987 -0.1001 -0.9791  0.0637
   82MOL0     C10726   1.293   7.030   5.012  0.7424  0.7360 -0.3172
   82MOL0     O10727   1.231   6.930   4.935  0.7697  0.2215  0.5583
   82MOL0     C10728   1.176   6.978   4.812 -0.3528  0.2606  0.4302
   82MOL0     C10729   1.155   6.855   4.730 -0.0718  0.9054  0.5800
   82MOL0     C10730   1.086   6.874   4.596  0.3318  0.4832 -0.7773
   82MOL0     C10731   1.053   6.732   4.544 -0.4816 -0.8676  0.9730
   82MOL0     C10732   0.947   6.737   4.430  0.6820  0.2217 -0.7037
   82MOL0     C10733   0.928   6.606   4.352 -0.7240  0.0326  0.9825
   82MOL0     C10734   1.050   6.545   4.283  0.0379  0.2990  0.3910
   82MOL0     C10735   1.030   6.442   4.176  0.6280  0.7027  1.1093
   82MOL0    Cl10736   0.937   6.300   4.240 -0.4496 -0.0279 -0.3607
   82MOL0     C10737   1.363   6.983   5.123 -0.2768  0.3321  0.0847
   82MOL0     C10738   1.437   7.070   5.210  0.0214  0.2838 -0.6141
   82MOL0     O10739   1.671   7.176   5.354 -0.2328  0.3035  0.3841
   82MOL0     C10740   1.602   7.276   5.605 -0.8933  0.5391 -0.9669
   82MOL0     C10741   1.603   7.358   5.723  0.1866  0.9627 -1.0450
   82MOL0     N10742   1.736   7.844   6.383  0.0080  0.0450  0.3923
   82MOL0     N10743   1.665   7.837   6.487  0.1584  0.2851  0.1638
   82MOL0     C10744   2.102   7.479   7.552  0.3196  0.1170 -0.7270
   82MOL0     C10745   2.175   7.471   7.662 -0.0235 -0.9025 -0.3169
   82MOL0     C10746   2.577   7.409   7.892  1.4975 -0.2080 -0.0518
   82MOL0     C10747   2.678   7.333   7.961 -0.4167 -0.6546 -0.0100
   82MOL0     C10748   2.769   7.395   8.051  0.6387  0.7297 -0.1198
   82MOL0     C10749   2.755   7.523   8.086  0.5047  0.1966 -0.2097
   82MOL0     O10750   2.837   7.567   8.183  0.1545 -0.3818  0.3778
   82MOL0     C10751   2.908   7.686   8.141 -0.6938 -0.4186 -0.3159
   82MOL0     C10752   2.990   7.736   8.262 -1.1210  0.5887  0.5955
   82MOL0     C10753   3.108   7.645   8.296 -0.0763  0.2161 -0.7434
   82MOL0     C10754   3.179   7.681   8.429 -0.0577  0.0995  0.4278
   82MOL0     C10755   3.108   7.638   8.552  0.5466  0.7594 -0.3066
   82MOL0     C10756   3.037   7.603   8.657 -0.6387 -1.1151 -0.1149
   82MOL0     C10757   2.653   7.596   8.033  0.2334  0.6509  0.2585
   82MOL0     C10758   2.566   7.537   7.939 -0.1471 -0.0814 -0.5350
   82MOL0     H10759   2.424   7.269   7.549 -0.7032 -0.9586 -0.3870
   82MOL0     H10760   2.281   7.270   7.348 -1.4011  0.3716 -1.6414
   82MOL0     H10761   2.031   7.257   7.219 -3.1909  0.2258 -2.5971
   82MOL0     H10762   2.159   7.363   7.175  0.3456 -0.1946 -0.5487
   82MOL0     H10763   1.972   7.350   7.010  1.8790 -1.2934  1.1928
   82MOL0     H10764   2.030   7.513   7.049 -1.6612  3.0145  1.5812
   82MOL0     H10765   1.872   7.548   7.219 -0.8633  1.0233 -0.1191
   82MOL0     H10766   1.779   7.405   7.149  1.4151 -1.5767  0.3398
   82MOL0     H10767   1.722   7.639   7.041 -0.9378 -0.3639 -0.6393
   82MOL0     H10768   1.884   7.647   6.983 -1.9938  0.1799 -0.7136
   82MOL0     H10769   1.690   7.437   6.914  0.0241 -0.3256 -2.5458
   82MOL0     H10770   1.841   7.456   6.832  0.2194  0.3040 -0.8253
   82MOL0     H10771   1.773   7.657   6.729 -0.3597  2.2167  0.4753
   82MOL0     H10772   1.666   7.704   6.850  0.2272  0.4634 -1.8217
   82MOL0     H10773   1.608   7.477   6.632  0.8549  3.8121 -3.4002
   82MOL0     H10774   1.497   7.512   6.768 -2.0670  0.6184 -0.8035
   82MOL0     H10775   1.482   7.743   6.648  4.3271  1.2385  1.5804
   82MOL0     H10776   1.454   7.616   6.542  0.3497 -1.1248  0.3743
   82MOL0     H10777   1.682   7.523   6.377  0.0336 -0.3237  1.6964
   82MOL0     H10778   1.920   7.600   6.245  1.4263  2.1539  0.5755
   82MOL0     H10779   1.884   7.744   6.159  0.8039 -2.5776 -2.6361
   82MOL0     H10780   1.736   7.484   6.160  2.4193  1.7182  4.2700
   82MOL0     H10781   1.826   7.558   6.023  0.8186 -0.8888  0.1834
   82MOL0     H10782   1.559   7.646   6.135 -3.1684  3.4030 -2.4351
   82MOL0     H10783   1.663   7.743   6.023  2.1780 -0.0074 -4.8779
   82MOL0     H10784   1.461   7.608   5.927  0.2475  1.4131 -1.5328
   82MOL0     H10785   1.549   7.453   5.973 -4.0451  0.5692  2.2248
   82MOL0     H10786   1.605   7.669   5.564  1.2965 -0.1606 -2.2765
   82MOL0     H10787   1.562   7.514   5.375 -1.9695  0.9203  1.7001
   82MOL0     H10788   1.372   7.366   5.051 -2.6141  0.7969 -1.5656
   82MOL0     H10789   1.224   7.221   4.915 -1.5778 -1.0211  1.3016
   82MOL0     H10790   1.248   7.036   4.753  0.8689  0.1682  1.7914
   82MOL0     H10791   1.083   7.035   4.828 -0.1295  0.6251  0.4432
   82MOL0     H10792   1.097   6.781   4.786  3.7108 -0.6941  2.8371
   82MOL0     H10793   1.252   6.804   4.720 -0.2979 -0.1577  2.9713
   82MOL0     H10794   1.150   6.934   4.531 -0.7384 -0.3605 -2.7108
   82MOL0     H10795   0.995   6.934   4.600  1.4715  2.2682 -0.7002
   82MOL0     H10796   1.141   6.676   4.510 -0.9922 -2.5617  2.2721
   82MOL0     H10797   1.019   6.678   4.633  4.0228  0.5652  3.8604
   82MOL0     H10798   0.955   6.826   4.367  2.1886  0.6175 -0.0202
   82MOL0     H10799   0.852   6.745   4.483  0.2317 -0.0404 -1.4661
   82MOL0     H10800   0.853   6.620   4.273 -0.1669 -1.3758  0.1726
   82MOL0     H10801   0.894   6.528   4.420  1.4569 -1.1847  0.7664
   82MOL0     H10802   1.118   6.621   4.243  1.0437  1.4007  3.7997
   82MOL0     H10803   1.099   6.488   4.363  3.2897  0.5634 -1.2286
   82MOL0     H10804   1.127   6.405   4.143 -0.9553  0.0024 -3.3901
   82MOL0     H10805   0.972   6.477   4.091 -1.3215 -2.3941  1.0067
   82MOL0     H10806   1.360   6.876   5.140  0.2643  0.3637  0.4089
   82MOL0     H10807   1.498   7.037   5.293  2.0697 -0.1142 -2.1861
   82MOL0     H10808   1.632   7.172   5.597 -1.1869 -0.0931  3.5257
   82MOL0     H10809   1.629   7.310   5.817  2.8308  2.1729 -1.0501
   82MOL0     H10810   2.018   7.548   7.547  0.7117  0.9405  2.3175
   82MOL0     H10811   2.145   7.529   7.749  1.2640  1.5566 -1.4123
   82MOL0     H10812   2.696   7.228   7.943  3.2263  0.1552 -2.0316
   82MOL0     H10813   2.842   7.331   8.099 -1.5722 -1.4885  0.4516
   82MOL0     H10814   2.836   7.763   8.114 -0.2171  1.0304  2.1753
   82MOL0     H10815   2.981   7.674   8.060 -0.2879  0.3497 -0.0853
   82MOL0     H10816   3.021   7.838   8.236  1.8792 -0.4189 -0.2003
   82MOL0     H10817   2.919   7.740   8.345  0.5787 -1.4498  2.2660
   82MOL0     H10818   3.181   7.653   8.215  1.7084 -1.3987  0.6137
   82MOL0     H10819   3.069   7.543   8.304 -1.8261  0.6872 -2.3292
   82MOL0     H10820   3.264   7.613   8.417 -0.4518  0.0958 -4.4112
   82MOL0     H10821   3.212   7.785   8.427 -0.3381  0.1837 -0.7850
   82MOL0     H10822   2.982   7.579   8.746  2.5173 -0.2586  2.2317
   82MOL0     H10823   2.626   7.692   8.075 -2.1044 -1.0586  3.0685
   82MOL0     H10824   2.486   7.598   7.897 -2.3040 -0.2565  2.9039
   83MOL0     O10825   1.253   0.478   4.905  0.8261  0.9478 -0.6489
   83MOL0     C10826   1.349   0.518   4.963 -0.2771 -0.9998  0.4793
   83MOL0     O10827   1.375   0.654   4.993  1.5110  0.6399 -0.3908
   83MOL0     C10828   1.273   0.741   4.984 -1.2800 -0.4990  0.1534
   83MOL0     C10829   1.263   0.835   4.880 -0.2939  0.2677 -0.2081
   83MOL0     C10830   1.153   0.917   4.858 -0.4548 -0.3471 -0.2307
   83MOL0     C10831   1.044   0.909   4.947  0.2502  0.5558 -0.8720
   83MOL0     O10832   0.926   0.991   4.952 -0.0541  0.0743  0.6342
   83MOL0     C10833   0.896   1.073   4.842 -0.2048 -0.8626 -0.2607
   83MOL0     C10834   0.758   1.137   4.862  0.6442  0.3144  0.5341
   83MOL0     C10835   0.691   1.233   4.767 -0.6172  0.2601 -0.0574
   83MOL0     C10836   0.688   1.189   4.611 -0.5733 -0.2106 -0.7011
   83MOL0     C10837   0.601   1.287   4.528  0.9687  0.1076 -0.0807
   83MOL0     C10838   0.662   1.423   4.496 -0.8274  0.3913  0.9899
   83MOL0     C10839   0.571   1.522   4.436  1.1445  0.0436  0.3572
   83MOL0     C10840   0.463   1.578   4.535 -0.9430 -0.9832 -0.2071
   83MOL0     N10841   0.331   1.588   4.471 -0.2092  0.0623  0.2693
   83MOL0     C10842   0.267   1.484   4.408 -1.4316  0.6239 -0.4401
   83MOL0     C10843   0.158   1.540   4.366  0.1184  0.6044  0.3241
   83MOL0     C10844   0.033   1.472   4.298 -0.1522 -0.3768  0.1565
   83MOL0     C10845  -0.059   1.398   4.393  0.1799  0.2067 -0.2887
   83MOL0     C10846  -0.157   1.306   4.333 -0.1725  0.5140  0.6659
   83MOL0     C10847  -0.247   1.371   4.235 -1.0555  1.5202 -0.3746
   83MOL0     O10848  -0.359   1.443   4.303 -0.0237  0.3057 -0.0128
   83MOL0     C10849  -0.476   1.362   4.313 -0.0104  0.1392  0.2939
   83MOL0     C10850  -0.603   1.425   4.341 -0.4665 -0.4321  0.6248
   83MOL0     C10851  -0.730   1.360   4.341  0.1468 -1.1099 -0.8464
   83MOL0     C10852  -0.732   1.224   4.322  0.8672  0.5126 -0.6011
   83MOL0     C10853  -0.863   1.148   4.308 -0.1417 -0.7163 -0.2033
   83MOL0     O10854  -0.971   1.225   4.318  0.4409  0.2792  0.1274
   83MOL0     C10855  -1.097   1.176   4.300  0.4994 -0.3747 -0.6150
   83MOL0     C10856  -1.190   1.267   4.253 -0.2372  0.0316 -0.6270
   83MOL0     C10857  -1.330   1.243   4.235  0.1402 -0.3262 -1.1272
   83MOL0     C10858  -1.379   1.123   4.283  0.0356  0.2119  0.6490
   83MOL0     O10859  -1.512   1.116   4.291  0.2108 -0.1725 -0.2243
   83MOL0     C10860  -1.577   0.987   4.269  0.8637 -0.2727  0.3419
   83MOL0     C10861  -1.634   0.921   4.392  0.8921 -0.3864 -0.4467
   83MOL0     C10862  -1.750   1.018   4.450 -0.3653  0.4281  0.6209
   83MOL0     C10863  -1.889   0.971   4.384  0.2333  0.0917 -0.0241
   83MOL0     C10864  -2.001   0.956   4.480 -0.2768 -0.2446 -0.6383
   83MOL0     C10865  -2.121   0.894   4.419  0.7626  0.0323  0.0080
   83MOL0     C10866  -2.222   0.854   4.534 -0.4603 -0.0421  0.3572
   83MOL0     C10867  -2.276   0.963   4.623  0.5383  0.3163  0.4337
   83MOL0    Cl10868  -2.376   1.073   4.520 -0.1315 -0.5595  0.0097
   83MOL0     C10869  -1.289   1.030   4.334 -0.9072  0.8247 -0.0682
   83MOL0     C10870  -1.150   1.048   4.337  0.8303 -0.1190 -0.2654
   83MOL0     O10871  -0.858   1.029   4.294  0.0010  0.5470 -0.6430
   83MOL0     C10872  -0.617   1.156   4.292 -0.3455  0.0358 -0.2687
   83MOL0     C10873  -0.489   1.213   4.297  1.0078 -1.1403  0.2947
   83MOL0     N10874   0.139   1.670   4.411 -0.3008  0.3897 -0.6855
   83MOL0     N10875   0.247   1.697   4.475  0.1916  0.3812 -1.2072
   83MOL0     C10876   1.061   0.822   5.056 -0.2842 -0.3383  0.7170
   83MOL0     C10877   1.168   0.740   5.073  0.0378  0.7143  0.3463
   83MOL0     C10878   1.469   0.436   4.962  0.6836  0.3772 -0.7362
   83MOL0     C10879   1.591   0.496   4.964  0.9748 -0.1486 -0.5093
   83MOL0     C10880   1.700   0.416   4.964  0.5520  1.5925 -0.3415
   83MOL0     C10881   1.690   0.275   4.958 -0.6823 -0.2425 -0.2426
   83MOL0     O10882   1.807   0.196   4.947  0.2688  0.4097  0.7127
   83MOL0     C10883   1.802   0.058   4.980  0.1306 -0.1793  0.0485
   83MOL0     C10884   1.934   0.008   5.006  0.2671 -0.2407 -0.1031
   83MOL0     C10885   2.037  -0.001   4.891  0.3120 -0.1140  0.5208
   83MOL0     C10886   2.018  -0.119   4.785 -0.2971 -1.0530 -0.6667
   83MOL0     C10887   2.148  -0.180   4.742  0.1329  1.0201  0.4787
   83MOL0     C10888   2.255  -0.238   4.711 -0.0500 -0.3855  0.2350
   83MOL0     C10889   1.563   0.217   4.962 -0.1157  0.6546  0.0214
   83MOL0     C10890   1.452   0.290   4.948 -0.2829 -0.2875 -0.3138
   83MOL0     H10891   1.351   0.845   4.817 -0.9488 -0.4722 -1.2729
   83MOL0     H10892   1.160   0.994   4.782  0.0933 -0.8992 -0.7563
   83MOL0     H10893   0.898   1.011   4.752 -0.3539  1.8697 -2.3086
   83MOL0     H10894   0.967   1.155   4.830  2.7409 -3.2086  0.0647
   83MOL0     H10895   0.749   1.176   4.964  1.8604 -2.6125  1.8679
   83MOL0     H10896   0.683   1.058   4.864 -0.4524  1.0637 -3.5427
   83MOL0     H10897   0.754   1.323   4.770 -1.3666  0.7568  1.6903
   83MOL0     H10898   0.590   1.261   4.796 -0.6881  2.1873 -1.8780
   83MOL0     H10899   0.791   1.188   4.572 -0.3002  2.6579 -0.3073
   83MOL0     H10900   0.635   1.094   4.602 -3.2574  1.3021 -1.9235
   83MOL0     H10901   0.508   1.303   4.582 -0.4751 -0.8866 -2.1378
   83MOL0     H10902   0.586   1.225   4.439 -0.8933 -2.1087  1.6470
   83MOL0     H10903   0.730   1.411   4.412 -1.7276  1.6749  0.0367
   83MOL0     H10904   0.715   1.471   4.579 -1.1490 -1.9531  2.6556
   83MOL0     H10905   0.620   1.614   4.403  0.1285  0.4448 -0.0419
   83MOL0     H10906   0.518   1.483   4.349 -0.0638  0.7305  0.7673
   83MOL0     H10907   0.491   1.670   4.587 -3.4294 -0.4278  0.2883
   83MOL0     H10908   0.451   1.504   4.615  1.7170 -0.0826  1.1411
   83MOL0     H10909   0.300   1.381   4.405 -0.1377  0.9216  1.5380
   83MOL0     H10910   0.087   1.400   4.235  0.4728  0.2828 -0.0689
   83MOL0     H10911  -0.017   1.540   4.228 -3.2241 -1.6037  1.0090
   83MOL0     H10912  -0.122   1.473   4.442  0.7056  1.4087 -1.3662
   83MOL0     H10913   0.007   1.353   4.468  2.0437  3.9660  0.5823
   83MOL0     H10914  -0.101   1.227   4.281 -1.4255 -1.7089  2.4876
   83MOL0     H10915  -0.211   1.275   4.423 -0.2038 -0.1765  0.4148
   83MOL0     H10916  -0.283   1.299   4.160 -1.3586  1.0421  0.2219
   83MOL0     H10917  -0.184   1.439   4.177  3.2190 -0.4118  1.5662
   83MOL0     H10918  -0.608   1.533   4.355 -1.0799 -0.4426  0.5141
   83MOL0     H10919  -0.824   1.412   4.344  0.0884 -1.2147 -0.8310
   83MOL0     H10920  -1.134   1.357   4.230 -0.0074 -0.3929 -1.7505
   83MOL0     H10921  -1.409   1.310   4.200 -1.1937 -0.8905  0.6501
   83MOL0     H10922  -1.511   0.908   4.233 -2.9271 -2.7027 -1.9479
   83MOL0     H10923  -1.655   1.010   4.195  0.0775 -0.0314  1.2259
   83MOL0     H10924  -1.555   0.917   4.468  1.4108  2.4272 -0.7228
   83MOL0     H10925  -1.671   0.822   4.363 -4.3542  1.4970 -1.1441
   83MOL0     H10926  -1.738   1.123   4.421  0.3310 -0.0321 -0.8990
   83MOL0     H10927  -1.748   1.006   4.558  1.5795  3.2109  0.9897
   83MOL0     H10928  -1.913   1.041   4.303  2.3672 -2.4119 -3.0124
   83MOL0     H10929  -1.876   0.881   4.323 -1.6798  1.1639 -2.2033
   83MOL0     H10930  -2.030   1.055   4.518 -2.0288 -0.3222 -1.6286
   83MOL0     H10931  -1.964   0.885   4.554 -0.3105  0.6127  0.2178
   83MOL0     H10932  -2.099   0.805   4.359 -1.3912 -1.4757  1.3195
   83MOL0     H10933  -2.168   0.974   4.362 -0.3634 -0.6616 -0.0714
   83MOL0     H10934  -2.313   0.806   4.496  0.2710 -0.4388 -0.9771
   83MOL0     H10935  -2.167   0.776   4.587 -1.8557 -0.9184  0.5863
   83MOL0     H10936  -2.191   1.015   4.669  1.9288 -2.5018  1.2901
   83MOL0     H10937  -2.346   0.916   4.692 -0.5259 -1.2012 -1.5629
   83MOL0     H10938  -1.323   0.944   4.390  4.6590 -1.2392  0.7814
   83MOL0     H10939  -1.085   0.964   4.362  1.0594  0.5479  1.4980
   83MOL0     H10940  -0.607   1.051   4.267 -1.2630 -0.5300  1.4793
   83MOL0     H10941  -0.403   1.148   4.287  1.0341 -0.8413 -1.9031
   83MOL0     H10942   0.972   0.817   5.117 -0.5160 -0.9822  0.3285
   83MOL0     H10943   1.176   0.674   5.159 -0.4540 -0.9886 -0.8719
   83MOL0     H10944   1.599   0.604   4.973  0.8617 -0.1881  0.1525
   83MOL0     H10945   1.797   0.465   4.966  0.3855  1.9123  0.4010
   83MOL0     H10946   1.754  -0.004   4.904  0.0502 -2.2819  1.7026
   83MOL0     H10947   1.756   0.048   5.079  0.5741  0.4781  0.3249
   83MOL0     H10948   1.968   0.078   5.083  1.4982  0.2109 -1.0232
   83MOL0     H10949   1.920  -0.087   5.059  1.5563  0.4636  1.5935
   83MOL0     H10950   2.135  -0.019   4.935  1.7962 -0.9783 -2.8348
   83MOL0     H10951   2.041   0.093   4.834  2.0310  0.1523  1.0337
   83MOL0     H10952   1.949  -0.194   4.826 -0.2418 -1.5017 -1.3847
   83MOL0     H10953   1.973  -0.078   4.693  0.3678  0.9317 -0.1630
   83MOL0     H10954   2.350  -0.287   4.703 -0.4367 -1.1416  0.1166
   83MOL0     H10955   1.561   0.109   4.961 -2.5307  0.6440 -2.0594
   83MOL0     H10956   1.354   0.246   4.941  0.9884 -3.2703 -0.8958
   84MOL0     O10957   7.741   5.834   6.304  0.0991 -0.4930  0.4467
   84MOL0     C10958   7.679   5.776   6.217  1.2308 -0.2453  0.7260
   84MOL0     O10959   7.540   5.735   6.219 -0.3914  0.1209 -0.1477
   84MOL0     C10960   7.479   5.762   6.341 -0.3203 -1.1540  0.7276
   84MOL0     C10961   7.423   5.653   6.408 -0.0669  0.4841 -0.3142
   84MOL0     C10962   7.346   5.672   6.521  0.3723  0.2134  0.7280
   84MOL0     C10963   7.313   5.803   6.562  0.6074 -0.1326  0.1890
   84MOL0     O10964   7.235   5.807   6.683 -0.4866  0.6350  0.1356
   84MOL0     C10965   7.113   5.890   6.689  0.2801  0.1427  1.1610
   84MOL0     C10966   7.063   5.862   6.833 -0.1652  0.3634 -0.2665
   84MOL0     C10967   7.016   5.720   6.850 -0.2036 -0.4338  0.6806
   84MOL0     C10968   6.977   5.692   6.997  0.2451  0.1905 -0.2403
   84MOL0     C10969   6.877   5.789   7.055  0.3529 -0.4207  0.6221
   84MOL0     C10970   6.812   5.762   7.189 -0.2719  0.6456  0.1335
   84MOL0     C10971   6.696   5.660   7.172 -0.0521 -1.0475 -0.8942
   84MOL0     C10972   6.555   5.734   7.130 -1.1898 -0.8148  0.0664
   84MOL0     N10973   6.542   5.847   7.222  0.0463  0.8463 -0.3028
   84MOL0     C10974   6.556   5.832   7.356 -0.9563 -0.1139 -1.5019
   84MOL0     C10975   6.533   5.956   7.412 -0.3353  0.2609  0.9884
   84MOL0     C10976   6.566   6.025   7.534  0.2171 -0.3903  0.6770
   84MOL0     C10977   6.705   5.978   7.595  0.6812 -0.1298 -0.0099
   84MOL0     C10978   6.695   5.835   7.663 -0.4249  0.1459 -0.3029
   84MOL0     C10979   6.834   5.790   7.710  0.5367  0.2023  0.1618
   84MOL0     O10980   6.929   5.772   7.604  0.0640  1.1632  0.3343
   84MOL0     C10981   7.052   5.715   7.627 -0.7082  0.2225 -0.3917
   84MOL0     C10982   7.128   5.717   7.504 -0.1944 -1.1487  0.1503
   84MOL0     C10983   7.259   5.662   7.506  0.6688 -1.0191  0.4364
   84MOL0     C10984   7.302   5.577   7.611  0.1377 -0.4847 -0.3759
   84MOL0     C10985   7.430   5.507   7.600 -0.2769 -0.1898 -1.0279
   84MOL0     O10986   7.510   5.525   7.488 -0.1181 -0.1877 -0.3846
   84MOL0     C10987   7.634   5.461   7.492 -0.3204  0.4312 -0.8389
   84MOL0     C10988   7.745   5.546   7.489 -0.1541  0.6090 -0.1611
   84MOL0     C10989   7.874   5.494   7.477 -0.3497 -0.6233  0.2280
   84MOL0     C10990   7.894   5.350   7.473 -0.3125 -0.1146  0.7157
   84MOL0     O10991   8.024   5.296   7.483 -1.3901 -0.6755  0.1262
   84MOL0     C10992   8.130   5.384   7.438  0.3925  0.3854  0.5512
   84MOL0     C10993   8.270   5.333   7.429 -0.1265  0.7787  0.8622
   84MOL0     C10994   8.299   5.227   7.539  0.4793 -0.9616 -0.1119
   84MOL0     C10995   8.428   5.145   7.502 -0.0830  0.5770 -0.3685
   84MOL0     C10996   8.560   5.238   7.484  0.9563 -0.2821  0.1118
   84MOL0     C10997   8.679   5.153   7.458  0.2837  0.4128 -0.9284
   84MOL0     C10998   8.681   5.074   7.324  0.7441  0.0804 -0.3406
   84MOL0     C10999   8.672   5.155   7.199 -0.1766 -0.9435  0.3628
   84MOL0    Cl11000   8.813   5.282   7.197  0.1268 -0.3893 -0.2537
   84MOL0     C11001   7.786   5.261   7.463 -0.0583 -1.0458  0.1431
   84MOL0     C11002   7.660   5.318   7.474 -0.2666  0.2200 -0.1544
   84MOL0     O11003   7.462   5.437   7.704  0.1389  0.3771 -0.0178
   84MOL0     C11004   7.223   5.574   7.733  1.0606 -0.3306 -0.8438
   84MOL0     C11005   7.102   5.647   7.741  0.5070 -0.3609  0.9926
   84MOL0     N11006   6.499   6.036   7.300 -0.1557  0.1946 -1.1800
   84MOL0     N11007   6.486   5.965   7.201  0.3574 -0.7067 -0.5018
   84MOL0     C11008   7.378   5.916   6.506 -0.6828  1.4511 -1.0705
   84MOL0     C11009   7.459   5.897   6.387  0.5502  0.2661  0.2913
   84MOL0     C11010   7.756   5.746   6.089  0.1448  0.1685  0.7286
   84MOL0     C11011   7.700   5.686   5.970  0.2647  0.1221  0.8741
   84MOL0     C11012   7.776   5.682   5.848 -1.4180  0.0224 -0.0574
   84MOL0     C11013   7.915   5.720   5.850  0.1915  0.7097  0.3112
   84MOL0     O11014   7.988   5.714   5.725  0.8398 -0.1286  0.2542
   84MOL0     C11015   8.116   5.773   5.715 -0.1332  0.1328  0.6752
   84MOL0     C11016   8.121   5.918   5.719  0.1378  1.3164 -0.7838
   84MOL0     C11017   8.264   5.977   5.691 -0.8900  0.3736 -0.4566
   84MOL0     C11018   8.364   5.943   5.807  0.2156  0.1819  0.2003
   84MOL0     C11019   8.340   6.021   5.924  0.3853  0.1996  0.0480
   84MOL0     C11020   8.302   6.099   6.009  0.5338  0.1051  0.3637
   84MOL0     C11021   7.968   5.762   5.973  0.3535 -0.1552  1.5269
   84MOL0     C11022   7.888   5.790   6.078  0.2842 -0.9584 -0.8732
   84MOL0     H11023   7.442   5.551   6.376  1.6013  0.1803  1.4200
   84MOL0     H11024   7.297   5.595   6.579 -1.2048 -0.4054 -1.2906
   84MOL0     H11025   7.046   5.858   6.609  1.1722  4.3003 -1.5610
   84MOL0     H11026   7.138   5.994   6.665 -0.6063 -0.2463 -1.8242
   84MOL0     H11027   6.996   5.942   6.867 -2.5155 -1.2607 -0.8505
   84MOL0     H11028   7.153   5.866   6.896 -0.9600  1.3835  0.8530
   84MOL0     H11029   7.093   5.653   6.809  1.0555  1.5398 -0.3229
   84MOL0     H11030   6.925   5.712   6.790  2.2597  0.5240 -3.6271
   84MOL0     H11031   6.929   5.594   6.996 -0.1225  0.3626  0.2489
   84MOL0     H11032   7.061   5.686   7.067  0.2713 -1.3591 -0.3630
   84MOL0     H11033   6.806   5.814   6.976  0.9946 -1.6354 -0.3837
   84MOL0     H11034   6.928   5.885   7.067 -2.0478  1.0867 -0.3960
   84MOL0     H11035   6.784   5.857   7.238  0.5371 -0.1810  2.3504
   84MOL0     H11036   6.888   5.713   7.249 -0.8668 -1.8547 -1.0523
   84MOL0     H11037   6.720   5.582   7.099  1.4836 -1.2315 -0.2492
   84MOL0     H11038   6.671   5.608   7.265  0.9445 -0.0264 -0.0210
   84MOL0     H11039   6.478   5.656   7.134  0.4076 -2.6025 -1.8604
   84MOL0     H11040   6.547   5.772   7.028 -0.6685  0.7063  0.5673
   84MOL0     H11041   6.586   5.748   7.418 -1.9378  0.1529 -0.6189
   84MOL0     H11042   6.489   6.006   7.609 -0.5547 -1.4194 -0.3520
   84MOL0     H11043   6.566   6.134   7.524  0.9996 -0.2055  2.3207
   84MOL0     H11044   6.730   6.052   7.672 -1.2722  0.8281 -0.2304
   84MOL0     H11045   6.787   5.979   7.522  0.9614  2.2130  0.2790
   84MOL0     H11046   6.632   5.844   7.752 -0.5588  1.1512 -0.4934
   84MOL0     H11047   6.647   5.762   7.597 -0.6743  2.0649 -2.3689
   84MOL0     H11048   6.819   5.693   7.758  0.7976 -0.1908 -0.5390
   84MOL0     H11049   6.871   5.867   7.779 -2.2000  1.3452  0.5182
   84MOL0     H11050   7.079   5.768   7.422 -4.5624 -2.8996  1.3998
   84MOL0     H11051   7.315   5.673   7.414  1.0686 -0.6290  0.7212
   84MOL0     H11052   7.738   5.654   7.499  2.4064  0.9861 -1.5587
   84MOL0     H11053   7.955   5.564   7.490 -1.0622  0.0580  1.2035
   84MOL0     H11054   8.149   5.462   7.513  1.0077 -0.0002  0.8013
   84MOL0     H11055   8.100   5.413   7.337 -2.7888 -1.5233  0.7920
   84MOL0     H11056   8.332   5.422   7.444 -1.2948  1.4285  2.0248
   84MOL0     H11057   8.281   5.281   7.333 -1.1814 -0.4092  1.3597
   84MOL0     H11058   8.212   5.162   7.551 -0.8040  0.6369 -0.4090
   84MOL0     H11059   8.323   5.264   7.640  0.6113 -0.0133 -0.4809
   84MOL0     H11060   8.443   5.075   7.585  0.5406 -0.0193 -0.9722
   84MOL0     H11061   8.405   5.093   7.408  0.4295  2.6740 -1.7331
   84MOL0     H11062   8.568   5.320   7.556  1.5093 -1.0926  0.9808
   84MOL0     H11063   8.555   5.299   7.393  1.7350  3.3264  2.2623
   84MOL0     H11064   8.686   5.077   7.536  0.4591  1.4610  0.1089
   84MOL0     H11065   8.767   5.217   7.469 -0.3097  0.7931  2.6571
   84MOL0     H11066   8.756   4.995   7.324 -1.6600 -2.4929  3.3339
   84MOL0     H11067   8.591   5.012   7.324  0.0235  0.6397 -5.6348
   84MOL0     H11068   8.582   5.216   7.211  3.1040  4.0554  2.8271
   84MOL0     H11069   8.695   5.115   7.100  0.8206  1.5312 -0.4781
   84MOL0     H11070   7.814   5.156   7.471  2.8743 -0.6364 -2.5616
   84MOL0     H11071   7.574   5.252   7.474  2.1075 -3.1563  1.7029
   84MOL0     H11072   7.262   5.517   7.817  1.2600 -0.0764 -0.7621
   84MOL0     H11073   7.034   5.656   7.825 -1.1590  2.2336 -0.4862
   84MOL0     H11074   7.383   6.014   6.552  1.8313  0.9301 -0.0504
   84MOL0     H11075   7.494   5.992   6.349 -3.2409  3.0860  3.0367
   84MOL0     H11076   7.601   5.641   5.967 -0.3415  1.4042  1.0641
   84MOL0     H11077   7.740   5.645   5.753 -0.5011  0.0727 -0.4377
   84MOL0     H11078   8.166   5.758   5.619  0.9724  2.7766  0.7300
   84MOL0     H11079   8.174   5.732   5.798 -0.0420 -0.4637  0.3173
   84MOL0     H11080   8.051   5.967   5.651  0.1335  4.3190  1.1990
   84MOL0     H11081   8.102   5.953   5.820  1.0336 -0.6288  0.1097
   84MOL0     H11082   8.261   6.085   5.672  2.9931  0.3973 -1.8123
   84MOL0     H11083   8.301   5.948   5.592 -2.1541 -2.3014 -0.2378
   84MOL0     H11084   8.377   5.840   5.843  0.2741 -0.3659 -1.2913
   84MOL0     H11085   8.461   5.976   5.769  1.5677 -0.1866  3.0852
   84MOL0     H11086   8.260   6.150   6.093 -0.1062  1.5537 -0.7832
   84MOL0     H11087   8.073   5.785   5.986 -0.0133  1.5632  1.6474
   84MOL0     H11088   7.932   5.833   6.167  1.1531 -1.1652 -1.1839
   85MOL0     O11089  10.915   2.119   2.569 -0.0964  0.3053  0.2595
   85MOL0     C11090  10.883   2.057   2.466 -0.0132 -0.3548  0.0369
   85MOL0     O11091  10.950   2.048   2.344  0.0586 -0.3426 -0.4552
   85MOL0     C11092  11.071   2.123   2.332 -0.1246 -0.5583  0.4036
   85MOL0     C11093  11.199   2.071   2.367 -0.1931 -0.2202 -0.9151
   85MOL0     C11094  11.317   2.151   2.353 -0.3812  0.8489 -0.3694
   85MOL0     C11095  11.307   2.280   2.309 -0.4938 -0.1736  0.1295
   85MOL0     O11096  11.429   2.340   2.301 -0.3854  0.2285 -0.3179
   85MOL0     C11097  11.476   2.411   2.193 -0.2109  0.1432 -0.6142
   85MOL0     C11098  11.617   2.366   2.161 -0.2258 -0.4961 -0.7037
   85MOL0     C11099  11.716   2.384   2.270  0.0376 -0.4675 -0.2588
   85MOL0     C11100  11.851   2.356   2.212 -0.3365  0.3647 -0.6457
   85MOL0     C11101  11.873   2.213   2.154 -0.2199  0.3473  0.7654
   85MOL0     C11102  11.859   2.090   2.241  0.7239 -0.2974 -1.0642
   85MOL0     C11103  11.926   1.963   2.197  0.3187 -0.0903  0.9589
   85MOL0     C11104  11.880   1.925   2.058  0.0048  0.1507 -0.4064
   85MOL0     N11105  11.954   1.807   2.011 -0.1720 -1.0994 -0.7904
   85MOL0     C11106  11.936   1.680   2.053 -0.1994  0.1237  0.2840
   85MOL0     C11107  12.044   1.609   2.001  1.0011  0.8274  0.6708
   85MOL0     C11108  12.079   1.464   2.025 -0.3881 -0.3804 -1.0164
   85MOL0     C11109  12.230   1.427   2.003  0.2628 -0.1171 -0.3242
   85MOL0     C11110  12.282   1.289   2.050  0.6160 -0.5604  0.6220
   85MOL0     C11111  12.437   1.290   2.039  0.2600 -0.1770 -0.0086
   85MOL0     O11112  12.494   1.318   1.907  0.3423  0.7227 -0.5985
   85MOL0     C11113  12.629   1.304   1.904  0.4654 -0.1982  0.7025
   85MOL0     C11114  12.708   1.404   1.961 -1.0861  0.4102 -0.1342
   85MOL0     C11115  12.843   1.402   1.951 -0.8662 -0.8087 -0.6006
   85MOL0     C11116  12.909   1.288   1.906  0.4068 -0.1881  0.1931
   85MOL0     C11117  13.055   1.274   1.882  1.1255  0.1671 -0.6281
   85MOL0     O11118  13.095   1.174   1.802 -0.4583 -0.0599  0.8326
   85MOL0     C11119  13.220   1.123   1.813  0.4982  0.5284 -0.4467
   85MOL0     C11120  13.226   0.982   1.805  0.9164  0.0953  0.6283
   85MOL0     C11121  13.346   0.914   1.799  0.3096 -0.0313 -0.5049
   85MOL0     C11122  13.463   0.987   1.797  0.3175  0.4454  0.2294
   85MOL0     O11123  13.582   0.923   1.785 -0.1505  0.1256 -0.5036
   85MOL0     C11124  13.706   0.989   1.791 -2.1595 -0.4511  0.7162
   85MOL0     C11125  13.752   1.013   1.645 -0.4231  0.2470 -0.8244
   85MOL0     C11126  13.861   1.128   1.631 -0.0377  1.1366  0.8071
   85MOL0     C11127  13.805   1.272   1.637  0.1247 -0.6912 -0.3782
   85MOL0     C11128  13.923   1.378   1.623 -0.4500  0.2744 -0.1749
   85MOL0     C11129  14.002   1.410   1.751  0.1231 -0.5895  0.6131
   85MOL0     C11130  14.090   1.534   1.756 -0.2003  0.1807  0.9996
   85MOL0     C11131  14.194   1.537   1.871 -0.5576 -0.6525  0.9416
   85MOL0    Cl11132  14.126   1.553   2.034  0.0421  0.0285  0.8542
   85MOL0     C11133  13.463   1.127   1.799  0.0837  0.0978  0.5474
   85MOL0     C11134  13.344   1.196   1.812  0.2559 -0.1155  0.0066
   85MOL0     O11135  13.122   1.364   1.934  0.1193  0.4145 -0.3818
   85MOL0     C11136  12.824   1.177   1.881 -0.2475  0.0336 -0.7504
   85MOL0     C11137  12.685   1.188   1.873 -0.2429  1.1033 -0.2603
   85MOL0     N11138  12.110   1.701   1.922 -0.4190  0.0086  0.0600
   85MOL0     N11139  12.056   1.817   1.919  0.0993 -0.3896 -0.2132
   85MOL0     C11140  11.190   2.332   2.269  0.2380 -1.2048  0.5363
   85MOL0     C11141  11.070   2.252   2.274 -0.1227 -0.2640 -0.0868
   85MOL0     C11142  10.749   2.000   2.472  0.5941 -0.9087  0.2374
   85MOL0     C11143  10.671   2.017   2.582  0.1367  0.1267  1.0040
   85MOL0     C11144  10.546   1.959   2.591  0.7464 -0.5323  0.9561
   85MOL0     C11145  10.491   1.876   2.492 -0.1256  0.2656  0.0468
   85MOL0     O11146  10.363   1.821   2.490 -0.9738  0.4264 -0.2241
   85MOL0     C11147  10.254   1.878   2.576 -0.2586  0.1848  0.3441
   85MOL0     C11148  10.119   1.790   2.565  0.4714  0.2269 -0.1997
   85MOL0     C11149  10.022   1.808   2.689  0.0564  0.4324 -0.6284
   85MOL0     C11150   9.911   1.692   2.699  0.2310 -0.2290  0.0811
   85MOL0     C11151   9.977   1.571   2.741  0.4619  0.6696 -0.1019
   85MOL0     C11152  10.020   1.454   2.771 -0.1075 -0.2850  0.1594
   85MOL0     C11153  10.574   1.858   2.383 -1.0855  0.2172 -1.0758
   85MOL0     C11154  10.701   1.916   2.369  0.6528 -0.2064  0.5742
   85MOL0     H11155  11.191   1.972   2.409 -0.5017 -0.0270 -0.5161
   85MOL0     H11156  11.412   2.108   2.382 -1.0203  0.9910  2.2385
   85MOL0     H11157  11.468   2.519   2.209 -0.9111  0.3111 -1.9157
   85MOL0     H11158  11.423   2.379   2.103  0.9246 -0.4716 -1.0965
   85MOL0     H11159  11.645   2.430   2.076  1.3510  0.9426  0.8325
   85MOL0     H11160  11.605   2.266   2.117  1.2985 -0.3839 -1.4316
   85MOL0     H11161  11.696   2.318   2.355  3.3233  0.1555  1.1380
   85MOL0     H11162  11.714   2.487   2.306  3.6170 -1.0459  2.0889
   85MOL0     H11163  11.876   2.426   2.132  2.6946  0.2460  0.0810
   85MOL0     H11164  11.928   2.374   2.287 -1.2810  2.0078 -0.0168
   85MOL0     H11165  11.975   2.219   2.116  0.9367 -1.6785  3.2891
   85MOL0     H11166  11.793   2.207   2.079  1.5036  1.4745 -1.2738
   85MOL0     H11167  11.750   2.084   2.253  0.8848 -2.0167 -0.0053
   85MOL0     H11168  11.890   2.107   2.345 -2.9522  0.9764 -0.0067
   85MOL0     H11169  12.034   1.978   2.189  0.1817  0.0460 -1.5198
   85MOL0     H11170  11.910   1.874   2.260  1.6308 -3.1673 -2.6518
   85MOL0     H11171  11.887   2.002   1.981 -0.5747 -0.0783 -0.6969
   85MOL0     H11172  11.777   1.893   2.076  1.3675 -4.2426  0.6194
   85MOL0     H11173  11.864   1.649   2.128 -0.5137  4.2484  1.9371
   85MOL0     H11174  12.026   1.395   1.960 -3.8041  2.0344 -1.0507
   85MOL0     H11175  12.052   1.454   2.130 -1.0834 -1.1626 -1.2600
   85MOL0     H11176  12.285   1.513   2.044  3.0077 -0.6370 -2.6098
   85MOL0     H11177  12.253   1.430   1.896  1.0563 -1.3176 -0.1976
   85MOL0     H11178  12.265   1.279   2.158  0.0488  3.7287  1.1277
   85MOL0     H11179  12.250   1.200   1.996  1.4499  0.6483 -2.0715
   85MOL0     H11180  12.487   1.201   2.078 -2.2403 -1.6145  0.0402
   85MOL0     H11181  12.473   1.367   2.108 -2.0881  0.2634  0.8069
   85MOL0     H11182  12.660   1.491   2.005  0.1451  1.5328 -0.9196
   85MOL0     H11183  12.913   1.479   1.984  1.2313 -1.8410 -2.4284
   85MOL0     H11184  13.135   0.924   1.790  0.1906  1.5459 -0.7883
   85MOL0     H11185  13.324   0.809   1.788 -2.3558 -0.1881  3.8378
   85MOL0     H11186  13.781   0.930   1.845  0.0146  2.0811  0.6194
   85MOL0     H11187  13.699   1.080   1.852 -1.1926  0.5957 -0.6900
   85MOL0     H11188  13.665   1.045   1.588 -0.1454  0.9201 -0.8817
   85MOL0     H11189  13.782   0.913   1.611 -3.4954  0.2290 -4.0013
   85MOL0     H11190  13.925   1.106   1.544  1.3322 -1.2602  2.3140
   85MOL0     H11191  13.936   1.118   1.710 -0.5431  0.2074  1.1862
   85MOL0     H11192  13.723   1.276   1.564 -1.9613  1.9145  1.9181
   85MOL0     H11193  13.743   1.280   1.726  0.2426 -0.9553 -0.2703
   85MOL0     H11194  13.873   1.468   1.585 -2.8397 -0.2289  1.4967
   85MOL0     H11195  13.991   1.347   1.543 -2.2189  0.5805 -1.8797
   85MOL0     H11196  14.051   1.319   1.788  0.6782 -1.6703 -2.5017
   85MOL0     H11197  13.923   1.423   1.825 -0.0541  0.9459  0.1731
   85MOL0     H11198  14.143   1.539   1.661 -1.3715  0.5729  0.3437
   85MOL0     H11199  14.025   1.622   1.758  1.4685  1.5207 -0.7808
   85MOL0     H11200  14.255   1.622   1.838  0.4298 -1.8005 -0.3311
   85MOL0     H11201  14.257   1.449   1.857  0.8503  0.5992 -1.3488
   85MOL0     H11202  13.552   1.185   1.775 -0.6220  1.1734  0.4750
   85MOL0     H11203  13.341   1.304   1.800  0.3631 -0.1387 -0.2396
   85MOL0     H11204  12.871   1.086   1.848 -1.1505 -0.5109 -0.5769
   85MOL0     H11205  12.613   1.111   1.850  2.3060 -1.2841 -0.8056
   85MOL0     H11206  11.180   2.435   2.236  1.6371 -0.7768  1.3565
   85MOL0     H11207  10.970   2.274   2.238  0.0141 -1.4301 -1.2693
   85MOL0     H11208  10.711   2.085   2.657  2.3497  0.2854 -0.2333
   85MOL0     H11209  10.493   1.966   2.686 -1.2193 -2.6352  0.1154
   85MOL0     H11210  10.234   1.980   2.543 -0.8031  0.6486  1.9714
   85MOL0     H11211  10.278   1.879   2.683 -2.9974 -0.0383  1.0610
   85MOL0     H11212  10.074   1.830   2.474  0.0446  0.3635  0.0675
   85MOL0     H11213  10.131   1.682   2.553 -1.8070 -0.1918  0.8116
   85MOL0     H11214   9.966   1.902   2.691 -0.3404  0.2681 -2.3262
   85MOL0     H11215  10.080   1.796   2.781 -0.7924  1.9227  0.1440
   85MOL0     H11216   9.833   1.720   2.770  0.4103  0.6374 -0.0475
   85MOL0     H11217   9.876   1.675   2.596  2.8439 -0.6527 -0.8091
   85MOL0     H11218  10.059   1.354   2.777  0.2187 -0.1780 -0.1114
   85MOL0     H11219  10.533   1.821   2.290 -0.2780 -0.8500 -1.0266
   85MOL0     H11220  10.749   1.894   2.274  0.8905  0.0244  0.6415
   86MOL0     O11221   4.198  10.693   7.642 -0.0932 -0.4083 -0.1315
   86MOL0     C11222   4.123  10.768   7.705 -1.0240 -0.6719  0.5140
   86MOL0     O11223   4.165  10.857   7.804 -0.5737  0.1333  0.1200
   86MOL0     C11224   4.307  10.865   7.823 -0.1398  0.5907  0.0824
   86MOL0     C11225   4.371  10.989   7.807 -0.4762  0.5733 -0.0380
   86MOL0     C11226   4.515  10.995   7.816  0.4799  0.3403 -0.4219
   86MOL0     C11227   4.593  10.880   7.828 -0.4379  0.9178  0.0614
   86MOL0     O11228   4.725  10.896   7.813  0.4114  0.3995  0.8418
   86MOL0     C11229   4.801  10.781   7.760  0.6045 -0.5727 -0.5045
   86MOL0     C11230   4.920  10.836   7.675 -0.0909  0.6877 -0.3302
   86MOL0     C11231   5.004  10.724   7.614  0.3844  0.0334  0.5007
   86MOL0     C11232   5.086  10.765   7.496 -0.1449  0.0198  0.6837
   86MOL0     C11233   5.190  10.655   7.454  0.2889  0.0878  0.3556
   86MOL0     C11234   5.304  10.639   7.554  0.8055  0.7190 -0.5394
   86MOL0     C11235   5.409  10.539   7.502  0.9667  0.1525  0.2366
   86MOL0     C11236   5.378  10.400   7.544  0.0707 -0.2124  0.4696
   86MOL0     N11237   5.502  10.318   7.534 -0.6110 -0.4414 -0.2941
   86MOL0     C11238   5.582  10.265   7.636 -0.2095  0.5734  0.1160
   86MOL0     C11239   5.700  10.244   7.584  0.7448  1.4996 -0.8318
   86MOL0     C11240   5.831  10.191   7.645  0.9344  0.3623  0.1885
   86MOL0     C11241   5.917  10.300   7.699  0.1452  0.1243 -0.0493
   86MOL0     C11242   5.995  10.367   7.576  0.8276 -0.1176 -0.6660
   86MOL0     C11243   6.084  10.476   7.630  0.3339  0.0644  0.0055
   86MOL0     O11244   6.123  10.572   7.525  0.4358 -0.0258  0.4326
   86MOL0     C11245   6.035  10.672   7.498 -0.2161  0.4671  0.0740
   86MOL0     C11246   5.906  10.689   7.553 -0.3970  0.3711 -0.4884
   86MOL0     C11247   5.823  10.778   7.504  0.3214  0.7463 -0.3337
   86MOL0     C11248   5.861  10.877   7.410  0.0619 -0.8721 -0.1815
   86MOL0     C11249   5.763  10.987   7.366  0.3635 -1.2529 -0.7743
   86MOL0     O11250   5.649  10.995   7.446  0.0436 -0.4062  0.3182
   86MOL0     C11251   5.545  11.079   7.429 -0.7130 -0.6990 -0.1373
   86MOL0     C11252   5.423  11.037   7.485 -0.6381  0.0619  0.5554
   86MOL0     C11253   5.318  11.122   7.480 -0.7696 -0.3452  0.4876
   86MOL0     C11254   5.315  11.243   7.399  0.7603 -0.4063  0.0823
   86MOL0     O11255   5.203  11.321   7.384  0.7033  1.1360  0.7347
   86MOL0     C11256   5.164  11.337   7.248  0.5348 -0.3883 -0.4208
   86MOL0     C11257   5.021  11.399   7.262  0.3391  0.3586 -0.5161
   86MOL0     C11258   4.980  11.482   7.140 -1.3342 -0.8060  0.2347
   86MOL0     C11259   4.963  11.400   7.005  0.2694  0.1100  0.0503
   86MOL0     C11260   4.881  11.467   6.902  0.3130 -0.0705 -0.0410
   86MOL0     C11261   4.966  11.595   6.865  0.0636  0.8642 -0.4340
   86MOL0     C11262   4.898  11.670   6.753 -0.3150 -0.5465  0.7942
   86MOL0     C11263   4.946  11.813   6.737 -0.7019 -0.3260 -0.0653
   86MOL0    Cl11264   4.878  11.900   6.586  0.2725 -0.2847 -0.1471
   86MOL0     C11265   5.438  11.282   7.345  0.9501 -0.4958 -0.1463
   86MOL0     C11266   5.552  11.208   7.364 -0.1511 -0.3096 -0.0758
   86MOL0     O11267   5.799  11.064   7.275 -0.3016  0.5091 -0.2138
   86MOL0     C11268   5.989  10.867   7.364 -1.2022 -0.3622  0.0213
   86MOL0     C11269   6.073  10.768   7.399 -0.0773  0.1314 -0.0144
   86MOL0     N11270   5.699  10.285   7.460  0.3071 -0.6056 -0.7028
   86MOL0     N11271   5.583  10.332   7.430  0.2780 -0.4489 -0.1283
   86MOL0     C11272   4.520  10.755   7.843 -0.6496  0.1820  0.5477
   86MOL0     C11273   4.382  10.749   7.846 -0.1902  0.6914 -0.4989
   86MOL0     C11274   3.977  10.770   7.683 -0.1139 -0.4786 -0.8844
   86MOL0     C11275   3.919  10.695   7.580  0.1265 -0.6434 -0.1703
   86MOL0     C11276   3.779  10.711   7.566  0.2599  0.6969  0.0824
   86MOL0     C11277   3.705  10.797   7.637  0.6439 -0.6656  0.5497
   86MOL0     O11278   3.572  10.821   7.602 -0.4874 -1.3591  0.6725
   86MOL0     C11279   3.482  10.736   7.533  1.1039  0.0457 -0.4318
   86MOL0     C11280   3.436  10.608   7.617  0.1272  1.2923  0.9902
   86MOL0     C11281   3.324  10.530   7.530  0.1257  0.8619 -0.4704
   86MOL0     C11282   3.304  10.374   7.571  0.7114  0.0815 -0.2848
   86MOL0     C11283   3.265  10.372   7.714 -0.3301 -0.1977  0.1892
   86MOL0     C11284   3.230  10.383   7.833 -0.2686  0.4492 -0.0667
   86MOL0     C11285   3.762  10.884   7.733  0.2200 -0.3825  0.4088
   86MOL0     C11286   3.894  10.854   7.770 -0.3016 -0.2462  0.2650
   86MOL0     H11287   4.311  11.079   7.817 -4.8078 -2.2483  3.1789
   86MOL0     H11288   4.567  11.090   7.818  2.3279 -0.6371  0.3922
   86MOL0     H11289   4.733  10.720   7.699 -0.8036 -2.1664  2.4729
   86MOL0     H11290   4.836  10.718   7.842 -0.3940  0.6578  0.9253
   86MOL0     H11291   4.987  10.900   7.733 -0.0799  1.4752 -1.2007
   86MOL0     H11292   4.884  10.899   7.593 -0.9981  0.5863 -0.0194
   86MOL0     H11293   4.933  10.650   7.575  1.6404 -1.2688  0.5982
   86MOL0     H11294   5.059  10.677   7.696 -0.8968 -1.1453  0.7329
   86MOL0     H11295   5.024  10.794   7.412  2.3434  1.7836 -0.6821
   86MOL0     H11296   5.149  10.853   7.510  1.1420 -0.8157  0.4119
   86MOL0     H11297   5.217  10.685   7.353 -0.2385 -0.6069 -0.0025
   86MOL0     H11298   5.149  10.554   7.446 -0.2063  0.4093 -1.6395
   86MOL0     H11299   5.271  10.615   7.655  1.3624  2.0790 -0.0135
   86MOL0     H11300   5.346  10.735   7.584  0.4597  0.0571  2.3310
   86MOL0     H11301   5.417  10.540   7.393  1.9498 -0.7333  0.2880
   86MOL0     H11302   5.503  10.576   7.544 -0.5976  2.8091  1.6865
   86MOL0     H11303   5.297  10.361   7.481 -1.1696  2.0345  0.5896
   86MOL0     H11304   5.343  10.409   7.647  1.7456  2.7562  0.8968
   86MOL0     H11305   5.553  10.240   7.738 -0.3755  0.6387  0.0850
   86MOL0     H11306   5.886  10.127   7.575  1.6742  0.3918  0.7417
   86MOL0     H11307   5.811  10.120   7.725  2.3624 -1.0043 -0.6145
   86MOL0     H11308   5.992  10.268   7.772  0.1917 -1.6656 -0.8343
   86MOL0     H11309   5.848  10.376   7.738  2.3375  2.0170  0.3609
   86MOL0     H11310   6.047  10.289   7.519  5.5907  2.1313  0.1480
   86MOL0     H11311   5.917  10.408   7.511 -1.0075 -2.8385 -0.3545
   86MOL0     H11312   6.174  10.432   7.675 -0.0794 -2.2174 -1.2293
   86MOL0     H11313   6.042  10.513   7.724  1.6132  0.1275  0.5810
   86MOL0     H11314   5.862  10.618   7.623  1.6742  1.5275  2.2005
   86MOL0     H11315   5.716  10.776   7.520 -0.0955 -0.2626 -2.7043
   86MOL0     H11316   5.416  10.939   7.531 -0.9305  0.2485  0.9100
   86MOL0     H11317   5.230  11.084   7.531 -0.4185 -4.2905 -1.4506
   86MOL0     H11318   5.174  11.241   7.196 -0.0448 -0.5171 -0.3070
   86MOL0     H11319   5.229  11.404   7.190 -0.5404 -1.3326 -2.8887
   86MOL0     H11320   5.002  11.458   7.352 -0.1921 -0.5048 -0.0485
   86MOL0     H11321   4.956  11.311   7.265 -1.4834  1.6526  0.2543
   86MOL0     H11322   5.044  11.568   7.121 -2.1542 -0.7136 -2.7386
   86MOL0     H11323   4.885  11.532   7.163  0.6316  3.4305  0.1098
   86MOL0     H11324   5.059  11.372   6.961 -0.4388 -1.5135 -0.5488
   86MOL0     H11325   4.921  11.305   7.039 -3.6729  1.4893 -0.4465
   86MOL0     H11326   4.781  11.495   6.937  0.5162  1.0717 -0.3218
   86MOL0     H11327   4.872  11.405   6.812 -0.6517 -0.7345  0.4990
   86MOL0     H11328   5.060  11.551   6.829 -1.0274 -1.2245 -0.8681
   86MOL0     H11329   4.984  11.662   6.951  4.0056  0.7355 -0.9514
   86MOL0     H11330   4.931  11.622   6.660  2.2502  2.0303  0.2015
   86MOL0     H11331   4.789  11.669   6.754 -0.4030 -0.5882 -1.9370
   86MOL0     H11332   5.055  11.812   6.730 -0.7472 -2.2735 -1.0360
   86MOL0     H11333   4.926  11.871   6.828  3.9245 -0.1822  1.1417
   86MOL0     H11334   5.450  11.373   7.287 -0.3341  0.6509  1.3054
   86MOL0     H11335   5.645  11.235   7.315 -0.2305 -0.0994 -0.1120
   86MOL0     H11336   6.019  10.942   7.292 -1.6563 -0.1561  0.0436
   86MOL0     H11337   6.171  10.763   7.353  0.9074 -1.9057  2.1023
   86MOL0     H11338   4.572  10.661   7.857 -0.4217  0.2857  0.4047
   86MOL0     H11339   4.346  10.648   7.859  2.6929 -0.4162 -0.4457
   86MOL0     H11340   3.978  10.633   7.513  0.8550 -1.3534  1.0759
   86MOL0     H11341   3.737  10.658   7.481  2.3364  0.1049 -0.6357
   86MOL0     H11342   3.513  10.705   7.432  0.8225 -2.5774  0.1944
   86MOL0     H11343   3.391  10.795   7.521  0.7528 -0.2244  0.8243
   86MOL0     H11344   3.522  10.542   7.625  1.1399  1.8724 -2.8130
   86MOL0     H11345   3.394  10.634   7.714 -2.9493 -2.3880  0.8718
   86MOL0     H11346   3.352  10.516   7.425 -2.4063 -1.8033 -0.9015
   86MOL0     H11347   3.237  10.597   7.532  0.0139  0.8053 -1.9048
   86MOL0     H11348   3.222  10.326   7.517  1.7612 -1.4993 -0.5424
   86MOL0     H11349   3.399  10.326   7.548  0.7020  0.0655 -0.2900
   86MOL0     H11350   3.189  10.366   7.931  0.0388  0.2830  0.0360
   86MOL0     H11351   3.694  10.953   7.781  0.6322  0.5556 -0.3080
   86MOL0     H11352   3.946  10.912   7.845  0.9846 -0.2482 -0.5803
   87MOL0     O11353   2.905   5.972   9.566 -0.2283  0.0452  0.5817
   87MOL0     C11354   2.873   6.038   9.669  0.5943  1.0927  0.6286
   87MOL0     O11355   2.747   6.037   9.730 -0.2735 -0.5704  0.2051
   87MOL0     C11356   2.666   5.942   9.670  0.7931  0.2995 -0.3895
   87MOL0     C11357   2.610   5.969   9.547  0.5526 -0.1882  0.1750
   87MOL0     C11358   2.517   5.877   9.493 -0.8507  0.3038 -0.6369
   87MOL0     C11359   2.469   5.769   9.570  0.1372 -0.3101  0.4080
   87MOL0     O11360   2.376   5.692   9.503  0.1598 -0.0108  0.1433
   87MOL0     C11361   2.293   5.611   9.592  0.1349  0.0027 -0.2278
   87MOL0     C11362   2.175   5.558   9.523  0.2865  1.5653 -0.2117
   87MOL0     C11363   2.070   5.511   9.623  0.0289  0.2295  0.3501
   87MOL0     C11364   1.937   5.481   9.549 -0.6603 -0.7117 -0.4782
   87MOL0     C11365   1.823   5.440   9.641 -0.4592 -0.1785 -0.8093
   87MOL0     C11366   1.863   5.328   9.744  0.7220 -0.5038  1.2429
   87MOL0     C11367   1.729   5.261   9.799 -0.0122 -0.5174  0.8189
   87MOL0     C11368   1.774   5.154   9.905 -0.1954 -0.5181  0.2588
   87MOL0     N11369   1.805   5.223  10.029 -0.2196 -0.0323  0.4814
   87MOL0     C11370   1.715   5.281  10.119 -0.6419 -0.0712  0.0252
   87MOL0     C11371   1.805   5.316  10.211 -0.6035  0.5677 -1.1651
   87MOL0     C11372   1.772   5.397  10.335  0.4234  0.0201  0.3241
   87MOL0     C11373   1.719   5.539  10.308 -0.8050  0.2744  0.5991
   87MOL0     C11374   1.708   5.612  10.446 -0.4383 -0.1974 -0.0339
   87MOL0     C11375   1.637   5.741  10.429  0.6269  0.3883 -0.2345
   87MOL0     O11376   1.734   5.838  10.377  0.6165 -0.3497  1.2074
   87MOL0     C11377   1.803   5.919  10.469 -0.5332  0.0481 -0.1875
   87MOL0     C11378   1.739   6.011  10.537  0.1598  0.9336 -0.3874
   87MOL0     C11379   1.814   6.088  10.635  0.6323 -0.1835 -0.7279
   87MOL0     C11380   1.948   6.056  10.674 -0.1757  0.1386  0.9911
   87MOL0     C11381   2.017   6.145  10.769 -0.0248  0.3581  0.5383
   87MOL0     O11382   2.120   6.097  10.836 -0.7851  0.5287 -0.4086
   87MOL0     C11383   2.226   6.179  10.862  0.7177  0.7093 -0.2519
   87MOL0     C11384   2.344   6.122  10.904  1.0477 -0.3107  0.1732
   87MOL0     C11385   2.458   6.195  10.939  0.5660  0.7518 -0.2778
   87MOL0     C11386   2.461   6.330  10.931  0.2569 -0.3436  0.3878
   87MOL0     O11387   2.586   6.382  10.949 -0.4732 -0.3112  0.3413
   87MOL0     C11388   2.595   6.526  10.961 -1.7336 -0.2060  0.3373
   87MOL0     C11389   2.723   6.593  10.951  0.0523 -0.7271 -0.3676
   87MOL0     C11390   2.844   6.511  10.896  0.6668 -0.6051 -1.0766
   87MOL0     C11391   2.837   6.491  10.751  0.3653 -0.2309  0.1957
   87MOL0     C11392   2.906   6.363  10.695  0.6335  0.1583 -0.7057
   87MOL0     C11393   2.808   6.234  10.686 -0.5923 -1.2050 -1.0347
   87MOL0     C11394   2.898   6.122  10.636  0.8088  0.5674  0.9428
   87MOL0     C11395   2.815   5.990  10.626  0.5743 -0.8721  0.4175
   87MOL0    Cl11396   2.907   5.848  10.555 -0.6237  0.0974 -0.1352
   87MOL0     C11397   2.346   6.393  10.883  0.0567 -1.0301 -0.6250
   87MOL0     C11398   2.227   6.328  10.863  0.5342 -1.2472 -0.4160
   87MOL0     O11399   1.961   6.247  10.787 -0.1366 -0.1750  1.0188
   87MOL0     C11400   2.007   5.957  10.597  0.0614 -0.9032 -0.6701
   87MOL0     C11401   1.936   5.893  10.504  1.0169  1.0499  0.6742
   87MOL0     N11402   1.930   5.269  10.192  0.2823 -0.3154  0.3006
   87MOL0     N11403   1.930   5.217  10.080 -0.0593  0.1340  0.0317
   87MOL0     C11404   2.525   5.751   9.694 -0.5333 -0.1049  0.3627
   87MOL0     C11405   2.617   5.833   9.741 -0.7193  0.6478 -1.0723
   87MOL0     C11406   2.972   6.126   9.723  0.1839  0.2268 -1.1401
   87MOL0     C11407   3.106   6.129   9.695  0.7037 -0.2339  0.2949
   87MOL0     C11408   3.189   6.211   9.772  0.2162 -0.3887  0.2844
   87MOL0     C11409   3.144   6.301   9.870  0.5526 -1.1954 -0.0776
   87MOL0     O11410   3.239   6.358   9.950 -0.2706 -0.4876  0.1008
   87MOL0     C11411   3.210   6.447  10.058  0.0628 -0.0233 -0.2501
   87MOL0     C11412   3.183   6.591  10.022  0.1913 -0.7383 -0.1334
   87MOL0     C11413   3.294   6.697  10.029 -0.1273  0.1179  1.3342
   87MOL0     C11414   3.412   6.685   9.928  0.3351  0.4119 -0.0553
   87MOL0     C11415   3.497   6.805   9.923  0.1423 -1.1313  0.0395
   87MOL0     C11416   3.553   6.916   9.912  0.9171 -0.2547  0.1456
   87MOL0     C11417   3.002   6.316   9.889 -0.6991  0.3633  0.4121
   87MOL0     C11418   2.922   6.227   9.817  0.0203 -0.3462 -0.2613
   87MOL0     H11419   2.647   6.047   9.481  0.2184  0.1698  0.4106
   87MOL0     H11420   2.458   5.892   9.403  3.4056 -0.3667 -3.8468
   87MOL0     H11421   2.265   5.681   9.671 -0.0542  1.1768 -1.2888
   87MOL0     H11422   2.356   5.533   9.634 -1.4888 -0.1079  2.2047
   87MOL0     H11423   2.205   5.482   9.450 -0.3892  1.0784  0.0031
   87MOL0     H11424   2.121   5.637   9.470 -4.0943  0.4426  2.1636
   87MOL0     H11425   2.049   5.581   9.704  0.0314  1.0852 -0.3792
   87MOL0     H11426   2.109   5.425   9.679 -1.4148  0.3132  1.5534
   87MOL0     H11427   1.904   5.570   9.495 -1.5092 -1.1936 -0.7599
   87MOL0     H11428   1.958   5.399   9.481 -4.3385 -0.1995 -2.4725
   87MOL0     H11429   1.739   5.403   9.580  0.0850 -2.5095 -0.2632
   87MOL0     H11430   1.787   5.524   9.700 -1.4423 -1.6817  0.8477
   87MOL0     H11431   1.922   5.378   9.821 -1.9406  2.9293  1.2713
   87MOL0     H11432   1.928   5.254   9.696  1.6016  0.9611  0.0810
   87MOL0     H11433   1.654   5.327   9.844 -1.4152 -1.5741  0.0989
   87MOL0     H11434   1.664   5.216   9.724 -0.5599 -2.8614  2.5956
   87MOL0     H11435   1.859   5.099   9.864 -1.0539 -2.2706  0.6922
   87MOL0     H11436   1.695   5.078   9.908  0.3130 -1.1565 -1.3487
   87MOL0     H11437   1.608   5.298  10.123 -0.5017  1.2138 -0.9334
   87MOL0     H11438   1.864   5.411  10.391  1.3468  2.0668 -1.5382
   87MOL0     H11439   1.712   5.337  10.404 -0.9840  0.4196 -0.5007
   87MOL0     H11440   1.618   5.549  10.268 -1.0364  3.2934  1.7047
   87MOL0     H11441   1.782   5.581  10.229 -1.5120  0.4389  0.1235
   87MOL0     H11442   1.638   5.557  10.510  0.5857 -0.2052  1.1288
   87MOL0     H11443   1.810   5.629  10.481  0.0235  1.0356 -1.8549
   87MOL0     H11444   1.595   5.765  10.528 -2.5940 -1.0130 -1.1425
   87MOL0     H11445   1.554   5.736  10.358 -0.4483  5.5004  0.2542
   87MOL0     H11446   1.632   6.003  10.516  0.0826  0.4675  0.1688
   87MOL0     H11447   1.767   6.171  10.687  3.7764  1.1638  0.1803
   87MOL0     H11448   2.338   6.015  10.915 -0.0849 -0.0427  2.6587
   87MOL0     H11449   2.548   6.141  10.967  2.3733  2.3967 -2.4654
   87MOL0     H11450   2.567   6.552  11.063  3.4655 -0.3655  2.0922
   87MOL0     H11451   2.523   6.562  10.886 -3.1299  1.1445  2.2226
   87MOL0     H11452   2.752   6.645  11.043 -0.9556  2.0878 -1.5271
   87MOL0     H11453   2.714   6.670  10.874  0.2611 -1.4269 -1.1061
   87MOL0     H11454   2.828   6.410  10.934  0.1623 -0.7612 -1.6878
   87MOL0     H11455   2.940   6.552  10.929  2.6429 -3.0150 -3.4335
   87MOL0     H11456   2.732   6.495  10.719 -1.6744 -0.9186  5.7641
   87MOL0     H11457   2.878   6.582  10.707  1.6658 -1.0206 -0.2634
   87MOL0     H11458   2.990   6.343  10.761  1.7428  0.3671 -2.0127
   87MOL0     H11459   2.944   6.380  10.594  2.6812  0.8121  0.1245
   87MOL0     H11460   2.719   6.240  10.624 -2.4118 -1.6669  1.3769
   87MOL0     H11461   2.776   6.203  10.786 -0.2047 -2.9509 -1.4183
   87MOL0     H11462   2.927   6.139  10.532 -0.1777  1.2670  0.7671
   87MOL0     H11463   2.986   6.113  10.701  1.4834 -0.9736 -0.1370
   87MOL0     H11464   2.724   6.009  10.568 -0.1898  0.0356  1.8312
   87MOL0     H11465   2.762   5.972  10.720 -1.7372  0.4122 -0.5427
   87MOL0     H11466   2.334   6.499  10.864  0.5613 -1.2046 -2.0966
   87MOL0     H11467   2.137   6.381  10.833  0.6738 -2.8143 -4.1721
   87MOL0     H11468   2.114   5.940  10.593  0.1931 -0.0127 -0.9351
   87MOL0     H11469   1.997   5.823  10.447  0.6078  2.0457 -1.0583
   87MOL0     H11470   2.506   5.656   9.742  3.7196 -1.2093  0.2164
   87MOL0     H11471   2.653   5.821   9.843  0.6637  0.5052 -1.5568
   87MOL0     H11472   3.139   6.062   9.616  0.8741  1.4244 -1.0743
   87MOL0     H11473   3.296   6.214   9.758  0.3395 -0.9870  0.9947
   87MOL0     H11474   3.298   6.443  10.123  0.2503  0.8047 -0.4318
   87MOL0     H11475   3.133   6.402  10.120  1.3108 -0.5302  0.9689
   87MOL0     H11476   3.141   6.600   9.921 -0.5992  0.5773  0.2824
   87MOL0     H11477   3.112   6.627  10.097  0.8904  1.8053 -0.5993
   87MOL0     H11478   3.338   6.697  10.129  0.9515  2.5673  0.9149
   87MOL0     H11479   3.247   6.792  10.003 -0.1524 -0.1390  0.3803
   87MOL0     H11480   3.469   6.593   9.940  1.0460  0.7361 -0.9059
   87MOL0     H11481   3.385   6.681   9.822  0.2531  2.3160 -0.1402
   87MOL0     H11482   3.591   7.013   9.885 -0.4473 -0.3367 -2.4079
   87MOL0     H11483   2.949   6.380   9.960  1.5767  0.6949  1.9155
   87MOL0     H11484   2.818   6.230   9.846  0.0705  1.1725 -0.1794
   88MOL0     O11485   3.511  10.322   8.425  0.2645 -1.2695 -0.2314
   88MOL0     C11486   3.427  10.285   8.341 -0.3570 -0.5545  0.8734
   88MOL0     O11487   3.452  10.284   8.197  0.2100 -0.0336  0.0860
   88MOL0     C11488   3.567  10.351   8.158  0.1046  0.0871  0.1723
   88MOL0     C11489   3.698  10.307   8.192  0.5810  0.7130  0.0066
   88MOL0     C11490   3.811  10.375   8.148 -0.1131  0.1690 -0.8053
   88MOL0     C11491   3.793  10.494   8.069  0.3006  0.6914  0.4383
   88MOL0     O11492   3.899  10.563   8.008  0.4151  0.0827  0.1094
   88MOL0     C11493   4.031  10.559   8.064 -0.2456  0.3742  0.0523
   88MOL0     C11494   4.123  10.447   7.999  0.2111  0.3585  1.0020
   88MOL0     C11495   4.245  10.442   8.078  0.3326  0.3742 -0.0122
   88MOL0     C11496   4.323  10.318   8.024 -0.4856 -0.1909 -1.4431
   88MOL0     C11497   4.451  10.298   8.106 -0.7348 -0.3274  0.1050
   88MOL0     C11498   4.516  10.165   8.057  0.9749 -0.8227  0.0591
   88MOL0     C11499   4.641  10.129   8.152 -0.2195 -0.1475  0.4109
   88MOL0     C11500   4.713  10.011   8.096 -0.4853 -0.3123  0.2199
   88MOL0     N11501   4.851   9.996   8.143  0.6916  0.0965 -0.9225
   88MOL0     C11502   4.889   9.957   8.272  0.3832 -0.3258 -0.5071
   88MOL0     C11503   5.022   9.952   8.264  0.2219  0.3546 -0.4459
   88MOL0     C11504   5.128   9.929   8.380  0.4799 -1.2488 -0.4132
   88MOL0     C11505   5.214   9.802   8.370  1.0893  0.7702 -0.3732
   88MOL0     C11506   5.344   9.839   8.290  0.7139 -0.1577  1.2349
   88MOL0     C11507   5.431   9.709   8.279 -0.4619  0.4024  0.6034
   88MOL0     O11508   5.505   9.662   8.394  0.2921 -0.0410 -0.5415
   88MOL0     C11509   5.632   9.705   8.430  1.0176 -0.2138  0.5985
   88MOL0     C11510   5.671   9.837   8.439  0.4546 -0.7255 -0.0699
   88MOL0     C11511   5.798   9.871   8.476  0.5486  0.2220  0.2615
   88MOL0     C11512   5.888   9.777   8.534 -0.5372  0.2014 -0.5135
   88MOL0     C11513   6.030   9.809   8.577  0.5941 -1.2512  0.9658
   88MOL0     O11514   6.098   9.713   8.623 -0.4311  0.3566  0.1457
   88MOL0     C11515   6.235   9.719   8.637 -0.6506 -0.4905  0.4630
   88MOL0     C11516   6.314   9.838   8.642  1.2108  0.8321  0.4804
   88MOL0     C11517   6.456   9.839   8.653 -0.3662  0.8628  0.2986
   88MOL0     C11518   6.527   9.715   8.662 -0.8028  0.7805  0.3539
   88MOL0     O11519   6.662   9.733   8.659  0.2497  0.6635  0.3411
   88MOL0     C11520   6.731   9.635   8.585 -1.3713 -0.3106  0.1957
   88MOL0     C11521   6.890   9.670   8.622  0.9577 -0.0437  0.1726
   88MOL0     C11522   6.980   9.592   8.520  0.6054 -0.6444 -0.3590
   88MOL0     C11523   7.126   9.625   8.554  1.0814  0.0142 -0.1131
   88MOL0     C11524   7.224   9.559   8.458 -0.5472  0.3375  1.4126
   88MOL0     C11525   7.350   9.645   8.441 -0.3671 -0.0628  0.3356
   88MOL0     C11526   7.469   9.581   8.367 -0.4832  0.1794 -0.3280
   88MOL0     C11527   7.524   9.451   8.436 -0.1578 -0.3410 -0.4874
   88MOL0    Cl11528   7.672   9.398   8.345 -0.4088 -0.0792  0.5024
   88MOL0     C11529   6.458   9.596   8.656 -0.1240  0.3221 -0.4469
   88MOL0     C11530   6.318   9.605   8.638 -0.7624  0.7732  0.8049
   88MOL0     O11531   6.069   9.927   8.538 -0.5344  0.7997  0.1615
   88MOL0     C11532   5.849   9.643   8.528  0.6947 -0.0920 -0.3742
   88MOL0     C11533   5.725   9.608   8.465  0.0946  0.0327  0.0248
   88MOL0     N11534   5.065   9.991   8.134 -0.1197 -0.6350 -0.7498
   88MOL0     N11535   4.959  10.037   8.074  0.3991  0.2008  1.0792
   88MOL0     C11536   3.664  10.542   8.052 -0.2033  0.9622  0.0828
   88MOL0     C11537   3.550  10.465   8.079 -0.6080 -0.4550 -0.2847
   88MOL0     C11538   3.301  10.219   8.388  0.2941  0.2849  0.7416
   88MOL0     C11539   3.207  10.181   8.296 -0.9094 -0.9019 -0.7400
   88MOL0     C11540   3.087  10.124   8.338 -0.5707 -0.5626  0.1220
   88MOL0     C11541   3.074  10.085   8.479 -0.1128 -0.3392  0.4788
   88MOL0     O11542   2.955  10.047   8.529  0.3250 -0.7660 -0.2090
   88MOL0     C11543   2.951   9.902   8.553 -0.6835 -0.3517 -0.2718
   88MOL0     C11544   2.951   9.871   8.706  0.8967 -0.5977 -0.9906
   88MOL0     C11545   2.947   9.725   8.720  0.2875  0.8552  0.5107
   88MOL0     C11546   2.943   9.668   8.867 -0.2919  0.0453 -0.4666
   88MOL0     C11547   3.069   9.690   8.948  0.0959 -0.0524 -0.2484
   88MOL0     C11548   3.170   9.728   9.003  0.6325  0.1747 -0.8821
   88MOL0     C11549   3.180  10.107   8.564  0.3265  0.1973 -0.0340
   88MOL0     C11550   3.289  10.178   8.519  0.5564 -0.0201 -0.4110
   88MOL0     H11551   3.708  10.232   8.269  2.1102  2.2333  1.3865
   88MOL0     H11552   3.906  10.327   8.166 -2.0452 -3.5725  0.6476
   88MOL0     H11553   4.035  10.567   8.173  1.7471  0.7058 -0.0147
   88MOL0     H11554   4.079  10.653   8.036  0.8681  0.0486  0.8051
   88MOL0     H11555   4.140  10.458   7.891  1.2607 -2.8320  0.7261
   88MOL0     H11556   4.069  10.352   8.008  0.5430  0.1818  1.1305
   88MOL0     H11557   4.221  10.425   8.184  2.5504 -1.0656  0.3244
   88MOL0     H11558   4.293  10.540   8.071 -1.7285  1.3258 -2.0003
   88MOL0     H11559   4.259  10.229   8.024 -0.7619  0.0073 -1.3207
   88MOL0     H11560   4.356  10.336   7.921  2.1015 -1.4354 -0.9058
   88MOL0     H11561   4.417  10.294   8.210 -1.6475  2.6752 -0.0051
   88MOL0     H11562   4.523  10.379   8.088 -0.2228 -1.0090 -1.0908
   88MOL0     H11563   4.555  10.196   7.960  2.2658  1.1645  1.1305
   88MOL0     H11564   4.437  10.090   8.056  1.1574 -1.0418 -2.3547
   88MOL0     H11565   4.714  10.210   8.147  3.3811 -3.1904 -2.6850
   88MOL0     H11566   4.606  10.100   8.252  0.2453 -1.4700  0.2188
   88MOL0     H11567   4.723  10.019   7.987 -0.8532 -1.4609  0.0882
   88MOL0     H11568   4.662   9.916   8.111 -1.5654 -0.0323 -1.3775
   88MOL0     H11569   4.828   9.931   8.358  1.1009  2.2394  0.8723
   88MOL0     H11570   5.067   9.923   8.470 -1.3547 -0.4942 -1.5608
   88MOL0     H11571   5.185  10.022   8.390 -1.3056  0.0705 -1.7968
   88MOL0     H11572   5.161   9.726   8.312  0.8899  1.0439 -0.5500
   88MOL0     H11573   5.213   9.763   8.472 -2.2511  0.6128 -0.3575
   88MOL0     H11574   5.318   9.880   8.192 -0.4984 -1.9993  0.7246
   88MOL0     H11575   5.388   9.918   8.350  3.5148  0.8861 -1.8749
   88MOL0     H11576   5.509   9.725   8.203 -0.7243  0.8319  0.4215
   88MOL0     H11577   5.365   9.629   8.247 -1.6225  1.9933 -1.2445
   88MOL0     H11578   5.615   9.927   8.418  0.1224 -0.4674  1.7326
   88MOL0     H11579   5.823   9.975   8.461  1.1652  0.2859  1.5749
   88MOL0     H11580   6.272   9.939   8.643 -1.6238 -0.2466 -0.7834
   88MOL0     H11581   6.516   9.929   8.647  0.9192  0.1081  1.1787
   88MOL0     H11582   6.715   9.642   8.477  0.0524 -2.3680 -0.2051
   88MOL0     H11583   6.703   9.532   8.610 -2.8559  0.0944  0.3278
   88MOL0     H11584   6.908   9.645   8.727  0.7377  1.3687  0.5592
   88MOL0     H11585   6.926   9.771   8.604  0.9472  0.2021  1.4365
   88MOL0     H11586   6.951   9.632   8.422 -1.7473  1.7336  1.1835
   88MOL0     H11587   6.953   9.487   8.508 -0.5666 -0.1240 -3.1938
   88MOL0     H11588   7.145   9.732   8.558 -0.6795  0.3460 -0.0250
   88MOL0     H11589   7.149   9.595   8.657  1.2933  2.7625  0.7170
   88MOL0     H11590   7.193   9.557   8.353  1.6362  0.4242  0.7142
   88MOL0     H11591   7.258   9.459   8.489 -0.7335 -0.7033 -1.4604
   88MOL0     H11592   7.378   9.686   8.538 -0.2714  1.7959 -0.4293
   88MOL0     H11593   7.322   9.727   8.375  0.7251  0.9728  1.1166
   88MOL0     H11594   7.430   9.545   8.271 -2.7623  2.5922 -0.4375
   88MOL0     H11595   7.551   9.652   8.356 -0.4405 -0.2573 -4.3226
   88MOL0     H11596   7.462   9.361   8.440  0.5476 -0.8012  0.5207
   88MOL0     H11597   7.544   9.496   8.533  1.6417 -0.1555 -0.9102
   88MOL0     H11598   6.508   9.500   8.658  2.7361  1.6464  2.9917
   88MOL0     H11599   6.251   9.519   8.636  0.1231  0.0465  1.3809
   88MOL0     H11600   5.920   9.569   8.562 -0.4515 -0.9272  0.2796
   88MOL0     H11601   5.700   9.504   8.452 -2.4936  0.4569  0.9272
   88MOL0     H11602   3.658  10.640   8.006  2.4068  0.8790 -0.6438
   88MOL0     H11603   3.450  10.494   8.046 -0.2212  0.0265 -1.0613
   88MOL0     H11604   3.211  10.199   8.189 -0.1740  1.5116 -0.3691
   88MOL0     H11605   2.994  10.110   8.284  0.5564 -4.1844 -1.1330
   88MOL0     H11606   3.021   9.836   8.501 -2.8322 -2.5991 -0.5598
   88MOL0     H11607   2.850   9.868   8.526 -0.7205 -2.1632  1.8904
   88MOL0     H11608   3.044   9.911   8.747  0.4824 -1.7494  1.2386
   88MOL0     H11609   2.858   9.911   8.748  1.5731 -0.4882  0.4869
   88MOL0     H11610   3.034   9.681   8.671  0.5039  0.2205  1.4384
   88MOL0     H11611   2.862   9.684   8.665  0.5368  1.2857 -0.2005
   88MOL0     H11612   2.857   9.702   8.924 -2.2999 -2.4086 -1.8213
   88MOL0     H11613   2.929   9.561   8.854 -0.7109 -0.6102  3.8054
   88MOL0     H11614   3.259   9.758   9.056  0.6028  0.3054 -0.9070
   88MOL0     H11615   3.162  10.083   8.668 -5.5292  0.9628 -0.5467
   88MOL0     H11616   3.368  10.189   8.592  2.4658  1.1650 -2.5121
   89MOL0     O11617   7.505   2.925   0.250 -0.5994  0.2441 -0.2350
   89MOL0     C11618   7.398   2.928   0.189  0.5213 -0.0511  0.0915
   89MOL0     O11619   7.380   2.944   0.051 -0.0199 -0.0386 -0.2759
   89MOL0     C11620   7.494   2.989  -0.017 -0.5348 -0.7933  0.6099
   89MOL0     C11621   7.597   2.902  -0.040 -1.0748 -0.1351 -0.4406
   89MOL0     C11622   7.716   2.949  -0.105 -0.5574  0.1943  0.4682
   89MOL0     C11623   7.737   3.090  -0.122  0.4725 -0.3744  0.1494
   89MOL0     O11624   7.843   3.145  -0.184 -0.8155  0.2515 -0.3935
   89MOL0     C11625   7.967   3.068  -0.175 -0.0493  0.2557  0.4949
   89MOL0     C11626   8.094   3.114  -0.239  0.1348  0.4056  0.7481
   89MOL0     C11627   8.080   3.116  -0.383  0.7883 -0.7326  0.1186
   89MOL0     C11628   8.210   3.174  -0.452 -0.8318  0.8666 -0.9582
   89MOL0     C11629   8.320   3.077  -0.488  0.8940  0.7081 -1.0680
   89MOL0     C11630   8.448   3.151  -0.518 -0.0356  0.0240  0.3980
   89MOL0     C11631   8.565   3.049  -0.549 -0.0681 -0.4150 -0.5358
   89MOL0     C11632   8.697   3.132  -0.561  0.2654  0.0548  0.9841
   89MOL0     N11633   8.818   3.051  -0.567 -1.1670 -0.6231 -0.3050
   89MOL0     C11634   8.923   3.069  -0.657  0.2598 -0.0923 -0.0953
   89MOL0     C11635   9.029   2.992  -0.615  0.6148 -0.3970 -0.1595
   89MOL0     C11636   9.164   3.005  -0.672  0.1609  0.0811  1.0331
   89MOL0     C11637   9.160   2.964  -0.818  0.9814  0.2282  1.1226
   89MOL0     C11638   9.259   3.033  -0.909  0.0480  0.3746 -0.7620
   89MOL0     C11639   9.404   3.022  -0.864 -0.0292 -0.0502  0.3212
   89MOL0     O11640   9.439   2.884  -0.853  0.3194 -0.0815  0.9500
   89MOL0     C11641   9.551   2.841  -0.926 -0.4363 -0.1513 -0.0346
   89MOL0     C11642   9.668   2.918  -0.951  0.4420  0.1067 -0.1980
   89MOL0     C11643   9.778   2.876  -1.010 -0.2514  0.0965 -0.1472
   89MOL0     C11644   9.790   2.741  -1.033  0.4997  0.0451  1.3954
   89MOL0     C11645   9.915   2.692  -1.092  0.9685 -0.0562 -0.0388
   89MOL0     O11646  10.012   2.776  -1.122  0.3565  1.4123 -0.4053
   89MOL0     C11647  10.125   2.724  -1.176 -0.3354 -0.7465 -0.3063
   89MOL0     C11648  10.214   2.645  -1.106  0.9472 -0.2636  0.2965
   89MOL0     C11649  10.335   2.611  -1.171 -0.0448  0.3401 -0.0885
   89MOL0     C11650  10.375   2.650  -1.301 -0.9053 -0.8473 -1.0901
   89MOL0     O11651  10.487   2.589  -1.343 -0.5318 -0.0198  1.0169
   89MOL0     C11652  10.520   2.609  -1.484  0.7562 -0.0380 -0.2204
   89MOL0     C11653  10.628   2.507  -1.529 -0.2376 -0.8447 -0.3162
   89MOL0     C11654  10.667   2.511  -1.678 -0.2812 -0.3182  0.0207
   89MOL0     C11655  10.755   2.387  -1.714  0.0857 -0.7109  0.1045
   89MOL0     C11656  10.821   2.384  -1.847  0.0444  0.9742 -0.3937
   89MOL0     C11657  10.797   2.257  -1.934 -0.0290 -0.2973  0.2385
   89MOL0     C11658  10.912   2.235  -2.043  0.5307  0.2002 -0.4883
   89MOL0     C11659  10.860   2.162  -2.169  0.7631 -0.3444 -0.6580
   89MOL0    Cl11660  10.777   2.269  -2.287 -0.1772 -0.2422  0.1743
   89MOL0     C11661  10.295   2.742  -1.365  0.1100 -0.1044 -0.9128
   89MOL0     C11662  10.171   2.777  -1.305 -0.1326 -0.3976 -0.6990
   89MOL0     O11663   9.923   2.569  -1.083  0.5250 -0.1281 -0.5994
   89MOL0     C11664   9.678   2.657  -1.020 -0.5139  0.8218 -0.1014
   89MOL0     C11665   9.555   2.705  -0.969 -0.4328  0.3737  1.0611
   89MOL0     N11666   8.992   2.930  -0.492 -0.3302  0.7085  0.3159
   89MOL0     N11667   8.869   2.967  -0.464  0.1273  1.2181  0.1927
   89MOL0     C11668   7.634   3.175  -0.096  0.0291  0.0424 -0.1901
   89MOL0     C11669   7.515   3.124  -0.044 -0.2654 -0.2512 -0.7040
   89MOL0     C11670   7.277   2.940   0.274  0.2356  0.3239  0.3351
   89MOL0     C11671   7.151   2.935   0.207  0.1146  0.6073  0.1688
   89MOL0     C11672   7.034   2.947   0.271 -0.1450 -0.5817  0.3526
   89MOL0     C11673   7.034   2.950   0.411  1.3942 -0.2289  0.8287
   89MOL0     O11674   6.907   2.954   0.466  0.4485 -0.3063  0.8265
   89MOL0     C11675   6.901   3.005   0.595 -0.2742  0.3663 -0.1442
   89MOL0     C11676   6.763   3.000   0.663 -0.3887 -0.5608 -0.5226
   89MOL0     C11677   6.653   3.057   0.573  0.3641 -0.9167 -0.8747
   89MOL0     C11678   6.522   3.033   0.633 -0.3287 -0.1885  0.6501
   89MOL0     C11679   6.430   3.122   0.568  0.4894  0.5469 -0.7878
   89MOL0     C11680   6.347   3.185   0.516  0.9129  0.2048 -0.1027
   89MOL0     C11681   7.151   2.939   0.481 -0.0170  0.4626  0.4914
   89MOL0     C11682   7.279   2.946   0.416  0.3319 -1.1347  0.6122
   89MOL0     H11683   7.582   2.798  -0.016 -2.1290  0.0778 -0.1279
   89MOL0     H11684   7.783   2.872  -0.141  0.0397  0.3418  1.2345
   89MOL0     H11685   7.953   2.968  -0.217 -3.0572  0.5603  0.5273
   89MOL0     H11686   7.974   3.058  -0.067  1.3536  2.8431  0.7088
   89MOL0     H11687   8.169   3.042  -0.207  1.4780  1.7588  0.7240
   89MOL0     H11688   8.113   3.212  -0.196  1.0246  0.5841 -0.0376
   89MOL0     H11689   7.990   3.170  -0.413  0.4985  0.0010  2.1407
   89MOL0     H11690   8.072   3.015  -0.425  2.2106 -0.9475  0.3078
   89MOL0     H11691   8.178   3.226  -0.543 -1.0070  0.3577 -1.1896
   89MOL0     H11692   8.257   3.248  -0.387  0.0842  0.5659 -1.2706
   89MOL0     H11693   8.277   3.026  -0.574  0.0899 -2.8409  1.2354
   89MOL0     H11694   8.332   3.011  -0.401  0.9040  3.6030  1.3061
   89MOL0     H11695   8.464   3.204  -0.423  1.7000  1.2654 -0.5267
   89MOL0     H11696   8.431   3.225  -0.597 -1.7976 -0.9648 -0.1966
   89MOL0     H11697   8.588   2.962  -0.486  3.8621  1.6429  1.2930
   89MOL0     H11698   8.534   3.013  -0.647 -0.2668  0.6138 -0.8633
   89MOL0     H11699   8.709   3.201  -0.477 -1.4553  1.7979 -0.1073
   89MOL0     H11700   8.694   3.197  -0.648 -0.4556  0.9131  1.6305
   89MOL0     H11701   8.918   3.143  -0.736  0.6725  0.3348  0.2769
   89MOL0     H11702   9.250   2.952  -0.631  0.5397  1.3457  1.9158
   89MOL0     H11703   9.181   3.113  -0.673  1.0186 -0.0497  0.8144
   89MOL0     H11704   9.064   2.981  -0.865 -0.6941 -5.5112  1.6939
   89MOL0     H11705   9.185   2.860  -0.841 -2.5519  0.1155 -3.5184
   89MOL0     H11706   9.223   2.992  -1.004 -3.0163 -0.8655  0.8240
   89MOL0     H11707   9.237   3.140  -0.915  2.9227  1.0075 -1.8739
   89MOL0     H11708   9.405   3.050  -0.758  0.4932 -1.1334  0.6260
   89MOL0     H11709   9.454   3.095  -0.927  1.8078 -2.1836 -0.8654
   89MOL0     H11710   9.664   3.020  -0.915  0.2368 -1.1649  3.8748
   89MOL0     H11711   9.853   2.943  -1.049 -0.2394 -0.1463 -0.5411
   89MOL0     H11712  10.196   2.615  -1.003  0.9270 -2.9368 -0.4050
   89MOL0     H11713  10.411   2.555  -1.118  0.2748 -0.3450 -1.2402
   89MOL0     H11714  10.555   2.710  -1.503  2.1589 -0.0925  1.7647
   89MOL0     H11715  10.429   2.589  -1.541  0.6168  1.8393 -0.7139
   89MOL0     H11716  10.596   2.404  -1.510  0.1469 -0.5447  2.2497
   89MOL0     H11717  10.714   2.518  -1.461 -1.9433  0.8270  1.7033
   89MOL0     H11718  10.721   2.605  -1.697  0.4966 -0.8478 -0.4352
   89MOL0     H11719  10.577   2.536  -1.734 -0.3291  0.8910  0.5987
   89MOL0     H11720  10.837   2.378  -1.643 -0.4113 -1.2272  0.6368
   89MOL0     H11721  10.682   2.306  -1.702  0.2147 -0.9686 -0.7821
   89MOL0     H11722  10.928   2.403  -1.834  1.2368 -3.7344 -1.2385
   89MOL0     H11723  10.788   2.462  -1.917 -0.0406 -0.4221 -1.9868
   89MOL0     H11724  10.698   2.277  -1.976 -0.9148  1.7576  2.9622
   89MOL0     H11725  10.797   2.169  -1.870 -0.2002  1.0129  2.1176
   89MOL0     H11726  10.960   2.331  -2.067 -0.1358  0.8399  0.6291
   89MOL0     H11727  10.988   2.182  -1.986 -1.2514 -0.6398  1.2480
   89MOL0     H11728  10.774   2.098  -2.148 -1.1216  2.6707  1.8141
   89MOL0     H11729  10.950   2.113  -2.206  1.7273  0.2921  0.7378
   89MOL0     H11730  10.320   2.777  -1.465 -0.0774 -1.8975 -1.6263
   89MOL0     H11731  10.100   2.843  -1.354 -1.5860 -2.4690 -1.5302
   89MOL0     H11732   9.683   2.549  -1.031 -0.4631  0.7656  0.4449
   89MOL0     H11733   9.469   2.638  -0.962 -0.7744  0.3906 -1.8460
   89MOL0     H11734   7.646   3.278  -0.125  1.5343  0.0584  0.3858
   89MOL0     H11735   7.431   3.189  -0.020  0.6568  0.4394  0.7426
   89MOL0     H11736   7.134   2.916   0.102  1.7804 -2.5670  0.3325
   89MOL0     H11737   6.946   2.957   0.209  0.1732  0.2700  0.0217
   89MOL0     H11738   6.927   3.111   0.582 -0.4948  0.4609  0.1553
   89MOL0     H11739   6.967   2.956   0.668  0.6939  0.6578 -0.8120
   89MOL0     H11740   6.738   2.895   0.684 -2.4023 -0.1491 -0.7481
   89MOL0     H11741   6.770   3.048   0.761  1.9965  0.8930 -1.2957
   89MOL0     H11742   6.656   3.016   0.472 -0.2974 -2.2201 -0.4046
   89MOL0     H11743   6.683   3.161   0.560  1.6601 -1.4886 -2.7447
   89MOL0     H11744   6.490   2.930   0.615 -1.7610 -0.6148  4.7090
   89MOL0     H11745   6.538   3.056   0.739  1.1398 -1.2984  0.7186
   89MOL0     H11746   6.267   3.241   0.472 -0.0528 -2.2893 -1.7458
   89MOL0     H11747   7.149   2.929   0.589 -4.6262  3.3828  0.9424
   89MOL0     H11748   7.369   2.966   0.473  1.1457  1.1585 -1.3280
   90MOL0     O11749   1.927   8.004   8.380 -0.2735  0.1837  0.3266
   90MOL0     C11750   2.033   8.046   8.414  0.2453  0.0884  0.5467
   90MOL0     O11751   2.103   8.131   8.348 -0.0696  0.1036  0.0982
   90MOL0     C11752   2.061   8.164   8.218  0.4367  0.7631 -0.3566
   90MOL0     C11753   2.084   8.083   8.103  0.0506  0.2215  0.6566
   90MOL0     C11754   2.038   8.133   7.981  0.5191 -0.0688  0.3799
   90MOL0     C11755   1.982   8.263   7.969  0.4034 -0.2608 -0.0749
   90MOL0     O11756   1.929   8.321   7.858 -0.4061 -0.1447  0.4972
   90MOL0     C11757   1.854   8.233   7.771  0.6099  0.6712 -0.6695
   90MOL0     C11758   1.769   8.326   7.671 -0.2726  0.6710  0.0509
   90MOL0     C11759   1.681   8.241   7.579 -0.4906 -0.0364  0.0485
   90MOL0     C11760   1.622   8.328   7.468 -0.2519  0.6215  0.0607
   90MOL0     C11761   1.566   8.239   7.357 -0.7635  0.1901 -0.2544
   90MOL0     C11762   1.456   8.140   7.403  0.7622  0.0647  0.4632
   90MOL0     C11763   1.338   8.192   7.506 -0.4347 -0.2013 -0.7518
   90MOL0     C11764   1.230   8.090   7.529  0.1943  0.3919 -0.3500
   90MOL0     N11765   1.105   8.163   7.549 -0.1904 -0.1260 -0.8809
   90MOL0     C11766   1.067   8.243   7.654 -0.5306  0.1201  0.5975
   90MOL0     C11767   0.949   8.295   7.612  0.2607 -0.4690 -0.6662
   90MOL0     C11768   0.872   8.395   7.697  1.1828  0.0055 -0.2430
   90MOL0     C11769   0.779   8.316   7.787  0.2264  0.5133  1.1542
   90MOL0     C11770   0.685   8.398   7.868 -0.2427  0.7094 -0.8009
   90MOL0     C11771   0.586   8.498   7.798  0.4226 -0.1459 -0.9177
   90MOL0     O11772   0.492   8.555   7.892 -0.0643  0.7318  1.0357
   90MOL0     C11773   0.511   8.684   7.920 -0.6067 -0.4987 -0.5391
   90MOL0     C11774   0.399   8.769   7.899  0.0418 -1.0291 -0.4933
   90MOL0     C11775   0.414   8.905   7.925  0.2573  0.2454  0.3832
   90MOL0     C11776   0.542   8.961   7.961  0.4566  0.1114  0.3042
   90MOL0     C11777   0.540   9.111   7.969 -0.5623  0.0065 -0.1840
   90MOL0     O11778   0.662   9.156   7.929  0.0968  1.2908 -0.4005
   90MOL0     C11779   0.693   9.292   7.922 -0.0350  1.0646  0.2934
   90MOL0     C11780   0.600   9.391   7.900 -0.1670  1.0223  0.4378
   90MOL0     C11781   0.640   9.521   7.872  0.2549 -0.0155  0.5539
   90MOL0     C11782   0.771   9.552   7.873 -0.1826  0.3434 -0.8563
   90MOL0     O11783   0.828   9.676   7.853 -0.7175  0.3042  0.6615
   90MOL0     C11784   0.758   9.789   7.835  0.2132 -0.3682 -0.1203
   90MOL0     C11785   0.847   9.910   7.861 -0.1680  0.7701  0.1763
   90MOL0     C11786   0.791  10.047   7.820 -0.5383  0.0222  1.0723
   90MOL0     C11787   0.872  10.163   7.852  0.6981 -0.1154 -0.3093
   90MOL0     C11788   0.827  10.302   7.806 -0.5108  0.3361 -0.2297
   90MOL0     C11789   0.946  10.393   7.787  0.3811 -0.4798  1.2584
   90MOL0     C11790   1.042  10.399   7.898 -0.0475  0.2540  0.3257
   90MOL0     C11791   1.108  10.535   7.915 -0.3272  0.7529  0.7001
   90MOL0    Cl11792   0.980  10.649   7.960  0.6134 -0.3979 -0.2128
   90MOL0     C11793   0.866   9.460   7.905 -0.8394 -0.8388 -0.6668
   90MOL0     C11794   0.824   9.332   7.925 -0.4602 -0.2635 -0.4794
   90MOL0     O11795   0.452   9.178   8.027 -0.0584  0.7023 -0.7254
   90MOL0     C11796   0.654   8.873   7.982  0.0270 -0.0363  0.1516
   90MOL0     C11797   0.631   8.736   7.962 -0.5151 -0.0704  0.2799
   90MOL0     N11798   0.917   8.234   7.491  0.4184  0.3807 -0.1721
   90MOL0     N11799   1.010   8.166   7.454 -0.3553  0.4780 -0.2858
   90MOL0     C11800   1.971   8.348   8.083  0.0451  0.4945 -0.0378
   90MOL0     C11801   2.015   8.290   8.204 -0.5594 -0.3964  0.4068
   90MOL0     C11802   2.080   8.002   8.546 -0.8483  0.4565  0.2890
   90MOL0     C11803   2.021   7.888   8.613  0.6833 -0.4150  0.2978
   90MOL0     C11804   2.081   7.828   8.729  0.0730  0.4189 -1.1363
   90MOL0     C11805   2.207   7.865   8.772 -1.1960 -1.0401 -0.0309
   90MOL0     O11806   2.270   7.799   8.878  0.4896 -0.0105  0.1818
   90MOL0     C11807   2.363   7.702   8.832  0.1625 -0.5319  0.2683
   90MOL0     C11808   2.381   7.571   8.914 -0.7483 -0.4128  1.0280
   90MOL0     C11809   2.501   7.502   8.864 -0.0554  0.0363 -0.5733
   90MOL0     C11810   2.466   7.421   8.744  0.7791  0.9280  0.4810
   90MOL0     C11811   2.579   7.389   8.652 -0.3033  0.9744  1.1263
   90MOL0     C11812   2.677   7.384   8.585  0.1054  1.0395  0.5898
   90MOL0     C11813   2.259   7.979   8.712 -0.1054 -0.4399  0.2019
   90MOL0     C11814   2.196   8.049   8.602 -0.5454  0.0590  0.5936
   90MOL0     H11815   2.116   7.980   8.113  0.1952  0.2909  0.9353
   90MOL0     H11816   2.045   8.062   7.898 -1.3818 -0.4746  0.5205
   90MOL0     H11817   1.778   8.176   7.826  1.7341 -2.9235 -2.5080
   90MOL0     H11818   1.915   8.161   7.716 -0.2887 -0.3260 -0.4035
   90MOL0     H11819   1.833   8.401   7.623  0.4099 -1.1246 -2.0016
   90MOL0     H11820   1.705   8.386   7.736 -0.3131 -0.0359  0.6689
   90MOL0     H11821   1.600   8.192   7.633 -0.3240 -0.2645  0.0949
   90MOL0     H11822   1.748   8.162   7.543  0.0635 -0.7332  2.4456
   90MOL0     H11823   1.544   8.395   7.506 -2.4330 -3.1849  2.9644
   90MOL0     H11824   1.697   8.398   7.428 -0.5526  2.1150  1.9653
   90MOL0     H11825   1.649   8.178   7.321 -2.2484 -0.8364 -2.1035
   90MOL0     H11826   1.537   8.304   7.274 -0.9162  0.1047 -0.2678
   90MOL0     H11827   1.487   8.050   7.456 -1.6839  0.5291  2.9442
   90MOL0     H11828   1.412   8.107   7.309 -1.7566 -0.7392  1.8225
   90MOL0     H11829   1.386   8.222   7.600  0.4223 -2.5180 -0.3897
   90MOL0     H11830   1.303   8.286   7.461  0.4642  0.9504  0.8356
   90MOL0     H11831   1.244   8.023   7.615 -4.1464 -1.1717 -0.5994
   90MOL0     H11832   1.219   8.032   7.437 -1.1725 -0.6870  0.4566
   90MOL0     H11833   1.123   8.267   7.744  0.4918  2.0469 -0.4748
   90MOL0     H11834   0.827   8.478   7.643 -0.0449  1.2558  2.4892
   90MOL0     H11835   0.949   8.437   7.763  0.5733 -0.7553  0.9941
   90MOL0     H11836   0.852   8.255   7.842  0.5968 -1.9759 -1.8251
   90MOL0     H11837   0.704   8.258   7.731 -2.5776  2.6027  2.4960
   90MOL0     H11838   0.616   8.329   7.918  0.7393 -0.3611 -0.8825
   90MOL0     H11839   0.755   8.445   7.937  0.2837  0.7520 -1.3522
   90MOL0     H11840   0.529   8.458   7.714 -0.7396 -0.6445  0.0703
   90MOL0     H11841   0.648   8.576   7.754 -1.6768  2.8423  1.0280
   90MOL0     H11842   0.302   8.730   7.871 -0.1723 -1.0115  0.2041
   90MOL0     H11843   0.321   8.961   7.929 -1.2660 -2.1524  0.7381
   90MOL0     H11844   0.495   9.377   7.874  0.1501  1.6449 -1.3029
   90MOL0     H11845   0.565   9.596   7.846 -0.1644  0.0431  1.8554
   90MOL0     H11846   0.668   9.791   7.898  0.6260  1.9987  0.5152
   90MOL0     H11847   0.718   9.805   7.735 -0.6938 -2.5712 -0.1592
   90MOL0     H11848   0.932   9.883   7.797  0.8511 -0.2402  1.8798
   90MOL0     H11849   0.871   9.909   7.968 -5.8229  3.8579  1.9016
   90MOL0     H11850   0.695  10.057   7.873 -1.3776  1.3951 -0.5994
   90MOL0     H11851   0.770  10.054   7.713 -1.1677  0.2265  1.1995
   90MOL0     H11852   0.876  10.166   7.961  4.5277 -3.5412 -0.0687
   90MOL0     H11853   0.973  10.146   7.811  1.0399  2.4008 -0.6434
   90MOL0     H11854   0.751  10.339   7.875 -3.5897  2.6685 -4.3996
   90MOL0     H11855   0.787  10.293   7.705  1.3162 -2.6667 -0.8106
   90MOL0     H11856   0.903  10.489   7.758 -4.9049 -3.0644 -1.0482
   90MOL0     H11857   0.996  10.357   7.697  1.0085  1.1146  0.9491
   90MOL0     H11858   0.988  10.368   7.988 -0.1825 -2.3529 -0.5657
   90MOL0     H11859   1.123  10.330   7.875  1.2367  1.6061  0.6489
   90MOL0     H11860   1.142  10.567   7.816 -1.4777  2.1475  0.7296
   90MOL0     H11861   1.195  10.525   7.980  1.7334 -0.9315 -2.1130
   90MOL0     H11862   0.972   9.484   7.908 -1.3345  1.5177  1.9816
   90MOL0     H11863   0.901   9.256   7.937  1.6287  1.8056 -0.2718
   90MOL0     H11864   0.749   8.910   8.019 -0.0779 -2.5829  3.4294
   90MOL0     H11865   0.715   8.669   7.979 -0.4278  0.1040  0.5301
   90MOL0     H11866   1.924   8.446   8.087  2.4284  1.6666  3.0942
   90MOL0     H11867   2.004   8.341   8.299 -0.4234 -0.2424  0.3398
   90MOL0     H11868   1.920   7.864   8.584 -0.2398  4.2298 -1.1489
   90MOL0     H11869   2.026   7.745   8.772  0.9772  0.2159 -0.3599
   90MOL0     H11870   2.459   7.753   8.818 -0.5202  0.4327 -1.0947
   90MOL0     H11871   2.331   7.676   8.731 -0.5801  3.0927 -0.5738
   90MOL0     H11872   2.387   7.585   9.022 -1.6858 -1.4121  1.2369
   90MOL0     H11873   2.292   7.508   8.923 -2.2983  1.4601 -0.3123
   90MOL0     H11874   2.523   7.429   8.942 -1.1317 -0.9385 -1.1413
   90MOL0     H11875   2.591   7.561   8.842  0.8422 -0.4866  1.4320
   90MOL0     H11876   2.423   7.326   8.776  3.5221 -0.9406 -0.9749
   90MOL0     H11877   2.397   7.467   8.673  1.0759  0.0187 -0.4214
   90MOL0     H11878   2.766   7.357   8.531  2.0195  2.5912  2.7479
   90MOL0     H11879   2.353   8.018   8.749  1.3643 -3.5957  0.0834
   90MOL0     H11880   2.251   8.128   8.553  0.5968 -1.0606 -0.0020
   91MOL0     O11881   2.837   5.739   5.240 -0.3685  0.2314 -0.4958
   91MOL0     C11882   2.838   5.860   5.252 -0.4550 -0.0875  0.0673
   91MOL0     O11883   2.853   5.947   5.148 -0.1341 -0.6474 -0.0536
   91MOL0     C11884   2.849   5.897   5.025  0.1614  0.5223  0.6345
   91MOL0     C11885   2.952   5.931   4.930  0.0066  0.0895 -0.3256
   91MOL0     C11886   2.957   5.877   4.801 -0.5979 -0.6347  0.2651
   91MOL0     C11887   2.865   5.776   4.763 -0.7654  0.7381  0.2144
   91MOL0     O11888   2.892   5.724   4.638 -0.5160  0.4838 -0.1243
   91MOL0     C11889   2.815   5.616   4.586 -0.7977  0.2509 -0.0834
   91MOL0     C11890   2.878   5.585   4.447 -0.1440  0.8787  0.0980
   91MOL0     C11891   3.014   5.522   4.454 -0.5687  0.1691 -0.0764
   91MOL0     C11892   2.999   5.370   4.493 -0.1883  0.7493 -0.0175
   91MOL0     C11893   3.133   5.300   4.466 -0.2507 -0.6945  0.3552
   91MOL0     C11894   3.137   5.149   4.474 -0.3463  0.2486  0.6063
   91MOL0     C11895   3.276   5.090   4.451 -0.2236 -0.5409 -0.3088
   91MOL0     C11896   3.369   5.121   4.562 -0.0623  1.0500  0.3613
   91MOL0     N11897   3.506   5.070   4.539  0.1946  0.1367 -0.7128
   91MOL0     C11898   3.610   5.120   4.476 -0.8973  0.1869  0.3560
   91MOL0     C11899   3.707   5.032   4.478 -1.0928  0.4804  0.6886
   91MOL0     C11900   3.839   5.042   4.403 -0.4375 -0.1651  1.0729
   91MOL0     C11901   3.900   5.181   4.405 -0.1089  0.5078  0.5980
   91MOL0     C11902   3.925   5.245   4.546  0.1334 -0.8339  0.3481
   91MOL0     C11903   4.018   5.158   4.638 -0.5598 -0.2556  0.9077
   91MOL0     O11904   4.129   5.113   4.557  0.3084  0.7864 -0.1213
   91MOL0     C11905   4.251   5.110   4.622 -0.2231  0.0404 -0.6632
   91MOL0     C11906   4.358   5.121   4.540 -0.8319  0.5557 -0.0044
   91MOL0     C11907   4.486   5.118   4.610  0.1889  0.7866  0.2031
   91MOL0     C11908   4.502   5.077   4.748 -0.6051  0.3647  0.5136
   91MOL0     C11909   4.639   5.061   4.799 -0.2805  1.1600  0.2062
   91MOL0     O11910   4.753   5.065   4.715  0.2324  1.3080 -0.7132
   91MOL0     C11911   4.874   5.027   4.775 -0.0815 -0.5072  0.0245
   91MOL0     C11912   4.973   5.123   4.758 -0.1655 -0.7763  0.1508
   91MOL0     C11913   5.109   5.095   4.788 -1.0548  0.1877  0.4891
   91MOL0     C11914   5.146   4.964   4.829  0.8893  0.1686  0.7074
   91MOL0     O11915   5.283   4.933   4.858  0.5993 -0.1626  0.3493
   91MOL0     C11916   5.317   4.811   4.928 -0.2298  0.2891  0.8738
   91MOL0     C11917   5.457   4.822   4.998  0.7624 -0.8218  0.2280
   91MOL0     C11918   5.573   4.844   4.895  0.6962  0.0737  0.1974
   91MOL0     C11919   5.707   4.893   4.960 -0.9434  0.1049 -0.0818
   91MOL0     C11920   5.786   4.774   5.040  0.2256  0.5010 -0.6093
   91MOL0     C11921   5.938   4.797   5.082  0.2926  0.2580 -0.6389
   91MOL0     C11922   6.046   4.824   4.978  0.2535  0.9328  0.6360
   91MOL0     C11923   6.190   4.848   5.029 -0.6298  0.6262 -0.3033
   91MOL0    Cl11924   6.300   4.924   4.903 -0.2478  0.2529 -0.4185
   91MOL0     C11925   5.039   4.870   4.858 -0.8825 -0.0621 -0.4373
   91MOL0     C11926   4.907   4.892   4.818 -0.3842  0.1974 -0.0924
   91MOL0     O11927   4.644   5.030   4.920  1.1147  0.5838  0.6087
   91MOL0     C11928   4.384   5.062   4.825 -0.4485 -0.0339  0.4097
   91MOL0     C11929   4.266   5.083   4.755  0.4365  0.6943 -0.6260
   91MOL0     N11930   3.656   4.915   4.543 -0.3279  0.1076 -0.4541
   91MOL0     N11931   3.531   4.940   4.575  0.4371  0.1544 -0.7775
   91MOL0     C11932   2.763   5.750   4.848 -0.5662 -0.0086  0.5561
   91MOL0     C11933   2.761   5.801   4.977  0.1577  0.5013  0.6459
   91MOL0     C11934   2.820   5.913   5.381 -0.1846  0.8002 -1.0148
   91MOL0     C11935   2.769   6.045   5.406  0.1580  0.2136 -0.2683
   91MOL0     C11936   2.743   6.091   5.540 -0.0297 -0.1028 -0.8812
   91MOL0     C11937   2.754   6.006   5.646 -0.0611  0.2694 -0.4112
   91MOL0     O11938   2.712   6.051   5.771  0.4054  0.0465  0.2494
   91MOL0     C11939   2.740   5.963   5.883 -0.3533  0.0797 -0.7824
   91MOL0     C11940   2.692   6.037   6.005 -0.9286 -0.0097  0.0045
   91MOL0     C11941   2.542   6.040   6.012 -0.0030  0.2018 -0.2941
   91MOL0     C11942   2.483   5.921   6.089 -0.3869 -0.7200  0.5658
   91MOL0     C11943   2.474   5.973   6.224  1.0522  0.3962 -0.0007
   91MOL0     C11944   2.454   5.981   6.345 -0.8560  0.5588  0.5934
   91MOL0     C11945   2.814   5.876   5.629  0.2956 -0.2138 -0.4727
   91MOL0     C11946   2.843   5.830   5.501  0.3627  0.2119 -0.0699
   91MOL0     H11947   3.021   6.011   4.953 -3.4634  3.3410 -0.2516
   91MOL0     H11948   3.028   5.907   4.725 -1.2431 -0.1229 -0.1456
   91MOL0     H11949   2.722   5.668   4.559  1.1093  1.8481 -4.6503
   91MOL0     H11950   2.812   5.527   4.649  0.8189 -0.7995 -1.4255
   91MOL0     H11951   2.878   5.682   4.397  1.1542  0.8709  0.0482
   91MOL0     H11952   2.813   5.509   4.402 -0.1988  1.0714 -0.1466
   91MOL0     H11953   3.082   5.576   4.520 -1.2248 -0.4146  1.0997
   91MOL0     H11954   3.054   5.532   4.352 -0.9605 -0.2881 -0.2773
   91MOL0     H11955   2.978   5.361   4.599  0.4176  0.4577  0.0833
   91MOL0     H11956   2.925   5.321   4.430  1.5418  0.2517 -1.7700
   91MOL0     H11957   3.207   5.345   4.532 -0.3460  2.2721 -1.3769
   91MOL0     H11958   3.154   5.335   4.364 -0.4917 -3.1045 -0.6031
   91MOL0     H11959   3.080   5.119   4.386  1.4171 -3.8800  0.6446
   91MOL0     H11960   3.088   5.122   4.568 -0.3592  0.1423  0.5684
   91MOL0     H11961   3.265   4.982   4.436 -3.1970 -0.8581  2.8085
   91MOL0     H11962   3.313   5.138   4.360 -0.5760  2.9373  1.2182
   91MOL0     H11963   3.330   5.087   4.658 -0.0582  0.3084  0.1075
   91MOL0     H11964   3.381   5.228   4.583  3.3488  1.6181 -3.3831
   91MOL0     H11965   3.614   5.219   4.432 -0.1636 -1.2265 -3.0020
   91MOL0     H11966   3.814   5.012   4.301  1.3275  1.4858  0.0785
   91MOL0     H11967   3.903   4.966   4.448 -1.5977 -2.6474 -1.1874
   91MOL0     H11968   3.822   5.230   4.345 -2.0176 -2.4026  0.5109
   91MOL0     H11969   3.996   5.187   4.354  0.7086  2.3160  2.2155
   91MOL0     H11970   3.969   5.345   4.542  1.4289 -1.2815  2.1189
   91MOL0     H11971   3.833   5.258   4.602  1.4841  1.2311  2.2662
   91MOL0     H11972   3.953   5.085   4.686 -1.2994  0.2769  0.7282
   91MOL0     H11973   4.050   5.215   4.725 -1.7821 -3.4968  3.7257
   91MOL0     H11974   4.355   5.144   4.434  3.1115  0.6351 -0.2472
   91MOL0     H11975   4.574   5.149   4.555  2.0135 -0.5447  2.2484
   91MOL0     H11976   4.944   5.219   4.716  2.0414 -0.7586 -1.4712
   91MOL0     H11977   5.189   5.166   4.770  0.8427 -1.0227  3.4033
   91MOL0     H11978   5.309   4.737   4.848 -0.4009 -1.3952  2.3836
   91MOL0     H11979   5.238   4.784   4.999 -1.4804  0.3639 -0.4468
   91MOL0     H11980   5.475   4.730   5.055 -1.9203 -1.8896 -0.4879
   91MOL0     H11981   5.459   4.912   5.060  1.4921  1.7075 -3.1732
   91MOL0     H11982   5.549   4.922   4.823 -0.8035 -0.0415  0.5312
   91MOL0     H11983   5.600   4.758   4.833 -0.6775 -0.6247  0.5149
   91MOL0     H11984   5.775   4.918   4.879 -0.7501  1.0219  0.3579
   91MOL0     H11985   5.693   4.980   5.024 -2.5362 -1.4641  1.8725
   91MOL0     H11986   5.783   4.680   4.983  0.0529 -1.1537  1.9424
   91MOL0     H11987   5.728   4.759   5.132 -3.5123  2.2964 -2.4569
   91MOL0     H11988   5.964   4.705   5.135  1.0114  1.9474  2.1578
   91MOL0     H11989   5.943   4.873   5.161 -0.2153 -1.9150  1.5835
   91MOL0     H11990   6.046   4.749   4.898 -0.1355  0.2491  1.2652
   91MOL0     H11991   6.014   4.915   4.927 -0.5581  0.0336 -0.5016
   91MOL0     H11992   6.225   4.753   5.070  3.1455  3.7105  4.7467
   91MOL0     H11993   6.200   4.919   5.110  0.6035  0.7370 -0.5381
   91MOL0     H11994   5.050   4.778   4.913 -0.0185 -0.1119 -0.6695
   91MOL0     H11995   4.824   4.825   4.834 -1.6679  1.1076 -2.4462
   91MOL0     H11996   4.391   5.046   4.932  1.6057  4.5741  1.2331
   91MOL0     H11997   4.180   5.080   4.821 -0.9694 -0.1751 -2.4131
   91MOL0     H11998   2.696   5.671   4.814 -2.0496 -0.0127  3.2033
   91MOL0     H11999   2.680   5.770   5.041  0.0971 -3.2908 -1.0387
   91MOL0     H12000   2.739   6.106   5.321 -2.3070 -1.1318 -0.4481
   91MOL0     H12001   2.707   6.192   5.554  0.8063  0.1653 -0.5994
   91MOL0     H12002   2.846   5.937   5.890 -1.3345 -4.2287  1.9536
   91MOL0     H12003   2.686   5.868   5.869  2.2423 -2.1490  2.6517
   91MOL0     H12004   2.730   5.999   6.101 -1.0641  0.8537  0.4087
   91MOL0     H12005   2.733   6.134   5.977 -0.8522 -0.9597 -3.6737
   91MOL0     H12006   2.502   6.031   5.911 -1.0993  0.6533  0.0838
   91MOL0     H12007   2.505   6.137   6.049 -2.2928 -1.1143  1.0587
   91MOL0     H12008   2.382   5.887   6.063 -0.2218 -0.3117 -0.6316
   91MOL0     H12009   2.543   5.829   6.084 -2.6259 -2.2133 -3.1044
   91MOL0     H12010   2.445   5.982   6.452  2.1323  0.1598  0.9331
   91MOL0     H12011   2.833   5.812   5.714 -1.9030  0.4717  0.6201
   91MOL0     H12012   2.870   5.725   5.505  2.7200  0.7879  2.2927
   92MOL0     O12013  10.340   6.765   5.797 -0.2713 -0.2119  0.1421
   92MOL0     C12014  10.413   6.703   5.872  0.0355 -0.1032  0.8106
   92MOL0     O12015  10.388   6.580   5.936  0.2906 -0.4149  0.9912
   92MOL0     C12016  10.309   6.476   5.879  0.4445 -0.1297 -0.1686
   92MOL0     C12017  10.272   6.363   5.958 -0.0974  0.1166 -0.1804
   92MOL0     C12018  10.198   6.257   5.911 -0.0673 -0.8288 -0.9100
   92MOL0     C12019  10.142   6.265   5.781 -1.0252  0.2995  0.5383
   92MOL0     O12020  10.057   6.172   5.746  0.7313 -0.1084 -0.4379
   92MOL0     C12021   9.951   6.191   5.643  0.4967  0.9405 -0.0339
   92MOL0     C12022   9.983   6.153   5.501 -0.2485 -0.6218 -0.2718
   92MOL0     C12023   9.866   6.191   5.416 -0.1044 -1.3362  0.4350
   92MOL0     C12024   9.741   6.109   5.443  0.9562  0.1662  0.3979
   92MOL0     C12025   9.604   6.173   5.395 -0.2810  0.4265 -0.2508
   92MOL0     C12026   9.605   6.208   5.245  0.1200 -0.9960 -0.0798
   92MOL0     C12027   9.464   6.251   5.193  0.4148 -0.2263  0.4376
   92MOL0     C12028   9.358   6.134   5.210  0.8194  0.1719  0.6445
   92MOL0     N12029   9.231   6.166   5.146  0.3361 -0.4193 -0.3792
   92MOL0     C12030   9.156   6.273   5.197  0.2186 -0.5302  0.5500
   92MOL0     C12031   9.035   6.242   5.139  0.0112 -0.0208 -0.0829
   92MOL0     C12032   8.901   6.306   5.149  0.0096  0.0863 -0.1250
   92MOL0     C12033   8.824   6.279   5.281  1.1100 -0.3275 -0.4896
   92MOL0     C12034   8.685   6.349   5.280 -1.0181 -0.8053  0.4547
   92MOL0     C12035   8.616   6.346   5.415 -0.4772 -0.7981  0.1527
   92MOL0     O12036   8.578   6.213   5.447  0.4148 -0.3523  0.7507
   92MOL0     C12037   8.456   6.157   5.414 -0.2422  0.2493  0.0842
   92MOL0     C12038   8.329   6.213   5.439 -0.6568  0.1469 -0.3151
   92MOL0     C12039   8.218   6.145   5.404  0.3724 -1.1636 -0.2182
   92MOL0     C12040   8.226   6.024   5.342 -0.0954  0.5295  0.2184
   92MOL0     C12041   8.100   5.945   5.324  0.1068  0.0034 -0.7639
   92MOL0     O12042   8.114   5.818   5.305  0.4320  0.1697  0.0426
   92MOL0     C12043   8.000   5.743   5.282  0.0643 -0.4875  0.2866
   92MOL0     C12044   7.915   5.721   5.393  0.0358  0.6498  0.0476
   92MOL0     C12045   7.806   5.639   5.376  0.0921  0.4883  0.9550
   92MOL0     C12046   7.791   5.575   5.247 -0.6862 -0.7883  0.4137
   92MOL0     O12047   7.677   5.489   5.235 -0.0515 -0.3916  0.0765
   92MOL0     C12048   7.692   5.355   5.177  0.3543 -0.3064 -0.1845
   92MOL0     C12049   7.542   5.296   5.170 -0.4335 -0.2975  0.2002
   92MOL0     C12050   7.534   5.147   5.120 -0.2611  0.4362 -0.3692
   92MOL0     C12051   7.397   5.090   5.144  0.5844 -0.3444 -0.1082
   92MOL0     C12052   7.386   4.952   5.077 -0.1351  0.0466 -0.0397
   92MOL0     C12053   7.274   4.863   5.124  0.4028 -1.2320 -0.1856
   92MOL0     C12054   7.135   4.935   5.071  0.3081 -0.1272 -0.8892
   92MOL0     C12055   7.119   4.947   4.922 -0.3301 -0.7721 -1.1472
   92MOL0    Cl12056   6.964   5.000   4.884  0.0348  0.3519 -0.1440
   92MOL0     C12057   7.876   5.601   5.137 -0.8469 -0.4009 -0.2095
   92MOL0     C12058   7.981   5.687   5.151 -0.7377  0.1545 -0.2190
   92MOL0     O12059   7.987   6.002   5.335 -0.0441 -0.2769 -0.8378
   92MOL0     C12060   8.349   5.964   5.309 -0.1915 -0.3968 -0.4653
   92MOL0     C12061   8.464   6.033   5.353 -1.3279 -0.6451  0.1119
   92MOL0     N12062   9.046   6.134   5.050  0.6556 -0.5360  0.7074
   92MOL0     N12063   9.163   6.083   5.063 -0.1560  0.4219  0.1156
   92MOL0     C12064  10.172   6.375   5.701  0.2846 -1.1055  1.0321
   92MOL0     C12065  10.253   6.483   5.746 -0.6542  0.1250  0.2616
   92MOL0     C12066  10.546   6.769   5.901  0.4917 -0.6491 -0.5536
   92MOL0     C12067  10.665   6.694   5.944  0.9271 -0.1098 -0.2909
   92MOL0     C12068  10.780   6.768   5.989 -0.5033 -0.5420  0.1417
   92MOL0     C12069  10.791   6.913   5.981  0.0466 -0.2557  0.3178
   92MOL0     O12070  10.898   6.997   6.012  0.3895 -0.1197 -0.0915
   92MOL0     C12071  11.015   6.944   6.068  0.8348  0.1774 -0.5254
   92MOL0     C12072  11.054   7.053   6.171 -0.2581  0.0857 -0.4845
   92MOL0     C12073  11.060   7.197   6.120 -0.6291 -0.7948  0.3288
   92MOL0     C12074  11.189   7.224   6.048 -0.1280 -0.5031  0.4801
   92MOL0     C12075  11.214   7.364   6.020  1.0742 -0.0933 -0.8362
   92MOL0     C12076  11.229   7.478   5.988  0.6245  0.0579  1.5569
   92MOL0     C12077  10.677   6.981   5.943 -0.3824  0.2350 -0.6731
   92MOL0     C12078  10.560   6.911   5.908  0.0456  0.1574 -0.2240
   92MOL0     H12079  10.300   6.351   6.062  0.6257 -2.3832 -0.6010
   92MOL0     H12080  10.185   6.171   5.977 -0.8599  0.6418  0.9285
   92MOL0     H12081   9.892   6.283   5.637 -2.4038 -0.8878 -2.5120
   92MOL0     H12082   9.874   6.123   5.682 -0.9177  3.7753  2.5651
   92MOL0     H12083  10.001   6.045   5.500 -1.5119 -0.8411 -0.4010
   92MOL0     H12084  10.069   6.210   5.465 -0.3443  1.0875  1.9994
   92MOL0     H12085   9.890   6.182   5.310  2.2039  1.2110  0.6192
   92MOL0     H12086   9.850   6.297   5.438  0.9468 -0.9458 -0.5949
   92MOL0     H12087   9.751   6.017   5.384 -1.8155  1.3067 -2.1181
   92MOL0     H12088   9.738   6.084   5.550  2.2889  2.8846  1.1499
   92MOL0     H12089   9.584   6.262   5.455 -0.8939 -0.3029  0.6493
   92MOL0     H12090   9.529   6.101   5.429 -0.0060  0.2361 -0.0524
   92MOL0     H12091   9.650   6.131   5.182  0.6196  0.4417 -1.5413
   92MOL0     H12092   9.667   6.297   5.239 -1.9038  0.4820 -0.1524
   92MOL0     H12093   9.414   6.338   5.236 -1.0905 -0.4226 -0.7932
   92MOL0     H12094   9.474   6.272   5.086  0.8241  0.7544  0.6664
   92MOL0     H12095   9.343   6.116   5.317 -2.7763  2.3529  0.6715
   92MOL0     H12096   9.377   6.045   5.148 -0.7728  2.5641 -3.7537
   92MOL0     H12097   9.174   6.347   5.274  1.1313  0.9038 -0.9860
   92MOL0     H12098   8.836   6.287   5.063 -1.1908 -0.9233  0.9563
   92MOL0     H12099   8.919   6.414   5.159 -1.2563  0.1060  2.9857
   92MOL0     H12100   8.885   6.305   5.368 -0.2504 -1.5648  0.9007
   92MOL0     H12101   8.816   6.169   5.278  3.8273 -0.5606 -1.1313
   92MOL0     H12102   8.698   6.451   5.240 -0.7838 -1.1606 -0.4141
   92MOL0     H12103   8.620   6.294   5.212 -3.8774 -0.1005  2.4531
   92MOL0     H12104   8.521   6.399   5.404  0.0731  0.5599  1.6355
   92MOL0     H12105   8.687   6.403   5.476  3.7660 -0.0618 -4.7643
   92MOL0     H12106   8.316   6.310   5.486 -1.0474 -0.5619  1.1128
   92MOL0     H12107   8.125   6.193   5.433 -0.1755 -1.1858 -1.8126
   92MOL0     H12108   7.942   5.778   5.481  2.2374  2.3012 -1.5728
   92MOL0     H12109   7.728   5.615   5.447 -1.4882  2.4329 -0.0364
   92MOL0     H12110   7.764   5.297   5.236  0.4754  0.4999  0.4784
   92MOL0     H12111   7.728   5.368   5.075 -0.8177 -2.5507 -0.9590
   92MOL0     H12112   7.493   5.345   5.085 -0.9198 -1.7581 -0.4013
   92MOL0     H12113   7.498   5.307   5.269 -0.3779  1.4839  0.0471
   92MOL0     H12114   7.606   5.083   5.172  0.0896  0.3201 -0.9840
   92MOL0     H12115   7.562   5.133   5.015  4.2961 -1.2421  0.8242
   92MOL0     H12116   7.387   5.086   5.253 -0.8730 -0.4624 -0.2233
   92MOL0     H12117   7.321   5.157   5.103 -0.5749 -1.6534 -0.1653
   92MOL0     H12118   7.479   4.899   5.099  1.2148  0.7995 -3.2696
   92MOL0     H12119   7.396   4.957   4.968 -0.5735 -0.3220 -0.1003
   92MOL0     H12120   7.264   4.854   5.233 -0.6121 -2.0366 -0.3238
   92MOL0     H12121   7.267   4.767   5.073 -0.5249  0.3382 -3.2897
   92MOL0     H12122   7.049   4.879   5.108 -0.5643  0.4346 -2.0366
   92MOL0     H12123   7.122   5.031   5.122  0.6806 -0.2431 -0.5649
   92MOL0     H12124   7.153   4.857   4.870 -0.6575 -0.7817 -1.3435
   92MOL0     H12125   7.177   5.035   4.890  3.0791 -1.0042  3.3164
   92MOL0     H12126   7.852   5.536   5.053  0.9834 -3.1033  1.2024
   92MOL0     H12127   8.052   5.702   5.071 -1.3273  0.7159 -0.6556
   92MOL0     H12128   8.354   5.860   5.281 -3.4358 -1.2057  1.4823
   92MOL0     H12129   8.565   5.994   5.359 -0.3006  2.0365  3.0143
   92MOL0     H12130  10.137   6.380   5.598  0.9032 -0.4231  0.8529
   92MOL0     H12131  10.254   6.569   5.681 -1.4635  1.2081  1.6189
   92MOL0     H12132  10.652   6.590   5.969  0.1039  0.5338  2.2975
   92MOL0     H12133  10.860   6.709   6.033 -0.7133 -1.2702 -0.4304
   92MOL0     H12134  11.094   6.933   5.992  1.7757  2.5509  0.0376
   92MOL0     H12135  11.009   6.847   6.117  1.9677 -0.1930 -1.0789
   92MOL0     H12136  10.972   7.047   6.243  0.9253 -0.0926  0.8746
   92MOL0     H12137  11.143   7.018   6.223  0.3215 -0.6237 -1.8821
   92MOL0     H12138  11.059   7.275   6.197  2.1082  0.8251 -1.1091
   92MOL0     H12139  10.979   7.225   6.053  0.8755 -1.1281 -1.7120
   92MOL0     H12140  11.275   7.190   6.105 -1.2249 -0.3897  2.2703
   92MOL0     H12141  11.191   7.178   5.948 -0.5155  4.3193 -2.0486
   92MOL0     H12142  11.255   7.577   5.956 -0.9475  1.0939  3.2876
   92MOL0     H12143  10.683   7.089   5.930  0.0869  0.5143  1.5185
   92MOL0     H12144  10.465   6.962   5.898 -2.1144 -3.1201  1.6863
   93MOL0     O12145   2.698   2.995   1.191 -0.3636 -0.0845 -0.9243
   93MOL0     C12146   2.699   3.068   1.098 -0.7231 -0.6884 -0.6469
   93MOL0     O12147   2.687   3.208   1.110  0.5038 -0.2381  0.6284
   93MOL0     C12148   2.662   3.252   1.240  0.2355  0.2874  0.0849
   93MOL0     C12149   2.750   3.250   1.347 -0.0071 -0.1311 -0.3344
   93MOL0     C12150   2.722   3.308   1.468  0.3511 -0.7060 -0.7675
   93MOL0     C12151   2.590   3.362   1.488  0.4971 -0.3061 -0.8985
   93MOL0     O12152   2.538   3.410   1.609 -0.4892 -0.2622  0.0686
   93MOL0     C12153   2.623   3.458   1.718  0.2842 -0.6194  0.0634
   93MOL0     C12154   2.536   3.491   1.839 -0.2756 -0.1890 -0.2177
   93MOL0     C12155   2.590   3.444   1.973  0.1188  0.0968 -0.3781
   93MOL0     C12156   2.608   3.294   1.967  0.4617  0.7045 -0.0648
   93MOL0     C12157   2.598   3.244   2.114 -0.0968  0.4447 -0.1542
   93MOL0     C12158   2.610   3.087   2.134 -1.0759 -0.4243  0.1674
   93MOL0     C12159   2.589   3.042   2.282 -0.0401 -0.6618 -0.4346
   93MOL0     C12160   2.715   3.073   2.370  0.9213 -0.6493  0.1891
   93MOL0     N12161   2.686   3.060   2.510 -0.4491  0.6729 -0.3765
   93MOL0     C12162   2.739   3.158   2.600  0.1120  0.3663  0.5631
   93MOL0     C12163   2.668   3.141   2.713  0.5321 -0.1415  0.2945
   93MOL0     C12164   2.674   3.232   2.838  1.0454  0.2062 -0.0237
   93MOL0     C12165   2.661   3.153   2.968  0.4517  0.1734 -0.6675
   93MOL0     C12166   2.667   3.249   3.089  0.8196  0.7364 -0.4652
   93MOL0     C12167   2.531   3.324   3.095  0.0980 -0.0743 -0.1832
   93MOL0     O12168   2.548   3.450   3.034 -0.4086 -0.1414  0.1359
   93MOL0     C12169   2.427   3.505   2.996 -0.0079 -0.0145  0.0514
   93MOL0     C12170   2.425   3.561   2.874  1.1935  0.0638  0.6399
   93MOL0     C12171   2.302   3.603   2.811 -0.2182  0.0513 -0.0223
   93MOL0     C12172   2.180   3.593   2.879 -0.3339 -0.4273 -0.4162
   93MOL0     C12173   2.061   3.633   2.807  0.9066  0.0086 -0.4056
   93MOL0     O12174   1.956   3.688   2.883 -0.4470  0.2377  0.3542
   93MOL0     C12175   1.836   3.722   2.831 -0.0439 -0.6222  0.5480
   93MOL0     C12176   1.755   3.609   2.814  0.2176  0.8938 -0.0658
   93MOL0     C12177   1.616   3.613   2.795  0.1140  0.3640  0.6403
   93MOL0     C12178   1.564   3.735   2.773  0.5766 -0.8061  0.6486
   93MOL0     O12179   1.426   3.754   2.737 -0.5142 -0.0022 -0.0819
   93MOL0     C12180   1.354   3.644   2.691  0.6826 -0.4426  0.0427
   93MOL0     C12181   1.231   3.703   2.622 -0.4181  0.3781  0.0580
   93MOL0     C12182   1.124   3.603   2.585  0.3667 -0.4255 -0.3154
   93MOL0     C12183   0.991   3.673   2.542  0.2080  2.0376 -0.4937
   93MOL0     C12184   0.877   3.564   2.540  0.4595 -0.5556  0.2328
   93MOL0     C12185   0.742   3.636   2.540 -0.4949  0.5914  0.0171
   93MOL0     C12186   0.633   3.535   2.562  0.7534  0.0221 -0.2314
   93MOL0     C12187   0.507   3.607   2.600 -0.0139 -0.1814  0.0898
   93MOL0    Cl12188   0.444   3.688   2.454  0.0177  0.1861  0.1315
   93MOL0     C12189   1.635   3.856   2.792 -0.6106 -0.3807  0.0527
   93MOL0     C12190   1.776   3.846   2.827 -0.7586  0.1133 -0.7297
   93MOL0     O12191   2.055   3.623   2.685 -0.1392 -0.8573  0.9503
   93MOL0     C12192   2.180   3.525   2.998  0.0331  0.5403 -0.5634
   93MOL0     C12193   2.303   3.489   3.060 -0.4909  0.5729  0.5336
   93MOL0     N12194   2.574   3.035   2.690 -0.8335 -0.7214  0.2794
   93MOL0     N12195   2.583   2.992   2.571 -0.8082 -0.6042  0.8856
   93MOL0     C12196   2.495   3.352   1.389  0.3707  0.3150  0.0154
   93MOL0     C12197   2.540   3.321   1.261 -0.9333  0.9324  0.0807
   93MOL0     C12198   2.689   3.017   0.963 -0.4358 -0.3970  0.2367
   93MOL0     C12199   2.629   2.895   0.932  0.1969  0.1496 -0.8242
   93MOL0     C12200   2.632   2.845   0.808 -0.5125 -0.2029  0.1229
   93MOL0     C12201   2.698   2.904   0.701 -0.0352 -0.4664  0.3182
   93MOL0     O12202   2.698   2.851   0.575 -0.1605  0.6765 -0.5890
   93MOL0     C12203   2.810   2.766   0.544  0.2085 -0.2344 -0.8680
   93MOL0     C12204   2.838   2.786   0.397 -0.9699 -0.7246 -0.7410
   93MOL0     C12205   2.934   2.685   0.326 -0.0337 -0.3070 -0.6113
   93MOL0     C12206   2.955   2.732   0.183  0.0557 -0.1598  0.5777
   93MOL0     C12207   2.849   2.704   0.090 -0.1682  0.1181 -0.1289
   93MOL0     C12208   2.766   2.677   0.005  0.1014  0.1248 -0.2226
   93MOL0     C12209   2.763   3.023   0.726  1.1019  0.3770 -1.3253
   93MOL0     C12210   2.765   3.076   0.857 -0.8943 -1.2276 -1.0019
   93MOL0     H12211   2.851   3.214   1.333  0.3832  1.9518 -3.8484
   93MOL0     H12212   2.798   3.312   1.544  1.0484  1.6576 -1.4946
   93MOL0     H12213   2.669   3.554   1.693 -2.2263  0.7950  0.4761
   93MOL0     H12214   2.695   3.378   1.733 -0.8725 -1.9051 -0.9615
   93MOL0     H12215   2.439   3.449   1.812 -0.2023 -1.2211  1.0162
   93MOL0     H12216   2.511   3.597   1.845 -0.3211 -0.2382  0.5208
   93MOL0     H12217   2.534   3.481   2.060 -0.1337  1.1094 -0.9529
   93MOL0     H12218   2.686   3.493   1.992 -1.7631  3.5634  1.2265
   93MOL0     H12219   2.534   3.240   1.908  0.9024  0.4103 -0.3479
   93MOL0     H12220   2.708   3.297   1.923  0.8862  1.8488  0.9086
   93MOL0     H12221   2.501   3.270   2.158  0.1219  0.5894  0.2424
   93MOL0     H12222   2.670   3.300   2.174 -0.1846 -0.3072  0.6720
   93MOL0     H12223   2.705   3.062   2.085 -1.5538 -0.4355 -0.7883
   93MOL0     H12224   2.529   3.032   2.085 -1.7270 -1.4076  2.2358
   93MOL0     H12225   2.514   3.101   2.335 -0.0044 -2.7906  2.2039
   93MOL0     H12226   2.560   2.937   2.285 -0.8330 -0.4772 -1.1413
   93MOL0     H12227   2.765   3.166   2.339  2.2711 -2.1590 -2.6144
   93MOL0     H12228   2.801   3.007   2.355  1.3798  0.0944 -0.5668
   93MOL0     H12229   2.796   3.243   2.564 -1.2878  0.7419 -0.8895
   93MOL0     H12230   2.592   3.305   2.830 -0.6465 -1.7020 -1.2900
   93MOL0     H12231   2.774   3.275   2.844  0.8115  0.9473 -1.0666
   93MOL0     H12232   2.741   3.079   2.978  0.1640 -0.1070 -0.4492
   93MOL0     H12233   2.563   3.106   2.961  0.0851  0.1427  2.7614
   93MOL0     H12234   2.677   3.182   3.175 -2.1424 -1.6815 -1.8124
   93MOL0     H12235   2.748   3.323   3.087  0.9286  0.6228 -0.3094
   93MOL0     H12236   2.498   3.340   3.198 -2.7848 -3.2356 -0.4228
   93MOL0     H12237   2.457   3.260   3.046  2.6566 -3.8890  0.4658
   93MOL0     H12238   2.515   3.572   2.815  0.6239  1.0035 -0.1004
   93MOL0     H12239   2.323   3.657   2.719 -0.1791  0.8260  0.4306
   93MOL0     H12240   1.803   3.511   2.811 -0.0154  0.7532  0.7831
   93MOL0     H12241   1.558   3.523   2.773 -2.7671  2.1970  0.2266
   93MOL0     H12242   1.326   3.586   2.780 -2.8842  0.5885 -0.2586
   93MOL0     H12243   1.406   3.577   2.621  2.4671  1.2517 -0.3238
   93MOL0     H12244   1.258   3.760   2.533 -0.7424  1.5575  0.6948
   93MOL0     H12245   1.192   3.777   2.692  0.6783 -1.7999  3.1988
   93MOL0     H12246   1.110   3.535   2.670  3.2344 -1.2829 -0.4281
   93MOL0     H12247   1.165   3.545   2.502 -2.0847 -3.2936  0.2735
   93MOL0     H12248   0.973   3.746   2.621  1.2542  1.5311  0.2270
   93MOL0     H12249   1.021   3.726   2.450  0.9618  2.0463 -0.2465
   93MOL0     H12250   0.887   3.503   2.629 -1.6977 -0.3140  0.6952
   93MOL0     H12251   0.897   3.499   2.454  1.4308 -1.6807  1.2857
   93MOL0     H12252   0.728   3.694   2.448 -1.3403  0.6982  0.2117
   93MOL0     H12253   0.750   3.714   2.617  2.0973 -0.9544  1.4766
   93MOL0     H12254   0.629   3.484   2.465  2.4381  4.6089 -3.0598
   93MOL0     H12255   0.655   3.461   2.638 -1.5339  0.2068  0.6902
   93MOL0     H12256   0.517   3.685   2.676 -2.6857 -0.1121  0.4760
   93MOL0     H12257   0.430   3.539   2.637 -0.6928 -0.0032 -0.9521
   93MOL0     H12258   1.594   3.954   2.771 -0.8837 -0.6886 -0.9020
   93MOL0     H12259   1.837   3.924   2.871  0.4435 -1.0000 -0.3740
   93MOL0     H12260   2.092   3.491   3.052  0.5323  4.5721  3.4137
   93MOL0     H12261   2.283   3.440   3.155 -0.0122  1.5436  1.1401
   93MOL0     H12262   2.388   3.375   1.388  0.3128  0.1097 -1.6619
   93MOL0     H12263   2.483   3.331   1.169  1.6221 -0.0092 -1.7244
   93MOL0     H12264   2.596   2.848   1.024  1.2837  3.7761  1.6498
   93MOL0     H12265   2.591   2.746   0.795  0.6686 -0.5572 -1.2520
   93MOL0     H12266   2.790   2.661   0.566 -0.3372  0.1475  0.6546
   93MOL0     H12267   2.892   2.798   0.609 -1.3421 -0.3430  1.2845
   93MOL0     H12268   2.739   2.773   0.352 -2.7046 -1.5213  2.8918
   93MOL0     H12269   2.873   2.889   0.386  0.9121 -1.3411 -0.8215
   93MOL0     H12270   2.888   2.586   0.327 -1.0325  0.0167 -3.6903
   93MOL0     H12271   3.029   2.693   0.379 -0.2088 -1.1539 -0.1637
   93MOL0     H12272   2.971   2.840   0.192  0.1018 -0.3080  3.3666
   93MOL0     H12273   3.043   2.688   0.135 -0.9215  1.3515 -2.8416
   93MOL0     H12274   2.684   2.648  -0.057 -0.4926 -1.8208  1.3642
   93MOL0     H12275   2.815   3.071   0.644 -0.9714  3.0624 -1.2027
   93MOL0     H12276   2.838   3.152   0.884 -3.8905  0.7707  2.2749
   94MOL0     O12277   2.336   6.689   8.276 -0.3604  0.5576  0.1848
   94MOL0     C12278   2.283   6.730   8.378 -0.2176  0.3191 -0.3648
   94MOL0     O12279   2.348   6.741   8.498  0.7498 -1.0113 -0.1789
   94MOL0     C12280   2.486   6.745   8.504 -0.4567  0.2555  0.6337
   94MOL0     C12281   2.559   6.643   8.571  1.2262 -0.4318 -0.8640
   94MOL0     C12282   2.702   6.651   8.580  0.0925 -0.1552 -0.4672
   94MOL0     C12283   2.768   6.757   8.521  0.1582  0.2103 -0.3296
   94MOL0     O12284   2.905   6.760   8.537  0.5940 -0.6219  0.0549
   94MOL0     C12285   2.954   6.782   8.672  0.1015 -0.3488 -0.8070
   94MOL0     C12286   3.105   6.834   8.667 -0.5651  0.4130  0.7318
   94MOL0     C12287   3.138   6.941   8.560  0.2808 -0.3918  0.6006
   94MOL0     C12288   3.072   7.077   8.591  0.0603  0.7004 -0.5399
   94MOL0     C12289   3.138   7.176   8.492 -0.4145 -0.2958  0.0798
   94MOL0     C12290   3.082   7.167   8.350 -0.7957 -0.6776 -0.2288
   94MOL0     C12291   3.176   7.211   8.251 -0.4423  0.6266 -0.3965
   94MOL0     C12292   3.124   7.186   8.110  0.5077  0.0781 -0.0293
   94MOL0     N12293   3.247   7.165   8.028 -0.2850  1.2096 -0.0415
   94MOL0     C12294   3.313   7.048   8.019 -0.7169  1.4172  0.3320
   94MOL0     C12295   3.428   7.064   7.947 -0.7314  0.4595  0.5894
   94MOL0     C12296   3.529   6.965   7.906 -0.7006 -0.0383  0.4098
   94MOL0     C12297   3.495   6.902   7.775  0.4029 -0.7355  0.2696
   94MOL0     C12298   3.389   6.796   7.777  0.4090 -0.0295  0.1609
   94MOL0     C12299   3.244   6.830   7.722  0.0905 -0.1083  0.4215
   94MOL0     O12300   3.253   6.849   7.577 -0.3203  0.3706  0.0709
   94MOL0     C12301   3.145   6.902   7.512  1.1056 -0.0139  0.5646
   94MOL0     C12302   3.040   6.830   7.466  0.0816 -0.1127  1.0944
   94MOL0     C12303   2.938   6.884   7.382  0.1455 -0.3017 -0.2298
   94MOL0     C12304   2.940   7.019   7.353 -0.6693  0.3044  0.7161
   94MOL0     C12305   2.847   7.079   7.254 -0.3008  0.5043  0.4244
   94MOL0     O12306   2.744   6.995   7.214  0.4778 -0.0574 -0.2226
   94MOL0     C12307   2.640   7.050   7.146 -0.9072  0.1427 -0.1698
   94MOL0     C12308   2.567   7.160   7.195  0.6948 -0.1875 -0.4272
   94MOL0     C12309   2.465   7.220   7.116  1.0429  1.0057  0.8352
   94MOL0     C12310   2.421   7.156   6.994  0.2707  0.0767 -0.4805
   94MOL0     O12311   2.314   7.201   6.925 -0.6439 -0.3204  0.7158
   94MOL0     C12312   2.297   7.149   6.785  0.2193  0.4446 -0.2086
   94MOL0     C12313   2.201   7.256   6.728  0.6485 -0.4162 -0.3924
   94MOL0     C12314   2.265   7.385   6.673  0.4604 -0.4019 -0.2035
   94MOL0     C12315   2.159   7.476   6.604 -0.2196 -0.0995 -0.7665
   94MOL0     C12316   2.219   7.616   6.577  0.0723  0.4017  1.2218
   94MOL0     C12317   2.110   7.705   6.522  0.0348 -0.5092 -1.0363
   94MOL0     C12318   2.149   7.848   6.520  0.3898  0.2227 -0.2311
   94MOL0     C12319   2.033   7.940   6.501 -0.8646  0.0593 -0.2686
   94MOL0    Cl12320   2.073   8.113   6.536  0.2635  0.4310 -0.0262
   94MOL0     C12321   2.494   7.040   6.949  0.2053 -0.0266  0.0635
   94MOL0     C12322   2.596   6.985   7.026 -0.1345 -0.7461  0.5780
   94MOL0     O12323   2.864   7.200   7.227  0.0247 -0.1641 -0.9047
   94MOL0     C12324   3.042   7.101   7.399  0.2759  0.0937 -0.9235
   94MOL0     C12325   3.143   7.034   7.468 -0.5005 -0.9673  0.2118
   94MOL0     N12326   3.423   7.198   7.904 -0.5406  1.0201  0.7567
   94MOL0     N12327   3.314   7.251   7.949 -0.4366 -0.3782  0.1594
   94MOL0     C12328   2.702   6.851   8.451  0.1599  0.8884  0.6174
   94MOL0     C12329   2.560   6.858   8.454 -0.4410  0.4242 -0.4265
   94MOL0     C12330   2.139   6.759   8.370 -0.2343 -0.0989  0.7887
   94MOL0     C12331   2.066   6.768   8.485 -0.4988  0.6778 -0.3702
   94MOL0     C12332   1.936   6.816   8.488  0.1234 -0.3516 -0.3047
   94MOL0     C12333   1.871   6.850   8.376 -0.0123 -0.0346  0.0992
   94MOL0     O12334   1.738   6.894   8.368  0.9919 -0.2512 -0.2337
   94MOL0     C12335   1.638   6.881   8.474  1.4632  1.0612 -0.6546
   94MOL0     C12336   1.663   6.997   8.579  0.0340  1.3332  0.2559
   94MOL0     C12337   1.580   6.969   8.712  0.5415 -0.0636  0.2669
   94MOL0     C12338   1.623   6.856   8.811 -0.7272 -0.6603 -0.0390
   94MOL0     C12339   1.755   6.897   8.864  0.1609  1.1122 -0.3512
   94MOL0     C12340   1.861   6.930   8.902  0.2481 -0.7447  0.4496
   94MOL0     C12341   1.939   6.846   8.255  0.2817 -0.0439 -0.6416
   94MOL0     C12342   2.079   6.812   8.254  1.2092 -0.5572  0.7348
   94MOL0     H12343   2.515   6.552   8.613 -1.6243 -0.3852 -3.3701
   94MOL0     H12344   2.746   6.568   8.634 -0.1274  1.1511  1.8633
   94MOL0     H12345   2.936   6.689   8.727  0.5551 -0.1941 -0.3831
   94MOL0     H12346   2.902   6.854   8.736  0.6456  0.9713 -1.8073
   94MOL0     H12347   3.166   6.747   8.642  0.0651  1.1726 -0.4898
   94MOL0     H12348   3.131   6.881   8.763 -4.2441  0.4670  1.8380
   94MOL0     H12349   3.116   6.904   8.460  0.4405 -1.7036  1.0305
   94MOL0     H12350   3.246   6.960   8.565  0.4176 -1.0994  0.4785
   94MOL0     H12351   2.963   7.070   8.594 -0.0016  0.9512  3.3195
   94MOL0     H12352   3.091   7.101   8.697 -0.7359 -1.5535  0.1616
   94MOL0     H12353   3.246   7.160   8.499 -0.4306 -0.7005 -0.5684
   94MOL0     H12354   3.117   7.278   8.525  0.4121 -0.3649  0.8535
   94MOL0     H12355   3.004   7.244   8.344 -0.0289  0.0054 -1.9986
   94MOL0     H12356   3.048   7.064   8.333 -0.5235 -0.5795 -1.4593
   94MOL0     H12357   3.211   7.312   8.272  0.2701  0.0672  1.2353
   94MOL0     H12358   3.262   7.145   8.265  1.0756  2.4075 -0.9456
   94MOL0     H12359   3.065   7.276   8.091  1.6206  0.4755 -1.9341
   94MOL0     H12360   3.056   7.102   8.098  0.8321 -0.2094  0.1373
   94MOL0     H12361   3.276   6.958   8.068  0.7154  0.5324 -0.1624
   94MOL0     H12362   3.531   6.885   7.981  2.4674  0.3662  0.8863
   94MOL0     H12363   3.628   7.010   7.895 -1.9575  2.3619 -2.1684
   94MOL0     H12364   3.587   6.862   7.731  0.0457  1.0869 -2.4267
   94MOL0     H12365   3.472   6.975   7.696  0.7540 -0.8631  0.0449
   94MOL0     H12366   3.410   6.709   7.714 -1.2882 -0.7808  0.5771
   94MOL0     H12367   3.392   6.751   7.877 -3.1696  0.3902  0.5892
   94MOL0     H12368   3.222   6.923   7.774  0.8896  0.4962 -0.2769
   94MOL0     H12369   3.178   6.745   7.741  0.9109 -0.3639  2.3276
   94MOL0     H12370   3.024   6.725   7.489 -0.0053  0.1016  2.0493
   94MOL0     H12371   2.876   6.809   7.334  2.2304 -0.9390 -2.0465
   94MOL0     H12372   2.601   7.206   7.287 -0.2611 -0.2090 -0.0499
   94MOL0     H12373   2.418   7.311   7.151 -1.5956 -0.1430  0.5123
   94MOL0     H12374   2.256   7.048   6.779  0.6961  0.2933 -1.1465
   94MOL0     H12375   2.392   7.134   6.733  0.7966  0.5638  0.7935
   94MOL0     H12376   2.136   7.285   6.811  1.5394  0.8996 -0.1151
   94MOL0     H12377   2.142   7.203   6.653 -0.3549 -2.8843  1.9761
   94MOL0     H12378   2.348   7.368   6.604  0.4838  2.5084 -1.0185
   94MOL0     H12379   2.306   7.435   6.762 -0.6743  1.7040 -0.8026
   94MOL0     H12380   2.137   7.436   6.505 -2.7035  0.0831 -0.3397
   94MOL0     H12381   2.071   7.492   6.666  1.1579 -0.0368  1.2826
   94MOL0     H12382   2.303   7.609   6.508 -0.4311  0.6252  0.5841
   94MOL0     H12383   2.260   7.646   6.674  0.0311 -1.3299  1.8046
   94MOL0     H12384   2.021   7.696   6.584 -0.0529 -0.5048 -1.1594
   94MOL0     H12385   2.074   7.675   6.423  1.6547  2.9977 -2.8908
   94MOL0     H12386   2.202   7.873   6.613  2.0658  0.2599 -1.1725
   94MOL0     H12387   2.227   7.848   6.444  1.1445 -1.5282  0.4795
   94MOL0     H12388   1.956   7.918   6.575  0.2665  1.5836  1.4414
   94MOL0     H12389   1.985   7.932   6.403  1.0171 -1.3837 -1.1357
   94MOL0     H12390   2.464   6.986   6.861 -2.4052 -1.0151  1.4604
   94MOL0     H12391   2.642   6.891   6.999  0.6342 -0.4293  0.7614
   94MOL0     H12392   3.065   7.204   7.377  1.0679  0.5328  1.6401
   94MOL0     H12393   3.233   7.091   7.489  0.0145 -1.2812 -1.0401
   94MOL0     H12394   2.751   6.929   8.393 -1.2164 -0.2621 -2.2708
   94MOL0     H12395   2.513   6.941   8.402  1.2403  1.5479 -0.2240
   94MOL0     H12396   2.109   6.754   8.584 -0.6133  0.2303 -0.3813
   94MOL0     H12397   1.888   6.823   8.585  0.9987 -2.1723  0.3100
   94MOL0     H12398   1.647   6.780   8.514  0.5697  0.8347 -0.9833
   94MOL0     H12399   1.535   6.885   8.436  0.3550  1.2801  2.1050
   94MOL0     H12400   1.767   7.009   8.609 -0.7379  1.9620  2.9418
   94MOL0     H12401   1.629   7.093   8.538 -0.9232  1.1352  0.5583
   94MOL0     H12402   1.476   6.951   8.684  1.1915 -1.4481 -1.5203
   94MOL0     H12403   1.601   7.057   8.773  2.7863 -1.5170  1.7375
   94MOL0     H12404   1.544   6.850   8.887 -2.0242 -3.0758 -1.4433
   94MOL0     H12405   1.627   6.768   8.746  0.3749 -1.6911  1.3757
   94MOL0     H12406   1.954   6.975   8.929 -0.4714  2.1525 -1.4502
   94MOL0     H12407   1.901   6.883   8.161 -0.4810 -1.6993 -1.0142
   94MOL0     H12408   2.123   6.820   8.155 -1.3152  0.9594 -0.3659
   95MOL0     O12409  11.049   1.191   3.520 -0.3589 -0.9830 -0.0975
   95MOL0     C12410  11.065   1.295   3.453  0.4510  0.2392  0.0426
   95MOL0     O12411  11.165   1.378   3.460  0.3872 -0.3074  0.5253
   95MOL0     C12412  11.257   1.371   3.563 -0.4383  0.3486 -0.5104
   95MOL0     C12413  11.380   1.321   3.534 -0.8148  0.2964 -0.3031
   95MOL0     C12414  11.474   1.306   3.636 -0.0713  0.1454 -0.1827
   95MOL0     C12415  11.448   1.362   3.763  0.6972  0.4410 -0.3285
   95MOL0     O12416  11.534   1.353   3.873 -0.1041 -0.3167  0.1099
   95MOL0     C12417  11.670   1.312   3.845  0.2936  0.3378 -0.3837
   95MOL0     C12418  11.732   1.303   3.988 -0.0492  0.6218 -0.5063
   95MOL0     C12419  11.887   1.291   3.960  0.0507 -1.7147 -0.7305
   95MOL0     C12420  11.957   1.249   4.085 -0.4344  0.2240  0.6575
   95MOL0     C12421  12.109   1.287   4.083  0.6891  0.6244 -1.0053
   95MOL0     C12422  12.205   1.181   4.151  0.3538  0.1435 -0.6246
   95MOL0     C12423  12.260   1.071   4.053 -0.1078 -0.3947 -0.0620
   95MOL0     C12424  12.401   1.027   4.087 -0.5119 -0.8112  0.3714
   95MOL0     N12425  12.503   1.115   4.041  0.2903 -0.4849  0.1831
   95MOL0     C12426  12.563   1.100   3.915 -0.2764  0.4885 -0.7278
   95MOL0     C12427  12.659   1.193   3.929  0.0050 -0.3444 -0.1450
   95MOL0     C12428  12.765   1.231   3.831 -0.4859 -0.7600 -0.2776
   95MOL0     C12429  12.725   1.256   3.688  0.6666 -0.4645  1.3759
   95MOL0     C12430  12.646   1.387   3.676  0.1115 -1.2591 -0.3430
   95MOL0     C12431  12.497   1.356   3.680  0.7549  1.3176 -0.2588
   95MOL0     O12432  12.461   1.263   3.572  0.6086  0.9158 -0.7169
   95MOL0     C12433  12.323   1.246   3.555  0.8730 -0.0551 -0.1095
   95MOL0     C12434  12.223   1.293   3.640 -0.0545  0.7211 -0.5340
   95MOL0     C12435  12.090   1.264   3.608  0.4318  0.4236  0.3759
   95MOL0     C12436  12.056   1.192   3.488  0.4164  0.3936  0.0929
   95MOL0     C12437  11.908   1.159   3.458 -1.0823 -0.0117  0.4450
   95MOL0     O12438  11.873   1.078   3.358 -0.1012 -0.5492  0.5372
   95MOL0     C12439  11.734   1.074   3.324 -0.7612  0.4860 -0.4227
   95MOL0     C12440  11.668   1.184   3.267 -1.0226 -0.5464  0.7992
   95MOL0     C12441  11.537   1.173   3.227  0.4846  0.2655 -0.8622
   95MOL0     C12442  11.462   1.053   3.244  0.5528 -0.1722 -1.1677
   95MOL0     O12443  11.329   1.073   3.223 -0.1744  0.5661 -0.6393
   95MOL0     C12444  11.236   0.978   3.262  0.4957  0.2503 -0.0713
   95MOL0     C12445  11.230   0.878   3.148  0.3757  0.2820  0.0024
   95MOL0     C12446  11.190   0.951   3.013 -0.3633 -0.2750  0.3352
   95MOL0     C12447  11.044   1.005   3.013 -0.3453  0.1371  0.9949
   95MOL0     C12448  10.999   1.081   2.880 -0.3685  0.5896 -0.6962
   95MOL0     C12449  11.087   1.198   2.837 -0.7955  0.1334 -0.0935
   95MOL0     C12450  11.088   1.325   2.937 -0.5557  0.0705 -0.9878
   95MOL0     C12451  11.213   1.400   2.896 -0.5555  0.2465 -0.2540
   95MOL0    Cl12452  11.255   1.513   3.031  0.0958  0.1646  0.3893
   95MOL0     C12453  11.531   0.943   3.305  0.7735  0.4629  0.1412
   95MOL0     C12454  11.660   0.957   3.342 -0.5138  0.8183  0.0947
   95MOL0     O12455  11.824   1.195   3.543  0.4406  0.3979 -0.0829
   95MOL0     C12456  12.155   1.146   3.405  0.6804  0.3126 -0.4451
   95MOL0     C12457  12.282   1.174   3.434 -0.5093  0.6440 -0.1495
   95MOL0     N12458  12.650   1.263   4.047 -0.8627  0.3632  0.4657
   95MOL0     N12459  12.560   1.209   4.114 -0.4831 -0.3914 -0.8296
   95MOL0     C12460  11.325   1.425   3.786  0.1138  0.0707  0.9058
   95MOL0     C12461  11.228   1.433   3.687 -0.1877  0.2147  0.3483
   95MOL0     C12462  10.969   1.325   3.347 -0.4899  0.1348 -0.7365
   95MOL0     C12463  10.952   1.461   3.297  1.0003  0.5818  0.3778
   95MOL0     C12464  10.849   1.482   3.209  0.1814 -0.1951  0.0614
   95MOL0     C12465  10.756   1.393   3.177 -0.8186 -0.4766 -0.2968
   95MOL0     O12466  10.649   1.439   3.103  0.1677 -0.7220  0.2961
   95MOL0     C12467  10.546   1.365   3.041 -0.1276 -0.2475  0.1030
   95MOL0     C12468  10.601   1.305   2.906  0.4490 -0.5114 -0.2299
   95MOL0     C12469  10.507   1.199   2.846 -0.5091 -0.0937 -1.2767
   95MOL0     C12470  10.512   1.050   2.873 -0.6490  0.1208  0.2264
   95MOL0     C12471  10.481   1.044   3.014  0.2434 -0.1102  0.2148
   95MOL0     C12472  10.432   1.036   3.121  0.6028  0.0252 -0.4027
   95MOL0     C12473  10.766   1.263   3.228 -0.3097 -0.5762 -0.6529
   95MOL0     C12474  10.883   1.223   3.301 -0.4456 -0.3561 -0.1386
   95MOL0     H12475  11.416   1.277   3.442  0.3996 -1.2956  0.8717
   95MOL0     H12476  11.548   1.229   3.619  0.4111  0.7879 -1.0837
   95MOL0     H12477  11.724   1.386   3.784  1.0758  0.5057  0.4929
   95MOL0     H12478  11.674   1.216   3.794 -0.5076 -0.0314  0.2301
   95MOL0     H12479  11.696   1.217   4.045 -0.6842  2.2839  1.7556
   95MOL0     H12480  11.694   1.383   4.053 -1.5687  0.2785 -0.9330
   95MOL0     H12481  11.921   1.388   3.920  2.5413 -2.3865 -0.4051
   95MOL0     H12482  11.909   1.224   3.876  2.0519 -1.4769 -0.4421
   95MOL0     H12483  11.903   1.301   4.165  1.6654  3.6194  0.0425
   95MOL0     H12484  11.946   1.140   4.091 -2.7034  0.4873  3.6220
   95MOL0     H12485  12.117   1.385   4.130  0.5821 -0.4452  1.3995
   95MOL0     H12486  12.139   1.300   3.979  2.2109  0.1194 -0.6658
   95MOL0     H12487  12.142   1.135   4.227 -0.7162 -3.3909 -3.4172
   95MOL0     H12488  12.293   1.217   4.205  1.4681 -1.7378 -1.0881
   95MOL0     H12489  12.194   0.984   4.065  0.5014 -1.1278 -1.6861
   95MOL0     H12490  12.236   1.102   3.951 -0.9619  0.3781  0.3633
   95MOL0     H12491  12.424   0.931   4.040  0.9634 -0.0157 -0.5970
   95MOL0     H12492  12.407   1.025   4.197  1.1698  1.1510  0.3851
   95MOL0     H12493  12.551   1.031   3.832  2.1800 -0.6968 -0.1797
   95MOL0     H12494  12.823   1.139   3.821 -0.8157 -0.8063 -2.1592
   95MOL0     H12495  12.821   1.318   3.865 -1.9075  1.1213 -2.3925
   95MOL0     H12496  12.676   1.166   3.650 -0.7994  0.3419  1.2335
   95MOL0     H12497  12.820   1.275   3.638  0.5107  0.3383  1.3597
   95MOL0     H12498  12.670   1.464   3.751 -3.2930 -1.8545  1.6021
   95MOL0     H12499  12.675   1.431   3.580  1.7679  4.1118  2.1996
   95MOL0     H12500  12.444   1.449   3.659 -0.4252  1.2184  1.9329
   95MOL0     H12501  12.479   1.308   3.777 -2.7548 -1.4841 -2.0662
   95MOL0     H12502  12.254   1.343   3.731  0.0408 -1.7830  0.8967
   95MOL0     H12503  12.005   1.295   3.668 -1.2683 -2.1472 -0.5373
   95MOL0     H12504  11.718   1.278   3.249 -2.0731  0.3155  2.1758
   95MOL0     H12505  11.491   1.269   3.205 -0.2527  0.2275  0.4166
   95MOL0     H12506  11.144   1.036   3.272 -0.7373 -1.6124  0.0402
   95MOL0     H12507  11.254   0.913   3.349  1.1487 -0.8249 -0.9756
   95MOL0     H12508  11.146   0.810   3.163  1.5991 -1.2011  0.3330
   95MOL0     H12509  11.320   0.818   3.138 -0.8641 -1.6543 -0.0482
   95MOL0     H12510  11.208   0.873   2.939  2.2773  0.1517  0.4241
   95MOL0     H12511  11.264   1.029   2.991  1.3602 -1.7115  0.7902
   95MOL0     H12512  10.972   0.924   3.027 -0.4508  0.4475  2.2795
   95MOL0     H12513  11.038   1.088   3.083  2.6589 -0.0866  1.6565
   95MOL0     H12514  10.895   1.117   2.880 -0.6070 -0.0769 -1.4496
   95MOL0     H12515  11.006   1.005   2.802 -0.1504  0.6207 -0.7076
   95MOL0     H12516  11.058   1.232   2.737  1.0098 -0.9959 -1.0536
   95MOL0     H12517  11.184   1.157   2.810 -1.5101  0.5542 -3.8736
   95MOL0     H12518  11.001   1.391   2.930  0.9216  2.3119  0.1834
   95MOL0     H12519  11.096   1.297   3.043  0.0723 -1.4581 -1.4119
   95MOL0     H12520  11.197   1.456   2.804  2.5443 -1.0232 -1.7217
   95MOL0     H12521  11.296   1.330   2.880  0.1431  0.6843  1.2296
   95MOL0     H12522  11.482   0.850   3.331  2.3264 -0.7516 -1.0578
   95MOL0     H12523  11.719   0.882   3.394 -3.0755 -2.7046 -1.6649
   95MOL0     H12524  12.124   1.081   3.324 -0.3543  0.2797 -0.0329
   95MOL0     H12525  12.365   1.131   3.378  2.6038  2.7261  2.4871
   95MOL0     H12526  11.309   1.462   3.887 -1.2049  1.6133  0.1773
   95MOL0     H12527  11.135   1.482   3.711  0.1344  1.1366 -0.2498
   95MOL0     H12528  11.007   1.550   3.323 -0.2000  1.7238 -0.8273
   95MOL0     H12529  10.846   1.581   3.164  0.2046 -0.8484 -1.3950
   95MOL0     H12530  10.460   1.427   3.015  0.8073  1.6010  1.2134
   95MOL0     H12531  10.507   1.294   3.115 -4.6933  1.9278  0.0754
   95MOL0     H12532  10.622   1.391   2.842 -0.4190  3.0479  3.8650
   95MOL0     H12533  10.699   1.261   2.925  1.6314  0.4347 -3.4660
   95MOL0     H12534  10.528   1.219   2.740 -0.6556  0.8404 -1.1380
   95MOL0     H12535  10.404   1.233   2.857  0.0119  0.7613  1.7293
   95MOL0     H12536  10.458   0.992   2.798  2.3962  0.0459 -2.1021
   95MOL0     H12537  10.618   1.023   2.863 -0.3982  0.9697  0.4456
   95MOL0     H12538  10.407   1.035   3.225 -1.8169 -0.9195 -0.9264
   95MOL0     H12539  10.680   1.199   3.207  0.6659 -1.4327 -2.2373
   95MOL0     H12540  10.885   1.116   3.316 -0.0957 -0.3554 -0.1762
   96MOL0     O12541   3.826   1.515   9.198 -0.5228  0.1880  0.0503
   96MOL0     C12542   3.907   1.487   9.111 -0.8585  0.0881 -0.0292
   96MOL0     O12543   4.035   1.547   9.103  1.2384 -0.3674 -0.1252
   96MOL0     C12544   4.086   1.618   9.206  1.0405  0.5207 -0.3572
   96MOL0     C12545   4.136   1.747   9.177  0.1209  0.0482  0.6806
   96MOL0     C12546   4.193   1.823   9.285  0.3761  0.8543  0.7814
   96MOL0     C12547   4.197   1.774   9.413 -0.8633 -1.0474  0.6964
   96MOL0     O12548   4.261   1.857   9.506  0.5965  0.7771  0.1923
   96MOL0     C12549   4.394   1.901   9.468 -0.3066 -0.6216  0.0521
   96MOL0     C12550   4.413   2.058   9.508 -0.0999 -0.1277  0.4034
   96MOL0     C12551   4.555   2.101   9.493  0.5708 -0.3082 -0.2571
   96MOL0     C12552   4.670   2.002   9.554 -1.1232 -0.5100 -0.0252
   96MOL0     C12553   4.783   2.096   9.568  0.2918 -0.4785 -0.4260
   96MOL0     C12554   4.912   2.016   9.571 -0.3469  0.7882 -1.0520
   96MOL0     C12555   5.030   2.097   9.634 -0.5136  0.8115 -0.5092
   96MOL0     C12556   5.088   2.204   9.542  0.6523  0.6115 -0.4442
   96MOL0     N12557   5.232   2.199   9.556 -0.5731 -0.3928  0.0415
   96MOL0     C12558   5.303   2.280   9.633  0.0619 -0.0256  0.0984
   96MOL0     C12559   5.429   2.234   9.614  0.5337 -0.8436 -0.1751
   96MOL0     C12560   5.544   2.306   9.671 -0.0998 -1.1168 -0.4427
   96MOL0     C12561   5.670   2.220   9.667  1.1102  0.1094 -0.1439
   96MOL0     C12562   5.777   2.274   9.767 -0.0442  0.5592 -1.2833
   96MOL0     C12563   5.741   2.266   9.917  0.1147 -0.1298  0.1711
   96MOL0     O12564   5.649   2.157   9.935 -0.7670  0.2830  0.0266
   96MOL0     C12565   5.555   2.177  10.036 -0.2726  0.6315 -0.7846
   96MOL0     C12566   5.581   2.242  10.165 -0.4295  0.0507 -0.3503
   96MOL0     C12567   5.485   2.253  10.262 -0.3932  0.0914  0.6998
   96MOL0     C12568   5.365   2.179  10.253 -0.2439 -0.3535 -0.6005
   96MOL0     C12569   5.259   2.210  10.352 -0.2180 -0.0291 -0.7755
   96MOL0     O12570   5.284   2.323  10.441  0.9803 -0.2788 -0.2490
   96MOL0     C12571   5.184   2.366  10.532 -1.0340  0.4112 -0.1625
   96MOL0     C12572   5.128   2.284  10.625  0.1759 -0.9730 -0.4050
   96MOL0     C12573   5.040   2.343  10.719 -0.1363 -0.8911  0.4773
   96MOL0     C12574   5.003   2.475  10.725  0.4077 -0.2704 -0.3456
   96MOL0     O12575   4.908   2.527  10.809 -0.0141 -0.3209 -0.1822
   96MOL0     C12576   4.882   2.439  10.922 -0.5270 -0.9563 -1.2434
   96MOL0     C12577   4.847   2.542  11.034 -0.1599 -0.1015  0.0449
   96MOL0     C12578   4.828   2.476  11.171  0.5480  0.0548 -0.3340
   96MOL0     C12579   4.792   2.577  11.285 -0.6172  0.2148  0.0594
   96MOL0     C12580   4.914   2.630  11.354  0.9419  0.5330 -0.2877
   96MOL0     C12581   4.871   2.695  11.490 -0.0172  0.0768 -0.2872
   96MOL0     C12582   4.774   2.816  11.468  1.3721 -0.4290  0.7039
   96MOL0     C12583   4.768   2.894  11.612 -0.6780  0.4252  0.5432
   96MOL0    Cl12584   4.696   2.798  11.740  0.1387 -0.6544  0.0199
   96MOL0     C12585   5.065   2.560  10.641  0.3071 -0.5277  1.2162
   96MOL0     C12586   5.155   2.504  10.542 -0.9397 -0.3310  0.3790
   96MOL0     O12587   5.154   2.140  10.354  0.1142  0.2767  0.1475
   96MOL0     C12588   5.338   2.109  10.133 -0.7362 -0.5361  0.5431
   96MOL0     C12589   5.431   2.111  10.023  0.5099 -0.1883  0.2084
   96MOL0     N12590   5.423   2.119   9.534 -1.6172 -0.3891 -0.3767
   96MOL0     N12591   5.308   2.105   9.503  1.6450  0.1693  0.0367
   96MOL0     C12592   4.161   1.642   9.437 -0.3488 -0.2512 -0.3239
   96MOL0     C12593   4.104   1.563   9.339  0.0244  0.5994  0.8471
   96MOL0     C12594   3.875   1.398   9.008 -0.7655  0.0125 -0.1892
   96MOL0     C12595   3.975   1.328   8.954 -0.1977 -0.5734  0.5223
   96MOL0     C12596   3.947   1.221   8.863  0.1125  0.1312  0.0172
   96MOL0     C12597   3.826   1.192   8.820 -0.1549 -0.0501 -0.0034
   96MOL0     O12598   3.823   1.091   8.733 -0.2414  0.4223  0.9134
   96MOL0     C12599   3.690   1.050   8.679  0.0601 -0.0363 -0.1737
   96MOL0     C12600   3.687   0.973   8.542 -0.6804  0.7722  0.0059
   96MOL0     C12601   3.545   0.921   8.515  0.8322  1.1310 -0.3886
   96MOL0     C12602   3.554   0.877   8.372 -0.0907  0.2580 -0.2352
   96MOL0     C12603   3.459   0.950   8.291 -0.4417  0.3238  0.7186
   96MOL0     C12604   3.378   1.004   8.219 -0.2530  0.0879  0.0593
   96MOL0     C12605   3.720   1.259   8.886  0.2988 -0.0945 -0.0500
   96MOL0     C12606   3.742   1.359   8.976  0.1798 -0.7039 -0.2116
   96MOL0     H12607   4.127   1.783   9.075  2.0414 -1.1987  0.0305
   96MOL0     H12608   4.231   1.917   9.248 -2.8188  2.4953  1.2960
   96MOL0     H12609   4.419   1.878   9.364  1.6096  0.2766  0.2720
   96MOL0     H12610   4.462   1.840   9.528 -0.8523 -1.2225  0.0778
   96MOL0     H12611   4.366   2.082   9.604  0.8820  0.6184  0.7113
   96MOL0     H12612   4.362   2.116   9.430  0.4537  0.8764  0.7747
   96MOL0     H12613   4.567   2.198   9.543 -1.0530  0.5851 -1.4819
   96MOL0     H12614   4.574   2.122   9.387  0.8077  1.3511  0.0745
   96MOL0     H12615   4.641   1.959   9.650 -5.2860 -1.4591 -1.5096
   96MOL0     H12616   4.701   1.926   9.481  0.8869 -0.0085  0.2320
   96MOL0     H12617   4.772   2.172   9.646 -2.3838 -0.6624 -0.5313
   96MOL0     H12618   4.800   2.156   9.478  1.8650 -2.4034 -1.5085
   96MOL0     H12619   4.933   1.971   9.474  1.1985  3.6718 -2.1770
   96MOL0     H12620   4.894   1.938   9.646 -2.1969  2.8728  0.8399
   96MOL0     H12621   4.999   2.132   9.733 -1.1849 -0.4011 -0.2759
   96MOL0     H12622   5.103   2.017   9.643 -0.2788  1.1475  0.7967
   96MOL0     H12623   5.040   2.299   9.568 -0.2989  0.3546 -1.2181
   96MOL0     H12624   5.057   2.164   9.446 -0.3410 -1.0684  0.5239
   96MOL0     H12625   5.268   2.358   9.699 -1.4040 -3.1381  3.3059
   96MOL0     H12626   5.511   2.324   9.773  0.0387  0.3500 -0.6320
   96MOL0     H12627   5.565   2.397   9.614  0.3403 -1.0138 -0.1138
   96MOL0     H12628   5.713   2.214   9.566  0.8004 -0.6984 -0.2271
   96MOL0     H12629   5.639   2.121   9.699 -2.1453  1.7267  2.2285
   96MOL0     H12630   5.865   2.211   9.753  1.0616  2.1509 -1.6590
   96MOL0     H12631   5.807   2.372   9.730  0.9191  0.2791 -1.2715
   96MOL0     H12632   5.702   2.361   9.953 -2.2770 -0.8835 -0.2409
   96MOL0     H12633   5.824   2.238   9.983 -1.3891 -0.1022  2.1424
   96MOL0     H12634   5.687   2.263  10.171  1.1400 -5.4697 -2.7966
   96MOL0     H12635   5.502   2.307  10.355 -0.4387  0.8587  0.2715
   96MOL0     H12636   5.169   2.184  10.632 -0.3241 -1.1170  0.6126
   96MOL0     H12637   5.003   2.268  10.788 -1.8586  1.0850  1.8274
   96MOL0     H12638   4.970   2.397  10.972  0.1706  2.8318  1.1392
   96MOL0     H12639   4.796   2.372  10.915 -1.1316 -0.6953  2.1191
   96MOL0     H12640   4.765   2.610  11.009  0.9923  1.8615  1.3374
   96MOL0     H12641   4.928   2.615  11.042 -0.6942  1.0480 -3.5484
   96MOL0     H12642   4.919   2.422  11.198  1.0181 -1.0182 -3.5584
   96MOL0     H12643   4.758   2.391  11.161 -1.6503  1.5374  1.5012
   96MOL0     H12644   4.720   2.643  11.235 -2.1014 -1.3537 -0.0033
   96MOL0     H12645   4.741   2.516  11.361  1.8158 -2.4744 -0.2924
   96MOL0     H12646   4.956   2.711  11.294 -2.1649  0.7183 -2.4688
   96MOL0     H12647   4.984   2.549  11.376  0.5621  1.0506  3.5420
   96MOL0     H12648   4.965   2.724  11.538 -1.0279 -0.0670  1.8472
   96MOL0     H12649   4.823   2.619  11.552  0.9859  0.9898  1.7049
   96MOL0     H12650   4.824   2.888  11.403 -0.5706 -0.0516 -0.4667
   96MOL0     H12651   4.673   2.793  11.433  1.4140  0.9112 -0.3821
   96MOL0     H12652   4.728   2.996  11.603  3.3663  2.0544 -1.6369
   96MOL0     H12653   4.872   2.908  11.641  0.1437 -2.5352 -0.6208
   96MOL0     H12654   5.032   2.663  10.638  1.3586 -0.2033 -0.9582
   96MOL0     H12655   5.196   2.576  10.472 -2.0778  0.3862  0.4167
   96MOL0     H12656   5.248   2.048  10.128 -0.2251 -1.3506  0.9709
   96MOL0     H12657   5.409   2.059   9.930 -1.1480 -0.2935  0.6249
   96MOL0     H12658   4.157   1.587   9.531  0.3750  0.9280  0.4414
   96MOL0     H12659   4.081   1.460   9.364  3.5923 -0.6921 -0.4527
   96MOL0     H12660   4.081   1.341   8.974 -0.2569 -1.7881  1.8934
   96MOL0     H12661   4.017   1.161   8.806 -0.1970 -0.8994  0.6936
   96MOL0     H12662   3.624   1.137   8.668 -0.5810 -0.6865 -1.7678
   96MOL0     H12663   3.651   0.985   8.757  1.2086  1.4064  1.6847
   96MOL0     H12664   3.720   1.031   8.455  0.6718  0.5836  0.3724
   96MOL0     H12665   3.746   0.883   8.561 -0.7288  0.6882 -0.2461
   96MOL0     H12666   3.468   0.996   8.535  1.4961  1.4026  1.3011
   96MOL0     H12667   3.512   0.836   8.575 -2.8118  1.6326 -1.4260
   96MOL0     H12668   3.652   0.896   8.328  0.6670 -0.2678  1.1579
   96MOL0     H12669   3.530   0.771   8.362  0.3050  0.3134 -2.0079
   96MOL0     H12670   3.306   1.071   8.176  1.6137  1.6036 -0.9129
   96MOL0     H12671   3.620   1.221   8.872  1.5042 -3.4402 -0.4777
   96MOL0     H12672   3.652   1.413   9.007 -0.3184 -1.5712 -0.1117
   97MOL0     O12673   6.179   7.182   3.405  0.2108 -0.5679 -0.1079
   97MOL0     C12674   6.170   7.310   3.429 -0.7293  1.2790  0.4498
   97MOL0     O12675   6.271   7.389   3.455 -0.9038 -0.4051  0.1809
   97MOL0     C12676   6.399   7.341   3.463  0.4998  0.4387  0.3783
   97MOL0     C12677   6.449   7.299   3.588 -0.0177 -0.5320 -0.2337
   97MOL0     C12678   6.580   7.257   3.600  0.8713 -0.3990 -0.0203
   97MOL0     C12679   6.658   7.242   3.493 -0.3671  0.9191 -0.3958
   97MOL0     O12680   6.780   7.185   3.513 -0.4684  0.2943 -0.8119
   97MOL0     C12681   6.890   7.187   3.420 -0.3583  1.3315 -0.3067
   97MOL0     C12682   7.026   7.199   3.500 -0.2982 -0.0103 -0.5489
   97MOL0     C12683   7.040   7.111   3.631  0.2125 -0.5363 -0.1095
   97MOL0     C12684   7.184   7.104   3.679 -0.3176  0.1042 -0.4327
   97MOL0     C12685   7.195   7.093   3.831 -0.1362  0.4138  0.0400
   97MOL0     C12686   7.165   6.955   3.881 -0.1819 -1.2763 -0.2394
   97MOL0     C12687   7.202   6.940   4.028 -0.6638 -0.8792 -0.1376
   97MOL0     C12688   7.109   6.996   4.130  0.4326 -0.3168  0.2290
   97MOL0     N12689   6.971   6.956   4.124  1.1148 -0.4350 -0.0025
   97MOL0     C12690   6.878   7.038   4.057 -0.1245  0.0729 -0.3679
   97MOL0     C12691   6.766   6.962   4.062 -0.6570  0.6153  0.2037
   97MOL0     C12692   6.645   7.000   3.975 -0.9160 -1.3321 -0.7202
   97MOL0     C12693   6.521   7.028   4.058  0.0241  0.0281 -0.4386
   97MOL0     C12694   6.415   7.079   3.958 -0.4758 -0.1464  0.7791
   97MOL0     C12695   6.280   7.120   4.009  1.0842 -0.4736  0.5750
   97MOL0     O12696   6.215   7.140   3.888 -0.2252  0.2195  0.8119
   97MOL0     C12697   6.075   7.144   3.882  0.1590 -0.2182 -0.3123
   97MOL0     C12698   5.990   7.124   3.997  0.2937 -0.3275  0.5028
   97MOL0     C12699   5.851   7.117   3.985 -0.8099  0.1926 -0.8508
   97MOL0     C12700   5.794   7.132   3.863  0.6449 -0.0560  1.4238
   97MOL0     C12701   5.647   7.121   3.846  0.1883  0.4270 -0.8780
   97MOL0     O12702   5.580   7.184   3.736  0.1661 -0.1077  0.3003
   97MOL0     C12703   5.447   7.171   3.717 -0.1299  1.0952  0.1481
   97MOL0     C12704   5.399   7.090   3.606 -0.3530 -0.5897 -0.4697
   97MOL0     C12705   5.265   7.089   3.573  0.2078 -0.1481 -1.0574
   97MOL0     C12706   5.171   7.160   3.654 -0.3708 -0.4366  0.6132
   97MOL0     O12707   5.035   7.158   3.626  0.5490  0.2089 -0.5038
   97MOL0     C12708   4.973   7.067   3.536 -0.2951  0.0038  0.3321
   97MOL0     C12709   4.823   7.093   3.524  0.1471 -0.1880  0.3673
   97MOL0     C12710   4.778   7.228   3.461  0.2408  1.3809 -0.2313
   97MOL0     C12711   4.628   7.249   3.473  0.1901  0.0525  0.5439
   97MOL0     C12712   4.549   7.178   3.353 -0.7028 -0.0514  0.1053
   97MOL0     C12713   4.404   7.191   3.368 -0.7685  0.1492 -0.4830
   97MOL0     C12714   4.329   7.105   3.477  0.4865 -0.5763 -0.6010
   97MOL0     C12715   4.173   7.090   3.444  0.2269  0.2722 -0.0147
   97MOL0    Cl12716   4.145   6.928   3.379  0.2523  0.1424 -0.5704
   97MOL0     C12717   5.215   7.244   3.761 -0.1020 -0.1560 -0.4096
   97MOL0     C12718   5.353   7.248   3.794  0.3297  0.9173  0.8141
   97MOL0     O12719   5.586   7.060   3.936 -0.5698 -0.0664 -0.0580
   97MOL0     C12720   5.875   7.170   3.753  0.3525  0.3357  0.2702
   97MOL0     C12721   6.009   7.174   3.762  0.3708  0.3924 -0.5364
   97MOL0     N12722   6.783   6.852   4.149 -0.8636 -0.2551  0.6720
   97MOL0     N12723   6.907   6.858   4.184 -1.0329  0.2628  0.0762
   97MOL0     C12724   6.609   7.278   3.365 -0.2842  0.3538  0.1130
   97MOL0     C12725   6.488   7.333   3.351  0.1149  0.0482 -0.7090
   97MOL0     C12726   6.032   7.360   3.442  0.3182 -0.5548 -0.2857
   97MOL0     C12727   5.930   7.268   3.408  0.4284  0.3839 -1.0030
   97MOL0     C12728   5.802   7.323   3.426 -0.3552 -0.2944 -0.4636
   97MOL0     C12729   5.769   7.446   3.474  0.9547 -0.8456  0.1705
   97MOL0     O12730   5.643   7.503   3.494  0.4005  0.2036 -1.2384
   97MOL0     C12731   5.527   7.436   3.436  0.9478 -0.1373 -0.4065
   97MOL0     C12732   5.392   7.489   3.494  0.1231 -0.6399 -0.6064
   97MOL0     C12733   5.381   7.641   3.506 -0.7004 -0.0018 -0.7775
   97MOL0     C12734   5.375   7.726   3.380 -0.4085 -0.5379 -0.2334
   97MOL0     C12735   5.382   7.866   3.420  0.0470  1.3251 -0.0944
   97MOL0     C12736   5.385   7.985   3.436  0.4787  0.0793 -0.0468
   97MOL0     C12737   5.871   7.531   3.523  0.8640  0.0061 -0.1189
   97MOL0     C12738   6.004   7.479   3.505 -0.3110  0.5336 -0.9127
   97MOL0     H12739   6.390   7.308   3.679  0.6214  2.1329  0.0004
   97MOL0     H12740   6.612   7.252   3.703 -1.4758  0.1731  0.8090
   97MOL0     H12741   6.876   7.258   3.338 -2.2595  0.6512 -0.6389
   97MOL0     H12742   6.880   7.086   3.378  2.1227  0.0001  1.9605
   97MOL0     H12743   7.036   7.307   3.518  0.3955  0.2257 -2.1435
   97MOL0     H12744   7.103   7.170   3.427 -0.7542 -0.2068 -0.9532
   97MOL0     H12745   7.003   7.009   3.622  0.0237 -0.7654  2.3895
   97MOL0     H12746   6.974   7.159   3.705  1.8040 -0.9642  1.6694
   97MOL0     H12747   7.233   7.025   3.622 -1.7843 -0.5006 -0.9185
   97MOL0     H12748   7.231   7.201   3.660  0.2238  0.2342  1.3805
   97MOL0     H12749   7.130   7.171   3.874  0.8888  1.2063  0.1756
   97MOL0     H12750   7.293   7.128   3.866 -0.6077  2.9850 -0.9344
   97MOL0     H12751   7.232   6.881   3.837 -1.2283 -2.8060  0.6421
   97MOL0     H12752   7.060   6.927   3.868  0.3779 -4.1462  0.6575
   97MOL0     H12753   7.211   6.833   4.047  0.0836 -1.3263 -2.6224
   97MOL0     H12754   7.305   6.970   4.049 -0.3260 -1.9230 -0.2531
   97MOL0     H12755   7.116   7.105   4.132  2.9493 -0.4370  0.6874
   97MOL0     H12756   7.148   6.958   4.226  0.3631  3.0342  1.7150
   97MOL0     H12757   6.894   7.122   3.991 -4.0095  1.2826  0.0063
   97MOL0     H12758   6.623   6.923   3.901 -3.1570 -0.7647 -0.7331
   97MOL0     H12759   6.662   7.098   3.929 -3.7992 -0.0092  0.7478
   97MOL0     H12760   6.532   7.115   4.123 -0.3715  1.2764 -1.9724
   97MOL0     H12761   6.502   6.935   4.112  0.6824  1.2796  2.1178
   97MOL0     H12762   6.451   7.167   3.903  2.2300 -0.8558  1.2997
   97MOL0     H12763   6.398   7.002   3.883 -3.3626  1.0182  0.1011
   97MOL0     H12764   6.297   7.215   4.061  0.8785 -0.4262  0.5565
   97MOL0     H12765   6.231   7.044   4.070 -1.2535 -0.8266 -1.5620
   97MOL0     H12766   6.045   7.118   4.091  0.7365 -4.2128  0.1507
   97MOL0     H12767   5.790   7.109   4.074 -1.6942 -0.8772 -1.5105
   97MOL0     H12768   5.473   7.020   3.569 -1.5873 -1.6669 -0.9598
   97MOL0     H12769   5.235   7.024   3.490  0.5003  0.0171 -1.2947
   97MOL0     H12770   4.975   6.965   3.576  1.3143 -0.4856 -0.9161
   97MOL0     H12771   5.028   7.062   3.442  2.1057  2.0613  1.5298
   97MOL0     H12772   4.767   7.093   3.618 -2.0291  3.1036 -0.7365
   97MOL0     H12773   4.796   7.008   3.461  1.4461  0.7199 -1.5190
   97MOL0     H12774   4.803   7.227   3.355 -2.2264 -0.6209 -0.9058
   97MOL0     H12775   4.829   7.311   3.511  0.4066  2.3227 -1.8856
   97MOL0     H12776   4.591   7.214   3.569 -0.2647 -2.9453 -0.6113
   97MOL0     H12777   4.603   7.355   3.482  0.1030 -0.1571  4.1500
   97MOL0     H12778   4.589   7.077   3.362 -0.1035 -0.0170 -1.7709
   97MOL0     H12779   4.576   7.221   3.256  0.3421 -2.1730 -0.6084
   97MOL0     H12780   4.369   7.159   3.270  2.3803  0.0028 -1.6570
   97MOL0     H12781   4.397   7.297   3.395  0.5606  0.4792 -1.3432
   97MOL0     H12782   4.369   7.005   3.496 -1.5376 -2.0329 -3.3759
   97MOL0     H12783   4.355   7.155   3.571 -0.6255 -2.9921  1.0954
   97MOL0     H12784   4.141   7.177   3.387  4.0760  0.4908 -2.1646
   97MOL0     H12785   4.136   7.096   3.547  2.0539  2.0345  0.6160
   97MOL0     H12786   5.152   7.289   3.837  1.3750 -1.8256  1.9710
   97MOL0     H12787   5.393   7.309   3.874  0.8696 -0.0731  1.3224
   97MOL0     H12788   5.824   7.194   3.660 -0.1162  0.5153  0.5686
   97MOL0     H12789   6.065   7.203   3.673  1.5621 -0.6232 -0.1471
   97MOL0     H12790   6.678   7.273   3.282  0.8738 -1.0447  1.1081
   97MOL0     H12791   6.453   7.369   3.255 -1.9515 -1.3421 -0.5377
   97MOL0     H12792   5.946   7.169   3.367 -2.1011 -0.1701 -0.8554
   97MOL0     H12793   5.715   7.268   3.390 -0.4507 -1.0916  0.9119
   97MOL0     H12794   5.540   7.332   3.465  2.5304  0.2841  0.5481
   97MOL0     H12795   5.517   7.439   3.327 -0.1273 -2.9981 -0.4675
   97MOL0     H12796   5.308   7.458   3.432 -1.1568  1.6808 -0.1619
   97MOL0     H12797   5.376   7.449   3.595 -3.5744 -0.3987 -0.9701
   97MOL0     H12798   5.462   7.673   3.572 -1.8860 -0.9733  1.2406
   97MOL0     H12799   5.292   7.670   3.562 -0.6789 -1.4551  0.0377
   97MOL0     H12800   5.459   7.708   3.312 -0.8513 -0.1087 -0.8975
   97MOL0     H12801   5.284   7.710   3.322 -1.2128  5.4764 -1.2741
   97MOL0     H12802   5.397   8.089   3.458 -0.0509 -0.7290  5.5421
   97MOL0     H12803   5.846   7.623   3.575 -1.6954 -0.6297 -0.0799
   97MOL0     H12804   6.091   7.531   3.545  1.3240 -2.4442 -0.3252
   98MOL0     O12805   2.228  10.907   3.909  0.5866  0.2068 -0.1144
   98MOL0     C12806   2.137  10.868   3.974 -0.4632 -0.4884  0.4671
   98MOL0     O12807   2.101  10.738   3.992  0.5969 -0.2718 -0.1288
   98MOL0     C12808   2.173  10.637   3.948 -1.1959  0.5010 -0.2546
   98MOL0     C12809   2.230  10.618   3.820  0.1481 -0.2153  0.6395
   98MOL0     C12810   2.306  10.501   3.799  0.0079 -0.2944  0.0969
   98MOL0     C12811   2.312  10.395   3.882  0.2489  0.1782 -0.3734
   98MOL0     O12812   2.365  10.273   3.860 -0.8088 -0.3481 -0.7158
   98MOL0     C12813   2.470  10.231   3.957 -0.9330 -0.6625 -0.0584
   98MOL0     C12814   2.610  10.268   3.896 -0.0724 -0.2007  0.5675
   98MOL0     C12815   2.729  10.211   3.980 -0.4372 -0.1651  0.7012
   98MOL0     C12816   2.872  10.249   3.922 -0.7438  0.5687 -0.1780
   98MOL0     C12817   2.980  10.213   4.017 -0.4418  0.4248 -0.3227
   98MOL0     C12818   3.115  10.247   3.943 -0.4454  0.8543 -0.5059
   98MOL0     C12819   3.239  10.203   4.015 -0.0712  0.2720 -0.7490
   98MOL0     C12820   3.283  10.057   3.997  0.1819 -0.0478 -0.8139
   98MOL0     N12821   3.334  10.011   4.131 -0.5386 -0.6137 -0.5133
   98MOL0     C12822   3.262   9.936   4.224  0.4535  0.2743 -0.2780
   98MOL0     C12823   3.350   9.911   4.323  0.0313 -0.0814 -0.6067
   98MOL0     C12824   3.320   9.829   4.444  0.0318 -1.2099  0.0596
   98MOL0     C12825   3.313   9.905   4.581  0.3389  0.1968  0.4054
   98MOL0     C12826   3.446   9.966   4.615  0.4999 -0.7642 -0.2701
   98MOL0     C12827   3.444  10.053   4.749 -0.2943  0.6772 -0.7717
   98MOL0     O12828   3.468   9.973   4.864  0.5681  0.2133 -0.2640
   98MOL0     C12829   3.602   9.943   4.906 -0.4793 -0.4554  1.2494
   98MOL0     C12830   3.617   9.852   5.004 -0.1442 -0.7274 -0.1346
   98MOL0     C12831   3.745   9.823   5.046 -0.6282 -0.3429  0.6105
   98MOL0     C12832   3.864   9.867   4.984 -0.3429  0.6723  0.3536
   98MOL0     C12833   3.993   9.810   5.034 -0.3833  0.2827  0.2982
   98MOL0     O12834   4.109   9.860   4.979  0.1183 -0.3411  0.4656
   98MOL0     C12835   4.237   9.818   5.025 -0.8116 -0.2822  0.0445
   98MOL0     C12836   4.274   9.681   5.013 -0.1476  0.0495 -0.0078
   98MOL0     C12837   4.401   9.642   5.054 -0.8951 -0.3656 -1.2224
   98MOL0     C12838   4.484   9.732   5.122 -0.7635  1.0562  0.0051
   98MOL0     O12839   4.611   9.690   5.166  0.7375 -0.0551 -0.5166
   98MOL0     C12840   4.648   9.549   5.159 -0.0552 -0.2951  0.5879
   98MOL0     C12841   4.789   9.508   5.202  1.4926  0.4360 -0.7935
   98MOL0     C12842   4.905   9.545   5.111 -0.3527  0.0337  0.3141
   98MOL0     C12843   4.901   9.697   5.067  0.5651 -0.3175 -0.2907
   98MOL0     C12844   4.899   9.804   5.186  0.4140  0.3562 -0.2577
   98MOL0     C12845   5.037   9.798   5.244 -0.7126  0.0195 -0.2201
   98MOL0     C12846   5.077   9.926   5.316 -0.7053  0.9187 -0.4691
   98MOL0     C12847   5.131  10.029   5.217 -0.8184 -0.9986  0.5224
   98MOL0    Cl12848   5.317  10.004   5.211 -0.1487  0.0682 -0.0185
   98MOL0     C12849   4.443   9.863   5.151  0.1120  0.0217  0.8164
   98MOL0     C12850   4.328   9.911   5.099 -0.3186  1.4714 -0.6655
   98MOL0     O12851   3.990   9.718   5.118  0.2887  0.7052 -0.5252
   98MOL0     C12852   3.855   9.941   4.864  0.0830 -0.1612 -0.1493
   98MOL0     C12853   3.719   9.978   4.829 -0.5051  0.2947 -0.3560
   98MOL0     N12854   3.467   9.976   4.293 -0.5301  0.0919 -0.3332
   98MOL0     N12855   3.461  10.034   4.179  1.0201 -0.5933  0.6850
   98MOL0     C12856   2.249  10.414   4.004  0.4509 -0.0474  0.2052
   98MOL0     C12857   2.186  10.538   4.040  0.1337 -0.3128  1.1965
   98MOL0     C12858   2.052  10.974   4.035  0.4464 -0.4284 -0.3984
   98MOL0     C12859   1.939  10.922   4.110 -0.4442  0.1293 -0.7100
   98MOL0     C12860   1.843  11.015   4.149 -1.2019  0.1118 -0.1054
   98MOL0     C12861   1.847  11.150   4.102 -0.4748  0.6688 -0.6055
   98MOL0     O12862   1.753  11.242   4.136  0.4368 -0.1791 -0.2426
   98MOL0     C12863   1.646  11.249   4.034 -0.4451 -0.3774  0.1393
   98MOL0     C12864   1.507  11.299   4.100 -0.8227 -0.1850 -0.0939
   98MOL0     C12865   1.384  11.290   4.012 -0.1971  0.1583 -0.4242
   98MOL0     C12866   1.376  11.400   3.923  0.2693 -0.1833 -0.0610
   98MOL0     C12867   1.252  11.387   3.840  0.2030  0.0248 -0.6066
   98MOL0     C12868   1.154  11.393   3.774  0.7157 -0.3359 -0.0639
   98MOL0     C12869   1.952  11.189   4.025  0.6048 -0.1239 -0.8218
   98MOL0     C12870   2.064  11.108   3.997  0.3464 -0.4064  0.7120
   98MOL0     H12871   2.223  10.693   3.742  2.3366  1.6150  2.0661
   98MOL0     H12872   2.362  10.476   3.710  0.8347 -2.1244  1.0624
   98MOL0     H12873   2.462  10.124   3.980  0.2330 -0.4942  1.2415
   98MOL0     H12874   2.459  10.273   4.057 -3.1513 -2.4158  0.5007
   98MOL0     H12875   2.607  10.376   3.880  0.1662 -0.2951 -0.1921
   98MOL0     H12876   2.603  10.229   3.794 -2.3515  3.0264 -0.6683
   98MOL0     H12877   2.730  10.104   4.000 -0.6733  0.0800  2.1132
   98MOL0     H12878   2.713  10.258   4.078 -0.1141 -1.5484  1.4410
   98MOL0     H12879   2.887  10.196   3.828  2.5810  0.8108  0.0780
   98MOL0     H12880   2.883  10.354   3.893 -1.5428  0.4126 -1.0836
   98MOL0     H12881   2.969  10.107   4.041  0.4536  0.7498  1.7714
   98MOL0     H12882   2.971  10.285   4.099 -0.5506 -2.3172  2.2593
   98MOL0     H12883   3.123  10.352   3.914  1.8286  0.1683 -2.7910
   98MOL0     H12884   3.118  10.215   3.838 -2.3141  0.8989 -0.6109
   98MOL0     H12885   3.322  10.267   3.982  1.5707 -1.1783  0.3817
   98MOL0     H12886   3.231  10.237   4.119  0.7723  2.4154 -1.3215
   98MOL0     H12887   3.355  10.055   3.915 -0.7672  2.0994 -1.7862
   98MOL0     H12888   3.200   9.992   3.968  2.6437 -2.6519 -2.5350
   98MOL0     H12889   3.169   9.883   4.211 -0.5769  2.1162 -0.7981
   98MOL0     H12890   3.403   9.757   4.448 -1.5434 -3.1173  0.4157
   98MOL0     H12891   3.228   9.769   4.442  0.4576 -1.9146  0.6879
   98MOL0     H12892   3.294   9.822   4.650  0.6732 -1.0398 -0.9534
   98MOL0     H12893   3.226   9.970   4.567  0.5468 -0.1192 -3.2834
   98MOL0     H12894   3.502   9.873   4.630  1.8783 -0.4609 -3.0597
   98MOL0     H12895   3.494  10.021   4.535 -0.7515  0.8544  0.0393
   98MOL0     H12896   3.348  10.103   4.767 -0.8134  0.2998 -2.3703
   98MOL0     H12897   3.518  10.135   4.751 -1.2948  1.5919 -0.2455
   98MOL0     H12898   3.531   9.822   5.063  0.8787 -0.2432  1.6826
   98MOL0     H12899   3.746   9.756   5.132 -1.1479 -3.2594 -1.5265
   98MOL0     H12900   4.210   9.611   4.961 -2.3299  0.9360  1.3412
   98MOL0     H12901   4.441   9.544   5.031 -0.5149 -0.6225  0.4043
   98MOL0     H12902   4.645   9.509   5.057  0.0097 -0.8098  0.7871
   98MOL0     H12903   4.575   9.496   5.221 -1.7386 -1.7252 -2.4139
   98MOL0     H12904   4.789   9.399   5.210  2.5602  0.3441 -1.8049
   98MOL0     H12905   4.817   9.547   5.300  2.3839  0.1627 -0.9282
   98MOL0     H12906   4.915   9.485   5.021 -0.2840 -1.4373  1.2694
   98MOL0     H12907   4.998   9.535   5.169  0.8068  0.8555 -1.2985
   98MOL0     H12908   4.982   9.719   4.997  0.5837 -2.1492 -0.8844
   98MOL0     H12909   4.804   9.703   5.017  1.0263  0.5901 -1.1145
   98MOL0     H12910   4.824   9.774   5.260  0.5995 -0.0254 -0.2192
   98MOL0     H12911   4.883   9.908   5.156  2.5467  1.4340  2.0193
   98MOL0     H12912   5.114   9.758   5.178  0.4222 -1.7803  2.0296
   98MOL0     H12913   5.027   9.720   5.321 -2.1179 -1.2156 -1.5946
   98MOL0     H12914   4.987   9.976   5.353 -0.1866  3.3706 -2.3335
   98MOL0     H12915   5.152   9.894   5.389 -1.0186 -4.5268 -2.0770
   98MOL0     H12916   5.116  10.134   5.240  2.4527 -0.4112  0.3644
   98MOL0     H12917   5.074  10.013   5.124 -2.5644 -1.2183  1.5812
   98MOL0     H12918   4.507   9.922   5.215  0.6104 -0.4329  0.7405
   98MOL0     H12919   4.306  10.015   5.118  2.6534  2.5568 -2.5489
   98MOL0     H12920   3.933   9.980   4.801  1.5870 -1.2852  0.9292
   98MOL0     H12921   3.720  10.024   4.731  0.5949 -2.0082 -1.4803
   98MOL0     H12922   2.245  10.329   4.071  0.8015  0.2618  0.6226
   98MOL0     H12923   2.135  10.556   4.134 -0.0103  2.9501  0.6261
   98MOL0     H12924   1.929  10.818   4.142  0.9513  0.7801  2.2196
   98MOL0     H12925   1.758  10.987   4.209 -0.8487  1.5764  1.1332
   98MOL0     H12926   1.617  11.156   3.984 -2.5296 -0.2371  1.0209
   98MOL0     H12927   1.671  11.317   3.952 -2.2064 -2.0038 -1.8706
   98MOL0     H12928   1.489  11.238   4.188 -2.3922  4.1948  2.9583
   98MOL0     H12929   1.516  11.393   4.154 -0.0819 -1.3967  1.9931
   98MOL0     H12930   1.290  11.275   4.065  0.6806 -1.5033  0.7786
   98MOL0     H12931   1.395  11.202   3.948  0.5595  0.1245 -0.2637
   98MOL0     H12932   1.392  11.496   3.972 -1.2285  0.5226 -0.8912
   98MOL0     H12933   1.462  11.394   3.855  0.8268  0.2054  0.6017
   98MOL0     H12934   1.064  11.377   3.719  0.2684  0.4743  0.4117
   98MOL0     H12935   1.941  11.287   3.980 -0.0650  0.4606  0.5587
   98MOL0     H12936   2.143  11.138   3.929 -0.1174  1.6245  1.0028
   99MOL0     O12937   9.240   3.696   2.215 -0.1128 -0.2336 -0.2311
   99MOL0     C12938   9.263   3.631   2.118 -0.5059 -0.2591  0.1465
   99MOL0     O12939   9.378   3.568   2.083  0.3854 -0.2201 -0.3147
   99MOL0     C12940   9.483   3.551   2.177 -0.3847  0.0493  0.4574
   99MOL0     C12941   9.462   3.517   2.307 -0.2556 -0.1386  0.3121
   99MOL0     C12942   9.568   3.492   2.399  0.9935  0.3735  0.4617
   99MOL0     C12943   9.700   3.499   2.349  0.3095  0.2421 -0.3985
   99MOL0     O12944   9.806   3.488   2.438 -0.1776 -0.6361  0.3294
   99MOL0     C12945   9.812   3.590   2.534  0.7092  0.5015 -0.9295
   99MOL0     C12946   9.948   3.575   2.608  0.4330 -0.0652 -0.7846
   99MOL0     C12947   9.923   3.557   2.762  0.3234  0.2649  0.4580
   99MOL0     C12948   9.858   3.424   2.801 -0.4061 -0.5364  0.4509
   99MOL0     C12949   9.805   3.421   2.947  0.0703 -0.8037  0.0819
   99MOL0     C12950   9.903   3.493   3.038  0.3827  0.1045 -0.1213
   99MOL0     C12951   9.869   3.489   3.187  0.6046 -0.6406  0.6124
   99MOL0     C12952   9.981   3.535   3.278 -0.1964 -0.2448 -0.0815
   99MOL0     N12953   9.978   3.676   3.317 -0.2238 -0.3570  0.7364
   99MOL0     C12954   9.885   3.717   3.409  0.8703  0.1223  0.6476
   99MOL0     C12955   9.899   3.850   3.402 -0.3047 -0.4392 -0.7038
   99MOL0     C12956   9.823   3.959   3.479  0.5356  0.4435  0.5856
   99MOL0     C12957   9.906   3.996   3.599 -0.0181 -0.3767 -0.3448
   99MOL0     C12958  10.036   4.068   3.573 -0.4815 -0.1740 -0.5415
   99MOL0     C12959  10.147   4.058   3.675  0.6603 -0.0851 -0.6648
   99MOL0     O12960  10.130   4.091   3.816 -0.2491 -0.2832  0.0312
   99MOL0     C12961  10.070   4.212   3.823 -0.3881  0.7788  0.1683
   99MOL0     C12962   9.971   4.225   3.923  0.0725 -0.3426  0.1264
   99MOL0     C12963   9.899   4.344   3.941  0.1392  0.5052  0.0152
   99MOL0     C12964   9.927   4.452   3.852 -0.0646 -0.0005 -1.2830
   99MOL0     C12965   9.841   4.575   3.861  0.6190  0.2523 -0.3450
   99MOL0     O12966   9.889   4.695   3.823 -0.0334 -0.5190  0.5061
   99MOL0     C12967   9.801   4.803   3.838  0.8859 -0.7049 -0.2427
   99MOL0     C12968   9.775   4.886   3.721  0.0909  0.7001 -0.7444
   99MOL0     C12969   9.720   5.011   3.719  0.3770 -0.2272 -1.4819
   99MOL0     C12970   9.695   5.073   3.845  0.2989 -0.4584 -0.8544
   99MOL0     O12971   9.649   5.204   3.852  0.2452  0.1643 -0.1684
   99MOL0     C12972   9.534   5.232   3.779 -0.0807 -0.2468 -0.5627
   99MOL0     C12973   9.543   5.376   3.722  0.4602 -0.1465  0.1362
   99MOL0     C12974   9.669   5.395   3.635 -0.0532  0.4572  1.5625
   99MOL0     C12975   9.650   5.532   3.562  0.8488  0.1230  0.5297
   99MOL0     C12976   9.747   5.571   3.452  0.9740  0.0963 -0.3229
   99MOL0     C12977   9.877   5.609   3.521 -0.2147  0.3724 -1.0905
   99MOL0     C12978   9.982   5.655   3.421  0.0590  0.2506  0.1292
   99MOL0     C12979  10.109   5.710   3.482 -0.5983  0.0411  0.2597
   99MOL0    Cl12980  10.058   5.874   3.531  0.0133 -0.2590  0.3626
   99MOL0     C12981   9.726   5.001   3.963  0.0447  0.1788 -0.6085
   99MOL0     C12982   9.780   4.865   3.959 -0.0724  0.6421  0.5801
   99MOL0     O12983   9.728   4.555   3.904  0.8926  0.1506  0.3318
   99MOL0     C12984  10.026   4.441   3.756 -0.4529  0.9385 -0.0099
   99MOL0     C12985  10.102   4.326   3.746  0.3358  0.0126 -0.4121
   99MOL0     N12986  10.012   3.881   3.317  1.0297 -0.2031  0.1322
   99MOL0     N12987  10.057   3.774   3.262 -0.2731 -0.4666  0.2096
   99MOL0     C12988   9.723   3.528   2.214  0.2454  0.0792  0.1674
   99MOL0     C12989   9.612   3.554   2.126 -0.4939  0.8000 -0.7370
   99MOL0     C12990   9.149   3.620   2.030  0.5417  0.4211  0.7100
   99MOL0     C12991   9.149   3.518   1.923 -0.0603 -0.8297 -0.3371
   99MOL0     C12992   9.036   3.513   1.847 -0.0866  0.4600 -0.0609
   99MOL0     C12993   8.923   3.590   1.870 -0.6233  0.5523 -1.2602
   99MOL0     O12994   8.801   3.566   1.810  0.4524 -0.2584  0.2300
   99MOL0     C12995   8.779   3.434   1.750  0.0996 -0.6701  0.4399
   99MOL0     C12996   8.633   3.411   1.723 -0.3503 -0.7974 -1.0657
   99MOL0     C12997   8.601   3.311   1.607  0.0912 -0.7693 -1.2117
   99MOL0     C12998   8.701   3.190   1.615  0.2710  0.4405 -0.6824
   99MOL0     C12999   8.670   3.104   1.734  0.3876  0.1613  0.4039
   99MOL0     C13000   8.656   3.049   1.837  0.4591 -0.1236 -1.5313
   99MOL0     C13001   8.922   3.692   1.969  0.0024  0.2026 -1.5015
   99MOL0     C13002   9.033   3.704   2.046  0.2176  0.1189 -0.3731
   99MOL0     H13003   9.360   3.513   2.344  0.2845 -1.4052  1.7687
   99MOL0     H13004   9.547   3.470   2.503  0.5824 -1.4182  0.0384
   99MOL0     H13005   9.730   3.586   2.606  2.3682  0.2958  1.0233
   99MOL0     H13006   9.816   3.687   2.483 -1.2370  0.7165 -0.7299
   99MOL0     H13007  10.000   3.670   2.597 -1.4797  1.1009 -0.1053
   99MOL0     H13008  10.008   3.494   2.564  1.5559 -0.9593  2.1760
   99MOL0     H13009   9.863   3.641   2.797  0.7253  0.3738  0.9102
   99MOL0     H13010  10.024   3.561   2.805  0.4748 -1.0085  0.2547
   99MOL0     H13011   9.771   3.402   2.738 -1.2162  2.8450  0.2304
   99MOL0     H13012   9.932   3.344   2.788  0.1278 -0.4207  2.4851
   99MOL0     H13013   9.780   3.319   2.977 -1.8074 -0.5275 -0.3842
   99MOL0     H13014   9.708   3.472   2.956 -0.7369 -2.3455  0.5002
   99MOL0     H13015   9.913   3.599   3.014  0.6723 -0.2703 -1.8285
   99MOL0     H13016  10.000   3.452   3.010  0.2702 -0.0718 -0.2570
   99MOL0     H13017   9.774   3.541   3.199 -0.6120 -2.7016  0.3718
   99MOL0     H13018   9.855   3.385   3.219 -2.3381 -0.6700 -0.4387
   99MOL0     H13019  10.067   3.500   3.220 -1.1220 -2.0672 -0.4289
   99MOL0     H13020   9.986   3.485   3.375 -1.3613  2.5253  1.5122
   99MOL0     H13021   9.813   3.651   3.455 -0.5946 -1.9484 -4.0497
   99MOL0     H13022   9.732   3.914   3.521  1.1468 -0.0417  1.4314
   99MOL0     H13023   9.790   4.037   3.409 -0.4403 -2.4212 -2.3747
   99MOL0     H13024   9.913   3.906   3.662 -0.6102  0.1339  0.4714
   99MOL0     H13025   9.836   4.052   3.662 -3.3594 -3.1865 -1.1946
   99MOL0     H13026  10.074   4.035   3.475 -0.8843  0.5547 -0.9479
   99MOL0     H13027  10.005   4.172   3.560  2.3316  0.6782 -1.1078
   99MOL0     H13028  10.235   4.115   3.643  2.7284 -1.8814  1.4957
   99MOL0     H13029  10.187   3.957   3.672 -0.2036 -0.4210 -1.6407
   99MOL0     H13030   9.941   4.140   3.983 -2.5173  0.5566  0.2317
   99MOL0     H13031   9.808   4.342   4.001  2.0714  3.1479  3.4103
   99MOL0     H13032   9.818   4.839   3.633 -0.2686 -2.8203  0.7862
   99MOL0     H13033   9.705   5.059   3.622 -2.4341  0.4391 -0.8015
   99MOL0     H13034   9.442   5.219   3.836  0.7167  0.8280  1.0465
   99MOL0     H13035   9.534   5.169   3.689  1.7790 -0.0103 -0.7687
   99MOL0     H13036   9.544   5.447   3.805 -3.1373  2.9399 -2.1440
   99MOL0     H13037   9.452   5.397   3.666  1.3258  0.0379 -1.2390
   99MOL0     H13038   9.682   5.300   3.582  1.9083  0.2249  2.3531
   99MOL0     H13039   9.759   5.397   3.697  0.9631 -1.1515  0.2454
   99MOL0     H13040   9.554   5.510   3.514 -0.2576  0.1906  2.6302
   99MOL0     H13041   9.633   5.604   3.643  1.1226 -1.1223  1.7264
   99MOL0     H13042   9.703   5.648   3.388 -0.5166 -1.7702 -1.6858
   99MOL0     H13043   9.763   5.488   3.382  1.4082  1.2618 -1.6603
   99MOL0     H13044   9.920   5.522   3.570 -4.0199 -0.3505  1.3434
   99MOL0     H13045   9.870   5.691   3.593  0.6053 -1.5293  1.2596
   99MOL0     H13046  10.012   5.574   3.354 -0.4254  0.2703 -0.1223
   99MOL0     H13047   9.945   5.730   3.349  3.2090  1.9537  0.0840
   99MOL0     H13048  10.190   5.717   3.409  0.3121  0.3590  1.2755
   99MOL0     H13049  10.143   5.656   3.571  1.6221 -0.7009 -0.9503
   99MOL0     H13050   9.706   5.050   4.058 -0.6437  0.6961 -1.0107
   99MOL0     H13051   9.807   4.813   4.051 -0.1696 -0.1351  0.1745
   99MOL0     H13052  10.056   4.524   3.692 -0.4519 -0.5914 -2.1054
   99MOL0     H13053  10.175   4.330   3.666 -0.6848  0.9503 -1.3269
   99MOL0     H13054   9.822   3.543   2.171  0.7936 -0.4296  1.1869
   99MOL0     H13055   9.622   3.578   2.021 -0.3071  0.4742 -0.7934
   99MOL0     H13056   9.231   3.448   1.906  3.0403  2.7615 -1.5269
   99MOL0     H13057   9.033   3.445   1.762  2.8435  1.8278 -1.3889
   99MOL0     H13058   8.817   3.355   1.815  1.7435 -0.9732 -0.8369
   99MOL0     H13059   8.843   3.434   1.662  1.4980  1.5478  1.3619
   99MOL0     H13060   8.595   3.378   1.820  3.1650  0.2479  0.8741
   99MOL0     H13061   8.599   3.513   1.700  4.3714  1.4093  0.3338
   99MOL0     H13062   8.617   3.371   1.517  1.0748  0.8150 -0.0392
   99MOL0     H13063   8.499   3.274   1.621  0.2593 -0.2476  2.4683
   99MOL0     H13064   8.668   3.123   1.535 -3.4446 -3.7884  3.7011
   99MOL0     H13065   8.805   3.221   1.618  0.1398  0.8579  1.7805
   99MOL0     H13066   8.637   3.005   1.933 -2.8854  2.1269 -1.0012
   99MOL0     H13067   8.831   3.748   1.993  0.8943  1.3003 -0.5314
   99MOL0     H13068   9.030   3.771   2.131  1.3273  0.0545 -0.2691
  100MOL0     O13069   8.163   3.098   8.004 -0.2043 -0.1141  0.3310
  100MOL0     C13070   8.118   3.000   7.958  0.3949  0.5790  0.0154
  100MOL0     O13071   8.061   2.898   8.035  0.3916  0.1843  0.1362
  100MOL0     C13072   8.072   2.897   8.171 -0.5640  0.4559 -0.1637
  100MOL0     C13073   8.202   2.860   8.235  0.4847  0.7022  1.2527
  100MOL0     C13074   8.222   2.871   8.369  1.0627  0.5150 -0.0416
  100MOL0     C13075   8.112   2.907   8.453  0.4943 -0.5302 -1.2390
  100MOL0     O13076   8.138   2.932   8.590  0.9031  0.2782  0.0436
  100MOL0     C13077   8.038   2.877   8.685  0.4878 -0.2112 -0.2863
  100MOL0     C13078   7.968   2.999   8.748 -0.5543  0.8256 -0.6279
  100MOL0     C13079   7.864   2.973   8.850 -1.2115  0.0561  0.8648
  100MOL0     C13080   7.786   3.090   8.919 -0.6223  0.0987 -0.1223
  100MOL0     C13081   7.714   3.173   8.817 -0.3309 -0.1390  0.4624
  100MOL0     C13082   7.601   3.240   8.899  0.6303 -0.1425 -0.1429
  100MOL0     C13083   7.617   3.398   8.887 -0.9375 -0.0298  0.0197
  100MOL0     C13084   7.729   3.460   8.982  0.3692  0.5434  1.1815
  100MOL0     N13085   7.796   3.578   8.929  0.7898 -0.5869  0.1808
  100MOL0     C13086   7.879   3.593   8.822  0.3631 -0.0149  0.0941
  100MOL0     C13087   7.913   3.730   8.829 -1.5400  0.2018 -0.2253
  100MOL0     C13088   8.008   3.801   8.735  0.3238 -0.6612 -0.0698
  100MOL0     C13089   7.941   3.768   8.597 -0.0089  0.3566  0.7276
  100MOL0     C13090   7.786   3.772   8.578  0.0028 -0.0133 -0.1088
  100MOL0     C13091   7.740   3.916   8.600 -0.7155  0.7276 -0.5175
  100MOL0     O13092   7.600   3.915   8.590  0.1847  0.6921 -0.0501
  100MOL0     C13093   7.523   3.903   8.700  0.4013  0.3689 -0.6400
  100MOL0     C13094   7.544   3.836   8.818 -0.7511  0.5832  0.6208
  100MOL0     C13095   7.448   3.821   8.921 -0.1325 -0.3439 -0.3595
  100MOL0     C13096   7.325   3.887   8.916  0.0750  0.1036 -1.3046
  100MOL0     C13097   7.221   3.849   9.015 -0.1506 -0.0979 -0.8413
  100MOL0     O13098   7.110   3.914   9.012  1.0841 -0.6111 -0.1858
  100MOL0     C13099   7.010   3.922   9.110 -0.1841 -0.9025  0.1093
  100MOL0     C13100   6.915   4.024   9.088 -0.7450 -0.2234  0.6613
  100MOL0     C13101   6.792   4.036   9.155 -0.9495 -0.0075 -0.2488
  100MOL0     C13102   6.772   3.965   9.279  0.0178 -0.0545 -0.4066
  100MOL0     O13103   6.648   3.983   9.333  0.6225  0.4666 -0.9215
  100MOL0     C13104   6.596   3.903   9.439  0.4420 -0.6583 -0.0257
  100MOL0     C13105   6.449   3.932   9.466 -0.0562  0.1453  0.5296
  100MOL0     C13106   6.413   4.084   9.474 -0.0872  0.0269  0.4396
  100MOL0     C13107   6.266   4.089   9.446  1.3022 -0.1342  0.3168
  100MOL0     C13108   6.216   4.243   9.445  0.0708 -0.4902  0.1125
  100MOL0     C13109   6.065   4.250   9.423 -0.2149  0.4407 -0.0921
  100MOL0     C13110   6.029   4.210   9.274 -0.3207 -0.7828  0.2658
  100MOL0     C13111   5.925   4.297   9.201 -0.3190  0.1126  0.4705
  100MOL0    Cl13112   5.758   4.248   9.241  0.0134  0.0319  0.1899
  100MOL0     C13113   6.867   3.865   9.316  0.4822  0.2396 -0.5299
  100MOL0     C13114   6.986   3.845   9.227  0.4952 -0.0006 -0.0481
  100MOL0     O13115   7.247   3.774   9.111  0.4447  0.5645  0.4781
  100MOL0     C13116   7.303   3.967   8.796 -0.5518  0.3254  0.1319
  100MOL0     C13117   7.395   3.966   8.689  0.7891 -0.7266 -0.0257
  100MOL0     N13118   7.869   3.776   8.951  0.1039 -0.1123  0.0710
  100MOL0     N13119   7.798   3.685   9.009  0.5368 -0.3482  0.1726
  100MOL0     C13120   7.991   2.940   8.395  0.1753  0.2022 -0.1872
  100MOL0     C13121   7.967   2.926   8.259 -0.2782 -0.3737  0.8785
  100MOL0     C13122   8.108   2.994   7.814  0.1473  0.0659  0.3533
  100MOL0     C13123   8.008   2.903   7.761  0.7331 -0.5004  0.0602
  100MOL0     C13124   7.986   2.889   7.622 -0.5836  0.0061  0.0519
  100MOL0     C13125   8.065   2.966   7.533 -1.1587  0.2856  1.2213
  100MOL0     O13126   8.054   2.961   7.395 -0.5082 -0.1202 -0.7268
  100MOL0     C13127   7.992   2.839   7.339 -0.4182 -0.2224  0.8591
  100MOL0     C13128   7.839   2.846   7.332  0.4651 -0.7403  0.2856
  100MOL0     C13129   7.798   2.890   7.198 -0.5216  0.5616  0.9260
  100MOL0     C13130   7.648   2.898   7.207  0.9605 -0.0487 -1.0121
  100MOL0     C13131   7.595   2.953   7.081 -0.6731  0.9026 -0.5463
  100MOL0     C13132   7.580   2.992   6.969 -0.3218 -0.1645  0.0933
  100MOL0     C13133   8.162   3.061   7.583 -0.4580  0.3304 -0.1531
  100MOL0     C13134   8.190   3.064   7.725 -0.3888 -0.2661  1.3086
  100MOL0     H13135   8.286   2.835   8.170 -0.8552 -3.5972  0.8681
  100MOL0     H13136   8.316   2.856   8.422  0.0561 -1.7770  1.2348
  100MOL0     H13137   8.091   2.811   8.753 -1.0192  0.5876  1.7450
  100MOL0     H13138   7.952   2.825   8.641 -2.1843  0.9661  3.1379
  100MOL0     H13139   7.928   3.070   8.675 -2.4676 -0.1691 -0.6238
  100MOL0     H13140   8.039   3.072   8.787 -1.1147  1.7475 -1.2846
  100MOL0     H13141   7.933   2.928   8.922 -0.7383 -2.5786 -1.0522
  100MOL0     H13142   7.799   2.891   8.817  0.5118 -0.8734 -0.4282
  100MOL0     H13143   7.713   3.054   8.993  0.7644 -0.3778  1.0564
  100MOL0     H13144   7.863   3.149   8.969 -1.6249  0.5867  0.8947
  100MOL0     H13145   7.667   3.113   8.739  0.3652 -0.5979  0.3879
  100MOL0     H13146   7.790   3.244   8.780  1.5579 -2.8932 -1.3772
  100MOL0     H13147   7.611   3.217   9.005  1.3560 -3.7602 -0.8562
  100MOL0     H13148   7.500   3.212   8.869  1.2788 -1.5903 -1.1198
  100MOL0     H13149   7.644   3.429   8.786  1.0518 -1.8536 -0.0773
  100MOL0     H13150   7.519   3.443   8.907 -0.2711  0.6589  2.0577
  100MOL0     H13151   7.801   3.378   8.996 -2.0619 -2.1982 -0.9061
  100MOL0     H13152   7.688   3.463   9.084 -1.6216 -1.8859  0.5521
  100MOL0     H13153   7.911   3.519   8.749 -0.4795  0.5189 -0.8384
  100MOL0     H13154   8.113   3.772   8.736  0.9377  1.3153 -1.3345
  100MOL0     H13155   8.012   3.907   8.761  1.0218 -1.1185  1.8375
  100MOL0     H13156   7.974   3.667   8.569  1.8335  1.1885 -0.3137
  100MOL0     H13157   7.977   3.833   8.517 -1.5887  0.1375 -0.2077
  100MOL0     H13158   7.777   3.739   8.473  1.2028 -2.1044  0.3807
  100MOL0     H13159   7.733   3.701   8.642 -0.5832  1.6931  1.3524
  100MOL0     H13160   7.779   3.980   8.520 -0.8964 -1.4914 -2.5157
  100MOL0     H13161   7.772   3.955   8.696  2.1550 -1.6354 -0.3651
  100MOL0     H13162   7.635   3.779   8.835 -1.3088  0.3652  3.2969
  100MOL0     H13163   7.481   3.764   9.007  0.2072 -2.1023 -1.5898
  100MOL0     H13164   6.936   4.091   9.005 -2.5472 -0.4554 -0.0264
  100MOL0     H13165   6.715   4.110   9.137  0.5388  1.9998  1.2682
  100MOL0     H13166   6.654   3.917   9.531  1.9590  4.8673 -1.4474
  100MOL0     H13167   6.606   3.800   9.406  2.7272 -1.2199  2.1279
  100MOL0     H13168   6.426   3.876   9.558 -1.2748 -1.3579 -0.6301
  100MOL0     H13169   6.383   3.898   9.385 -4.1712 -0.2984  3.7056
  100MOL0     H13170   6.464   4.133   9.391  2.0910  1.2685  2.4008
  100MOL0     H13171   6.430   4.122   9.575 -0.8733 -1.6615  1.2597
  100MOL0     H13172   6.234   4.048   9.350  0.2354  0.2247  0.4984
  100MOL0     H13173   6.215   4.024   9.518  0.4381  0.7265  0.5115
  100MOL0     H13174   6.269   4.294   9.364  0.5434  0.6618  1.0985
  100MOL0     H13175   6.240   4.298   9.537 -0.8243 -0.5010  0.3608
  100MOL0     H13176   6.037   4.354   9.445 -0.2534  0.4655 -0.2539
  100MOL0     H13177   6.010   4.182   9.487 -0.7460  0.7554 -0.2082
  100MOL0     H13178   6.119   4.208   9.211  0.6463  0.1695  1.5650
  100MOL0     H13179   5.998   4.105   9.274  0.9409 -1.3253 -3.5765
  100MOL0     H13180   5.941   4.279   9.095  1.3032  1.2486  0.4851
  100MOL0     H13181   5.948   4.398   9.236 -1.0623  0.4122  0.1145
  100MOL0     H13182   6.845   3.803   9.403 -2.4712  0.3983 -1.0785
  100MOL0     H13183   7.054   3.762   9.249  3.2929  1.5967 -2.0118
  100MOL0     H13184   7.207   4.015   8.779 -0.0270  1.0645 -0.8440
  100MOL0     H13185   7.368   4.020   8.599  2.6828 -2.7107 -1.9023
  100MOL0     H13186   7.906   2.987   8.443 -2.8930  2.0025 -6.3259
  100MOL0     H13187   7.872   2.949   8.213 -0.2807  0.8359  1.4502
  100MOL0     H13188   7.950   2.836   7.825 -0.3220 -1.8356 -2.1638
  100MOL0     H13189   7.912   2.814   7.594  0.0859 -1.1517  1.2432
  100MOL0     H13190   8.020   2.749   7.395  1.5609  0.9815  1.9280
  100MOL0     H13191   8.032   2.825   7.238  2.3198  0.6091  1.7288
  100MOL0     H13192   7.793   2.748   7.346 -1.5246  0.0509 -0.3514
  100MOL0     H13193   7.803   2.909   7.413  1.7646  1.3869 -0.7146
  100MOL0     H13194   7.853   2.833   7.122  4.7415  0.5876  4.2252
  100MOL0     H13195   7.837   2.991   7.184  4.0743 -1.0252  0.7353
  100MOL0     H13196   7.612   2.797   7.229 -0.1133  0.1769 -1.6738
  100MOL0     H13197   7.617   2.969   7.284  2.2802 -0.3199 -0.1893
  100MOL0     H13198   7.561   3.009   6.865 -0.5866 -3.6331 -0.5476
  100MOL0     H13199   8.220   3.124   7.516  0.2482 -0.6195 -0.4612
  100MOL0     H13200   8.255   3.136   7.774 -0.0697 -0.5134  1.2521
  101MOL0     O13201   0.355   0.139   0.567  0.5353 -0.8390 -0.0078
  101MOL0     C13202   0.365   0.244   0.516  0.4418 -0.7690  0.1463
  101MOL0     O13203   0.401   0.280   0.392 -0.6927 -0.1706 -0.4270
  101MOL0     C13204   0.405   0.195   0.285  0.7923 -1.1174  0.4824
  101MOL0     C13205   0.488   0.228   0.177 -0.2813  0.9937  0.1795
  101MOL0     C13206   0.500   0.149   0.059 -0.0376 -1.0951 -0.2640
  101MOL0     C13207   0.426   0.035   0.039 -1.0638  0.1169  0.2757
  101MOL0     O13208   0.427  -0.034  -0.086 -0.4884  0.4547  0.1062
  101MOL0     C13209   0.406  -0.179  -0.089  0.3123  0.5847 -0.2474
  101MOL0     C13210   0.318  -0.222  -0.201 -0.3980 -0.3282  0.3201
  101MOL0     C13211   0.293  -0.377  -0.174 -0.9436 -0.2103 -0.4034
  101MOL0     C13212   0.238  -0.452  -0.290 -0.4010  0.1087 -0.6927
  101MOL0     C13213   0.217  -0.594  -0.255  1.5615  0.7695  0.5493
  101MOL0     C13214   0.342  -0.683  -0.250 -0.4252  0.4393  0.4488
  101MOL0     C13215   0.449  -0.663  -0.358  0.0852 -0.5543  0.1643
  101MOL0     C13216   0.531  -0.787  -0.400  0.2982 -0.5715  0.1319
  101MOL0     N13217   0.606  -0.842  -0.283  0.4509  0.6576  0.7421
  101MOL0     C13218   0.737  -0.826  -0.263 -0.3701  0.3574 -0.1547
  101MOL0     C13219   0.769  -0.898  -0.155 -0.2830  0.1003  0.7217
  101MOL0     C13220   0.897  -0.914  -0.086  0.2659 -0.8551  0.3652
  101MOL0     C13221   0.929  -1.061  -0.085 -0.3234 -0.7109  0.1588
  101MOL0     C13222   1.070  -1.072  -0.029  0.6778 -0.4118 -0.1213
  101MOL0     C13223   1.090  -1.222  -0.001 -0.5592 -0.1816 -0.4578
  101MOL0     O13224   1.190  -1.252  -0.098 -0.4631 -1.0204  0.0178
  101MOL0     C13225   1.331  -1.243  -0.074  0.1386 -0.3022 -0.4585
  101MOL0     C13226   1.386  -1.151   0.013 -0.3965  0.5939 -0.5125
  101MOL0     C13227   1.523  -1.146   0.023  0.6030 -0.3025  0.0486
  101MOL0     C13228   1.610  -1.231  -0.053 -0.5061  0.3925 -0.3451
  101MOL0     C13229   1.753  -1.240  -0.029  0.3135 -1.1124 -0.0593
  101MOL0     O13230   1.828  -1.231  -0.140 -0.4826 -0.1117  0.4302
  101MOL0     C13231   1.965  -1.243  -0.136 -0.0977 -0.0450 -0.2945
  101MOL0     C13232   2.028  -1.242  -0.262 -0.3185 -0.0498  0.3292
  101MOL0     C13233   2.169  -1.233  -0.277  0.4568 -0.1189 -0.4981
  101MOL0     C13234   2.255  -1.243  -0.166  0.8844 -0.7235  1.2665
  101MOL0     O13235   2.385  -1.234  -0.189 -0.3775 -0.3010 -0.3158
  101MOL0     C13236   2.436  -1.358  -0.219 -0.1419 -0.4069 -0.0818
  101MOL0     C13237   2.559  -1.335  -0.310  0.2143 -0.3668 -0.1547
  101MOL0     C13238   2.653  -1.235  -0.252 -1.1654 -0.3289 -0.8163
  101MOL0     C13239   2.772  -1.229  -0.349 -0.5066 -0.4343  0.4454
  101MOL0     C13240   2.900  -1.181  -0.285 -0.3806 -0.4009  0.3776
  101MOL0     C13241   2.895  -1.025  -0.291  0.3804 -0.1595  0.1276
  101MOL0     C13242   3.002  -0.969  -0.202 -0.4661 -0.5066  0.5965
  101MOL0     C13243   3.127  -0.924  -0.269  0.3390  0.2196  0.2493
  101MOL0    Cl13244   3.100  -0.777  -0.361  0.2417  0.0509 -0.0005
  101MOL0     C13245   2.199  -1.260  -0.037  0.6289 -0.2602  0.0786
  101MOL0     C13246   2.057  -1.240  -0.022 -1.2202  0.1597 -0.7183
  101MOL0     O13247   1.788  -1.236   0.087 -0.0723  0.8564  0.2056
  101MOL0     C13248   1.548  -1.317  -0.148 -0.6577 -0.4673 -0.1376
  101MOL0     C13249   1.410  -1.313  -0.157 -0.6795  0.4217 -0.5254
  101MOL0     N13250   0.653  -0.953  -0.116  0.5027  0.4456 -0.1858
  101MOL0     N13251   0.560  -0.927  -0.196 -0.5035 -0.2264  0.9484
  101MOL0     C13252   0.343  -0.012   0.150 -0.1147 -0.4139 -0.4910
  101MOL0     C13253   0.338   0.070   0.266 -0.0505  0.9204 -0.1568
  101MOL0     C13254   0.351   0.354   0.611 -0.3460 -0.1284  0.5370
  101MOL0     C13255   0.379   0.351   0.749  0.7790  0.1418 -0.2610
  101MOL0     C13256   0.395   0.465   0.822 -0.2746  0.3534 -0.5660
  101MOL0     C13257   0.339   0.581   0.774 -0.9367  0.3661  0.2102
  101MOL0     O13258   0.344   0.702   0.841  0.3005  0.5085 -0.5649
  101MOL0     C13259   0.328   0.712   0.987  0.7107  0.7925 -0.0140
  101MOL0     C13260   0.241   0.840   1.029 -0.1623 -0.2025  0.1551
  101MOL0     C13261   0.097   0.816   0.984 -0.0003  0.7237 -0.3561
  101MOL0     C13262  -0.008   0.917   1.024  0.1183  0.1124 -0.5164
  101MOL0     C13263   0.046   1.055   1.018 -0.0443  0.2807 -0.2308
  101MOL0     C13264   0.090   1.164   0.982  0.2341 -0.0904 -0.4505
  101MOL0     C13265   0.311   0.595   0.642  0.4968  0.9696  0.3984
  101MOL0     C13266   0.323   0.481   0.563 -0.6323 -0.3396 -0.5637
  101MOL0     H13267   0.545   0.320   0.181  0.6903  0.4857 -1.3466
  101MOL0     H13268   0.565   0.177  -0.024 -0.3354 -1.8965 -0.7709
  101MOL0     H13269   0.371  -0.221   0.006  1.7241 -1.4163 -0.5411
  101MOL0     H13270   0.505  -0.222  -0.106  0.0832  0.3329 -0.9910
  101MOL0     H13271   0.359  -0.222  -0.302  0.5874 -0.9372  0.7075
  101MOL0     H13272   0.230  -0.156  -0.205 -0.9774 -1.1404 -0.8973
  101MOL0     H13273   0.240  -0.391  -0.079  0.0976  1.5104  0.4825
  101MOL0     H13274   0.394  -0.418  -0.163 -0.8153  0.2461  0.2176
  101MOL0     H13275   0.150  -0.399  -0.326  0.5673  4.0670  2.1062
  101MOL0     H13276   0.309  -0.447  -0.373 -0.4209 -1.1365 -0.8145
  101MOL0     H13277   0.159  -0.625  -0.342 -2.2926  2.4630  2.2369
  101MOL0     H13278   0.154  -0.602  -0.165 -2.7256  2.0946 -2.0437
  101MOL0     H13279   0.300  -0.784  -0.261  0.3548  0.0958  0.5587
  101MOL0     H13280   0.392  -0.668  -0.154  1.8398 -2.2909 -0.1505
  101MOL0     H13281   0.393  -0.633  -0.447  1.8491 -0.5602 -1.0010
  101MOL0     H13282   0.517  -0.581  -0.331 -0.5209  0.3978 -1.0774
  101MOL0     H13283   0.601  -0.757  -0.478 -3.6336  3.4163 -2.3169
  101MOL0     H13284   0.470  -0.862  -0.451 -1.4987 -1.1602  2.8954
  101MOL0     H13285   0.802  -0.751  -0.308  0.5361  0.5136  1.3592
  101MOL0     H13286   0.884  -0.882   0.018 -1.8714  1.9767 -0.6575
  101MOL0     H13287   0.973  -0.852  -0.134 -2.5056  1.9889 -0.6870
  101MOL0     H13288   0.937  -1.098  -0.187  1.1725 -4.3549  1.4510
  101MOL0     H13289   0.855  -1.122  -0.031 -0.5273 -0.2666  0.3935
  101MOL0     H13290   1.124  -1.020  -0.108 -3.4638  4.0660 -0.4699
  101MOL0     H13291   1.067  -1.022   0.069 -1.8600 -1.0699  0.2160
  101MOL0     H13292   1.003  -1.287  -0.007 -0.8243  0.2394 -1.4589
  101MOL0     H13293   1.112  -1.233   0.105 -2.3689  0.0197 -0.0263
  101MOL0     H13294   1.324  -1.089   0.077 -0.6613 -2.9407  3.0375
  101MOL0     H13295   1.578  -1.080   0.090 -1.0202 -0.3603  1.5055
  101MOL0     H13296   1.956  -1.240  -0.343 -1.0343  0.1268  0.9570
  101MOL0     H13297   2.221  -1.218  -0.371  3.0432 -0.3537  0.8047
  101MOL0     H13298   2.376  -1.430  -0.277  2.5388 -0.4484 -3.1162
  101MOL0     H13299   2.488  -1.396  -0.131 -1.8279  1.1575  1.6880
  101MOL0     H13300   2.522  -1.313  -0.411  1.1797  1.1256 -0.2022
  101MOL0     H13301   2.618  -1.427  -0.313  1.9038  0.5542  2.0916
  101MOL0     H13302   2.681  -1.252  -0.148 -1.0386  2.3192 -0.3569
  101MOL0     H13303   2.607  -1.137  -0.242  0.6651  0.3871  1.5471
  101MOL0     H13304   2.790  -1.331  -0.384 -3.3967 -1.3041  1.2488
  101MOL0     H13305   2.750  -1.165  -0.435  0.6856 -1.4652 -0.6712
  101MOL0     H13306   2.982  -1.222  -0.345 -0.3271 -1.4629  1.1657
  101MOL0     H13307   2.920  -1.234  -0.192  0.9770 -0.8383 -0.1392
  101MOL0     H13308   2.798  -0.991  -0.254 -0.7332 -0.8029 -2.0110
  101MOL0     H13309   2.917  -0.985  -0.391  0.3090 -0.1490  0.1166
  101MOL0     H13310   2.955  -0.880  -0.157 -2.6360 -1.4604  0.3621
  101MOL0     H13311   3.014  -1.038  -0.118  0.1556 -0.0989  0.8512
  101MOL0     H13312   3.170  -0.998  -0.337  0.4255 -0.7059  1.2799
  101MOL0     H13313   3.194  -0.892  -0.190  3.0905  3.8086 -3.1128
  101MOL0     H13314   2.271  -1.249   0.044 -0.2132 -0.8422  0.9250
  101MOL0     H13315   2.032  -1.227   0.083 -0.0036  0.5294 -0.4641
  101MOL0     H13316   1.606  -1.386  -0.209  1.6838  0.3863  1.0128
  101MOL0     H13317   1.354  -1.382  -0.219 -3.0832  1.0890  0.7606
  101MOL0     H13318   0.275  -0.095   0.133 -2.2153  1.6848 -3.5777
  101MOL0     H13319   0.268   0.029   0.338 -0.1847  1.1680 -0.1465
  101MOL0     H13320   0.407   0.253   0.785 -0.7047  0.2565  1.3115
  101MOL0     H13321   0.429   0.457   0.924 -3.4702 -1.2186  0.5384
  101MOL0     H13322   0.425   0.724   1.038  1.3169  0.3697 -1.0309
  101MOL0     H13323   0.286   0.620   1.027  1.3782  0.7184  0.5442
  101MOL0     H13324   0.256   0.863   1.135 -3.8801  1.3825  0.5041
  101MOL0     H13325   0.275   0.935   0.986  1.5832 -0.2205  1.3637
  101MOL0     H13326   0.071   0.716   1.017  1.8854  1.0647  2.5067
  101MOL0     H13327   0.103   0.818   0.875  3.2352  0.3728 -0.2956
  101MOL0     H13328  -0.100   0.916   0.964 -0.3731  4.5040 -0.1801
  101MOL0     H13329  -0.040   0.895   1.126 -2.2826 -0.5729 -1.3369
  101MOL0     H13330   0.124   1.264   0.967  1.1261  0.5713  4.5101
  101MOL0     H13331   0.289   0.690   0.595  0.5398  2.2342  2.8105
  101MOL0     H13332   0.284   0.490   0.462  0.9138  1.7439 -1.0239
  102MOL0     O13333  10.720   1.225   1.017  0.0873  0.6489 -0.5513
  102MOL0     C13334  10.828   1.214   1.065 -0.4856 -0.3638 -1.0143
  102MOL0     O13335  10.952   1.215   1.006 -0.5850 -0.2826  0.4413
  102MOL0     C13336  10.958   1.219   0.868  1.5271  0.8046 -0.2874
  102MOL0     C13337  10.930   1.334   0.796 -0.7276  0.4433  0.5383
  102MOL0     C13338  10.951   1.343   0.657 -1.1182  0.0048 -0.0678
  102MOL0     C13339  10.989   1.222   0.587 -0.2084 -0.7731 -0.2574
  102MOL0     O13340  10.995   1.224   0.448  0.1960  0.0348  0.4911
  102MOL0     C13341  11.118   1.186   0.396 -1.2534  0.0388  0.3893
  102MOL0     C13342  11.091   1.102   0.281  0.4144  1.6349 -0.0747
  102MOL0     C13343  11.083   0.946   0.322 -0.9388 -0.3476  0.1299
  102MOL0     C13344  11.069   0.845   0.202  0.2296 -0.1474  0.4766
  102MOL0     C13345  11.052   0.703   0.252  0.4853 -0.8692  0.1547
  102MOL0     C13346  11.036   0.612   0.132  0.4564  0.1567 -0.4264
  102MOL0     C13347  11.061   0.466   0.175 -0.0056  0.2577 -0.5418
  102MOL0     C13348  10.958   0.404   0.269 -0.7237  0.5206 -0.0586
  102MOL0     N13349  10.820   0.397   0.215 -0.1894 -0.5344 -0.1284
  102MOL0     C13350  10.766   0.293   0.142 -0.1550 -0.1795 -0.0836
  102MOL0     C13351  10.631   0.311   0.149 -0.3213  0.4413  0.2637
  102MOL0     C13352  10.520   0.214   0.100  0.8955  0.0466  0.4536
  102MOL0     C13353  10.417   0.175   0.214 -0.4546 -0.2994  0.4035
  102MOL0     C13354  10.333   0.298   0.267 -0.3424  0.3672 -0.6123
  102MOL0     C13355  10.191   0.265   0.292 -0.3303  0.3802 -0.2742
  102MOL0     O13356  10.125   0.294   0.168  0.3605 -0.2992  0.1006
  102MOL0     C13357   9.986   0.300   0.168  0.4802  0.2533 -0.0520
  102MOL0     C13358   9.925   0.352   0.055 -0.3089 -0.7371 -0.1951
  102MOL0     C13359   9.787   0.378   0.048 -0.1332 -0.1487 -0.8497
  102MOL0     C13360   9.699   0.347   0.154  0.2760 -0.2677  0.2052
  102MOL0     C13361   9.556   0.386   0.151  0.6480 -0.2572  0.4558
  102MOL0     O13362   9.506   0.343   0.269  0.6106  0.1497 -1.0056
  102MOL0     C13363   9.375   0.366   0.321 -0.5638  0.3638 -0.0955
  102MOL0     C13364   9.288   0.441   0.260  0.4823 -0.8303  0.9636
  102MOL0     C13365   9.158   0.457   0.317 -0.0568 -0.8428  0.4099
  102MOL0     C13366   9.110   0.400   0.434  0.3745  0.7614  1.5124
  102MOL0     O13367   8.994   0.445   0.495  0.0496  0.1870 -0.7484
  102MOL0     C13368   8.884   0.380   0.437 -0.7068 -1.3128  0.1413
  102MOL0     C13369   8.765   0.401   0.536 -0.6029 -0.7788 -0.1306
  102MOL0     C13370   8.625   0.370   0.478 -0.8194 -0.1443  0.2386
  102MOL0     C13371   8.520   0.341   0.582 -1.1395 -0.4189 -0.1205
  102MOL0     C13372   8.394   0.282   0.530 -0.2548  0.9580  0.5517
  102MOL0     C13373   8.290   0.368   0.463 -0.0420 -1.1099 -0.2680
  102MOL0     C13374   8.243   0.493   0.536 -0.4153  0.7921  0.4775
  102MOL0     C13375   8.122   0.555   0.464  0.0184 -0.6082 -0.0643
  102MOL0    Cl13376   8.072   0.723   0.521  0.2240 -0.2758 -0.2418
  102MOL0     C13377   9.209   0.318   0.505 -0.3128  0.1331  0.1060
  102MOL0     C13378   9.338   0.298   0.434  0.1309 -0.5478  0.4460
  102MOL0     O13379   9.504   0.447   0.057  0.7048 -0.3013 -0.4896
  102MOL0     C13380   9.761   0.290   0.267  0.0673  0.3709  0.8297
  102MOL0     C13381   9.902   0.260   0.271 -0.3539 -0.0618 -0.4965
  102MOL0     N13382  10.606   0.432   0.210 -0.4030  0.5461 -0.3590
  102MOL0     N13383  10.718   0.486   0.249  0.7253 -0.1041 -0.7419
  102MOL0     C13384  11.006   1.105   0.659  0.5026 -0.4879  0.2646
  102MOL0     C13385  10.991   1.101   0.797 -0.1648 -0.5303  0.2350
  102MOL0     C13386  10.835   1.210   1.215  0.0515 -0.7644 -0.2217
  102MOL0     C13387  10.718   1.195   1.297  0.0403  0.4464 -0.0839
  102MOL0     C13388  10.727   1.193   1.442 -0.3108  0.1734  0.5113
  102MOL0     C13389  10.854   1.214   1.499 -0.2353 -0.8379 -0.1951
  102MOL0     O13390  10.862   1.196   1.636 -0.4185  0.4971  1.0767
  102MOL0     C13391  10.986   1.195   1.709  0.4641 -0.0368 -0.1204
  102MOL0     C13392  10.945   1.206   1.849 -0.2064  0.5670 -0.1038
  102MOL0     C13393  11.061   1.176   1.944 -0.7265 -0.6833  0.4930
  102MOL0     C13394  11.049   1.230   2.085  1.0034  0.4104  0.7518
  102MOL0     C13395  11.177   1.228   2.166  0.6486 -0.5783 -0.0562
  102MOL0     C13396  11.283   1.242   2.222  0.1233 -0.3057  0.3772
  102MOL0     C13397  10.970   1.210   1.413 -0.1015 -0.4307  0.8128
  102MOL0     C13398  10.956   1.207   1.277 -0.1637  0.4903 -0.2403
  102MOL0     H13399  10.916   1.428   0.848  3.4428  1.0910  0.8908
  102MOL0     H13400  10.946   1.434   0.598  1.2944  1.0994  1.2675
  102MOL0     H13401  11.175   1.132   0.472 -1.0129  3.5084  2.9107
  102MOL0     H13402  11.181   1.272   0.373 -1.2386  0.8701  3.1748
  102MOL0     H13403  11.164   1.109   0.199 -1.4031  0.3929 -1.8974
  102MOL0     H13404  10.991   1.128   0.247 -1.0172 -0.0052  2.5849
  102MOL0     H13405  11.005   0.923   0.395 -0.1085 -2.5998  0.3850
  102MOL0     H13406  11.174   0.910   0.371  2.6846  3.6138 -2.8781
  102MOL0     H13407  10.979   0.866   0.144  1.6328 -0.7313 -2.0608
  102MOL0     H13408  11.165   0.869   0.156 -0.3095 -2.1100 -1.8827
  102MOL0     H13409  10.961   0.694   0.313  0.0553 -1.0692 -0.4983
  102MOL0     H13410  11.134   0.670   0.316  1.6680  0.5321 -0.5647
  102MOL0     H13411  11.108   0.653   0.061  1.8819  0.6816  1.2433
  102MOL0     H13412  10.934   0.625   0.094 -0.4747 -1.4665  1.3030
  102MOL0     H13413  11.046   0.405   0.085  2.2120  1.9679 -2.1844
  102MOL0     H13414  11.163   0.455   0.213 -0.7173  3.4339  2.8509
  102MOL0     H13415  10.969   0.454   0.366 -1.4562  0.7067 -0.0654
  102MOL0     H13416  10.986   0.299   0.284  1.1901  0.7926 -1.3477
  102MOL0     H13417  10.818   0.202   0.113  0.7919 -0.3661  1.9967
  102MOL0     H13418  10.568   0.126   0.054  0.3802 -0.2173  0.4183
  102MOL0     H13419  10.465   0.263   0.020  0.2896 -3.6235 -1.5979
  102MOL0     H13420  10.474   0.139   0.300 -1.5144  0.1206  1.2947
  102MOL0     H13421  10.348   0.097   0.179  0.0564  0.3606 -2.3689
  102MOL0     H13422  10.384   0.335   0.356 -0.5734 -1.5388  0.3812
  102MOL0     H13423  10.342   0.373   0.189 -3.4790  0.1576 -1.2710
  102MOL0     H13424  10.147   0.311   0.381 -1.2176  0.0369 -0.5241
  102MOL0     H13425  10.190   0.156   0.304 -0.1681  0.3031 -0.9347
  102MOL0     H13426   9.988   0.387  -0.025 -1.4311 -1.1854 -1.3103
  102MOL0     H13427   9.745   0.426  -0.040  0.1134 -0.7950 -1.3337
  102MOL0     H13428   9.324   0.508   0.183 -1.2340  2.0908  2.5133
  102MOL0     H13429   9.082   0.518   0.269 -2.2560 -1.8625  2.3962
  102MOL0     H13430   8.912   0.275   0.434 -0.7128 -1.3563  1.1014
  102MOL0     H13431   8.851   0.421   0.341  0.9256  2.4081  0.9610
  102MOL0     H13432   8.760   0.505   0.570  1.3766 -1.4445  2.5343
  102MOL0     H13433   8.781   0.331   0.619 -1.7283 -0.8631  0.0306
  102MOL0     H13434   8.642   0.295   0.400  3.2760  3.5601 -2.9256
  102MOL0     H13435   8.587   0.457   0.423 -0.1798  0.2219  0.3722
  102MOL0     H13436   8.555   0.267   0.655  3.0141  1.6527  0.3167
  102MOL0     H13437   8.510   0.434   0.637  2.0945 -0.1887  0.2630
  102MOL0     H13438   8.351   0.245   0.623 -0.2405  2.1592  1.0506
  102MOL0     H13439   8.402   0.201   0.456 -0.8153  0.3023  1.1913
  102MOL0     H13440   8.201   0.309   0.439 -1.4563  0.0449  1.8060
  102MOL0     H13441   8.326   0.410   0.368  0.4942 -1.5073 -0.2455
  102MOL0     H13442   8.224   0.471   0.641  0.1616  3.2417  1.1626
  102MOL0     H13443   8.324   0.566   0.539 -0.5491  0.9602  0.0690
  102MOL0     H13444   8.037   0.487   0.470 -1.4029  0.8353 -2.3629
  102MOL0     H13445   8.144   0.566   0.358  3.8349  1.2929  0.7411
  102MOL0     H13446   9.191   0.283   0.606  0.2624  0.9747  0.5170
  102MOL0     H13447   9.413   0.234   0.481  1.7719  1.7457  1.1337
  102MOL0     H13448   9.703   0.279   0.358 -2.8206  1.5745 -0.7122
  102MOL0     H13449   9.940   0.212   0.361 -1.9995 -2.0352 -0.7760
  102MOL0     H13450  11.045   1.024   0.598 -5.0328 -3.0163 -0.4742
  102MOL0     H13451  11.012   1.006   0.845  3.0169  0.2778  0.6487
  102MOL0     H13452  10.623   1.190   1.245 -0.2242 -0.6325  0.4926
  102MOL0     H13453  10.651   1.174   1.517 -1.1764 -1.7589 -0.7612
  102MOL0     H13454  11.046   1.280   1.677  1.2214 -0.9195 -1.1580
  102MOL0     H13455  11.045   1.102   1.702 -0.5248 -0.7658  0.8691
  102MOL0     H13456  10.901   1.305   1.867  0.0555  0.4146  1.4581
  102MOL0     H13457  10.863   1.138   1.872 -2.7304  3.3176 -0.4144
  102MOL0     H13458  11.157   1.211   1.905  0.5325 -1.2361  2.9163
  102MOL0     H13459  11.054   1.066   1.945 -1.1394 -0.6612  0.3511
  102MOL0     H13460  11.032   1.336   2.063  1.0726 -0.0220 -1.6402
  102MOL0     H13461  10.967   1.179   2.136  1.7569 -0.7552  0.8353
  102MOL0     H13462  11.380   1.254   2.266 -0.6070 -0.3496  2.1070
  102MOL0     H13463  11.071   1.192   1.450  0.1237 -0.1824  0.3266
  102MOL0     H13464  11.050   1.207   1.222  0.5512 -1.0336  0.9062
  103MOL0     O13465   1.931   9.619   0.071 -0.4551  0.5566 -0.7018
  103MOL0     C13466   1.918   9.739   0.115  0.2444 -0.2411  0.3236
  103MOL0     O13467   1.796   9.799   0.135 -0.2474 -0.1857  0.1294
  103MOL0     C13468   1.674   9.746   0.126  0.3031 -0.1789  0.2162
  103MOL0     C13469   1.569   9.843   0.135 -0.6686 -0.7275  0.5808
  103MOL0     C13470   1.442   9.808   0.102  0.6963  0.3125 -1.0227
  103MOL0     C13471   1.407   9.674   0.083 -0.7248  0.6804  0.6189
  103MOL0     O13472   1.277   9.621   0.074  0.2486  0.5948  0.3588
  103MOL0     C13473   1.173   9.689   0.001  0.2236  0.1320 -0.3064
  103MOL0     C13474   1.061   9.708   0.107 -0.9117  0.2952 -0.5077
  103MOL0     C13475   0.937   9.792   0.052 -0.8583  0.2480  0.7204
  103MOL0     C13476   0.841   9.801   0.172  0.0407 -0.0926  0.3460
  103MOL0     C13477   0.705   9.863   0.131  0.3587  0.3762  0.2036
  103MOL0     C13478   0.714  10.003   0.087  0.5005 -1.4852 -0.8040
  103MOL0     C13479   0.584  10.058   0.028  0.1590 -0.0415 -0.4371
  103MOL0     C13480   0.477  10.087   0.141 -0.0603 -0.6385 -0.6443
  103MOL0     N13481   0.364  10.159   0.085 -0.4721  1.0043 -0.7179
  103MOL0     C13482   0.372  10.283   0.040  0.1018  0.0606  0.4092
  103MOL0     C13483   0.246  10.329   0.038  0.0096 -0.8523  0.7965
  103MOL0     C13484   0.208  10.463  -0.025  0.3224 -0.4454 -0.2179
  103MOL0     C13485   0.132  10.560   0.071 -0.1736  0.3714  0.2602
  103MOL0     C13486  -0.023  10.511   0.089  0.5289  0.5856 -0.1552
  103MOL0     C13487  -0.095  10.617   0.174 -1.0186  0.8845  0.8593
  103MOL0     O13488  -0.126  10.728   0.089  0.1982  0.3957  0.1706
  103MOL0     C13489  -0.118  10.859   0.134  1.1442  0.8860  0.4424
  103MOL0     C13490  -0.192  10.900   0.239  0.2056  0.2617 -0.2343
  103MOL0     C13491  -0.171  11.024   0.301 -0.7555 -0.7021 -0.4047
  103MOL0     C13492  -0.089  11.120   0.235 -0.5120  0.0674 -0.0880
  103MOL0     C13493  -0.050  11.248   0.305 -0.5242  0.4534  0.5436
  103MOL0     O13494  -0.138  11.293   0.396  0.3209 -0.1945 -0.0690
  103MOL0     C13495  -0.118  11.425   0.445  0.4433  0.9679 -0.5496
  103MOL0     C13496  -0.001  11.459   0.525 -0.2343  0.0872  0.3583
  103MOL0     C13497   0.007  11.576   0.597  0.0227 -0.4515 -1.0221
  103MOL0     C13498  -0.099  11.663   0.590  0.5133  0.1448  0.9480
  103MOL0     O13499  -0.106  11.781   0.665  0.6359  0.6017  0.4199
  103MOL0     C13500  -0.005  11.814   0.765  0.1333 -0.3958  0.2686
  103MOL0     C13501  -0.038  11.741   0.895  0.9104  0.2921  0.0243
  103MOL0     C13502  -0.189  11.729   0.937 -0.0233 -0.0653 -0.0700
  103MOL0     C13503  -0.249  11.868   0.954 -0.8687  0.3766 -0.5825
  103MOL0     C13504  -0.211  11.935   1.080  1.0026  1.3177  0.1762
  103MOL0     C13505  -0.271  12.070   1.077 -0.7418  0.6908 -0.8518
  103MOL0     C13506  -0.288  12.136   1.218 -0.7036  0.0618 -0.1798
  103MOL0     C13507  -0.327  12.281   1.225  0.3190  0.4244  0.2784
  103MOL0    Cl13508  -0.494  12.288   1.159 -0.4969  0.1532  0.0309
  103MOL0     C13509  -0.215  11.633   0.518  0.1552  0.2564  1.2612
  103MOL0     C13510  -0.222  11.507   0.442 -0.5249 -0.6393  0.8269
  103MOL0     O13511   0.039  11.318   0.252  0.2607 -0.5754 -0.6484
  103MOL0     C13512  -0.011  11.078   0.127 -0.6070 -1.1997  0.7904
  103MOL0     C13513  -0.030  10.948   0.075 -0.9886 -0.4864  0.9668
  103MOL0     N13514   0.160  10.223   0.078 -0.7432 -0.4786 -0.4651
  103MOL0     N13515   0.232  10.122   0.093  0.4586 -0.7200 -0.7294
  103MOL0     C13516   1.509   9.584   0.081 -0.5296  0.9473  0.5480
  103MOL0     C13517   1.639   9.617   0.098 -0.4042  0.8901 -0.4974
  103MOL0     C13518   2.042   9.815   0.152 -0.1078  0.9395  0.9890
  103MOL0     C13519   2.023   9.934   0.227  0.9965  0.6071  0.5545
  103MOL0     C13520   2.139   9.998   0.272  0.1880 -0.8802 -0.4186
  103MOL0     C13521   2.271   9.949   0.256 -0.2454  0.0340 -1.5004
  103MOL0     O13522   2.370  10.033   0.302  0.3147  0.4237  0.3926
  103MOL0     C13523   2.507   9.981   0.277 -0.1144 -0.1379 -0.1192
  103MOL0     C13524   2.595  10.098   0.292 -0.3390 -0.2639  0.6959
  103MOL0     C13525   2.743  10.075   0.261  0.2753  0.7495 -0.1125
  103MOL0     C13526   2.785  10.095   0.112 -0.3776  0.7738 -0.8488
  103MOL0     C13527   2.928  10.066   0.091  0.2543 -1.0079 -0.4984
  103MOL0     C13528   3.048  10.049   0.067  0.2378  0.6127 -0.1972
  103MOL0     C13529   2.279   9.822   0.194 -0.9012  0.8789 -0.0413
  103MOL0     C13530   2.167   9.757   0.140 -0.0158  0.7805  0.3425
  103MOL0     H13531   1.592   9.947   0.153 -0.7591 -0.3459 -1.3234
  103MOL0     H13532   1.366   9.883   0.122 -2.0027 -2.6656  0.8766
  103MOL0     H13533   1.136   9.626  -0.080  4.4461  0.0179 -2.4281
  103MOL0     H13534   1.214   9.785  -0.033  3.1820 -1.4803 -1.6856
  103MOL0     H13535   1.112   9.762   0.187  0.7259 -3.1189  0.9578
  103MOL0     H13536   1.025   9.613   0.146 -2.5069  0.9175 -0.3606
  103MOL0     H13537   0.888   9.743  -0.032 -0.7259  0.8555  0.2804
  103MOL0     H13538   0.969   9.892   0.019  2.3813  0.1058  2.9814
  103MOL0     H13539   0.830   9.696   0.199  0.1935 -1.4202 -3.9847
  103MOL0     H13540   0.887   9.852   0.257  0.2215  0.3488 -0.0086
  103MOL0     H13541   0.651   9.847   0.224  0.5692 -2.2453 -0.0356
  103MOL0     H13542   0.654   9.815   0.047 -1.7132  1.6264  0.7075
  103MOL0     H13543   0.784  10.035   0.010 -1.6190  0.5600 -2.0141
  103MOL0     H13544   0.731  10.058   0.180  0.4440 -0.5276 -1.3416
  103MOL0     H13545   0.597  10.139  -0.043  2.6706 -0.4123 -0.4795
  103MOL0     H13546   0.545   9.976  -0.034  1.7378 -0.4433 -0.9460
  103MOL0     H13547   0.506  10.145   0.228 -2.6306  0.2891 -0.3167
  103MOL0     H13548   0.436  10.002   0.197  0.7774  0.2806  1.4726
  103MOL0     H13549   0.459  10.336   0.002 -1.9449  2.3478 -1.4644
  103MOL0     H13550   0.147  10.436  -0.112 -3.2412  0.0538  1.9161
  103MOL0     H13551   0.292  10.522  -0.062 -1.8075  3.4286  0.5503
  103MOL0     H13552   0.138  10.660   0.027  4.8075 -0.2026 -0.9277
  103MOL0     H13553   0.170  10.553   0.173 -2.8501  0.6147  1.3553
  103MOL0     H13554  -0.070  10.490  -0.007 -0.5243 -0.0865  0.4900
  103MOL0     H13555  -0.031  10.416   0.142  0.4992  1.6097  1.7588
  103MOL0     H13556  -0.039  10.642   0.265  0.3476  0.4154  0.1859
  103MOL0     H13557  -0.190  10.572   0.204 -0.7354 -0.6509 -0.3905
  103MOL0     H13558  -0.263  10.833   0.287 -1.6037  1.9667 -0.4031
  103MOL0     H13559  -0.222  11.056   0.391 -2.4382  0.9896 -1.8758
  103MOL0     H13560   0.085  11.393   0.534 -0.4429 -1.0985 -4.2483
  103MOL0     H13561   0.104  11.589   0.643  0.5726 -1.6105 -1.7996
  103MOL0     H13562  -0.002  11.920   0.790 -1.3865 -0.2561 -0.0084
  103MOL0     H13563   0.091  11.777   0.729 -0.6377 -2.4274  0.1317
  103MOL0     H13564   0.012  11.798   0.974  0.8237  1.0905 -0.4882
  103MOL0     H13565   0.004  11.640   0.897 -2.5078 -1.2729  0.7393
  103MOL0     H13566  -0.205  11.664   1.023  0.8922 -0.1874  0.0155
  103MOL0     H13567  -0.247  11.681   0.857  0.5190 -2.0288  0.6584
  103MOL0     H13568  -0.229  11.936   0.870  2.0810 -0.9369 -1.0664
  103MOL0     H13569  -0.358  11.863   0.967 -0.7374  0.1588  0.4856
  103MOL0     H13570  -0.103  11.928   1.098  0.6943 -2.5692  1.5384
  103MOL0     H13571  -0.254  11.877   1.162 -1.8905 -0.3701 -2.3402
  103MOL0     H13572  -0.365  12.072   1.022 -1.4206  2.6819  0.2912
  103MOL0     H13573  -0.207  12.123   1.006 -1.2824  0.6148 -1.3955
  103MOL0     H13574  -0.351  12.071   1.279 -1.2972  2.0139  1.3896
  103MOL0     H13575  -0.188  12.126   1.262 -1.2756 -2.4988  0.6910
  103MOL0     H13576  -0.257  12.332   1.158  0.1723 -1.2171 -1.1787
  103MOL0     H13577  -0.311  12.321   1.326  2.2755 -1.1919  0.6774
  103MOL0     H13578  -0.308  11.689   0.511 -0.1134 -0.0611  2.0423
  103MOL0     H13579  -0.312  11.489   0.384  0.4935  3.5907 -2.5711
  103MOL0     H13580   0.056  11.145   0.073  0.0648 -2.2312  0.3227
  103MOL0     H13581   0.020  10.917  -0.016 -0.1923  1.3709  0.7415
  103MOL0     H13582   1.484   9.481   0.058 -0.2456  1.5473 -2.8926
  103MOL0     H13583   1.715   9.540   0.089  1.8350  2.6339  1.9249
  103MOL0     H13584   1.928   9.984   0.244  1.9867  2.9636 -0.3934
  103MOL0     H13585   2.123  10.089   0.329 -2.0345 -1.1336 -0.5236
  103MOL0     H13586   2.531   9.946   0.176 -1.9788  0.7160 -0.9053
  103MOL0     H13587   2.543   9.902   0.344  2.4475  1.7373  0.8908
  103MOL0     H13588   2.558  10.168   0.217 -3.0829  0.2347  2.3934
  103MOL0     H13589   2.589  10.144   0.391  2.1464  0.7780  0.4483
  103MOL0     H13590   2.780   9.974   0.284  2.1546  0.8458 -2.3674
  103MOL0     H13591   2.802  10.142   0.324 -0.0407  2.6328 -1.7365
  103MOL0     H13592   2.718  10.032   0.052 -0.3310  0.6063 -0.7261
  103MOL0     H13593   2.777  10.193   0.064  0.6164  0.2904 -2.0702
  103MOL0     H13594   3.151  10.019   0.064 -0.0336 -0.2751 -1.3688
  103MOL0     H13595   2.377   9.777   0.181  0.1679  2.8464  0.7975
  103MOL0     H13596   2.167   9.658   0.097 -2.1096  0.5637  0.7324
  104MOL0     O13597   0.853   2.184   4.637 -0.6446  0.4954  0.4875
  104MOL0     C13598   0.856   2.098   4.722 -0.1273 -0.0354 -0.5219
  104MOL0     O13599   0.745   2.034   4.769 -0.4196 -0.4139  0.0741
  104MOL0     C13600   0.622   2.094   4.754 -0.7286  0.3322 -0.0005
  104MOL0     C13601   0.516   2.007   4.705 -0.2334 -0.1510 -0.0919
  104MOL0     C13602   0.392   2.056   4.702  0.7418  0.1610  0.3412
  104MOL0     C13603   0.366   2.191   4.736 -0.1365 -0.2331 -0.2637
  104MOL0     O13604   0.246   2.257   4.712 -0.3501 -0.9021 -0.7209
  104MOL0     C13605   0.132   2.198   4.642 -0.1150  0.2835 -0.3983
  104MOL0     C13606   0.011   2.300   4.642 -0.9792  0.7791 -0.2936
  104MOL0     C13607  -0.010   2.363   4.789 -0.3944 -0.3687 -0.0516
  104MOL0     C13608  -0.058   2.262   4.895  0.7315  0.7714  0.4877
  104MOL0     C13609  -0.106   2.349   5.009  0.4614 -0.9263 -0.0950
  104MOL0     C13610  -0.168   2.257   5.113  0.7021 -0.0620 -0.5981
  104MOL0     C13611  -0.310   2.202   5.090  0.6059 -0.2659  0.1596
  104MOL0     C13612  -0.372   2.110   5.198 -1.0140  0.5210 -0.7251
  104MOL0     N13613  -0.451   2.191   5.292  1.4333  0.3181  0.3575
  104MOL0     C13614  -0.396   2.291   5.379 -0.0538  0.1029 -0.4541
  104MOL0     C13615  -0.506   2.362   5.428  0.5386  0.3505 -0.2672
  104MOL0     C13616  -0.500   2.478   5.527  0.0565 -0.1457  0.4636
  104MOL0     C13617  -0.502   2.621   5.473  1.0037 -0.6793 -0.2268
  104MOL0     C13618  -0.633   2.657   5.401  0.0703 -0.8135 -0.3367
  104MOL0     C13619  -0.623   2.793   5.324  0.3304 -0.2776 -0.4291
  104MOL0     O13620  -0.628   2.906   5.406 -0.4933 -0.0651 -0.1731
  104MOL0     C13621  -0.721   2.988   5.373  0.0184 -0.6129  0.1723
  104MOL0     C13622  -0.829   3.013   5.450  0.6136 -0.0315 -0.1538
  104MOL0     C13623  -0.918   3.121   5.431  0.3433  0.5897 -0.4127
  104MOL0     C13624  -0.895   3.213   5.322  0.2081 -0.4859  1.0896
  104MOL0     C13625  -0.967   3.345   5.297  0.1129 -0.5437  0.2867
  104MOL0     O13626  -1.033   3.395   5.394 -0.1395  0.7508 -0.7599
  104MOL0     C13627  -1.147   3.474   5.359  0.1707 -1.0049 -0.4695
  104MOL0     C13628  -1.158   3.604   5.416  0.9777 -0.4737  0.6206
  104MOL0     C13629  -1.278   3.677   5.386  0.2264  0.7804  0.5309
  104MOL0     C13630  -1.379   3.629   5.304  0.3262  1.0103  0.0912
  104MOL0     O13631  -1.488   3.705   5.281 -0.6455  0.2239 -0.0864
  104MOL0     C13632  -1.620   3.648   5.281 -0.6825  0.1565  0.6931
  104MOL0     C13633  -1.721   3.753   5.334 -1.0015  0.7245 -0.3375
  104MOL0     C13634  -1.732   3.880   5.252  0.4778 -1.1215  0.5430
  104MOL0     C13635  -1.797   3.999   5.323  0.3435 -0.6960  0.5523
  104MOL0     C13636  -1.772   4.138   5.255 -0.0891  0.0432 -0.2944
  104MOL0     C13637  -1.823   4.242   5.356 -0.5947 -1.3851  0.3110
  104MOL0     C13638  -1.815   4.394   5.319  0.2308 -0.8720 -0.1124
  104MOL0     C13639  -1.692   4.431   5.249  0.1302  0.5086  0.3759
  104MOL0    Cl13640  -1.722   4.612   5.201 -0.0070  0.2480  0.3391
  104MOL0     C13641  -1.370   3.496   5.258 -0.0279  0.3676  0.1845
  104MOL0     C13642  -1.248   3.421   5.285  0.7891  0.0486  0.5919
  104MOL0     O13643  -0.973   3.388   5.185  0.4602  0.9351  0.7571
  104MOL0     C13644  -0.790   3.179   5.236  0.5731  1.1712 -0.0276
  104MOL0     C13645  -0.703   3.071   5.262 -0.2340 -0.0608 -0.1349
  104MOL0     N13646  -0.619   2.309   5.373 -0.1084 -0.2907  0.3412
  104MOL0     N13647  -0.585   2.201   5.297 -0.4614 -0.7560  0.3275
  104MOL0     C13648   0.473   2.268   4.798  0.5571  0.3608  0.1970
  104MOL0     C13649   0.599   2.220   4.804 -0.0691 -0.3607  0.2431
  104MOL0     C13650   0.988   2.050   4.749 -1.4172  0.7119 -0.7154
  104MOL0     C13651   1.104   2.126   4.722  0.0698  0.9239 -0.3264
  104MOL0     C13652   1.231   2.084   4.767  0.4114 -0.1101  1.1064
  104MOL0     C13653   1.238   1.972   4.844  0.0840  0.1669  0.5648
  104MOL0     O13654   1.348   1.919   4.899  0.2246  0.4164 -0.5466
  104MOL0     C13655   1.468   1.954   4.857 -0.9626 -0.1746  0.4381
  104MOL0     C13656   1.560   1.829   4.864  0.8465  0.1049 -0.0331
  104MOL0     C13657   1.702   1.875   4.909 -0.0029  0.4017 -0.6597
  104MOL0     C13658   1.716   1.896   5.061 -0.0490  0.0442  0.2652
  104MOL0     C13659   1.859   1.936   5.092  0.7909  0.2267 -0.8669
  104MOL0     C13660   1.978   1.947   5.113  0.1327 -0.1812 -0.3073
  104MOL0     C13661   1.118   1.894   4.875  0.2820  0.2847 -0.0522
  104MOL0     C13662   0.993   1.936   4.827 -0.3722 -0.1517 -0.8218
  104MOL0     H13663   0.548   1.911   4.667  1.1620 -0.0424  0.7341
  104MOL0     H13664   0.310   1.987   4.681  3.1527 -3.1035  0.9080
  104MOL0     H13665   0.103   2.107   4.696 -0.6089  0.2596 -0.7081
  104MOL0     H13666   0.166   2.169   4.542 -0.6911  1.4493 -0.9480
  104MOL0     H13667  -0.076   2.251   4.598  1.0216 -0.1742 -3.4886
  104MOL0     H13668   0.027   2.379   4.568  1.8670  1.0329  0.4767
  104MOL0     H13669  -0.090   2.436   4.774 -1.3058  0.2306  5.7005
  104MOL0     H13670   0.077   2.413   4.832 -1.2462 -2.6236  5.0771
  104MOL0     H13671  -0.138   2.196   4.862 -1.9251  3.2687  1.4270
  104MOL0     H13672   0.025   2.200   4.929  0.1169 -0.1427  0.3617
  104MOL0     H13673  -0.183   2.416   4.970  2.3196  1.0775 -0.4976
  104MOL0     H13674  -0.023   2.409   5.047  0.5385 -1.5631  0.7541
  104MOL0     H13675  -0.177   2.320   5.203 -0.6274  1.5048 -1.7560
  104MOL0     H13676  -0.098   2.178   5.142 -0.8456 -1.6235 -0.9362
  104MOL0     H13677  -0.377   2.286   5.066  0.1508 -0.3155  1.2011
  104MOL0     H13678  -0.308   2.138   5.001 -0.0639  2.1447 -1.7084
  104MOL0     H13679  -0.284   2.065   5.245  0.4575  2.8850 -1.0148
  104MOL0     H13680  -0.430   2.023   5.166  0.8926 -1.4152  0.7900
  104MOL0     H13681  -0.295   2.321   5.400  0.4895 -1.0655 -1.2248
  104MOL0     H13682  -0.407   2.478   5.585  1.4839 -0.1986 -1.6705
  104MOL0     H13683  -0.583   2.468   5.597  0.7702 -0.7203  1.2482
  104MOL0     H13684  -0.423   2.649   5.403  1.1959 -0.1057  0.2096
  104MOL0     H13685  -0.490   2.692   5.556  0.7885  0.1715 -0.9044
  104MOL0     H13686  -0.666   2.578   5.333 -0.9558 -2.4400  1.8998
  104MOL0     H13687  -0.718   2.667   5.469 -0.6497 -3.0343 -0.8219
  104MOL0     H13688  -0.700   2.798   5.247  0.6857  0.4807 -0.7450
  104MOL0     H13689  -0.528   2.800   5.269 -0.4061 -1.0039 -1.8323
  104MOL0     H13690  -0.848   2.951   5.538 -4.1659 -2.0801 -2.2776
  104MOL0     H13691  -1.007   3.140   5.490  0.3098 -1.0401  0.0951
  104MOL0     H13692  -1.076   3.648   5.472  2.9674  0.2123 -2.5743
  104MOL0     H13693  -1.302   3.771   5.434 -2.4972 -0.0856  1.0123
  104MOL0     H13694  -1.621   3.561   5.348  0.7211 -0.1142  0.3983
  104MOL0     H13695  -1.649   3.633   5.177 -3.5606  1.1178  1.2669
  104MOL0     H13696  -1.702   3.777   5.439  1.5168  1.1787 -0.8244
  104MOL0     H13697  -1.818   3.705   5.322 -0.2406 -1.5915  1.9793
  104MOL0     H13698  -1.781   3.865   5.155  1.1588  0.4428 -0.0838
  104MOL0     H13699  -1.632   3.912   5.223  0.4352 -0.8832  0.6464
  104MOL0     H13700  -1.903   3.981   5.342 -0.0456 -1.7570 -2.2018
  104MOL0     H13701  -1.759   4.011   5.425  1.1873  1.7290  0.0240
  104MOL0     H13702  -1.831   4.157   5.166  1.2042  0.1972 -1.1448
  104MOL0     H13703  -1.666   4.145   5.227  0.4697 -3.7322  0.4286
  104MOL0     H13704  -1.761   4.235   5.446 -2.7186 -0.6504  1.8900
  104MOL0     H13705  -1.927   4.220   5.380 -1.4151 -0.3807 -2.0512
  104MOL0     H13706  -1.908   4.417   5.265 -0.6482 -0.0410  1.6688
  104MOL0     H13707  -1.822   4.454   5.410 -1.2977 -3.1651  1.3711
  104MOL0     H13708  -1.678   4.366   5.161  1.0546 -0.7330  1.3973
  104MOL0     H13709  -1.600   4.417   5.307  1.4792 -1.6776 -2.0813
  104MOL0     H13710  -1.448   3.455   5.196 -1.5585  1.1886  1.5040
  104MOL0     H13711  -1.239   3.320   5.246  0.1621 -0.0387  0.6572
  104MOL0     H13712  -0.759   3.233   5.147 -2.1572  0.0892 -1.7860
  104MOL0     H13713  -0.621   3.051   5.194  1.1199 -0.6285  1.5923
  104MOL0     H13714   0.449   2.370   4.828  2.1878  1.3244 -1.5438
  104MOL0     H13715   0.677   2.285   4.842 -1.6257  3.0917 -1.9745
  104MOL0     H13716   1.100   2.222   4.671 -2.1670  0.9690 -0.1661
  104MOL0     H13717   1.325   2.137   4.750  3.4270 -3.9016  3.9724
  104MOL0     H13718   1.504   2.031   4.926 -0.0901  1.3327 -1.6015
  104MOL0     H13719   1.487   2.000   4.760  0.6886  0.5221  1.0613
  104MOL0     H13720   1.537   1.759   4.945  0.4701  1.2762  0.9094
  104MOL0     H13721   1.546   1.762   4.779  1.7922 -1.2671  0.8607
  104MOL0     H13722   1.728   1.965   4.852  1.3383  0.7672  0.4516
  104MOL0     H13723   1.779   1.806   4.874 -0.0254 -0.4680  0.9340
  104MOL0     H13724   1.643   1.975   5.082  2.0271  1.8702  1.0692
  104MOL0     H13725   1.683   1.809   5.118  1.9573 -0.6945  0.3745
  104MOL0     H13726   2.084   1.957   5.115  0.2764 -1.6123  0.9828
  104MOL0     H13727   1.138   1.814   4.946  3.3467  1.5700  0.6815
  104MOL0     H13728   0.904   1.889   4.867  0.0543 -2.5978 -2.5272
  105MOL0     O13729   7.289   2.062   6.263 -0.4763 -0.4699 -0.0186
  105MOL0     C13730   7.316   2.134   6.166  0.0008 -0.6889  1.3838
  105MOL0     O13731   7.230   2.231   6.108 -0.2722  0.5299 -1.0496
  105MOL0     C13732   7.116   2.196   6.051  0.2126  0.3933  0.4733
  105MOL0     C13733   7.117   2.089   5.964  0.3465 -0.1533  0.3194
  105MOL0     C13734   6.993   2.048   5.901 -0.6903  1.2244  0.0085
  105MOL0     C13735   6.868   2.120   5.912 -0.4439  0.3493 -0.0663
  105MOL0     O13736   6.760   2.091   5.830 -0.9782  0.3105 -0.0151
  105MOL0     C13737   6.646   2.178   5.838 -0.1554 -0.6253 -0.6570
  105MOL0     C13738   6.519   2.146   5.753  0.6281 -0.4242  0.0128
  105MOL0     C13739   6.414   2.249   5.780  0.6556 -1.1150 -0.1010
  105MOL0     C13740   6.278   2.207   5.709 -0.5206  0.3616  0.5095
  105MOL0     C13741   6.162   2.315   5.708 -0.9144  0.4026 -0.3761
  105MOL0     C13742   6.027   2.276   5.636  0.4922 -0.2654 -0.0991
  105MOL0     C13743   5.898   2.326   5.718 -0.2083 -0.7088 -0.1407
  105MOL0     C13744   5.877   2.476   5.708 -0.3322  0.6614 -0.4748
  105MOL0     N13745   5.808   2.541   5.821 -0.9260 -0.3021  0.4878
  105MOL0     C13746   5.679   2.513   5.859  0.4324  1.0095  0.2629
  105MOL0     C13747   5.663   2.590   5.964 -0.6131 -0.5499  0.8156
  105MOL0     C13748   5.538   2.615   6.044 -0.0363 -0.0230  0.1006
  105MOL0     C13749   5.439   2.502   6.079 -0.1034 -0.1903 -0.0105
  105MOL0     C13750   5.340   2.521   6.197  0.0833  1.5442 -0.7884
  105MOL0     C13751   5.421   2.510   6.332 -0.4712  0.6327  0.6146
  105MOL0     O13752   5.329   2.513   6.440 -0.0770 -0.0641 -0.9845
  105MOL0     C13753   5.328   2.392   6.508  0.8159  0.3869  0.1905
  105MOL0     C13754   5.428   2.334   6.588  0.6573 -0.7195 -0.3999
  105MOL0     C13755   5.420   2.201   6.637 -0.2923 -0.0683  0.2942
  105MOL0     C13756   5.312   2.119   6.594 -1.1751 -0.2502 -0.4966
  105MOL0     C13757   5.322   1.990   6.647 -0.8320  0.5916  0.3977
  105MOL0     O13758   5.449   1.936   6.667  1.2441  0.6361  0.8388
  105MOL0     C13759   5.438   1.823   6.733 -0.7414  0.0815  1.1286
  105MOL0     C13760   5.444   1.817   6.868  0.3472  0.3495 -1.0360
  105MOL0     C13761   5.460   1.695   6.926 -0.1214  0.3806 -1.2065
  105MOL0     C13762   5.472   1.576   6.851  1.0846  1.0868  0.0834
  105MOL0     O13763   5.503   1.464   6.922  0.4269 -0.1663 -0.2303
  105MOL0     C13764   5.451   1.347   6.874 -0.4445 -0.3536 -0.9975
  105MOL0     C13765   5.303   1.337   6.910 -0.0582 -0.0637  0.0187
  105MOL0     C13766   5.252   1.214   6.830 -0.2309 -0.0868 -0.2738
  105MOL0     C13767   5.099   1.193   6.846 -0.2799  0.3586  0.2913
  105MOL0     C13768   5.062   1.101   6.969  0.1403 -0.7256 -0.0756
  105MOL0     C13769   4.911   1.085   6.999 -0.2080 -0.0244 -0.5493
  105MOL0     C13770   4.810   1.056   6.884  0.0559  0.8415  0.2915
  105MOL0     C13771   4.851   0.925   6.812  0.5881  0.1303 -0.0373
  105MOL0    Cl13772   4.721   0.880   6.704  0.5137 -0.1714  0.1762
  105MOL0     C13773   5.441   1.575   6.711  0.8072 -0.2144  0.2192
  105MOL0     C13774   5.420   1.705   6.655  0.1250 -0.6303  0.2995
  105MOL0     O13775   5.209   1.938   6.675  0.0557  0.0493 -0.1142
  105MOL0     C13776   5.213   2.175   6.517 -0.1640  0.1849  0.0273
  105MOL0     C13777   5.225   2.307   6.472  0.2476  0.0830  0.2954
  105MOL0     N13778   5.773   2.671   5.972 -0.2518  0.2104  0.8419
  105MOL0     N13779   5.859   2.642   5.889 -0.1154 -0.3387 -0.4092
  105MOL0     C13780   6.883   2.230   6.001  0.4765 -1.8245 -0.0775
  105MOL0     C13781   7.001   2.267   6.067 -0.1928 -0.8380 -0.5584
  105MOL0     C13782   7.451   2.127   6.106 -0.3527  0.5506  0.0004
  105MOL0     C13783   7.478   2.206   5.993  0.2890 -0.7530  0.3411
  105MOL0     C13784   7.612   2.202   5.950 -0.1526  0.4417  0.3322
  105MOL0     C13785   7.716   2.132   6.003  0.4119 -1.4646  0.3584
  105MOL0     O13786   7.840   2.130   5.951 -0.4865 -0.3860  0.1103
  105MOL0     C13787   7.877   2.176   5.824  0.9582  0.7133  0.0089
  105MOL0     C13788   8.012   2.139   5.774  0.4735  0.2624 -0.2931
  105MOL0     C13789   8.024   2.137   5.623  0.0297  0.2151 -0.3180
  105MOL0     C13790   8.170   2.082   5.592 -0.7507 -0.6684 -0.5215
  105MOL0     C13791   8.264   2.197   5.587  0.8277 -0.4053  0.3598
  105MOL0     C13792   8.345   2.292   5.565 -0.3446 -0.1815 -0.2337
  105MOL0     C13793   7.690   2.076   6.129  0.3892 -0.6776  0.6167
  105MOL0     C13794   7.558   2.068   6.178 -0.4340 -0.1588  0.5363
  105MOL0     H13795   7.208   2.032   5.952  0.2152 -0.3263  0.1448
  105MOL0     H13796   6.990   1.948   5.857 -1.1837 -0.3136  3.2059
  105MOL0     H13797   6.689   2.270   5.797  0.4439 -0.5678  0.0870
  105MOL0     H13798   6.613   2.197   5.941  0.7542  1.4149 -0.6884
  105MOL0     H13799   6.482   2.045   5.773 -1.0045  0.1157 -0.1813
  105MOL0     H13800   6.544   2.160   5.647 -1.1620  2.8600 -0.1250
  105MOL0     H13801   6.450   2.346   5.744 -0.2603 -0.1338  1.5114
  105MOL0     H13802   6.406   2.262   5.888  3.3539 -2.9325  0.4258
  105MOL0     H13803   6.295   2.175   5.606 -0.7859 -0.5606  0.7497
  105MOL0     H13804   6.234   2.122   5.761  4.8757 -3.9450 -0.9989
  105MOL0     H13805   6.217   2.399   5.665  3.0420 -2.2452 -1.1311
  105MOL0     H13806   6.140   2.332   5.813 -0.7669  2.5839 -0.6655
  105MOL0     H13807   6.034   2.167   5.647  2.9225  0.0461  2.6678
  105MOL0     H13808   6.016   2.304   5.531  0.8757  0.4257  0.0415
  105MOL0     H13809   5.815   2.263   5.685 -1.0118 -0.3826  1.1864
  105MOL0     H13810   5.908   2.305   5.825  1.7829  2.8630  0.5421
  105MOL0     H13811   5.838   2.498   5.608 -0.1442 -1.5322 -1.0869
  105MOL0     H13812   5.978   2.516   5.702 -0.1290  0.0570 -1.3321
  105MOL0     H13813   5.610   2.440   5.818  0.4095  1.0973  0.1430
  105MOL0     H13814   5.480   2.692   5.993  0.2952  1.5270  1.9646
  105MOL0     H13815   5.584   2.658   6.133  2.1295 -1.3804 -0.2679
  105MOL0     H13816   5.496   2.409   6.093  1.8507  1.0715  1.0029
  105MOL0     H13817   5.383   2.482   5.987  1.4010  1.7759 -1.4525
  105MOL0     H13818   5.305   2.624   6.201  0.6013  1.7021  0.0913
  105MOL0     H13819   5.257   2.449   6.196  2.4579 -1.4107  0.0285
  105MOL0     H13820   5.474   2.604   6.349  2.4875 -1.0045  0.9571
  105MOL0     H13821   5.500   2.436   6.320  2.5504  3.7795 -0.3785
  105MOL0     H13822   5.501   2.397   6.638 -0.6579  0.5673 -0.0411
  105MOL0     H13823   5.493   2.166   6.709 -0.5259 -1.4440 -0.1098
  105MOL0     H13824   5.466   1.902   6.932 -1.6132  1.6648 -1.9962
  105MOL0     H13825   5.460   1.687   7.034  0.6350  0.7435 -1.1738
  105MOL0     H13826   5.493   1.257   6.919  0.2230  0.2517 -0.3830
  105MOL0     H13827   5.463   1.329   6.767 -0.1440  2.2573 -1.4558
  105MOL0     H13828   5.247   1.428   6.886 -2.6296 -2.1282 -2.6061
  105MOL0     H13829   5.289   1.312   7.016  1.0567 -0.5717  0.0565
  105MOL0     H13830   5.306   1.119   6.842 -0.0496 -0.2862 -2.2572
  105MOL0     H13831   5.261   1.243   6.725  0.9795  0.4483 -0.0392
  105MOL0     H13832   5.054   1.291   6.865 -1.2730  0.2694 -1.3994
  105MOL0     H13833   5.056   1.145   6.757  1.7862  1.9067 -1.6512
  105MOL0     H13834   5.108   1.143   7.059  1.1511  2.0564 -1.7441
  105MOL0     H13835   5.099   1.000   6.954  2.9573 -0.0654  1.7010
  105MOL0     H13836   4.879   1.180   7.043  1.3138 -1.3828  4.1949
  105MOL0     H13837   4.895   1.007   7.075 -0.5157 -0.2494 -0.8435
  105MOL0     H13838   4.712   1.044   6.930  0.1176 -3.7892 -0.3662
  105MOL0     H13839   4.820   1.139   6.813  0.0320  0.2264 -0.4447
  105MOL0     H13840   4.860   0.847   6.887 -0.7241  1.3201  1.4316
  105MOL0     H13841   4.931   0.946   6.739 -2.0714  0.5811 -3.0438
  105MOL0     H13842   5.434   1.487   6.647 -1.5430  0.7676 -1.0072
  105MOL0     H13843   5.410   1.724   6.549 -3.7620  2.5474  0.9527
  105MOL0     H13844   5.119   2.129   6.491  0.6802  0.3051 -3.8430
  105MOL0     H13845   5.157   2.354   6.401 -0.2214 -0.2520  0.5146
  105MOL0     H13846   6.801   2.297   6.022  2.0340 -0.3742  1.8364
  105MOL0     H13847   6.999   2.365   6.114 -2.4035 -0.0245 -2.1892
  105MOL0     H13848   7.400   2.257   5.937  0.3367 -0.3340  0.6523
  105MOL0     H13849   7.625   2.247   5.852  0.6194 -0.9836 -0.2614
  105MOL0     H13850   7.867   2.285   5.816 -1.3260  0.3868 -3.5310
  105MOL0     H13851   7.810   2.122   5.757 -1.9940  0.3783  2.9703
  105MOL0     H13852   8.072   2.220   5.816  1.7394 -0.5864 -0.3937
  105MOL0     H13853   8.025   2.043   5.825 -0.0126  1.1616  1.6211
  105MOL0     H13854   8.014   2.238   5.581  3.6545  0.9392  0.2044
  105MOL0     H13855   7.949   2.075   5.574 -1.6279  2.3268 -0.6433
  105MOL0     H13856   8.206   2.006   5.662  0.1087 -0.3378 -0.5941
  105MOL0     H13857   8.177   2.023   5.500 -0.8695 -1.1855 -0.2086
  105MOL0     H13858   8.420   2.369   5.556 -1.8407  1.1325 -2.3896
  105MOL0     H13859   7.768   2.031   6.189 -1.4537 -2.2107  1.9881
  105MOL0     H13860   7.559   2.020   6.275 -2.0229  0.9227  1.1196
  106MOL0     O13861   7.808   1.886  10.676  0.3058  0.0009  0.1727
  106MOL0     C13862   7.833   1.997  10.711 -0.5199 -0.9846 -0.8658
  106MOL0     O13863   7.743   2.099  10.714  0.1186 -0.8634  1.1687
  106MOL0     C13864   7.605   2.083  10.684  0.4041  0.2061 -0.4158
  106MOL0     C13865   7.568   2.014  10.567  0.7559  0.8829  0.6356
  106MOL0     C13866   7.429   2.009  10.522  0.3040 -0.8284  0.6696
  106MOL0     C13867   7.323   2.067  10.596 -0.0368 -0.0664  0.0308
  106MOL0     O13868   7.190   2.066  10.561 -0.7256  0.4616  0.0942
  106MOL0     C13869   7.156   1.991  10.443 -0.2125  1.1138  0.5084
  106MOL0     C13870   7.004   1.983  10.421 -1.6556 -0.5135 -0.2628
  106MOL0     C13871   6.937   1.909  10.535  0.7161  0.3631 -1.0735
  106MOL0     C13872   6.786   1.913  10.526 -0.9587  0.6408 -0.0579
  106MOL0     C13873   6.737   1.823  10.634  0.5066  0.4686  0.5907
  106MOL0     C13874   6.584   1.829  10.646 -0.4500 -1.2841 -0.3361
  106MOL0     C13875   6.539   1.713  10.739  0.7757  0.4694 -0.0144
  106MOL0     C13876   6.389   1.707  10.764  0.2728 -1.3577  0.5846
  106MOL0     N13877   6.366   1.580  10.828 -0.1775 -0.0323  0.4974
  106MOL0     C13878   6.334   1.551  10.961  0.3929 -0.1228 -0.2259
  106MOL0     C13879   6.335   1.419  10.971 -0.0513 -0.6849  0.3215
  106MOL0     C13880   6.319   1.348  11.107  0.3831  0.4020  0.1663
  106MOL0     C13881   6.180   1.377  11.163  0.8872 -1.2134 -0.5469
  106MOL0     C13882   6.070   1.343  11.057 -0.4235  0.4569  0.0670
  106MOL0     C13883   5.927   1.363  11.110  0.0462  0.1523  0.1488
  106MOL0     O13884   5.843   1.396  10.993 -0.1123 -0.6935 -0.4864
  106MOL0     C13885   5.708   1.427  11.010  0.3991 -0.1832  1.1098
  106MOL0     C13886   5.640   1.420  11.129  0.1080  0.2383 -0.2050
  106MOL0     C13887   5.503   1.439  11.131 -0.1976 -0.3584 -0.5060
  106MOL0     C13888   5.439   1.482  11.011 -0.4123  0.1985 -0.8510
  106MOL0     C13889   5.289   1.505  11.014 -1.0708 -0.1782  1.1621
  106MOL0     O13890   5.225   1.553  10.900  0.2493  0.3416  0.5803
  106MOL0     C13891   5.093   1.569  10.909 -0.1143 -0.1514 -0.3502
  106MOL0     C13892   5.019   1.538  10.796  0.3857 -0.6048  1.1459
  106MOL0     C13893   4.881   1.552  10.791  0.2618  1.3517 -0.2820
  106MOL0     C13894   4.804   1.586  10.903 -0.1628  0.0365  0.0231
  106MOL0     O13895   4.671   1.581  10.911 -0.1891  0.0365  0.3263
  106MOL0     C13896   4.604   1.476  10.856  0.3074  0.2474  0.8643
  106MOL0     C13897   4.571   1.373  10.972 -0.0601  0.4354  0.7080
  106MOL0     C13898   4.497   1.243  10.921 -0.1051 -0.7411  0.0190
  106MOL0     C13899   4.486   1.150  11.039  0.0592 -0.5223  0.5991
  106MOL0     C13900   4.398   1.022  11.017 -0.0680  0.2981 -0.0807
  106MOL0     C13901   4.252   1.059  11.017 -0.2798  0.4818 -0.5656
  106MOL0     C13902   4.201   1.088  11.158  1.3064  0.3316 -0.6108
  106MOL0     C13903   4.047   1.107  11.172 -0.2998 -0.8605  0.2976
  106MOL0    Cl13904   3.992   1.158  11.330  0.0070 -0.0046 -0.5256
  106MOL0     C13905   4.875   1.629  11.016  1.7269  0.3129  0.0146
  106MOL0     C13906   5.018   1.618  11.022  0.0746  0.5043  0.3884
  106MOL0     O13907   5.233   1.452  11.108  0.0020  0.0439  0.0527
  106MOL0     C13908   5.512   1.496  10.896  0.2752  0.9448  0.2115
  106MOL0     C13909   5.647   1.471  10.894 -0.5355 -0.4455 -0.4028
  106MOL0     N13910   6.369   1.356  10.849 -0.7958 -0.2275 -0.3744
  106MOL0     N13911   6.387   1.454  10.763  0.9817 -0.2571 -0.7593
  106MOL0     C13912   7.366   2.126  10.719  0.3638 -0.2486  0.6364
  106MOL0     C13913   7.501   2.138  10.757  0.7402  0.2474 -0.2047
  106MOL0     C13914   7.969   2.015  10.774 -0.0388 -0.6530 -1.1200
  106MOL0     C13915   8.075   1.919  10.766  0.3149 -0.5539  0.8212
  106MOL0     C13916   8.177   1.918  10.853 -0.6085 -0.0157 -0.5055
  106MOL0     C13917   8.199   2.022  10.940 -0.0119 -0.6802  0.1777
  106MOL0     O13918   8.279   1.999  11.048  0.4694  0.4549 -0.4116
  106MOL0     C13919   8.298   2.097  11.147  0.6514 -0.4935 -0.3638
  106MOL0     C13920   8.395   2.209  11.108  0.0228 -0.4017 -1.0216
  106MOL0     C13921   8.441   2.292  11.229  0.8703  0.8186 -0.1854
  106MOL0     C13922   8.583   2.344  11.221 -0.9582 -1.4504  0.0278
  106MOL0     C13923   8.623   2.440  11.332 -0.5968 -0.8666 -0.0097
  106MOL0     C13924   8.675   2.501  11.417  0.1240 -0.9769  0.0933
  106MOL0     C13925   8.107   2.130  10.934 -1.0763 -0.8619  0.1196
  106MOL0     C13926   7.998   2.127  10.848  0.5920 -0.1706  1.1634
  106MOL0     H13927   7.633   1.953  10.504 -2.3936 -3.1347  0.8213
  106MOL0     H13928   7.402   1.958  10.430 -1.9558 -2.5071  2.1663
  106MOL0     H13929   7.194   1.889  10.451 -1.7754  0.4647 -0.1647
  106MOL0     H13930   7.200   2.042  10.357  0.7903  1.9424  1.4785
  106MOL0     H13931   6.989   1.931  10.326  0.6644  2.5010 -2.5222
  106MOL0     H13932   6.964   2.085  10.421 -3.6019 -1.0348  4.4779
  106MOL0     H13933   6.968   1.958  10.628 -3.2033  1.3724 -0.1015
  106MOL0     H13934   6.979   1.809  10.546 -2.9932 -1.1183  1.8940
  106MOL0     H13935   6.756   2.018  10.530  1.0609  1.2039  1.4997
  106MOL0     H13936   6.751   1.866  10.433 -1.8294 -1.0479  1.0876
  106MOL0     H13937   6.791   1.856  10.723 -0.0810  2.8462  0.1547
  106MOL0     H13938   6.758   1.716  10.623  0.1782  0.4823 -0.2569
  106MOL0     H13939   6.525   1.829  10.554 -0.5158  1.6634 -0.3722
  106MOL0     H13940   6.558   1.925  10.692  1.9942  1.0178 -3.3520
  106MOL0     H13941   6.572   1.621  10.690  0.4592  0.6683 -0.6011
  106MOL0     H13942   6.587   1.733  10.836 -0.8198  2.3266  0.4696
  106MOL0     H13943   6.334   1.714  10.670  0.3609  0.8531  0.6523
  106MOL0     H13944   6.376   1.792  10.832 -4.1076 -0.5859 -0.8935
  106MOL0     H13945   6.317   1.621  11.042 -2.5833 -0.6521 -0.2804
  106MOL0     H13946   6.398   1.372  11.179  0.4818  2.2391 -0.4984
  106MOL0     H13947   6.329   1.242  11.083 -2.5426  0.0727  0.1617
  106MOL0     H13948   6.181   1.485  11.183 -1.2469 -0.6172 -3.1167
  106MOL0     H13949   6.160   1.316  11.252  1.9558 -0.7594  0.0242
  106MOL0     H13950   6.071   1.386  10.957 -1.1141  1.8839  0.6540
  106MOL0     H13951   6.083   1.238  11.028  3.1146  0.5452  0.8468
  106MOL0     H13952   5.944   1.455  11.166  1.2536  0.6036 -0.9130
  106MOL0     H13953   5.875   1.279  11.156  2.1095 -0.3768  1.6186
  106MOL0     H13954   5.697   1.393  11.218  0.6737  2.4938  0.1781
  106MOL0     H13955   5.453   1.430  11.227 -0.4998 -2.7207 -0.8258
  106MOL0     H13956   5.070   1.520  10.702 -0.1140 -1.5444  1.0448
  106MOL0     H13957   4.824   1.535  10.700 -0.0021  1.3208 -0.1137
  106MOL0     H13958   4.654   1.428  10.771 -3.5990  0.1760 -1.6543
  106MOL0     H13959   4.502   1.505  10.828 -0.3614 -1.9771  0.7484
  106MOL0     H13960   4.513   1.430  11.045  1.1707  1.4844  0.9151
  106MOL0     H13961   4.673   1.350  11.007  0.1460 -1.1483 -0.7837
  106MOL0     H13962   4.554   1.197  10.839  2.2698  0.6700  0.7629
  106MOL0     H13963   4.397   1.271  10.887  0.1623  1.8583  1.1817
  106MOL0     H13964   4.584   1.131  11.083  0.3204  1.4372  0.9479
  106MOL0     H13965   4.440   1.210  11.119 -3.2292  1.8818 -2.7496
  106MOL0     H13966   4.431   0.943  11.084 -0.7783  1.6200  1.9429
  106MOL0     H13967   4.428   0.983  10.919 -0.6189  1.3885 -0.7042
  106MOL0     H13968   4.191   0.979  10.975  0.8737 -0.6319 -0.1897
  106MOL0     H13969   4.234   1.153  10.964  0.8141  0.8895 -0.2519
  106MOL0     H13970   4.207   0.994  11.213 -3.9331  0.8533  1.4984
  106MOL0     H13971   4.255   1.172  11.202  0.7201  2.8603 -4.1994
  106MOL0     H13972   3.999   1.016  11.133 -0.0758 -0.3825 -1.1473
  106MOL0     H13973   4.013   1.184  11.102  0.6818  0.3380  1.1021
  106MOL0     H13974   4.815   1.650  11.104 -0.3259  0.3352 -1.3321
  106MOL0     H13975   5.082   1.661  11.099  1.3390  0.9438 -0.8744
  106MOL0     H13976   5.465   1.517  10.800 -3.5669  0.3861  1.7784
  106MOL0     H13977   5.701   1.470  10.800 -1.3355  0.8562 -0.9047
  106MOL0     H13978   7.290   2.169  10.784 -2.4323  1.5365 -3.3543
  106MOL0     H13979   7.521   2.193  10.849 -2.8266 -0.5833  1.2345
  106MOL0     H13980   8.059   1.845  10.689  0.6451  2.4108 -2.3000
  106MOL0     H13981   8.246   1.834  10.859 -2.2686 -1.3221  1.4319
  106MOL0     H13982   8.340   2.044  11.233 -0.4970  0.3437  0.7693
  106MOL0     H13983   8.207   2.149  11.182  3.0228  3.2567  0.9004
  106MOL0     H13984   8.487   2.165  11.068 -0.0340 -1.6728  0.1610
  106MOL0     H13985   8.347   2.265  11.028  0.0585 -0.3662 -1.0186
  106MOL0     H13986   8.418   2.236  11.320 -1.0059  0.4453 -0.8343
  106MOL0     H13987   8.371   2.376  11.220  0.9314  0.7880 -1.0785
  106MOL0     H13988   8.669   2.278  11.208  1.8064  2.1695 -1.7640
  106MOL0     H13989   8.588   2.407  11.132 -0.2811 -1.1089  0.3016
  106MOL0     H13990   8.707   2.547  11.509 -0.2109  0.4005 -0.4473
  106MOL0     H13991   8.113   2.210  11.007 -2.6956  0.8124 -1.4471
  106MOL0     H13992   7.922   2.204  10.861  0.1549 -0.3109 -0.2939
  107MOL0     O13993   3.753   2.011  10.252  0.5649 -0.0404  0.7335
  107MOL0     C13994   3.831   2.085  10.199  0.0269 -1.1356  0.8349
  107MOL0     O13995   3.821   2.132  10.072 -0.4499 -0.1678  0.3453
  107MOL0     C13996   3.714   2.084  10.001 -0.5582  0.4897  0.5343
  107MOL0     C13997   3.592   2.137  10.027 -0.1385 -0.4212 -0.2358
  107MOL0     C13998   3.478   2.088   9.968 -0.4799 -0.3286  0.3278
  107MOL0     C13999   3.493   1.986   9.869 -0.6243 -0.1921 -0.3265
  107MOL0     O14000   3.392   1.932   9.787 -0.4647 -0.3012 -0.0549
  107MOL0     C14001   3.256   1.920   9.846 -0.8226  0.0819  0.4498
  107MOL0     C14002   3.254   1.778   9.921 -0.2542 -0.8820  0.3841
  107MOL0     C14003   3.109   1.765   9.990 -0.7446  0.2291  0.6367
  107MOL0     C14004   3.089   1.860  10.109 -0.7906  1.0968  0.5559
  107MOL0     C14005   3.174   1.834  10.227  0.6256 -0.7369  0.3559
  107MOL0     C14006   3.168   1.699  10.300 -0.4441  0.7779  0.5960
  107MOL0     C14007   3.020   1.653  10.328  0.2150  0.2792 -0.0094
  107MOL0     C14008   3.009   1.527  10.416 -0.2902 -0.0683  0.0381
  107MOL0     N14009   2.878   1.491  10.461  0.2601 -0.7346  0.0565
  107MOL0     C14010   2.784   1.453  10.373 -0.4110  1.0343  0.4097
  107MOL0     C14011   2.686   1.417  10.451  0.1447 -0.1401 -0.6259
  107MOL0     C14012   2.561   1.350  10.404 -0.7969  0.3462 -0.2210
  107MOL0     C14013   2.482   1.273  10.510  0.9639 -0.3081  0.6754
  107MOL0     C14014   2.355   1.185  10.464 -1.3436  0.0055  0.8954
  107MOL0     C14015   2.272   1.158  10.591 -0.3863  0.2305 -0.5648
  107MOL0     O14016   2.134   1.136  10.558 -0.3154 -1.1027 -0.1025
  107MOL0     C14017   2.089   1.013  10.523  0.1699  0.6513  0.3597
  107MOL0     C14018   2.152   0.895  10.521 -0.7034  1.7392 -0.1436
  107MOL0     C14019   2.079   0.776  10.484  0.0207  0.4047  0.5472
  107MOL0     C14020   1.945   0.781  10.454  0.3567  0.2814  0.3397
  107MOL0     C14021   1.874   0.656  10.432  0.6177  1.2097  0.2002
  107MOL0     O14022   1.945   0.539  10.414  0.3137  0.0406  0.3930
  107MOL0     C14023   1.889   0.421  10.367 -0.5279 -0.4356  0.3898
  107MOL0     C14024   1.793   0.420  10.262  0.2870  0.2293  0.2134
  107MOL0     C14025   1.732   0.298  10.231 -0.0611  0.3146 -0.2416
  107MOL0     C14026   1.766   0.176  10.288 -0.1731  0.4102  0.4756
  107MOL0     O14027   1.719   0.045  10.263 -0.0001  0.0807  0.3640
  107MOL0     C14028   1.618   0.025  10.159  0.7017  0.4931  0.0254
  107MOL0     C14029   1.485   0.020  10.226  0.9279 -0.2519  0.2039
  107MOL0     C14030   1.481  -0.074  10.350  0.4576  0.9707 -0.4815
  107MOL0     C14031   1.346  -0.051  10.419 -0.3198  0.0562  0.7970
  107MOL0     C14032   1.247  -0.159  10.413 -0.8810  0.0285 -0.3153
  107MOL0     C14033   1.218  -0.210  10.275 -1.2094  0.3080  1.0835
  107MOL0     C14034   1.096  -0.298  10.267  0.5162 -0.3384 -1.4962
  107MOL0     C14035   1.082  -0.396  10.155  0.7374  0.1863  0.4993
  107MOL0    Cl14036   1.188  -0.540  10.180 -0.1348 -0.0853 -0.2260
  107MOL0     C14037   1.861   0.188  10.383 -0.1206  0.0997 -1.1380
  107MOL0     C14038   1.926   0.302  10.428 -0.3108 -1.2611 -0.8004
  107MOL0     O14039   1.750   0.660  10.442  0.3122  0.3713  0.7465
  107MOL0     C14040   1.876   0.899  10.452 -1.3239 -0.5867 -0.3754
  107MOL0     C14041   1.953   1.015  10.487 -0.0731 -0.6453 -0.6489
  107MOL0     N14042   2.716   1.451  10.584 -0.3493  0.5377 -0.0304
  107MOL0     N14043   2.835   1.499  10.590  0.7785 -0.2859  0.6152
  107MOL0     C14044   3.620   1.931   9.843 -0.0608 -0.0837 -1.2144
  107MOL0     C14045   3.730   1.982   9.908 -0.1600  0.0325 -0.2284
  107MOL0     C14046   3.931   2.148  10.292  0.5607  0.0215  0.0886
  107MOL0     C14047   4.038   2.228  10.245 -0.5619  1.1265 -0.0733
  107MOL0     C14048   4.120   2.298  10.329 -0.8469  0.1397 -0.7246
  107MOL0     C14049   4.098   2.281  10.474  0.0835 -0.3826  0.5633
  107MOL0     O14050   4.207   2.323  10.553  0.1245 -0.2894 -0.3635
  107MOL0     C14051   4.200   2.317  10.699  0.2219 -0.3577  0.8178
  107MOL0     C14052   4.278   2.191  10.748 -0.3893  1.0894 -0.0095
  107MOL0     C14053   4.441   2.193  10.725  0.5772  0.8291  0.2386
  107MOL0     C14054   4.468   2.179  10.571  0.3796  0.5354 -0.1735
  107MOL0     C14055   4.610   2.158  10.568 -0.7033 -0.0832  0.7033
  107MOL0     C14056   4.733   2.138  10.558 -0.1661  0.5221 -0.3828
  107MOL0     C14057   3.988   2.199  10.525 -0.1492 -1.3192 -0.7243
  107MOL0     C14058   3.908   2.128  10.435  0.7820 -0.2998 -0.1224
  107MOL0     H14059   3.568   2.210  10.104  0.8117  1.0312 -1.2392
  107MOL0     H14060   3.388   2.137  10.002 -0.5344 -0.9315  1.0962
  107MOL0     H14061   3.181   1.922   9.766 -1.3532  1.2117  0.9514
  107MOL0     H14062   3.237   1.995   9.923 -1.6182 -1.7859  2.1585
  107MOL0     H14063   3.338   1.752   9.986 -0.5844 -1.2085  0.6871
  107MOL0     H14064   3.270   1.705   9.842 -1.0861 -0.2594 -0.3750
  107MOL0     H14065   3.092   1.666  10.035 -0.6407  0.7146  1.7706
  107MOL0     H14066   3.039   1.781   9.908 -0.2320  3.5233  0.7020
  107MOL0     H14067   3.100   1.967  10.090 -2.3057  1.4796  1.6303
  107MOL0     H14068   2.985   1.856  10.144 -0.0559 -1.3443  2.7876
  107MOL0     H14069   3.144   1.911  10.299  4.1854 -0.1840  1.4529
  107MOL0     H14070   3.277   1.859  10.199 -0.1217 -1.1291 -3.1881
  107MOL0     H14071   3.226   1.686  10.392 -0.7873 -3.2520  0.4230
  107MOL0     H14072   3.210   1.625  10.231  0.8741  2.5287 -0.5900
  107MOL0     H14073   2.971   1.732  10.384 -1.2158 -1.0905  0.7479
  107MOL0     H14074   2.969   1.629  10.234 -1.3464  2.4783  0.2001
  107MOL0     H14075   3.074   1.550  10.500 -0.5445  1.4054 -0.1490
  107MOL0     H14076   3.049   1.434  10.374  3.1044  0.5265  1.6079
  107MOL0     H14077   2.798   1.442  10.266 -4.0826 -1.9119  0.0324
  107MOL0     H14078   2.594   1.282  10.325  1.1571  0.4617  0.4262
  107MOL0     H14079   2.488   1.428  10.383 -1.4195 -0.5679 -1.5825
  107MOL0     H14080   2.449   1.345  10.585  1.7332  1.9946 -1.0552
  107MOL0     H14081   2.552   1.202  10.555  2.1522 -1.8064 -3.1269
  107MOL0     H14082   2.297   1.243  10.392  1.3146 -0.8234 -2.1651
  107MOL0     H14083   2.383   1.101  10.400  1.4429  2.1284 -0.9344
  107MOL0     H14084   2.272   1.248  10.652 -2.9483 -1.1935  1.7477
  107MOL0     H14085   2.309   1.074  10.652  0.1942  0.5568 -0.4608
  107MOL0     H14086   2.260   0.893  10.533 -0.3521  1.6845 -2.8293
  107MOL0     H14087   2.126   0.678  10.491 -1.7409 -0.4968  0.2560
  107MOL0     H14088   1.759   0.510  10.211 -1.9388 -0.0536  1.0783
  107MOL0     H14089   1.663   0.288  10.147  0.2036 -0.9455 -0.3285
  107MOL0     H14090   1.641  -0.075  10.123  0.3353 -0.7617  2.9879
  107MOL0     H14091   1.618   0.088  10.069  0.7415  2.1602  1.1539
  107MOL0     H14092   1.410  -0.001  10.149 -0.4883  1.2060  1.0991
  107MOL0     H14093   1.457   0.118  10.267 -1.7756 -0.8108 -0.0993
  107MOL0     H14094   1.553  -0.040  10.425  0.1502 -2.5706  1.6519
  107MOL0     H14095   1.501  -0.178  10.322 -0.0380  0.4312  1.1048
  107MOL0     H14096   1.374  -0.045  10.525 -0.0725  0.7148  0.6978
  107MOL0     H14097   1.299   0.040  10.381  0.6522  0.6585  1.0007
  107MOL0     H14098   1.159  -0.118  10.462 -1.5432  0.3282 -1.7171
  107MOL0     H14099   1.283  -0.244  10.472  2.3228 -0.2226 -2.3942
  107MOL0     H14100   1.304  -0.271  10.247 -1.3945  2.3580 -5.5157
  107MOL0     H14101   1.209  -0.131  10.200 -4.5182 -0.4092  0.5576
  107MOL0     H14102   1.093  -0.360  10.358  1.4379  2.0370  0.2701
  107MOL0     H14103   1.004  -0.240  10.273  0.4212 -0.6272  0.6012
  107MOL0     H14104   1.096  -0.355  10.055  2.9425 -1.9109 -0.1172
  107MOL0     H14105   0.978  -0.432  10.157  0.5295  0.7964  1.3368
  107MOL0     H14106   1.873   0.094  10.436 -5.1351 -0.0869  0.1146
  107MOL0     H14107   2.000   0.299  10.507 -0.1996  1.7172 -0.6832
  107MOL0     H14108   1.772   0.894  10.420 -0.5688 -2.0885 -2.9001
  107MOL0     H14109   1.910   1.114  10.492  3.6647  1.0746  2.4783
  107MOL0     H14110   3.636   1.857   9.765  1.3678  1.0950 -2.0826
  107MOL0     H14111   3.821   1.927   9.884  0.1356  0.6731 -0.6133
  107MOL0     H14112   4.048   2.228  10.137  2.3042  1.9283  0.0971
  107MOL0     H14113   4.205   2.357  10.298  0.4500 -1.0904  0.3135
  107MOL0     H14114   4.098   2.305  10.738 -0.1623  1.2093  0.3592
  107MOL0     H14115   4.244   2.410  10.738  5.3727 -1.7457 -0.9165
  107MOL0     H14116   4.257   2.186  10.855  2.0053  4.1563  0.7725
  107MOL0     H14117   4.227   2.104  10.707  2.0206 -0.7375  0.5888
  107MOL0     H14118   4.478   2.106  10.780 -2.4972  0.3787  1.7971
  107MOL0     H14119   4.484   2.287  10.762 -1.6265  1.6578  0.8166
  107MOL0     H14120   4.420   2.088  10.536  0.9730  0.0676  0.1983
  107MOL0     H14121   4.444   2.269  10.514 -4.2998  0.7022  1.5721
  107MOL0     H14122   4.838   2.125  10.545 -0.1703  1.7767 -2.0517
  107MOL0     H14123   3.980   2.185  10.632 -3.3223  0.6162 -0.5672
  107MOL0     H14124   3.817   2.076  10.463  2.1165 -1.9692  1.3796
  108MOL0     O14125  11.353  10.007   2.244  0.4920 -0.0701 -0.8255
  108MOL0     C14126  11.413   9.912   2.198  0.8079  0.1545 -0.3183
  108MOL0     O14127  11.343   9.800   2.152 -0.1601 -1.0036  0.4414
  108MOL0     C14128  11.204   9.809   2.143  0.6847  0.4607  0.8132
  108MOL0     C14129  11.138   9.778   2.019 -0.4701 -0.2966  1.3179
  108MOL0     C14130  10.999   9.795   2.012  0.3965 -0.6719  0.9350
  108MOL0     C14131  10.920   9.834   2.120  0.4997 -0.5846 -0.0686
  108MOL0     O14132  10.788   9.849   2.112  0.7043  0.1108  0.3536
  108MOL0     C14133  10.712   9.815   1.990 -0.0312  0.8224  0.3672
  108MOL0     C14134  10.720   9.665   1.950  0.7720  0.3816  0.3866
  108MOL0     C14135  10.645   9.591   2.061  0.5424  0.0747 -0.2748
  108MOL0     C14136  10.663   9.435   2.024  0.0124  0.2139 -0.3623
  108MOL0     C14137  10.592   9.349   2.126 -0.4818  0.1886 -0.6812
  108MOL0     C14138  10.584   9.202   2.076  0.6607  0.3889  0.8997
  108MOL0     C14139  10.462   9.183   1.973 -0.7379 -0.1074 -1.2458
  108MOL0     C14140  10.463   9.032   1.929 -0.1736  0.3074  0.4155
  108MOL0     N14141  10.408   8.943   2.031 -0.6249  0.2497  0.7132
  108MOL0     C14142  10.274   8.912   2.030 -0.9713  0.0353 -0.2614
  108MOL0     C14143  10.261   8.840   2.145  0.5345 -0.4111 -0.2713
  108MOL0     C14144  10.118   8.813   2.187 -0.6876  0.0647  0.2666
  108MOL0     C14145  10.033   8.934   2.237 -0.9131 -0.0725 -0.1174
  108MOL0     C14146   9.945   8.888   2.349  1.2056  0.1166  0.5062
  108MOL0     C14147   9.877   8.996   2.422  0.8090 -0.0538  0.6691
  108MOL0     O14148   9.781   9.068   2.338 -0.9188  0.2715  0.2479
  108MOL0     C14149   9.666   9.010   2.300  0.5133 -1.0536  0.8660
  108MOL0     C14150   9.614   8.882   2.335 -0.1760 -0.3630  0.0156
  108MOL0     C14151   9.495   8.822   2.294 -0.4440  1.3933  0.9530
  108MOL0     C14152   9.407   8.902   2.211  0.0839 -0.1057  0.2734
  108MOL0     C14153   9.277   8.848   2.168  0.1942 -0.5647 -0.0278
  108MOL0     O14154   9.229   8.888   2.047  0.1909 -0.1633 -0.4224
  108MOL0     C14155   9.096   8.874   2.008 -0.7223 -0.2050  0.1502
  108MOL0     C14156   9.067   8.944   1.888  0.2321 -0.4597 -0.0917
  108MOL0     C14157   8.927   8.951   1.857 -0.1925  0.4618  1.2766
  108MOL0     C14158   8.834   8.882   1.926 -0.4113 -0.7331 -0.2633
  108MOL0     O14159   8.698   8.902   1.885  0.7414  0.5784  0.4107
  108MOL0     C14160   8.605   8.788   1.898  0.1758  0.3639 -0.2785
  108MOL0     C14161   8.509   8.788   1.777  0.8505  0.3812 -0.4112
  108MOL0     C14162   8.462   8.642   1.745 -0.4423 -0.7726 -0.0692
  108MOL0     C14163   8.364   8.633   1.627  0.7617  0.3391  0.8625
  108MOL0     C14164   8.362   8.499   1.555 -0.9574 -0.8280 -0.3100
  108MOL0     C14165   8.241   8.472   1.466  0.5773 -1.1118  0.0785
  108MOL0     C14166   8.247   8.562   1.344 -0.3855 -0.4534 -0.1626
  108MOL0     C14167   8.130   8.537   1.245 -0.8851  0.2628 -0.9217
  108MOL0    Cl14168   8.194   8.409   1.134  0.2790  0.1184 -0.1892
  108MOL0     C14169   8.865   8.807   2.039  0.4314  0.4235  0.5821
  108MOL0     C14170   8.995   8.804   2.084 -0.6892  0.0290  0.2907
  108MOL0     O14171   9.221   8.779   2.251  0.6053 -0.9800  0.1278
  108MOL0     C14172   9.458   9.026   2.174  0.8410 -0.6255  0.3234
  108MOL0     C14173   9.571   9.084   2.226  0.3449 -0.6257  0.3916
  108MOL0     N14174  10.380   8.827   2.205 -0.6123 -0.2011  0.0218
  108MOL0     N14175  10.467   8.883   2.136 -0.2617  0.2158  0.0241
  108MOL0     C14176  10.983   9.870   2.243  0.6483 -0.3267  0.2027
  108MOL0     C14177  11.121   9.857   2.252  0.1682 -0.0487  0.4387
  108MOL0     C14178  11.561   9.911   2.190  0.1376 -0.3016  0.1258
  108MOL0     C14179  11.634  10.015   2.255  0.7887  0.1771 -0.0617
  108MOL0     C14180  11.777  10.011   2.257  0.4817 -0.0976 -0.7020
  108MOL0     C14181  11.852   9.920   2.189  0.5729  0.0238  0.4000
  108MOL0     O14182  11.991   9.919   2.195  0.9241 -0.4012 -0.1631
  108MOL0     C14183  12.057   9.827   2.111 -0.0723 -0.0635  0.4657
  108MOL0     C14184  12.205   9.867   2.113 -0.2894  0.0793 -0.3209
  108MOL0     C14185  12.287   9.843   2.237 -1.1607 -0.2653 -0.0151
  108MOL0     C14186  12.289   9.954   2.351 -0.6168  0.2826  0.4601
  108MOL0     C14187  12.334  10.084   2.310  0.1953 -0.5959  0.5760
  108MOL0     C14188  12.386  10.188   2.274 -0.4546 -0.6086  0.2692
  108MOL0     C14189  11.779   9.820   2.116 -1.2682 -1.8148  0.5269
  108MOL0     C14190  11.637   9.811   2.128  0.0292  0.2574  0.7279
  108MOL0     H14191  11.191   9.722   1.943  0.2744 -2.1641  3.1022
  108MOL0     H14192  10.957   9.774   1.915  0.8870  3.0978 -0.2354
  108MOL0     H14193  10.736   9.880   1.906  0.5349  1.7682  1.2345
  108MOL0     H14194  10.605   9.824   2.012 -0.9833 -3.8109 -1.2916
  108MOL0     H14195  10.820   9.622   1.944  0.1427 -0.9600 -1.5007
  108MOL0     H14196  10.667   9.650   1.855  0.0786  1.0582  0.6521
  108MOL0     H14197  10.540   9.614   2.042 -0.4685 -3.6124 -0.0604
  108MOL0     H14198  10.673   9.632   2.159  1.8101  1.5775 -1.2319
  108MOL0     H14199  10.616   9.428   1.926  0.3083  1.4450 -0.6093
  108MOL0     H14200  10.769   9.422   2.002  0.3190  1.6545  0.1272
  108MOL0     H14201  10.492   9.385   2.151 -0.9637 -0.1518 -2.0654
  108MOL0     H14202  10.652   9.358   2.217  0.7062 -1.0073 -1.3088
  108MOL0     H14203  10.587   9.141   2.166  2.4958  1.8833  1.9134
  108MOL0     H14204  10.677   9.180   2.023 -0.2188 -1.1932 -0.0813
  108MOL0     H14205  10.367   9.190   2.027 -0.0309 -0.4758  0.0956
  108MOL0     H14206  10.478   9.240   1.881 -2.3806 -0.6366 -1.8983
  108MOL0     H14207  10.569   9.016   1.905 -0.3630  2.0169 -1.8599
  108MOL0     H14208  10.402   9.023   1.839  2.6624  0.7384 -1.6750
  108MOL0     H14209  10.199   8.959   1.967 -1.6552 -1.2159 -0.4245
  108MOL0     H14210  10.115   8.726   2.253 -0.2540 -0.0853  0.0915
  108MOL0     H14211  10.068   8.779   2.096 -0.5874  1.3903 -0.3079
  108MOL0     H14212   9.966   8.981   2.164 -0.2428 -0.6538 -1.1396
  108MOL0     H14213  10.101   9.011   2.275 -0.8668 -0.4738  0.6359
  108MOL0     H14214   9.864   8.821   2.318  1.1894  0.0967  0.5888
  108MOL0     H14215  10.013   8.834   2.415  0.2889 -0.9073  0.6267
  108MOL0     H14216   9.958   9.063   2.454  0.9381  0.1826 -0.1296
  108MOL0     H14217   9.818   8.968   2.510  0.4233  2.0790  1.1414
  108MOL0     H14218   9.662   8.814   2.405 -0.2815 -0.6182 -0.1578
  108MOL0     H14219   9.458   8.724   2.321  0.7110  0.4109 -0.8038
  108MOL0     H14220   9.143   8.999   1.833  0.9554 -2.7427 -1.5337
  108MOL0     H14221   8.887   9.019   1.783 -0.2433  3.3665  3.7735
  108MOL0     H14222   8.552   8.795   1.994  0.8487  3.4301 -0.0101
  108MOL0     H14223   8.670   8.700   1.898  0.6854  0.6501  2.1880
  108MOL0     H14224   8.569   8.821   1.691  0.6093  0.6629 -0.4736
  108MOL0     H14225   8.420   8.851   1.785 -1.2366 -2.2363 -1.3927
  108MOL0     H14226   8.419   8.607   1.839 -0.3353 -0.4882  0.0869
  108MOL0     H14227   8.556   8.589   1.725 -0.1764 -0.2300 -0.2628
  108MOL0     H14228   8.264   8.655   1.667 -0.4318 -1.3893 -0.9317
  108MOL0     H14229   8.379   8.715   1.556  2.1632 -1.1190 -0.6109
  108MOL0     H14230   8.351   8.426   1.635 -1.3343  1.6948  2.1035
  108MOL0     H14231   8.460   8.472   1.513 -1.5861 -3.7449 -0.1064
  108MOL0     H14232   8.153   8.484   1.529  0.1815 -4.0237  0.1867
  108MOL0     H14233   8.250   8.369   1.429  0.9087 -1.2798  0.6125
  108MOL0     H14234   8.230   8.665   1.378  1.7922 -1.2664  4.0980
  108MOL0     H14235   8.337   8.541   1.286  1.1769  1.1922  1.5412
  108MOL0     H14236   8.114   8.627   1.185  5.0848  0.2447 -3.1660
  108MOL0     H14237   8.038   8.507   1.297 -0.6686  2.2033  0.7043
  108MOL0     H14238   8.781   8.766   2.094  1.2769 -1.1948  0.7292
  108MOL0     H14239   9.016   8.747   2.173 -0.1261 -0.1348  0.0578
  108MOL0     H14240   9.415   9.079   2.090  1.2911 -3.0306 -1.5292
  108MOL0     H14241   9.598   9.185   2.196 -2.9752  0.4639  0.6680
  108MOL0     H14242  10.924   9.895   2.331  0.2756 -2.7245  0.7207
  108MOL0     H14243  11.165   9.870   2.350 -1.6179 -2.4959  1.6516
  108MOL0     H14244  11.579  10.088   2.313 -1.8038 -0.4518 -1.5751
  108MOL0     H14245  11.823  10.077   2.330 -0.7558  1.7284 -1.4866
  108MOL0     H14246  12.024   9.833   2.007  2.1964  0.9590 -0.2556
  108MOL0     H14247  12.041   9.723   2.144 -0.8517 -0.1163 -0.0566
  108MOL0     H14248  12.257   9.825   2.026 -0.8271 -2.3179  0.4448
  108MOL0     H14249  12.210   9.974   2.092 -1.2384  0.1272 -0.3222
  108MOL0     H14250  12.391   9.840   2.204 -0.0778 -2.0802  3.0962
  108MOL0     H14251  12.261   9.747   2.282 -0.4757  1.0167  3.4811
  108MOL0     H14252  12.184   9.947   2.382 -0.3162 -4.3215  1.1626
  108MOL0     H14253  12.351   9.908   2.429  2.9363  0.3282 -2.1486
  108MOL0     H14254  12.421  10.285   2.243 -0.2627 -1.3587 -2.1393
  108MOL0     H14255  11.828   9.740   2.062 -0.4958  0.4497 -2.4099
  108MOL0     H14256  11.579   9.732   2.080  0.6154  0.4803 -0.3713
  109MOL0     O14257   4.122   6.935   8.138  0.2238 -0.2017 -1.1948
  109MOL0     C14258   4.026   6.953   8.210  0.8655 -0.7176 -0.0196
  109MOL0     O14259   4.008   7.061   8.301 -0.1621 -1.0896  0.0101
  109MOL0     C14260   4.108   7.135   8.351  0.7485 -0.0983 -0.8009
  109MOL0     C14261   4.233   7.077   8.384 -0.2016  0.1663 -0.2598
  109MOL0     C14262   4.339   7.157   8.439 -0.7055  0.1875 -0.0554
  109MOL0     C14263   4.320   7.288   8.462  1.2960  0.8508 -0.3712
  109MOL0     O14264   4.417   7.365   8.524  0.7332  0.0761  0.3756
  109MOL0     C14265   4.555   7.317   8.535  0.3389 -0.5107 -0.2234
  109MOL0     C14266   4.612   7.430   8.621  0.4584  1.2335  0.6243
  109MOL0     C14267   4.760   7.403   8.658  0.2780 -0.1777 -0.8673
  109MOL0     C14268   4.808   7.514   8.752 -1.0469 -0.6592  0.4372
  109MOL0     C14269   4.949   7.489   8.816  0.1516  0.4227 -0.0337
  109MOL0     C14270   5.007   7.602   8.897  0.1435  0.1527 -0.2714
  109MOL0     C14271   5.150   7.558   8.939 -0.2261 -1.2310  0.5629
  109MOL0     C14272   5.190   7.622   9.081  0.0545 -0.5006  0.0263
  109MOL0     N14273   5.149   7.767   9.086  0.8655  0.3286  0.4482
  109MOL0     C14274   5.185   7.858   8.992  0.4600 -0.1641 -0.3153
  109MOL0     C14275   5.101   7.965   9.025  0.5916 -1.0442  0.7407
  109MOL0     C14276   5.067   8.088   8.953 -0.5835  0.5472 -0.7609
  109MOL0     C14277   4.956   8.063   8.842  0.1808 -1.0885 -0.5342
  109MOL0     C14278   4.947   8.173   8.736  0.8265 -0.7752 -1.4961
  109MOL0     C14279   4.834   8.165   8.639  0.4893  0.2349 -0.3373
  109MOL0     O14280   4.858   8.264   8.543  0.0558 -0.3645 -0.4492
  109MOL0     C14281   4.760   8.296   8.453 -0.5296 -0.2301 -0.6462
  109MOL0     C14282   4.767   8.420   8.387 -0.1161 -0.0926 -0.4727
  109MOL0     C14283   4.668   8.475   8.309  0.3440 -0.1496  0.9270
  109MOL0     C14284   4.550   8.392   8.288  1.1057 -0.5631  0.4256
  109MOL0     C14285   4.436   8.439   8.210 -0.1857  0.9953  0.9901
  109MOL0     O14286   4.315   8.364   8.221 -0.5282 -0.2051 -0.2135
  109MOL0     C14287   4.230   8.385   8.117 -0.2540  0.5769 -0.0453
  109MOL0     C14288   4.262   8.366   7.979 -0.2081  0.5437 -1.8278
  109MOL0     C14289   4.177   8.431   7.889  0.6987  0.6329  0.3057
  109MOL0     C14290   4.053   8.493   7.922  0.7356  0.3143 -0.3967
  109MOL0     O14291   3.975   8.557   7.827  0.1093 -0.5364 -1.3790
  109MOL0     C14292   3.953   8.495   7.703  0.4039  0.6528  0.2285
  109MOL0     C14293   3.815   8.554   7.643 -0.2567 -0.2784  0.7017
  109MOL0     C14294   3.695   8.481   7.691 -0.9973  0.4768 -0.3328
  109MOL0     C14295   3.690   8.478   7.844 -0.3452 -0.7373 -0.7402
  109MOL0     C14296   3.547   8.447   7.899 -0.1025 -0.8298 -0.3062
  109MOL0     C14297   3.555   8.419   8.048 -0.2638 -0.4937  0.1469
  109MOL0     C14298   3.633   8.292   8.080  0.3973 -1.0418  0.9330
  109MOL0     C14299   3.576   8.198   8.188  0.5494 -0.4285  0.5160
  109MOL0    Cl14300   3.422   8.132   8.139  0.4984 -0.1484  0.4472
  109MOL0     C14301   4.015   8.501   8.053  0.1848  0.8604 -0.3773
  109MOL0     C14302   4.102   8.443   8.146  0.1347  0.0388 -0.1519
  109MOL0     O14303   4.449   8.535   8.141  0.1889  0.2109  0.5368
  109MOL0     C14304   4.547   8.261   8.334  0.3829 -0.2986  0.0139
  109MOL0     C14305   4.645   8.221   8.427 -0.4108 -0.0366  0.0695
  109MOL0     N14306   5.039   7.938   9.145 -0.4407 -0.5184  0.1340
  109MOL0     N14307   5.070   7.825   9.179 -0.6796  0.5813 -0.4621
  109MOL0     C14308   4.194   7.339   8.434 -0.1982 -0.1080  0.0771
  109MOL0     C14309   4.088   7.271   8.372 -0.0710  0.2027  0.2052
  109MOL0     C14310   3.903   6.873   8.190 -0.3333  0.3553 -0.9124
  109MOL0     C14311   3.907   6.778   8.086 -0.4992 -0.0022 -0.4104
  109MOL0     C14312   3.802   6.701   8.059  1.4178  0.3029 -0.3060
  109MOL0     C14313   3.692   6.699   8.151 -0.6141  0.1407 -0.8432
  109MOL0     O14314   3.597   6.608   8.153 -0.5659 -0.7977  0.3725
  109MOL0     C14315   3.584   6.524   8.047  0.2807  2.0846 -0.1027
  109MOL0     C14316   3.492   6.409   8.099  1.1660 -0.4537 -0.8691
  109MOL0     C14317   3.496   6.284   8.008  0.4600 -0.8064  1.0667
  109MOL0     C14318   3.455   6.307   7.862  0.5242 -0.5764  0.1743
  109MOL0     C14319   3.429   6.174   7.805 -0.6392  0.6717 -0.2241
  109MOL0     C14320   3.411   6.066   7.750  0.1178  0.5811  0.0831
  109MOL0     C14321   3.686   6.799   8.249  0.3074  0.5746  0.0321
  109MOL0     C14322   3.794   6.872   8.279  0.1068  0.0206 -0.4017
  109MOL0     H14323   4.259   6.974   8.361  0.9211 -0.1296  2.0069
  109MOL0     H14324   4.429   7.101   8.460 -1.4410 -0.0107  2.9643
  109MOL0     H14325   4.588   7.309   8.431 -0.7241 -2.0873 -0.4763
  109MOL0     H14326   4.551   7.220   8.585 -2.1742  0.4388  1.6718
  109MOL0     H14327   4.558   7.429   8.716  0.1904  0.1490  0.4814
  109MOL0     H14328   4.610   7.527   8.571  3.8972  0.9046 -0.3794
  109MOL0     H14329   4.823   7.388   8.571  0.6032  3.3445 -1.3675
  109MOL0     H14330   4.760   7.310   8.715  4.1207  0.7045  0.8840
  109MOL0     H14331   4.818   7.612   8.705  0.3819 -0.2011  1.6291
  109MOL0     H14332   4.737   7.530   8.833 -0.7268  0.3295  0.5301
  109MOL0     H14333   5.020   7.472   8.735 -0.8935  0.7531 -1.0377
  109MOL0     H14334   4.936   7.404   8.885 -0.7692 -0.1263 -0.8571
  109MOL0     H14335   4.949   7.631   8.985  0.8925  0.6006  0.0852
  109MOL0     H14336   5.004   7.693   8.835  2.5552  0.8892  0.5881
  109MOL0     H14337   5.163   7.449   8.947 -1.0521 -1.3675  0.1665
  109MOL0     H14338   5.225   7.593   8.869 -0.9714  2.1761  1.3081
  109MOL0     H14339   5.297   7.605   9.094 -0.1989 -2.1363  0.1781
  109MOL0     H14340   5.137   7.579   9.166 -0.1726 -2.1916 -0.9350
  109MOL0     H14341   5.231   7.845   8.894  0.3109  2.5090 -0.8254
  109MOL0     H14342   5.161   8.107   8.900  0.6575 -4.9959 -1.0904
  109MOL0     H14343   5.038   8.169   9.022 -0.2046 -1.6476  2.1726
  109MOL0     H14344   4.859   8.055   8.894  0.8812 -1.5395  0.7655
  109MOL0     H14345   4.980   7.967   8.795 -3.2899 -0.9375 -3.0118
  109MOL0     H14346   4.932   8.268   8.787  0.5191 -2.7487  2.4574
  109MOL0     H14347   5.044   8.175   8.686  2.6285 -1.4275  1.6906
  109MOL0     H14348   4.739   8.188   8.688 -1.2563 -1.7652 -2.5849
  109MOL0     H14349   4.834   8.065   8.595 -0.1354 -0.0713  0.3314
  109MOL0     H14350   4.857   8.476   8.411 -1.1599  0.6143  2.0726
  109MOL0     H14351   4.673   8.577   8.270 -0.5001 -0.8473 -1.1672
  109MOL0     H14352   4.355   8.318   7.951 -0.8640 -1.1941 -1.1837
  109MOL0     H14353   4.203   8.427   7.783 -0.7484  0.4384 -0.0697
  109MOL0     H14354   3.946   8.387   7.718  2.9239  0.4297  0.3550
  109MOL0     H14355   4.030   8.517   7.628 -0.6002 -1.5809 -1.6047
  109MOL0     H14356   3.826   8.530   7.537 -0.2284 -1.0724  0.8811
  109MOL0     H14357   3.801   8.660   7.667 -1.1579 -0.5754  1.5453
  109MOL0     H14358   3.697   8.378   7.653 -0.2591  1.5656 -3.5878
  109MOL0     H14359   3.609   8.531   7.646 -1.4544 -0.6762 -0.7821
  109MOL0     H14360   3.765   8.405   7.878 -0.8068 -1.7382 -1.8065
  109MOL0     H14361   3.720   8.577   7.878  1.2892 -0.6890 -2.1879
  109MOL0     H14362   3.512   8.360   7.844  1.8721 -0.8680 -1.6274
  109MOL0     H14363   3.478   8.531   7.888  1.6162  0.6323 -0.4642
  109MOL0     H14364   3.449   8.405   8.072 -0.5125  0.1935 -0.5163
  109MOL0     H14365   3.594   8.504   8.105  2.8940 -1.2639 -0.6626
  109MOL0     H14366   3.627   8.230   7.989  3.9968 -1.1559  0.6134
  109MOL0     H14367   3.738   8.310   8.106  0.3707 -0.9753  0.9927
  109MOL0     H14368   3.568   8.267   8.272  2.7541  0.4082  0.0898
  109MOL0     H14369   3.643   8.114   8.209  3.2409  1.7959  1.4645
  109MOL0     H14370   3.917   8.531   8.089  0.0539  0.6716 -0.5757
  109MOL0     H14371   4.078   8.445   8.251 -0.7009 -2.3129 -0.2292
  109MOL0     H14372   4.464   8.195   8.309 -0.5853  0.2507  1.6171
  109MOL0     H14373   4.642   8.121   8.469 -0.2244 -0.1186 -0.1086
  109MOL0     H14374   4.186   7.447   8.443 -2.6858 -0.1102 -1.1716
  109MOL0     H14375   4.003   7.327   8.336 -0.5396  0.9864  2.4030
  109MOL0     H14376   3.991   6.764   8.018  0.1489  1.9848 -0.0933
  109MOL0     H14377   3.796   6.645   7.967 -2.2353  1.5901 -1.0304
  109MOL0     H14378   3.678   6.477   8.016 -1.4671 -1.6745 -0.2499
  109MOL0     H14379   3.539   6.577   7.963  0.7673  1.8120 -0.5447
  109MOL0     H14380   3.536   6.379   8.194  1.4310  1.2201 -0.4210
  109MOL0     H14381   3.386   6.433   8.112  1.3324  0.1862 -0.6705
  109MOL0     H14382   3.422   6.218   8.056  0.4096  0.0207  2.1579
  109MOL0     H14383   3.599   6.248   8.007  1.2662  1.3771  0.0621
  109MOL0     H14384   3.357   6.353   7.851 -0.2131 -2.5385 -2.6338
  109MOL0     H14385   3.527   6.370   7.809 -0.8254  0.3149 -0.6669
  109MOL0     H14386   3.390   5.976   7.697  2.1263 -1.0518  1.8608
  109MOL0     H14387   3.597   6.812   8.309  0.4714  0.8302  0.2254
  109MOL0     H14388   3.793   6.943   8.361  0.1395 -1.4676  0.9451
  110MOL0     O14389   6.512   6.221   4.987 -0.5813  0.5665  0.1505
  110MOL0     C14390   6.475   6.305   4.900 -0.8896  0.2562  0.9940
  110MOL0     O14391   6.542   6.424   4.874 -0.6005  0.2371 -0.6498
  110MOL0     C14392   6.663   6.430   4.941 -0.7664 -0.6704  0.0752
  110MOL0     C14393   6.679   6.528   5.042 -0.1617  1.2561 -0.3454
  110MOL0     C14394   6.804   6.543   5.110  0.7669  0.3230 -0.5895
  110MOL0     C14395   6.908   6.462   5.065  0.3284 -0.2067 -0.2118
  110MOL0     O14396   7.035   6.475   5.121  0.5505  0.0855  0.5034
  110MOL0     C14397   7.089   6.609   5.114 -0.3221 -0.3128 -0.8926
  110MOL0     C14398   7.204   6.627   5.220  0.0830  1.0668  0.2263
  110MOL0     C14399   7.255   6.763   5.211 -0.5918 -0.2729  0.4269
  110MOL0     C14400   7.360   6.785   5.322  0.2058 -1.3416  1.9684
  110MOL0     C14401   7.489   6.696   5.325 -0.3419  0.2719  0.3686
  110MOL0     C14402   7.581   6.709   5.457  0.7809  0.6836  0.0579
  110MOL0     C14403   7.662   6.838   5.473  0.1726 -0.2996 -0.2084
  110MOL0     C14404   7.763   6.818   5.593 -0.2676 -0.1902  0.1180
  110MOL0     N14405   7.860   6.717   5.572 -1.2523  0.1484 -0.9621
  110MOL0     C14406   7.871   6.602   5.656  0.2594 -0.4416  0.3364
  110MOL0     C14407   7.957   6.534   5.590 -0.2067  0.3534 -0.3166
  110MOL0     C14408   8.007   6.399   5.604  0.2894 -0.5794 -0.8238
  110MOL0     C14409   7.892   6.297   5.565 -0.0881 -0.7028  0.4549
  110MOL0     C14410   7.840   6.304   5.415 -0.2015  0.1609  0.0433
  110MOL0     C14411   7.694   6.260   5.395 -0.7518  0.0198 -1.2281
  110MOL0     O14412   7.613   6.367   5.450 -0.5089 -0.0344  0.2429
  110MOL0     C14413   7.484   6.336   5.472  0.1303 -0.0179 -0.8235
  110MOL0     C14414   7.421   6.384   5.589  0.9339 -0.0161  0.2837
  110MOL0     C14415   7.293   6.347   5.622 -0.0266 -0.2272 -0.0159
  110MOL0     C14416   7.220   6.253   5.542  0.7553  0.1606 -0.7056
  110MOL0     C14417   7.076   6.196   5.572 -0.6086  0.4833  0.1584
  110MOL0     O14418   7.015   6.129   5.475 -0.1260  0.5402  0.2855
  110MOL0     C14419   6.879   6.140   5.471  0.4657  0.6337  0.5875
  110MOL0     C14420   6.815   6.205   5.360 -0.0487 -0.2323 -0.6666
  110MOL0     C14421   6.686   6.212   5.350  0.2030  0.2084 -0.7932
  110MOL0     C14422   6.604   6.144   5.444  0.9017 -0.1116 -0.1232
  110MOL0     O14423   6.463   6.142   5.436  0.1516 -0.2505  0.8350
  110MOL0     C14424   6.411   6.096   5.300  0.0525  0.0025 -0.4030
  110MOL0     C14425   6.281   6.024   5.320 -0.1911 -0.1662  0.3742
  110MOL0     C14426   6.221   6.004   5.179 -0.0284  0.5825  0.2018
  110MOL0     C14427   6.087   5.918   5.180 -0.0190  0.2895 -0.1508
  110MOL0     C14428   6.023   5.894   5.042  0.2829  0.5506  1.3140
  110MOL0     C14429   5.880   5.833   5.029 -0.8853  0.3108  0.2147
  110MOL0     C14430   5.871   5.695   5.096  0.2089  0.7200  0.0284
  110MOL0     C14431   5.755   5.606   5.054  1.2646 -0.3248 -0.1855
  110MOL0    Cl14432   5.748   5.595   4.875  0.2027  0.2463 -0.4360
  110MOL0     C14433   6.656   6.073   5.556 -0.3930 -0.1946  0.0470
  110MOL0     C14434   6.798   6.067   5.558 -0.1880  0.0776  0.1986
  110MOL0     O14435   7.020   6.235   5.671 -0.9472 -0.3937  0.2776
  110MOL0     C14436   7.286   6.210   5.425  0.0069  0.9076  0.9268
  110MOL0     C14437   7.410   6.249   5.389 -0.6001 -0.2501  0.8197
  110MOL0     N14438   8.005   6.612   5.486  0.6352 -0.7747  0.2980
  110MOL0     N14439   7.948   6.726   5.476 -0.9466 -0.5715 -0.0696
  110MOL0     C14440   6.885   6.360   4.974  0.8498  0.5795 -0.5970
  110MOL0     C14441   6.768   6.340   4.905  0.1029 -0.0439 -0.6175
  110MOL0     C14442   6.353   6.278   4.823  0.4920  1.3529  0.6284
  110MOL0     C14443   6.286   6.379   4.754  0.2204  0.1526  0.7494
  110MOL0     C14444   6.168   6.344   4.693 -0.7348 -0.8381 -0.7067
  110MOL0     C14445   6.121   6.208   4.697  0.3781  0.2389  0.3889
  110MOL0     O14446   6.012   6.160   4.633  0.0222  0.6584 -0.1530
  110MOL0     C14447   5.919   6.233   4.557 -0.7132  0.3109 -0.5741
  110MOL0     C14448   5.891   6.141   4.440 -0.3261 -0.6847  0.1862
  110MOL0     C14449   5.782   6.207   4.350 -0.3743 -0.1696  0.4001
  110MOL0     C14450   5.767   6.147   4.216 -0.3200  0.0269 -0.1341
  110MOL0     C14451   5.687   6.232   4.125  0.1714 -0.4924 -0.6721
  110MOL0     C14452   5.619   6.290   4.042 -0.5023  0.7364 -0.4953
  110MOL0     C14453   6.183   6.109   4.767 -0.7763 -0.3442  0.4816
  110MOL0     C14454   6.308   6.140   4.826  0.2820 -0.1899 -0.5210
  110MOL0     H14455   6.594   6.587   5.073 -1.6930 -0.7382 -0.5772
  110MOL0     H14456   6.815   6.613   5.192 -1.9483  0.2104 -0.0451
  110MOL0     H14457   7.024   6.697   5.118  1.0276  0.7496 -1.4974
  110MOL0     H14458   7.146   6.624   5.022  0.7098 -0.1623 -0.2560
  110MOL0     H14459   7.281   6.556   5.187 -0.5331  0.4756  0.0401
  110MOL0     H14460   7.175   6.593   5.320  1.7515 -0.5710  0.2093
  110MOL0     H14461   7.175   6.831   5.243  0.7957  1.0849  1.1155
  110MOL0     H14462   7.302   6.793   5.117  2.7121  0.7408  2.2600
  110MOL0     H14463   7.399   6.887   5.315 -2.3250 -0.3776  0.6324
  110MOL0     H14464   7.313   6.776   5.420 -0.0797 -0.2324  1.9548
  110MOL0     H14465   7.549   6.715   5.235  2.6894 -2.9320  1.4804
  110MOL0     H14466   7.446   6.596   5.318 -4.0427  1.6537  1.2185
  110MOL0     H14467   7.656   6.630   5.459  1.7594  1.5848  0.0058
  110MOL0     H14468   7.509   6.693   5.537 -2.0776  1.3272 -2.2017
  110MOL0     H14469   7.702   6.867   5.376 -2.6884 -1.4056 -1.8507
  110MOL0     H14470   7.591   6.915   5.503  0.6328  0.9335 -2.1803
  110MOL0     H14471   7.705   6.792   5.682  0.1183  1.0796  0.7640
  110MOL0     H14472   7.812   6.914   5.608 -0.6937  0.2461 -1.1313
  110MOL0     H14473   7.815   6.582   5.747  2.7612  0.1284  2.0960
  110MOL0     H14474   8.055   6.371   5.698  1.1391 -3.7621 -2.0830
  110MOL0     H14475   8.089   6.394   5.532  2.2036  0.6147  1.1427
  110MOL0     H14476   7.818   6.315   5.644  3.6849  2.4464  3.7149
  110MOL0     H14477   7.942   6.200   5.576  0.9111 -0.4499 -1.5250
  110MOL0     H14478   7.846   6.404   5.370  1.7510 -0.0709 -0.3066
  110MOL0     H14479   7.896   6.222   5.371 -0.5591 -1.7250  2.8644
  110MOL0     H14480   7.692   6.160   5.438  5.0516  0.1132  0.1692
  110MOL0     H14481   7.681   6.243   5.288 -1.1427  0.4924 -1.2578
  110MOL0     H14482   7.467   6.455   5.657  0.9009 -1.4665  1.8814
  110MOL0     H14483   7.267   6.388   5.719  0.1203 -0.9147  0.3268
  110MOL0     H14484   6.885   6.257   5.295 -0.0218 -0.8827 -1.1771
  110MOL0     H14485   6.638   6.260   5.266  1.7848  2.8442 -0.3105
  110MOL0     H14486   6.472   6.030   5.238  0.7459 -0.4582  0.7425
  110MOL0     H14487   6.378   6.180   5.238 -0.9085  0.0301  0.1192
  110MOL0     H14488   6.208   6.085   5.375  1.2867  0.2725  1.9291
  110MOL0     H14489   6.288   5.926   5.370  2.1069  0.7148  1.9486
  110MOL0     H14490   6.292   5.945   5.120 -0.7880  1.7077 -1.9705
  110MOL0     H14491   6.202   6.097   5.125 -1.1924  1.3670  1.8862
  110MOL0     H14492   6.100   5.823   5.233 -3.0782 -0.0932  0.1224
  110MOL0     H14493   6.017   5.973   5.244 -0.5482  2.3068 -2.3369
  110MOL0     H14494   6.094   5.837   4.983 -2.9842 -4.0730  1.3211
  110MOL0     H14495   6.011   5.992   4.994 -1.1329 -0.0892  0.3115
  110MOL0     H14496   5.845   5.826   4.926  1.5521 -0.6238 -0.6255
  110MOL0     H14497   5.810   5.896   5.084 -0.4324 -1.1774  2.6391
  110MOL0     H14498   5.956   5.634   5.064  0.6243 -0.4407  3.0273
  110MOL0     H14499   5.863   5.709   5.205 -0.6777  2.7200 -0.2442
  110MOL0     H14500   5.663   5.654   5.089  2.2444  1.2392  0.3651
  110MOL0     H14501   5.776   5.506   5.092  0.6582 -0.9261 -1.3943
  110MOL0     H14502   6.594   6.019   5.627  2.7469  0.6753  3.7562
  110MOL0     H14503   6.844   6.020   5.644  0.7188  1.9141  0.7797
  110MOL0     H14504   7.246   6.131   5.363  0.5618  1.2183  0.1649
  110MOL0     H14505   7.453   6.221   5.294 -0.4622 -2.9930  1.6174
  110MOL0     H14506   6.970   6.298   4.947  1.1892  0.5205  0.5613
  110MOL0     H14507   6.750   6.259   4.836 -2.0629 -0.5579  0.4600
  110MOL0     H14508   6.319   6.482   4.751 -1.7073  0.8795  2.4480
  110MOL0     H14509   6.113   6.423   4.644  1.4308 -0.3049 -2.4384
  110MOL0     H14510   5.962   6.326   4.520 -1.7882  0.9585 -0.2452
  110MOL0     H14511   5.831   6.255   4.618 -2.5406 -4.4419 -1.0824
  110MOL0     H14512   5.988   6.139   4.389 -0.4028 -0.3460  0.0248
  110MOL0     H14513   5.870   6.039   4.473  1.4490 -0.9345  0.6058
  110MOL0     H14514   5.800   6.313   4.329  1.5048 -0.3345  0.9771
  110MOL0     H14515   5.686   6.192   4.400 -0.3732 -1.0457  0.1602
  110MOL0     H14516   5.862   6.128   4.166 -0.6041  1.6371 -1.3905
  110MOL0     H14517   5.712   6.052   4.214 -1.1802  0.5075  0.0105
  110MOL0     H14518   5.564   6.346   3.969  1.5096  1.1544 -1.7698
  110MOL0     H14519   6.152   6.006   4.779  0.3760 -1.1284 -2.2363
  110MOL0     H14520   6.356   6.064   4.887 -2.1553 -1.8272 -0.5007
  111MOL0     O14521   9.021   9.139   7.033 -0.7637 -0.1634  0.2523
  111MOL0     C14522   9.031   9.254   7.072 -0.5201 -0.1870 -0.3256
  111MOL0     O14523   9.124   9.344   7.031 -0.0409  0.2936 -0.3373
  111MOL0     C14524   9.209   9.318   6.929  0.0149 -1.4089  0.1353
  111MOL0     C14525   9.198   9.408   6.817  0.6479  0.5897  0.1267
  111MOL0     C14526   9.297   9.399   6.717 -0.3446 -0.2955 -0.0191
  111MOL0     C14527   9.404   9.310   6.729 -0.5156 -0.2213  0.1203
  111MOL0     O14528   9.501   9.303   6.625  0.3730  0.4688  0.0671
  111MOL0     C14529   9.615   9.222   6.637  0.1754 -0.3362  0.3415
  111MOL0     C14530   9.703   9.241   6.518 -0.0453  1.1027 -1.1380
  111MOL0     C14531   9.772   9.375   6.517  0.6594 -0.5744  0.2619
  111MOL0     C14532   9.689   9.503   6.473  0.3696  1.1187 -0.5014
  111MOL0     C14533   9.761   9.637   6.467 -0.2368 -1.1152  0.1768
  111MOL0     C14534   9.870   9.645   6.359 -0.6201 -0.3975  0.6400
  111MOL0     C14535   9.950   9.782   6.339 -0.1356  0.5413 -0.2334
  111MOL0     C14536   9.884   9.898   6.266 -0.8328  0.4848  0.2626
  111MOL0     N14537   9.968  10.019   6.276  0.5568  0.5965  0.5247
  111MOL0     C14538   9.919  10.156   6.295  0.3144  1.2530  0.2965
  111MOL0     C14539  10.028  10.233   6.286 -0.4763  0.0112  0.1128
  111MOL0     C14540  10.042  10.379   6.304  0.1985  0.4133 -0.4947
  111MOL0     C14541  10.026  10.449   6.169 -0.8170  0.6827  0.3873
  111MOL0     C14542  10.045  10.608   6.175  0.4181 -0.0646 -0.4136
  111MOL0     C14543   9.922  10.689   6.224 -0.2052 -0.7199  0.3841
  111MOL0     O14544   9.819  10.689   6.121  0.4387 -0.2204  0.8409
  111MOL0     C14545   9.694  10.751   6.144 -0.0121 -0.8048  0.2605
  111MOL0     C14546   9.606  10.732   6.047 -0.3195  0.2911  0.0483
  111MOL0     C14547   9.477  10.779   6.048 -0.1392 -0.1495  0.0693
  111MOL0     C14548   9.435  10.853   6.161 -0.0456 -0.5880  0.2297
  111MOL0     C14549   9.294  10.882   6.180 -0.5526 -1.1332  0.9025
  111MOL0     O14550   9.217  10.832   6.075 -0.1722  0.0896 -0.7156
  111MOL0     C14551   9.082  10.830   6.085  0.1466  0.8878 -0.0543
  111MOL0     C14552   9.010  10.767   6.186 -0.4380  0.5929 -0.5248
  111MOL0     C14553   8.881  10.755   6.179  0.2675 -1.2572  0.5214
  111MOL0     C14554   8.805  10.808   6.074 -0.0079  0.5797 -1.0028
  111MOL0     O14555   8.670  10.822   6.084  0.2998 -0.2715 -0.7278
  111MOL0     C14556   8.604  10.786   6.202  0.0746 -0.4657  0.0877
  111MOL0     C14557   8.449  10.812   6.189 -0.4984  0.6629 -0.0736
  111MOL0     C14558   8.374  10.695   6.122 -0.1698  0.5175 -0.2026
  111MOL0     C14559   8.227  10.704   6.141 -0.5235 -0.8071  0.0471
  111MOL0     C14560   8.154  10.618   6.030 -0.7636 -0.9626  0.1694
  111MOL0     C14561   8.120  10.468   6.063 -1.1304 -0.0942 -0.1982
  111MOL0     C14562   8.230  10.386   6.117 -0.0513  0.1351 -0.2821
  111MOL0     C14563   8.190  10.243   6.143  1.0852 -0.0098  0.5754
  111MOL0    Cl14564   8.317  10.135   6.179  0.2012 -0.2952 -0.2685
  111MOL0     C14565   8.870  10.865   5.969 -0.1229 -1.0949  1.0389
  111MOL0     C14566   9.003  10.887   5.978  0.2245  0.0484  0.4898
  111MOL0     O14567   9.256  10.938   6.282  0.6599  0.4218 -0.1607
  111MOL0     C14568   9.524  10.870   6.265 -0.2196  1.8355 -0.1825
  111MOL0     C14569   9.650  10.814   6.255  0.3010 -0.1619  0.6254
  111MOL0     N14570  10.127  10.147   6.261  0.4758  0.3889 -0.7514
  111MOL0     N14571  10.101  10.017   6.253 -0.0495 -0.5262 -0.4212
  111MOL0     C14572   9.417   9.225   6.842  0.7432 -0.0970  0.0426
  111MOL0     C14573   9.321   9.235   6.947  0.0811 -0.2724  0.0467
  111MOL0     C14574   8.938   9.311   7.174  0.3572 -0.3979  0.6182
  111MOL0     C14575   8.957   9.435   7.239  0.3501 -0.5229  0.3479
  111MOL0     C14576   8.863   9.499   7.325  0.2828  1.0302  0.3774
  111MOL0     C14577   8.736   9.441   7.352 -0.4070  0.1472  0.4357
  111MOL0     O14578   8.632   9.504   7.408  0.1015  0.9230 -0.2320
  111MOL0     C14579   8.642   9.648   7.439  0.0330  0.1772 -0.0436
  111MOL0     C14580   8.604   9.734   7.322 -0.4547  0.1064 -0.2640
  111MOL0     C14581   8.464   9.711   7.272 -0.4740 -0.6568 -0.5648
  111MOL0     C14582   8.348   9.726   7.379 -0.2487 -0.2700 -0.3257
  111MOL0     C14583   8.218   9.712   7.297  0.0038  0.2121 -0.8765
  111MOL0     C14584   8.131   9.706   7.219  0.0192  1.0205  0.0236
  111MOL0     C14585   8.718   9.315   7.289  1.0316 -0.3790 -0.0683
  111MOL0     C14586   8.804   9.259   7.192  0.3927  0.5288 -0.2507
  111MOL0     H14587   9.112   9.473   6.807  1.1368  1.0306 -1.6253
  111MOL0     H14588   9.293   9.481   6.646 -1.2183 -1.1235 -0.9733
  111MOL0     H14589   9.583   9.119   6.623  0.4436 -0.1831 -1.6330
  111MOL0     H14590   9.675   9.230   6.728  3.0611 -2.4490 -1.2085
  111MOL0     H14591   9.639   9.213   6.434 -1.6777 -0.3930  0.4831
  111MOL0     H14592   9.782   9.166   6.527 -1.3347 -0.2782 -0.8740
  111MOL0     H14593   9.866   9.361   6.463  0.6606  2.1977 -0.6116
  111MOL0     H14594   9.818   9.404   6.612  2.3462  0.9769 -0.9493
  111MOL0     H14595   9.643   9.476   6.378 -0.4527 -2.8310  0.8632
  111MOL0     H14596   9.616   9.499   6.555  0.2299 -5.5397 -0.4652
  111MOL0     H14597   9.813   9.667   6.558  1.5390 -3.1372 -0.0968
  111MOL0     H14598   9.689   9.715   6.439  2.9546  2.4799  1.0516
  111MOL0     H14599   9.809   9.606   6.277 -1.2900  0.1962  0.8459
  111MOL0     H14600   9.950   9.572   6.376  1.7290  2.2177  1.7018
  111MOL0     H14601   9.971   9.795   6.445 -2.6093 -0.5981  0.4697
  111MOL0     H14602  10.044   9.762   6.286 -0.4737 -1.7684 -0.0335
  111MOL0     H14603   9.780   9.912   6.297  0.1597  1.7874  3.4044
  111MOL0     H14604   9.875   9.869   6.161  0.5425  2.9081 -0.6216
  111MOL0     H14605   9.812  10.175   6.303 -0.0856  0.3730 -2.0855
  111MOL0     H14606  10.136  10.395   6.358  0.0826  1.6275 -0.6373
  111MOL0     H14607   9.960  10.417   6.366 -0.8727 -1.4866 -0.6749
  111MOL0     H14608   9.932  10.421   6.120 -0.2098 -2.6024  0.8960
  111MOL0     H14609  10.108  10.435   6.099 -0.2557  5.7498 -0.3578
  111MOL0     H14610  10.133  10.620   6.240  0.9586 -2.8639 -0.4928
  111MOL0     H14611  10.070  10.641   6.074  1.7071  0.5638  0.0870
  111MOL0     H14612   9.943  10.791   6.260  1.8691 -1.1686  0.5370
  111MOL0     H14613   9.880  10.636   6.310  0.7723 -1.2267  0.5629
  111MOL0     H14614   9.631  10.692   5.949  1.9292 -0.1966  0.7815
  111MOL0     H14615   9.418  10.748   5.962  2.2391 -0.9151 -1.3822
  111MOL0     H14616   9.061  10.721   6.270 -1.5916 -1.7274 -1.0246
  111MOL0     H14617   8.839  10.702   6.263  2.3066 -1.9542  1.1384
  111MOL0     H14618   8.643  10.854   6.278  1.0304 -1.4253  0.4749
  111MOL0     H14619   8.620  10.679   6.221  0.4594 -0.9064 -2.4298
  111MOL0     H14620   8.436  10.907   6.136  0.0566  0.2436 -1.0005
  111MOL0     H14621   8.410  10.809   6.291 -0.6043 -1.6955 -0.1406
  111MOL0     H14622   8.411  10.604   6.172 -0.5995  1.3899  1.8194
  111MOL0     H14623   8.391  10.675   6.016 -3.5375  1.9440 -1.1254
  111MOL0     H14624   8.194  10.658   6.234  2.1267  0.2081  1.6101
  111MOL0     H14625   8.200  10.810   6.137 -0.1581 -0.7435 -1.1535
  111MOL0     H14626   8.202  10.631   5.932  1.3785  0.4859  1.3349
  111MOL0     H14627   8.059  10.668   6.010  0.7539  2.6426  1.0631
  111MOL0     H14628   8.106  10.418   5.966  0.5553  1.0550 -1.0793
  111MOL0     H14629   8.037  10.473   6.135  0.0534 -2.9895  1.5311
  111MOL0     H14630   8.319  10.395   6.053  1.5482  0.3513  1.8720
  111MOL0     H14631   8.262  10.433   6.210  2.0402  0.7169 -1.2266
  111MOL0     H14632   8.137  10.215   6.051  0.8439  0.2062  0.6459
  111MOL0     H14633   8.119  10.245   6.226  0.8513 -1.2708  0.4242
  111MOL0     H14634   8.808  10.905   5.889  0.2044 -1.7198  0.4649
  111MOL0     H14635   9.046  10.940   5.894  0.8643 -0.4906  0.4724
  111MOL0     H14636   9.491  10.912   6.359 -2.1167  1.8848 -0.8307
  111MOL0     H14637   9.725  10.817   6.333  1.9646  0.6211 -0.9327
  111MOL0     H14638   9.487   9.150   6.878 -2.2777 -2.8410  0.6169
  111MOL0     H14639   9.326   9.190   7.046 -2.9385  2.7718  1.8255
  111MOL0     H14640   9.060   9.469   7.232  1.0372 -2.8055 -2.5561
  111MOL0     H14641   8.898   9.589   7.373  0.5544 -0.4859  3.2671
  111MOL0     H14642   8.743   9.669   7.476 -1.6672  3.9011  3.2149
  111MOL0     H14643   8.574   9.673   7.521 -3.0687 -1.0692 -2.0338
  111MOL0     H14644   8.624   9.838   7.347  1.4500 -0.7871  2.3571
  111MOL0     H14645   8.679   9.714   7.244 -1.0555  1.8915 -1.3624
  111MOL0     H14646   8.462   9.609   7.231  1.8255 -0.3683 -1.5638
  111MOL0     H14647   8.447   9.778   7.188 -1.5651 -0.0544  0.1131
  111MOL0     H14648   8.359   9.648   7.455  2.6618  0.1686 -0.2102
  111MOL0     H14649   8.352   9.825   7.426  0.6299 -0.8176  0.7983
  111MOL0     H14650   8.065   9.683   7.137 -0.7463 -2.2828  1.4151
  111MOL0     H14651   8.617   9.280   7.308  0.8709 -0.3564 -0.8447
  111MOL0     H14652   8.778   9.170   7.135  3.3987 -0.2040 -0.6561
  112MOL0     O14653   3.737   2.210   0.485  1.0863 -0.1267  0.1308
  112MOL0     C14654   3.839   2.268   0.489 -0.1723 -0.4002 -1.1076
  112MOL0     O14655   3.869   2.372   0.567  0.4295  0.2065  0.4963
  112MOL0     C14656   3.774   2.414   0.650 -0.1943  0.7195 -0.7701
  112MOL0     C14657   3.640   2.448   0.617 -0.2853  0.1806 -0.6476
  112MOL0     C14658   3.558   2.507   0.711  0.5055 -0.0778  0.1979
  112MOL0     C14659   3.606   2.540   0.839 -0.2430 -0.1606 -0.1880
  112MOL0     O14660   3.542   2.607   0.941 -0.1158 -0.1252 -0.3067
  112MOL0     C14661   3.435   2.691   0.914  0.2931  0.1193  0.8286
  112MOL0     C14662   3.427   2.818   1.004 -0.4816 -0.5519 -1.0114
  112MOL0     C14663   3.342   2.789   1.133 -0.6509 -0.6887  0.3316
  112MOL0     C14664   3.293   2.914   1.211 -1.2700  0.1237 -1.0956
  112MOL0     C14665   3.366   2.944   1.347 -0.5612 -0.1517  0.8909
  112MOL0     C14666   3.278   3.037   1.428 -0.0977  0.1147 -0.0168
  112MOL0     C14667   3.140   2.990   1.458 -0.0215  0.3707 -0.4158
  112MOL0     C14668   3.085   3.062   1.583 -0.7327 -0.4272  0.0325
  112MOL0     N14669   2.959   3.032   1.646 -0.7061  0.3126  0.5561
  112MOL0     C14670   2.843   2.993   1.580  0.1090 -0.4180 -0.6806
  112MOL0     C14671   2.745   3.011   1.673  0.4600 -0.1699 -0.6383
  112MOL0     C14672   2.596   3.006   1.667  0.4787  0.1264  0.0450
  112MOL0     C14673   2.542   2.869   1.644 -0.9889  1.2413  0.5710
  112MOL0     C14674   2.456   2.857   1.518  0.1540 -0.5166  0.2036
  112MOL0     C14675   2.388   2.723   1.513  0.5749  0.1459  0.5205
  112MOL0     O14676   2.321   2.709   1.388  1.3829  0.4577  0.3141
  112MOL0     C14677   2.384   2.660   1.281 -0.8500 -0.2916  0.1495
  112MOL0     C14678   2.308   2.665   1.165  0.3146 -0.1679  0.9249
  112MOL0     C14679   2.343   2.604   1.043  0.0560  0.4129  0.9699
  112MOL0     C14680   2.467   2.542   1.029 -0.1569  0.0506  0.6383
  112MOL0     C14681   2.521   2.479   0.909  0.8940  0.6515 -0.0426
  112MOL0     O14682   2.454   2.524   0.799 -0.2362 -0.3923  0.2084
  112MOL0     C14683   2.478   2.451   0.686  0.2172 -0.9683 -0.5579
  112MOL0     C14684   2.480   2.316   0.677  0.0404  0.0931  0.1148
  112MOL0     C14685   2.517   2.246   0.559 -0.9376  0.4865  0.5887
  112MOL0     C14686   2.554   2.318   0.447 -0.6819  0.1822 -0.0751
  112MOL0     O14687   2.578   2.259   0.324  0.3371  0.0642 -0.5774
  112MOL0     C14688   2.627   2.118   0.315 -1.1636  0.2178  0.1239
  112MOL0     C14689   2.645   2.062   0.171  1.2227  0.3863 -0.7459
  112MOL0     C14690   2.783   2.083   0.118  0.1211 -0.8217 -0.1382
  112MOL0     C14691   2.809   2.220   0.075 -0.4601 -1.0587 -0.2078
  112MOL0     C14692   2.948   2.247   0.029 -0.4229  0.0380  0.2473
  112MOL0     C14693   3.060   2.220   0.121 -0.4628  0.0420  0.4778
  112MOL0     C14694   3.189   2.272   0.054 -0.4769  0.2308  0.4507
  112MOL0     C14695   3.320   2.223   0.129  0.0691  0.3029 -0.7251
  112MOL0    Cl14696   3.353   2.040   0.090  0.3442  0.1211 -0.5563
  112MOL0     C14697   2.552   2.455   0.456  0.2864  0.2210 -0.9556
  112MOL0     C14698   2.515   2.519   0.573  1.1815 -0.4540 -0.1564
  112MOL0     O14699   2.620   2.407   0.914  0.4559 -0.1745  0.1746
  112MOL0     C14700   2.550   2.540   1.134 -0.1070  0.4675  0.0183
  112MOL0     C14701   2.519   2.595   1.268 -0.0877 -0.1714 -0.2163
  112MOL0     N14702   2.805   3.051   1.789  0.3315 -0.2693 -1.2807
  112MOL0     N14703   2.932   3.068   1.768  0.5933  0.2930  0.2644
  112MOL0     C14704   3.730   2.495   0.877 -0.0989 -0.0904  0.4159
  112MOL0     C14705   3.816   2.435   0.784 -1.0838 -0.6191  0.2786
  112MOL0     C14706   3.953   2.214   0.416 -0.3346 -0.1861 -0.6485
  112MOL0     C14707   3.932   2.158   0.287 -0.3188 -0.5720 -0.2757
  112MOL0     C14708   4.042   2.091   0.225  0.7438  0.7341 -0.6951
  112MOL0     C14709   4.174   2.107   0.260  0.3480 -0.8268  0.0017
  112MOL0     O14710   4.273   2.063   0.177 -0.4058  0.1881  0.6028
  112MOL0     C14711   4.405   2.046   0.228  0.0980  1.3134 -0.2769
  112MOL0     C14712   4.489   1.965   0.131 -0.2794  1.1105  0.6815
  112MOL0     C14713   4.485   2.010  -0.008  0.8061 -0.1283  0.5039
  112MOL0     C14714   4.522   1.900  -0.116 -0.6983 -0.2554  0.1622
  112MOL0     C14715   4.474   1.955  -0.249  0.7880 -0.2945 -0.1686
  112MOL0     C14716   4.436   2.006  -0.350  0.1894  0.4642  0.4919
  112MOL0     C14717   4.198   2.169   0.386  0.2181 -0.6581 -0.2696
  112MOL0     C14718   4.085   2.209   0.473 -0.3673 -0.7676  1.0169
  112MOL0     H14719   3.596   2.427   0.520  0.9529  1.5626 -1.5582
  112MOL0     H14720   3.450   2.511   0.695  0.6774 -1.3732 -1.6071
  112MOL0     H14721   3.342   2.635   0.927 -0.2980  1.2970  2.0226
  112MOL0     H14722   3.453   2.713   0.809  2.0587 -0.8093  0.8962
  112MOL0     H14723   3.376   2.891   0.940 -0.8358 -1.3046 -1.5980
  112MOL0     H14724   3.522   2.857   1.041 -0.4726 -0.9058 -0.6575
  112MOL0     H14725   3.396   2.722   1.201  4.1096  1.1866 -1.1863
  112MOL0     H14726   3.253   2.736   1.097 -0.9942 -1.1303  1.7564
  112MOL0     H14727   3.303   3.004   1.149  2.3848  0.5963 -0.0473
  112MOL0     H14728   3.191   2.887   1.240 -0.0007 -0.6540  3.4077
  112MOL0     H14729   3.459   2.992   1.314  0.8026 -2.8703  0.4727
  112MOL0     H14730   3.386   2.850   1.399  0.1259 -0.5399 -0.0409
  112MOL0     H14731   3.268   3.130   1.370  0.8470 -1.5432 -3.0436
  112MOL0     H14732   3.330   3.050   1.523  0.2540 -1.6693  0.0547
  112MOL0     H14733   3.083   3.011   1.367  0.2698 -1.9054 -1.1726
  112MOL0     H14734   3.136   2.883   1.478 -1.2366 -0.0228 -2.5451
  112MOL0     H14735   3.079   3.166   1.551  1.5069  0.0735  1.0249
  112MOL0     H14736   3.167   3.068   1.655 -0.3508  0.1203 -0.4377
  112MOL0     H14737   2.835   2.947   1.482  1.0383 -3.8623  0.7111
  112MOL0     H14738   2.575   3.072   1.582  2.1029 -3.3798 -3.4185
  112MOL0     H14739   2.554   3.054   1.755  2.7119 -0.1188  1.3124
  112MOL0     H14740   2.486   2.837   1.732  1.0213 -0.1960  1.4023
  112MOL0     H14741   2.622   2.794   1.634 -3.2539 -1.7289  2.7078
  112MOL0     H14742   2.378   2.934   1.524  0.1932 -0.5797  3.8167
  112MOL0     H14743   2.512   2.870   1.425 -1.3874 -2.0002 -0.9948
  112MOL0     H14744   2.314   2.722   1.594 -3.1788  1.4347 -2.6178
  112MOL0     H14745   2.464   2.646   1.528  1.1284  0.1256 -2.0314
  112MOL0     H14746   2.209   2.702   1.189  0.1548  1.1535 -1.4059
  112MOL0     H14747   2.281   2.607   0.953  2.6918  1.5302 -0.9232
  112MOL0     H14748   2.460   2.250   0.760  0.8162  0.4170  0.5772
  112MOL0     H14749   2.512   2.137   0.555  4.4435  0.0180 -0.5965
  112MOL0     H14750   2.562   2.056   0.378 -0.4633  0.8902  1.5723
  112MOL0     H14751   2.723   2.118   0.367  0.0715 -0.1699 -2.0651
  112MOL0     H14752   2.567   2.102   0.106  1.8309  3.1022  0.0933
  112MOL0     H14753   2.632   1.953   0.175 -1.6643  0.6746 -0.3704
  112MOL0     H14754   2.809   2.005   0.045 -0.1666  0.2641 -1.4411
  112MOL0     H14755   2.850   2.078   0.204  1.1353  0.5183 -0.8182
  112MOL0     H14756   2.741   2.242  -0.007  3.0106 -0.0889 -3.0938
  112MOL0     H14757   2.795   2.288   0.160  0.7358 -1.4578  0.3386
  112MOL0     H14758   2.952   2.355   0.012  1.6167 -0.1731 -0.9480
  112MOL0     H14759   2.956   2.190  -0.064 -1.2126 -0.9013  0.7408
  112MOL0     H14760   3.063   2.115   0.152  2.8118 -0.4463 -1.0615
  112MOL0     H14761   3.032   2.279   0.209 -4.0584  0.4495 -0.7812
  112MOL0     H14762   3.211   2.243  -0.049  3.0751 -1.0298  1.3996
  112MOL0     H14763   3.194   2.381   0.058 -1.2651  0.2706  0.4398
  112MOL0     H14764   3.297   2.231   0.235  3.2569  0.4003  0.0516
  112MOL0     H14765   3.414   2.278   0.127  0.0173  0.3859 -0.8487
  112MOL0     H14766   2.586   2.507   0.368 -0.6601  2.2877 -0.1611
  112MOL0     H14767   2.515   2.627   0.568  0.0460 -0.3222  1.8086
  112MOL0     H14768   2.651   2.501   1.128 -0.9766 -1.8455 -0.7796
  112MOL0     H14769   2.590   2.607   1.349 -0.5416  2.5355 -0.1373
  112MOL0     H14770   3.773   2.517   0.974  0.4533 -1.5403  0.5175
  112MOL0     H14771   3.914   2.407   0.821 -1.1426 -0.8307  0.2767
  112MOL0     H14772   3.835   2.150   0.238 -0.4382 -3.5171  0.2673
  112MOL0     H14773   4.015   2.045   0.130 -2.0185 -0.5526  0.5881
  112MOL0     H14774   4.413   2.004   0.329 -3.5443  2.7436  0.7905
  112MOL0     H14775   4.455   2.143   0.227  2.0471  0.3681 -2.4357
  112MOL0     H14776   4.595   1.968   0.160  0.2533  3.3648 -1.2295
  112MOL0     H14777   4.441   1.869   0.151  0.1497  0.6546 -0.4123
  112MOL0     H14778   4.557   2.092  -0.021  3.7833 -1.3921  5.9061
  112MOL0     H14779   4.382   2.036  -0.033 -0.6345 -3.1668  2.6836
  112MOL0     H14780   4.630   1.887  -0.113 -0.6247  0.2070 -0.4180
  112MOL0     H14781   4.469   1.804  -0.114 -1.6970  0.1010 -3.1412
  112MOL0     H14782   4.377   2.058  -0.424 -0.9824  0.9257  1.6989
  112MOL0     H14783   4.299   2.189   0.418  0.6509  0.3855 -2.1560
  112MOL0     H14784   4.094   2.256   0.571  0.8129  5.3749 -1.5800
  113MOL0     O14785   6.517   8.900   4.627  1.1475 -0.2880 -0.5957
  113MOL0     C14786   6.563   8.958   4.532  0.7745 -0.6062  0.3309
  113MOL0     O14787   6.652   8.907   4.445  0.1230  0.0974  0.1860
  113MOL0     C14788   6.736   8.812   4.493 -0.1950  0.0256  0.4716
  113MOL0     C14789   6.723   8.682   4.450  0.4206 -0.7632 -0.0402
  113MOL0     C14790   6.807   8.583   4.508 -0.0518 -0.9163  0.2401
  113MOL0     C14791   6.907   8.613   4.603  0.3552 -0.4790 -0.7224
  113MOL0     O14792   6.996   8.529   4.652 -0.2507  0.0484 -0.9228
  113MOL0     C14793   6.975   8.392   4.624  0.0318 -0.6757  0.6514
  113MOL0     C14794   7.077   8.318   4.715  0.0428 -0.7961  0.2097
  113MOL0     C14795   7.069   8.163   4.702 -0.1453 -0.6421 -0.4913
  113MOL0     C14796   7.170   8.089   4.793  0.7453 -0.9174  0.4646
  113MOL0     C14797   7.192   7.940   4.742 -0.4526 -0.5637 -0.0631
  113MOL0     C14798   7.297   7.891   4.845  0.0889  0.5310  0.1574
  113MOL0     C14799   7.306   7.728   4.835 -0.2544 -0.1842 -0.2096
  113MOL0     C14800   7.206   7.653   4.920 -0.9797  0.1105  0.4359
  113MOL0     N14801   7.235   7.647   5.068  0.6104 -0.0323 -0.2544
  113MOL0     C14802   7.203   7.746   5.167 -1.0670  0.2799 -0.4219
  113MOL0     C14803   7.240   7.688   5.282  0.0328  0.1014  0.3688
  113MOL0     C14804   7.234   7.758   5.415  0.4951 -0.8214  0.2755
  113MOL0     C14805   7.098   7.820   5.447  0.5095  0.2953 -0.1912
  113MOL0     C14806   6.993   7.717   5.461  0.3625  0.2871  0.2468
  113MOL0     C14807   6.869   7.750   5.542  0.8005  0.5628 -0.5453
  113MOL0     O14808   6.786   7.847   5.475  0.2946  0.0995  0.0227
  113MOL0     C14809   6.662   7.879   5.524 -0.2261 -0.1686  0.6009
  113MOL0     C14810   6.616   8.002   5.470  0.0504 -0.7159 -0.5705
  113MOL0     C14811   6.490   8.047   5.508 -0.7720 -0.1037  1.0431
  113MOL0     C14812   6.413   7.987   5.614  0.1038 -0.5941  0.0798
  113MOL0     C14813   6.278   8.042   5.645  0.9665 -0.3255 -0.7382
  113MOL0     O14814   6.203   7.977   5.747  0.0781  0.0707  0.7905
  113MOL0     C14815   6.079   8.035   5.771 -0.2665 -0.1864  0.6710
  113MOL0     C14816   5.978   8.055   5.672 -0.5980  0.2281  0.5019
  113MOL0     C14817   5.853   8.094   5.715  0.2433  0.2653  0.4178
  113MOL0     C14818   5.819   8.113   5.844 -0.3393 -0.3130  0.4136
  113MOL0     O14819   5.703   8.166   5.881  0.0443  0.0334 -0.5411
  113MOL0     C14820   5.587   8.116   5.818  0.5846  0.5690  0.0096
  113MOL0     C14821   5.526   8.228   5.722 -0.3061 -0.3824 -0.4515
  113MOL0     C14822   5.416   8.179   5.617 -0.0239 -0.2474  0.8790
  113MOL0     C14823   5.392   8.020   5.596 -1.1922 -0.1945  0.9387
  113MOL0     C14824   5.294   7.983   5.486  0.2822  0.2090 -0.1373
  113MOL0     C14825   5.310   7.838   5.434  0.1601  0.2217 -0.1239
  113MOL0     C14826   5.440   7.823   5.353 -0.2538  1.0787 -0.1859
  113MOL0     C14827   5.445   7.688   5.281 -0.1930 -0.7470 -1.0099
  113MOL0    Cl14828   5.465   7.534   5.383 -0.4539  0.1307  0.3031
  113MOL0     C14829   5.917   8.097   5.947 -0.1532  0.3240 -0.3621
  113MOL0     C14830   6.046   8.059   5.907 -0.1631 -0.0975  0.2008
  113MOL0     O14831   6.235   8.144   5.587 -0.1098 -0.4525 -0.6227
  113MOL0     C14832   6.471   7.878   5.672 -0.0635  0.6766 -0.6938
  113MOL0     C14833   6.585   7.822   5.618 -0.6569  0.2559 -0.3904
  113MOL0     N14834   7.297   7.563   5.262 -0.3566  0.0401  0.5671
  113MOL0     N14835   7.294   7.544   5.136 -1.1319 -0.3826 -0.2828
  113MOL0     C14836   6.915   8.746   4.633  0.5355 -0.2089  0.3002
  113MOL0     C14837   6.827   8.844   4.585 -0.1306 -0.9788 -0.3967
  113MOL0     C14838   6.488   9.071   4.480 -0.0352 -0.8401  0.4218
  113MOL0     C14839   6.344   9.082   4.497  0.4155 -0.5441 -0.1932
  113MOL0     C14840   6.272   9.187   4.442 -0.1888  0.2540 -0.2669
  113MOL0     C14841   6.334   9.285   4.372  0.9910  0.8178  0.2362
  113MOL0     O14842   6.266   9.383   4.303  0.0243  0.2942  0.6698
  113MOL0     C14843   6.158   9.447   4.362  0.2047 -0.4089 -1.1167
  113MOL0     C14844   6.190   9.597   4.367 -0.5000 -0.1236  0.2684
  113MOL0     C14845   6.301   9.628   4.467 -0.0419  0.1681 -0.0614
  113MOL0     C14846   6.313   9.783   4.498 -0.8141  0.0994  0.1599
  113MOL0     C14847   6.351   9.869   4.385 -0.0316  0.2614 -0.1585
  113MOL0     C14848   6.361   9.953   4.297 -0.7854  0.4000  0.3416
  113MOL0     C14849   6.473   9.276   4.349 -0.0851  0.7547  0.2653
  113MOL0     C14850   6.544   9.171   4.395 -0.2455  1.2684  0.0160
  113MOL0     H14851   6.662   8.652   4.366 -0.7613 -2.0698  1.2468
  113MOL0     H14852   6.803   8.483   4.465  3.9034 -2.4687  2.8956
  113MOL0     H14853   6.996   8.367   4.520  1.1133  3.4435 -0.3171
  113MOL0     H14854   6.876   8.350   4.643 -0.3188 -1.3912 -2.3446
  113MOL0     H14855   7.061   8.352   4.817 -1.0184  1.8871 -0.7644
  113MOL0     H14856   7.176   8.351   4.682 -1.2068  0.5829 -2.5165
  113MOL0     H14857   7.092   8.148   4.596 -1.1845  0.2646 -0.8544
  113MOL0     H14858   6.977   8.107   4.719 -2.8555  2.7897 -2.5468
  113MOL0     H14859   7.264   8.145   4.799  1.2041 -1.4072 -1.4778
  113MOL0     H14860   7.119   8.093   4.889 -2.9014 -4.0911 -1.0645
  113MOL0     H14861   7.240   7.941   4.644  4.2477  1.1896  1.9477
  113MOL0     H14862   7.105   7.875   4.746  0.7322 -2.2577 -0.9063
  113MOL0     H14863   7.262   7.913   4.946 -1.9431  1.6218 -0.7164
  113MOL0     H14864   7.391   7.939   4.814  0.7322 -0.7927 -0.0091
  113MOL0     H14865   7.283   7.692   4.735  0.1246 -0.8756 -0.0490
  113MOL0     H14866   7.406   7.695   4.865 -0.8575 -1.4296  0.5241
  113MOL0     H14867   7.218   7.552   4.878  5.2920  1.5341 -2.2850
  113MOL0     H14868   7.100   7.676   4.906 -0.8030 -0.2785 -1.9583
  113MOL0     H14869   7.142   7.835   5.157 -1.0396  0.5157  1.1658
  113MOL0     H14870   7.299   7.846   5.420 -1.2802  0.5289  0.4249
  113MOL0     H14871   7.279   7.689   5.487 -0.2296 -2.4888 -0.7994
  113MOL0     H14872   7.069   7.900   5.379 -1.3045  1.9669  2.3535
  113MOL0     H14873   7.111   7.871   5.543  0.8303 -0.0348 -0.0558
  113MOL0     H14874   6.954   7.690   5.361 -0.0904 -1.6434  0.8956
  113MOL0     H14875   7.041   7.625   5.495  3.9364  1.6264 -0.7391
  113MOL0     H14876   6.903   7.787   5.640 -1.6234 -1.6126  1.2567
  113MOL0     H14877   6.813   7.662   5.575 -0.7710  0.0932 -4.0294
  113MOL0     H14878   6.677   8.067   5.408 -1.9681 -0.1054 -2.0118
  113MOL0     H14879   6.457   8.133   5.450  0.4112 -1.5064 -1.8777
  113MOL0     H14880   6.001   8.044   5.567  2.0582 -1.3619  1.1500
  113MOL0     H14881   5.778   8.115   5.639 -0.3663 -1.9169  0.3576
  113MOL0     H14882   5.508   8.088   5.888 -1.6147  2.7965 -1.4091
  113MOL0     H14883   5.611   8.028   5.758  1.1225  1.5638 -1.2641
  113MOL0     H14884   5.602   8.271   5.656 -0.7223  0.4558 -0.4000
  113MOL0     H14885   5.474   8.306   5.779  1.6103  0.7146 -0.1364
  113MOL0     H14886   5.437   8.231   5.523  2.7686  0.2678  1.7153
  113MOL0     H14887   5.318   8.209   5.655 -2.1794 -2.8200 -2.0792
  113MOL0     H14888   5.490   7.989   5.561 -0.7221  3.4496 -1.5662
  113MOL0     H14889   5.367   7.981   5.695  2.0816 -0.6218  1.6952
  113MOL0     H14890   5.285   8.060   5.409 -3.5709  1.4799  1.3505
  113MOL0     H14891   5.195   7.987   5.531  0.4472 -1.2973  0.4189
  113MOL0     H14892   5.225   7.819   5.367  1.6398 -0.6340 -1.8214
  113MOL0     H14893   5.315   7.779   5.526 -0.4800 -1.7480 -1.2911
  113MOL0     H14894   5.439   7.894   5.270  0.5749  3.5697  1.7959
  113MOL0     H14895   5.524   7.845   5.420  0.5088  0.2230 -0.8395
  113MOL0     H14896   5.531   7.696   5.213  0.7719 -3.0035 -0.1482
  113MOL0     H14897   5.355   7.671   5.223 -1.6268 -2.0860  1.4306
  113MOL0     H14898   5.902   8.131   6.049 -0.0019 -0.2340 -0.1482
  113MOL0     H14899   6.121   8.053   5.985 -1.2370 -1.3682  1.1791
  113MOL0     H14900   6.417   7.827   5.750 -1.5640  0.6627 -1.7048
  113MOL0     H14901   6.619   7.733   5.671 -5.0075 -1.1547  0.4196
  113MOL0     H14902   6.987   8.782   4.706 -0.3487 -1.6683  1.9811
  113MOL0     H14903   6.840   8.949   4.609  1.1303 -0.9088 -1.2590
  113MOL0     H14904   6.290   9.009   4.557  0.5029 -0.2389  0.2642
  113MOL0     H14905   6.164   9.193   4.457 -0.1384  2.4063 -0.3512
  113MOL0     H14906   6.149   9.419   4.468  0.8136  1.1862 -0.6011
  113MOL0     H14907   6.065   9.430   4.308 -1.4748  2.6476  0.5266
  113MOL0     H14908   6.196   9.620   4.260  0.4907 -1.3896  0.0249
  113MOL0     H14909   6.105   9.642   4.418  0.8525 -0.0584  2.5870
  113MOL0     H14910   6.398   9.602   4.424 -0.8407 -0.4415 -1.5834
  113MOL0     H14911   6.278   9.590   4.567  0.9401 -2.8533 -0.8986
  113MOL0     H14912   6.214   9.824   4.521 -0.0781  2.1692 -0.1534
  113MOL0     H14913   6.384   9.795   4.580  1.9234 -2.3368 -1.6824
  113MOL0     H14914   6.364  10.030   4.222  0.7889 -0.5177 -0.6018
  113MOL0     H14915   6.518   9.351   4.285  1.2334 -0.9415 -0.9052
  113MOL0     H14916   6.650   9.172   4.373 -0.1181 -0.1656  0.4411
  114MOL0     O14917   1.759   3.189   1.103  0.2825  1.0259 -0.8357
  114MOL0     C14918   1.681   3.097   1.136  0.7227 -0.7209  0.4659
  114MOL0     O14919   1.595   3.093   1.257 -0.3737  0.0611 -0.0201
  114MOL0     C14920   1.601   3.187   1.359  0.5410 -0.1974  0.6291
  114MOL0     C14921   1.507   3.154   1.457 -0.1599  0.6170  0.2353
  114MOL0     C14922   1.477   3.236   1.568 -0.0118  0.0049  0.6354
  114MOL0     C14923   1.565   3.334   1.595 -0.4397  0.0940 -0.1695
  114MOL0     O14924   1.574   3.417   1.704  0.1218 -0.2785  0.5951
  114MOL0     C14925   1.506   3.384   1.831  0.7789  0.5058  0.7249
  114MOL0     C14926   1.548   3.479   1.939  0.1646  0.2877 -0.2555
  114MOL0     C14927   1.695   3.465   1.970 -0.3039  1.0182  0.5931
  114MOL0     C14928   1.726   3.554   2.094 -0.8872 -0.3754 -0.6069
  114MOL0     C14929   1.883   3.589   2.112 -0.7722 -0.1002  0.3061
  114MOL0     C14930   1.936   3.688   2.010  0.2676  0.2778  0.6656
  114MOL0     C14931   2.059   3.768   2.061  0.5991  0.1156 -0.4539
  114MOL0     C14932   2.124   3.839   1.952 -0.2453 -0.2333 -0.2937
  114MOL0     N14933   2.241   3.919   2.020  0.3275  0.4023 -0.1278
  114MOL0     C14934   2.355   3.863   2.067  0.4990 -0.4174  0.5311
  114MOL0     C14935   2.436   3.966   2.084 -0.0327  0.2514  0.1639
  114MOL0     C14936   2.582   3.962   2.120  0.1660 -0.1915  0.7417
  114MOL0     C14937   2.673   3.919   2.005 -0.2823 -0.1535 -0.5090
  114MOL0     C14938   2.819   3.903   2.061  0.7124 -0.2268 -0.1685
  114MOL0     C14939   2.919   3.868   1.952  1.1117 -0.1210  0.0363
  114MOL0     O14940   2.914   3.727   1.914 -0.8759 -0.1492 -0.1637
  114MOL0     C14941   3.021   3.678   1.841 -0.7337 -1.3832 -0.5230
  114MOL0     C14942   3.055   3.540   1.827  0.8671 -0.3343 -0.8089
  114MOL0     C14943   3.154   3.484   1.748  0.4211 -0.6474 -0.0432
  114MOL0     C14944   3.218   3.571   1.664  0.6628  0.0762  1.5141
  114MOL0     C14945   3.322   3.521   1.577 -0.7417 -0.1112 -0.0142
  114MOL0     O14946   3.349   3.387   1.589 -0.1305 -0.0572 -0.0118
  114MOL0     C14947   3.441   3.320   1.510 -0.6145 -0.2363  0.7520
  114MOL0     C14948   3.532   3.238   1.577 -0.3365 -0.1990  1.2074
  114MOL0     C14949   3.636   3.168   1.509  0.4669 -0.5731  0.0462
  114MOL0     C14950   3.652   3.176   1.369 -0.0279 -0.7681  0.3274
  114MOL0     O14951   3.746   3.085   1.333 -0.8227 -0.4443 -0.4457
  114MOL0     C14952   3.776   3.064   1.195 -0.0952 -0.4580 -0.1862
  114MOL0     C14953   3.851   3.191   1.150  0.6103  0.6678 -0.8401
  114MOL0     C14954   3.913   3.176   1.006 -0.0910  0.5246  0.0840
  114MOL0     C14955   3.833   3.080   0.913 -0.8315 -0.0276  0.8603
  114MOL0     C14956   3.913   3.051   0.785 -0.0324 -0.1330 -0.3218
  114MOL0     C14957   3.965   3.184   0.730  0.1648  0.4539 -0.9877
  114MOL0     C14958   3.993   3.171   0.580 -0.7099  0.0203 -0.4497
  114MOL0     C14959   4.083   3.287   0.532  0.2358  0.8178  0.8563
  114MOL0    Cl14960   4.254   3.227   0.508  0.4237 -0.0355 -0.1537
  114MOL0     C14961   3.562   3.262   1.307  0.5647  0.1340  0.1328
  114MOL0     C14962   3.466   3.340   1.373 -0.5769 -0.2553 -0.0687
  114MOL0     O14963   3.394   3.599   1.520  0.5297 -0.4290 -0.0689
  114MOL0     C14964   3.197   3.709   1.678  0.2965 -0.1235  0.0662
  114MOL0     C14965   3.098   3.759   1.756 -0.0097  0.0276  0.4251
  114MOL0     N14966   2.376   4.082   2.041  0.7931  0.5040  0.3119
  114MOL0     N14967   2.264   4.047   2.005  0.3889  0.1162  0.2778
  114MOL0     C14968   1.668   3.370   1.498  0.5216  0.0163 -0.4927
  114MOL0     C14969   1.690   3.296   1.376 -0.2501  0.2598 -2.1220
  114MOL0     C14970   1.685   2.985   1.048  0.1746  0.3932  0.4218
  114MOL0     C14971   1.586   2.885   1.062  0.0083  0.0074  0.5317
  114MOL0     C14972   1.589   2.774   0.972 -0.2664  0.1685  0.9386
  114MOL0     C14973   1.670   2.756   0.858 -0.6967 -0.8422  0.2811
  114MOL0     O14974   1.653   2.638   0.790 -0.4301 -0.1888 -0.3834
  114MOL0     C14975   1.688   2.645   0.650 -0.7019 -0.4359  0.5599
  114MOL0     C14976   1.642   2.529   0.565  0.8569  0.1112  1.0404
  114MOL0     C14977   1.489   2.494   0.570  1.1028  1.1770 -0.2009
  114MOL0     C14978   1.403   2.576   0.484  0.5070 -0.4323  0.0688
  114MOL0     C14979   1.260   2.546   0.471  0.5645  0.7381 -0.6225
  114MOL0     C14980   1.140   2.524   0.460 -0.7276  0.1010  0.7298
  114MOL0     C14981   1.764   2.857   0.847  0.0291 -0.4498  0.2925
  114MOL0     C14982   1.780   2.963   0.942 -0.9224  0.3994 -0.5284
  114MOL0     H14983   1.450   3.062   1.448 -1.1970  1.0775  1.7878
  114MOL0     H14984   1.399   3.210   1.638  2.1805 -2.8491  2.2315
  114MOL0     H14985   1.539   3.282   1.852  3.1765  0.6774 -1.6592
  114MOL0     H14986   1.397   3.378   1.833  0.7466  0.9213  0.2319
  114MOL0     H14987   1.484   3.450   2.023  0.1018 -1.3768 -0.8268
  114MOL0     H14988   1.541   3.584   1.910  1.7409  0.3925 -0.3568
  114MOL0     H14989   1.763   3.501   1.892 -0.1542 -0.1853  0.1434
  114MOL0     H14990   1.724   3.360   1.972 -0.7923  0.8797  3.0971
  114MOL0     H14991   1.673   3.649   2.089 -1.4927 -0.2801  3.8023
  114MOL0     H14992   1.686   3.505   2.182 -0.8089  0.1459 -0.2765
  114MOL0     H14993   1.933   3.492   2.113 -1.4847 -0.4688  0.6754
  114MOL0     H14994   1.901   3.648   2.202  1.2685  0.4360 -0.3964
  114MOL0     H14995   1.856   3.761   1.996 -0.4881 -0.7045 -0.3493
  114MOL0     H14996   1.975   3.637   1.922  2.2458 -0.4098  1.8875
  114MOL0     H14997   2.014   3.844   2.126 -1.5171 -1.2311 -0.2712
  114MOL0     H14998   2.130   3.707   2.118  0.5538  1.2023  0.8223
  114MOL0     H14999   2.056   3.908   1.902  0.3851  3.6356  3.5729
  114MOL0     H15000   2.157   3.768   1.876  0.2257 -3.3032  2.5788
  114MOL0     H15001   2.368   3.756   2.084  0.4445 -0.2074  2.0148
  114MOL0     H15002   2.587   3.889   2.201  0.0676 -0.7271  0.2677
  114MOL0     H15003   2.619   4.060   2.151 -0.1757 -0.4735  2.1359
  114MOL0     H15004   2.670   3.998   1.929  0.3227  2.4253  1.9742
  114MOL0     H15005   2.648   3.823   1.958 -1.0121  0.7545 -2.0556
  114MOL0     H15006   2.849   4.000   2.102  3.6538 -0.2709 -1.9717
  114MOL0     H15007   2.819   3.824   2.136  3.0376  0.0825  0.2250
  114MOL0     H15008   3.012   3.907   1.994 -0.0950 -0.4083  3.2841
  114MOL0     H15009   2.895   3.928   1.865 -0.6479  0.2505  0.7379
  114MOL0     H15010   2.987   3.473   1.879  1.1334 -2.7480 -3.3274
  114MOL0     H15011   3.161   3.376   1.735 -0.7930 -0.4016 -3.5429
  114MOL0     H15012   3.534   3.242   1.685  3.4670 -0.4777  1.2861
  114MOL0     H15013   3.710   3.118   1.570  1.3758  0.5655 -0.0930
  114MOL0     H15014   3.687   3.047   1.134  2.0827  1.4488 -4.2413
  114MOL0     H15015   3.829   2.970   1.178 -2.9124 -3.0233  3.3323
  114MOL0     H15016   3.928   3.212   1.225  2.3808 -0.8887 -2.1085
  114MOL0     H15017   3.781   3.274   1.137  0.5189  0.4088 -2.1328
  114MOL0     H15018   4.017   3.144   1.020  0.7575  2.7871 -0.7135
  114MOL0     H15019   3.925   3.275   0.961 -0.3535  0.6175  0.2138
  114MOL0     H15020   3.816   2.984   0.963 -2.1948 -1.3953 -2.0312
  114MOL0     H15021   3.741   3.134   0.891 -0.6392  0.2060  0.6215
  114MOL0     H15022   3.840   3.007   0.717 -1.2917 -0.8346  1.4155
  114MOL0     H15023   3.987   2.976   0.815 -2.6432 -3.8300 -2.3190
  114MOL0     H15024   4.051   3.217   0.788 -0.9539 -0.2688  1.1626
  114MOL0     H15025   3.888   3.255   0.760  1.6097  0.7313  2.5073
  114MOL0     H15026   4.038   3.074   0.559 -2.0055 -0.9127  0.8489
  114MOL0     H15027   3.895   3.172   0.531 -0.4800 -1.8846 -1.0243
  114MOL0     H15028   4.074   3.380   0.589  2.0084  1.4856  0.1191
  114MOL0     H15029   4.044   3.316   0.434  0.7217 -0.5952  0.2127
  114MOL0     H15030   3.572   3.267   1.199  5.2033  2.4076  0.4387
  114MOL0     H15031   3.411   3.413   1.314 -0.3472 -0.2050 -0.2217
  114MOL0     H15032   3.266   3.770   1.621 -0.6836  0.0076 -1.0143
  114MOL0     H15033   3.069   3.863   1.741 -1.3164 -0.4026 -0.1829
  114MOL0     H15034   1.728   3.454   1.533  0.4864  0.5620 -1.6875
  114MOL0     H15035   1.772   3.310   1.306  1.2619 -2.1855 -1.0033
  114MOL0     H15036   1.512   2.881   1.141  0.9651  2.0395  1.6277
  114MOL0     H15037   1.522   2.694   1.001 -2.7552  2.0680  0.7186
  114MOL0     H15038   1.796   2.640   0.634 -0.5986  3.6604 -1.0551
  114MOL0     H15039   1.643   2.733   0.604  0.9780  0.6046  0.8336
  114MOL0     H15040   1.666   2.547   0.460  1.4334 -1.9155  0.7857
  114MOL0     H15041   1.705   2.452   0.610  0.8968  1.8521  4.2531
  114MOL0     H15042   1.454   2.486   0.673  0.8456 -0.9181 -0.3964
  114MOL0     H15043   1.481   2.390   0.536 -0.2731  1.3078 -0.3520
  114MOL0     H15044   1.415   2.679   0.521 -0.5718 -0.9169  1.9025
  114MOL0     H15045   1.450   2.586   0.385  2.7967  2.3898  1.2842
  114MOL0     H15046   1.036   2.529   0.436 -0.6241 -1.2805 -0.1409
  114MOL0     H15047   1.830   2.863   0.761  2.0753  0.3526  1.8135
  114MOL0     H15048   1.864   3.032   0.935 -1.2071  0.8323  0.1887
  115MOL0     O15049   1.740   7.937  10.853  0.6469  0.2985  0.2686
  115MOL0     C15050   1.733   7.968  10.969  0.9055 -0.3981  0.4251
  115MOL0     O15051   1.676   8.089  11.013 -0.1744  0.5347  0.3438
  115MOL0     C15052   1.594   8.151  10.927  0.1322 -0.1803  0.1265
  115MOL0     C15053   1.512   8.086  10.836 -0.0403  0.0879 -0.3873
  115MOL0     C15054   1.409   8.144  10.759 -0.6104  0.7164 -0.2908
  115MOL0     C15055   1.405   8.281  10.757 -0.4715  0.0113  0.0671
  115MOL0     O15056   1.307   8.351  10.696  0.1289  0.0765 -0.3764
  115MOL0     C15057   1.235   8.290  10.593 -0.1648 -1.2515 -0.0606
  115MOL0     C15058   1.099   8.355  10.553  0.4242 -0.2996 -0.0918
  115MOL0     C15059   0.990   8.343  10.662  0.1335  0.7702  1.0018
  115MOL0     C15060   0.850   8.345  10.605  0.9634 -0.7899  0.5599
  115MOL0     C15061   0.744   8.303  10.704  0.0126  0.1202 -0.6825
  115MOL0     C15062   0.726   8.407  10.807 -0.6704 -0.1844 -0.2836
  115MOL0     C15063   0.615   8.362  10.898  0.0839  1.0044 -0.4955
  115MOL0     C15064   0.594   8.476  11.005 -0.4571 -0.5027 -0.1180
  115MOL0     N15065   0.488   8.438  11.097  0.2177  0.6885 -0.4929
  115MOL0     C15066   0.356   8.433  11.057 -0.4381  0.5348  0.2361
  115MOL0     C15067   0.292   8.384  11.162 -0.3238  0.7270 -0.3271
  115MOL0     C15068   0.148   8.380  11.193  0.3772  0.4867  0.4124
  115MOL0     C15069   0.081   8.265  11.108 -0.2165 -0.0770 -0.2810
  115MOL0     C15070  -0.064   8.275  11.140  0.6137  0.3044 -0.4818
  115MOL0     C15071  -0.136   8.186  11.039  0.0750 -0.2656 -0.4531
  115MOL0     O15072  -0.277   8.170  11.066 -0.7662 -0.1080 -0.9726
  115MOL0     C15073  -0.363   8.251  11.004  0.4256 -0.3936  0.2341
  115MOL0     C15074  -0.483   8.190  10.970  0.2829 -0.4292  0.7190
  115MOL0     C15075  -0.582   8.271  10.905 -0.4697 -0.0175  0.3393
  115MOL0     C15076  -0.564   8.406  10.870  0.0833  0.1391 -0.1353
  115MOL0     C15077  -0.663   8.494  10.792  0.0621 -0.0610 -0.3067
  115MOL0     O15078  -0.770   8.425  10.742 -0.2766 -0.1990 -0.1379
  115MOL0     C15079  -0.863   8.480  10.662  0.7108  0.2101  0.6048
  115MOL0     C15080  -0.834   8.579  10.561  0.0001  0.3252 -0.1813
  115MOL0     C15081  -0.940   8.646  10.491  0.5129 -0.2159  0.8450
  115MOL0     C15082  -1.073   8.604  10.503 -0.0429  0.7155 -0.4557
  115MOL0     O15083  -1.188   8.663  10.442  0.8718  0.1206 -0.7046
  115MOL0     C15084  -1.166   8.797  10.395 -0.1997 -0.1770  0.1739
  115MOL0     C15085  -1.305   8.854  10.378 -1.5292 -0.5511 -0.3325
  115MOL0     C15086  -1.285   8.995  10.308  0.2037  0.4360  0.0162
  115MOL0     C15087  -1.412   9.085  10.328 -0.3843  0.4631  0.1028
  115MOL0     C15088  -1.376   9.216  10.257 -0.1504  0.8284 -1.2501
  115MOL0     C15089  -1.510   9.291  10.236 -0.4029 -0.7151  0.2645
  115MOL0     C15090  -1.491   9.435  10.184 -0.2877  1.2924 -0.4905
  115MOL0     C15091  -1.428   9.529  10.295  0.5301 -1.1228 -0.0269
  115MOL0    Cl15092  -1.541   9.526  10.442  0.4373 -0.2962  0.1267
  115MOL0     C15093  -1.099   8.502  10.606  0.2958 -0.9146  0.5117
  115MOL0     C15094  -0.994   8.442  10.678  0.5357 -0.3538  0.6103
  115MOL0     O15095  -0.635   8.613  10.783  0.1694 -0.2900  0.4892
  115MOL0     C15096  -0.442   8.467  10.909  0.3084 -0.2891 -0.7981
  115MOL0     C15097  -0.346   8.387  10.975 -0.3137  0.2773 -0.0696
  115MOL0     N15098   0.382   8.368  11.264 -0.4252 -0.5604 -0.0457
  115MOL0     N15099   0.501   8.404  11.227  0.4295  0.8537 -0.2632
  115MOL0     C15100   1.496   8.348  10.829 -0.1933 -0.2548  0.2584
  115MOL0     C15101   1.588   8.292  10.916  0.0481  1.1289  0.0987
  115MOL0     C15102   1.791   7.879  11.072 -0.0405  0.0520 -0.2361
  115MOL0     C15103   1.770   7.893  11.214  0.2714 -0.3719 -0.6957
  115MOL0     C15104   1.828   7.806  11.305 -1.6909 -0.8751 -0.8933
  115MOL0     C15105   1.912   7.705  11.262  0.6316 -0.3011 -0.2579
  115MOL0     O15106   1.959   7.621  11.359 -1.2657 -0.2783  0.2006
  115MOL0     C15107   2.097   7.562  11.358 -0.1516  0.1063 -1.1202
  115MOL0     C15108   2.192   7.593  11.482  0.8301  0.0300 -0.4850
  115MOL0     C15109   2.176   7.741  11.528 -1.3365  0.4554  1.3615
  115MOL0     C15110   2.213   7.846  11.426  0.3563 -1.0807  1.1565
  115MOL0     C15111   2.172   7.981  11.454 -0.2847 -1.1032  0.4116
  115MOL0     C15112   2.142   8.094  11.478 -0.0547 -0.6621 -0.1073
  115MOL0     C15113   1.936   7.685  11.134  0.0463 -0.8893  1.2191
  115MOL0     C15114   1.883   7.777  11.039 -0.1631  0.1829  0.0302
  115MOL0     H15115   1.511   7.980  10.817 -2.8566 -0.4559  1.9805
  115MOL0     H15116   1.334   8.086  10.705 -1.0528 -0.7777  1.7976
  115MOL0     H15117   1.189   8.198  10.629 -2.7968 -0.4566 -1.0863
  115MOL0     H15118   1.303   8.272  10.509  1.4822 -1.1388  1.1898
  115MOL0     H15119   1.062   8.316  10.458  0.3557 -4.5419  1.4247
  115MOL0     H15120   1.125   8.460  10.543  2.0709 -0.4344  1.9326
  115MOL0     H15121   1.000   8.420  10.739  0.7653  1.3782  0.3291
  115MOL0     H15122   1.011   8.253  10.721  0.8429  0.0740 -0.2828
  115MOL0     H15123   0.817   8.440  10.561  0.5281  0.0712  2.6539
  115MOL0     H15124   0.839   8.266  10.529 -1.1263 -0.2222  0.2087
  115MOL0     H15125   0.759   8.202  10.744 -3.8319 -0.8391 -1.2080
  115MOL0     H15126   0.648   8.297  10.651  0.1435  0.6348 -0.9815
  115MOL0     H15127   0.698   8.504  10.764 -0.3115  1.1226  2.2502
  115MOL0     H15128   0.821   8.422  10.860 -0.1523 -2.4372 -0.4953
  115MOL0     H15129   0.520   8.359  10.844  1.0228  0.6877 -2.1852
  115MOL0     H15130   0.630   8.261  10.937 -2.9108  1.2372  1.6450
  115MOL0     H15131   0.564   8.568  10.954 -2.9476 -0.6719  0.9251
  115MOL0     H15132   0.686   8.483  11.064 -0.1746  0.7180 -0.6782
  115MOL0     H15133   0.319   8.477  10.965  0.8200  0.7149 -0.2070
  115MOL0     H15134   0.097   8.475  11.177  1.6954  1.3084  0.8888
  115MOL0     H15135   0.140   8.375  11.302  1.8266  0.4916  0.5347
  115MOL0     H15136   0.128   8.168  11.131  0.1476  0.0250 -0.5800
  115MOL0     H15137   0.103   8.279  11.002 -0.0884  1.9537 -0.0158
  115MOL0     H15138  -0.084   8.245  11.243 -0.7020  0.3327 -0.7075
  115MOL0     H15139  -0.098   8.377  11.116  0.4996  0.3714 -0.0461
  115MOL0     H15140  -0.096   8.085  11.053  1.7955  0.3615 -0.6620
  115MOL0     H15141  -0.128   8.218  10.935 -4.5689  0.3736 -0.8472
  115MOL0     H15142  -0.502   8.084  10.984  1.5810 -0.3861  3.3943
  115MOL0     H15143  -0.676   8.232  10.868  0.2549  1.2833 -3.2398
  115MOL0     H15144  -0.732   8.605  10.535  0.1995  2.1542  2.1295
  115MOL0     H15145  -0.914   8.725  10.420  3.0785 -1.2903  0.4782
  115MOL0     H15146  -1.112   8.809  10.300  0.9501  3.0369  1.0880
  115MOL0     H15147  -1.105   8.854  10.465  2.3180 -0.8655 -1.3194
  115MOL0     H15148  -1.342   8.864  10.481 -1.0530  2.7548 -0.3658
  115MOL0     H15149  -1.359   8.790  10.308 -0.4310 -1.5892 -0.2567
  115MOL0     H15150  -1.248   8.986  10.205 -1.7523  1.0143 -0.7917
  115MOL0     H15151  -1.204   9.047  10.358 -1.5339  3.5017 -0.1336
  115MOL0     H15152  -1.503   9.044  10.284 -2.0161  1.8182  2.0159
  115MOL0     H15153  -1.430   9.103  10.435 -0.8623 -0.4843  0.1949
  115MOL0     H15154  -1.320   9.190  10.166 -0.0078  0.3494 -1.0316
  115MOL0     H15155  -1.319   9.280  10.326 -0.5444 -0.5616  0.4560
  115MOL0     H15156  -1.567   9.303  10.328  1.0969 -0.9469  1.2579
  115MOL0     H15157  -1.569   9.225  10.172  1.4879 -0.2787 -2.0845
  115MOL0     H15158  -1.424   9.431  10.098 -0.4105 -1.2052 -0.5561
  115MOL0     H15159  -1.589   9.472  10.153 -1.4885 -1.1582  0.0953
  115MOL0     H15160  -1.427   9.633  10.260 -3.6364 -1.0870 -0.5927
  115MOL0     H15161  -1.326   9.503  10.324  0.1533 -0.9600  1.5355
  115MOL0     H15162  -1.199   8.476  10.640  1.0390 -0.2965  3.4311
  115MOL0     H15163  -1.013   8.375  10.762  3.7403 -0.4538  1.4168
  115MOL0     H15164  -0.425   8.571  10.881 -2.2450 -0.0234 -1.6387
  115MOL0     H15165  -0.246   8.421  11.000  0.0226  1.8281 -3.0731
  115MOL0     H15166   1.491   8.456  10.819  1.2694 -0.2529 -0.7508
  115MOL0     H15167   1.650   8.346  10.988  2.2518 -0.4790 -0.4872
  115MOL0     H15168   1.713   7.977  11.253 -0.7675 -0.2027 -2.4968
  115MOL0     H15169   1.815   7.818  11.413 -2.0073 -1.6979 -0.8351
  115MOL0     H15170   2.147   7.609  11.272  0.6164 -0.8102 -1.1999
  115MOL0     H15171   2.090   7.455  11.334  2.1310 -0.1518 -0.8837
  115MOL0     H15172   2.181   7.533  11.572  2.1274 -0.3200 -0.5469
  115MOL0     H15173   2.294   7.571  11.451  0.6271 -1.0638 -0.4248
  115MOL0     H15174   2.252   7.758  11.605 -0.0779  3.6085 -0.3862
  115MOL0     H15175   2.074   7.763  11.561 -2.0895 -0.2044 -0.3919
  115MOL0     H15176   2.322   7.838  11.420  0.2300 -1.8479 -1.1663
  115MOL0     H15177   2.176   7.822  11.325  0.0503  2.1164  0.4047
  115MOL0     H15178   2.120   8.192  11.514  3.2416 -0.5513  2.0752
  115MOL0     H15179   1.996   7.602  11.100  0.8264  0.2929 -0.4557
  115MOL0     H15180   1.897   7.774  10.931  1.8229  1.9752  0.1453
  116MOL0     O15181   5.540   6.055   7.848 -0.4510 -0.7278  0.1381
  116MOL0     C15182   5.483   5.955   7.814 -0.1627  0.2872  0.4838
  116MOL0     O15183   5.531   5.822   7.841  0.1035 -1.2415  0.1952
  116MOL0     C15184   5.629   5.810   7.932 -0.3113  0.1249 -0.5967
  116MOL0     C15185   5.751   5.871   7.914  0.4030  1.1431  1.1006
  116MOL0     C15186   5.861   5.855   7.997  0.7856 -1.3065 -1.0424
  116MOL0     C15187   5.851   5.776   8.108 -0.9896  0.0302  0.3758
  116MOL0     O15188   5.937   5.775   8.210 -0.1335  0.2989  0.2753
  116MOL0     C15189   6.078   5.762   8.183 -0.5665  0.4693 -0.0841
  116MOL0     C15190   6.174   5.870   8.240 -0.0881 -0.0390 -0.5821
  116MOL0     C15191   6.171   5.870   8.391 -0.7738  0.2670 -0.9839
  116MOL0     C15192   6.303   5.936   8.449  0.5366 -0.0978 -0.4495
  116MOL0     C15193   6.288   5.969   8.601 -0.8807  0.4731  0.3699
  116MOL0     C15194   6.203   6.095   8.638 -0.9500 -0.3282  0.2967
  116MOL0     C15195   6.250   6.220   8.576 -0.2363  0.5735  0.6779
  116MOL0     C15196   6.183   6.346   8.623  0.0869 -0.1168 -0.3580
  116MOL0     N15197   6.048   6.371   8.577 -0.3615  0.5272 -0.0192
  116MOL0     C15198   5.971   6.477   8.611 -0.3811  0.4286 -0.0614
  116MOL0     C15199   5.851   6.444   8.558  1.3881 -0.2905  0.5377
  116MOL0     C15200   5.721   6.491   8.601  0.4183  0.9809 -0.4347
  116MOL0     C15201   5.691   6.451   8.753 -0.0970  0.4223 -0.0204
  116MOL0     C15202   5.561   6.511   8.817 -0.8630 -0.0726 -0.2070
  116MOL0     C15203   5.437   6.413   8.823 -0.4980  0.0512  0.1018
  116MOL0     O15204   5.382   6.390   8.697  0.5916 -0.3456  0.8110
  116MOL0     C15205   5.280   6.302   8.671 -0.4391 -0.3256  0.3628
  116MOL0     C15206   5.181   6.319   8.570 -0.3692  0.2390 -1.2037
  116MOL0     C15207   5.090   6.208   8.553  0.4368  0.5523 -0.9347
  116MOL0     C15208   5.079   6.101   8.635 -0.7450 -0.2917  0.5300
  116MOL0     C15209   4.975   5.998   8.626  0.8943 -0.3584  1.1816
  116MOL0     O15210   4.869   6.026   8.533 -0.5973  0.0349 -0.1402
  116MOL0     C15211   4.768   5.942   8.521  0.3063  0.4012 -0.4208
  116MOL0     C15212   4.660   5.955   8.607  0.6820  0.0784  0.1170
  116MOL0     C15213   4.551   5.866   8.588  0.2512 -0.6298 -0.2086
  116MOL0     C15214   4.547   5.760   8.502  0.2172  0.2420  0.4649
  116MOL0     O15215   4.435   5.688   8.491  1.0936  0.2759 -0.5738
  116MOL0     C15216   4.407   5.592   8.394 -0.2810  0.5952 -0.2386
  116MOL0     C15217   4.309   5.486   8.446  0.0755 -0.1271  0.0130
  116MOL0     C15218   4.370   5.374   8.531 -0.1465  0.8518  1.0545
  116MOL0     C15219   4.262   5.276   8.563  0.2444 -0.4277 -0.5164
  116MOL0     C15220   4.309   5.146   8.627  0.7419 -0.1165 -0.2046
  116MOL0     C15221   4.200   5.048   8.671 -0.0765 -0.8055 -0.3354
  116MOL0     C15222   4.250   4.924   8.745 -0.6143 -0.8184  0.0164
  116MOL0     C15223   4.158   4.812   8.760  0.0434  0.0904  0.3713
  116MOL0    Cl15224   4.154   4.742   8.587  0.1243  0.4859 -0.0407
  116MOL0     C15225   4.666   5.745   8.430 -0.0705  0.6056  0.2645
  116MOL0     C15226   4.767   5.841   8.427  0.5740  0.7545 -0.8943
  116MOL0     O15227   4.978   5.903   8.697 -0.1793  0.0914 -0.4946
  116MOL0     C15228   5.179   6.083   8.730  1.3346 -0.2426  0.2869
  116MOL0     C15229   5.269   6.182   8.748 -0.2332 -0.0153 -0.1396
  116MOL0     N15230   5.861   6.326   8.492 -0.2597  0.1723 -0.3036
  116MOL0     N15231   5.978   6.287   8.502 -0.4199 -0.1894  0.0060
  116MOL0     C15232   5.726   5.717   8.134 -0.6374 -0.5296 -0.0603
  116MOL0     C15233   5.627   5.720   8.041  0.1014 -0.0739  0.3845
  116MOL0     C15234   5.377   5.957   7.713  0.9236  0.1599  0.2296
  116MOL0     C15235   5.294   5.849   7.701  0.4414 -0.5865  1.2087
  116MOL0     C15236   5.198   5.839   7.595  0.0422 -0.1250 -0.5808
  116MOL0     C15237   5.194   5.937   7.495  0.0224  1.4103 -0.0008
  116MOL0     O15238   5.109   5.928   7.386  1.1400 -0.0910 -0.2211
  116MOL0     C15239   5.019   6.047   7.384 -0.4593  0.2993  0.2546
  116MOL0     C15240   4.877   6.011   7.416 -0.4444 -0.6993  0.9953
  116MOL0     C15241   4.864   5.947   7.555  0.4587  0.2479 -0.8541
  116MOL0     C15242   4.722   5.908   7.591  0.1497  0.4654 -0.1626
  116MOL0     C15243   4.651   5.823   7.488  0.2285  0.4059 -0.2678
  116MOL0     C15244   4.601   5.775   7.392 -0.3694  0.4166 -0.6910
  116MOL0     C15245   5.271   6.052   7.508  0.1836  0.1328  0.4253
  116MOL0     C15246   5.366   6.059   7.613  0.2879 -0.3658 -0.5417
  116MOL0     H15247   5.766   5.938   7.829  1.1701  2.0499  1.9293
  116MOL0     H15248   5.951   5.910   7.973  1.5188 -1.9878  0.0886
  116MOL0     H15249   6.088   5.754   8.074 -3.6016 -0.1178 -0.4121
  116MOL0     H15250   6.121   5.673   8.229 -2.3767 -0.6521 -0.4349
  116MOL0     H15251   6.137   5.970   8.216  1.1995  0.0714 -2.3709
  116MOL0     H15252   6.276   5.842   8.212 -0.9112 -2.5766 -1.3012
  116MOL0     H15253   6.179   5.767   8.427 -0.3362 -0.5242 -3.1531
  116MOL0     H15254   6.086   5.924   8.433  1.1978  2.2683  0.6725
  116MOL0     H15255   6.385   5.866   8.431  0.4668 -0.2756 -0.0817
  116MOL0     H15256   6.326   6.030   8.398 -1.2321 -0.4388 -2.0039
  116MOL0     H15257   6.389   5.965   8.644  0.3759 -3.1019 -2.3531
  116MOL0     H15258   6.236   5.881   8.642 -1.6195  0.6953 -0.0773
  116MOL0     H15259   6.188   6.095   8.746  1.3691 -1.7556  0.7029
  116MOL0     H15260   6.103   6.084   8.595 -0.6752  1.6765 -0.9442
  116MOL0     H15261   6.355   6.232   8.604  0.5772  2.6101 -2.5990
  116MOL0     H15262   6.250   6.213   8.467 -0.4131  0.4332  0.6854
  116MOL0     H15263   6.230   6.436   8.582  0.2196 -0.6538 -1.4195
  116MOL0     H15264   6.170   6.344   8.731 -2.1455  1.0837 -0.5421
  116MOL0     H15265   5.980   6.556   8.685 -0.8692  0.0456  0.4204
  116MOL0     H15266   5.639   6.452   8.541 -0.4470  2.8489 -0.5341
  116MOL0     H15267   5.711   6.600   8.607 -4.6204  0.7026  0.5711
  116MOL0     H15268   5.768   6.496   8.817 -2.2994  4.4296  0.1753
  116MOL0     H15269   5.695   6.343   8.769 -1.7273  0.1265 -1.3788
  116MOL0     H15270   5.584   6.551   8.916 -1.4010  0.2608 -0.2097
  116MOL0     H15271   5.537   6.603   8.763  3.6034  2.5725  1.8038
  116MOL0     H15272   5.357   6.456   8.883 -1.7150 -3.9945  1.6859
  116MOL0     H15273   5.464   6.318   8.868  0.4846 -0.2854 -1.1242
  116MOL0     H15274   5.183   6.410   8.510 -1.2566  2.2803  1.6903
  116MOL0     H15275   5.013   6.213   8.477  0.6836 -1.0093 -1.3121
  116MOL0     H15276   4.650   6.036   8.679 -1.5811 -0.6570  0.6933
  116MOL0     H15277   4.456   5.880   8.638 -1.6642  0.6080 -3.8054
  116MOL0     H15278   4.491   5.543   8.344 -1.4900 -0.4836 -1.2730
  116MOL0     H15279   4.338   5.632   8.320 -0.0633  0.1851 -0.6728
  116MOL0     H15280   4.258   5.437   8.363  0.1360  0.3549 -0.3139
  116MOL0     H15281   4.229   5.540   8.497 -1.2839 -1.4738 -0.6098
  116MOL0     H15282   4.405   5.404   8.630 -0.7562 -2.2471  2.3586
  116MOL0     H15283   4.443   5.317   8.473  0.6628  0.0216  2.7785
  116MOL0     H15284   4.193   5.319   8.636 -0.0553 -1.0530 -0.4159
  116MOL0     H15285   4.208   5.247   8.472  2.3790 -4.2487 -0.7694
  116MOL0     H15286   4.374   5.172   8.711  0.5537  0.5087 -0.2474
  116MOL0     H15287   4.352   5.091   8.542 -0.6952 -1.7014  0.0393
  116MOL0     H15288   4.151   5.018   8.577 -1.5324  0.2262  0.0688
  116MOL0     H15289   4.130   5.099   8.738 -1.8963  1.3521 -3.5916
  116MOL0     H15290   4.341   4.898   8.690 -0.0310 -2.3758  1.6200
  116MOL0     H15291   4.283   4.953   8.845 -1.7372 -1.4028  0.5749
  116MOL0     H15292   4.059   4.832   8.802  0.1230 -1.4760  1.3907
  116MOL0     H15293   4.204   4.741   8.830 -0.5842 -0.4883  0.2069
  116MOL0     H15294   4.673   5.657   8.367  0.4099  0.2203  0.8407
  116MOL0     H15295   4.844   5.830   8.350 -0.4584 -4.2204 -1.5951
  116MOL0     H15296   5.190   5.996   8.795 -1.9602 -1.0007  0.0249
  116MOL0     H15297   5.350   6.152   8.814  0.7391  0.1327 -1.2323
  116MOL0     H15298   5.702   5.668   8.227  2.6918  1.0655  1.8130
  116MOL0     H15299   5.531   5.672   8.056  0.3983 -0.4966  0.9983
  116MOL0     H15300   5.293   5.764   7.768 -0.0418 -1.1396  0.5144
  116MOL0     H15301   5.132   5.755   7.576  0.8442 -0.8957 -0.0004
  116MOL0     H15302   5.015   6.092   7.284 -0.3242 -1.4310 -0.5648
  116MOL0     H15303   5.043   6.127   7.454 -3.0390  1.8120 -0.4362
  116MOL0     H15304   4.820   6.099   7.447  0.3421 -0.2781  1.2552
  116MOL0     H15305   4.822   5.963   7.334 -1.0615  2.8145 -0.8473
  116MOL0     H15306   4.889   6.025   7.628 -0.3953  0.8303 -1.1757
  116MOL0     H15307   4.922   5.857   7.578 -1.5939 -0.7946  0.6089
  116MOL0     H15308   4.711   5.852   7.684 -1.0199 -1.9672 -1.6439
  116MOL0     H15309   4.672   6.004   7.605  1.4570  1.5747 -2.3689
  116MOL0     H15310   4.540   5.741   7.312 -1.7659  4.4264 -1.5829
  116MOL0     H15311   5.282   6.132   7.436  2.5606 -0.2898  0.2246
  116MOL0     H15312   5.440   6.139   7.608 -1.0599  1.2163  2.1705
  117MOL0     O15313   1.741  10.933   8.327 -0.4876 -0.0899  0.7059
  117MOL0     C15314   1.754  10.959   8.204 -0.8896 -1.0055 -0.7984
  117MOL0     O15315   1.821  10.881   8.122  0.0434  0.1530 -0.0349
  117MOL0     C15316   1.888  10.766   8.156 -0.1056 -0.4310 -0.2558
  117MOL0     C15317   2.015  10.753   8.108  0.3660 -0.6698  0.2792
  117MOL0     C15318   2.091  10.639   8.144 -0.3557 -0.9995  0.3327
  117MOL0     C15319   2.034  10.543   8.214  0.3240 -0.6087 -0.4399
  117MOL0     O15320   2.101  10.442   8.267  0.7649  0.3185  0.3855
  117MOL0     C15321   2.234  10.459   8.320 -0.3433 -0.0264  0.5059
  117MOL0     C15322   2.251  10.395   8.455 -0.2036 -0.3358 -0.3281
  117MOL0     C15323   2.396  10.408   8.506 -0.1068  0.3703 -0.5140
  117MOL0     C15324   2.422  10.302   8.605 -0.5554 -0.0397 -0.2698
  117MOL0     C15325   2.565  10.315   8.652  0.0025  0.2862 -0.6795
  117MOL0     C15326   2.594  10.208   8.767 -0.2909 -0.5340  0.4998
  117MOL0     C15327   2.735  10.232   8.838 -0.1145  1.6052  0.2290
  117MOL0     C15328   2.755  10.131   8.947  0.3499 -0.2734 -0.2168
  117MOL0     N15329   2.883  10.144   9.019  0.5009  0.1471 -0.2926
  117MOL0     C15330   2.927  10.251   9.104 -0.5023  0.2117  0.3098
  117MOL0     C15331   3.063  10.227   9.101 -0.1446 -0.1025 -0.0992
  117MOL0     C15332   3.162  10.326   9.169 -0.1703  0.4563 -0.2286
  117MOL0     C15333   3.279  10.250   9.234 -0.7939  0.7392 -0.8446
  117MOL0     C15334   3.353  10.352   9.332 -0.2522 -0.0020  0.1107
  117MOL0     C15335   3.448  10.457   9.269  0.1262  0.0613  0.3825
  117MOL0     O15336   3.555  10.381   9.207  0.2172 -0.7295  0.2994
  117MOL0     C15337   3.680  10.384   9.245 -0.0976  0.8426 -0.2695
  117MOL0     C15338   3.737  10.425   9.370  0.2658 -0.3732  0.0797
  117MOL0     C15339   3.879  10.422   9.394  0.5196  0.3136 -0.1167
  117MOL0     C15340   3.971  10.394   9.292 -1.0951 -0.3479  0.2527
  117MOL0     C15341   4.106  10.402   9.325 -0.7040 -0.6310  0.8345
  117MOL0     O15342   4.184  10.417   9.215 -0.7968  0.5534 -0.2108
  117MOL0     C15343   4.319  10.451   9.222 -0.6206  0.0650  0.2039
  117MOL0     C15344   4.405  10.456   9.334 -0.5473  0.3759 -1.1302
  117MOL0     C15345   4.544  10.485   9.316  0.4927  0.1508  0.3101
  117MOL0     C15346   4.586  10.539   9.191  0.4108 -0.0749 -0.9120
  117MOL0     O15347   4.709  10.590   9.176  0.5088 -0.6869  0.0893
  117MOL0     C15348   4.807  10.487   9.169  0.3342  0.0829 -0.3396
  117MOL0     C15349   4.938  10.558   9.112  0.6645 -0.1349  0.4716
  117MOL0     C15350   5.055  10.455   9.107 -0.2877  1.1692  0.6127
  117MOL0     C15351   5.095  10.435   8.958 -0.2790  0.7598 -0.7602
  117MOL0     C15352   5.231  10.372   8.931  0.1901 -0.3223 -0.3705
  117MOL0     C15353   5.226  10.217   8.948 -1.0451  0.1544 -0.6965
  117MOL0     C15354   5.355  10.163   8.892 -0.6024  0.2990  1.2694
  117MOL0     C15355   5.377  10.014   8.884 -0.2087 -0.2631  0.4264
  117MOL0    Cl15356   5.293   9.964   8.734 -0.6640 -0.4816  0.1891
  117MOL0     C15357   4.493  10.553   9.088 -0.3233  0.9357  0.2918
  117MOL0     C15358   4.365  10.495   9.101  0.3654  0.8436  0.0137
  117MOL0     O15359   4.146  10.405   9.446  0.6421  0.3055 -0.2393
  117MOL0     C15360   3.918  10.361   9.169 -0.0252 -0.3100  0.9661
  117MOL0     C15361   3.776  10.344   9.147  0.1006 -0.4642 -0.4705
  117MOL0     N15362   3.093  10.111   9.027 -0.8498 -0.1569 -0.0214
  117MOL0     N15363   2.985  10.064   8.978  0.3437 -0.0766 -0.0308
  117MOL0     C15364   1.891  10.548   8.244  0.2306 -0.2297 -0.2071
  117MOL0     C15365   1.816  10.667   8.214 -0.4793  1.0104 -0.7287
  117MOL0     C15366   1.704  11.091   8.164  0.4418 -0.0619  0.3824
  117MOL0     C15367   1.615  11.173   8.246 -0.5579  0.5696  0.9826
  117MOL0     C15368   1.565  11.297   8.211  0.5584 -0.6856  0.2235
  117MOL0     C15369   1.608  11.349   8.086  0.1329 -0.2920  1.4643
  117MOL0     O15370   1.586  11.480   8.056 -0.7681 -0.0984 -0.1769
  117MOL0     C15371   1.643  11.537   7.932  0.3403 -0.0907 -0.3510
  117MOL0     C15372   1.561  11.492   7.806  0.1046  0.5305  0.7828
  117MOL0     C15373   1.434  11.569   7.796 -0.1129 -0.4966  0.0387
  117MOL0     C15374   1.383  11.613   7.649 -0.0879 -0.4632 -0.5138
  117MOL0     C15375   1.233  11.599   7.621 -0.0920 -0.1057  0.3505
  117MOL0     C15376   1.110  11.582   7.606 -0.0804 -0.5415 -0.0999
  117MOL0     C15377   1.691  11.267   7.999 -0.2520 -0.2419  0.5429
  117MOL0     C15378   1.744  11.148   8.044 -0.7865 -0.0623  0.0995
  117MOL0     H15379   2.050  10.833   8.043  0.0189 -0.1372  0.7409
  117MOL0     H15380   2.197  10.622   8.129 -0.6969 -1.5939 -1.7044
  117MOL0     H15381   2.266  10.563   8.313  0.0851 -0.1844  0.0328
  117MOL0     H15382   2.304  10.413   8.250  2.8174  0.5790  3.0095
  117MOL0     H15383   2.220  10.290   8.448  0.3901 -0.4592 -1.1141
  117MOL0     H15384   2.190  10.438   8.535  0.8332 -0.3972  0.5131
  117MOL0     H15385   2.422  10.509   8.537  0.7737  0.9173 -2.8280
  117MOL0     H15386   2.462  10.390   8.420  1.6309 -0.6465  0.9735
  117MOL0     H15387   2.346  10.319   8.682 -3.0792  0.4336 -2.6942
  117MOL0     H15388   2.409  10.203   8.561  1.3851 -0.4944  0.0874
  117MOL0     H15389   2.578  10.415   8.693 -3.7496  2.0785 -3.2648
  117MOL0     H15390   2.630  10.296   8.566  1.7389 -2.3585  1.0368
  117MOL0     H15391   2.584  10.106   8.728  2.0289 -1.5849  2.3856
  117MOL0     H15392   2.521  10.234   8.844 -0.6769 -0.8390  0.2389
  117MOL0     H15393   2.818  10.223   8.768  0.5686  1.4362  1.0452
  117MOL0     H15394   2.725  10.333   8.879 -0.3772  0.8617  2.1025
  117MOL0     H15395   2.752  10.029   8.908  1.2087 -0.9813  1.4495
  117MOL0     H15396   2.669  10.134   9.016  0.0159 -2.4530 -0.4691
  117MOL0     H15397   2.867  10.335   9.138 -1.6766 -0.4371 -0.1111
  117MOL0     H15398   3.109  10.389   9.241 -1.0682  2.3398 -2.3956
  117MOL0     H15399   3.206  10.388   9.091  3.5380 -0.1742  1.1865
  117MOL0     H15400   3.352  10.208   9.164 -0.6098 -1.0440  0.3491
  117MOL0     H15401   3.244  10.161   9.287 -1.5767  0.1424 -2.3047
  117MOL0     H15402   3.283  10.403   9.399  1.8501  2.4977  0.5215
  117MOL0     H15403   3.421  10.299   9.399 -0.2320 -1.0112 -0.6844
  117MOL0     H15404   3.476  10.519   9.354 -1.1776  1.9991 -0.5277
  117MOL0     H15405   3.403  10.522   9.193  0.2017 -0.7448 -0.3773
  117MOL0     H15406   3.668  10.449   9.451 -0.8539 -1.0017 -0.6548
  117MOL0     H15407   3.910  10.433   9.497 -1.1842  0.8736  0.3638
  117MOL0     H15408   4.377  10.405   9.426 -3.1377  1.8063 -1.0417
  117MOL0     H15409   4.604  10.456   9.402  0.7831  0.5079  0.2293
  117MOL0     H15410   4.790  10.394   9.114  0.7832  0.1759 -0.6407
  117MOL0     H15411   4.830  10.460   9.272  0.1839  2.3366  0.3401
  117MOL0     H15412   4.957  10.652   9.165 -0.6015  0.4795 -0.1318
  117MOL0     H15413   4.899  10.580   9.013 -2.1997  0.5552  1.6525
  117MOL0     H15414   5.048  10.359   9.158  0.0565 -0.6216 -2.4427
  117MOL0     H15415   5.147  10.501   9.145  0.4077 -1.1596  1.8877
  117MOL0     H15416   5.010  10.381   8.915 -0.9655  1.9776 -0.9746
  117MOL0     H15417   5.102  10.534   8.913 -2.3575  0.4104 -1.9945
  117MOL0     H15418   5.309  10.405   9.001  0.4374 -0.6529 -0.4912
  117MOL0     H15419   5.257  10.413   8.833 -1.5093 -0.0338 -0.7397
  117MOL0     H15420   5.134  10.178   8.905 -1.9579 -0.1425  1.3883
  117MOL0     H15421   5.230  10.194   9.055  0.2250 -0.4165 -0.8513
  117MOL0     H15422   5.364  10.195   8.788  0.8146 -2.3836  0.4832
  117MOL0     H15423   5.442  10.209   8.940  0.8272  0.2875 -1.1597
  117MOL0     H15424   5.341   9.972   8.979 -1.7201 -0.6632 -0.2932
  117MOL0     H15425   5.481   9.987   8.862 -0.8247 -0.9009 -1.8608
  117MOL0     H15426   4.521  10.596   8.992  0.7424  0.3335  0.3247
  117MOL0     H15427   4.300  10.512   9.016  0.5188  1.5672  0.0281
  117MOL0     H15428   3.975  10.338   9.080 -0.8500 -1.0354  0.6106
  117MOL0     H15429   3.740  10.308   9.051  2.1775 -0.7265 -1.1900
  117MOL0     H15430   1.854  10.460   8.297  2.3363 -0.8382  0.3399
  117MOL0     H15431   1.713  10.678   8.247 -0.2082  0.2032  0.5038
  117MOL0     H15432   1.584  11.132   8.341 -0.9710 -1.1187  0.1549
  117MOL0     H15433   1.496  11.335   8.286  0.5470 -2.3917  1.1323
  117MOL0     H15434   1.747  11.504   7.924  0.4089 -1.4134  3.7661
  117MOL0     H15435   1.641  11.646   7.935 -0.1752 -0.1183  0.7757
  117MOL0     H15436   1.618  11.506   7.714 -0.6599  1.8220  0.4866
  117MOL0     H15437   1.538  11.385   7.814 -1.6973  0.8029 -0.1648
  117MOL0     H15438   1.438  11.659   7.858  0.3304 -0.4950  0.0114
  117MOL0     H15439   1.361  11.497   7.834 -0.6005  0.5125  1.0696
  117MOL0     H15440   1.409  11.719   7.647 -0.3420 -0.4027 -2.4704
  117MOL0     H15441   1.437  11.557   7.572 -0.8553  0.5437 -1.8287
  117MOL0     H15442   1.004  11.570   7.596 -0.5952  1.5316  1.9275
  117MOL0     H15443   1.721  11.306   7.902 -0.0851  0.1335  0.7432
  117MOL0     H15444   1.814  11.096   7.979 -0.6139 -1.2475  1.1788
  118MOL0     O15445   8.999   3.961   9.248  0.4713 -0.2693  0.1276
  118MOL0     C15446   8.979   3.907   9.139 -0.2189  0.0898 -0.3102
  118MOL0     O15447   9.069   3.835   9.074  0.4468  0.8841 -0.3732
  118MOL0     C15448   9.192   3.808   9.113 -0.8597  0.6354  0.0973
  118MOL0     C15449   9.234   3.668   9.085 -0.4054 -0.6616  0.6632
  118MOL0     C15450   9.365   3.634   9.111  0.0861 -0.2210 -0.0559
  118MOL0     C15451   9.462   3.722   9.155 -0.0781 -0.5522  0.1922
  118MOL0     O15452   9.591   3.684   9.169  0.5175 -0.0283 -0.0076
  118MOL0     C15453   9.674   3.693   9.052 -0.2198  0.0201  0.4443
  118MOL0     C15454   9.663   3.582   8.956  0.2079  0.7354 -0.7820
  118MOL0     C15455   9.731   3.455   9.014 -0.1312 -0.1744  0.1169
  118MOL0     C15456   9.727   3.344   8.905  0.1997  0.5568  0.1031
  118MOL0     C15457   9.811   3.225   8.950  0.3165  0.4947 -0.2211
  118MOL0     C15458   9.820   3.103   8.847  0.7548  0.0796  0.5697
  118MOL0     C15459   9.906   2.976   8.905  0.3276  0.0712 -1.0785
  118MOL0     C15460   9.887   2.856   8.803 -0.0683 -1.4135 -0.6435
  118MOL0     N15461   9.779   2.779   8.871  0.1585 -0.5141  0.3381
  118MOL0     C15462   9.783   2.705   8.995  0.5419 -0.7425 -0.6217
  118MOL0     C15463   9.654   2.689   9.044  0.2709  0.1736  0.5455
  118MOL0     C15464   9.599   2.616   9.158  0.5839 -0.0263  0.5485
  118MOL0     C15465   9.610   2.467   9.142  0.2539 -0.7843  0.6065
  118MOL0     C15466   9.570   2.379   9.268  0.2302  0.3653  0.6084
  118MOL0     C15467   9.423   2.356   9.266 -0.0656  0.2959  0.2414
  118MOL0     O15468   9.381   2.267   9.369 -0.2214 -1.3716  0.2633
  118MOL0     C15469   9.322   2.329   9.479  0.7411 -0.2220  0.7645
  118MOL0     C15470   9.379   2.309   9.603 -0.0216 -0.4431  0.0874
  118MOL0     C15471   9.326   2.355   9.719  0.5911  1.1091 -0.4449
  118MOL0     C15472   9.215   2.432   9.717 -0.0453  0.8230 -0.2772
  118MOL0     C15473   9.145   2.477   9.845  1.1037  0.1810  0.9359
  118MOL0     O15474   9.173   2.421   9.971  1.2423  0.4931 -0.0215
  118MOL0     C15475   9.129   2.487  10.084  0.3293 -0.4415  0.1655
  118MOL0     C15476   9.026   2.438  10.163 -0.8230 -0.6501 -0.2977
  118MOL0     C15477   8.976   2.507  10.276 -0.7533 -0.1778 -0.2961
  118MOL0     C15478   9.043   2.624  10.321 -0.2783 -0.2226 -1.0235
  118MOL0     O15479   8.990   2.702  10.420 -0.3838  0.4250  0.0183
  118MOL0     C15480   8.862   2.664  10.461 -0.2451 -0.7440 -0.2116
  118MOL0     C15481   8.801   2.773  10.552  0.3435 -0.0944  0.2776
  118MOL0     C15482   8.653   2.738  10.584 -0.4342  0.3986 -0.6940
  118MOL0     C15483   8.554   2.719  10.469  0.4526 -0.2547 -0.3027
  118MOL0     C15484   8.415   2.669  10.504 -0.7889 -0.2983  0.7320
  118MOL0     C15485   8.300   2.734  10.431  0.4239 -0.3540  0.0388
  118MOL0     C15486   8.289   2.693  10.280  0.4006 -0.6926  0.0476
  118MOL0     C15487   8.227   2.556  10.259  0.0569  0.8104  0.2014
  118MOL0    Cl15488   8.222   2.511  10.086 -0.1596 -0.3845  0.1345
  118MOL0     C15489   9.145   2.677  10.240  0.0638 -0.7227 -1.2998
  118MOL0     C15490   9.188   2.609  10.125 -0.0891  0.2421  1.1475
  118MOL0     O15491   9.061   2.566   9.818 -0.6412 -0.1588  0.1883
  118MOL0     C15492   9.152   2.457   9.588 -0.0152 -0.6200  0.0316
  118MOL0     C15493   9.197   2.394   9.473  0.0726  0.1311 -0.3493
  118MOL0     N15494   9.580   2.759   8.955  0.5754 -0.7021  0.7479
  118MOL0     N15495   9.646   2.811   8.859  0.4641  0.3674 -0.2951
  118MOL0     C15496   9.414   3.854   9.197 -0.2080 -0.4614  0.6980
  118MOL0     C15497   9.288   3.900   9.180  1.5692  1.6347  0.3698
  118MOL0     C15498   8.845   3.907   9.088  0.6608 -0.8676  0.7580
  118MOL0     C15499   8.738   3.973   9.152  0.1582 -0.3538 -0.0067
  118MOL0     C15500   8.607   3.954   9.106 -1.3392 -0.8923 -0.5515
  118MOL0     C15501   8.571   3.864   9.007 -0.3696 -0.5182 -0.5300
  118MOL0     O15502   8.435   3.844   8.991 -0.2489  0.5859  0.3346
  118MOL0     C15503   8.407   3.702   8.969  0.1021 -0.7796  0.2321
  118MOL0     C15504   8.261   3.665   9.012 -0.0620  0.5100 -0.8379
  118MOL0     C15505   8.255   3.512   8.993  0.4896  0.1304  0.3240
  118MOL0     C15506   8.115   3.436   9.022  0.4993  0.0960  0.5104
  118MOL0     C15507   8.125   3.291   9.029  0.6178 -0.1493 -0.7961
  118MOL0     C15508   8.143   3.171   9.034 -0.8268 -0.2894 -0.6512
  118MOL0     C15509   8.678   3.805   8.933  0.2658  0.1240 -0.2141
  118MOL0     C15510   8.812   3.837   8.971 -0.0639  0.6864 -1.4732
  118MOL0     H15511   9.166   3.600   9.035  0.9213  0.7950 -3.5604
  118MOL0     H15512   9.391   3.536   9.073  1.6438 -0.5348  1.6743
  118MOL0     H15513   9.772   3.720   9.091 -0.0055 -1.3594  0.9209
  118MOL0     H15514   9.648   3.789   9.007 -1.1778  0.1337  1.2072
  118MOL0     H15515   9.711   3.614   8.863  1.9765 -0.7470 -0.4356
  118MOL0     H15516   9.560   3.571   8.924  0.8420 -1.9183 -2.1548
  118MOL0     H15517   9.687   3.416   9.106  0.4206 -0.8590  0.0983
  118MOL0     H15518   9.832   3.463   9.055  0.3114 -2.1206 -0.4987
  118MOL0     H15519   9.625   3.304   8.893  1.7402 -3.2263 -2.1807
  118MOL0     H15520   9.751   3.376   8.804 -1.2599 -1.2523 -0.8785
  118MOL0     H15521   9.778   3.182   9.046 -4.0581 -3.6622 -3.0670
  118MOL0     H15522   9.917   3.248   8.958  0.7001  0.2207 -3.3271
  118MOL0     H15523   9.874   3.126   8.754 -0.1161  1.0386  0.2911
  118MOL0     H15524   9.717   3.079   8.818 -0.3013  3.6442  0.8348
  118MOL0     H15525  10.013   3.001   8.911 -0.1186  2.0509 -0.7251
  118MOL0     H15526   9.875   2.948   9.006 -2.4073 -1.6879 -2.3223
  118MOL0     H15527   9.975   2.793   8.792  1.1229  0.0599  0.1299
  118MOL0     H15528   9.853   2.901   8.710 -1.3493  0.0386  0.4758
  118MOL0     H15529   9.876   2.668   9.039  0.9572 -1.2450 -1.8822
  118MOL0     H15530   9.493   2.646   9.164  0.2696 -1.4118  4.3827
  118MOL0     H15531   9.643   2.660   9.248 -2.9868  1.8377  1.6228
  118MOL0     H15532   9.714   2.445   9.114  1.2821  2.4331  1.4528
  118MOL0     H15533   9.550   2.441   9.054 -0.0211  1.1125  0.1908
  118MOL0     H15534   9.628   2.286   9.272  0.6484  0.4206 -2.0881
  118MOL0     H15535   9.595   2.437   9.358  0.0685 -2.7581  2.8076
  118MOL0     H15536   9.396   2.315   9.168  1.2518  0.7633 -0.3491
  118MOL0     H15537   9.365   2.447   9.281  0.9917  0.8984  0.7960
  118MOL0     H15538   9.465   2.244   9.616 -0.5773 -0.9166  1.7268
  118MOL0     H15539   9.357   2.315   9.815  1.3577 -1.7983 -1.7832
  118MOL0     H15540   8.969   2.351  10.132 -1.5238  0.0688 -1.0869
  118MOL0     H15541   8.901   2.456  10.335  0.2753  1.5020  2.6325
  118MOL0     H15542   8.866   2.588  10.540 -0.6632 -0.8336 -0.2764
  118MOL0     H15543   8.793   2.655  10.377 -0.0461  0.7381 -0.5644
  118MOL0     H15544   8.802   2.866  10.494  1.2227 -2.1840 -3.4118
  118MOL0     H15545   8.862   2.782  10.643 -0.5214 -0.6112  0.9210
  118MOL0     H15546   8.612   2.803  10.661 -2.7640 -0.5854 -1.0373
  118MOL0     H15547   8.654   2.640  10.632 -0.9662  1.4924  1.6838
  118MOL0     H15548   8.531   2.817  10.426 -0.1580 -1.2366 -2.3006
  118MOL0     H15549   8.588   2.657  10.386  0.1384  0.3145 -0.8629
  118MOL0     H15550   8.402   2.682  10.612  0.0482 -3.5324  1.3328
  118MOL0     H15551   8.408   2.566  10.469  0.3592  0.0729 -0.7008
  118MOL0     H15552   8.300   2.843  10.438 -1.8457  0.2349 -5.0003
  118MOL0     H15553   8.209   2.693  10.475  1.2108 -2.2548 -0.0062
  118MOL0     H15554   8.241   2.770  10.219  0.5055  0.4965  1.4439
  118MOL0     H15555   8.390   2.678  10.240 -0.2216 -0.0121 -1.8827
  118MOL0     H15556   8.128   2.555  10.303 -0.3454  2.1912 -0.5791
  118MOL0     H15557   8.295   2.487  10.310  1.4107  4.5070  3.9256
  118MOL0     H15558   9.183   2.777  10.262  0.8833 -1.1675 -0.6123
  118MOL0     H15559   9.252   2.657  10.052 -3.4672  1.4163 -1.2696
  118MOL0     H15560   9.069   2.526   9.582  1.0166  0.5828 -1.2247
  118MOL0     H15561   9.140   2.422   9.385 -1.7955  1.6616  1.2631
  118MOL0     H15562   9.485   3.913   9.254 -2.4978  0.0912  3.2142
  118MOL0     H15563   9.251   4.000   9.201 -0.3485  1.0710 -0.0939
  118MOL0     H15564   8.764   4.045   9.228 -4.2111  2.0421 -0.4659
  118MOL0     H15565   8.525   4.003   9.158 -1.7000 -1.6151 -0.4365
  118MOL0     H15566   8.479   3.634   9.015  0.7301  0.2157  0.7473
  118MOL0     H15567   8.430   3.680   8.864  1.8796 -1.9943  0.8511
  118MOL0     H15568   8.252   3.694   9.117  3.8266  0.5158 -0.3443
  118MOL0     H15569   8.175   3.709   8.961 -1.8044 -0.6290  0.9657
  118MOL0     H15570   8.322   3.476   9.071  0.7935  0.7544  0.3521
  118MOL0     H15571   8.277   3.479   8.891 -0.0250  0.9004 -0.0501
  118MOL0     H15572   8.063   3.487   9.103 -2.5357  1.8494 -2.3187
  118MOL0     H15573   8.045   3.451   8.939 -0.3863 -0.4038  1.1463
  118MOL0     H15574   8.160   3.065   9.035 -1.9826 -0.4979  1.1584
  118MOL0     H15575   8.658   3.730   8.858 -1.6007 -1.2380  1.5263
  118MOL0     H15576   8.890   3.787   8.913 -1.4037 -2.7082 -0.6208
  119MOL0     O15577   7.276   5.863   2.077  0.3248  0.1860  0.0780
  119MOL0     C15578   7.248   5.760   2.009  0.0466 -0.0179 -0.5186
  119MOL0     O15579   7.321   5.647   2.000 -0.3282 -0.2553  0.2896
  119MOL0     C15580   7.441   5.643   2.050 -0.5986  0.0534  0.1243
  119MOL0     C15581   7.464   5.673   2.182  0.3568 -0.0067  0.0183
  119MOL0     C15582   7.587   5.662   2.242  0.0785  0.6114  0.6332
  119MOL0     C15583   7.692   5.601   2.171  0.2017 -1.2695  0.7467
  119MOL0     O15584   7.811   5.592   2.229  1.0182  0.2273  0.7026
  119MOL0     C15585   7.863   5.466   2.235  1.3497  0.4049 -0.4862
  119MOL0     C15586   8.013   5.472   2.263  0.4688  0.8400  0.3410
  119MOL0     C15587   8.028   5.541   2.405  0.7795  0.7773  0.3369
  119MOL0     C15588   8.174   5.535   2.464  0.2205  0.3632  0.6055
  119MOL0     C15589   8.264   5.629   2.382 -0.2972 -0.0769 -0.3556
  119MOL0     C15590   8.409   5.591   2.396  0.5228 -0.5507 -0.6220
  119MOL0     C15591   8.496   5.648   2.285 -0.3461 -0.6519 -1.0350
  119MOL0     C15592   8.518   5.800   2.286  0.0253  0.0818  1.5003
  119MOL0     N15593   8.583   5.850   2.396 -0.6783 -0.4473  0.6614
  119MOL0     C15594   8.527   5.882   2.521 -0.3004 -0.0848 -0.5904
  119MOL0     C15595   8.636   5.889   2.606 -0.4164 -0.4360 -0.3685
  119MOL0     C15596   8.621   5.887   2.754 -0.5043 -0.1436  0.7241
  119MOL0     C15597   8.721   5.988   2.824 -0.3875  0.3389 -0.6838
  119MOL0     C15598   8.692   6.140   2.796  0.7364 -0.2924 -0.8447
  119MOL0     C15599   8.546   6.180   2.822 -1.4583 -1.0476  0.4113
  119MOL0     O15600   8.518   6.155   2.956  0.4092  0.2441 -0.5484
  119MOL0     C15601   8.438   6.249   3.014 -0.2475  0.0748 -1.2916
  119MOL0     C15602   8.309   6.271   2.981 -0.2095  0.1614  0.3755
  119MOL0     C15603   8.232   6.366   3.046  0.1438 -0.4898 -0.9698
  119MOL0     C15604   8.288   6.445   3.154 -0.1762  0.6710  1.1073
  119MOL0     C15605   8.201   6.534   3.237  0.8367  1.0243  0.4175
  119MOL0     O15606   8.080   6.573   3.180 -0.1209  0.1537 -0.0307
  119MOL0     C15607   8.033   6.700   3.202  0.3449  0.8858  0.9726
  119MOL0     C15608   7.895   6.720   3.194 -1.1503  0.1308  0.6022
  119MOL0     C15609   7.843   6.844   3.226  0.0360 -0.2556 -0.5766
  119MOL0     C15610   7.921   6.939   3.284  0.0267 -0.2318 -0.4192
  119MOL0     O15611   7.858   7.055   3.325 -0.0724 -0.2379  0.4734
  119MOL0     C15612   7.923   7.167   3.384 -0.1713 -0.0724 -0.3150
  119MOL0     C15613   7.929   7.156   3.536  0.0636  0.3191  0.0706
  119MOL0     C15614   7.926   7.281   3.616  1.2366  0.7221  0.1186
  119MOL0     C15615   7.927   7.264   3.768  0.1306  0.8888 -0.3449
  119MOL0     C15616   8.040   7.184   3.827 -0.2112 -0.1110  0.5745
  119MOL0     C15617   8.081   7.220   3.966  0.1735 -1.5079  0.7363
  119MOL0     C15618   7.989   7.155   4.072  0.0207  0.2520  0.2689
  119MOL0     C15619   8.004   7.215   4.209 -0.7941 -0.2358  0.0320
  119MOL0    Cl15620   7.898   7.350   4.209 -0.2779 -0.0222 -0.0134
  119MOL0     C15621   8.053   6.918   3.306  0.5335  0.6904 -0.7940
  119MOL0     C15622   8.110   6.808   3.251 -0.4463  0.1908 -0.8027
  119MOL0     O15623   8.255   6.571   3.337  0.0084  0.2193 -0.2932
  119MOL0     C15624   8.417   6.417   3.190  0.0401  0.5396  0.0997
  119MOL0     C15625   8.498   6.327   3.110  0.2525 -0.3753 -0.4983
  119MOL0     N15626   8.752   5.865   2.534  0.8169  0.0092  0.6722
  119MOL0     N15627   8.719   5.846   2.410  0.7872  0.1900 -0.0877
  119MOL0     C15628   7.669   5.557   2.039 -0.7463 -0.6878 -0.2698
  119MOL0     C15629   7.545   5.587   1.978 -0.2369 -0.3416 -0.0187
  119MOL0     C15630   7.121   5.769   1.939  1.6663 -0.6492 -0.2585
  119MOL0     C15631   7.043   5.894   1.933  0.9603 -0.2182  0.1227
  119MOL0     C15632   6.909   5.896   1.885  0.2928  0.6852  0.6682
  119MOL0     C15633   6.850   5.781   1.830 -0.2364  0.5255 -0.4732
  119MOL0     O15634   6.715   5.783   1.810 -0.0035 -0.0724 -0.1675
  119MOL0     C15635   6.656   5.655   1.762 -0.6465  0.4331 -0.2291
  119MOL0     C15636   6.610   5.567   1.878  0.9507  0.2152 -0.0278
  119MOL0     C15637   6.572   5.424   1.842  0.5562  0.3746  0.8913
  119MOL0     C15638   6.694   5.339   1.840  0.2967  0.2788 -0.6303
  119MOL0     C15639   6.776   5.347   1.721 -0.0628 -1.0461 -0.0874
  119MOL0     C15640   6.846   5.366   1.617 -0.3105  0.1959 -0.4017
  119MOL0     C15641   6.926   5.662   1.844  0.4966  0.6428  0.1084
  119MOL0     C15642   7.052   5.655   1.889  0.8268  0.4089  0.7273
  119MOL0     H15643   7.381   5.707   2.244 -0.5813 -2.1834  0.0582
  119MOL0     H15644   7.594   5.684   2.348 -1.4754 -0.5212  0.9989
  119MOL0     H15645   7.841   5.409   2.144  1.7144 -1.2220  0.4054
  119MOL0     H15646   7.799   5.423   2.312 -2.0085  0.3744 -3.0737
  119MOL0     H15647   8.071   5.519   2.183 -1.1749 -3.4064 -3.7201
  119MOL0     H15648   8.045   5.368   2.271 -1.5255  0.0596 -1.2698
  119MOL0     H15649   7.962   5.494   2.479  1.9808 -2.0081 -0.2437
  119MOL0     H15650   8.010   5.647   2.384 -1.6740 -0.0807 -2.6730
  119MOL0     H15651   8.175   5.580   2.564  0.2410 -1.1663  1.3343
  119MOL0     H15652   8.200   5.428   2.469 -4.1797 -0.9762 -0.4691
  119MOL0     H15653   8.248   5.734   2.408  0.7942 -0.1081  0.4968
  119MOL0     H15654   8.240   5.614   2.276 -3.0647 -1.1054  0.3416
  119MOL0     H15655   8.430   5.484   2.403 -1.4545 -0.9705 -0.5237
  119MOL0     H15656   8.447   5.629   2.492  0.5872 -2.1058 -0.0048
  119MOL0     H15657   8.590   5.593   2.280 -0.7100 -1.6211  1.5802
  119MOL0     H15658   8.451   5.638   2.186  0.6138  0.9523 -1.6817
  119MOL0     H15659   8.428   5.862   2.285 -0.0545 -0.0193  0.0414
  119MOL0     H15660   8.573   5.823   2.194 -2.1935 -2.5186 -0.6298
  119MOL0     H15661   8.427   5.908   2.554  1.2034  5.3836  0.7453
  119MOL0     H15662   8.650   5.788   2.790 -0.2413 -0.5894 -0.6461
  119MOL0     H15663   8.520   5.905   2.790  0.0418  2.3187  1.2028
  119MOL0     H15664   8.820   5.960   2.787 -1.1169  0.6415 -3.0166
  119MOL0     H15665   8.728   5.964   2.931  1.3429 -1.5336 -1.1420
  119MOL0     H15666   8.762   6.204   2.852  1.3709 -1.2799 -0.4874
  119MOL0     H15667   8.708   6.175   2.694  1.8915  0.2479 -0.5021
  119MOL0     H15668   8.480   6.122   2.757 -1.7720 -2.7316  2.1568
  119MOL0     H15669   8.521   6.282   2.792 -1.4517 -0.9830  0.6186
  119MOL0     H15670   8.260   6.206   2.909  3.5557 -3.0194  0.3573
  119MOL0     H15671   8.126   6.372   3.021  0.4126  2.1823 -1.7759
  119MOL0     H15672   7.829   6.637   3.171  1.0795 -2.2942  2.3787
  119MOL0     H15673   7.739   6.875   3.216  1.4532  5.8714 -0.1078
  119MOL0     H15674   7.853   7.242   3.346 -0.7799 -1.8865 -3.1198
  119MOL0     H15675   8.022   7.186   3.341  0.9221 -2.7113  0.8315
  119MOL0     H15676   8.019   7.102   3.567  0.0555  1.9967  3.4800
  119MOL0     H15677   7.853   7.089   3.579  1.8448 -1.8040  0.0865
  119MOL0     H15678   7.827   7.320   3.591  0.1407 -0.5829  2.1400
  119MOL0     H15679   8.002   7.355   3.593  2.7734 -1.0797 -0.8744
  119MOL0     H15680   7.928   7.365   3.810  1.1153  1.6642 -2.1590
  119MOL0     H15681   7.831   7.228   3.808  0.8393 -0.2586  0.3933
  119MOL0     H15682   8.125   7.204   3.761 -1.5496  0.4874 -1.0452
  119MOL0     H15683   8.010   7.079   3.816 -0.0254 -0.2442  1.3059
  119MOL0     H15684   8.069   7.327   3.983 -0.3238 -1.4109 -0.1511
  119MOL0     H15685   8.187   7.199   3.977  1.3048  2.0096 -1.8417
  119MOL0     H15686   7.883   7.172   4.049 -0.1066  1.5294  1.6619
  119MOL0     H15687   8.016   7.049   4.082 -0.0242  0.0337 -1.6286
  119MOL0     H15688   8.108   7.246   4.223 -0.4755 -0.4651 -1.5997
  119MOL0     H15689   7.980   7.146   4.290 -0.6189  0.2555  0.5082
  119MOL0     H15690   8.111   6.994   3.357  2.4181  0.1607 -2.0518
  119MOL0     H15691   8.218   6.802   3.264 -0.5488 -1.2020 -0.3598
  119MOL0     H15692   8.453   6.477   3.273  2.4821  1.1015 -1.2546
  119MOL0     H15693   8.603   6.315   3.136  0.2877 -0.6829 -0.7747
  119MOL0     H15694   7.727   5.500   1.967 -1.5605 -1.6302 -0.2100
  119MOL0     H15695   7.541   5.581   1.870 -2.2412 -1.6626  0.0775
  119MOL0     H15696   7.076   5.990   1.972 -1.6155  0.7479  0.0935
  119MOL0     H15697   6.841   5.976   1.912 -0.1206  0.3424  0.6577
  119MOL0     H15698   6.725   5.599   1.699 -1.5281 -0.1145 -0.7394
  119MOL0     H15699   6.575   5.686   1.695  0.2096  2.1576 -0.5026
  119MOL0     H15700   6.676   5.571   1.965  2.7994  3.5389 -1.3883
  119MOL0     H15701   6.518   5.613   1.916  0.2554  1.5173 -2.9629
  119MOL0     H15702   6.508   5.409   1.754  2.6942 -1.7920 -0.4271
  119MOL0     H15703   6.510   5.389   1.926  0.5858 -3.2881 -0.4063
  119MOL0     H15704   6.751   5.367   1.929 -0.0463  3.5184 -1.2930
  119MOL0     H15705   6.676   5.232   1.849  2.9192 -0.5720 -3.6544
  119MOL0     H15706   6.921   5.366   1.541  2.3025 -1.9025  1.9330
  119MOL0     H15707   6.879   5.566   1.824  0.8473 -0.2627  3.0703
  119MOL0     H15708   7.100   5.558   1.884  1.5799  0.8355 -1.6787
  120MOL0     O15709   7.345   5.116   7.270  0.6417 -0.9551  0.1064
  120MOL0     C15710   7.286   5.170   7.173 -0.5706 -0.0187 -0.7031
  120MOL0     O15711   7.347   5.202   7.054  0.1001 -0.6301  0.0622
  120MOL0     C15712   7.476   5.184   7.044  0.0583 -0.5062  0.0901
  120MOL0     C15713   7.567   5.265   7.109 -0.8077 -0.2430 -1.2344
  120MOL0     C15714   7.705   5.241   7.107  0.5267  0.5036 -0.2809
  120MOL0     C15715   7.756   5.132   7.033  0.2429  0.0382 -0.0238
  120MOL0     O15716   7.888   5.093   7.026  0.4244  0.1820 -0.1568
  120MOL0     C15717   7.987   5.165   7.104 -0.7074  0.2432  0.9585
  120MOL0     C15718   8.116   5.193   7.020  0.7848 -0.3346  0.1348
  120MOL0     C15719   8.199   5.061   7.000  0.0421 -0.6820 -0.0645
  120MOL0     C15720   8.322   5.092   6.917 -0.0892 -0.1280 -0.5369
  120MOL0     C15721   8.382   4.966   6.862 -0.2357  0.5608  0.1371
  120MOL0     C15722   8.497   4.908   6.954 -0.1782 -0.1514 -0.6079
  120MOL0     C15723   8.543   4.776   6.900 -0.1241  0.8671  0.0325
  120MOL0     C15724   8.634   4.691   6.991 -0.5920  0.2485  0.8152
  120MOL0     N15725   8.649   4.559   6.926 -0.0622 -0.0961 -0.7820
  120MOL0     C15726   8.564   4.454   6.931 -0.0350  1.1124  0.1910
  120MOL0     C15727   8.635   4.355   6.854  0.3047  1.1883 -0.6957
  120MOL0     C15728   8.598   4.216   6.825  0.2336 -0.6857  0.4974
  120MOL0     C15729   8.674   4.121   6.932 -0.4419  0.8641  0.0156
  120MOL0     C15730   8.655   3.967   6.910  0.5240 -0.4248  0.3435
  120MOL0     C15731   8.512   3.913   6.925 -0.5559  0.5816  0.5027
  120MOL0     O15732   8.440   3.950   6.806 -0.0762 -0.0513  0.1865
  120MOL0     C15733   8.307   3.972   6.832 -0.7430 -0.1593  1.4138
  120MOL0     C15734   8.245   4.018   6.720  0.9768 -0.7100  0.6758
  120MOL0     C15735   8.109   4.057   6.723 -0.5496 -0.0998 -1.3461
  120MOL0     C15736   8.026   4.032   6.832  0.2803  0.5343 -0.4968
  120MOL0     C15737   7.880   4.058   6.831 -0.7439  0.0592  1.5689
  120MOL0     O15738   7.806   4.037   6.942  0.4327  0.1914  0.6540
  120MOL0     C15739   7.671   4.080   6.933  0.3554 -0.0644 -0.1565
  120MOL0     C15740   7.571   3.996   6.970 -0.1339  0.3530  0.2268
  120MOL0     C15741   7.442   4.033   6.975  0.7744  0.1226  0.0269
  120MOL0     C15742   7.399   4.169   6.941 -0.4090 -0.8236  0.6093
  120MOL0     O15743   7.276   4.226   6.943  0.2114  0.3428 -0.0043
  120MOL0     C15744   7.166   4.131   6.939  0.9152 -0.4939  0.5791
  120MOL0     C15745   7.046   4.220   6.960  0.4360  0.1157 -0.2917
  120MOL0     C15746   7.010   4.314   6.844  0.2404  0.8883 -0.0048
  120MOL0     C15747   6.956   4.448   6.903  0.3004  0.5572 -0.7592
  120MOL0     C15748   6.938   4.555   6.798 -0.2192 -0.1839 -0.1773
  120MOL0     C15749   6.878   4.682   6.855 -0.0866  0.4683 -0.5890
  120MOL0     C15750   6.852   4.774   6.742  0.8794  0.9401  1.1363
  120MOL0     C15751   6.771   4.898   6.775  0.3407  0.6655  0.0282
  120MOL0    Cl15752   6.863   4.973   6.909 -0.5366  0.4340  0.2035
  120MOL0     C15753   7.506   4.264   6.918  0.5329  0.2213 -0.2194
  120MOL0     C15754   7.635   4.213   6.912  0.3580 -0.7214  0.1741
  120MOL0     O15755   7.833   4.066   6.716 -0.0071 -0.5721 -0.8218
  120MOL0     C15756   8.092   3.968   6.940  0.6070  0.2489 -0.7912
  120MOL0     C15757   8.227   3.927   6.934 -0.4799  0.5390  0.0939
  120MOL0     N15758   8.755   4.409   6.799  0.8500  0.0823  0.5520
  120MOL0     N15759   8.761   4.533   6.844  0.0469  0.1646 -0.9454
  120MOL0     C15760   7.667   5.048   6.963  0.1136 -0.4099  0.1976
  120MOL0     C15761   7.531   5.083   6.963  0.1344  0.0541  0.0465
  120MOL0     C15762   7.139   5.195   7.171  0.6156  0.1402  0.9704
  120MOL0     C15763   7.054   5.137   7.270  0.3566 -1.0363 -0.0442
  120MOL0     C15764   6.920   5.161   7.281 -0.2024 -0.5412 -0.3217
  120MOL0     C15765   6.865   5.257   7.187 -0.0929  0.8744 -0.2193
  120MOL0     O15766   6.727   5.285   7.187  0.2667  0.0515 -0.5322
  120MOL0     C15767   6.634   5.175   7.196  0.2635 -0.5737 -0.0908
  120MOL0     C15768   6.518   5.191   7.096  0.0713  0.9768  0.2749
  120MOL0     C15769   6.469   5.330   7.100  0.3414 -0.4401  0.5905
  120MOL0     C15770   6.344   5.344   7.008 -0.4830  0.2182 -0.7554
  120MOL0     C15771   6.293   5.486   7.001  0.2572  0.6668 -0.4095
  120MOL0     C15772   6.249   5.602   6.993 -1.2010  0.1620  0.8817
  120MOL0     C15773   6.944   5.309   7.091 -0.2248 -0.4039  0.5895
  120MOL0     C15774   7.078   5.294   7.083  0.5681  0.7984 -0.0510
  120MOL0     H15775   7.533   5.336   7.184  0.4721 -1.5456  0.6578
  120MOL0     H15776   7.757   5.310   7.173 -0.4710  0.7726  0.2545
  120MOL0     H15777   8.019   5.097   7.184 -1.3562  0.1056  1.1086
  120MOL0     H15778   7.963   5.266   7.139  2.4884  1.1887  0.6606
  120MOL0     H15779   8.183   5.244   7.090 -0.2221  0.4615  0.5364
  120MOL0     H15780   8.090   5.252   6.932 -5.5819 -2.0238  0.4240
  120MOL0     H15781   8.131   4.989   6.953 -0.7544 -0.1063  0.1637
  120MOL0     H15782   8.236   5.010   7.089  2.2414 -1.6082 -1.4319
  120MOL0     H15783   8.290   5.151   6.831 -1.1786 -1.3830 -1.0098
  120MOL0     H15784   8.392   5.153   6.976 -1.0884 -0.0402  0.6205
  120MOL0     H15785   8.408   4.999   6.761  0.6020  0.2786  0.2445
  120MOL0     H15786   8.308   4.888   6.843  3.4125 -3.2871  0.2657
  120MOL0     H15787   8.469   4.901   7.060  3.2252 -0.6361  0.3871
  120MOL0     H15788   8.579   4.980   6.961 -1.2192  1.0038  0.0889
  120MOL0     H15789   8.462   4.712   6.863 -0.4859  0.5606  1.2891
  120MOL0     H15790   8.609   4.790   6.814  0.2290  1.8164  0.4450
  120MOL0     H15791   8.579   4.683   7.085 -1.6275  2.9982  0.5577
  120MOL0     H15792   8.728   4.746   7.000 -1.8999  3.6456 -2.9407
  120MOL0     H15793   8.461   4.450   6.965 -0.4741 -0.4599 -1.1762
  120MOL0     H15794   8.637   4.195   6.725  2.4510 -0.0890  1.1687
  120MOL0     H15795   8.489   4.209   6.825 -0.0562  2.0184 -2.2656
  120MOL0     H15796   8.640   4.148   7.032  2.1853  2.0034  0.6969
  120MOL0     H15797   8.779   4.144   6.949 -0.2431  1.1012 -1.3964
  120MOL0     H15798   8.698   3.929   6.817 -1.1723 -1.4318 -0.0775
  120MOL0     H15799   8.720   3.925   6.987 -1.1728 -0.4643  1.7970
  120MOL0     H15800   8.466   3.951   7.016  1.4479  2.7739  0.6906
  120MOL0     H15801   8.514   3.803   6.919  1.4492  0.3229  3.6330
  120MOL0     H15802   8.290   4.023   6.621 -0.6057 -0.2098 -0.0566
  120MOL0     H15803   8.070   4.083   6.625 -2.0705 -1.1833 -1.0437
  120MOL0     H15804   7.592   3.897   7.008 -0.7542  0.6599  1.4156
  120MOL0     H15805   7.370   3.958   7.005 -2.3633  2.0828 -1.9549
  120MOL0     H15806   7.175   4.055   7.017  1.8017 -0.4268  0.5470
  120MOL0     H15807   7.156   4.098   6.835  2.2858  1.5713 -0.2942
  120MOL0     H15808   7.053   4.271   7.056  2.8297 -1.4402  0.4593
  120MOL0     H15809   6.958   4.155   6.964 -0.8393  1.8214  2.7579
  120MOL0     H15810   6.946   4.250   6.782  1.5904 -3.8385  2.8967
  120MOL0     H15811   7.105   4.339   6.796  0.4444  3.1262  1.3997
  120MOL0     H15812   6.861   4.430   6.953  0.4666 -0.3873 -0.7663
  120MOL0     H15813   7.029   4.487   6.974  0.7518 -0.8488 -0.4203
  120MOL0     H15814   6.868   4.506   6.729  0.6704 -0.8784 -0.6069
  120MOL0     H15815   7.028   4.577   6.740  0.9943  1.1605  2.0525
  120MOL0     H15816   6.943   4.732   6.927 -4.1663  2.7171  1.9319
  120MOL0     H15817   6.780   4.656   6.897 -0.0850 -1.6520 -1.7467
  120MOL0     H15818   6.948   4.814   6.709  1.7624 -3.1410 -2.1053
  120MOL0     H15819   6.816   4.728   6.650  1.5496  1.9892  0.3224
  120MOL0     H15820   6.668   4.871   6.801  0.7214  0.1216  1.0455
  120MOL0     H15821   6.766   4.970   6.694  0.4314  1.1563  0.4563
  120MOL0     H15822   7.487   4.370   6.906 -0.0769  0.2407  0.8354
  120MOL0     H15823   7.722   4.277   6.901 -1.1026  1.4696  0.5338
  120MOL0     H15824   8.045   3.955   7.037 -1.1147  1.0121 -1.4892
  120MOL0     H15825   8.253   3.880   7.029 -1.5212 -0.3168 -0.0171
  120MOL0     H15826   7.709   4.966   6.907  0.0654  0.0251 -0.4821
  120MOL0     H15827   7.474   5.026   6.890  3.2671  2.5335 -4.8419
  120MOL0     H15828   7.108   5.072   7.337 -1.2650 -2.5786 -0.1826
  120MOL0     H15829   6.869   5.099   7.354 -3.0563  1.1613 -0.7309
  120MOL0     H15830   6.591   5.181   7.297  1.5636 -1.1234  0.5125
  120MOL0     H15831   6.679   5.077   7.180 -0.1171 -1.0343  1.4238
  120MOL0     H15832   6.540   5.152   6.996 -0.4056 -2.3778  1.3521
  120MOL0     H15833   6.444   5.117   7.129  3.1022 -2.4740 -0.0093
  120MOL0     H15834   6.537   5.402   7.055  0.1613 -0.7145 -0.1327
  120MOL0     H15835   6.454   5.355   7.206 -1.7332 -1.0765  0.5023
  120MOL0     H15836   6.381   5.320   6.908 -1.1938  3.6309 -1.9711
  120MOL0     H15837   6.254   5.286   7.032 -2.0141  2.7366 -0.0547
  120MOL0     H15838   6.212   5.703   6.991  1.6390  1.2664 -0.5169
  120MOL0     H15839   6.896   5.374   7.019 -1.0063  0.8530  2.1766
  120MOL0     H15840   7.131   5.349   7.006  0.9357  1.3341  0.5796
  121MOL0     O15841   3.897  10.197  11.279  1.0194  0.1682 -0.1437
  121MOL0     C15842   3.995  10.265  11.260 -0.3647  0.6865 -0.7101
  121MOL0     O15843   3.997  10.394  11.238  0.2712 -0.4995 -1.3334
  121MOL0     C15844   3.879  10.466  11.229  0.2439  0.2763  0.5748
  121MOL0     C15845   3.774  10.426  11.145 -0.2387 -0.3953  0.4153
  121MOL0     C15846   3.658  10.502  11.132 -0.5417 -0.9712  0.6652
  121MOL0     C15847   3.635  10.615  11.201  0.3727  0.0575 -1.3789
  121MOL0     O15848   3.522  10.693  11.216  0.0085 -0.6563 -0.7335
  121MOL0     C15849   3.417  10.677  11.123  0.2882  0.5639 -0.9744
  121MOL0     C15850   3.453  10.721  10.980 -0.5429  0.2339  0.3145
  121MOL0     C15851   3.540  10.843  10.969  0.0621 -0.8707 -0.0266
  121MOL0     C15852   3.566  10.894  10.827  0.9693 -1.0900  0.4372
  121MOL0     C15853   3.647  11.027  10.811  0.0049 -0.7969 -0.5738
  121MOL0     C15854   3.673  11.051  10.656 -0.0237  1.0188  0.2671
  121MOL0     C15855   3.801  11.128  10.617 -0.9916  0.4178  0.1386
  121MOL0     C15856   3.789  11.159  10.467 -0.0951 -0.5047  1.1502
  121MOL0     N15857   3.681  11.236  10.404 -0.6785  0.6980  0.4506
  121MOL0     C15858   3.672  11.256  10.267 -1.3244  0.1800  0.6449
  121MOL0     C15859   3.557  11.321  10.249  0.5501 -0.5206  0.5973
  121MOL0     C15860   3.506  11.385  10.119  0.3082 -0.1015  0.4509
  121MOL0     C15861   3.476  11.531  10.141  0.1773 -0.5599  0.4432
  121MOL0     C15862   3.613  11.601  10.161  0.6659 -0.2568  0.8439
  121MOL0     C15863   3.580  11.751  10.181  0.3236 -0.2087  0.9393
  121MOL0     O15864   3.580  11.809  10.042  0.5948  0.3718 -0.6108
  121MOL0     C15865   3.686  11.872   9.996  0.0724  0.8081  0.5533
  121MOL0     C15866   3.816  11.862  10.038 -0.5400 -0.4668 -1.1389
  121MOL0     C15867   3.915  11.931   9.966  0.3322  0.2204  0.1750
  121MOL0     C15868   3.894  12.004   9.848 -0.4407  0.6095  1.4978
  121MOL0     C15869   3.997  12.052   9.761  0.0371 -1.1414  0.3321
  121MOL0     O15870   4.121  12.073   9.808 -0.4648  0.6245 -0.0369
  121MOL0     C15871   4.220  12.124   9.728  0.4962  0.5729 -0.6219
  121MOL0     C15872   4.278  12.240   9.759  0.3716  0.9372  0.7443
  121MOL0     C15873   4.373  12.296   9.675 -0.2997  0.2849 -0.6348
  121MOL0     C15874   4.411  12.231   9.555  0.7617  0.2796 -0.3539
  121MOL0     O15875   4.495  12.287   9.465 -0.0303 -1.0288 -0.1892
  121MOL0     C15876   4.604  12.353   9.535 -0.4046 -0.2762 -0.3836
  121MOL0     C15877   4.717  12.397   9.442 -0.6285 -0.1446 -0.2044
  121MOL0     C15878   4.673  12.521   9.369  0.3090  0.0239 -0.1991
  121MOL0     C15879   4.792  12.581   9.293 -0.2560 -0.1449 -0.5158
  121MOL0     C15880   4.774  12.675   9.169  0.1272 -0.9687  0.0240
  121MOL0     C15881   4.717  12.818   9.195 -0.2261 -0.1693 -0.0947
  121MOL0     C15882   4.565  12.813   9.164  0.3546 -0.2907  0.5727
  121MOL0     C15883   4.489  12.943   9.155 -0.1099  0.2584  0.0335
  121MOL0    Cl15884   4.545  13.046   9.038 -0.5761 -0.2225  0.1214
  121MOL0     C15885   4.346  12.113   9.516  0.0833 -0.7133  0.9244
  121MOL0     C15886   4.264  12.058   9.609  0.3212  0.1929  0.0679
  121MOL0     O15887   3.970  12.051   9.643  0.0680  0.1677  0.3249
  121MOL0     C15888   3.754  12.015   9.814 -0.2079  0.5564 -0.3221
  121MOL0     C15889   3.649  11.944   9.884  0.8805 -0.2266  0.4997
  121MOL0     N15890   3.494  11.346  10.368  0.1374  0.5137 -0.1199
  121MOL0     N15891   3.581  11.306  10.461  0.6683  0.7015  0.5309
  121MOL0     C15892   3.736  10.659  11.285  0.0704  0.4982  0.8391
  121MOL0     C15893   3.864  10.593  11.290  0.4469 -0.4727 -0.2434
  121MOL0     C15894   4.134  10.198  11.264  0.1610 -0.6385 -0.3421
  121MOL0     C15895   4.151  10.065  11.326  0.3211 -0.7112  0.7253
  121MOL0     C15896   4.281  10.014  11.322 -0.4760  0.1104 -0.3702
  121MOL0     C15897   4.384  10.079  11.254 -0.4984 -0.1939 -0.0415
  121MOL0     O15898   4.505  10.016  11.253  0.6296 -0.1957  0.3494
  121MOL0     C15899   4.625  10.082  11.279 -0.1766 -0.0384  0.7225
  121MOL0     C15900   4.706   9.992  11.379  0.7305  0.0299 -0.0101
  121MOL0     C15901   4.752   9.858  11.324  0.9535 -0.2982  0.2241
  121MOL0     C15902   4.877   9.872  11.246 -0.6632  0.6820  0.4164
  121MOL0     C15903   4.862   9.929  11.108  0.2378 -0.1980 -0.2057
  121MOL0     C15904   4.869   9.970  10.998 -0.2034 -1.1550  0.2414
  121MOL0     C15905   4.364  10.205  11.203  0.9213  0.0292  0.3203
  121MOL0     C15906   4.241  10.270  11.214 -0.6418  0.0206  0.8831
  121MOL0     H15907   3.798  10.333  11.093 -2.8289 -0.2632 -1.1973
  121MOL0     H15908   3.581  10.476  11.061 -0.1288 -1.8248  0.5234
  121MOL0     H15909   3.334  10.739  11.157 -0.7147 -2.6000  3.1703
  121MOL0     H15910   3.374  10.576  11.116 -0.3586  0.8520 -1.2065
  121MOL0     H15911   3.352  10.736  10.941 -1.5617  1.0123  3.0127
  121MOL0     H15912   3.499  10.638  10.925 -0.3731  0.6788 -0.2265
  121MOL0     H15913   3.637  10.819  11.012 -1.1009 -1.7969  2.2381
  121MOL0     H15914   3.500  10.926  11.029  0.2852  1.4387 -2.8258
  121MOL0     H15915   3.617  10.820  10.766 -0.3900  1.3798 -4.1598
  121MOL0     H15916   3.472  10.912  10.775  0.7332  3.4291  1.9664
  121MOL0     H15917   3.744  10.999  10.851  0.1222  0.3596 -0.0231
  121MOL0     H15918   3.589  11.103  10.863  1.8595 -0.6664  1.4201
  121MOL0     H15919   3.579  11.089  10.616  0.1062  1.7821  0.6766
  121MOL0     H15920   3.697  10.955  10.609 -0.9087  2.0472 -2.5083
  121MOL0     H15921   3.789  11.218  10.678  0.2625  0.1094  0.8752
  121MOL0     H15922   3.896  11.077  10.636  0.4683  2.3076 -1.6921
  121MOL0     H15923   3.801  11.066  10.409  1.5052 -1.8499  3.4549
  121MOL0     H15924   3.871  11.227  10.444 -1.0954  0.5367  0.5494
  121MOL0     H15925   3.752  11.235  10.198 -2.6978 -0.6013 -0.7758
  121MOL0     H15926   3.410  11.337  10.100 -0.1728  0.8547  0.4041
  121MOL0     H15927   3.583  11.369  10.043 -1.9947  2.0900 -2.5996
  121MOL0     H15928   3.408  11.547  10.225  1.5852 -3.7421  2.3297
  121MOL0     H15929   3.434  11.564  10.045 -1.4661 -2.6519  0.3703
  121MOL0     H15930   3.670  11.559  10.244  1.3358  0.5555  0.8138
  121MOL0     H15931   3.678  11.592  10.073  0.3055 -2.8498  0.7681
  121MOL0     H15932   3.642  11.798  10.258 -0.4397  1.3553  0.6448
  121MOL0     H15933   3.488  11.763  10.240  0.5807  3.2828  0.8526
  121MOL0     H15934   3.845  11.809  10.128 -0.5907  4.3939  2.0661
  121MOL0     H15935   4.011  11.921  10.016 -0.7738  0.8202  2.6138
  121MOL0     H15936   4.255  12.288   9.854  0.8900  2.0337  0.3302
  121MOL0     H15937   4.418  12.390   9.704  0.5690 -0.3428  0.0967
  121MOL0     H15938   4.645  12.275   9.598  1.5724  3.1028  2.9306
  121MOL0     H15939   4.574  12.435   9.601 -0.8568 -3.6612  4.0928
  121MOL0     H15940   4.749  12.316   9.377 -0.9691  1.0691 -1.9590
  121MOL0     H15941   4.805  12.410   9.506  0.5054 -0.3177 -1.6802
  121MOL0     H15942   4.632  12.583   9.449 -3.4522 -2.5197  0.1056
  121MOL0     H15943   4.588  12.494   9.306 -1.0426  4.2231 -0.5314
  121MOL0     H15944   4.855  12.637   9.363  0.1817  0.3366 -1.2858
  121MOL0     H15945   4.847  12.495   9.255 -2.3863 -1.6434 -0.3391
  121MOL0     H15946   4.707  12.626   9.097  0.4524 -0.6553 -0.4993
  121MOL0     H15947   4.874  12.671   9.125 -0.6980 -2.5920 -1.8695
  121MOL0     H15948   4.768  12.893   9.135 -1.1840 -0.8869 -1.8762
  121MOL0     H15949   4.741  12.850   9.297  1.5326 -0.1453 -0.4938
  121MOL0     H15950   4.557  12.766   9.066  2.5915 -2.9926  1.5580
  121MOL0     H15951   4.515  12.756   9.243  0.3356  0.0844  0.8345
  121MOL0     H15952   4.487  13.003   9.247  2.6761  0.4126  0.0842
  121MOL0     H15953   4.386  12.914   9.135 -0.8205  1.6493  1.4901
  121MOL0     H15954   4.368  12.068   9.420 -2.5169  2.0350 -1.1804
  121MOL0     H15955   4.213  11.965   9.588  0.9351 -0.2571  0.5264
  121MOL0     H15956   3.720  12.072   9.728 -2.2181  3.4729  2.2102
  121MOL0     H15957   3.549  11.961   9.846  1.0211  3.9151  1.4941
  121MOL0     H15958   3.715  10.752  11.336 -1.5150  1.1401 -0.8949
  121MOL0     H15959   3.942  10.635  11.353  0.7721  0.4844 -1.2534
  121MOL0     H15960   4.072  10.010  11.377  0.8048  0.8208  3.3295
  121MOL0     H15961   4.287   9.914  11.364  1.5001  0.5134  0.3886
  121MOL0     H15962   4.618  10.179  11.329 -1.7042  0.4387 -0.3428
  121MOL0     H15963   4.672  10.095  11.181 -0.1335  1.4646  0.9089
  121MOL0     H15964   4.790  10.059  11.397  0.1277 -0.0382  3.9452
  121MOL0     H15965   4.644   9.978  11.468  0.5417 -0.9257 -0.2803
  121MOL0     H15966   4.677   9.807  11.263  0.3979  1.3715 -0.5407
  121MOL0     H15967   4.773   9.796  11.411 -2.5296 -0.1310  1.3564
  121MOL0     H15968   4.953   9.937  11.292 -0.2182  2.6248 -2.7869
  121MOL0     H15969   4.913   9.772  11.223  0.2222  1.1240 -0.1794
  121MOL0     H15970   4.859  10.041  10.918 -0.9077  1.2036  2.2661
  121MOL0     H15971   4.441  10.239  11.135 -0.3610  0.7924 -0.7928
  121MOL0     H15972   4.239  10.373  11.181  1.4580 -0.7141 -1.9904
  122MOL0     O15973  10.182   5.171   9.382  0.5087  0.8308  0.2534
  122MOL0     C15974  10.258   5.085   9.345  0.3708 -0.6094  0.0819
  122MOL0     O15975  10.245   4.949   9.372 -0.8410 -0.1087  0.0111
  122MOL0     C15976  10.166   4.908   9.481 -0.0982  0.8986  0.5487
  122MOL0     C15977  10.224   4.810   9.568  0.0365 -0.5967 -0.9952
  122MOL0     C15978  10.160   4.780   9.693 -0.4904  0.3752  0.8064
  122MOL0     C15979  10.029   4.828   9.718 -0.7167  0.2419 -1.1356
  122MOL0     O15980   9.951   4.778   9.824 -0.1770  0.1546  0.4308
  122MOL0     C15981   9.870   4.880   9.880  0.6837  0.5828 -0.2228
  122MOL0     C15982   9.822   4.829  10.009 -0.2104  0.8660 -1.3788
  122MOL0     C15983   9.767   4.940  10.096 -1.2656  0.1181 -0.3737
  122MOL0     C15984   9.673   4.893  10.209 -0.6400 -0.6265  0.7849
  122MOL0     C15985   9.612   5.008  10.291 -0.1796  0.3860  0.3808
  122MOL0     C15986   9.462   5.030  10.237  0.6018 -0.1293  0.8174
  122MOL0     C15987   9.369   5.135  10.308  0.7202  0.4205  0.2857
  122MOL0     C15988   9.430   5.278  10.306 -0.9678 -0.5560  0.6889
  122MOL0     N15989   9.435   5.324  10.164 -0.3674 -0.4569  0.1798
  122MOL0     C15990   9.327   5.324  10.076  0.8632  0.1796  0.6781
  122MOL0     C15991   9.354   5.417   9.988  0.4674 -0.0448 -0.6601
  122MOL0     C15992   9.264   5.463   9.881 -0.3911  0.0646 -0.1038
  122MOL0     C15993   9.254   5.611   9.892 -0.6314  0.0586  0.5729
  122MOL0     C15994   9.170   5.677   9.782 -0.3717 -0.5596 -0.4267
  122MOL0     C15995   9.024   5.626   9.793  0.1100  0.1560  0.0932
  122MOL0     O15996   8.956   5.729   9.721  0.7307  0.6084 -0.0380
  122MOL0     C15997   8.825   5.725   9.700  1.0182 -0.0818 -0.2251
  122MOL0     C15998   8.727   5.636   9.765  0.4531  0.2360 -1.0626
  122MOL0     C15999   8.597   5.628   9.718  0.2357 -0.4349 -0.9360
  122MOL0     C16000   8.548   5.717   9.620 -0.4593  0.1022  0.3091
  122MOL0     C16001   8.412   5.707   9.565 -0.5377 -0.9680  0.1691
  122MOL0     O16002   8.338   5.606   9.607  0.8716 -0.7575  0.5251
  122MOL0     C16003   8.203   5.588   9.564 -0.4777 -0.0455 -0.0862
  122MOL0     C16004   8.134   5.487   9.628 -0.6459  0.5225  0.7021
  122MOL0     C16005   8.005   5.452   9.591  0.4159 -0.4086  0.7264
  122MOL0     C16006   7.942   5.525   9.490  0.3493  0.0910  0.1110
  122MOL0     O16007   7.811   5.494   9.454 -0.3896  0.2361 -0.1668
  122MOL0     C16008   7.734   5.593   9.376 -0.3530  0.1844 -0.1053
  122MOL0     C16009   7.591   5.538   9.370 -1.0158  0.1839  0.7116
  122MOL0     C16010   7.505   5.615   9.271  0.0822 -0.6120  0.2260
  122MOL0     C16011   7.368   5.549   9.258  0.3975 -0.5657 -0.4050
  122MOL0     C16012   7.297   5.611   9.136  0.7175  0.4567 -0.3306
  122MOL0     C16013   7.145   5.609   9.170  0.5798 -0.2727  0.1195
  122MOL0     C16014   7.059   5.680   9.054 -0.4638 -0.0292 -0.6478
  122MOL0     C16015   6.935   5.736   9.107  0.1230  1.0210 -0.0024
  122MOL0    Cl16016   6.843   5.796   8.968 -0.2840 -0.2739  0.1579
  122MOL0     C16017   8.016   5.622   9.423  0.4119 -0.0216 -0.7388
  122MOL0     C16018   8.150   5.651   9.455 -0.7482 -0.2911 -0.0851
  122MOL0     O16019   8.391   5.795   9.482  0.3946  0.6255 -0.7132
  122MOL0     C16020   8.643   5.811   9.575 -0.0303 -0.7067 -0.1355
  122MOL0     C16021   8.772   5.818   9.615  0.1739 -1.1764  1.1190
  122MOL0     N16022   9.482   5.469  10.017  0.6613 -0.7643  0.2301
  122MOL0     N16023   9.530   5.404  10.112 -0.1492  0.4912 -0.6243
  122MOL0     C16024   9.972   4.904   9.608  1.0558  0.5065 -0.0673
  122MOL0     C16025  10.034   4.942   9.491  0.2718  0.0173  0.1662
  122MOL0     C16026  10.388   5.132   9.285  0.0066 -0.0945  0.7315
  122MOL0     C16027  10.503   5.070   9.320  0.3460  0.5059  1.1127
  122MOL0     C16028  10.630   5.109   9.274  0.3032  0.2219 -0.0752
  122MOL0     C16029  10.644   5.226   9.202  0.2734  0.0579 -0.6986
  122MOL0     O16030  10.767   5.266   9.153 -0.8258 -0.8752  0.8714
  122MOL0     C16031  10.837   5.344   9.245 -0.5082 -0.0825  0.4012
  122MOL0     C16032  10.924   5.447   9.162  0.1607 -0.3235  0.1377
  122MOL0     C16033  10.855   5.587   9.162 -0.0542  0.0200 -0.4188
  122MOL0     C16034  10.922   5.687   9.068  0.0370  0.1893 -0.6121
  122MOL0     C16035  10.858   5.706   8.940 -0.8173 -0.2020  0.4464
  122MOL0     C16036  10.807   5.718   8.831  0.9564  0.3375  0.1905
  122MOL0     C16037  10.530   5.300   9.174 -0.5646 -1.2033  0.2191
  122MOL0     C16038  10.402   5.248   9.205  0.2591 -0.3310 -0.6318
  122MOL0     H16039  10.313   4.752   9.547  2.1942  1.3554  1.9463
  122MOL0     H16040  10.212   4.716   9.763  0.4604 -1.4573 -1.4587
  122MOL0     H16041   9.788   4.908   9.812 -1.1231 -1.9336  0.7626
  122MOL0     H16042   9.942   4.962   9.888 -0.3963  2.0973 -3.7756
  122MOL0     H16043   9.906   4.794  10.069 -3.5314 -0.1618  3.2207
  122MOL0     H16044   9.750   4.747  10.007 -0.8016  1.3126  0.0683
  122MOL0     H16045   9.708   5.000  10.026 -0.6520 -1.2040 -2.0846
  122MOL0     H16046   9.842   5.010  10.134 -1.2951  1.0703 -1.9756
  122MOL0     H16047   9.602   4.823  10.163 -1.7135  1.1545 -0.3688
  122MOL0     H16048   9.740   4.850  10.283  2.1677  2.6040  0.3548
  122MOL0     H16049   9.678   5.094  10.291  1.6423 -0.9597  0.4564
  122MOL0     H16050   9.609   4.971  10.394  3.5804 -3.3533 -0.5852
  122MOL0     H16051   9.410   4.935  10.250 -4.6336  2.4805  1.6074
  122MOL0     H16052   9.467   5.048  10.129 -0.0731  0.6883  0.9114
  122MOL0     H16053   9.271   5.135  10.260  1.2752 -0.6564 -0.9040
  122MOL0     H16054   9.356   5.112  10.414 -0.6712  3.6944  0.9627
  122MOL0     H16055   9.532   5.271  10.344  0.2296  2.0391 -1.6672
  122MOL0     H16056   9.375   5.355  10.361  0.0509 -0.1131  1.1074
  122MOL0     H16057   9.237   5.264  10.065  3.4342 -3.7412 -1.8160
  122MOL0     H16058   9.165   5.418   9.895 -1.3111  1.6570 -1.1676
  122MOL0     H16059   9.302   5.429   9.784  1.4178  0.2935  0.4968
  122MOL0     H16060   9.360   5.627   9.869 -1.3644  2.6156 -1.4780
  122MOL0     H16061   9.228   5.649   9.991 -0.5680  0.6970  0.3541
  122MOL0     H16062   9.173   5.787   9.786  2.4505 -0.6174  1.4310
  122MOL0     H16063   9.218   5.650   9.688 -0.3572  4.0049 -2.0098
  122MOL0     H16064   8.992   5.623   9.897  0.6071  0.7651  0.2677
  122MOL0     H16065   9.001   5.532   9.741 -0.9924  1.4802 -1.9452
  122MOL0     H16066   8.752   5.571   9.848  2.7928 -1.1538 -2.7120
  122MOL0     H16067   8.519   5.574   9.771 -1.3337 -0.5927 -3.2697
  122MOL0     H16068   8.174   5.444   9.719 -0.1395 -0.7836 -0.1024
  122MOL0     H16069   7.938   5.385   9.643 -2.3365  0.7404 -1.0487
  122MOL0     H16070   7.775   5.614   9.277  0.7550 -0.0987  0.2766
  122MOL0     H16071   7.722   5.691   9.424 -0.5450 -0.1390  0.5119
  122MOL0     H16072   7.530   5.540   9.461  1.7341  0.2572  2.7075
  122MOL0     H16073   7.593   5.435   9.335  0.9792  0.8616 -1.3759
  122MOL0     H16074   7.549   5.614   9.171  0.8292  1.7970  0.4576
  122MOL0     H16075   7.495   5.721   9.297 -2.9009 -0.5254 -0.9365
  122MOL0     H16076   7.378   5.440   9.261  1.1243 -0.4991  1.4269
  122MOL0     H16077   7.305   5.572   9.344 -0.1759  0.2254 -1.0200
  122MOL0     H16078   7.306   5.539   9.054 -0.5495 -1.6144  1.2542
  122MOL0     H16079   7.330   5.713   9.116  1.9910  0.4556  1.5196
  122MOL0     H16080   7.126   5.669   9.259  0.5040 -1.4980  0.9616
  122MOL0     H16081   7.118   5.504   9.185 -0.2562  0.3111  3.5790
  122MOL0     H16082   7.122   5.762   9.019  0.8833  0.0812  1.7650
  122MOL0     H16083   7.043   5.619   8.965  0.7033  1.6830 -2.1181
  122MOL0     H16084   6.949   5.820   9.175 -0.1912  0.9759  0.1215
  122MOL0     H16085   6.880   5.662   9.166 -0.3697  0.3241 -1.2941
  122MOL0     H16086   7.974   5.692   9.352 -1.0080  3.0891  2.8799
  122MOL0     H16087   8.194   5.729   9.393  0.4193 -1.9339 -1.4015
  122MOL0     H16088   8.610   5.876   9.494  2.9774 -0.0264 -0.9190
  122MOL0     H16089   8.838   5.885   9.560  0.2099 -0.9230  1.4711
  122MOL0     H16090   9.868   4.935   9.606  1.1689  1.1313  1.9525
  122MOL0     H16091   9.993   5.007   9.414 -0.4812 -1.4031 -0.6604
  122MOL0     H16092  10.483   4.995   9.395 -1.6282  1.0082  1.1528
  122MOL0     H16093  10.721   5.054   9.296  0.0106 -0.2886 -0.1510
  122MOL0     H16094  10.915   5.280   9.288 -1.4535 -2.2371 -0.9431
  122MOL0     H16095  10.772   5.374   9.327 -1.7408 -0.1776 -0.5170
  122MOL0     H16096  11.015   5.458   9.222 -0.4052  0.0785  0.9434
  122MOL0     H16097  10.933   5.416   9.058  1.5047 -0.8502  0.3792
  122MOL0     H16098  10.848   5.635   9.260  3.1982  2.7621 -1.3364
  122MOL0     H16099  10.751   5.574   9.128  0.4075 -0.9797 -1.5244
  122MOL0     H16100  10.925   5.787   9.113  3.5496 -0.1190  0.1216
  122MOL0     H16101  11.028   5.661   9.073  0.1057  0.4587  4.3624
  122MOL0     H16102  10.758   5.729   8.736 -0.0128  1.1172  0.7691
  122MOL0     H16103  10.532   5.392   9.116  0.3543  0.5792  2.8900
  122MOL0     H16104  10.313   5.298   9.169 -0.4083  0.6275  2.0490
  123MOL0     O16105   1.838   0.077   3.414  0.4534  0.3212  0.3410
  123MOL0     C16106   1.789   0.119   3.310 -0.1888  0.0671  0.5829
  123MOL0     O16107   1.766   0.252   3.286 -0.2025  0.4369 -0.9744
  123MOL0     C16108   1.801   0.342   3.385 -0.3895  0.3265 -0.2418
  123MOL0     C16109   1.708   0.382   3.475 -0.5423 -0.0230  0.5244
  123MOL0     C16110   1.740   0.475   3.576  0.1739  0.0833  0.3882
  123MOL0     C16111   1.870   0.535   3.577 -0.3432  0.3634 -1.5289
  123MOL0     O16112   1.923   0.630   3.664 -0.1140  0.2483 -0.7241
  123MOL0     C16113   1.848   0.730   3.723  0.4405 -0.0491 -0.5773
  123MOL0     C16114   1.780   0.682   3.854  0.3865  0.8394 -0.5098
  123MOL0     C16115   1.704   0.786   3.925  0.5175 -0.3404 -0.1709
  123MOL0     C16116   1.617   0.727   4.044 -0.3000 -0.0638 -0.6227
  123MOL0     C16117   1.508   0.818   4.095  0.0670  0.1237  0.9171
  123MOL0     C16118   1.441   0.759   4.216 -0.2883 -0.4708  0.4848
  123MOL0     C16119   1.315   0.840   4.275 -0.5116  0.2237  0.3052
  123MOL0     C16120   1.343   0.985   4.315 -1.6175 -0.3057  0.1773
  123MOL0     N16121   1.237   1.041   4.380  0.0572 -0.4928 -0.0308
  123MOL0     C16122   1.225   1.173   4.415 -0.2422  0.6452  0.2578
  123MOL0     C16123   1.119   1.186   4.496  1.2488 -0.5213  0.1949
  123MOL0     C16124   1.069   1.314   4.558  0.6370  0.9125  0.3239
  123MOL0     C16125   1.168   1.389   4.650  0.1400  1.0457 -0.3858
  123MOL0     C16126   1.323   1.386   4.620  0.1271  0.5840  0.4558
  123MOL0     C16127   1.393   1.468   4.734  0.0397 -0.7002 -0.9115
  123MOL0     O16128   1.522   1.501   4.692  0.0835  0.1808 -0.5334
  123MOL0     C16129   1.634   1.491   4.765  0.1608 -0.5600  0.8901
  123MOL0     C16130   1.747   1.526   4.693  0.1874  0.0179  0.4257
  123MOL0     C16131   1.878   1.527   4.742  0.1477  0.3082 -0.2973
  123MOL0     C16132   1.888   1.500   4.877  0.0154 -0.2968  0.3977
  123MOL0     C16133   2.025   1.515   4.936  0.7009 -0.1597  0.3329
  123MOL0     O16134   2.126   1.550   4.856  0.4583  0.1684  0.3804
  123MOL0     C16135   2.253   1.553   4.906 -1.2729  0.1021  0.4312
  123MOL0     C16136   2.317   1.681   4.920 -0.1463  0.2365  1.3840
  123MOL0     C16137   2.451   1.695   4.964 -0.7082 -0.3046 -0.9164
  123MOL0     C16138   2.522   1.580   5.009 -0.9413 -0.5451  0.2830
  123MOL0     O16139   2.648   1.590   5.055  0.2958 -0.2776 -0.3989
  123MOL0     C16140   2.743   1.614   4.951  0.6724 -1.1922 -0.0993
  123MOL0     C16141   2.793   1.477   4.904  0.7889 -0.2719  0.3767
  123MOL0     C16142   2.872   1.498   4.764 -0.1648 -0.5775  1.0118
  123MOL0     C16143   2.932   1.362   4.723  0.0407 -0.3510 -0.1868
  123MOL0     C16144   3.057   1.374   4.635 -0.5826 -0.0916 -0.1217
  123MOL0     C16145   3.105   1.235   4.581 -0.7635  0.4732  0.0229
  123MOL0     C16146   3.249   1.228   4.539 -0.0857 -1.2053 -0.7535
  123MOL0     C16147   3.286   1.090   4.500  0.4646  0.9093  0.2430
  123MOL0    Cl16148   3.194   1.037   4.354  0.0317  0.2537 -0.2776
  123MOL0     C16149   2.455   1.456   5.004  0.3042  0.4674  0.5600
  123MOL0     C16150   2.326   1.439   4.937 -0.7512  0.3665 -0.6713
  123MOL0     O16151   2.034   1.491   5.052  0.6807  1.0364  0.0383
  123MOL0     C16152   1.774   1.465   4.954 -0.1375 -0.5053 -0.2657
  123MOL0     C16153   1.650   1.456   4.895 -0.0612 -0.2062 -0.8630
  123MOL0     N16154   1.053   1.070   4.500  0.1909  0.5428  0.2138
  123MOL0     N16155   1.123   0.982   4.435 -0.6338  0.8355  0.3945
  123MOL0     C16156   1.962   0.495   3.483  0.2768  1.4021  0.0134
  123MOL0     C16157   1.931   0.396   3.384 -0.7024  0.0208 -0.1251
  123MOL0     C16158   1.757   0.013   3.210 -0.1328 -0.6201  0.0268
  123MOL0     C16159   1.729   0.066   3.081 -0.2093 -0.3044  0.1703
  123MOL0     C16160   1.706  -0.019   2.978  0.3989  0.5068  0.2505
  123MOL0     C16161   1.711  -0.154   2.995  0.3596 -0.1762  0.0420
  123MOL0     O16162   1.677  -0.229   2.884 -0.5292  0.6396  0.6824
  123MOL0     C16163   1.760  -0.327   2.833 -0.1376  0.1779  0.1018
  123MOL0     C16164   1.871  -0.282   2.741  0.2635  0.2383  0.0056
  123MOL0     C16165   1.976  -0.399   2.726  0.3995 -0.0404  0.4472
  123MOL0     C16166   1.921  -0.531   2.670  0.3257  0.3069  0.6725
  123MOL0     C16167   2.025  -0.640   2.664 -0.0843 -0.1064  0.6347
  123MOL0     C16168   2.107  -0.724   2.656  0.3287 -0.1772 -0.5829
  123MOL0     C16169   1.743  -0.208   3.120 -0.7641  0.5601 -0.1237
  123MOL0     C16170   1.770  -0.124   3.228  1.1329 -0.4970 -1.0086
  123MOL0     H16171   1.615   0.327   3.472 -1.2728  1.2199 -0.7625
  123MOL0     H16172   1.659   0.484   3.647 -1.0857 -1.3025 -0.7948
  123MOL0     H16173   1.771   0.765   3.653 -1.1214 -1.3528  0.3793
  123MOL0     H16174   1.912   0.815   3.744  2.1659 -1.2354 -0.8534
  123MOL0     H16175   1.858   0.643   3.921 -0.2929  2.0368  1.0386
  123MOL0     H16176   1.718   0.597   3.824  1.9404 -1.0687  1.3981
  123MOL0     H16177   1.631   0.838   3.862 -2.2668 -3.4511  0.2186
  123MOL0     H16178   1.781   0.846   3.975  0.6497  1.2899 -2.2066
  123MOL0     H16179   1.564   0.635   4.019 -0.7371 -0.8775  2.8221
  123MOL0     H16180   1.683   0.692   4.124 -1.1082  0.6809  0.3929
  123MOL0     H16181   1.430   0.820   4.018 -1.3058 -2.1793  2.1293
  123MOL0     H16182   1.539   0.921   4.114  0.3413  0.0220  1.0340
  123MOL0     H16183   1.512   0.738   4.296  0.9441  0.2339 -0.4034
  123MOL0     H16184   1.409   0.661   4.178 -0.2047 -0.2368 -0.2048
  123MOL0     H16185   1.249   0.834   4.188  0.4645 -4.1083 -0.3833
  123MOL0     H16186   1.274   0.780   4.356  1.7951 -1.4648  0.3235
  123MOL0     H16187   1.374   1.044   4.228 -1.4854 -2.6556 -1.4677
  123MOL0     H16188   1.430   0.985   4.381 -0.7368  0.4845 -0.9491
  123MOL0     H16189   1.292   1.253   4.387  0.8783 -0.8853 -1.5892
  123MOL0     H16190   0.978   1.287   4.612  0.6085 -0.0533 -0.1890
  123MOL0     H16191   1.038   1.374   4.471 -2.2808 -0.0069  0.6332
  123MOL0     H16192   1.165   1.350   4.752  1.3190  2.3821  0.2068
  123MOL0     H16193   1.138   1.494   4.649 -2.7365  0.3041 -0.3820
  123MOL0     H16194   1.358   1.282   4.621  1.2761  0.7397 -4.0753
  123MOL0     H16195   1.344   1.444   4.530  5.2095 -0.1240  0.8905
  123MOL0     H16196   1.376   1.417   4.829 -3.3559 -2.2648 -2.1860
  123MOL0     H16197   1.348   1.566   4.753  3.7360  0.7606  1.3389
  123MOL0     H16198   1.742   1.547   4.587  2.3786  2.4211  0.7005
  123MOL0     H16199   1.955   1.565   4.676  3.4492  0.1568  3.1377
  123MOL0     H16200   2.257   1.762   4.880 -4.5082 -2.2216  2.2992
  123MOL0     H16201   2.496   1.794   4.954 -2.7683  0.5462 -2.8240
  123MOL0     H16202   2.820   1.684   4.985 -0.9015  0.7365 -0.3570
  123MOL0     H16203   2.709   1.672   4.865  3.1207  1.5154  0.6088
  123MOL0     H16204   2.713   1.404   4.892  1.1473 -0.9245  1.7013
  123MOL0     H16205   2.871   1.433   4.967  1.7649 -1.1146 -1.3427
  123MOL0     H16206   2.948   1.577   4.765 -1.7138  1.0731 -1.3441
  123MOL0     H16207   2.797   1.531   4.691  1.4318  0.3335 -0.2748
  123MOL0     H16208   2.968   1.301   4.807  1.7258 -0.3487 -0.8587
  123MOL0     H16209   2.854   1.305   4.672 -0.0001  0.0831 -0.6130
  123MOL0     H16210   3.147   1.400   4.692  0.0590 -1.1312 -0.6472
  123MOL0     H16211   3.043   1.436   4.546 -0.2080  0.1174 -0.0405
  123MOL0     H16212   3.035   1.209   4.501 -0.5067  3.0920 -1.1396
  123MOL0     H16213   3.098   1.152   4.653  1.8565 -0.5276 -0.7697
  123MOL0     H16214   3.251   1.297   4.454 -1.3317 -0.7304 -0.4179
  123MOL0     H16215   3.307   1.260   4.626 -2.5948 -2.3960  1.5411
  123MOL0     H16216   3.274   1.016   4.580  3.5613  1.0790  0.9875
  123MOL0     H16217   3.394   1.089   4.484  0.4499 -0.3322  0.1231
  123MOL0     H16218   2.489   1.362   5.048 -0.2543  0.1643  0.3537
  123MOL0     H16219   2.274   1.344   4.941  1.9702 -1.2956 -1.4718
  123MOL0     H16220   1.793   1.451   5.060  0.0411  2.1426  0.1139
  123MOL0     H16221   1.564   1.434   4.957 -0.7405 -1.0929 -2.0868
  123MOL0     H16222   2.057   0.546   3.495  0.4543  0.7887  1.4996
  123MOL0     H16223   2.006   0.341   3.328 -2.5148 -2.1150 -0.6005
  123MOL0     H16224   1.719   0.173   3.065 -2.0810 -0.5663 -0.6532
  123MOL0     H16225   1.687   0.035   2.886  0.1790  1.1444  0.6589
  123MOL0     H16226   1.696  -0.400   2.782  0.7402 -1.4224  1.2081
  123MOL0     H16227   1.805  -0.373   2.921 -2.4351 -1.3740  0.5561
  123MOL0     H16228   1.830  -0.248   2.645 -0.2287  0.9155  0.4507
  123MOL0     H16229   1.932  -0.206   2.789 -0.4138 -0.9823  3.0483
  123MOL0     H16230   2.028  -0.408   2.822  1.7177  1.9759 -0.0074
  123MOL0     H16231   2.049  -0.349   2.662 -0.9701  1.9988  0.3919
  123MOL0     H16232   1.842  -0.581   2.728  0.1257 -0.6682 -0.4095
  123MOL0     H16233   1.888  -0.504   2.570 -2.2935  1.3371  1.7025
  123MOL0     H16234   2.174  -0.805   2.675  1.4982  0.8504 -0.1969
  123MOL0     H16235   1.744  -0.313   3.147 -1.5091  1.0709  2.0885
  123MOL0     H16236   1.784  -0.160   3.330 -0.1121  0.4370 -0.4669
  124MOL0     O16237   1.487   0.725  11.297 -0.5877 -0.0306 -0.6353
  124MOL0     C16238   1.554   0.755  11.399 -0.7591 -0.7530 -0.2743
  124MOL0     O16239   1.562   0.871  11.457 -0.6148 -0.5313  0.8115
  124MOL0     C16240   1.509   0.992  11.396 -0.5479  0.4749  0.1565
  124MOL0     C16241   1.465   1.098  11.478 -0.1650  0.5340 -0.7487
  124MOL0     C16242   1.432   1.224  11.430  0.4269 -0.4029 -0.2860
  124MOL0     C16243   1.419   1.245  11.294 -0.6612  0.2457  0.3964
  124MOL0     O16244   1.384   1.367  11.241  0.4998 -0.0253 -0.3037
  124MOL0     C16245   1.419   1.495  11.310  0.8349  0.1701 -0.0278
  124MOL0     C16246   1.417   1.611  11.207 -0.4989 -0.3370  0.1414
  124MOL0     C16247   1.541   1.614  11.120  0.0575 -0.5460  0.6699
  124MOL0     C16248   1.534   1.733  11.022 -0.6531  0.1379 -0.9949
  124MOL0     C16249   1.658   1.747  10.929  0.7128  0.3560 -0.0693
  124MOL0     C16250   1.637   1.684  10.805 -0.5140  0.2697 -0.5329
  124MOL0     C16251   1.765   1.681  10.716 -0.0635  0.3827 -0.5625
  124MOL0     C16252   1.737   1.613  10.580  0.4821  1.1505 -0.2352
  124MOL0     N16253   1.665   1.486  10.594  0.1521  0.7028  0.3759
  124MOL0     C16254   1.720   1.373  10.651  0.6487  0.3343  0.0226
  124MOL0     C16255   1.626   1.274  10.651  0.1809  0.0514  0.8924
  124MOL0     C16256   1.648   1.135  10.706 -0.3979  0.0313 -0.5660
  124MOL0     C16257   1.530   1.098  10.784  0.4416  0.1552  0.6621
  124MOL0     C16258   1.537   0.976  10.880 -0.5245  0.1826  0.0718
  124MOL0     C16259   1.537   0.839  10.800  0.1414  0.7708 -0.6198
  124MOL0     O16260   1.564   0.718  10.881 -0.6758 -0.0421  0.0957
  124MOL0     C16261   1.689   0.692  10.929 -0.6170  0.1230  0.6584
  124MOL0     C16262   1.799   0.700  10.845 -1.1722  0.7055 -0.1469
  124MOL0     C16263   1.930   0.653  10.893  0.9009 -0.4699  0.6099
  124MOL0     C16264   1.946   0.619  11.028 -0.0316  1.6772  0.5926
  124MOL0     C16265   2.075   0.567  11.083 -0.3264 -0.0829  1.4493
  124MOL0     O16266   2.097   0.588  11.214  0.9272 -0.9212 -0.3093
  124MOL0     C16267   2.225   0.560  11.261  0.0360 -0.7774  0.4458
  124MOL0     C16268   2.326   0.649  11.229  0.4072 -0.5335  0.2700
  124MOL0     C16269   2.443   0.657  11.308  0.3248  0.2538  0.4176
  124MOL0     C16270   2.464   0.562  11.411 -0.1932 -0.4378 -0.6872
  124MOL0     O16271   2.572   0.589  11.495 -0.3618  0.6043  0.5704
  124MOL0     C16272   2.691   0.513  11.459 -0.7358 -0.0745  0.4408
  124MOL0     C16273   2.779   0.569  11.360  0.3740  0.5789 -0.2971
  124MOL0     C16274   2.800   0.717  11.383 -1.0632  0.6588  0.7592
  124MOL0     C16275   2.886   0.758  11.261 -0.9720 -0.5754 -0.1404
  124MOL0     C16276   2.912   0.906  11.254  0.9856  0.2800 -1.2109
  124MOL0     C16277   2.971   0.952  11.120 -0.2381 -0.0666  1.2907
  124MOL0     C16278   3.005   1.097  11.110 -0.4820 -0.0882 -1.3904
  124MOL0     C16279   3.072   1.140  10.974 -0.1771 -0.1253 -0.2034
  124MOL0    Cl16280   3.139   1.309  10.985  0.1956  0.2215 -0.4948
  124MOL0     C16281   2.366   0.466  11.435  0.0676 -0.0292  0.3767
  124MOL0     C16282   2.243   0.470  11.357  0.5335 -0.6973 -0.5320
  124MOL0     O16283   2.157   0.515  10.999  1.2624 -0.1784  0.3230
  124MOL0     C16284   1.837   0.614  11.108  0.1617  0.2707  0.3379
  124MOL0     C16285   1.715   0.651  11.057 -0.2008 -0.3886 -0.8494
  124MOL0     N16286   1.516   1.320  10.581 -1.1930  0.0548 -0.9518
  124MOL0     N16287   1.547   1.438  10.541 -0.1916  0.3203  0.3697
  124MOL0     C16288   1.465   1.141  11.206 -0.2660  0.7129  0.6825
  124MOL0     C16289   1.504   1.014  11.259  0.5014  0.3365 -0.1640
  124MOL0     C16290   1.649   0.650  11.453  0.8935  0.3746 -0.1723
  124MOL0     C16291   1.775   0.682  11.503  0.2731 -0.1075 -0.0773
  124MOL0     C16292   1.866   0.578  11.523 -0.0657  0.0354 -1.3781
  124MOL0     C16293   1.833   0.443  11.511  0.1951 -0.6092  0.8017
  124MOL0     O16294   1.925   0.341  11.514  0.1068 -0.2677  1.0218
  124MOL0     C16295   2.014   0.340  11.623 -0.0267 -0.6524 -0.2050
  124MOL0     C16296   2.024   0.196  11.670  0.4450 -0.4027  0.1192
  124MOL0     C16297   2.092   0.189  11.810 -0.1244 -0.3324 -0.0950
  124MOL0     C16298   2.242   0.228  11.808 -0.0136  1.3403  0.0212
  124MOL0     C16299   2.310   0.180  11.930  0.4319 -0.9692 -0.9762
  124MOL0     C16300   2.379   0.182  12.035 -0.2566 -0.0052  0.8442
  124MOL0     C16301   1.711   0.412  11.443 -0.1598 -0.5100  0.0820
  124MOL0     C16302   1.619   0.512  11.412 -0.1376  0.2665 -0.0319
  124MOL0     H16303   1.466   1.075  11.584  1.2377 -1.8936 -1.2067
  124MOL0     H16304   1.396   1.300  11.499 -0.0731 -0.4603 -0.4832
  124MOL0     H16305   1.519   1.495  11.354  0.0978 -2.2061  1.8560
  124MOL0     H16306   1.347   1.501  11.393  0.1494 -0.8314 -0.5320
  124MOL0     H16307   1.410   1.702  11.268 -1.7148  0.0283 -0.5148
  124MOL0     H16308   1.329   1.594  11.145  0.2790 -4.0978 -0.1714
  124MOL0     H16309   1.552   1.526  11.056 -0.2342 -0.0761 -0.0361
  124MOL0     H16310   1.630   1.628  11.183  0.0706  0.0784  0.5217
  124MOL0     H16311   1.449   1.718  10.955 -0.0879 -3.1370 -1.1725
  124MOL0     H16312   1.525   1.827  11.077  0.7362  1.0697 -2.2980
  124MOL0     H16313   1.751   1.707  10.970  1.6948  0.8222 -1.7843
  124MOL0     H16314   1.667   1.854  10.906  2.6607 -0.5322 -4.4780
  124MOL0     H16315   1.556   1.742  10.760  0.4973  2.4268  0.3041
  124MOL0     H16316   1.603   1.580  10.814  1.1161 -0.2289  0.1703
  124MOL0     H16317   1.802   1.781  10.692  1.9730  0.0059  0.7665
  124MOL0     H16318   1.834   1.626  10.781 -3.1282 -1.6251  1.2373
  124MOL0     H16319   1.829   1.589  10.524 -1.8763  0.5270 -4.2681
  124MOL0     H16320   1.672   1.679  10.522 -3.1243 -2.3227 -0.6396
  124MOL0     H16321   1.819   1.335  10.671 -0.1739 -3.2294 -1.7832
  124MOL0     H16322   1.735   1.141  10.773 -0.9305  2.3627  0.0114
  124MOL0     H16323   1.656   1.059  10.628 -0.6261 -0.8733  0.2662
  124MOL0     H16324   1.437   1.077  10.732 -0.1777 -2.0190  2.5045
  124MOL0     H16325   1.506   1.186  10.845 -0.0250  0.2537  0.3462
  124MOL0     H16326   1.632   0.983  10.933  0.3521 -3.1145 -0.8089
  124MOL0     H16327   1.456   0.983  10.954  0.2018  3.6301  0.7119
  124MOL0     H16328   1.615   0.842  10.723  2.7123 -3.3710  1.4494
  124MOL0     H16329   1.436   0.820  10.762  0.2109 -0.7379 -0.1294
  124MOL0     H16330   1.791   0.746  10.747 -0.2581 -3.2622 -2.2946
  124MOL0     H16331   2.015   0.642  10.826  0.3875  1.0081 -0.3192
  124MOL0     H16332   2.316   0.724  11.152  1.2372 -1.0946 -0.3970
  124MOL0     H16333   2.512   0.733  11.275 -1.0254  0.6899 -1.5883
  124MOL0     H16334   2.656   0.415  11.427 -0.9517  0.3750 -0.7579
  124MOL0     H16335   2.755   0.507  11.547 -0.0972 -0.0553 -0.0125
  124MOL0     H16336   2.723   0.571  11.266 -1.2130 -0.3147  0.5833
  124MOL0     H16337   2.871   0.511  11.349 -0.7558 -1.1740 -0.8503
  124MOL0     H16338   2.866   0.737  11.468  0.5910  2.5298 -0.8388
  124MOL0     H16339   2.704   0.770  11.389 -1.3718  0.6104 -2.3989
  124MOL0     H16340   2.980   0.702  11.256 -0.6374  0.0089 -0.5164
  124MOL0     H16341   2.832   0.737  11.169  0.2586 -0.7415 -0.8557
  124MOL0     H16342   2.980   0.924  11.338 -1.1126  1.3319  0.3359
  124MOL0     H16343   2.821   0.964  11.265  0.3680  0.0028 -3.9958
  124MOL0     H16344   2.891   0.934  11.047 -1.3745  0.0038  2.4803
  124MOL0     H16345   3.062   0.896  11.096  0.6841  2.0057 -0.4090
  124MOL0     H16346   2.915   1.159  11.118 -0.3611  0.3874 -3.1882
  124MOL0     H16347   3.076   1.120  11.190 -2.7202 -1.4759  1.1508
  124MOL0     H16348   2.998   1.129  10.894  0.8721 -2.5722 -0.9190
  124MOL0     H16349   3.156   1.079  10.940  0.8389  2.6443 -3.2012
  124MOL0     H16350   2.388   0.387  11.507  3.9010  2.5831  2.4231
  124MOL0     H16351   2.168   0.398  11.387 -0.0123  0.4630  1.0335
  124MOL0     H16352   1.847   0.588  11.213 -3.2346 -2.0386  0.2309
  124MOL0     H16353   1.621   0.648  11.111 -0.6029  1.8499 -1.3468
  124MOL0     H16354   1.480   1.155  11.099 -0.4618  1.2548  0.7237
  124MOL0     H16355   1.540   0.931  11.200 -0.1975  0.1386 -0.3166
  124MOL0     H16356   1.796   0.786  11.527 -4.5296  0.5925  2.3519
  124MOL0     H16357   1.962   0.611  11.560 -0.5477 -0.8882  0.8649
  124MOL0     H16358   1.984   0.409  11.702  1.5178 -2.7787  2.4001
  124MOL0     H16359   2.114   0.373  11.596 -0.1142 -0.0725  0.1516
  124MOL0     H16360   1.920   0.168  11.691  0.2548 -0.6440 -1.0878
  124MOL0     H16361   2.074   0.144  11.588  0.3563 -1.4217  0.7023
  124MOL0     H16362   2.074   0.085  11.838 -1.8403 -0.3412 -1.0713
  124MOL0     H16363   2.047   0.255  11.884 -0.2919 -1.7498  1.1192
  124MOL0     H16364   2.285   0.176  11.721 -1.4196  1.5805 -0.8597
  124MOL0     H16365   2.248   0.335  11.789  0.4595  0.9784 -2.1735
  124MOL0     H16366   2.439   0.192  12.123  0.6930  1.4249  0.0703
  124MOL0     H16367   1.691   0.306  11.427 -1.5237  0.0934 -3.0081
  124MOL0     H16368   1.529   0.468  11.371  0.0698  0.5625 -0.8289
  125MOL0     O16369   0.809   2.037   3.431 -0.1023 -0.3058 -0.2631
  125MOL0     C16370   0.917   2.049   3.486 -0.1330  0.7169 -0.1906
  125MOL0     O16371   0.936   2.042   3.632  0.1710 -0.0975 -0.0320
  125MOL0     C16372   0.829   2.044   3.724  0.1224  0.2851  0.7171
  125MOL0     C16373   0.715   2.119   3.706  0.2355 -0.5121 -0.7903
  125MOL0     C16374   0.622   2.121   3.801  0.7280 -0.2491  0.6816
  125MOL0     C16375   0.631   2.051   3.920  0.0550 -0.9695 -0.8893
  125MOL0     O16376   0.536   2.058   4.021 -0.2485  0.0347  0.5078
  125MOL0     C16377   0.403   2.077   3.972 -0.1926 -0.0048 -0.3444
  125MOL0     C16378   0.316   2.018   4.094  0.6992 -0.1486  0.1008
  125MOL0     C16379   0.187   1.948   4.040  0.3354  0.1162 -0.9272
  125MOL0     C16380   0.090   1.901   4.150 -1.2229 -0.6938 -0.3159
  125MOL0     C16381  -0.034   1.836   4.091  0.3984  0.5409 -0.0853
  125MOL0     C16382  -0.147   1.819   4.194 -0.5778  1.1230 -0.9945
  125MOL0     C16383  -0.259   1.724   4.143  0.0515  0.1003 -0.0162
  125MOL0     C16384  -0.347   1.802   4.045 -0.2107  0.6604 -0.3466
  125MOL0     N16385  -0.457   1.728   3.988 -0.2716  0.8357 -0.3023
  125MOL0     C16386  -0.564   1.683   4.065  0.1758  0.3397  0.1159
  125MOL0     C16387  -0.632   1.610   3.976  0.0374 -0.1165 -0.0485
  125MOL0     C16388  -0.763   1.549   3.992 -0.9149  0.0467  0.6077
  125MOL0     C16389  -0.880   1.648   3.963  0.3700  0.3602  0.2374
  125MOL0     C16390  -1.012   1.598   4.016  0.0703  0.9449  0.3823
  125MOL0     C16391  -1.124   1.695   3.985  1.1725  0.3782  0.0811
  125MOL0     O16392  -1.241   1.645   4.049 -0.1725 -0.0333  0.2837
  125MOL0     C16393  -1.370   1.694   4.022 -0.2067 -0.2880 -0.1300
  125MOL0     C16394  -1.414   1.765   3.904  0.5035 -0.3058 -0.6978
  125MOL0     C16395  -1.542   1.810   3.907  0.4739 -0.0999 -0.7617
  125MOL0     C16396  -1.630   1.785   4.016 -0.2980  0.3056 -0.2408
  125MOL0     C16397  -1.762   1.844   4.013  0.3880 -1.2165 -0.7527
  125MOL0     O16398  -1.836   1.822   4.122  1.3253  0.0271 -0.5833
  125MOL0     C16399  -1.970   1.860   4.123  0.1194 -0.2732  0.1144
  125MOL0     C16400  -2.008   1.959   4.216  1.0525  0.2833  0.0875
  125MOL0     C16401  -2.146   2.003   4.231 -0.0660  0.2215  0.6124
  125MOL0     C16402  -2.241   1.936   4.147 -0.2904  0.3238 -0.2971
  125MOL0     O16403  -2.375   1.967   4.142 -0.1294  0.0032 -0.0813
  125MOL0     C16404  -2.427   2.093   4.194  0.2439  0.3873  0.5788
  125MOL0     C16405  -2.577   2.114   4.146 -0.0080  0.7609 -0.2934
  125MOL0     C16406  -2.662   2.228   4.220 -0.0971  0.0699  0.2170
  125MOL0     C16407  -2.686   2.205   4.370  0.5860  0.4239 -0.2098
  125MOL0     C16408  -2.791   2.092   4.406 -0.0998  0.1046 -0.8706
  125MOL0     C16409  -2.930   2.130   4.374 -0.3516  0.8433  0.4338
  125MOL0     C16410  -3.033   2.028   4.428 -0.5715 -0.4603  0.7114
  125MOL0     C16411  -3.169   2.072   4.398  0.7495  0.2578 -1.0988
  125MOL0    Cl16412  -3.195   2.053   4.226  0.4037 -0.2002  0.1273
  125MOL0     C16413  -2.198   1.847   4.050  0.5647  1.0557  0.9495
  125MOL0     C16414  -2.066   1.804   4.043  0.7543 -0.1459  0.4457
  125MOL0     O16415  -1.810   1.902   3.910 -0.0599 -0.7692  0.4296
  125MOL0     C16416  -1.584   1.709   4.119 -0.4435  0.6927  0.5599
  125MOL0     C16417  -1.456   1.656   4.118  0.5173 -0.0517  0.0363
  125MOL0     N16418  -0.560   1.592   3.861 -0.1765  0.6873  0.7724
  125MOL0     N16419  -0.453   1.672   3.866  0.7887 -0.1904  0.2321
  125MOL0     C16420   0.747   1.981   3.934 -0.0514 -0.3317 -0.1916
  125MOL0     C16421   0.850   1.975   3.846 -0.4161 -0.3341  0.9214
  125MOL0     C16422   1.032   2.059   3.397 -0.1421  0.4833 -0.2771
  125MOL0     C16423   1.159   2.073   3.452 -0.0659  0.0657  0.0238
  125MOL0     C16424   1.269   2.087   3.370  0.0181  0.8271  0.1177
  125MOL0     C16425   1.256   2.107   3.236 -0.4829 -0.2541  1.7886
  125MOL0     O16426   1.361   2.124   3.146 -0.0859  0.5244  0.5180
  125MOL0     C16427   1.475   2.189   3.194 -0.0577  0.9928  0.7448
  125MOL0     C16428   1.594   2.084   3.194  0.0781 -0.2935  0.0256
  125MOL0     C16429   1.720   2.154   3.227  0.2464  0.3606 -0.1197
  125MOL0     C16430   1.837   2.073   3.289 -0.3089 -0.3579 -0.4197
  125MOL0     C16431   1.900   1.972   3.208 -0.6699 -1.0216  0.6787
  125MOL0     C16432   1.918   1.879   3.127 -0.2520 -0.2448  0.4608
  125MOL0     C16433   1.130   2.113   3.184  0.1421  0.7312  0.0500
  125MOL0     C16434   1.018   2.077   3.259  0.4785  0.8515 -0.4914
  125MOL0     H16435   0.706   2.169   3.610 -2.8055 -1.4181 -1.0830
  125MOL0     H16436   0.536   2.180   3.770  0.5795 -1.2749 -0.9929
  125MOL0     H16437   0.379   2.015   3.886  1.5731 -0.0338 -0.8632
  125MOL0     H16438   0.370   2.179   3.951 -4.1291 -1.1457 -0.5130
  125MOL0     H16439   0.280   2.103   4.153 -1.4665 -0.5928 -0.5032
  125MOL0     H16440   0.382   1.947   4.146  0.0850 -1.9986 -1.5222
  125MOL0     H16441   0.209   1.860   3.978 -0.2782 -2.2843  2.0363
  125MOL0     H16442   0.132   2.025   3.985  0.2526  0.9733  0.3220
  125MOL0     H16443   0.146   1.824   4.203 -1.4439 -0.0972  0.8165
  125MOL0     H16444   0.059   1.976   4.223 -1.0693  0.0433 -0.9867
  125MOL0     H16445  -0.007   1.740   4.047 -0.8844  0.9786 -1.9414
  125MOL0     H16446  -0.074   1.899   4.010 -1.8582 -0.0465  0.5020
  125MOL0     H16447  -0.178   1.919   4.225  1.6615  2.1601 -1.9115
  125MOL0     H16448  -0.111   1.764   4.282  0.0636  0.5663 -1.5870
  125MOL0     H16449  -0.223   1.632   4.096  0.6636  1.5773 -2.6845
  125MOL0     H16450  -0.311   1.708   4.238  1.7849 -1.0433  0.7921
  125MOL0     H16451  -0.287   1.850   3.967  3.6799  2.1453  3.2328
  125MOL0     H16452  -0.387   1.891   4.095 -0.0364  2.1662 -2.7084
  125MOL0     H16453  -0.593   1.729   4.159  0.4801 -0.1945  0.4747
  125MOL0     H16454  -0.766   1.501   4.090  0.8003 -1.8179 -0.1948
  125MOL0     H16455  -0.771   1.478   3.910  0.6607  1.5220 -0.9111
  125MOL0     H16456  -0.881   1.645   3.853 -2.8210 -3.7877  0.1324
  125MOL0     H16457  -0.859   1.746   4.005  0.0101  0.3591  0.4235
  125MOL0     H16458  -1.033   1.501   3.969  1.1331  0.1644  1.4465
  125MOL0     H16459  -1.011   1.574   4.123 -0.7370  0.9455  0.3889
  125MOL0     H16460  -1.124   1.731   3.882 -0.1706 -0.4726 -0.2384
  125MOL0     H16461  -1.109   1.791   4.037 -0.7957  2.3626 -2.7103
  125MOL0     H16462  -1.350   1.789   3.820 -0.7796  0.0927 -1.5789
  125MOL0     H16463  -1.587   1.862   3.822  1.0747 -0.0629 -1.0674
  125MOL0     H16464  -1.930   1.997   4.281  0.7917  0.6329  0.1959
  125MOL0     H16465  -2.173   2.094   4.283  0.3582 -0.7231  2.5647
  125MOL0     H16466  -2.368   2.178   4.158  0.3895  1.4239  3.0526
  125MOL0     H16467  -2.418   2.079   4.302 -0.2182 -5.3374  0.1866
  125MOL0     H16468  -2.620   2.014   4.162  1.4151 -0.2834 -2.4563
  125MOL0     H16469  -2.568   2.135   4.039  3.3163  5.7239  0.6493
  125MOL0     H16470  -2.750   2.238   4.156  0.2209 -1.1401 -0.4478
  125MOL0     H16471  -2.612   2.324   4.206  0.0855 -0.0249  0.2125
  125MOL0     H16472  -2.597   2.169   4.423 -0.7611 -2.4906  0.2984
  125MOL0     H16473  -2.706   2.293   4.431  0.6805  0.2079  0.1359
  125MOL0     H16474  -2.779   2.078   4.514  0.2246  1.5452 -0.7015
  125MOL0     H16475  -2.766   2.006   4.343  2.0604  1.4832 -2.0623
  125MOL0     H16476  -2.945   2.141   4.266 -5.2314  2.4577  1.0147
  125MOL0     H16477  -2.946   2.227   4.421  0.4303  0.2872  1.8840
  125MOL0     H16478  -3.023   1.923   4.398  2.5891 -0.6267  1.9267
  125MOL0     H16479  -3.017   2.031   4.536 -2.1414  1.2414  0.9315
  125MOL0     H16480  -3.179   2.173   4.440 -1.2362 -0.5108  0.4800
  125MOL0     H16481  -3.236   2.010   4.459  0.7324  2.4814  1.3230
  125MOL0     H16482  -2.275   1.797   3.992  4.6147 -2.7462 -1.8119
  125MOL0     H16483  -2.041   1.737   3.962 -0.7377  3.7130 -3.6421
  125MOL0     H16484  -1.643   1.682   4.206  0.5485  0.2011  1.0996
  125MOL0     H16485  -1.420   1.617   4.213  2.0710  0.7954 -0.1655
  125MOL0     H16486   0.764   1.928   4.027 -1.6675  0.9085  0.8896
  125MOL0     H16487   0.944   1.925   3.870  2.2112  2.5757 -2.1549
  125MOL0     H16488   1.174   2.059   3.559  4.9496 -3.4352 -0.7472
  125MOL0     H16489   1.364   2.066   3.419 -0.5906  1.1393  1.4707
  125MOL0     H16490   1.463   2.228   3.295  1.6446 -2.5417  2.4825
  125MOL0     H16491   1.498   2.273   3.127 -1.5950  1.4168  0.6946
  125MOL0     H16492   1.573   2.013   3.275  3.2594  0.4606  1.6768
  125MOL0     H16493   1.603   2.018   3.107 -1.9520  0.1772 -0.6024
  125MOL0     H16494   1.696   2.224   3.308  0.5499 -1.5927  1.7664
  125MOL0     H16495   1.743   2.200   3.131 -2.0995  3.8107  0.7840
  125MOL0     H16496   1.904   2.156   3.309  0.4700 -0.0902 -3.5879
  125MOL0     H16497   1.789   2.032   3.379 -0.4863 -2.7633 -1.5322
  125MOL0     H16498   1.928   1.798   3.058 -3.2699 -2.1137  2.0130
  125MOL0     H16499   1.128   2.127   3.076 -4.4337 -2.0686 -0.4794
  125MOL0     H16500   0.916   2.086   3.223  0.1859  1.5190  0.4523
  126MOL0     O16501   7.263   3.685  10.869  0.1487 -0.8181 -0.0939
  126MOL0     C16502   7.235   3.585  10.937 -0.3278  0.4429  0.3715
  126MOL0     O16503   7.326   3.503  10.994 -0.4832  1.4379 -0.0495
  126MOL0     C16504   7.471   3.520  10.973  0.4857  0.4277 -0.6739
  126MOL0     C16505   7.556   3.410  10.957 -0.4526  0.1724 -0.2537
  126MOL0     C16506   7.690   3.419  10.937 -0.2839  0.4143  0.1191
  126MOL0     C16507   7.752   3.540  10.947  0.1669 -0.4482 -0.4064
  126MOL0     O16508   7.886   3.545  10.915  0.3487  0.1921  0.7756
  126MOL0     C16509   7.919   3.587  10.786 -0.1679 -0.2054 -0.8521
  126MOL0     C16510   8.073   3.618  10.782  0.7970 -0.2741  0.3102
  126MOL0     C16511   8.124   3.640  10.638  0.3838  0.2916 -0.4030
  126MOL0     C16512   8.279   3.673  10.646  0.1085 -0.2546  0.0547
  126MOL0     C16513   8.364   3.566  10.614  0.2242  0.6538  0.5368
  126MOL0     C16514   8.521   3.617  10.617  0.0720  0.7671  0.4348
  126MOL0     C16515   8.600   3.514  10.524  0.8962  0.3713  0.7452
  126MOL0     C16516   8.739   3.547  10.484  0.5299  0.4781  0.0810
  126MOL0     N16517   8.806   3.427  10.439  0.3488  0.2116  0.0914
  126MOL0     C16518   8.808   3.369  10.308  0.2465  0.1493 -0.8078
  126MOL0     C16519   8.911   3.283  10.307 -0.1712  0.4339 -0.6001
  126MOL0     C16520   8.955   3.221  10.181  0.6304  1.3197  0.0772
  126MOL0     C16521   8.902   3.080  10.171  0.6046  0.0147  0.2029
  126MOL0     C16522   8.978   2.982  10.079 -0.0293  0.8461  0.0897
  126MOL0     C16523   8.900   2.849  10.062 -0.2777  0.1130 -0.3206
  126MOL0     O16524   8.767   2.871  10.029  0.5983  0.0087 -0.3725
  126MOL0     C16525   8.705   2.788   9.948  0.0679 -0.6733  0.5464
  126MOL0     C16526   8.569   2.770   9.971 -0.3689 -0.6276 -0.2010
  126MOL0     C16527   8.495   2.673   9.896 -0.0271 -0.2182  0.0824
  126MOL0     C16528   8.544   2.605   9.782  0.6571 -0.9608 -0.9647
  126MOL0     C16529   8.463   2.504   9.708 -0.3856  0.4068  0.4600
  126MOL0     O16530   8.333   2.525   9.718 -0.1443  0.2326 -0.7485
  126MOL0     C16531   8.239   2.450   9.657 -0.1754  0.0871 -0.4839
  126MOL0     C16532   8.217   2.456   9.518 -0.5209 -0.3926 -0.6324
  126MOL0     C16533   8.132   2.364   9.458 -0.5829  0.4093 -0.4336
  126MOL0     C16534   8.065   2.265   9.532  0.5811 -0.1659  1.1270
  126MOL0     O16535   7.995   2.175   9.456  0.2086 -1.0699 -0.5050
  126MOL0     C16536   7.917   2.068   9.525  0.1662 -0.0759  0.0008
  126MOL0     C16537   7.855   1.989   9.411 -0.1971  0.7865  0.8601
  126MOL0     C16538   7.852   1.848   9.446  0.0894  0.8908  0.2450
  126MOL0     C16539   7.785   1.811   9.581  0.1335 -0.4780 -0.0225
  126MOL0     C16540   7.647   1.859   9.613  0.0865  0.3046  0.2755
  126MOL0     C16541   7.596   1.766   9.727  0.4471  0.6522 -0.5889
  126MOL0     C16542   7.436   1.775   9.725 -0.4338 -0.4579 -0.7936
  126MOL0     C16543   7.391   1.718   9.861  0.2660 -0.3668 -0.7583
  126MOL0    Cl16544   7.414   1.540   9.888  0.6251 -0.3846 -0.1024
  126MOL0     C16545   8.083   2.255   9.672 -0.5249  1.1124  0.5237
  126MOL0     C16546   8.165   2.348   9.728 -0.1046  0.0271 -0.0521
  126MOL0     O16547   8.529   2.423   9.640 -0.6682 -0.8411  0.0585
  126MOL0     C16548   8.683   2.619   9.758 -0.7312  0.3716  0.2758
  126MOL0     C16549   8.763   2.705   9.842  0.0864 -0.0122 -1.5691
  126MOL0     N16550   8.961   3.277  10.432 -0.1334  0.3883  0.0988
  126MOL0     N16551   8.891   3.359  10.515  0.0944  0.9462  0.9199
  126MOL0     C16552   7.673   3.652  10.972  0.1238  0.5352  0.1155
  126MOL0     C16553   7.536   3.645  10.987  0.3989 -0.1261  0.7027
  126MOL0     C16554   7.098   3.566  10.953  0.0313 -0.3234  0.4727
  126MOL0     C16555   6.996   3.626  10.878 -0.8265  0.5256 -0.0929
  126MOL0     C16556   6.859   3.615  10.904 -0.6363 -0.6234 -0.0986
  126MOL0     C16557   6.820   3.552  11.022 -0.0467  0.3705 -1.0254
  126MOL0     O16558   6.690   3.533  11.058  0.3009  0.0766  0.0142
  126MOL0     C16559   6.588   3.579  10.971 -0.0227  1.2244  0.2733
  126MOL0     C16560   6.453   3.513  11.013  0.2227 -0.2271 -0.8740
  126MOL0     C16561   6.426   3.503  11.167 -0.3230  0.3021 -0.7378
  126MOL0     C16562   6.396   3.638  11.234 -0.1553 -0.0611 -0.4570
  126MOL0     C16563   6.257   3.675  11.209 -0.3262  0.1337 -0.3168
  126MOL0     C16564   6.142   3.701  11.179 -0.1904  0.3074  0.5086
  126MOL0     C16565   6.920   3.494  11.102 -0.3494  0.7623 -0.0886
  126MOL0     C16566   7.055   3.497  11.062 -0.8226  0.0587 -0.7886
  126MOL0     H16567   7.512   3.312  10.937  1.2019 -0.2276 -2.2930
  126MOL0     H16568   7.738   3.325  10.909 -1.3540  0.3401 -1.6420
  126MOL0     H16569   7.862   3.674  10.751 -1.6254 -1.3760 -1.5166
  126MOL0     H16570   7.907   3.504  10.715  0.9326 -0.0916 -1.1998
  126MOL0     H16571   8.129   3.533  10.821  0.6558  0.3053  1.8678
  126MOL0     H16572   8.104   3.706  10.839  1.4679  1.3934 -2.4552
  126MOL0     H16573   8.074   3.732  10.606  0.9872  0.3428 -1.2272
  126MOL0     H16574   8.096   3.549  10.585 -0.7405  0.5889 -0.3376
  126MOL0     H16575   8.299   3.737  10.560 -1.6156  0.8863  0.4378
  126MOL0     H16576   8.313   3.732  10.732  0.5108 -0.8146  0.2862
  126MOL0     H16577   8.331   3.530  10.516  0.3696  3.9666 -0.8647
  126MOL0     H16578   8.358   3.477  10.677  0.0900  1.1245  1.2001
  126MOL0     H16579   8.576   3.617  10.711  3.0791 -1.0951 -1.1612
  126MOL0     H16580   8.515   3.718  10.576  3.9045  1.7352  1.8115
  126MOL0     H16581   8.604   3.423  10.584 -2.0008  1.5350  2.9789
  126MOL0     H16582   8.545   3.492  10.432 -0.7168 -1.3409  2.0442
  126MOL0     H16583   8.799   3.575  10.571  2.8937  1.4339 -1.7392
  126MOL0     H16584   8.741   3.628  10.410 -0.3534 -0.2656 -0.7802
  126MOL0     H16585   8.743   3.397  10.226  0.6919 -0.0437 -1.2335
  126MOL0     H16586   9.064   3.222  10.180  0.6541  0.2222  0.4000
  126MOL0     H16587   8.924   3.286  10.099 -2.2593 -0.8679 -0.7839
  126MOL0     H16588   8.796   3.084  10.146  0.6116  1.9029  0.3069
  126MOL0     H16589   8.902   3.040  10.272 -0.3114  2.3084  1.1766
  126MOL0     H16590   8.977   3.017   9.975  2.6227 -0.2199 -0.3865
  126MOL0     H16591   9.082   2.962  10.107 -0.1465 -2.4323 -1.3287
  126MOL0     H16592   8.910   2.802  10.160  2.9618  0.5589 -0.3236
  126MOL0     H16593   8.955   2.786   9.992  4.0002  2.2605  0.8049
  126MOL0     H16594   8.515   2.813  10.054  1.2477  3.6028 -1.1111
  126MOL0     H16595   8.393   2.655   9.931  0.4530 -2.6621  0.3824
  126MOL0     H16596   8.275   2.528   9.460 -2.5509  1.1191 -0.8937
  126MOL0     H16597   8.117   2.368   9.351  0.0610  1.2301 -0.5088
  126MOL0     H16598   7.845   2.119   9.590  0.4761  1.8641 -1.0876
  126MOL0     H16599   7.987   2.010   9.585 -0.7081  0.8020  1.9578
  126MOL0     H16600   7.907   2.000   9.316 -4.7578  0.3179 -1.9907
  126MOL0     H16601   7.752   2.025   9.398 -0.5314 -0.4132  0.0280
  126MOL0     H16602   7.954   1.808   9.444 -1.0840 -2.4280  0.9361
  126MOL0     H16603   7.802   1.792   9.366  0.3422 -0.2374  0.8556
  126MOL0     H16604   7.792   1.702   9.575 -3.7035 -0.7841 -3.4703
  126MOL0     H16605   7.852   1.832   9.664 -2.5289  0.9857  1.9222
  126MOL0     H16606   7.591   1.848   9.520  1.0277 -1.2877 -0.1352
  126MOL0     H16607   7.652   1.965   9.639 -0.7576  1.2258 -2.8709
  126MOL0     H16608   7.643   1.803   9.819  1.4798 -2.2000  0.1311
  126MOL0     H16609   7.619   1.661   9.710  0.8288  0.6886 -0.3266
  126MOL0     H16610   7.424   1.883   9.711  1.1569 -0.1877 -0.2994
  126MOL0     H16611   7.391   1.714   9.646  2.7318 -1.6476 -1.8290
  126MOL0     H16612   7.286   1.745   9.875 -0.4573 -2.0154 -2.5620
  126MOL0     H16613   7.449   1.773   9.935  2.8795  2.2504 -4.4598
  126MOL0     H16614   8.054   2.164   9.724  1.5699 -1.9966 -3.1705
  126MOL0     H16615   8.190   2.348   9.833  0.3244  1.3174 -0.1352
  126MOL0     H16616   8.723   2.564   9.674  0.6893  0.8407  0.6291
  126MOL0     H16617   8.870   2.710   9.823  0.8566  1.9042  2.3672
  126MOL0     H16618   7.710   3.754  10.973 -1.2002  1.0327  1.5193
  126MOL0     H16619   7.491   3.743  10.996 -0.9020 -0.5051 -1.0378
  126MOL0     H16620   7.026   3.676  10.787 -2.2854 -0.5612 -1.2331
  126MOL0     H16621   6.793   3.663  10.834  0.8113 -0.4840 -1.4250
  126MOL0     H16622   6.594   3.543  10.868 -1.5353  1.6112  0.0311
  126MOL0     H16623   6.583   3.688  10.971  1.3947  1.3712 -2.3698
  126MOL0     H16624   6.362   3.557  10.972  0.1213 -1.8125 -2.4381
  126MOL0     H16625   6.463   3.412  10.974  2.5554 -0.0214 -0.9817
  126MOL0     H16626   6.513   3.453  11.210 -1.3261 -1.3734 -0.5476
  126MOL0     H16627   6.347   3.429  11.179  0.9114 -0.6161  2.8277
  126MOL0     H16628   6.402   3.619  11.342 -2.9685  1.7854  0.1312
  126MOL0     H16629   6.465   3.716  11.199 -0.8445  1.8037  2.0085
  126MOL0     H16630   6.041   3.734  11.165  0.0445  0.2582 -1.7807
  126MOL0     H16631   6.897   3.448  11.198  0.6163  0.3366 -0.0529
  126MOL0     H16632   7.133   3.452  11.124 -0.6932  0.5871 -0.5581
  127MOL0     O16633   5.886   6.963   2.979 -0.3753  0.3497  0.1341
  127MOL0     C16634   5.920   7.062   2.914 -0.6284 -0.0694  0.1899
  127MOL0     O16635   5.844   7.128   2.826  1.9015  0.4351 -0.0358
  127MOL0     C16636   5.713   7.075   2.800  0.3440 -0.1535 -0.6029
  127MOL0     C16637   5.694   6.965   2.716  0.1574  0.5535 -0.2028
  127MOL0     C16638   5.566   6.914   2.694  0.3283  0.1062 -0.4644
  127MOL0     C16639   5.458   6.969   2.763 -0.4336 -0.4188 -0.1093
  127MOL0     O16640   5.331   6.918   2.742  0.5140 -0.2374 -0.3027
  127MOL0     C16641   5.234   6.928   2.854  0.5123 -1.7346 -0.0928
  127MOL0     C16642   5.100   6.911   2.793 -0.1125  0.4300  0.0112
  127MOL0     C16643   5.057   7.024   2.697  0.0365 -0.1131 -0.6712
  127MOL0     C16644   4.928   6.988   2.617  1.0076  0.5485 -0.0512
  127MOL0     C16645   4.877   7.096   2.515 -0.0995 -0.2883  0.0394
  127MOL0     C16646   4.766   7.040   2.425 -0.4358 -0.7912  0.7269
  127MOL0     C16647   4.721   7.152   2.319  0.3271 -0.5514 -0.7466
  127MOL0     C16648   4.609   7.119   2.229 -0.5989 -0.7026  0.2185
  127MOL0     N16649   4.615   7.221   2.126 -0.0581 -0.3105  0.6369
  127MOL0     C16650   4.564   7.356   2.129 -0.7745  0.3207  0.0331
  127MOL0     C16651   4.576   7.378   1.992 -0.2047 -0.8452 -0.0908
  127MOL0     C16652   4.553   7.512   1.926  0.7196  0.0946 -0.2703
  127MOL0     C16653   4.420   7.534   1.864 -0.3328 -0.5584 -1.8999
  127MOL0     C16654   4.380   7.684   1.861  0.2943  0.1646 -0.5151
  127MOL0     C16655   4.238   7.695   1.796 -0.6477 -0.0432  0.0048
  127MOL0     O16656   4.175   7.823   1.814  0.6120 -0.8408  1.3137
  127MOL0     C16657   4.090   7.847   1.919 -0.5501  0.4332  0.1618
  127MOL0     C16658   4.066   7.764   2.028 -0.1270  0.3305  0.1370
  127MOL0     C16659   3.966   7.792   2.116  0.0593 -0.1038  0.0670
  127MOL0     C16660   3.894   7.910   2.110 -0.2202 -0.2896  0.3147
  127MOL0     C16661   3.792   7.943   2.222  0.4896 -0.1685 -0.1038
  127MOL0     O16662   3.774   7.854   2.317  0.7960 -0.5622 -0.0881
  127MOL0     C16663   3.697   7.888   2.423 -0.7188  0.0456 -0.7672
  127MOL0     C16664   3.563   7.909   2.420  0.4695  1.1843 -0.0213
  127MOL0     C16665   3.478   7.938   2.529 -0.5125 -0.1166  0.6405
  127MOL0     C16666   3.542   7.947   2.648  0.5012 -0.1998 -0.2713
  127MOL0     O16667   3.449   7.976   2.747 -0.2532  0.1436 -0.1659
  127MOL0     C16668   3.470   7.931   2.878 -0.4897  0.7782 -0.2839
  127MOL0     C16669   3.352   7.941   2.966 -0.2355 -0.2523  0.7795
  127MOL0     C16670   3.387   7.925   3.117  0.1214 -0.0952  0.3667
  127MOL0     C16671   3.271   7.875   3.201 -0.7988  0.0571  0.5187
  127MOL0     C16672   3.294   7.824   3.345 -0.4782  1.4587 -0.2608
  127MOL0     C16673   3.360   7.685   3.353 -0.3416 -0.4424 -0.1589
  127MOL0     C16674   3.393   7.671   3.505 -0.1187 -0.6730  1.0294
  127MOL0     C16675   3.447   7.536   3.538 -0.9765  1.3998 -0.0999
  127MOL0    Cl16676   3.319   7.402   3.495 -0.2288 -0.3395  0.2846
  127MOL0     C16677   3.685   7.926   2.662  0.3583  1.0050 -0.5384
  127MOL0     C16678   3.760   7.897   2.546 -0.3840  0.0909 -0.1070
  127MOL0     O16679   3.742   8.057   2.224 -0.5573  0.6933 -0.5257
  127MOL0     C16680   3.915   7.998   2.002 -0.8399 -0.0835  0.3653
  127MOL0     C16681   4.012   7.964   1.908  0.2566 -0.3331 -0.3952
  127MOL0     N16682   4.625   7.281   1.922 -0.1400  0.3517 -0.1836
  127MOL0     N16683   4.646   7.184   2.001  0.3497  0.1116  0.3346
  127MOL0     C16684   5.477   7.094   2.838  1.1523  0.6871  0.5014
  127MOL0     C16685   5.605   7.142   2.859 -0.0276  0.3800  0.5930
  127MOL0     C16686   6.063   7.111   2.925  0.7193 -0.2762 -0.2408
  127MOL0     C16687   6.137   7.147   2.812 -0.3219 -1.2639 -0.7198
  127MOL0     C16688   6.275   7.189   2.826  0.6106 -0.2293  0.9096
  127MOL0     C16689   6.327   7.213   2.952 -0.0356  0.5437 -1.0262
  127MOL0     O16690   6.447   7.269   2.987 -0.2404  0.1431 -0.2523
  127MOL0     C16691   6.550   7.282   2.884  0.1225 -0.1415  0.4621
  127MOL0     C16692   6.679   7.332   2.953 -0.1533  0.1618  0.3190
  127MOL0     C16693   6.659   7.466   3.015  0.9874 -0.5365 -0.4092
  127MOL0     C16694   6.793   7.540   3.035 -0.1853 -0.4052 -0.5329
  127MOL0     C16695   6.899   7.449   3.072  0.1240  0.1034 -0.7827
  127MOL0     C16696   6.987   7.363   3.078 -0.3654 -0.3626 -0.2053
  127MOL0     C16697   6.243   7.193   3.064  0.0770  0.3358  0.6822
  127MOL0     C16698   6.118   7.129   3.055 -0.6709 -0.0435  0.1714
  127MOL0     H16699   5.778   6.919   2.666  0.7209  2.5741 -1.2380
  127MOL0     H16700   5.549   6.832   2.624 -0.2973  0.7529 -1.0835
  127MOL0     H16701   5.227   7.026   2.902  0.5393 -0.8886 -1.7538
  127MOL0     H16702   5.255   6.843   2.920  0.1359 -1.9073 -0.1937
  127MOL0     H16703   5.029   6.887   2.872 -0.8015 -2.3167 -1.2977
  127MOL0     H16704   5.111   6.819   2.733 -1.9282  1.2197 -1.6505
  127MOL0     H16705   5.131   7.047   2.620  0.1022 -0.5738 -0.7462
  127MOL0     H16706   5.038   7.115   2.754  0.4453 -0.9988  0.9380
  127MOL0     H16707   4.959   6.899   2.562  0.1743  0.2213  0.0025
  127MOL0     H16708   4.842   6.959   2.677 -0.9574  4.5988 -0.5524
  127MOL0     H16709   4.962   7.133   2.457  1.5031 -2.7649  0.6263
  127MOL0     H16710   4.835   7.173   2.580 -1.7324 -0.4499 -0.7611
  127MOL0     H16711   4.679   7.023   2.489 -1.4251 -1.1519 -0.6749
  127MOL0     H16712   4.803   6.948   2.378 -1.1604 -2.9518  3.9779
  127MOL0     H16713   4.698   7.247   2.367 -0.6499 -1.0337 -0.2098
  127MOL0     H16714   4.806   7.161   2.251 -0.4703 -1.5853 -1.9237
  127MOL0     H16715   4.511   7.128   2.278  0.5327  1.4218  2.3273
  127MOL0     H16716   4.616   7.020   2.185  2.3306 -0.7816  0.6580
  127MOL0     H16717   4.538   7.413   2.217 -1.1861  2.9835 -1.6814
  127MOL0     H16718   4.623   7.530   1.843 -0.9546  1.7920 -1.4088
  127MOL0     H16719   4.572   7.596   1.993  1.2752  1.0819 -1.6157
  127MOL0     H16720   4.341   7.479   1.916 -1.0230  0.9706 -1.2495
  127MOL0     H16721   4.415   7.500   1.760  1.5457  1.1644 -2.6384
  127MOL0     H16722   4.371   7.737   1.956 -2.4835  1.0346 -1.1568
  127MOL0     H16723   4.461   7.730   1.804 -0.9015  1.1721 -1.4497
  127MOL0     H16724   4.176   7.610   1.823 -1.0702 -0.7151 -2.7702
  127MOL0     H16725   4.248   7.678   1.688 -0.6413  0.6011 -0.1009
  127MOL0     H16726   4.121   7.673   2.047 -1.1404  0.0346  1.9170
  127MOL0     H16727   3.944   7.721   2.195  2.5508 -2.7423 -1.3852
  127MOL0     H16728   3.503   7.883   2.334  0.6386  0.7015 -0.0009
  127MOL0     H16729   3.376   7.961   2.501  1.4109  3.5722 -5.2159
  127MOL0     H16730   3.547   7.995   2.921  1.2971  0.3484 -2.6830
  127MOL0     H16731   3.498   7.825   2.877 -0.0412  0.8698  0.8150
  127MOL0     H16732   3.287   7.859   2.935  1.1725 -0.2578 -2.4707
  127MOL0     H16733   3.298   8.033   2.941  0.3739  0.0543  0.5682
  127MOL0     H16734   3.430   8.020   3.151 -0.9503  0.7410 -0.5511
  127MOL0     H16735   3.468   7.852   3.130 -2.6056 -3.6216 -0.7497
  127MOL0     H16736   3.188   7.945   3.198 -0.3411  0.5869 -0.1998
  127MOL0     H16737   3.235   7.784   3.152  1.9465 -2.1456  2.2623
  127MOL0     H16738   3.205   7.833   3.408 -0.7336  1.9705 -0.6900
  127MOL0     H16739   3.363   7.898   3.387  1.2130 -0.9878  1.5858
  127MOL0     H16740   3.444   7.676   3.283 -0.7925 -2.2394 -0.5082
  127MOL0     H16741   3.301   7.598   3.324 -0.7157 -1.4534  3.2704
  127MOL0     H16742   3.463   7.748   3.538  2.6823 -1.9525 -1.3879
  127MOL0     H16743   3.298   7.680   3.558  0.4607 -2.2252  2.4384
  127MOL0     H16744   3.449   7.544   3.647 -0.3855 -1.9281  0.2478
  127MOL0     H16745   3.541   7.509   3.488 -2.0589 -2.5907 -0.3335
  127MOL0     H16746   3.751   7.937   2.747  2.4184  1.3358 -2.0934
  127MOL0     H16747   3.864   7.867   2.556 -0.9868 -1.7602  1.1764
  127MOL0     H16748   3.855   8.088   2.000 -0.4358  0.2462  1.7938
  127MOL0     H16749   4.029   8.037   1.830 -0.5469  2.9094  2.2202
  127MOL0     H16750   5.392   7.155   2.866 -0.7422 -1.3385 -0.5733
  127MOL0     H16751   5.627   7.231   2.917  2.2612  0.3878 -0.1896
  127MOL0     H16752   6.094   7.141   2.712 -3.0233  0.8674  0.1957
  127MOL0     H16753   6.335   7.209   2.738  2.1327  0.5533  2.0780
  127MOL0     H16754   6.525   7.335   2.792  1.0385 -4.9392 -2.9591
  127MOL0     H16755   6.571   7.181   2.846  2.3023  0.1751  0.6691
  127MOL0     H16756   6.703   7.271   3.040 -1.1323  2.2080  2.1279
  127MOL0     H16757   6.758   7.332   2.878 -2.2489 -3.0757 -2.1849
  127MOL0     H16758   6.600   7.457   3.107  3.0574 -0.7225  0.9845
  127MOL0     H16759   6.595   7.519   2.944 -0.9912 -0.1561  1.5493
  127MOL0     H16760   6.816   7.594   2.942 -1.2629  0.4995 -0.3033
  127MOL0     H16761   6.774   7.618   3.110 -1.6958 -1.5724  0.3530
  127MOL0     H16762   7.064   7.289   3.086 -0.2758 -0.1553  1.0254
  127MOL0     H16763   6.271   7.219   3.166  3.7166 -0.9528  0.1402
  127MOL0     H16764   6.063   7.116   3.147  0.3739 -1.9883  0.5634
  128MOL0     O16765   8.222   7.153   8.681 -0.2189  0.2562 -0.5330
  128MOL0     C16766   8.339   7.189   8.711  0.7451  0.1894  0.1946
  128MOL0     O16767   8.445   7.119   8.676 -0.0089 -0.2973  0.0777
  128MOL0     C16768   8.443   6.991   8.633  0.0892 -0.2669 -0.7910
  128MOL0     C16769   8.449   6.891   8.727  0.0962  0.0424 -0.2285
  128MOL0     C16770   8.462   6.757   8.682 -0.2075 -0.5081 -0.2880
  128MOL0     C16771   8.452   6.726   8.548 -0.2759 -0.8326  0.4240
  128MOL0     O16772   8.435   6.600   8.497  0.1787  0.0062  0.4592
  128MOL0     C16773   8.388   6.492   8.581  0.2914 -0.1372  0.6686
  128MOL0     C16774   8.253   6.424   8.528 -0.2328 -0.2162  0.7531
  128MOL0     C16775   8.142   6.518   8.563 -0.5546  0.1261  0.1956
  128MOL0     C16776   8.010   6.465   8.499  0.1662  0.5537 -0.2508
  128MOL0     C16777   7.879   6.545   8.519  0.5528 -1.1037 -1.1530
  128MOL0     C16778   7.765   6.513   8.424 -1.1496  0.2344 -0.3747
  128MOL0     C16779   7.647   6.590   8.469  0.3944 -0.1095  0.0141
  128MOL0     C16780   7.559   6.516   8.570 -0.5700 -0.5053 -0.6875
  128MOL0     N16781   7.447   6.602   8.610 -0.6525 -0.4448 -0.6026
  128MOL0     C16782   7.462   6.698   8.713 -0.0871 -0.6451 -0.7215
  128MOL0     C16783   7.328   6.741   8.727  0.5281 -0.0813 -0.1747
  128MOL0     C16784   7.266   6.851   8.817  0.3262  0.2237  0.7666
  128MOL0     C16785   7.274   6.990   8.759  0.5227  1.6230  1.0523
  128MOL0     C16786   7.414   7.041   8.772 -0.2942 -0.3750 -0.8561
  128MOL0     C16787   7.420   7.186   8.736  0.2671 -1.0614 -0.4415
  128MOL0     O16788   7.563   7.215   8.733 -0.5842  0.1334  0.4416
  128MOL0     C16789   7.627   7.336   8.762 -0.4293 -0.0717  0.7273
  128MOL0     C16790   7.765   7.348   8.738 -0.8451 -0.4174 -0.0064
  128MOL0     C16791   7.841   7.459   8.785 -0.3048  0.1193  0.5873
  128MOL0     C16792   7.777   7.563   8.851  0.7184 -0.5985  0.0133
  128MOL0     C16793   7.842   7.683   8.925 -1.0414 -0.2230 -0.0622
  128MOL0     O16794   7.977   7.696   8.894 -0.7157  0.2636  0.1834
  128MOL0     C16795   8.039   7.793   8.970  0.4975  0.2277  0.4063
  128MOL0     C16796   8.088   7.749   9.090  0.9692  0.4901  0.1659
  128MOL0     C16797   8.150   7.842   9.175 -0.3760 -0.8265 -0.6200
  128MOL0     C16798   8.166   7.980   9.143 -0.0496 -0.1522  0.2770
  128MOL0     O16799   8.232   8.057   9.231  0.0876 -0.0720  0.0273
  128MOL0     C16800   8.172   8.188   9.250  0.1707  0.5249 -0.2418
  128MOL0     C16801   8.252   8.264   9.344  0.0676 -0.0120 -0.7946
  128MOL0     C16802   8.387   8.305   9.289 -0.6267 -0.2158 -0.1403
  128MOL0     C16803   8.450   8.401   9.401 -0.8997 -0.1688  0.6229
  128MOL0     C16804   8.597   8.446   9.375 -0.4451  0.6914  0.7233
  128MOL0     C16805   8.647   8.565   9.454  0.0433  0.3941  0.4462
  128MOL0     C16806   8.562   8.689   9.436  0.6128  0.0896  0.6944
  128MOL0     C16807   8.488   8.733   9.563  0.0224 -0.4897 -0.3102
  128MOL0    Cl16808   8.596   8.742   9.703 -0.2309  0.1201 -0.1414
  128MOL0     C16809   8.118   8.014   9.013  0.7768 -0.7688  0.1394
  128MOL0     C16810   8.048   7.920   8.937 -0.0790 -0.1321  1.2729
  128MOL0     O16811   7.774   7.741   9.014  0.2195 -0.0765  0.7622
  128MOL0     C16812   7.636   7.549   8.875  0.4284 -0.2096  0.6236
  128MOL0     C16813   7.558   7.443   8.816 -0.2932  0.0934  0.1745
  128MOL0     N16814   7.249   6.677   8.630  0.3287 -0.5892  0.1156
  128MOL0     N16815   7.328   6.610   8.551  0.1299 -0.1369 -0.8829
  128MOL0     C16816   8.434   6.830   8.459 -0.5922 -1.0084 -0.0656
  128MOL0     C16817   8.440   6.961   8.499 -0.4905  0.3002 -0.3028
  128MOL0     C16818   8.359   7.332   8.751 -0.2661  0.1055 -0.2417
  128MOL0     C16819   8.466   7.406   8.704  0.5256  0.1059  0.2393
  128MOL0     C16820   8.480   7.539   8.749  0.4769 -0.8918  1.1686
  128MOL0     C16821   8.389   7.602   8.836 -0.1373  0.4922 -0.6007
  128MOL0     O16822   8.391   7.731   8.882 -0.1183 -0.3353  0.2465
  128MOL0     C16823   8.455   7.823   8.796  0.1375 -0.5696 -0.0350
  128MOL0     C16824   8.598   7.857   8.818 -0.2153  0.3432 -0.4121
  128MOL0     C16825   8.619   7.952   8.936  0.2758 -0.9370  0.2949
  128MOL0     C16826   8.583   8.089   8.896  0.5895  0.8406 -0.1717
  128MOL0     C16827   8.659   8.156   8.794 -0.4622 -0.1384 -0.7162
  128MOL0     C16828   8.729   8.214   8.715 -0.2437 -0.9095 -0.5471
  128MOL0     C16829   8.299   7.519   8.895 -0.1052  1.2674 -0.1546
  128MOL0     C16830   8.270   7.382   8.853 -0.5272  0.4868  0.3646
  128MOL0     H16831   8.427   6.935   8.825  1.2047  2.7790 -1.0988
  128MOL0     H16832   8.465   6.678   8.757  1.1511 -1.4362 -1.2659
  128MOL0     H16833   8.378   6.521   8.686 -0.9776 -1.1157  0.8362
  128MOL0     H16834   8.458   6.408   8.571  0.0564 -0.0998 -1.8274
  128MOL0     H16835   8.247   6.327   8.578 -1.8833  0.4492  1.9486
  128MOL0     H16836   8.252   6.402   8.421  0.3074 -1.0010  0.9011
  128MOL0     H16837   8.166   6.617   8.524 -2.1197 -0.1535 -1.6140
  128MOL0     H16838   8.139   6.523   8.672  1.1466 -1.5669  0.3742
  128MOL0     H16839   8.026   6.449   8.392 -0.9559 -4.4045  0.0896
  128MOL0     H16840   8.001   6.365   8.542  0.1274 -0.5020 -2.5769
  128MOL0     H16841   7.920   6.645   8.503 -1.1536  0.4260  2.7812
  128MOL0     H16842   7.841   6.545   8.622 -2.1705 -1.0886 -2.0924
  128MOL0     H16843   7.741   6.407   8.409  2.3389 -0.8765  0.9525
  128MOL0     H16844   7.797   6.554   8.328  0.9977 -0.1274  0.1350
  128MOL0     H16845   7.674   6.692   8.498  1.0625  0.4633 -2.4004
  128MOL0     H16846   7.587   6.609   8.379 -3.5276  0.0094  2.4423
  128MOL0     H16847   7.615   6.491   8.660 -3.0581  0.9698  1.4070
  128MOL0     H16848   7.511   6.430   8.523 -0.2996 -0.8510 -0.3308
  128MOL0     H16849   7.543   6.727   8.778 -1.2089 -1.4845  1.1475
  128MOL0     H16850   7.314   6.836   8.914 -0.3989 -0.8548  0.9835
  128MOL0     H16851   7.160   6.827   8.828  0.2972 -0.1808 -0.2409
  128MOL0     H16852   7.211   7.059   8.816 -2.1322  2.0891 -2.0840
  128MOL0     H16853   7.248   6.974   8.653 -0.7468 -0.6167  1.6331
  128MOL0     H16854   7.461   7.022   8.869  1.3093  2.2711 -1.0014
  128MOL0     H16855   7.475   6.980   8.705  1.7124  2.4157 -1.7850
  128MOL0     H16856   7.376   7.254   8.810 -1.7244 -1.7981 -0.9085
  128MOL0     H16857   7.379   7.209   8.637  2.5935  1.0965 -1.0051
  128MOL0     H16858   7.813   7.261   8.693 -0.0084 -0.6787  1.3249
  128MOL0     H16859   7.948   7.471   8.779 -0.2319 -1.2730 -2.7863
  128MOL0     H16860   8.073   7.643   9.110 -0.2741  0.7313  0.6078
  128MOL0     H16861   8.177   7.804   9.273 -1.1678  0.6754  0.2172
  128MOL0     H16862   8.079   8.153   9.295  1.9910 -4.8121  0.0983
  128MOL0     H16863   8.158   8.244   9.157 -1.4412  1.0187  0.2735
  128MOL0     H16864   8.259   8.213   9.441 -2.7156 -1.2869 -1.1682
  128MOL0     H16865   8.196   8.356   9.358  0.7942  0.1884  1.1045
  128MOL0     H16866   8.361   8.366   9.202 -0.9801  0.9118  0.7244
  128MOL0     H16867   8.459   8.226   9.267  1.8778  2.0268 -0.4540
  128MOL0     H16868   8.395   8.496   9.401 -2.5823 -1.1043  1.3021
  128MOL0     H16869   8.448   8.377   9.507 -0.4969  3.0012  1.4660
  128MOL0     H16870   8.610   8.470   9.269  3.5685  0.5038  1.0170
  128MOL0     H16871   8.660   8.359   9.396  0.8266  1.1311 -1.0167
  128MOL0     H16872   8.748   8.605   9.438 -1.0512  4.0444  1.6194
  128MOL0     H16873   8.654   8.528   9.557  0.7016 -2.0867 -0.4194
  128MOL0     H16874   8.631   8.770   9.407  1.0460 -1.3306 -2.7673
  128MOL0     H16875   8.485   8.686   9.358  1.5402  1.6436 -0.3582
  128MOL0     H16876   8.408   8.664   9.592 -0.7360  0.2045 -0.6991
  128MOL0     H16877   8.449   8.835   9.556  0.4684 -0.3726 -1.2489
  128MOL0     H16878   8.131   8.111   8.965 -2.8511 -1.3861 -2.5230
  128MOL0     H16879   7.997   7.956   8.848  1.5381 -0.3452  0.2234
  128MOL0     H16880   7.582   7.628   8.925 -0.0597  0.3189 -0.7039
  128MOL0     H16881   7.451   7.433   8.827 -0.0808 -0.6812  2.0154
  128MOL0     H16882   8.422   6.811   8.353  4.3957  2.7042 -1.6958
  128MOL0     H16883   8.422   7.037   8.423  2.1109 -0.0046 -1.2943
  128MOL0     H16884   8.518   7.370   8.616  0.0532  0.3323 -0.1332
  128MOL0     H16885   8.557   7.602   8.707 -0.0012 -0.5522  0.7893
  128MOL0     H16886   8.387   7.909   8.794  0.6703 -0.1480 -1.6103
  128MOL0     H16887   8.443   7.780   8.696  0.0122 -1.4647  0.3571
  128MOL0     H16888   8.646   7.760   8.834 -0.6537  0.1697 -0.1222
  128MOL0     H16889   8.633   7.894   8.722 -0.8171 -0.0290 -0.7767
  128MOL0     H16890   8.720   7.934   8.974  0.6608 -1.5186 -0.9675
  128MOL0     H16891   8.553   7.922   9.019  1.3275  0.9023  1.8885
  128MOL0     H16892   8.477   8.102   8.872  0.8162 -0.4087 -2.0567
  128MOL0     H16893   8.601   8.166   8.972  1.1998  1.0635 -0.5367
  128MOL0     H16894   8.803   8.265   8.656 -0.1338  0.6760  0.9055
  128MOL0     H16895   8.243   7.556   8.981 -3.1640  0.6176 -1.7105
  128MOL0     H16896   8.202   7.316   8.906 -0.7853  1.6280  1.5087
  129MOL0     O16897   2.267  11.372   4.063  0.1441  0.6853 -0.0181
  129MOL0     C16898   2.254  11.299   4.165 -0.1305  0.7007  0.0229
  129MOL0     O16899   2.335  11.195   4.201  0.5867 -0.8114  0.4941
  129MOL0     C16900   2.448  11.193   4.135  0.1475 -0.3281  0.8536
  129MOL0     C16901   2.556  11.251   4.202 -0.4502  0.6005  0.2438
  129MOL0     C16902   2.678  11.264   4.144 -0.9880  1.2383  0.5188
  129MOL0     C16903   2.705  11.189   4.024 -0.4208  0.1689  0.8788
  129MOL0     O16904   2.833  11.193   3.954 -0.3919  0.4289 -0.2942
  129MOL0     C16905   2.894  11.317   3.940  0.0183  0.6513  0.3693
  129MOL0     C16906   3.029  11.304   3.870 -0.5009 -0.5369 -0.2232
  129MOL0     C16907   3.118  11.195   3.936  0.2690 -0.0346 -0.3219
  129MOL0     C16908   3.254  11.175   3.853  1.6488 -1.1692  0.5523
  129MOL0     C16909   3.335  11.056   3.910 -0.0299 -1.4027  0.7582
  129MOL0     C16910   3.468  11.038   3.826  0.1730 -0.3248  0.1895
  129MOL0     C16911   3.434  10.970   3.697  0.0221 -0.3432  0.0470
  129MOL0     C16912   3.551  10.934   3.598 -0.0822 -0.2627 -0.4483
  129MOL0     N16913   3.654  10.866   3.668  0.1491  0.5498  0.1960
  129MOL0     C16914   3.755  10.913   3.740 -1.0983  0.1906  0.4803
  129MOL0     C16915   3.830  10.806   3.780 -1.2019 -0.2294  0.4508
  129MOL0     C16916   3.953  10.814   3.874 -0.9417  0.5936  0.9044
  129MOL0     C16917   4.066  10.742   3.799 -0.4604  0.1470  1.0374
  129MOL0     C16918   4.152  10.833   3.719  0.1431 -0.1838 -0.6819
  129MOL0     C16919   4.270  10.761   3.668 -0.2420 -0.0664 -0.6824
  129MOL0     O16920   4.352  10.708   3.776 -0.1013  0.8935 -0.1930
  129MOL0     C16921   4.483  10.663   3.767  0.0539 -0.0114 -1.0077
  129MOL0     C16922   4.598  10.743   3.736  1.1101 -0.4456  0.7287
  129MOL0     C16923   4.724  10.672   3.725  0.4331  0.6286  0.8518
  129MOL0     C16924   4.735  10.535   3.752 -0.3091 -0.1920 -0.6365
  129MOL0     C16925   4.863  10.460   3.742  0.3543 -0.0124 -0.5615
  129MOL0     O16926   4.968  10.537   3.718  0.0972  0.2585 -0.6056
  129MOL0     C16927   5.095  10.483   3.705 -0.2447 -0.4670 -0.7421
  129MOL0     C16928   5.135  10.364   3.775 -0.3126  0.7598  0.1639
  129MOL0     C16929   5.255  10.301   3.749  0.9674  0.7113  1.1346
  129MOL0     C16930   5.344  10.367   3.654  0.8148  0.1518 -0.1112
  129MOL0     O16931   5.469  10.311   3.625 -0.5938  0.0564 -0.6925
  129MOL0     C16932   5.559  10.331   3.729 -0.1271  0.7692 -0.5704
  129MOL0     C16933   5.661  10.222   3.709  0.5017 -0.3011 -0.0689
  129MOL0     C16934   5.787  10.230   3.800  0.0794 -0.7845  0.4643
  129MOL0     C16935   5.880  10.115   3.789  0.2395  0.2768  0.1294
  129MOL0     C16936   5.992  10.132   3.896 -0.5819 -0.0116  0.1198
  129MOL0     C16937   6.078  10.000   3.911  0.2613 -0.2832  0.3519
  129MOL0     C16938   5.989   9.884   3.971  0.3625  0.5382  0.3406
  129MOL0     C16939   6.074   9.774   4.021  0.4998 -0.9114 -0.2079
  129MOL0    Cl16940   5.969   9.647   4.084  0.0744 -0.2609  0.4978
  129MOL0     C16941   5.300  10.480   3.590  0.0222 -0.8696  0.2502
  129MOL0     C16942   5.182  10.540   3.616  0.6481 -1.2186 -0.3758
  129MOL0     O16943   4.861  10.336   3.741 -0.1767 -0.6460 -0.5881
  129MOL0     C16944   4.634  10.470   3.818 -0.8477 -0.6427  0.6300
  129MOL0     C16945   4.507  10.528   3.819  0.9428 -0.1264  0.2118
  129MOL0     N16946   3.764  10.696   3.732 -0.2208 -0.0077  0.2605
  129MOL0     N16947   3.664  10.730   3.673  0.5831 -0.7690 -0.1854
  129MOL0     C16948   2.596  11.118   3.965  0.6661  0.3906  0.2473
  129MOL0     C16949   2.466  11.123   4.013 -0.2521  0.0681 -0.6016
  129MOL0     C16950   2.143  11.344   4.255  0.3195 -0.1713  1.0865
  129MOL0     C16951   2.071  11.253   4.332  0.1157 -0.1657 -0.5521
  129MOL0     C16952   1.958  11.276   4.414 -0.0431 -0.0946  0.7584
  129MOL0     C16953   1.914  11.408   4.414  0.4262  0.3496 -0.4133
  129MOL0     O16954   1.814  11.440   4.503 -0.3722 -0.1399  0.2866
  129MOL0     C16955   1.741  11.566   4.501 -0.1400  0.0626  0.1602
  129MOL0     C16956   1.593  11.532   4.531  0.1986 -0.0148 -0.4554
  129MOL0     C16957   1.494  11.651   4.494 -0.0934  0.1308 -0.2576
  129MOL0     C16958   1.486  11.670   4.345 -0.2517 -0.2053 -1.1400
  129MOL0     C16959   1.585  11.753   4.283 -0.9454  1.0102  0.0063
  129MOL0     C16960   1.675  11.833   4.250 -0.2913 -0.4666 -0.8643
  129MOL0     C16961   1.981  11.506   4.331 -0.3753 -0.2760  0.2546
  129MOL0     C16962   2.083  11.471   4.249  0.3223 -0.9416  0.2532
  129MOL0     H16963   2.545  11.285   4.305  1.7809 -0.3828  0.8630
  129MOL0     H16964   2.763  11.317   4.187  0.1417 -2.4783  3.3226
  129MOL0     H16965   2.900  11.370   4.036 -0.3322 -1.9589  1.9295
  129MOL0     H16966   2.834  11.378   3.872  2.9453 -1.1165 -4.2403
  129MOL0     H16967   3.095  11.390   3.860 -2.3064  0.7505 -1.9575
  129MOL0     H16968   2.999  11.284   3.767  0.8544  0.3646 -0.8177
  129MOL0     H16969   3.070  11.096   3.937  0.9016 -0.3635  1.6781
  129MOL0     H16970   3.127  11.222   4.042 -4.4597 -1.4797  0.7317
  129MOL0     H16971   3.227  11.170   3.747 -0.7821  3.0781  0.7815
  129MOL0     H16972   3.313  11.267   3.856 -0.4255  0.4598 -2.6417
  129MOL0     H16973   3.268  10.969   3.906 -1.8466 -0.0224 -2.3421
  129MOL0     H16974   3.352  11.074   4.016 -2.4745 -2.3187  1.3692
  129MOL0     H16975   3.532  10.969   3.882  0.7585 -0.8041 -1.0404
  129MOL0     H16976   3.515  11.135   3.807 -2.0780  0.5877 -1.1524
  129MOL0     H16977   3.385  10.877   3.726  3.2408 -1.9524  0.7216
  129MOL0     H16978   3.368  11.037   3.641 -1.1746 -0.2483  1.5012
  129MOL0     H16979   3.600  11.020   3.551 -0.6682  0.8124  0.8743
  129MOL0     H16980   3.505  10.884   3.512 -0.1311  1.0291 -1.2080
  129MOL0     H16981   3.774  11.019   3.754 -1.3581  0.2659  0.2649
  129MOL0     H16982   3.929  10.756   3.964  1.5959 -2.2734 -0.0898
  129MOL0     H16983   3.973  10.920   3.893 -1.4508  0.4969  2.0371
  129MOL0     H16984   4.042  10.642   3.760  3.3087 -0.2841 -0.6319
  129MOL0     H16985   4.130  10.715   3.884 -0.1602  1.3439  1.1971
  129MOL0     H16986   4.103  10.871   3.629  0.0604 -0.0265 -0.5699
  129MOL0     H16987   4.200  10.912   3.777 -2.9322  0.3412  1.3586
  129MOL0     H16988   4.333  10.833   3.615  0.9940 -0.5084  0.1241
  129MOL0     H16989   4.257  10.672   3.606 -0.5245 -2.2061  2.2218
  129MOL0     H16990   4.594  10.851   3.727 -2.0042  0.0282  4.8593
  129MOL0     H16991   4.817  10.723   3.702  2.4432 -2.0366  2.5794
  129MOL0     H16992   5.075  10.324   3.856 -0.5807  1.3563  0.2635
  129MOL0     H16993   5.290  10.209   3.796 -1.2133 -0.9461 -0.3114
  129MOL0     H16994   5.518  10.327   3.830  0.4623  1.0749 -0.3158
  129MOL0     H16995   5.610  10.425   3.708 -2.2056  1.6366 -2.1408
  129MOL0     H16996   5.685  10.237   3.604 -1.4598  0.5766 -0.4313
  129MOL0     H16997   5.614  10.123   3.716 -0.4918  0.1670 -0.0592
  129MOL0     H16998   5.749  10.233   3.902 -0.9313  2.1730  0.0783
  129MOL0     H16999   5.841  10.323   3.781  2.7391 -2.4078 -0.5379
  129MOL0     H17000   5.835  10.018   3.809  3.9809 -2.4454 -3.0790
  129MOL0     H17001   5.918  10.103   3.687 -1.7438 -1.9100 -0.4260
  129MOL0     H17002   5.948  10.163   3.991  1.0212  0.0803  0.8554
  129MOL0     H17003   6.046  10.223   3.870 -1.7645  0.2083 -1.8686
  129MOL0     H17004   6.162  10.017   3.979  0.8868  0.7106 -0.6285
  129MOL0     H17005   6.126   9.971   3.817  1.5094 -1.1520  1.2280
  129MOL0     H17006   5.932   9.921   4.057 -2.5294  0.2736 -1.3040
  129MOL0     H17007   5.916   9.841   3.901 -0.4871  0.7763  1.0587
  129MOL0     H17008   6.142   9.809   4.099  2.5597 -2.0658 -1.4217
  129MOL0     H17009   6.149   9.735   3.952  0.0131  2.1539 -2.7128
  129MOL0     H17010   5.367  10.513   3.511  2.5549 -0.3491  2.4389
  129MOL0     H17011   5.156  10.628   3.558 -0.2936 -1.0464  0.2813
  129MOL0     H17012   4.658  10.373   3.860  2.3705  0.6023  1.9457
  129MOL0     H17013   4.423  10.470   3.856  0.3589  0.3611 -0.3255
  129MOL0     H17014   2.626  11.048   3.887  1.5346  0.4808  0.4961
  129MOL0     H17015   2.388  11.060   3.971  1.1880 -2.5032  0.3950
  129MOL0     H17016   2.112  11.154   4.342  0.9649  0.3485  1.4489
  129MOL0     H17017   1.903  11.192   4.455 -0.5937 -1.4488 -2.4252
  129MOL0     H17018   1.745  11.619   4.405 -2.2446 -0.4051 -0.2357
  129MOL0     H17019   1.765  11.633   4.584  1.2358 -1.8510  1.3813
  129MOL0     H17020   1.574  11.433   4.488  0.1080 -0.1692 -0.0582
  129MOL0     H17021   1.574  11.518   4.638  1.6769 -0.6702 -0.2534
  129MOL0     H17022   1.527  11.743   4.542  0.4035 -1.3168  2.3163
  129MOL0     H17023   1.394  11.623   4.529 -0.3513  2.7330  1.4067
  129MOL0     H17024   1.494  11.571   4.299  3.4150 -1.5622  1.9100
  129MOL0     H17025   1.397  11.733   4.334  1.2682  2.4103  0.5327
  129MOL0     H17026   1.749  11.909   4.231  2.3952 -2.2327  1.6127
  129MOL0     H17027   1.945  11.608   4.319 -4.0252 -1.5763 -1.6357
  129MOL0     H17028   2.125  11.541   4.178 -0.0885  1.0826  1.8925
  130MOL0     O17029   6.223   2.147   0.704 -0.8231 -0.0418  0.2802
  130MOL0     C17030   6.181   2.239   0.773 -0.3466 -0.4155  1.3378
  130MOL0     O17031   6.073   2.318   0.747 -0.1299 -0.0119  0.7057
  130MOL0     C17032   6.017   2.305   0.621  0.5984  0.6508  0.4128
  130MOL0     C17033   6.049   2.384   0.516 -0.0398 -0.1009  0.6807
  130MOL0     C17034   5.989   2.376   0.395 -0.6388  0.4795 -0.2039
  130MOL0     C17035   5.903   2.268   0.369  0.0955  0.5680 -0.4550
  130MOL0     O17036   5.846   2.260   0.238 -0.0385 -0.2434 -0.6933
  130MOL0     C17037   5.754   2.151   0.216  0.6100 -0.9487  0.1363
  130MOL0     C17038   5.704   2.170   0.070 -0.1249  0.3520  0.6138
  130MOL0     C17039   5.565   2.119   0.034  0.4739  0.6742 -0.0794
  130MOL0     C17040   5.560   1.963   0.030 -0.5365 -0.1221 -0.3924
  130MOL0     C17041   5.427   1.907  -0.016 -0.2166  0.5668  0.0621
  130MOL0     C17042   5.329   1.879   0.097 -0.2378 -0.1055 -0.3273
  130MOL0     C17043   5.232   1.770   0.049 -0.3748 -0.0026  0.1675
  130MOL0     C17044   5.108   1.776   0.139  0.7262  0.0982 -0.2016
  130MOL0     N17045   4.996   1.703   0.079 -0.6355 -1.0195  1.1209
  130MOL0     C17046   4.993   1.578   0.016  0.0166 -0.4855  0.0432
  130MOL0     C17047   4.862   1.559  -0.016  0.5212  1.2379  0.2505
  130MOL0     C17048   4.807   1.451  -0.091  0.0423  0.3340  1.2326
  130MOL0     C17049   4.814   1.321  -0.008  0.0571  0.8054  0.0375
  130MOL0     C17050   4.714   1.218  -0.069 -0.4687  0.3025 -0.7811
  130MOL0     C17051   4.690   1.104   0.041  0.0160 -0.0089  0.2357
  130MOL0     O17052   4.626   0.992  -0.014  0.4255  0.0900  0.9297
  130MOL0     C17053   4.496   0.953   0.023 -0.8329 -0.4978  0.3872
  130MOL0     C17054   4.405   1.025   0.095  0.2863 -1.3320  0.4866
  130MOL0     C17055   4.273   0.984   0.109  0.9375 -0.5070 -0.3755
  130MOL0     C17056   4.231   0.863   0.055  0.4539  0.4574 -0.4696
  130MOL0     C17057   4.091   0.800   0.062 -0.2555 -0.9247  0.6255
  130MOL0     O17058   4.004   0.869   0.145  0.1975 -0.5846 -0.0492
  130MOL0     C17059   3.881   0.806   0.156 -0.0479 -0.7789 -0.3264
  130MOL0     C17060   3.776   0.810   0.067  0.3913 -1.1483  0.8677
  130MOL0     C17061   3.661   0.734   0.099  0.5045 -0.1161  0.5578
  130MOL0     C17062   3.645   0.680   0.223 -0.3802  0.2533 -0.4944
  130MOL0     O17063   3.529   0.615   0.254 -0.1052 -0.8088 -0.3406
  130MOL0     C17064   3.491   0.589   0.391 -0.2850  1.0186 -0.2809
  130MOL0     C17065   3.335   0.575   0.412 -0.4867  0.4333  0.6796
  130MOL0     C17066   3.284   0.456   0.329 -0.3203 -0.5591 -0.1435
  130MOL0     C17067   3.142   0.467   0.315  0.2196  0.4424 -0.3036
  130MOL0     C17068   3.076   0.328   0.269  0.0721 -0.5796 -0.5034
  130MOL0     C17069   3.133   0.262   0.144  0.0564  0.5568  0.8473
  130MOL0     C17070   3.035   0.163   0.087  0.9055 -0.5262 -0.3226
  130MOL0     C17071   3.087   0.090  -0.038  0.8185 -0.5356 -0.1636
  130MOL0    Cl17072   3.138   0.208  -0.171 -0.0876 -0.1280 -0.3705
  130MOL0     C17073   3.753   0.677   0.311  0.7470 -1.3238 -1.4153
  130MOL0     C17074   3.870   0.742   0.276 -0.3580  0.1144 -1.5194
  130MOL0     O17075   4.061   0.711  -0.016  0.4807 -0.5642  0.0446
  130MOL0     C17076   4.337   0.791  -0.014 -0.1625  0.2995  0.1225
  130MOL0     C17077   4.460   0.838  -0.030  0.3362  0.2146 -0.0069
  130MOL0     N17078   4.795   1.665   0.025  0.0537 -0.8575  0.5211
  130MOL0     N17079   4.871   1.754   0.086  0.1030 -0.3535  0.6804
  130MOL0     C17080   5.866   2.182   0.473 -0.7857  0.5583 -0.3517
  130MOL0     C17081   5.911   2.209   0.605  0.2108  0.1037  0.5313
  130MOL0     C17082   6.247   2.243   0.907 -0.7192 -0.4753 -0.3453
  130MOL0     C17083   6.375   2.186   0.929  0.2766 -0.5583 -1.3501
  130MOL0     C17084   6.433   2.189   1.058 -0.0183 -0.4962 -0.0284
  130MOL0     C17085   6.362   2.249   1.163  0.6667  0.2994 -0.0333
  130MOL0     O17086   6.412   2.252   1.291 -0.4486  0.4852 -0.0760
  130MOL0     C17087   6.546   2.315   1.312 -0.4432  0.1104  0.5186
  130MOL0     C17088   6.521   2.427   1.424  0.1573 -0.2132 -0.3532
  130MOL0     C17089   6.512   2.359   1.565  0.1487 -0.5373  0.1131
  130MOL0     C17090   6.467   2.444   1.681 -0.8568  0.1343  0.4170
  130MOL0     C17091   6.561   2.563   1.701  0.2105  1.2310  0.3149
  130MOL0     C17092   6.619   2.667   1.707 -0.5999  0.1798  0.0895
  130MOL0     C17093   6.235   2.312   1.146 -0.4070 -0.8419  1.4468
  130MOL0     C17094   6.184   2.304   1.011  0.2995 -0.2755 -0.8043
  130MOL0     H17095   6.131   2.455   0.518  0.8508 -1.0837  2.9300
  130MOL0     H17096   6.017   2.453   0.324 -1.5380 -1.2642 -2.6153
  130MOL0     H17097   5.670   2.160   0.285  1.8158 -3.3339  2.0808
  130MOL0     H17098   5.806   2.054   0.222  0.5141 -1.2499 -2.6111
  130MOL0     H17099   5.766   2.114  -0.000 -1.5691  0.5266 -0.8716
  130MOL0     H17100   5.701   2.275   0.040 -0.9074  0.4317  0.9493
  130MOL0     H17101   5.526   2.155  -0.061  1.0696 -1.1041 -1.0569
  130MOL0     H17102   5.496   2.144   0.115  0.2339 -0.7923  0.2078
  130MOL0     H17103   5.644   1.929  -0.032  1.9839 -0.8870  3.1360
  130MOL0     H17104   5.585   1.923   0.128 -2.7455  0.4676  0.4534
  130MOL0     H17105   5.463   1.817  -0.067  1.0525  0.8311  0.4381
  130MOL0     H17106   5.382   1.973  -0.090 -3.1509 -0.6184  0.6665
  130MOL0     H17107   5.275   1.972   0.116  0.5693  1.0054 -2.9067
  130MOL0     H17108   5.379   1.845   0.188 -0.2898 -3.1238 -1.3358
  130MOL0     H17109   5.208   1.784  -0.057 -0.5454  0.6580  0.2902
  130MOL0     H17110   5.277   1.672   0.062 -0.5580 -0.1825 -0.4856
  130MOL0     H17111   5.083   1.880   0.164  0.0943 -0.2836  0.8110
  130MOL0     H17112   5.134   1.711   0.223  0.3581 -1.7457 -1.4553
  130MOL0     H17113   5.083   1.520  -0.001 -0.1051 -0.9181  0.8270
  130MOL0     H17114   4.869   1.436  -0.180 -1.4034 -0.4335  0.3320
  130MOL0     H17115   4.711   1.479  -0.133 -0.1119  2.1966  2.6759
  130MOL0     H17116   4.799   1.323   0.100  0.4903  0.6039  0.1048
  130MOL0     H17117   4.921   1.299  -0.004  1.0065  4.5734 -0.9500
  130MOL0     H17118   4.616   1.256  -0.101 -0.9578  1.1479  1.5514
  130MOL0     H17119   4.776   1.173  -0.148  0.9356 -1.8950  1.4428
  130MOL0     H17120   4.642   1.142   0.132  3.4735 -1.1086  2.7099
  130MOL0     H17121   4.784   1.070   0.084 -0.1920  0.5932  1.2066
  130MOL0     H17122   4.420   1.133   0.093  1.4605 -1.4802 -1.7389
  130MOL0     H17123   4.207   1.050   0.166 -0.1924  0.8665 -3.0831
  130MOL0     H17124   3.786   0.889  -0.007 -0.0702 -2.1807 -0.3171
  130MOL0     H17125   3.570   0.741   0.039  1.3760  0.0167 -0.7794
  130MOL0     H17126   3.525   0.672   0.453 -1.6439  1.7274 -0.4614
  130MOL0     H17127   3.540   0.500   0.432  1.1957  3.4462  3.8511
  130MOL0     H17128   3.291   0.669   0.377 -1.6128 -0.2465  0.2325
  130MOL0     H17129   3.321   0.559   0.519 -0.1063  0.1172  0.6848
  130MOL0     H17130   3.308   0.358   0.371  1.8618 -0.6929 -1.5222
  130MOL0     H17131   3.319   0.446   0.226  0.5895  0.6758  0.0226
  130MOL0     H17132   3.110   0.489   0.417  0.6444  2.5381 -0.5912
  130MOL0     H17133   3.113   0.546   0.246 -3.8016 -1.7760 -1.4737
  130MOL0     H17134   2.968   0.342   0.258  0.1951  1.3182  0.2036
  130MOL0     H17135   3.083   0.244   0.339  0.2561  1.1759  1.7436
  130MOL0     H17136   3.230   0.216   0.169  0.4805  0.9969  0.0492
  130MOL0     H17137   3.154   0.347   0.079  1.3306  1.0157  1.8049
  130MOL0     H17138   3.002   0.098   0.168  0.9123  1.9516  1.8074
  130MOL0     H17139   2.948   0.222   0.057  0.4100 -0.1107  1.7679
  130MOL0     H17140   3.015   0.018  -0.076  1.1645 -1.1121  0.2607
  130MOL0     H17141   3.180   0.036  -0.021  1.7203  0.8755 -0.3766
  130MOL0     H17142   3.739   0.633   0.409 -1.8040  0.3108 -0.9709
  130MOL0     H17143   3.952   0.746   0.348 -1.5146  2.4462 -0.2100
  130MOL0     H17144   4.320   0.692  -0.057  1.4288  0.1244 -0.1485
  130MOL0     H17145   4.541   0.789  -0.082 -1.6593 -3.5544  0.0558
  130MOL0     H17146   5.794   2.101   0.462  0.1894 -0.0162 -3.8866
  130MOL0     H17147   5.889   2.137   0.684  1.5334 -1.4114 -0.4051
  130MOL0     H17148   6.431   2.143   0.846  0.6547 -2.1999 -0.2720
  130MOL0     H17149   6.524   2.133   1.077  0.4674  0.7998  1.7313
  130MOL0     H17150   6.580   2.371   1.224  0.2077  0.2198  0.8340
  130MOL0     H17151   6.608   2.234   1.353 -0.8097 -0.3376  0.1998
  130MOL0     H17152   6.592   2.510   1.412  1.2255 -1.1449 -0.6551
  130MOL0     H17153   6.421   2.467   1.401 -0.0761  0.7235  2.0379
  130MOL0     H17154   6.609   2.322   1.600 -0.4710  1.5699  4.7974
  130MOL0     H17155   6.452   2.268   1.554 -2.3643  0.9978  0.4273
  130MOL0     H17156   6.363   2.476   1.668 -1.1107 -0.6379  0.4713
  130MOL0     H17157   6.472   2.381   1.770  5.0713  0.4321  0.6543
  130MOL0     H17158   6.662   2.764   1.727 -0.5348 -0.0002  0.8428
  130MOL0     H17159   6.181   2.361   1.227 -2.6119 -0.1014 -0.3632
  130MOL0     H17160   6.090   2.358   0.999  2.6085  4.3887 -0.4057
  131MOL0     O17161   9.092   3.694   3.244  0.0302  0.1566  0.8696
  131MOL0     C17162   9.193   3.642   3.291  0.3153 -0.9602 -0.2645
  131MOL0     O17163   9.205   3.542   3.380  0.3751 -0.4138 -0.1583
  131MOL0     C17164   9.092   3.482   3.423  0.7540 -0.2455 -1.8909
  131MOL0     C17165   9.057   3.489   3.559  0.6423 -1.2720  0.2046
  131MOL0     C17166   8.955   3.411   3.607 -0.5618 -0.1378 -0.0015
  131MOL0     C17167   8.878   3.326   3.527 -0.5606 -0.3422  0.6096
  131MOL0     O17168   8.765   3.252   3.560 -0.8732 -0.3013 -0.2099
  131MOL0     C17169   8.696   3.287   3.678 -0.2900  0.2307  0.7655
  131MOL0     C17170   8.571   3.201   3.683 -0.0049  0.4350 -0.1666
  131MOL0     C17171   8.458   3.286   3.751  0.7227  0.6851 -0.5816
  131MOL0     C17172   8.328   3.205   3.785  0.4454 -0.4269  0.6311
  131MOL0     C17173   8.210   3.295   3.807 -0.4183 -0.2482 -1.3107
  131MOL0     C17174   8.075   3.225   3.802 -0.2982  0.4784 -0.3015
  131MOL0     C17175   7.972   3.295   3.885  0.2334  0.4041  0.4481
  131MOL0     C17176   7.840   3.220   3.852  0.3201 -0.8667  0.6428
  131MOL0     N17177   7.820   3.106   3.934  0.0123  0.9890 -0.1107
  131MOL0     C17178   7.699   3.037   3.931 -0.5902 -0.2259  0.5467
  131MOL0     C17179   7.720   2.922   3.996 -0.0079  0.1867  0.1749
  131MOL0     C17180   7.619   2.810   4.023 -0.5427 -0.0224  1.0160
  131MOL0     C17181   7.519   2.857   4.129  0.7087  0.0648 -0.0960
  131MOL0     C17182   7.425   2.969   4.081  0.9531 -0.3168  0.5379
  131MOL0     C17183   7.288   2.974   4.153 -0.8820 -1.3860 -0.0074
  131MOL0     O17184   7.204   2.861   4.146 -0.7406  0.2104 -0.0876
  131MOL0     C17185   7.088   2.869   4.211 -0.1748  0.3083 -1.5689
  131MOL0     C17186   7.052   2.958   4.309  0.1156 -0.2657 -0.0239
  131MOL0     C17187   6.934   2.954   4.390 -0.9395  0.7900 -1.0296
  131MOL0     C17188   6.844   2.845   4.374  0.2807  0.6387 -0.1735
  131MOL0     C17189   6.717   2.841   4.462 -0.5998  0.5069  0.3532
  131MOL0     O17190   6.615   2.776   4.406  0.1431  0.1735  0.4453
  131MOL0     C17191   6.484   2.773   4.447  1.1831 -1.1229 -1.5439
  131MOL0     C17192   6.399   2.690   4.374 -0.3022  0.5589 -0.5059
  131MOL0     C17193   6.274   2.661   4.422 -0.8341 -0.2747  0.0807
  131MOL0     C17194   6.220   2.719   4.534  0.3217  0.2884 -0.1104
  131MOL0     O17195   6.093   2.680   4.568 -0.3173  0.1672  0.3655
  131MOL0     C17196   6.041   2.722   4.698 -0.4039  0.4991 -0.2539
  131MOL0     C17197   5.913   2.641   4.717 -0.1460  0.0358  1.4865
  131MOL0     C17198   5.825   2.654   4.595  0.0156 -0.2014 -0.1637
  131MOL0     C17199   5.691   2.577   4.604 -0.1385 -0.1763 -1.4568
  131MOL0     C17200   5.575   2.621   4.503 -0.3574 -1.0358  0.7911
  131MOL0     C17201   5.480   2.735   4.549  0.0256  0.1933  1.0020
  131MOL0     C17202   5.388   2.701   4.666 -1.0026 -0.1449  0.3654
  131MOL0     C17203   5.292   2.822   4.675  0.0210  0.6144 -0.0440
  131MOL0    Cl17204   5.187   2.782   4.804  0.1249  0.4092  0.2130
  131MOL0     C17205   6.306   2.807   4.608 -0.1965  0.3066 -0.3443
  131MOL0     C17206   6.435   2.834   4.567  0.2830 -0.2112 -0.4330
  131MOL0     O17207   6.726   2.875   4.577 -0.4381 -0.2837  0.3612
  131MOL0     C17208   6.875   2.745   4.281  0.7195 -0.3981 -0.9838
  131MOL0     C17209   6.987   2.767   4.192 -0.3695  0.1461  0.3383
  131MOL0     N17210   7.850   2.919   4.043  1.2171  0.4704 -0.0556
  131MOL0     N17211   7.917   3.014   3.984  0.2325  0.3116 -0.8120
  131MOL0     C17212   8.909   3.317   3.393  0.4341 -0.8195 -0.9974
  131MOL0     C17213   9.011   3.402   3.339  0.2879  0.5481  0.4261
  131MOL0     C17214   9.315   3.704   3.241 -0.1594 -0.0988 -0.0144
  131MOL0     C17215   9.432   3.700   3.327 -0.1467 -0.2102 -0.4680
  131MOL0     C17216   9.550   3.738   3.272 -0.7547  0.5238  0.5827
  131MOL0     C17217   9.573   3.789   3.143 -0.1945 -0.4384  0.5934
  131MOL0     O17218   9.697   3.841   3.122 -0.0866  0.4809 -0.6565
  131MOL0     C17219   9.737   3.878   2.987 -0.6624  0.4596 -0.0694
  131MOL0     C17220   9.864   3.958   2.994  0.9669  1.1056  0.2742
  131MOL0     C17221   9.851   4.069   3.090 -0.2955  0.1518  0.7600
  131MOL0     C17222   9.953   4.174   3.056  0.3287  0.4612 -0.0499
  131MOL0     C17223   9.995   4.246   3.179  0.0987  0.2826 -1.0900
  131MOL0     C17224  10.018   4.291   3.291 -0.1322  0.2026 -0.4211
  131MOL0     C17225   9.459   3.814   3.067  0.5362  0.6048  0.1812
  131MOL0     C17226   9.331   3.769   3.112 -0.2258  0.6521  0.3559
  131MOL0     H17227   9.131   3.537   3.622 -0.6902 -2.2510  2.6895
  131MOL0     H17228   8.942   3.403   3.715 -2.7989 -1.0099 -0.2832
  131MOL0     H17229   8.668   3.392   3.669  0.0436  0.1058 -3.4934
  131MOL0     H17230   8.753   3.265   3.769 -1.1632  0.4397  1.3754
  131MOL0     H17231   8.588   3.124   3.759 -0.9036  1.8244  1.5312
  131MOL0     H17232   8.537   3.154   3.590  0.8613  1.1413 -0.8596
  131MOL0     H17233   8.430   3.368   3.684  1.4594 -0.8566 -2.8832
  131MOL0     H17234   8.483   3.330   3.848 -4.6369  2.9265  0.1718
  131MOL0     H17235   8.305   3.142   3.699 -0.0326 -0.6339  0.9040
  131MOL0     H17236   8.334   3.142   3.874 -0.0083 -1.6675 -0.1924
  131MOL0     H17237   8.200   3.375   3.734 -1.0689  1.2011  0.3100
  131MOL0     H17238   8.222   3.343   3.904  0.2604  3.2983 -2.9965
  131MOL0     H17239   8.083   3.119   3.825  0.4924  0.4503 -0.6859
  131MOL0     H17240   8.044   3.239   3.698 -0.5706  0.8820 -0.1683
  131MOL0     H17241   7.992   3.284   3.992 -2.5628  1.1933  1.1355
  131MOL0     H17242   7.973   3.403   3.868 -0.8594  0.4750  0.7914
  131MOL0     H17243   7.834   3.184   3.749  0.4632 -0.2179  0.4008
  131MOL0     H17244   7.756   3.290   3.847 -0.3134 -1.6901 -0.9147
  131MOL0     H17245   7.604   3.075   3.894 -0.2023  0.1761 -0.0563
  131MOL0     H17246   7.685   2.733   4.064 -0.8242  0.0206  1.5603
  131MOL0     H17247   7.576   2.776   3.928 -1.1488  0.9532  0.9287
  131MOL0     H17248   7.577   2.894   4.214 -0.0046  3.2866 -0.8906
  131MOL0     H17249   7.461   2.772   4.164  2.2359 -0.6558  0.8147
  131MOL0     H17250   7.465   3.069   4.103 -1.7840  1.5786 -2.2746
  131MOL0     H17251   7.402   2.946   3.977 -2.1327 -0.2957  1.1062
  131MOL0     H17252   7.241   3.066   4.117 -0.3176 -0.9354  0.3722
  131MOL0     H17253   7.304   2.990   4.261  0.2477 -1.6508 -0.1165
  131MOL0     H17254   7.098   3.056   4.318 -2.6037  0.9062  3.5157
  131MOL0     H17255   6.926   3.033   4.464  3.4377  1.2538 -0.8021
  131MOL0     H17256   6.430   2.639   4.284 -6.2914 -4.9361 -0.2413
  131MOL0     H17257   6.214   2.594   4.360 -0.7133 -0.4601  0.1645
  131MOL0     H17258   6.022   2.830   4.694 -0.2241  0.5215 -0.5302
  131MOL0     H17259   6.118   2.697   4.771  0.3783 -1.9509 -1.8004
  131MOL0     H17260   5.857   2.670   4.806 -1.9113 -2.0596  1.1356
  131MOL0     H17261   5.956   2.540   4.716 -1.6946 -0.6717 -0.7805
  131MOL0     H17262   5.871   2.608   4.507 -1.9458 -3.1053  0.1808
  131MOL0     H17263   5.816   2.760   4.571 -0.1641 -0.4797 -1.3948
  131MOL0     H17264   5.700   2.470   4.583 -2.3315 -0.3215 -1.8501
  131MOL0     H17265   5.659   2.586   4.709  0.0040  3.0731 -1.6120
  131MOL0     H17266   5.523   2.527   4.486 -0.9003 -0.7155  0.6760
  131MOL0     H17267   5.634   2.656   4.418  3.0908  0.7034  3.6117
  131MOL0     H17268   5.408   2.735   4.467 -0.0698  0.1332  1.0862
  131MOL0     H17269   5.532   2.831   4.542 -1.0915  0.7966  0.8765
  131MOL0     H17270   5.328   2.612   4.644 -0.0639 -0.0280 -3.3876
  131MOL0     H17271   5.447   2.685   4.756  0.1181  0.4296 -0.2471
  131MOL0     H17272   5.225   2.833   4.589 -2.5196 -5.2546  0.6785
  131MOL0     H17273   5.344   2.916   4.697  0.7695  0.0905  0.4848
  131MOL0     H17274   6.279   2.867   4.694 -0.3745 -0.2819  0.0175
  131MOL0     H17275   6.509   2.887   4.626 -1.6069  1.3669  0.6415
  131MOL0     H17276   6.804   2.667   4.258  1.5629 -0.7813 -2.4026
  131MOL0     H17277   6.997   2.699   4.108 -1.3537 -0.7419  0.9151
  131MOL0     H17278   8.837   3.257   3.338 -1.5603 -0.6047  1.2423
  131MOL0     H17279   9.003   3.400   3.230 -0.5112 -0.2866  0.4866
  131MOL0     H17280   9.436   3.659   3.427 -0.7566  0.7270 -0.0494
  131MOL0     H17281   9.643   3.732   3.327 -0.5448  2.2824  0.4960
  131MOL0     H17282   9.655   3.936   2.942 -0.3241 -0.0688 -1.4104
  131MOL0     H17283   9.748   3.789   2.926  0.2549  1.0865 -0.8492
  131MOL0     H17284   9.940   3.884   3.021 -1.2187 -0.9729  1.1845
  131MOL0     H17285   9.883   3.981   2.889  0.7916 -1.5903 -0.4180
  131MOL0     H17286   9.875   4.039   3.192  0.3516  2.3898  1.3308
  131MOL0     H17287   9.751   4.113   3.083 -0.3872 -0.2686 -3.4311
  131MOL0     H17288  10.037   4.112   3.025  0.8937  1.6065 -0.9108
  131MOL0     H17289   9.924   4.250   2.982  2.0143  0.9588 -0.2391
  131MOL0     H17290  10.026   4.338   3.387  0.5423 -0.4834 -0.1231
  131MOL0     H17291   9.462   3.859   2.969  2.6205  0.1552  0.0010
  131MOL0     H17292   9.254   3.782   3.036 -2.7154 -0.0229  2.6179
  132MOL0     O17293   5.074   2.919   1.179  0.0697  0.3835  0.7213
  132MOL0     C17294   5.071   2.938   1.060  0.4738  0.1113  0.3600
  132MOL0     O17295   5.009   2.859   0.963  0.5227 -0.6686 -0.6133
  132MOL0     C17296   4.958   2.740   1.028  0.2101 -0.5417  0.9142
  132MOL0     C17297   5.019   2.614   0.999  0.1742  0.1688 -0.0978
  132MOL0     C17298   4.961   2.495   1.052 -0.4538 -0.6477  0.4522
  132MOL0     C17299   4.844   2.497   1.130  0.1131  0.1414  0.7076
  132MOL0     O17300   4.785   2.374   1.166 -0.3370  0.3258  0.0410
  132MOL0     C17301   4.715   2.379   1.288  0.1572 -0.2062 -0.9784
  132MOL0     C17302   4.709   2.243   1.360  0.7003 -0.2440  0.2273
  132MOL0     C17303   4.586   2.229   1.452 -0.6710 -0.6986 -0.3461
  132MOL0     C17304   4.579   2.084   1.490  0.7773 -0.4121  0.6946
  132MOL0     C17305   4.482   2.082   1.614  0.6270  0.3573  0.3570
  132MOL0     C17306   4.476   1.945   1.679 -0.9187  0.1654  0.0752
  132MOL0     C17307   4.440   1.953   1.830  0.3735  0.6657 -0.3481
  132MOL0     C17308   4.430   1.809   1.879  0.0042 -0.4849 -1.0713
  132MOL0     N17309   4.424   1.806   2.029  0.7534 -0.1370  0.2812
  132MOL0     C17310   4.343   1.876   2.116 -0.1272 -0.2814  0.4305
  132MOL0     C17311   4.351   1.819   2.235  0.8275  0.1426 -0.2420
  132MOL0     C17312   4.269   1.878   2.349  0.9144 -0.1719 -0.2489
  132MOL0     C17313   4.357   1.958   2.450 -0.8616  1.1401 -1.4684
  132MOL0     C17314   4.471   1.861   2.501  0.1603  0.3071  0.2792
  132MOL0     C17315   4.522   1.904   2.638 -0.8399 -0.7766  0.2654
  132MOL0     O17316   4.581   2.032   2.667 -0.6547 -0.1876 -0.2043
  132MOL0     C17317   4.709   2.057   2.636  0.0973  0.2345 -0.7502
  132MOL0     C17318   4.759   2.182   2.661  0.3168 -0.1135 -0.2381
  132MOL0     C17319   4.887   2.219   2.630  0.4484  0.3741 -0.2679
  132MOL0     C17320   4.969   2.133   2.553 -0.8916 -0.2113  0.5144
  132MOL0     C17321   5.110   2.185   2.516  0.3087 -0.3100  0.6221
  132MOL0     O17322   5.188   2.108   2.441 -0.9654 -0.7821 -0.3584
  132MOL0     C17323   5.319   2.143   2.436  0.2672 -0.0940  0.8733
  132MOL0     C17324   5.404   2.216   2.526 -0.0488 -0.0913  0.5183
  132MOL0     C17325   5.538   2.216   2.502  0.2730 -1.1062  0.0766
  132MOL0     C17326   5.597   2.167   2.387 -0.2673  1.1938 -0.0780
  132MOL0     O17327   5.733   2.157   2.371  0.3201 -0.0289  0.3950
  132MOL0     C17328   5.822   2.247   2.441  0.4763  0.1094 -0.6790
  132MOL0     C17329   5.814   2.402   2.412 -1.3963  0.6037 -0.2080
  132MOL0     C17330   5.796   2.430   2.266 -0.2117  0.2224 -0.2862
  132MOL0     C17331   5.745   2.578   2.248 -0.4448  1.1079 -0.2842
  132MOL0     C17332   5.858   2.676   2.285 -0.2261 -0.9723  0.8169
  132MOL0     C17333   5.806   2.817   2.253  0.4262 -0.3108 -0.1728
  132MOL0     C17334   5.907   2.930   2.272 -0.4628  0.0067 -0.3931
  132MOL0     C17335   5.880   3.056   2.178  0.6935  0.3200  0.2801
  132MOL0    Cl17336   5.715   3.111   2.197 -0.5040 -0.2757 -0.2301
  132MOL0     C17337   5.511   2.120   2.296 -0.1087 -0.2981  0.9752
  132MOL0     C17338   5.373   2.101   2.323 -0.4897  0.0093 -0.6908
  132MOL0     O17339   5.126   2.307   2.539  0.2041  0.2060 -0.0318
  132MOL0     C17340   4.918   2.010   2.522  0.4169  0.6607 -0.1428
  132MOL0     C17341   4.790   1.980   2.557 -0.7686 -0.2017  0.1271
  132MOL0     N17342   4.440   1.719   2.233 -0.1296  0.1268  0.7598
  132MOL0     N17343   4.486   1.722   2.115  0.5511  0.4133 -0.2978
  132MOL0     C17344   4.781   2.620   1.160 -0.5021  0.1353  0.2864
  132MOL0     C17345   4.845   2.744   1.111 -0.1331 -0.5745 -0.2422
  132MOL0     C17346   5.137   3.050   1.008 -0.1142  0.9165  0.3990
  132MOL0     C17347   5.192   3.151   1.086  0.8514 -0.9701 -0.7856
  132MOL0     C17348   5.255   3.262   1.037  0.3746 -0.3664 -0.4362
  132MOL0     C17349   5.274   3.282   0.908  0.6386  0.9780  0.2124
  132MOL0     O17350   5.329   3.395   0.855  0.2162  0.0818  0.1519
  132MOL0     C17351   5.327   3.513   0.942 -0.1018  0.4521  0.2870
  132MOL0     C17352   5.316   3.652   0.865  0.4541  0.4815 -0.7895
  132MOL0     C17353   5.268   3.761   0.960  0.3653 -0.7392  0.5907
  132MOL0     C17354   5.299   3.902   0.908 -0.2288 -0.0977  0.0693
  132MOL0     C17355   5.245   3.935   0.774  0.0581 -0.3751 -0.9181
  132MOL0     C17356   5.200   3.940   0.662 -0.8033  1.2873 -0.4933
  132MOL0     C17357   5.243   3.176   0.820 -0.5085 -0.1705  0.6793
  132MOL0     C17358   5.178   3.061   0.869 -0.0300  0.0148  1.1702
  132MOL0     H17359   5.101   2.605   0.929  2.0378 -1.3328  2.1082
  132MOL0     H17360   4.998   2.394   1.033 -3.0099 -1.6697  0.4244
  132MOL0     H17361   4.611   2.411   1.283 -0.3072 -1.0742  1.4981
  132MOL0     H17362   4.761   2.440   1.367 -1.9419  0.2900 -0.0706
  132MOL0     H17363   4.799   2.218   1.416  0.9514 -0.1170 -0.1136
  132MOL0     H17364   4.692   2.178   1.274 -2.4161  0.0900  0.4442
  132MOL0     H17365   4.495   2.251   1.396 -0.8079  1.4454  0.6202
  132MOL0     H17366   4.598   2.298   1.536  0.7270 -2.7871  1.2817
  132MOL0     H17367   4.545   2.029   1.402  0.3760 -2.9314  2.3082
  132MOL0     H17368   4.674   2.052   1.532  0.0725  0.1047  2.8343
  132MOL0     H17369   4.386   2.105   1.565  2.2207 -0.2390 -3.3965
  132MOL0     H17370   4.509   2.154   1.691 -1.1437  1.5024 -0.0344
  132MOL0     H17371   4.573   1.894   1.674 -0.8912  0.2312 -0.0671
  132MOL0     H17372   4.415   1.878   1.618 -1.9445  1.2815 -0.1615
  132MOL0     H17373   4.522   2.000   1.886 -1.3682  2.4009  0.8840
  132MOL0     H17374   4.350   2.013   1.846  1.8683  3.0345 -0.1925
  132MOL0     H17375   4.515   1.759   1.831  0.5953  1.7611 -2.5255
  132MOL0     H17376   4.337   1.767   1.839  0.5469 -2.7365 -0.1472
  132MOL0     H17377   4.274   1.958   2.099  0.0258  0.2886  2.3027
  132MOL0     H17378   4.211   1.805   2.407 -1.1397  1.6969  0.2007
  132MOL0     H17379   4.189   1.942   2.312 -0.0072 -1.2287 -0.1085
  132MOL0     H17380   4.291   1.992   2.531 -1.5005  1.3665 -2.0739
  132MOL0     H17381   4.396   2.046   2.398 -0.0858  0.7202 -1.6021
  132MOL0     H17382   4.428   1.761   2.498  0.8043  0.0229  0.4070
  132MOL0     H17383   4.558   1.862   2.435  1.0090 -2.4951  1.1989
  132MOL0     H17384   4.580   1.816   2.668 -0.5729 -1.5296 -2.2493
  132MOL0     H17385   4.432   1.914   2.700 -0.2784  4.7062  0.6315
  132MOL0     H17386   4.693   2.246   2.719  1.1533 -0.2298  0.8580
  132MOL0     H17387   4.926   2.312   2.669 -2.9482  1.1948  1.5889
  132MOL0     H17388   5.363   2.261   2.617  3.3541  0.3102  2.0013
  132MOL0     H17389   5.601   2.264   2.576 -0.9507  1.5014 -0.4787
  132MOL0     H17390   5.928   2.222   2.424  0.3520  0.6709 -2.4563
  132MOL0     H17391   5.814   2.225   2.548  3.0646  3.4159  0.3702
  132MOL0     H17392   5.904   2.456   2.444 -1.6310  0.2591  1.0781
  132MOL0     H17393   5.722   2.434   2.460 -1.4453 -1.2357  1.0171
  132MOL0     H17394   5.711   2.365   2.242 -2.0708  2.4204  0.0034
  132MOL0     H17395   5.882   2.402   2.204 -0.1615 -1.5221  0.5064
  132MOL0     H17396   5.722   2.593   2.141 -0.7777 -1.5400 -0.6451
  132MOL0     H17397   5.655   2.594   2.309 -1.5205 -1.7758 -0.9583
  132MOL0     H17398   5.943   2.660   2.218 -1.3817  0.9633 -1.2486
  132MOL0     H17399   5.887   2.676   2.391 -1.5817 -2.0228  1.2247
  132MOL0     H17400   5.719   2.835   2.318  1.6679  0.7518  1.2644
  132MOL0     H17401   5.768   2.810   2.150  0.4900 -1.8738 -0.1155
  132MOL0     H17402   5.911   2.977   2.371  1.5104 -1.4846  0.3092
  132MOL0     H17403   6.006   2.887   2.255 -0.7002 -1.2725  1.2067
  132MOL0     H17404   5.909   3.011   2.083 -1.3891 -1.3638  0.3795
  132MOL0     H17405   5.943   3.141   2.208 -0.9630  1.1167  1.6954
  132MOL0     H17406   5.563   2.087   2.206 -1.2984 -1.3574  0.6484
  132MOL0     H17407   5.323   2.045   2.245  0.8985 -0.8433 -0.9897
  132MOL0     H17408   4.982   1.955   2.454 -0.6072  0.2554 -0.8107
  132MOL0     H17409   4.751   1.886   2.520 -2.2842 -0.5352  2.3383
  132MOL0     H17410   4.690   2.623   1.220  0.0390 -1.2009  1.2332
  132MOL0     H17411   4.815   2.842   1.146  0.6568 -1.0832  2.0964
  132MOL0     H17412   5.171   3.147   1.193 -0.9689 -0.0329 -1.0620
  132MOL0     H17413   5.270   3.345   1.106  0.8263 -0.4944 -0.3821
  132MOL0     H17414   5.412   3.523   1.010 -0.0629  0.5529  0.2227
  132MOL0     H17415   5.236   3.508   1.002  0.1787 -2.1968  0.6193
  132MOL0     H17416   5.417   3.677   0.832  1.7628  0.0228  2.4472
  132MOL0     H17417   5.240   3.650   0.786 -0.5512 -2.9190  0.0610
  132MOL0     H17418   5.335   3.754   1.047 -0.7423  1.7573  1.7455
  132MOL0     H17419   5.165   3.747   0.994 -0.1648 -3.4683 -1.7669
  132MOL0     H17420   5.266   3.975   0.982 -0.0820 -1.9528  2.0650
  132MOL0     H17421   5.407   3.911   0.894 -0.1985 -1.0164 -0.3634
  132MOL0     H17422   5.152   3.929   0.567  1.3656 -2.9756 -1.3747
  132MOL0     H17423   5.266   3.188   0.715 -3.0142  0.3474  0.1390
  132MOL0     H17424   5.147   2.988   0.794 -4.9021  3.6775 -0.9180
  133MOL0     O17425   0.238   0.958   3.747  0.3458  0.6016 -0.5798
  133MOL0     C17426   0.221   0.862   3.673  0.2344  0.9852 -0.8908
  133MOL0     O17427   0.321   0.777   3.635 -0.1845  0.0805 -0.1047
  133MOL0     C17428   0.461   0.792   3.650 -0.1240 -0.7558  0.5374
  133MOL0     C17429   0.525   0.909   3.701  0.1811 -0.3954  0.6837
  133MOL0     C17430   0.655   0.924   3.726 -1.3907  0.0835 -0.4394
  133MOL0     C17431   0.741   0.820   3.680 -0.5095  0.3381 -0.5587
  133MOL0     O17432   0.873   0.842   3.692 -0.2764 -0.3930  0.6421
  133MOL0     C17433   0.976   0.758   3.639  0.9754  0.0606  0.5374
  133MOL0     C17434   1.106   0.822   3.698  0.5041  0.9843  0.2662
  133MOL0     C17435   1.232   0.749   3.667  1.1138 -0.7405  0.0954
  133MOL0     C17436   1.246   0.713   3.522 -0.6425 -0.2595  1.1766
  133MOL0     C17437   1.385   0.646   3.488  0.4819 -0.3032  0.6488
  133MOL0     C17438   1.383   0.567   3.355  0.2151  0.3950  0.7894
  133MOL0     C17439   1.302   0.437   3.364  0.0110 -0.4335  0.3727
  133MOL0     C17440   1.356   0.345   3.252  0.6604  0.1555  0.1997
  133MOL0     N17441   1.280   0.361   3.120 -0.1788  0.5947 -0.5612
  133MOL0     C17442   1.204   0.262   3.064 -1.0547 -0.5708 -0.6657
  133MOL0     C17443   1.181   0.314   2.937 -0.0919  0.1157 -0.9652
  133MOL0     C17444   1.116   0.241   2.819 -0.1566 -0.3571  0.0485
  133MOL0     C17445   0.959   0.227   2.829 -1.4731 -0.3079  0.2257
  133MOL0     C17446   0.878   0.360   2.814 -0.3060  0.4849  0.1384
  133MOL0     C17447   0.733   0.318   2.821 -1.2020  0.1291 -0.3501
  133MOL0     O17448   0.651   0.437   2.830  0.4195  0.5569  0.6664
  133MOL0     C17449   0.513   0.411   2.849 -0.6707  0.6497  0.7765
  133MOL0     C17450   0.454   0.290   2.891 -0.1708  0.3262  0.3334
  133MOL0     C17451   0.316   0.286   2.918  0.8428  0.1157  0.4810
  133MOL0     C17452   0.232   0.397   2.895 -0.4282 -0.5958 -0.3137
  133MOL0     C17453   0.091   0.399   2.923 -0.5518 -0.1210  1.0713
  133MOL0     O17454   0.025   0.519   2.901  0.2165  0.4647 -0.1595
  133MOL0     C17455  -0.107   0.529   2.932  0.3045  0.6613 -0.2998
  133MOL0     C17456  -0.161   0.499   3.055  0.2408  0.4027  0.3606
  133MOL0     C17457  -0.294   0.538   3.084 -0.0735  0.7314  0.0931
  133MOL0     C17458  -0.377   0.594   2.994 -0.0266  0.9213  0.3830
  133MOL0     O17459  -0.510   0.621   3.034 -0.2782 -0.4320  0.2238
  133MOL0     C17460  -0.619   0.600   2.942 -0.5866  1.0196 -1.0075
  133MOL0     C17461  -0.646   0.732   2.863 -0.1531 -0.5048 -0.0262
  133MOL0     C17462  -0.649   0.717   2.705 -0.2452  0.3286 -0.2440
  133MOL0     C17463  -0.708   0.829   2.625  0.4329  0.7490  0.3857
  133MOL0     C17464  -0.723   0.790   2.482 -0.3041  1.3609 -0.5532
  133MOL0     C17465  -0.802   0.886   2.392 -0.3256 -0.2754 -0.4545
  133MOL0     C17466  -0.735   1.026   2.393  0.3468 -1.0160 -0.0822
  133MOL0     C17467  -0.786   1.118   2.278 -0.0195  0.9616  0.5456
  133MOL0    Cl17468  -0.717   1.076   2.127 -0.6440  0.0560 -0.2934
  133MOL0     C17469  -0.327   0.608   2.858  0.7271  0.2325 -0.1817
  133MOL0     C17470  -0.191   0.579   2.837  0.7759  1.0565  0.7599
  133MOL0     O17471   0.030   0.300   2.962 -1.3776 -0.3210  0.1016
  133MOL0     C17472   0.295   0.515   2.847  0.2781 -0.4779  0.2720
  133MOL0     C17473   0.431   0.517   2.820  0.8849 -0.3587 -0.9196
  133MOL0     N17474   1.237   0.435   2.924 -0.1550 -0.3384 -0.0465
  133MOL0     N17475   1.290   0.462   3.040 -0.9398 -0.4897  0.0624
  133MOL0     C17476   0.685   0.698   3.630  1.1390 -0.1406  0.1429
  133MOL0     C17477   0.544   0.683   3.624 -1.2137 -0.5999  0.9587
  133MOL0     C17478   0.075   0.828   3.647 -0.0705 -0.2364  0.6335
  133MOL0     C17479  -0.021   0.928   3.654  0.0460  0.7096  0.0868
  133MOL0     C17480  -0.151   0.904   3.635 -0.0440 -0.1234  0.4176
  133MOL0     C17481  -0.198   0.773   3.605 -0.2708  0.0775 -0.4856
  133MOL0     O17482  -0.326   0.728   3.594  0.9905  0.2857  0.1642
  133MOL0     C17483  -0.434   0.813   3.623 -1.3336  0.0002 -0.3780
  133MOL0     C17484  -0.551   0.733   3.667  0.1870 -0.4863  0.4784
  133MOL0     C17485  -0.528   0.652   3.786 -0.3103  0.6734 -0.8497
  133MOL0     C17486  -0.650   0.646   3.882  0.5826 -1.6601 -0.0540
  133MOL0     C17487  -0.769   0.570   3.832 -0.1408 -0.1870  0.2279
  133MOL0     C17488  -0.874   0.520   3.782  0.6576  0.6855  0.3796
  133MOL0     C17489  -0.098   0.675   3.583 -0.0015 -0.4804 -0.2872
  133MOL0     C17490   0.043   0.704   3.609  0.2069 -0.0045 -0.6345
  133MOL0     H17491   0.467   1.000   3.713  1.0595  0.6372 -2.1925
  133MOL0     H17492   0.695   1.015   3.770  1.1933 -1.4743  0.6562
  133MOL0     H17493   0.975   0.751   3.530 -4.4537 -1.0726  0.3829
  133MOL0     H17494   0.968   0.658   3.683  3.6190  0.3217  1.7983
  133MOL0     H17495   1.096   0.829   3.807 -0.3505 -0.5401  0.3181
  133MOL0     H17496   1.126   0.918   3.649  0.6698 -1.8167 -6.0673
  133MOL0     H17497   1.237   0.652   3.719  0.7729  0.0357  1.6372
  133MOL0     H17498   1.308   0.819   3.702 -0.1070  2.0568 -2.4807
  133MOL0     H17499   1.163   0.647   3.497  0.7516 -1.1756 -1.4179
  133MOL0     H17500   1.244   0.807   3.465  1.5163 -1.2908 -0.7335
  133MOL0     H17501   1.407   0.574   3.567 -0.7244 -1.6750 -0.2141
  133MOL0     H17502   1.466   0.718   3.474  1.5022 -1.5648 -0.1358
  133MOL0     H17503   1.484   0.544   3.321 -0.8728 -2.3878 -0.9862
  133MOL0     H17504   1.335   0.632   3.281 -0.9269 -1.2891 -0.0347
  133MOL0     H17505   1.314   0.390   3.461  0.0967  1.5442  1.3712
  133MOL0     H17506   1.197   0.457   3.342  0.9961  1.8712 -3.0816
  133MOL0     H17507   1.327   0.242   3.276 -0.9284 -0.7511 -4.5364
  133MOL0     H17508   1.465   0.344   3.241  0.9781 -3.6504  1.9206
  133MOL0     H17509   1.209   0.160   3.101  1.9859  0.5316  2.5831
  133MOL0     H17510   1.154   0.138   2.819 -1.5936 -0.9272  1.5157
  133MOL0     H17511   1.150   0.291   2.727 -0.2337 -2.5911 -1.2787
  133MOL0     H17512   0.927   0.184   2.924 -0.5883  1.3776  1.3343
  133MOL0     H17513   0.928   0.157   2.751 -2.1192  0.2062  0.0040
  133MOL0     H17514   0.900   0.422   2.901 -0.9185  1.3794 -0.3346
  133MOL0     H17515   0.903   0.401   2.716  1.0251 -0.6122 -0.0162
  133MOL0     H17516   0.708   0.248   2.902 -0.5563  0.3950  0.0900
  133MOL0     H17517   0.722   0.271   2.723  2.9517 -0.3187 -0.7886
  133MOL0     H17518   0.501   0.195   2.917  0.7944  0.6245 -0.3015
  133MOL0     H17519   0.277   0.190   2.949  1.2992 -0.0712  0.4852
  133MOL0     H17520  -0.095   0.454   3.129  1.6714  1.3004 -0.3293
  133MOL0     H17521  -0.331   0.515   3.184 -0.7001 -1.5622 -0.6044
  133MOL0     H17522  -0.706   0.566   2.998  0.0385 -0.0491 -0.6539
  133MOL0     H17523  -0.587   0.525   2.869 -3.3609  0.8112 -2.1112
  133MOL0     H17524  -0.567   0.805   2.883 -1.4265  0.7159  0.6238
  133MOL0     H17525  -0.738   0.766   2.911  1.1789  0.4634  1.9588
  133MOL0     H17526  -0.708   0.632   2.670  1.5705 -0.6433 -1.0871
  133MOL0     H17527  -0.546   0.703   2.671  0.0285 -0.2308  0.7553
  133MOL0     H17528  -0.806   0.849   2.668 -1.9285 -0.0465 -4.0990
  133MOL0     H17529  -0.657   0.926   2.630  1.1836  0.3549  0.7260
  133MOL0     H17530  -0.764   0.689   2.471 -0.5958  1.2713  1.1212
  133MOL0     H17531  -0.623   0.771   2.441 -0.7377 -1.1035 -0.6140
  133MOL0     H17532  -0.901   0.893   2.438 -0.2032  0.1301 -0.2505
  133MOL0     H17533  -0.807   0.845   2.291  0.8201 -0.8025 -0.3156
  133MOL0     H17534  -0.741   1.086   2.485  1.3762  0.1269 -0.7238
  133MOL0     H17535  -0.626   1.016   2.398  0.2957 -1.2486  3.7644
  133MOL0     H17536  -0.760   1.223   2.293  0.6362  0.7311  1.0501
  133MOL0     H17537  -0.896   1.120   2.277 -0.0335  3.4254  0.7274
  133MOL0     H17538  -0.391   0.668   2.794  1.5120  1.2936  0.0098
  133MOL0     H17539  -0.159   0.611   2.738 -1.2804  1.4668  0.1910
  133MOL0     H17540   0.234   0.602   2.826 -2.6274 -1.6675  2.9486
  133MOL0     H17541   0.473   0.608   2.777 -1.9314  0.7198 -1.6623
  133MOL0     H17542   0.743   0.607   3.615  1.4061  0.0865 -0.2360
  133MOL0     H17543   0.505   0.584   3.603 -0.2201 -0.8862  0.3890
  133MOL0     H17544  -0.002   1.031   3.682 -1.1656  0.8758  0.3608
  133MOL0     H17545  -0.225   0.980   3.656  1.2770  1.2848  0.2001
  133MOL0     H17546  -0.465   0.876   3.538 -2.3802  1.1122  0.7864
  133MOL0     H17547  -0.408   0.882   3.704 -1.4285 -0.7930  0.3333
  133MOL0     H17548  -0.636   0.799   3.686 -0.5685 -1.2745 -0.0657
  133MOL0     H17549  -0.582   0.671   3.582 -2.2210  0.2233  0.7557
  133MOL0     H17550  -0.437   0.688   3.836 -1.1777  0.0675  1.3101
  133MOL0     H17551  -0.502   0.553   3.747  0.3957  0.6942 -0.4507
  133MOL0     H17552  -0.616   0.597   3.973  1.8665 -2.5591 -0.9667
  133MOL0     H17553  -0.679   0.749   3.907 -0.1052 -1.2885 -2.1469
  133MOL0     H17554  -0.974   0.488   3.762  1.6194 -2.8724  0.5827
  133MOL0     H17555  -0.140   0.576   3.569  1.9860 -1.3872 -0.3136
  133MOL0     H17556   0.113   0.623   3.590 -1.1115 -1.8165  1.6984
  134MOL0     O17557   2.980   4.813   4.925  0.1957  0.1016  0.3861
  134MOL0     C17558   2.964   4.906   4.843 -0.4290 -0.1294  0.0632
  134MOL0     O17559   2.894   5.027   4.861  0.6778  0.7784 -1.2518
  134MOL0     C17560   2.881   5.075   4.993  0.1652  1.1966 -0.8210
  134MOL0     C17561   2.801   5.186   4.997 -0.5628 -0.2644 -0.3919
  134MOL0     C17562   2.761   5.243   5.119  0.9098 -0.5920  2.1227
  134MOL0     C17563   2.800   5.190   5.240  0.4882 -0.3517  0.0619
  134MOL0     O17564   2.744   5.235   5.357 -0.8348  0.4340  0.6071
  134MOL0     C17565   2.759   5.376   5.368 -0.3579  0.1199 -0.5615
  134MOL0     C17566   2.845   5.404   5.492 -0.3651  0.5419  0.2736
  134MOL0     C17567   2.770   5.404   5.629 -0.4647 -1.2379  0.6964
  134MOL0     C17568   2.848   5.479   5.747  0.6652  1.0810 -0.1358
  134MOL0     C17569   2.781   5.466   5.879  0.8327  0.1653 -0.1710
  134MOL0     C17570   2.822   5.586   5.972 -0.0169  1.1211  0.1675
  134MOL0     C17571   2.803   5.544   6.117 -0.6955  0.3322 -0.9560
  134MOL0     C17572   2.844   5.640   6.235  0.4430 -0.1498 -0.6273
  134MOL0     N17573   2.991   5.662   6.241 -0.2513  0.2236  0.1541
  134MOL0     C17574   3.062   5.774   6.192 -0.5418 -0.4081 -0.1017
  134MOL0     C17575   3.182   5.766   6.251 -0.1117 -0.8397 -0.2425
  134MOL0     C17576   3.306   5.854   6.217 -0.0575  0.5057 -0.1657
  134MOL0     C17577   3.422   5.820   6.323 -0.9991 -0.0439 -0.3623
  134MOL0     C17578   3.408   5.869   6.466  1.0709  0.4166 -0.4423
  134MOL0     C17579   3.530   5.854   6.553 -0.6111  0.1753 -0.4554
  134MOL0     O17580   3.647   5.897   6.479  0.2626 -0.0437 -0.0315
  134MOL0     C17581   3.752   5.947   6.551  0.2261 -0.5191  0.6679
  134MOL0     C17582   3.816   5.879   6.661  0.0057 -0.1328  0.4669
  134MOL0     C17583   3.925   5.932   6.720  0.7050  0.1079 -0.5937
  134MOL0     C17584   3.973   6.049   6.679 -0.1209 -0.0322 -0.1071
  134MOL0     C17585   4.088   6.110   6.744 -0.8288 -0.5320 -0.8242
  134MOL0     O17586   4.139   6.221   6.688 -0.2337 -0.0626 -0.1103
  134MOL0     C17587   4.254   6.284   6.739  0.0037 -0.1751 -0.4504
  134MOL0     C17588   4.344   6.345   6.646 -0.2829  0.1769 -0.2738
  134MOL0     C17589   4.446   6.434   6.690 -0.6324 -0.4503  0.3069
  134MOL0     C17590   4.470   6.454   6.830  1.2239  0.1496  0.4396
  134MOL0     O17591   4.570   6.536   6.895  0.7423 -0.5786  0.4788
  134MOL0     C17592   4.632   6.637   6.822 -0.4264 -0.2531  0.1468
  134MOL0     C17593   4.760   6.689   6.888 -0.3062 -0.2869  0.1543
  134MOL0     C17594   4.723   6.767   7.014 -1.3226 -0.9763 -0.5861
  134MOL0     C17595   4.845   6.793   7.097 -0.2020 -0.3151  0.0893
  134MOL0     C17596   4.884   6.939   7.105 -0.4952  0.1875 -0.5361
  134MOL0     C17597   5.007   6.957   7.193  0.3162 -0.4645 -0.0135
  134MOL0     C17598   5.081   7.096   7.167 -0.6433  0.0535  0.2912
  134MOL0     C17599   5.205   7.121   7.263 -1.2814  0.4218 -0.0891
  134MOL0    Cl17600   5.334   7.198   7.184  0.4952 -0.5807 -0.3616
  134MOL0     C17601   4.391   6.386   6.923  0.6400  0.3759  0.4923
  134MOL0     C17602   4.287   6.316   6.874  0.3423  0.6019  0.3857
  134MOL0     O17603   4.147   6.053   6.842  0.4575  0.2384 -0.1741
  134MOL0     C17604   3.907   6.122   6.577  0.2451  0.6950  0.5577
  134MOL0     C17605   3.799   6.071   6.515  0.5400  0.3795 -0.2925
  134MOL0     N17606   3.178   5.659   6.336  0.6729 -0.5420 -1.1077
  134MOL0     N17607   3.067   5.595   6.326  0.1154  0.4476  0.4061
  134MOL0     C17608   2.871   5.073   5.239 -0.2621 -0.4876  0.3769
  134MOL0     C17609   2.905   5.013   5.122  0.5519 -0.2505 -0.9561
  134MOL0     C17610   2.974   4.865   4.697 -0.6807 -0.0815 -0.5916
  134MOL0     C17611   3.045   4.740   4.668  0.1373 -0.5187 -0.2041
  134MOL0     C17612   3.067   4.705   4.539 -0.5973  0.3968  0.7555
  134MOL0     C17613   3.003   4.770   4.429  0.5100  0.1512  0.7778
  134MOL0     O17614   3.003   4.725   4.294  0.7272 -0.1992 -0.9955
  134MOL0     C17615   3.121   4.648   4.260  0.2230  0.6077 -0.9661
  134MOL0     C17616   3.121   4.604   4.112 -0.4261 -0.6124  0.0955
  134MOL0     C17617   3.126   4.720   4.014 -0.0582  0.0379 -0.3700
  134MOL0     C17618   3.266   4.786   3.982  0.5921  0.2312  0.4422
  134MOL0     C17619   3.365   4.695   3.935  0.5778 -0.4814  0.2337
  134MOL0     C17620   3.450   4.610   3.923 -0.3294 -0.3304  0.0356
  134MOL0     C17621   2.925   4.878   4.462  0.1882 -0.9924  0.8455
  134MOL0     C17622   2.916   4.935   4.592  0.6686 -0.4743  0.0958
  134MOL0     H17623   2.771   5.228   4.901  0.7756  0.9883 -0.3094
  134MOL0     H17624   2.701   5.334   5.118  1.4291 -0.0543 -2.5606
  134MOL0     H17625   2.661   5.425   5.364  0.5687  2.3300  1.0787
  134MOL0     H17626   2.809   5.415   5.279 -2.7797 -1.5342 -2.7970
  134MOL0     H17627   2.884   5.504   5.471 -2.4917  1.0749 -1.6218
  134MOL0     H17628   2.930   5.337   5.504 -3.6027 -3.8913  1.3356
  134MOL0     H17629   2.755   5.303   5.669  0.5790 -0.7738  2.2950
  134MOL0     H17630   2.667   5.439   5.618 -0.9029 -2.5793  0.2248
  134MOL0     H17631   2.944   5.426   5.747  0.2034  0.2190 -0.6057
  134MOL0     H17632   2.866   5.582   5.718 -0.8897  2.1972  2.4710
  134MOL0     H17633   2.811   5.369   5.920  3.1492  0.7698 -0.3377
  134MOL0     H17634   2.672   5.476   5.867  0.5770 -1.4249  0.5607
  134MOL0     H17635   2.758   5.674   5.957 -2.3251 -0.7740 -2.0276
  134MOL0     H17636   2.923   5.627   5.961  0.4810  0.4060  1.8653
  134MOL0     H17637   2.696   5.522   6.115 -0.4921 -0.7135 -2.6314
  134MOL0     H17638   2.855   5.454   6.150  0.1548  1.7207  1.7759
  134MOL0     H17639   2.814   5.592   6.328  0.5658  0.4686 -0.2647
  134MOL0     H17640   2.790   5.733   6.219  2.7879  1.7476  1.6332
  134MOL0     H17641   3.023   5.856   6.133 -1.9041 -0.8356  0.1727
  134MOL0     H17642   3.281   5.960   6.224 -0.4073  0.4498 -0.5444
  134MOL0     H17643   3.345   5.828   6.119 -0.7281 -2.8695  0.3162
  134MOL0     H17644   3.516   5.868   6.296 -1.5287  0.2801 -1.7003
  134MOL0     H17645   3.438   5.713   6.309 -3.2500 -0.5201  0.3137
  134MOL0     H17646   3.380   5.975   6.472  2.2832  0.7573 -0.4593
  134MOL0     H17647   3.337   5.796   6.505  0.8794  0.0009 -1.5437
  134MOL0     H17648   3.561   5.751   6.571 -0.0917  0.5136  0.7652
  134MOL0     H17649   3.518   5.911   6.646 -0.3202 -1.8727  0.8908
  134MOL0     H17650   3.786   5.779   6.690  2.5848 -1.4595 -1.0737
  134MOL0     H17651   3.977   5.870   6.792  0.5230 -1.0963 -1.4689
  134MOL0     H17652   4.320   6.338   6.540 -3.9861 -0.1896  0.4556
  134MOL0     H17653   4.489   6.495   6.611 -2.5107  0.2037 -0.2673
  134MOL0     H17654   4.556   6.709   6.789 -0.6150 -1.2730 -1.7925
  134MOL0     H17655   4.668   6.602   6.725 -0.1562  2.5824 -0.8717
  134MOL0     H17656   4.818   6.759   6.827  0.6021  0.7745  2.1361
  134MOL0     H17657   4.821   6.601   6.913 -0.4744 -0.8583 -1.3137
  134MOL0     H17658   4.647   6.720   7.076 -3.6824  0.9445 -1.8292
  134MOL0     H17659   4.676   6.864   6.992 -0.1320 -0.0396  0.8578
  134MOL0     H17660   4.816   6.765   7.199  0.2185  1.5323  0.7559
  134MOL0     H17661   4.925   6.722   7.077 -0.9269 -0.5598 -2.2982
  134MOL0     H17662   4.799   6.987   7.154 -2.4442 -2.5177 -1.0555
  134MOL0     H17663   4.896   6.973   7.002 -0.1791  0.2777 -0.4717
  134MOL0     H17664   5.079   6.880   7.164  0.9892  0.9935 -2.5379
  134MOL0     H17665   4.994   6.922   7.296  0.2398 -3.7391 -1.0345
  134MOL0     H17666   5.128   7.089   7.069  4.5251  1.1841  2.3667
  134MOL0     H17667   5.022   7.188   7.173 -1.1063 -0.3117  2.0123
  134MOL0     H17668   5.239   7.024   7.299 -1.5720  1.0469  1.9669
  134MOL0     H17669   5.178   7.187   7.346  4.1990  2.1151  0.7816
  134MOL0     H17670   4.403   6.398   7.030  1.0395  2.9156  0.2111
  134MOL0     H17671   4.218   6.272   6.945  0.4100  0.9633  0.6795
  134MOL0     H17672   3.946   6.216   6.540 -2.0421  0.3277 -3.2669
  134MOL0     H17673   3.748   6.124   6.434 -0.8607 -1.5170 -0.7323
  134MOL0     H17674   2.901   5.033   5.336 -1.4064  0.8339  1.3228
  134MOL0     H17675   2.967   4.924   5.118  1.0200  0.0244 -0.0377
  134MOL0     H17676   3.094   4.679   4.743 -0.2948 -2.5630 -1.5366
  134MOL0     H17677   3.140   4.625   4.532 -0.1424  0.6870  2.0515
  134MOL0     H17678   3.133   4.563   4.328  2.8922  1.8478  0.2561
  134MOL0     H17679   3.214   4.703   4.274 -0.5304  1.2682  2.0573
  134MOL0     H17680   3.204   4.533   4.103 -1.7971 -2.3805  0.7795
  134MOL0     H17681   3.029   4.547   4.098 -0.4114 -0.5262 -0.3905
  134MOL0     H17682   3.060   4.805   4.035  2.7896  2.4036 -0.3703
  134MOL0     H17683   3.101   4.676   3.917  0.3026 -0.4468 -0.2496
  134MOL0     H17684   3.248   4.859   3.904  0.1019 -0.3100  0.0374
  134MOL0     H17685   3.319   4.833   4.066  1.2671 -2.8799  1.9483
  134MOL0     H17686   3.531   4.540   3.921 -2.2384 -2.7183  1.1925
  134MOL0     H17687   2.868   4.937   4.391  0.6934 -0.0297  1.2248
  134MOL0     H17688   2.878   5.036   4.597 -0.1124 -0.8271  2.3163
  135MOL0     O17689   8.219   7.806   9.713  0.6015 -0.9380  0.3167
  135MOL0     C17690   8.152   7.842   9.815  0.2739  0.2924 -1.4326
  135MOL0     O17691   8.080   7.758   9.896 -0.2643 -0.3379 -0.6539
  135MOL0     C17692   8.045   7.628   9.861 -0.4969 -0.1122 -0.0015
  135MOL0     C17693   8.034   7.581   9.729  0.9121 -0.9904  0.2495
  135MOL0     C17694   7.999   7.457   9.704  0.7004  0.2127 -0.3505
  135MOL0     C17695   7.953   7.371   9.806 -0.3237  1.3702  0.0686
  135MOL0     O17696   7.913   7.241   9.783  0.0028 -0.0298 -0.2255
  135MOL0     C17697   7.905   7.180   9.652  0.4181  0.7754 -0.6085
  135MOL0     C17698   7.891   7.025   9.648  0.2617 -0.6454 -0.5940
  135MOL0     C17699   7.873   6.979   9.505  0.6033  0.0582  0.2039
  135MOL0     C17700   7.865   6.821   9.518  0.3343  0.0928  0.0189
  135MOL0     C17701   7.875   6.768   9.374 -0.0948  1.0653  0.2311
  135MOL0     C17702   7.838   6.624   9.379  0.5890 -0.5372  0.4523
  135MOL0     C17703   7.857   6.547   9.244 -0.7983 -0.0113  0.4902
  135MOL0     C17704   7.781   6.417   9.244  0.4383  0.3749  0.5227
  135MOL0     N17705   7.780   6.362   9.102  1.0341 -0.8751 -0.2408
  135MOL0     C17706   7.843   6.251   9.059  1.2766  0.1972 -0.1265
  135MOL0     C17707   7.796   6.233   8.936 -0.4254  0.5247  0.3261
  135MOL0     C17708   7.831   6.125   8.842  0.5796  0.6285 -0.0396
  135MOL0     C17709   7.766   5.991   8.894  0.0191 -0.4612 -0.7695
  135MOL0     C17710   7.613   5.990   8.916  0.2447  0.5226 -0.0515
  135MOL0     C17711   7.582   5.875   9.011 -0.1268  0.6286 -0.0681
  135MOL0     O17712   7.619   5.895   9.143 -0.0144 -0.2180  0.2056
  135MOL0     C17713   7.573   6.007   9.205 -0.2343 -1.1393 -0.3505
  135MOL0     C17714   7.446   6.071   9.201 -0.0950  0.7552  0.1130
  135MOL0     C17715   7.412   6.168   9.295  0.1377  0.4735 -0.1004
  135MOL0     C17716   7.506   6.223   9.386 -0.2925 -0.0196  0.1558
  135MOL0     C17717   7.467   6.326   9.492 -0.2928  0.8372 -0.3396
  135MOL0     O17718   7.566   6.351   9.585 -0.3946  0.2395 -0.7737
  135MOL0     C17719   7.562   6.466   9.669  0.8638 -0.4065  0.4641
  135MOL0     C17720   7.448   6.502   9.737  0.3938  0.0769  0.7803
  135MOL0     C17721   7.452   6.596   9.839 -0.1844 -0.4791  0.2161
  135MOL0     C17722   7.574   6.653   9.874 -0.9005 -0.5091  0.3625
  135MOL0     O17723   7.577   6.746   9.969  0.0292  0.0866 -0.1621
  135MOL0     C17724   7.472   6.766  10.063 -0.5012  0.5533  0.0037
  135MOL0     C17725   7.505   6.869  10.170 -0.5193  0.6519 -0.1406
  135MOL0     C17726   7.546   7.009  10.110  0.0133  0.2065 -0.3310
  135MOL0     C17727   7.581   7.104  10.226  0.1341 -0.8995 -0.0621
  135MOL0     C17728   7.597   7.251  10.181 -0.6286  0.3373  0.0743
  135MOL0     C17729   7.585   7.342  10.311 -0.2542  0.2876 -1.2182
  135MOL0     C17730   7.562   7.480  10.257 -0.0102 -0.2736  0.8831
  135MOL0     C17731   7.495   7.588  10.351 -0.3320  0.5065 -0.1801
  135MOL0    Cl17732   7.382   7.518  10.475 -0.0242 -0.2462  0.0053
  135MOL0     C17733   7.685   6.633   9.790 -0.6861 -0.6136  0.1905
  135MOL0     C17734   7.676   6.537   9.689 -0.6362  0.4955 -0.1805
  135MOL0     O17735   7.356   6.385   9.489 -0.4566 -0.5037 -0.2498
  135MOL0     C17736   7.629   6.161   9.391 -0.0762  0.3408 -0.4847
  135MOL0     C17737   7.652   6.053   9.311  1.0127 -0.0039  0.0903
  135MOL0     N17738   7.704   6.330   8.904  0.0242 -0.6545  0.0480
  135MOL0     N17739   7.695   6.403   9.009  0.7296 -0.2187 -0.4978
  135MOL0     C17740   7.949   7.405   9.938 -0.6570 -0.1923 -0.0867
  135MOL0     C17741   7.999   7.540   9.966  0.2612 -0.6893 -0.2227
  135MOL0     C17742   8.165   7.987   9.848  0.2637 -0.1452  0.4260
  135MOL0     C17743   8.213   8.085   9.753  0.0683  0.4641  0.3819
  135MOL0     C17744   8.206   8.218   9.764  0.2422  0.6941 -0.4442
  135MOL0     C17745   8.149   8.264   9.883 -0.5577 -0.1481  0.3623
  135MOL0     O17746   8.123   8.401   9.908 -0.1066  0.8276 -1.0809
  135MOL0     C17747   8.137   8.517   9.816  1.1883  0.6139 -0.3392
  135MOL0     C17748   8.233   8.621   9.877 -0.3301  0.3395 -0.2453
  135MOL0     C17749   8.186   8.676  10.017 -0.0931  0.4956 -0.6473
  135MOL0     C17750   8.178   8.830  10.026 -0.0810 -0.2615  0.1530
  135MOL0     C17751   8.303   8.893   9.977 -0.1365 -0.5766 -0.5881
  135MOL0     C17752   8.411   8.928   9.937 -0.4074  0.4133  0.3695
  135MOL0     C17753   8.098   8.177   9.980 -0.7063  0.5749 -0.0562
  135MOL0     C17754   8.104   8.035   9.964 -0.0024 -0.0411  0.0850
  135MOL0     H17755   8.066   7.634   9.640  0.9630 -1.0122  0.2543
  135MOL0     H17756   8.011   7.417   9.604  1.4559 -2.0511  0.5987
  135MOL0     H17757   7.993   7.203   9.593  0.3964 -0.1400 -1.0055
  135MOL0     H17758   7.822   7.233   9.604 -2.9644 -1.7412  1.9402
  135MOL0     H17759   7.802   6.984   9.699  1.5023 -0.7252  1.6577
  135MOL0     H17760   7.983   6.978   9.685 -0.0957 -0.7284  0.2190
  135MOL0     H17761   7.954   7.011   9.438 -1.9865  3.3519 -1.6146
  135MOL0     H17762   7.776   7.018   9.473 -0.2235 -1.6946  0.4358
  135MOL0     H17763   7.947   6.786   9.582  0.5771 -0.0485 -0.3595
  135MOL0     H17764   7.768   6.796   9.559  1.0472  1.2166  2.5820
  135MOL0     H17765   7.977   6.780   9.335  0.7226 -0.2158  1.8466
  135MOL0     H17766   7.819   6.815   9.292  0.9484  1.5463 -0.2290
  135MOL0     H17767   7.733   6.617   9.406  0.2759 -1.8306 -0.9294
  135MOL0     H17768   7.894   6.560   9.449  0.2452 -1.4616 -0.0894
  135MOL0     H17769   7.824   6.611   9.161  3.0574 -1.8824 -2.8509
  135MOL0     H17770   7.962   6.528   9.223 -1.1586 -1.1047 -0.3855
  135MOL0     H17771   7.676   6.431   9.268  0.2605 -2.6991  2.0126
  135MOL0     H17772   7.825   6.356   9.324  1.5332  1.4947  0.8194
  135MOL0     H17773   7.906   6.178   9.110 -0.2011 -0.8552  0.2578
  135MOL0     H17774   7.940   6.111   8.837  1.0824  2.6230  2.8717
  135MOL0     H17775   7.784   6.147   8.745 -0.8287 -0.6651  0.3245
  135MOL0     H17776   7.822   5.952   8.979 -0.4624  2.5827  1.0886
  135MOL0     H17777   7.789   5.912   8.821  1.5626 -2.0772  1.3518
  135MOL0     H17778   7.579   6.089   8.948 -1.3665  0.2496 -0.8052
  135MOL0     H17779   7.566   5.987   8.817  0.8967  3.2010 -0.5125
  135MOL0     H17780   7.602   5.774   8.975 -0.4754  0.2168  0.8575
  135MOL0     H17781   7.473   5.876   9.000 -0.0854 -0.8531 -0.9043
  135MOL0     H17782   7.377   6.034   9.126  0.0172  0.2189  0.2659
  135MOL0     H17783   7.310   6.203   9.302 -0.7957 -1.8978 -1.0457
  135MOL0     H17784   7.371   6.427   9.722  1.4969 -1.0308  0.5168
  135MOL0     H17785   7.360   6.597   9.896 -0.4006 -0.4500 -0.1312
  135MOL0     H17786   7.447   6.669  10.108 -0.7730  1.1887  1.2680
  135MOL0     H17787   7.387   6.805  10.007 -2.8223 -0.7258  2.3635
  135MOL0     H17788   7.591   6.826  10.222 -0.4417 -1.8967 -2.2026
  135MOL0     H17789   7.424   6.881  10.243  1.0815  0.4589  1.7608
  135MOL0     H17790   7.464   7.057  10.057 -0.0933 -0.2423 -0.5754
  135MOL0     H17791   7.630   6.994  10.041  1.0923  0.7883  0.8044
  135MOL0     H17792   7.499   7.105  10.298  0.0834  1.2482 -0.1085
  135MOL0     H17793   7.669   7.062  10.277  0.4980 -0.5957 -0.4386
  135MOL0     H17794   7.531   7.271  10.096  0.4482 -1.4217 -1.2381
  135MOL0     H17795   7.697   7.271  10.142  0.1710  2.2427  2.7998
  135MOL0     H17796   7.678   7.339  10.368 -0.5297 -0.9699 -0.8141
  135MOL0     H17797   7.510   7.313  10.385  0.6523 -1.9245 -1.0856
  135MOL0     H17798   7.656   7.520  10.217 -1.1821  0.3320 -1.4406
  135MOL0     H17799   7.506   7.481  10.163 -0.4471  0.1440  1.1447
  135MOL0     H17800   7.455   7.679  10.304 -2.1271  0.5384  1.2667
  135MOL0     H17801   7.576   7.623  10.416 -1.4311  0.1058  1.4777
  135MOL0     H17802   7.780   6.683   9.801 -1.2278  0.6442 -0.5947
  135MOL0     H17803   7.757   6.517   9.619  0.1775 -0.3149  0.9450
  135MOL0     H17804   7.706   6.185   9.464 -0.8853  0.5262  0.3251
  135MOL0     H17805   7.746   6.000   9.320  0.0837 -1.6256  0.7095
  135MOL0     H17806   7.919   7.342  10.021 -1.0375 -0.5980 -0.5273
  135MOL0     H17807   8.008   7.568  10.071 -1.9576 -0.1365 -0.1232
  135MOL0     H17808   8.257   8.040   9.665 -0.8367  2.6049 -1.2449
  135MOL0     H17809   8.257   8.274   9.686  1.4682 -1.5446 -1.3795
  135MOL0     H17810   8.041   8.570   9.807 -0.1175 -1.8827 -2.3434
  135MOL0     H17811   8.162   8.491   9.712 -1.0681 -0.9505 -0.5522
  135MOL0     H17812   8.329   8.569   9.875  0.2413  0.9454  3.8556
  135MOL0     H17813   8.250   8.704   9.807  2.1938  0.5422  0.5304
  135MOL0     H17814   8.257   8.646  10.095 -0.9006 -2.6093 -0.9711
  135MOL0     H17815   8.088   8.633  10.040  1.3952 -1.8550  1.9427
  135MOL0     H17816   8.099   8.855   9.954 -1.4512 -0.5684  1.5032
  135MOL0     H17817   8.144   8.847  10.129 -0.9407 -3.3877  0.4781
  135MOL0     H17818   8.518   8.942   9.932 -0.0804 -1.7968  0.4011
  135MOL0     H17819   8.046   8.210  10.070 -0.2481 -1.1988  0.9172
  135MOL0     H17820   8.044   7.976  10.033 -1.0794  1.9851  0.9832
  136MOL0     O17821   1.439   8.439   1.937 -0.3113  0.2224  0.2033
  136MOL0     C17822   1.421   8.396   1.819  0.6184  0.2027 -0.1969
  136MOL0     O17823   1.350   8.452   1.723  0.1864 -0.7212 -0.3656
  136MOL0     C17824   1.295   8.579   1.751 -0.0586  0.7060 -0.1820
  136MOL0     C17825   1.164   8.593   1.786 -0.1471 -0.6775 -0.0210
  136MOL0     C17826   1.098   8.719   1.791  0.0215  0.2774 -0.2488
  136MOL0     C17827   1.166   8.838   1.769 -0.9132  1.2405 -0.9479
  136MOL0     O17828   1.106   8.953   1.792  0.2028 -0.1956 -0.0462
  136MOL0     C17829   1.017   8.989   1.682 -0.4159  0.1188 -0.1949
  136MOL0     C17830   1.091   9.071   1.571  0.3338  0.2039  0.4803
  136MOL0     C17831   1.002   9.117   1.450 -0.0557  1.0305 -0.1275
  136MOL0     C17832   1.055   9.191   1.333 -0.5085 -0.1472  0.2168
  136MOL0     C17833   0.950   9.218   1.220  0.1647 -0.1167 -0.0371
  136MOL0     C17834   0.901   9.098   1.146 -0.5421 -0.1105  0.6615
  136MOL0     C17835   0.801   9.143   1.039  0.9511  0.3306 -0.0909
  136MOL0     C17836   0.778   9.040   0.939  0.0630  0.1055  0.3769
  136MOL0     N17837   0.681   9.075   0.837 -0.0179 -1.1281  0.0146
  136MOL0     C17838   0.549   9.062   0.852 -0.1120  0.8774 -0.1221
  136MOL0     C17839   0.496   9.117   0.739 -0.2043 -0.8800  0.2172
  136MOL0     C17840   0.340   9.132   0.716 -0.3627 -0.5647  1.8652
  136MOL0     C17841   0.311   9.268   0.649  1.1652  0.5441 -0.0385
  136MOL0     C17842   0.325   9.378   0.758 -1.1211 -0.7287  0.5905
  136MOL0     C17843   0.197   9.398   0.832  0.3692  0.6245 -0.2943
  136MOL0     O17844   0.157   9.295   0.915  0.4672 -0.1120 -0.4799
  136MOL0     C17845   0.237   9.282   1.030 -0.5402  0.3604  0.1536
  136MOL0     C17846   0.240   9.147   1.084 -1.0733 -0.1235  0.7083
  136MOL0     C17847   0.329   9.117   1.191  0.0239  0.9224 -0.1895
  136MOL0     C17848   0.407   9.213   1.248 -0.5166 -0.2928 -0.3624
  136MOL0     C17849   0.500   9.176   1.351 -0.3171 -0.4975  0.2196
  136MOL0     O17850   0.493   9.051   1.403  0.7318  0.7309  0.2933
  136MOL0     C17851   0.553   9.017   1.522 -0.9916 -0.0944 -0.6524
  136MOL0     C17852   0.533   9.081   1.654 -0.7379  1.0985  0.9919
  136MOL0     C17853   0.580   9.034   1.780  1.0784 -0.1370  0.5517
  136MOL0     C17854   0.650   8.911   1.778 -0.2994 -0.0967  0.0767
  136MOL0     O17855   0.690   8.853   1.894  0.6299  0.4301  0.1544
  136MOL0     C17856   0.586   8.773   1.965 -0.0397 -0.5524 -0.6039
  136MOL0     C17857   0.659   8.677   2.056  0.6564 -0.3076  0.6449
  136MOL0     C17858   0.757   8.585   1.979  0.4203  0.6276  0.0103
  136MOL0     C17859   0.825   8.501   2.094  0.5138  0.0227 -0.0721
  136MOL0     C17860   0.933   8.399   2.061  0.5109  0.2978 -0.2853
  136MOL0     C17861   0.984   8.323   2.184 -0.4438  0.7456 -0.1324
  136MOL0     C17862   0.901   8.191   2.185  0.1672  0.5148 -0.4140
  136MOL0     C17863   0.925   8.106   2.314  0.2102 -0.8602 -0.2116
  136MOL0    Cl17864   1.067   8.002   2.300  0.3046  0.0545 -0.0193
  136MOL0     C17865   0.686   8.852   1.658 -0.4941  0.1658  0.6658
  136MOL0     C17866   0.639   8.903   1.532  0.6201 -0.0898  0.9211
  136MOL0     O17867   0.572   9.265   1.398 -0.4892  0.3668  0.1842
  136MOL0     C17868   0.394   9.349   1.203 -0.3772 -0.6349  0.3764
  136MOL0     C17869   0.313   9.375   1.096 -0.1880 -0.0533 -0.1087
  136MOL0     N17870   0.607   9.172   0.663  0.5317  1.0159 -0.5521
  136MOL0     N17871   0.717   9.130   0.718 -0.2762 -0.1856 -0.1578
  136MOL0     C17872   1.301   8.819   1.747 -0.0681  0.5650 -0.8902
  136MOL0     C17873   1.362   8.699   1.730 -0.2215  0.3307  0.1799
  136MOL0     C17874   1.499   8.275   1.782 -0.2827  0.8947  0.5076
  136MOL0     C17875   1.578   8.274   1.666  0.9798 -0.0719  0.9335
  136MOL0     C17876   1.665   8.166   1.644 -0.3234  0.4626 -0.1675
  136MOL0     C17877   1.674   8.057   1.734  0.7481  0.2838 -0.2263
  136MOL0     O17878   1.768   7.960   1.718  0.2664  0.6650  0.2759
  136MOL0     C17879   1.784   7.850   1.816 -0.6189 -0.1500 -0.2501
  136MOL0     C17880   1.922   7.798   1.779  0.1624  0.8638 -0.0155
  136MOL0     C17881   1.987   7.716   1.895 -0.3242  0.5787 -0.2688
  136MOL0     C17882   2.133   7.688   1.863  0.4001 -0.5413 -0.5919
  136MOL0     C17883   2.186   7.687   1.998 -0.1096  0.5853 -0.7977
  136MOL0     C17884   2.257   7.657   2.096 -0.2991  0.6137  0.2304
  136MOL0     C17885   1.599   8.069   1.853  0.6503 -0.2446  0.4927
  136MOL0     C17886   1.520   8.177   1.884 -0.3120  0.4518 -0.3381
  136MOL0     H17887   1.106   8.502   1.799 -2.7357  1.0998  2.0198
  136MOL0     H17888   0.993   8.734   1.815  0.2380  4.6941 -1.2187
  136MOL0     H17889   0.942   9.056   1.725  2.0745  2.3622  0.9798
  136MOL0     H17890   0.986   8.892   1.642 -2.3590  0.8122 -0.4605
  136MOL0     H17891   1.173   9.025   1.516  1.8416  5.4323 -2.2882
  136MOL0     H17892   1.135   9.154   1.627  0.6562 -0.3163  1.0030
  136MOL0     H17893   0.921   9.184   1.483 -0.7264  1.8542 -3.1254
  136MOL0     H17894   0.948   9.029   1.412  0.0856  1.2243 -0.7940
  136MOL0     H17895   1.085   9.281   1.388 -1.3825 -1.6881  3.4594
  136MOL0     H17896   1.141   9.142   1.287 -0.7657 -0.2369 -0.1677
  136MOL0     H17897   1.011   9.283   1.158  2.9355 -1.6564  0.9058
  136MOL0     H17898   0.867   9.277   1.260 -1.2188 -1.3146 -0.9921
  136MOL0     H17899   0.848   9.030   1.213 -1.1340  0.6608  0.9965
  136MOL0     H17900   0.995   9.067   1.099  1.3700  2.9084  2.1940
  136MOL0     H17901   0.699   9.154   1.078  0.6283  0.5735 -0.9968
  136MOL0     H17902   0.824   9.239   0.993  0.6481  0.6906  0.4842
  136MOL0     H17903   0.760   8.942   0.984 -2.5704 -0.4920 -1.7002
  136MOL0     H17904   0.879   9.034   0.897 -0.1632 -1.1276 -0.0085
  136MOL0     H17905   0.501   9.024   0.942  0.3416 -1.8747 -0.9552
  136MOL0     H17906   0.281   9.134   0.808 -0.7718  0.0997  1.5982
  136MOL0     H17907   0.310   9.053   0.646  1.6157  1.7027 -1.9046
  136MOL0     H17908   0.205   9.248   0.632  1.7944 -3.5666 -0.3386
  136MOL0     H17909   0.362   9.291   0.555 -3.1903  0.7367 -2.6155
  136MOL0     H17910   0.406   9.356   0.828  0.9506  0.0410 -1.4165
  136MOL0     H17911   0.355   9.471   0.708 -0.2299 -1.7837 -0.9252
  136MOL0     H17912   0.110   9.403   0.765 -0.4423 -0.0095  0.6916
  136MOL0     H17913   0.205   9.485   0.899  1.8285 -1.1129  1.9241
  136MOL0     H17914   0.180   9.069   1.038 -0.2765 -0.2252 -0.1915
  136MOL0     H17915   0.334   9.013   1.221 -1.0781  0.9965  0.3198
  136MOL0     H17916   0.457   9.157   1.665 -0.9023  0.7925  2.0453
  136MOL0     H17917   0.537   9.065   1.875 -1.8622 -5.1198  1.2388
  136MOL0     H17918   0.523   8.720   1.893 -1.9034 -1.1668  1.3769
  136MOL0     H17919   0.515   8.824   2.030  0.6726 -1.0086  0.5749
  136MOL0     H17920   0.581   8.613   2.097  0.3628  1.2334  2.6241
  136MOL0     H17921   0.708   8.735   2.135  0.1019  0.0920  0.7077
  136MOL0     H17922   0.835   8.642   1.927  0.9627 -0.4535 -0.3874
  136MOL0     H17923   0.703   8.517   1.914 -0.9117  1.6643 -0.0067
  136MOL0     H17924   0.875   8.571   2.162 -0.8619  1.5970 -0.6022
  136MOL0     H17925   0.747   8.453   2.154  0.9460 -0.9001 -0.2282
  136MOL0     H17926   1.019   8.442   2.008  0.2055  0.2021 -0.8634
  136MOL0     H17927   0.896   8.323   1.991  1.4510 -1.3196  0.8961
  136MOL0     H17928   0.968   8.383   2.274  3.5403 -0.1786  1.4043
  136MOL0     H17929   1.088   8.290   2.179 -1.3284 -2.6797  1.0580
  136MOL0     H17930   0.794   8.212   2.180 -0.3419 -1.3078  1.3754
  136MOL0     H17931   0.920   8.132   2.094 -2.0684 -1.6142  0.3780
  136MOL0     H17932   0.829   8.056   2.335 -1.7112  2.6406  0.1870
  136MOL0     H17933   0.947   8.173   2.398  1.0404 -2.4056  0.8681
  136MOL0     H17934   0.743   8.760   1.650 -0.7417 -0.0933  1.8102
  136MOL0     H17935   0.664   8.852   1.440  1.5977 -0.0242  1.1365
  136MOL0     H17936   0.454   9.429   1.246 -2.0538  2.2473 -2.2157
  136MOL0     H17937   0.306   9.479   1.065 -1.3879 -0.3368 -0.8533
  136MOL0     H17938   1.356   8.910   1.729  0.3196  1.3008  3.0534
  136MOL0     H17939   1.469   8.696   1.715  0.0032  1.5708  1.3380
  136MOL0     H17940   1.574   8.361   1.601  0.3645 -0.8743 -0.1361
  136MOL0     H17941   1.722   8.161   1.552  0.5005  1.5764  0.2495
  136MOL0     H17942   1.709   7.772   1.799 -0.5321 -0.4072  0.5167
  136MOL0     H17943   1.780   7.888   1.918 -1.4918  1.9744 -1.0099
  136MOL0     H17944   1.912   7.742   1.685 -1.6242  0.3073  0.4578
  136MOL0     H17945   1.992   7.880   1.761  2.5012 -0.7494  1.3004
  136MOL0     H17946   1.935   7.620   1.905 -3.0763  1.6302 -2.9144
  136MOL0     H17947   1.966   7.781   1.980 -1.3783 -1.6073  1.2576
  136MOL0     H17948   2.157   7.589   1.822 -0.9791 -2.2325  2.3828
  136MOL0     H17949   2.176   7.772   1.807 -2.8459  0.1079 -2.3697
  136MOL0     H17950   2.301   7.630   2.191  2.3577  0.8401 -0.8398
  136MOL0     H17951   1.598   7.994   1.931 -1.3629  1.0384  1.7947
  136MOL0     H17952   1.469   8.172   1.980  2.4553 -0.7498  1.1944
  137MOL0     O17953   2.868   4.538   2.376 -0.0427 -0.2112  0.1333
  137MOL0     C17954   2.953   4.555   2.463  0.3940  0.2012 -0.5051
  137MOL0     O17955   2.940   4.628   2.574 -0.1092 -0.0139 -0.4162
  137MOL0     C17956   2.829   4.689   2.627 -0.2307  0.7331 -0.2591
  137MOL0     C17957   2.701   4.653   2.592  0.2182  0.1694  0.0899
  137MOL0     C17958   2.598   4.704   2.673  0.7855  0.9634  0.4187
  137MOL0     C17959   2.610   4.786   2.790 -0.1994  0.6872  0.3430
  137MOL0     O17960   2.501   4.836   2.857  0.2243  0.4756  0.0511
  137MOL0     C17961   2.378   4.763   2.841  0.1117  0.5371  0.9564
  137MOL0     C17962   2.263   4.793   2.927 -0.2945 -0.2810  0.2980
  137MOL0     C17963   2.195   4.924   2.862  0.4251 -0.0693 -0.1118
  137MOL0     C17964   2.055   4.950   2.925 -0.5667  0.9608 -1.0705
  137MOL0     C17965   1.947   4.871   2.847 -0.1631  1.0201  0.2343
  137MOL0     C17966   1.812   4.848   2.908 -0.2189 -1.0377 -0.2804
  137MOL0     C17967   1.699   4.803   2.812 -0.6652 -0.9576  1.0506
  137MOL0     C17968   1.565   4.772   2.883 -0.5213 -0.1701 -0.1467
  137MOL0     N17969   1.570   4.643   2.959 -0.3320 -0.4311 -0.2558
  137MOL0     C17970   1.498   4.636   3.074 -0.0795  0.3093 -0.3999
  137MOL0     C17971   1.531   4.514   3.128  0.7757  1.1300  0.4487
  137MOL0     C17972   1.473   4.468   3.247 -0.3174 -0.1709  0.0171
  137MOL0     C17973   1.432   4.326   3.239 -0.4022 -0.2100  0.8312
  137MOL0     C17974   1.309   4.312   3.326 -0.7214  0.2822  0.2681
  137MOL0     C17975   1.182   4.395   3.284 -0.5225  0.1302 -0.8933
  137MOL0     O17976   1.090   4.357   3.389 -0.2609 -0.3730  0.1644
  137MOL0     C17977   0.964   4.399   3.371 -0.0191  0.3860 -0.0692
  137MOL0     C17978   0.879   4.302   3.325 -0.3314 -0.4775 -0.7071
  137MOL0     C17979   0.743   4.328   3.325  0.2898 -0.5609 -0.5036
  137MOL0     C17980   0.695   4.462   3.342  0.6698 -1.0624  0.2291
  137MOL0     C17981   0.546   4.476   3.347  0.4914 -0.4705 -0.6128
  137MOL0     O17982   0.467   4.366   3.330 -0.3711  0.5627 -0.1379
  137MOL0     C17983   0.338   4.384   3.293  0.7098  0.3019  0.3548
  137MOL0     C17984   0.296   4.388   3.156  0.1117 -0.2352  0.2299
  137MOL0     C17985   0.163   4.375   3.129 -0.0473  0.2295  0.5546
  137MOL0     C17986   0.070   4.374   3.235  0.0583 -0.6253  0.1677
  137MOL0     O17987  -0.062   4.375   3.210 -0.6908 -0.3791  0.3224
  137MOL0     C17988  -0.122   4.253   3.185  0.7277 -0.0122  0.4045
  137MOL0     C17989  -0.210   4.244   3.057  0.4624  0.1298  0.5598
  137MOL0     C17990  -0.326   4.339   3.067  1.2264 -0.5386  0.1358
  137MOL0     C17991  -0.400   4.339   2.939 -0.3039  0.6608  0.3879
  137MOL0     C17992  -0.493   4.224   2.934 -0.2517 -0.5385  0.3653
  137MOL0     C17993  -0.523   4.208   2.784  0.6255  0.2453 -0.0830
  137MOL0     C17994  -0.561   4.065   2.743 -1.2078 -0.1727 -1.1141
  137MOL0     C17995  -0.570   4.042   2.598  0.3700  1.1828 -0.1054
  137MOL0    Cl17996  -0.665   4.170   2.524  0.2974 -0.0283  0.2641
  137MOL0     C17997   0.116   4.372   3.368  0.1603 -0.1784  0.3874
  137MOL0     C17998   0.247   4.377   3.399 -0.3523  0.5921  0.2945
  137MOL0     O17999   0.495   4.589   3.362 -1.1678 -0.2516  0.3616
  137MOL0     C18000   0.786   4.555   3.378  0.5511 -0.1424 -0.2779
  137MOL0     C18001   0.917   4.527   3.395 -0.6756  0.3427 -0.7664
  137MOL0     N18002   1.636   4.459   3.054  0.2870 -0.2423  0.2025
  137MOL0     N18003   1.646   4.536   2.952  0.6284  0.2999  0.0229
  137MOL0     C18004   2.746   4.798   2.832  0.4481  0.7733 -0.5770
  137MOL0     C18005   2.852   4.763   2.746 -0.5840  0.0111 -0.3461
  137MOL0     C18006   3.088   4.494   2.444  0.1185  0.2690  1.1649
  137MOL0     C18007   3.131   4.429   2.321 -0.8439 -0.6748  0.0375
  137MOL0     C18008   3.259   4.372   2.305  0.4407 -0.0578 -0.3491
  137MOL0     C18009   3.358   4.393   2.401 -1.3234  0.5223 -0.4220
  137MOL0     O18010   3.488   4.347   2.362  0.2381  0.1500 -0.3591
  137MOL0     C18011   3.574   4.302   2.469 -0.6307  1.0508 -0.1912
  137MOL0     C18012   3.675   4.191   2.431  0.1823 -0.1317  0.9865
  137MOL0     C18013   3.746   4.240   2.306  0.4585 -0.3490 -1.1139
  137MOL0     C18014   3.867   4.153   2.281 -0.6055 -0.0871 -0.4976
  137MOL0     C18015   3.837   4.047   2.187  0.9696  0.4781 -0.8864
  137MOL0     C18016   3.820   3.947   2.120  0.4695 -0.1793 -1.2729
  137MOL0     C18017   3.325   4.452   2.525  0.5002  0.5829 -0.5336
  137MOL0     C18018   3.190   4.503   2.544  0.3157  0.0836  0.1120
  137MOL0     H18019   2.691   4.598   2.499 -1.7169  1.0342 -0.2794
  137MOL0     H18020   2.506   4.675   2.622  3.2640 -4.8587 -1.6011
  137MOL0     H18021   2.400   4.659   2.866  3.8433  0.5176 -1.5741
  137MOL0     H18022   2.353   4.787   2.737  1.0557  2.1952  1.0784
  137MOL0     H18023   2.292   4.819   3.029  1.6034 -2.3737  0.3792
  137MOL0     H18024   2.205   4.700   2.923  1.7278 -1.6703  1.3485
  137MOL0     H18025   2.181   4.922   2.754  1.3745 -3.0226 -0.2613
  137MOL0     H18026   2.269   5.002   2.886  1.9092 -1.1419 -1.0454
  137MOL0     H18027   2.058   4.919   3.030  3.6744  0.0690 -1.2698
  137MOL0     H18028   2.029   5.056   2.917  0.5234  1.4750  1.2166
  137MOL0     H18029   1.986   4.771   2.824 -0.2015  1.1007 -0.1954
  137MOL0     H18030   1.944   4.917   2.748  2.4601  0.5975 -0.1420
  137MOL0     H18031   1.774   4.932   2.968  0.3575 -0.9608 -0.0079
  137MOL0     H18032   1.829   4.770   2.983 -1.7892 -1.3887 -0.2734
  137MOL0     H18033   1.687   4.897   2.757  1.2774 -0.1171  1.9797
  137MOL0     H18034   1.735   4.725   2.744  1.8041  0.5082  0.5644
  137MOL0     H18035   1.484   4.767   2.810 -0.3874  0.0158 -0.3100
  137MOL0     H18036   1.553   4.862   2.944  0.6597 -0.5634  0.6948
  137MOL0     H18037   1.434   4.708   3.124 -0.6815 -1.0585  0.8692
  137MOL0     H18038   1.404   4.550   3.269 -0.8757 -0.4082 -0.7850
  137MOL0     H18039   1.550   4.478   3.324 -0.3795 -1.0381  0.2098
  137MOL0     H18040   1.512   4.259   3.272  0.7559  1.5009  1.6188
  137MOL0     H18041   1.401   4.310   3.135 -0.3980  0.4552  0.7214
  137MOL0     H18042   1.275   4.208   3.329 -2.7591  0.7855 -2.2441
  137MOL0     H18043   1.334   4.354   3.423 -0.0937 -1.4841  0.9075
  137MOL0     H18044   1.152   4.354   3.187 -0.6154 -1.8441 -0.0746
  137MOL0     H18045   1.196   4.503   3.293 -1.0590  0.0041  2.5783
  137MOL0     H18046   0.909   4.199   3.307  0.5617 -0.0857 -1.4944
  137MOL0     H18047   0.678   4.244   3.304 -0.6158 -0.8029  2.7333
  137MOL0     H18048   0.369   4.402   3.077  0.7227  0.0072  0.8183
  137MOL0     H18049   0.139   4.359   3.024  0.1885 -0.5991  0.6195
  137MOL0     H18050  -0.184   4.231   3.272 -0.7473  1.9583 -0.0825
  137MOL0     H18051  -0.044   4.177   3.176  2.2192  1.4774  0.1416
  137MOL0     H18052  -0.263   4.149   3.059 -1.4925  1.1397 -0.4438
  137MOL0     H18053  -0.141   4.255   2.973  1.0183  3.3383  1.3031
  137MOL0     H18054  -0.293   4.442   3.086  0.4917 -0.4688  1.1374
  137MOL0     H18055  -0.393   4.301   3.145  2.1903 -2.3264  0.1444
  137MOL0     H18056  -0.457   4.432   2.930 -2.8211 -0.6287  1.8371
  137MOL0     H18057  -0.327   4.337   2.858 -0.9870 -1.0880 -0.2372
  137MOL0     H18058  -0.580   4.231   3.000 -0.6590 -1.7799 -0.0077
  137MOL0     H18059  -0.440   4.133   2.965 -1.5432 -0.6767  2.3202
  137MOL0     H18060  -0.429   4.226   2.731  0.6615 -2.7317 -1.2195
  137MOL0     H18061  -0.596   4.280   2.745 -2.3912 -1.8462  1.2591
  137MOL0     H18062  -0.478   4.001   2.774 -0.8417  0.0355 -1.6594
  137MOL0     H18063  -0.651   4.036   2.798 -0.5621  0.1463  0.1415
  137MOL0     H18064  -0.623   3.952   2.566  3.1231 -0.6854  0.2800
  137MOL0     H18065  -0.472   4.041   2.551  0.2948  2.8741 -0.3553
  137MOL0     H18066   0.049   4.372   3.453  0.5583  0.4711  0.7190
  137MOL0     H18067   0.295   4.369   3.496  2.4172 -1.5362 -1.0897
  137MOL0     H18068   0.737   4.647   3.409 -1.9382 -2.2763  2.6955
  137MOL0     H18069   0.988   4.587   3.451  1.2746 -1.1244 -1.5633
  137MOL0     H18070   2.764   4.839   2.931  0.2967 -2.3983  0.9003
  137MOL0     H18071   2.945   4.782   2.799 -1.1106  2.1828 -0.0920
  137MOL0     H18072   3.057   4.425   2.241  0.6873 -0.0502 -1.4834
  137MOL0     H18073   3.286   4.322   2.213  0.1903  1.6852 -1.4067
  137MOL0     H18074   3.515   4.270   2.555 -0.1014  0.1809 -0.1381
  137MOL0     H18075   3.629   4.390   2.506  0.2244  1.1179 -1.5436
  137MOL0     H18076   3.732   4.170   2.521 -1.2189 -2.9606  1.3202
  137MOL0     H18077   3.636   4.091   2.411 -0.7850  0.4168 -0.0662
  137MOL0     H18078   3.783   4.343   2.312  0.4526 -0.3883 -0.3344
  137MOL0     H18079   3.669   4.233   2.229  0.4498  3.4591 -1.6187
  137MOL0     H18080   3.946   4.219   2.243 -0.6783  0.7180  0.7022
  137MOL0     H18081   3.912   4.094   2.362 -0.7837 -1.9344 -1.6976
  137MOL0     H18082   3.798   3.864   2.055  0.9937 -1.2593 -0.1165
  137MOL0     H18083   3.394   4.475   2.607 -1.9597 -1.5370  2.3727
  137MOL0     H18084   3.162   4.545   2.640  3.7866 -1.1354  1.8238
  138MOL0     O18085   7.257   9.263   4.481 -0.1585  0.6357 -0.5889
  138MOL0     C18086   7.359   9.292   4.551 -0.3256 -0.0660 -0.4114
  138MOL0     O18087   7.392   9.420   4.586 -0.1576  0.4213  0.0294
  138MOL0     C18088   7.325   9.526   4.534 -0.2023  0.2460  0.7262
  138MOL0     C18089   7.185   9.541   4.548 -0.1633  0.0886 -0.8825
  138MOL0     C18090   7.126   9.650   4.480  0.7678 -0.8548 -0.4727
  138MOL0     C18091   7.197   9.749   4.412  0.3231  0.2960 -0.6840
  138MOL0     O18092   7.136   9.845   4.330  0.0579 -0.1909 -0.2693
  138MOL0     C18093   7.037   9.922   4.403 -1.0341 -0.1366  0.2348
  138MOL0     C18094   7.003  10.062   4.339 -0.2074  0.2105 -0.2489
  138MOL0     C18095   7.126  10.158   4.322 -0.7559 -0.4193 -0.1927
  138MOL0     C18096   7.089  10.268   4.217 -0.0650  1.0514 -1.2853
  138MOL0     C18097   7.201  10.373   4.186 -0.1619 -1.1322 -0.3244
  138MOL0     C18098   7.222  10.459   4.319  0.6161 -0.1084 -0.1736
  138MOL0     C18099   7.349  10.549   4.314  0.5934  0.4132  0.0729
  138MOL0     C18100   7.336  10.651   4.439  0.3657  0.7199 -0.8952
  138MOL0     N18101   7.427  10.765   4.420  0.2213 -0.2075 -1.2007
  138MOL0     C18102   7.546  10.778   4.481 -0.8242 -0.0328 -1.1743
  138MOL0     C18103   7.594  10.898   4.430  0.7645  0.5252 -0.4595
  138MOL0     C18104   7.728  10.957   4.440 -0.6161 -0.2184 -0.1338
  138MOL0     C18105   7.742  11.045   4.571 -0.9784 -0.3658 -0.0456
  138MOL0     C18106   7.639  11.158   4.597  0.3248  0.0634  0.4105
  138MOL0     C18107   7.636  11.266   4.494  0.2686  0.1523  0.4706
  138MOL0     O18108   7.757  11.338   4.512  0.4273 -0.1149  0.5611
  138MOL0     C18109   7.785  11.453   4.443  0.0403 -0.8808  1.0969
  138MOL0     C18110   7.914  11.509   4.449 -0.3893  0.5800 -0.2209
  138MOL0     C18111   7.946  11.616   4.376 -0.2083 -1.1842  0.3818
  138MOL0     C18112   7.840  11.678   4.300  0.0610 -0.6067 -0.5315
  138MOL0     C18113   7.871  11.790   4.204  0.3734  0.2426 -0.6291
  138MOL0     O18114   8.001  11.796   4.161  0.7286 -0.2274 -0.3928
  138MOL0     C18115   8.029  11.895   4.075 -0.4417 -0.7554 -0.2929
  138MOL0     C18116   8.130  11.861   3.987  0.1934 -0.5923 -0.7314
  138MOL0     C18117   8.192  11.943   3.894  0.3971 -0.4820  0.0434
  138MOL0     C18118   8.146  12.079   3.887 -0.4739  0.0633  0.5450
  138MOL0     O18119   8.189  12.169   3.797 -0.3848 -1.3594 -0.2736
  138MOL0     C18120   8.298  12.133   3.717 -1.3068  0.3074 -0.3997
  138MOL0     C18121   8.319  12.245   3.623 -0.5985  0.3398 -0.7400
  138MOL0     C18122   8.435  12.205   3.523  1.3279 -0.5931 -0.1838
  138MOL0     C18123   8.447  12.308   3.420 -0.3207 -0.6508 -0.1427
  138MOL0     C18124   8.570  12.296   3.338 -0.2330  0.3155 -0.1074
  138MOL0     C18125   8.557  12.388   3.215 -0.1371  0.6277 -0.7910
  138MOL0     C18126   8.673  12.350   3.112  0.4838 -0.3649 -0.7826
  138MOL0     C18127   8.696  12.464   3.011  0.3739 -0.0554  0.2214
  138MOL0    Cl18128   8.784  12.597   3.100  0.0945  0.4195 -0.2593
  138MOL0     C18129   8.044  12.114   3.976  0.0795 -0.2550 -0.1146
  138MOL0     C18130   7.984  12.028   4.072  0.0595  0.1583 -0.0912
  138MOL0     O18131   7.779  11.860   4.169  0.2171 -0.1828  0.1596
  138MOL0     C18132   7.708  11.622   4.295 -0.3030  0.2874 -0.0622
  138MOL0     C18133   7.676  11.528   4.390  0.1213  0.6834  0.4360
  138MOL0     N18134   7.498  10.952   4.343  0.4871 -0.1823 -0.0578
  138MOL0     N18135   7.393  10.878   4.349  0.4179 -0.3700 -0.5631
  138MOL0     C18136   7.337   9.723   4.411 -0.1322  0.1716  0.4151
  138MOL0     C18137   7.402   9.612   4.460 -0.8687  0.5850 -0.9148
  138MOL0     C18138   7.450   9.186   4.603  0.0431 -0.5022 -0.8487
  138MOL0     C18139   7.396   9.054   4.619  0.2237  0.6549  0.6821
  138MOL0     C18140   7.472   8.956   4.675 -0.1395  0.3565 -0.1472
  138MOL0     C18141   7.603   8.979   4.713 -0.7744  0.0851  0.5625
  138MOL0     O18142   7.682   8.890   4.780  0.6644  0.1980 -0.0569
  138MOL0     C18143   7.637   8.747   4.773  0.2056 -0.9074  0.2137
  138MOL0     C18144   7.738   8.665   4.849  0.6078  0.4938  0.4566
  138MOL0     C18145   7.871   8.625   4.778  0.3627  0.3397  0.9088
  138MOL0     C18146   7.976   8.542   4.870 -0.1695 -0.8774  0.2009
  138MOL0     C18147   8.031   8.427   4.792  0.5625 -0.3872  0.0449
  138MOL0     C18148   8.072   8.330   4.733  0.6696 -0.6209  0.3017
  138MOL0     C18149   7.661   9.103   4.694 -0.4547 -0.3911  0.9389
  138MOL0     C18150   7.584   9.207   4.654 -0.2084 -0.0087  1.1087
  138MOL0     H18151   7.130   9.477   4.616  1.3541 -0.2540  0.0795
  138MOL0     H18152   7.018   9.656   4.480  0.7645  0.3703  1.9334
  138MOL0     H18153   7.064   9.941   4.507 -0.2893  1.5300 -0.2349
  138MOL0     H18154   6.953   9.853   4.402 -2.5524  1.6064 -2.2782
  138MOL0     H18155   6.929  10.109   4.405  0.3346  2.2764 -1.0419
  138MOL0     H18156   6.947  10.053   4.246 -0.6294 -0.2233  0.0381
  138MOL0     H18157   7.206  10.096   4.281 -2.3527 -0.6683 -3.2180
  138MOL0     H18158   7.162  10.193   4.420  2.1434 -2.0726 -0.5469
  138MOL0     H18159   7.061  10.219   4.124  2.9232  0.8737 -2.1919
  138MOL0     H18160   6.996  10.318   4.246 -0.6228  0.6629 -2.3723
  138MOL0     H18161   7.173  10.436   4.101  0.5075 -1.2309 -0.6186
  138MOL0     H18162   7.290  10.316   4.160  1.4434  1.2466 -0.3019
  138MOL0     H18163   7.231  10.394   4.407 -0.6348 -0.3812 -0.2164
  138MOL0     H18164   7.131  10.519   4.324  0.5067 -0.1247 -1.5181
  138MOL0     H18165   7.435  10.482   4.320  0.6868  0.2790 -2.0333
  138MOL0     H18166   7.349  10.595   4.214 -1.1082 -0.8024 -0.5256
  138MOL0     H18167   7.364  10.600   4.532  2.1729  2.5796 -0.3359
  138MOL0     H18168   7.234  10.689   4.448 -0.2021 -0.9626  0.4795
  138MOL0     H18169   7.593  10.713   4.554  0.1391 -1.0385 -2.6293
  138MOL0     H18170   7.745  11.003   4.342  1.6681 -5.0597 -2.3244
  138MOL0     H18171   7.784  10.866   4.458 -0.5727 -0.5479 -1.7463
  138MOL0     H18172   7.847  11.074   4.585 -1.3132  0.9595 -0.1759
  138MOL0     H18173   7.735  10.980   4.659  1.0607  1.4578  1.5768
  138MOL0     H18174   7.546  11.101   4.610 -1.1156  1.5548 -2.4807
  138MOL0     H18175   7.664  11.209   4.690  0.6679 -1.2021  1.0375
  138MOL0     H18176   7.545  11.321   4.519 -1.0960 -1.3810 -0.8030
  138MOL0     H18177   7.632  11.226   4.392  0.1317  2.1015 -0.3345
  138MOL0     H18178   7.996  11.455   4.495  2.0519  3.6036 -0.6645
  138MOL0     H18179   8.046  11.658   4.367  0.0895 -1.8634  0.4360
  138MOL0     H18180   8.177  11.764   3.979 -0.5929 -0.8350 -3.1786
  138MOL0     H18181   8.274  11.901   3.838  1.4132 -1.0705  1.8854
  138MOL0     H18182   8.274  12.039   3.665 -0.2272 -0.0288 -0.3211
  138MOL0     H18183   8.384  12.110   3.781 -1.2405 -1.5707 -1.0946
  138MOL0     H18184   8.327  12.342   3.673 -4.4953 -0.2065  1.3633
  138MOL0     H18185   8.228  12.256   3.563 -0.7275 -0.4803 -0.7078
  138MOL0     H18186   8.408  12.110   3.475 -2.5427  0.0006  0.4856
  138MOL0     H18187   8.532  12.191   3.571  0.1740  1.9335  3.2685
  138MOL0     H18188   8.356  12.306   3.358 -0.9423  0.4084  0.6924
  138MOL0     H18189   8.442  12.406   3.468 -2.5791 -1.1707  0.8061
  138MOL0     H18190   8.589  12.191   3.313  0.3609  0.8981 -2.2781
  138MOL0     H18191   8.654  12.339   3.394  0.6374 -0.0006 -1.1356
  138MOL0     H18192   8.558  12.495   3.239  3.2895  0.5382 -0.0343
  138MOL0     H18193   8.462  12.371   3.163  0.5794 -1.7214 -1.4343
  138MOL0     H18194   8.767  12.328   3.163 -0.4386 -0.3581  0.9985
  138MOL0     H18195   8.638  12.258   3.065 -1.0944  0.0298 -0.4407
  138MOL0     H18196   8.596  12.499   2.983 -0.5884 -1.3612  1.8375
  138MOL0     H18197   8.738  12.431   2.916 -0.9557  1.2338 -0.8772
  138MOL0     H18198   8.008  12.216   3.983 -1.9002 -0.9868  1.2360
  138MOL0     H18199   7.914  12.065   4.146  1.5182 -0.7355  1.8090
  138MOL0     H18200   7.627  11.663   4.235 -0.8060  2.7946  2.1546
  138MOL0     H18201   7.574  11.495   4.408  1.4662 -2.4275  3.3487
  138MOL0     H18202   7.406   9.791   4.362  2.2082  0.5608  3.8719
  138MOL0     H18203   7.504   9.580   4.443 -0.6544  0.6918  0.1245
  138MOL0     H18204   7.290   9.037   4.606  0.3391  0.3961  0.0716
  138MOL0     H18205   7.425   8.859   4.688 -0.6024  0.8155  1.9099
  138MOL0     H18206   7.634   8.723   4.666  0.1508 -1.1000  0.2582
  138MOL0     H18207   7.541   8.722   4.819  0.7297 -3.6698 -0.0227
  138MOL0     H18208   7.752   8.720   4.943  2.7506 -1.5667  1.4476
  138MOL0     H18209   7.686   8.576   4.884 -1.5677  0.7759 -1.7745
  138MOL0     H18210   7.913   8.717   4.737  0.3280 -0.0048  0.0937
  138MOL0     H18211   7.840   8.568   4.690 -1.0692  1.9452  0.3097
  138MOL0     H18212   8.055   8.608   4.907  0.9438 -1.8035 -0.4481
  138MOL0     H18213   7.926   8.495   4.955  0.2902 -0.9143  0.4542
  138MOL0     H18214   8.129   8.256   4.680 -0.3478  0.0153 -1.7755
  138MOL0     H18215   7.764   9.120   4.722 -0.6225 -0.8137  1.8601
  138MOL0     H18216   7.626   9.307   4.651  0.2250 -0.1548  2.0856
  139MOL0     O18217   2.637   9.190  10.860  0.9398 -0.0695  0.0614
  139MOL0     C18218   2.703   9.185  10.969  0.1466  0.2898  0.0571
  139MOL0     O18219   2.639   9.172  11.098  0.2894 -0.5274  0.2339
  139MOL0     C18220   2.507   9.213  11.090  0.6120 -0.4691  0.2851
  139MOL0     C18221   2.399   9.125  11.047  0.1815  0.2552 -0.0543
  139MOL0     C18222   2.263   9.165  11.054 -1.0022 -0.3833  0.3937
  139MOL0     C18223   2.236   9.298  11.093 -0.3696 -0.7221 -0.3727
  139MOL0     O18224   2.113   9.352  11.139  0.0645  0.3522  0.0571
  139MOL0     C18225   2.006   9.271  11.164  0.1087  0.3101 -0.3574
  139MOL0     C18226   1.891   9.363  11.204  0.3512  0.7609 -0.0864
  139MOL0     C18227   1.759   9.278  11.233  1.5704 -0.5115 -0.4823
  139MOL0     C18228   1.683   9.262  11.109  0.0836 -0.0853  0.4154
  139MOL0     C18229   1.547   9.198  11.134  0.3251  0.3329 -1.0096
  139MOL0     C18230   1.506   9.124  11.007 -0.1289 -0.1493  0.9326
  139MOL0     C18231   1.364   9.073  11.014 -0.1383 -0.8397 -0.5172
  139MOL0     C18232   1.297   9.013  10.894  0.4951 -0.3326  0.7789
  139MOL0     N18233   1.252   9.133  10.816  0.6268  0.1430 -0.2864
  139MOL0     C18234   1.325   9.197  10.719  0.2551  0.1975  0.4873
  139MOL0     C18235   1.255   9.312  10.693 -0.3166 -0.3406 -0.6211
  139MOL0     C18236   1.293   9.441  10.624 -0.8434  1.0248 -0.0877
  139MOL0     C18237   1.376   9.408  10.499 -0.3045 -0.3749 -0.1724
  139MOL0     C18238   1.394   9.522  10.402 -0.2576 -0.3992 -1.0867
  139MOL0     C18239   1.451   9.474  10.269  0.6297 -0.0746  0.5536
  139MOL0     O18240   1.508   9.578  10.196 -0.6157 -0.6313 -0.0291
  139MOL0     C18241   1.635   9.630  10.228  0.1491  0.6898  0.6582
  139MOL0     C18242   1.734   9.553  10.290 -0.3229  0.4241  0.4202
  139MOL0     C18243   1.857   9.613  10.319 -0.2677 -0.4765  0.7061
  139MOL0     C18244   1.884   9.752  10.289  1.0094  0.0645  0.4890
  139MOL0     C18245   2.009   9.821  10.327 -0.3841 -0.5155  0.9360
  139MOL0     O18246   2.102   9.767  10.403 -0.4727  0.2262  0.8089
  139MOL0     C18247   2.207   9.838  10.452 -0.0614 -0.1151 -0.5169
  139MOL0     C18248   2.313   9.843  10.366 -0.0370 -0.5003 -0.2921
  139MOL0     C18249   2.425   9.907  10.405  0.3532 -0.5684  0.4936
  139MOL0     C18250   2.449   9.945  10.536 -0.5292  0.2745  0.7874
  139MOL0     O18251   2.581   9.989  10.557 -0.0199 -1.4482 -0.1633
  139MOL0     C18252   2.629  10.037  10.685 -0.1875 -0.0136 -0.3009
  139MOL0     C18253   2.714  10.161  10.667  1.1531 -0.9621  0.6634
  139MOL0     C18254   2.637  10.291  10.656 -0.4844 -0.4106  0.8431
  139MOL0     C18255   2.727  10.401  10.606 -0.9923  0.0195  0.5048
  139MOL0     C18256   2.849  10.443  10.701 -0.3369 -0.3464 -0.0416
  139MOL0     C18257   2.914  10.564  10.635  1.0909  0.0024 -0.1480
  139MOL0     C18258   3.064  10.571  10.671  0.3476  0.0007 -0.2137
  139MOL0     C18259   3.138  10.696  10.623 -0.6368  0.8940 -0.3707
  139MOL0    Cl18260   3.317  10.683  10.638  0.3042  0.3361  0.0497
  139MOL0     C18261   2.343   9.934  10.626  0.9545 -0.2037  0.4136
  139MOL0     C18262   2.224   9.886  10.583  0.5238  0.9107  0.6480
  139MOL0     O18263   2.016   9.938  10.285  0.4410  0.5197  0.0975
  139MOL0     C18264   1.784   9.822  10.226 -0.5078  0.5349  0.4928
  139MOL0     C18265   1.660   9.754  10.200  0.3212 -0.3968 -0.1196
  139MOL0     N18266   1.146   9.331  10.786 -0.1320 -0.0660 -0.6287
  139MOL0     N18267   1.148   9.215  10.845 -1.1575 -0.4250 -0.3963
  139MOL0     C18268   2.337   9.381  11.132 -0.7912  0.1780 -0.2201
  139MOL0     C18269   2.473   9.344  11.121 -0.0270 -0.0941 -1.2963
  139MOL0     C18270   2.849   9.165  10.972 -0.5451 -0.4432  0.2251
  139MOL0     C18271   2.920   9.177  10.859 -0.9593 -0.2531  0.2456
  139MOL0     C18272   3.057   9.134  10.856  0.1307 -1.5076 -0.3021
  139MOL0     C18273   3.116   9.087  10.971 -0.0508 -0.5269  0.4493
  139MOL0     O18274   3.236   9.027  10.961 -0.0270  0.0484  0.1229
  139MOL0     C18275   3.333   9.119  11.018 -1.1068 -0.3606 -0.9710
  139MOL0     C18276   3.477   9.064  11.018  0.0819 -0.0948  1.2671
  139MOL0     C18277   3.562   9.159  11.112  0.0028 -0.6813 -0.1208
  139MOL0     C18278   3.581   9.109  11.260 -0.1389  0.4065 -0.4294
  139MOL0     C18279   3.668   8.991  11.286 -0.1631  0.0915 -0.5044
  139MOL0     C18280   3.725   8.881  11.296 -0.1312 -0.6390 -0.1027
  139MOL0     C18281   3.046   9.091  11.090 -0.4244 -0.0208 -0.1287
  139MOL0     C18282   2.915   9.127  11.095  0.5865  0.8940  1.3091
  139MOL0     H18283   2.429   9.023  11.026 -1.0439 -0.5999  2.0607
  139MOL0     H18284   2.179   9.100  11.035  0.0556 -1.4018 -1.0119
  139MOL0     H18285   2.024   9.195  11.241 -2.0862 -1.6799 -1.6587
  139MOL0     H18286   1.986   9.215  11.072 -2.8961 -1.4288  1.1985
  139MOL0     H18287   1.884   9.432  11.119  2.7055 -1.3991 -2.2421
  139MOL0     H18288   1.904   9.402  11.305 -0.1651 -3.8620  2.0229
  139MOL0     H18289   1.695   9.332  11.303  1.0221 -0.8635 -0.7123
  139MOL0     H18290   1.798   9.187  11.281 -0.5646  0.1344  2.7532
  139MOL0     H18291   1.664   9.350  11.047 -1.2719 -3.0189 -3.8090
  139MOL0     H18292   1.740   9.188  11.053 -1.0369 -0.3298 -0.4439
  139MOL0     H18293   1.474   9.278  11.145 -0.8169 -1.0177  3.3921
  139MOL0     H18294   1.544   9.136  11.224 -0.9666  1.2864 -0.3842
  139MOL0     H18295   1.568   9.034  11.017 -0.6792 -0.6499  0.0183
  139MOL0     H18296   1.523   9.186  10.919  3.1546 -1.2902  0.6095
  139MOL0     H18297   1.365   8.994  11.089  1.9335 -2.2596 -1.9223
  139MOL0     H18298   1.301   9.154  11.051  1.5051  0.2618 -0.0094
  139MOL0     H18299   1.204   8.969  10.931  0.4836  0.5852  1.9191
  139MOL0     H18300   1.354   8.942  10.834  3.1437  3.1271 -1.1774
  139MOL0     H18301   1.420   9.162  10.681 -0.3287 -2.3691  1.2189
  139MOL0     H18302   1.355   9.499  10.693 -2.3133 -1.3140  3.4366
  139MOL0     H18303   1.206   9.505  10.604 -0.7746  1.0226 -0.3929
  139MOL0     H18304   1.323   9.327  10.449  1.9127 -1.9018 -0.1501
  139MOL0     H18305   1.480   9.385  10.523 -0.6064 -0.7557  0.8683
  139MOL0     H18306   1.294   9.561  10.380 -0.0019 -0.5913 -2.7333
  139MOL0     H18307   1.469   9.594  10.437  2.2946 -0.3365 -5.8144
  139MOL0     H18308   1.364   9.434  10.216  0.7361  0.3885  0.0203
  139MOL0     H18309   1.518   9.389  10.287 -0.7943 -0.6424  3.9828
  139MOL0     H18310   1.721   9.448  10.316 -2.8072  0.6621  0.3766
  139MOL0     H18311   1.923   9.557  10.384  2.0562  2.0826  0.6925
  139MOL0     H18312   2.308   9.786  10.274  1.2846 -3.0764  1.0903
  139MOL0     H18313   2.513   9.909  10.341  1.1300  1.8077  1.5027
  139MOL0     H18314   2.692   9.958  10.726  2.9962  0.5299 -3.5955
  139MOL0     H18315   2.556  10.064  10.761  1.6490  0.5062  1.3667
  139MOL0     H18316   2.778  10.132  10.583  3.2929 -0.4558  2.0354
  139MOL0     H18317   2.772  10.171  10.759  1.1134 -1.4376  0.7447
  139MOL0     H18318   2.613  10.311  10.761 -0.9534 -1.2430  0.9059
  139MOL0     H18319   2.542  10.296  10.602 -0.8822  2.3305  1.6719
  139MOL0     H18320   2.772  10.375  10.510 -1.6486  0.6009  0.0214
  139MOL0     H18321   2.671  10.490  10.574  1.5361  1.3093 -0.6170
  139MOL0     H18322   2.913  10.354  10.697 -1.8385 -1.5038  0.4345
  139MOL0     H18323   2.806  10.455  10.801  0.3092 -1.9610  0.4811
  139MOL0     H18324   2.856  10.650  10.668  0.5562 -0.6636  0.6954
  139MOL0     H18325   2.904  10.558  10.526 -2.9603 -0.9519  0.1140
  139MOL0     H18326   3.080  10.560  10.778  0.2346  1.5063 -0.0247
  139MOL0     H18327   3.111  10.488  10.618 -1.0211  0.7555 -2.7889
  139MOL0     H18328   3.101  10.774  10.690  1.6433 -0.0766  2.2534
  139MOL0     H18329   3.112  10.725  10.521  1.8640 -1.1600 -1.7292
  139MOL0     H18330   2.351   9.962  10.731 -1.2005  1.7590  0.1200
  139MOL0     H18331   2.150   9.889  10.662  1.5775  1.2790  1.6598
  139MOL0     H18332   1.817   9.917  10.186  1.3442 -1.2289 -2.6885
  139MOL0     H18333   1.577   9.805  10.152  0.0567 -1.0712 -0.3864
  139MOL0     H18334   2.304   9.482  11.154 -0.3770  0.7046 -1.8567
  139MOL0     H18335   2.552   9.414  11.146 -1.6136  1.0306  0.8879
  139MOL0     H18336   2.869   9.222  10.775 -0.1160  0.2675 -0.0031
  139MOL0     H18337   3.105   9.145  10.760  0.2239 -0.0636 -0.1140
  139MOL0     H18338   3.302   9.152  11.118 -0.3634  0.3105 -0.9481
  139MOL0     H18339   3.343   9.203  10.949  3.2889 -0.1289 -0.3448
  139MOL0     H18340   3.472   8.958  11.046 -0.7207 -0.0728  1.2279
  139MOL0     H18341   3.509   9.070  10.914 -1.1557 -4.5244  0.4100
  139MOL0     H18342   3.528   9.262  11.121 -0.7035 -0.9716  0.6824
  139MOL0     H18343   3.660   9.159  11.063 -0.5299 -0.7944 -1.2298
  139MOL0     H18344   3.613   9.195  11.321 -4.8245 -0.2452  3.5886
  139MOL0     H18345   3.485   9.095  11.310  1.4764 -0.2633  2.7943
  139MOL0     H18346   3.774   8.786  11.296  0.5672 -0.3105  1.4081
  139MOL0     H18347   3.092   9.062  11.184 -1.0234  1.7505  0.7409
  139MOL0     H18348   2.856   9.132  11.187  2.5428 -0.0679  2.6826
  140MOL0     O18349  10.190   0.147   9.507  0.3743  0.5181  0.4222
  140MOL0     C18350  10.138   0.105   9.402 -0.4586  0.0212 -0.1299
  140MOL0     O18351  10.069   0.179   9.316  0.0500 -0.8838  0.2258
  140MOL0     C18352  10.073   0.320   9.334  0.2960 -1.1202  0.4365
  140MOL0     C18353  10.022   0.383   9.450 -0.3527  0.3103  0.0009
  140MOL0     C18354  10.000   0.520   9.460 -0.6157  0.0658  0.0942
  140MOL0     C18355  10.033   0.602   9.356  0.0189  1.3128  0.8591
  140MOL0     O18356  10.011   0.733   9.348 -1.8480 -0.7045  0.4005
  140MOL0     C18357   9.882   0.781   9.398 -0.5153 -0.9095  0.0104
  140MOL0     C18358   9.813   0.860   9.278  0.3704 -0.7796 -0.0805
  140MOL0     C18359   9.880   1.003   9.239  0.4917 -0.8891  0.2622
  140MOL0     C18360   9.794   1.080   9.133 -0.4424 -1.3686  0.5591
  140MOL0     C18361   9.854   1.211   9.089 -0.3332 -0.1465 -0.9002
  140MOL0     C18362   9.774   1.281   8.987 -0.5029 -0.1795  0.9077
  140MOL0     C18363   9.823   1.428   8.970  0.3370 -0.3128  0.8591
  140MOL0     C18364   9.771   1.501   8.840  0.2522  0.8504 -0.8530
  140MOL0     N18365   9.696   1.623   8.881 -0.5022  0.6495 -0.0087
  140MOL0     C18366   9.573   1.638   8.931 -0.2812 -0.4831 -0.0337
  140MOL0     C18367   9.568   1.759   8.986  1.0670  1.3905  0.0468
  140MOL0     C18368   9.457   1.816   9.069 -0.0546 -0.3058 -0.6342
  140MOL0     C18369   9.508   1.840   9.211  0.6004  0.2842  0.9901
  140MOL0     C18370   9.422   1.904   9.317  0.4626 -0.1511 -0.4651
  140MOL0     C18371   9.294   1.829   9.345  0.1358  0.7911 -0.0923
  140MOL0     O18372   9.216   1.898   9.452  0.0379 -0.6269  0.3150
  140MOL0     C18373   9.123   1.997   9.423  0.6191 -0.2058 -0.3972
  140MOL0     C18374   9.076   2.028   9.293 -0.0923 -0.7434  0.1967
  140MOL0     C18375   8.980   2.133   9.263 -0.3500  0.4245 -0.5075
  140MOL0     C18376   8.920   2.199   9.369  0.3402 -0.4539 -0.6649
  140MOL0     C18377   8.799   2.291   9.351 -0.1046  0.7343 -0.1961
  140MOL0     O18378   8.719   2.258   9.244 -0.0696  0.7337  0.6715
  140MOL0     C18379   8.624   2.354   9.206  1.2727 -0.0706 -0.6072
  140MOL0     C18380   8.486   2.316   9.204 -0.8128  0.7574  0.5336
  140MOL0     C18381   8.389   2.415   9.166  0.8431  0.6499  0.4898
  140MOL0     C18382   8.423   2.551   9.144  0.6553  0.1916  0.0577
  140MOL0     O18383   8.321   2.629   9.090  0.4111  0.7677 -0.9305
  140MOL0     C18384   8.307   2.753   9.164 -0.4714  0.9242  0.1532
  140MOL0     C18385   8.166   2.791   9.162 -0.3959 -0.5438  0.1024
  140MOL0     C18386   8.071   2.699   9.233  0.6661  0.0082  0.0247
  140MOL0     C18387   7.927   2.743   9.206  0.4607  1.1078 -0.3481
  140MOL0     C18388   7.837   2.615   9.207 -0.6207  0.3064  0.1680
  140MOL0     C18389   7.809   2.565   9.348  0.0026  0.8380 -0.6382
  140MOL0     C18390   7.729   2.429   9.338 -0.6676 -0.1501 -0.3460
  140MOL0     C18391   7.589   2.451   9.287 -0.8095 -0.4138 -0.1505
  140MOL0    Cl18392   7.510   2.588   9.378  0.0826 -0.0527  0.5228
  140MOL0     C18393   8.556   2.582   9.134 -0.1430 -0.7547  0.3343
  140MOL0     C18394   8.659   2.485   9.160  0.2078  0.3487 -0.3715
  140MOL0     O18395   8.786   2.390   9.420  0.0977  0.0086 -0.1026
  140MOL0     C18396   8.968   2.181   9.496 -0.5332  0.3083 -0.2444
  140MOL0     C18397   9.065   2.078   9.518  0.7962 -0.8040  0.0471
  140MOL0     N18398   9.697   1.813   8.979  0.7520 -1.1043  0.4099
  140MOL0     N18399   9.773   1.735   8.919 -0.4240  0.1513  0.6007
  140MOL0     C18400  10.097   0.543   9.237  1.2316 -0.4346 -0.1310
  140MOL0     C18401  10.114   0.407   9.230 -1.0196 -0.7818  0.2491
  140MOL0     C18402  10.143  -0.036   9.375  0.5999 -0.0509  0.1927
  140MOL0     C18403  10.131  -0.089   9.247 -0.7531 -0.0665  1.1027
  140MOL0     C18404  10.137  -0.230   9.226  0.2612 -0.7512  0.2823
  140MOL0     C18405  10.189  -0.320   9.324  0.1107  0.1664 -0.0912
  140MOL0     O18406  10.183  -0.451   9.293 -0.4524  0.0079 -0.0837
  140MOL0     C18407  10.105  -0.541   9.378  0.1390  0.2596 -0.4485
  140MOL0     C18408  10.069  -0.685   9.308 -0.1744  0.5292 -0.0789
  140MOL0     C18409  10.203  -0.757   9.271 -1.1857  0.2346  0.7200
  140MOL0     C18410  10.178  -0.891   9.215 -0.5337  0.2868  0.5880
  140MOL0     C18411  10.172  -0.983   9.326 -0.3677 -0.4694 -0.3651
  140MOL0     C18412  10.163  -1.055   9.424 -0.6285  0.8989 -0.2474
  140MOL0     C18413  10.208  -0.266   9.451 -0.9173  0.2528  0.1046
  140MOL0     C18414  10.183  -0.134   9.471 -0.8753  0.2164 -0.2563
  140MOL0     H18415   9.976   0.317   9.523  0.4956 -2.1627 -1.5847
  140MOL0     H18416   9.950   0.556   9.550 -2.3345  0.6914 -1.0653
  140MOL0     H18417   9.893   0.843   9.488 -3.0021  3.8935 -2.6154
  140MOL0     H18418   9.815   0.697   9.417 -0.2833 -1.5816 -1.8812
  140MOL0     H18419   9.707   0.866   9.305 -0.1865 -0.2508 -2.1902
  140MOL0     H18420   9.815   0.809   9.182 -0.8322 -0.0323 -0.5358
  140MOL0     H18421   9.978   0.985   9.194 -0.2481 -5.7723  0.0473
  140MOL0     H18422   9.892   1.065   9.329  0.3612 -0.5018  0.0139
  140MOL0     H18423   9.774   1.019   9.045 -2.4564 -0.9517  0.6931
  140MOL0     H18424   9.699   1.104   9.181 -0.2749 -0.7275  0.5839
  140MOL0     H18425   9.955   1.190   9.054  0.7801  2.0411  0.7691
  140MOL0     H18426   9.861   1.274   9.178  0.6647 -0.9053 -0.4248
  140MOL0     H18427   9.665   1.275   8.991 -0.5543 -2.0444 -1.1628
  140MOL0     H18428   9.804   1.229   8.896  2.0032  2.2522  0.2065
  140MOL0     H18429   9.807   1.484   9.062  0.6678  3.0671 -1.0021
  140MOL0     H18430   9.931   1.436   8.954  0.3603  0.7972  1.4720
  140MOL0     H18431   9.707   1.430   8.787  0.0739  0.5302 -0.2204
  140MOL0     H18432   9.857   1.533   8.779  2.6826 -0.5901  1.5790
  140MOL0     H18433   9.502   1.556   8.935  2.4014 -3.1887 -2.5717
  140MOL0     H18434   9.373   1.746   9.075  1.2547 -1.8505  2.6572
  140MOL0     H18435   9.431   1.917   9.036  1.1999  0.6553  1.1833
  140MOL0     H18436   9.592   1.908   9.192  0.7642 -0.2188 -0.1902
  140MOL0     H18437   9.552   1.747   9.247  2.1775  0.2097 -0.9466
  140MOL0     H18438   9.482   1.899   9.408 -0.2533 -2.6227 -0.0397
  140MOL0     H18439   9.403   2.010   9.297  1.3661  0.4151  1.4887
  140MOL0     H18440   9.309   1.728   9.384 -0.7450  1.2688  1.6255
  140MOL0     H18441   9.241   1.814   9.251  0.3208  0.1762 -0.0983
  140MOL0     H18442   9.105   1.964   9.209  0.8984 -0.6821  0.4780
  140MOL0     H18443   8.945   2.156   9.163 -5.1418  0.5731  0.9831
  140MOL0     H18444   8.460   2.218   9.242  1.6953  0.7377  2.4663
  140MOL0     H18445   8.283   2.392   9.175  0.8457 -0.0591 -0.9946
  140MOL0     H18446   8.363   2.830   9.109 -0.7196  0.8261 -0.2339
  140MOL0     H18447   8.337   2.746   9.269  0.4822 -1.7819 -0.2370
  140MOL0     H18448   8.133   2.817   9.060  0.0428 -2.5121 -0.5753
  140MOL0     H18449   8.170   2.879   9.227  4.1607  1.0424 -1.9272
  140MOL0     H18450   8.087   2.712   9.341 -0.6204  2.1350  0.0081
  140MOL0     H18451   8.095   2.596   9.204 -0.7978 -0.7113  1.2041
  140MOL0     H18452   7.893   2.818   9.277  2.2370  0.6774  1.0362
  140MOL0     H18453   7.914   2.802   9.115  0.2413  1.9199  0.2035
  140MOL0     H18454   7.894   2.535   9.159  2.0952  3.4383 -2.3296
  140MOL0     H18455   7.741   2.636   9.161 -0.7985  0.5464  0.6381
  140MOL0     H18456   7.760   2.639   9.412 -1.5814 -1.1310  0.5571
  140MOL0     H18457   7.900   2.547   9.406 -0.0847  2.0150 -0.0842
  140MOL0     H18458   7.776   2.361   9.267  0.0265  0.2265 -0.2594
  140MOL0     H18459   7.729   2.383   9.438  2.6763  1.7587  0.7100
  140MOL0     H18460   7.537   2.355   9.290  1.9158 -2.0777 -1.5599
  140MOL0     H18461   7.581   2.475   9.180 -1.3946 -2.9428 -0.7351
  140MOL0     H18462   8.562   2.684   9.097 -3.4826 -0.7722 -0.5794
  140MOL0     H18463   8.761   2.519   9.160  0.1784  0.5396  1.3212
  140MOL0     H18464   8.917   2.237   9.574  0.3380  1.3851 -0.4224
  140MOL0     H18465   9.091   2.072   9.623 -0.4430 -3.0791  0.2762
  140MOL0     H18466  10.117   0.616   9.160 -0.7064 -2.2675 -2.5278
  140MOL0     H18467  10.153   0.365   9.138  3.2876  0.0843  1.4524
  140MOL0     H18468  10.115  -0.022   9.163  2.2391  0.9462  1.2257
  140MOL0     H18469  10.108  -0.277   9.133 -0.2576  0.4735 -0.1891
  140MOL0     H18470  10.012  -0.488   9.403  2.3125  5.0364 -1.4521
  140MOL0     H18471  10.150  -0.575   9.472  0.6688 -3.0409 -1.7817
  140MOL0     H18472  10.016  -0.742   9.384  4.4454 -2.4858  1.3216
  140MOL0     H18473  10.007  -0.658   9.222 -2.2027 -1.6327  0.6265
  140MOL0     H18474  10.264  -0.767   9.361  1.7030 -3.7845 -1.3608
  140MOL0     H18475  10.268  -0.701   9.202 -3.0682  2.8885  0.9411
  140MOL0     H18476  10.084  -0.912   9.163 -0.8185  1.9329  0.3815
  140MOL0     H18477  10.258  -0.927   9.150 -0.9300 -0.2403  0.3828
  140MOL0     H18478  10.168  -1.120   9.509  1.8208  1.8408  0.4111
  140MOL0     H18479  10.244  -0.325   9.534 -0.5550 -2.0083 -1.5854
  140MOL0     H18480  10.196  -0.093   9.571 -1.7784 -1.0773  0.4206
  141MOL0     O18481   0.265   3.574   4.420 -0.3589  0.3424 -0.6410
  141MOL0     C18482   0.320   3.639   4.508  0.5107 -0.0540  0.0223
  141MOL0     O18483   0.248   3.701   4.612 -0.1268 -1.0931  0.4685
  141MOL0     C18484   0.122   3.744   4.608  1.1610 -0.1681  1.0222
  141MOL0     C18485   0.097   3.830   4.709  0.4694  0.0238 -0.0516
  141MOL0     C18486  -0.026   3.906   4.726  0.2470 -0.8508 -0.9169
  141MOL0     C18487  -0.124   3.898   4.625 -0.1878  0.8129  0.0565
  141MOL0     O18488  -0.238   3.969   4.616  0.1312  0.2166 -0.5271
  141MOL0     C18489  -0.259   4.082   4.709 -0.5830  0.3068  0.7348
  141MOL0     C18490  -0.396   4.142   4.685 -0.0224 -0.8442  0.0132
  141MOL0     C18491  -0.415   4.277   4.734  0.7809 -0.1153  0.4242
  141MOL0     C18492  -0.571   4.295   4.769  0.4653 -0.4999  0.1428
  141MOL0     C18493  -0.581   4.426   4.852 -0.8082  0.2055  0.2029
  141MOL0     C18494  -0.728   4.461   4.865  0.6114 -0.7722 -0.2119
  141MOL0     C18495  -0.800   4.507   4.740 -0.8975  0.0850 -0.7291
  141MOL0     C18496  -0.951   4.525   4.777  0.5290 -0.6803  0.4250
  141MOL0     N18497  -0.966   4.646   4.861  0.2997  0.4158 -0.6410
  141MOL0     C18498  -0.947   4.775   4.834  0.9395  0.4111 -0.5385
  141MOL0     C18499  -1.012   4.852   4.925  1.0001  1.0362  0.1446
  141MOL0     C18500  -1.012   5.000   4.935  0.2630  1.1074 -0.1703
  141MOL0     C18501  -0.969   5.042   5.076 -0.0886 -0.7184 -0.3388
  141MOL0     C18502  -0.963   5.183   5.106 -0.7713  0.6183  0.1549
  141MOL0     C18503  -0.858   5.263   5.025 -1.0199 -0.2491 -1.4052
  141MOL0     O18504  -0.719   5.210   5.024  0.0284 -0.3274 -0.5266
  141MOL0     C18505  -0.672   5.134   4.917  0.6429 -0.1266 -0.4766
  141MOL0     C18506  -0.719   5.149   4.782 -0.1427 -0.2507 -0.6428
  141MOL0     C18507  -0.670   5.071   4.680  0.5513 -0.7564 -0.7144
  141MOL0     C18508  -0.566   4.984   4.697  0.4470 -0.0717 -0.5318
  141MOL0     C18509  -0.506   4.911   4.587  0.0748  0.5849 -0.2042
  141MOL0     O18510  -0.440   4.794   4.617 -0.1557 -0.5620  0.1564
  141MOL0     C18511  -0.379   4.718   4.510  0.4805  0.1864 -0.7768
  141MOL0     C18512  -0.241   4.681   4.511  1.1002  0.4549 -0.2965
  141MOL0     C18513  -0.186   4.611   4.409  0.5607  0.0405  0.1472
  141MOL0     C18514  -0.270   4.576   4.295 -0.3498  0.2775 -0.2924
  141MOL0     O18515  -0.223   4.525   4.182  0.2713  0.2543 -0.1153
  141MOL0     C18516  -0.093   4.555   4.138 -0.5652 -0.4591  0.0750
  141MOL0     C18517  -0.002   4.437   4.176  0.2084 -0.0103 -0.0523
  141MOL0     C18518   0.146   4.468   4.130 -0.4049  0.8625  0.2120
  141MOL0     C18519   0.237   4.344   4.147  0.8859  0.0251  0.1737
  141MOL0     C18520   0.380   4.370   4.108 -0.2606  0.2489  0.2532
  141MOL0     C18521   0.465   4.242   4.133 -0.4557 -0.0335  0.4401
  141MOL0     C18522   0.594   4.249   4.047 -0.5228  0.0427  0.8459
  141MOL0     C18523   0.695   4.347   4.113  0.0418  0.8022  0.4799
  141MOL0    Cl18524   0.784   4.274   4.254  0.2768  0.8027 -0.0431
  141MOL0     C18525  -0.403   4.604   4.296  0.1849 -0.2254 -0.6953
  141MOL0     C18526  -0.453   4.679   4.400  0.0135 -0.4160  0.0998
  141MOL0     O18527  -0.513   4.961   4.469 -0.0050 -0.4514 -0.8091
  141MOL0     C18528  -0.521   4.974   4.828 -0.2746  0.1548  0.1849
  141MOL0     C18529  -0.578   5.042   4.937 -0.6848 -0.6282  1.1611
  141MOL0     N18530  -1.084   4.754   5.004  0.2602 -0.4612 -0.0616
  141MOL0     N18531  -1.043   4.635   4.972 -0.3506 -0.3316 -0.4354
  141MOL0     C18532  -0.106   3.802   4.520 -0.8021 -0.2167  0.4533
  141MOL0     C18533   0.018   3.736   4.511  0.2765  0.1145  0.1671
  141MOL0     C18534   0.459   3.661   4.494 -0.2137  0.1978 -0.1536
  141MOL0     C18535   0.529   3.594   4.388 -0.0646 -0.2227 -0.0372
  141MOL0     C18536   0.670   3.601   4.383  0.4218 -0.0075  0.3287
  141MOL0     C18537   0.742   3.662   4.492 -0.1044  0.4034  0.8186
  141MOL0     O18538   0.876   3.666   4.466 -0.5248  0.0403 -0.8486
  141MOL0     C18539   0.954   3.717   4.578 -0.4307  0.1460  1.1587
  141MOL0     C18540   0.948   3.872   4.581  0.0719  0.2437 -0.4782
  141MOL0     C18541   1.090   3.927   4.606 -0.5636  0.5993  0.3271
  141MOL0     C18542   1.102   4.075   4.609  0.4857 -0.7950 -0.7579
  141MOL0     C18543   1.038   4.136   4.727  0.6078  0.3748  0.4103
  141MOL0     C18544   0.995   4.199   4.823 -0.7522 -0.3717  0.3725
  141MOL0     C18545   0.671   3.729   4.593 -0.1042 -0.2016  0.1997
  141MOL0     C18546   0.531   3.729   4.588  0.5785 -0.2481 -0.3622
  141MOL0     H18547   0.158   3.842   4.798 -2.0025  1.0906  1.6570
  141MOL0     H18548  -0.040   3.968   4.814 -3.0863 -1.6274 -0.7650
  141MOL0     H18549  -0.190   4.156   4.669  0.1565 -0.7407  0.0347
  141MOL0     H18550  -0.230   4.067   4.813 -1.2481 -0.3455  0.8365
  141MOL0     H18551  -0.462   4.070   4.735  1.5336 -3.0064 -0.8439
  141MOL0     H18552  -0.424   4.144   4.579 -1.2420  4.8132  0.1489
  141MOL0     H18553  -0.386   4.343   4.652 -3.1806  0.0811 -1.0433
  141MOL0     H18554  -0.356   4.294   4.825  0.7312 -1.5861  0.7604
  141MOL0     H18555  -0.614   4.312   4.670 -0.3655  0.7319  0.6980
  141MOL0     H18556  -0.618   4.212   4.822 -0.6694 -0.5466 -0.8825
  141MOL0     H18557  -0.537   4.517   4.809 -0.8731  1.7418  3.1112
  141MOL0     H18558  -0.529   4.404   4.945  0.6563  3.7591  0.3893
  141MOL0     H18559  -0.717   4.555   4.920  2.7876  0.4286 -2.4934
  141MOL0     H18560  -0.783   4.381   4.915 -2.0607  0.9079 -0.2868
  141MOL0     H18561  -0.746   4.594   4.703 -0.1902 -0.7944 -1.8349
  141MOL0     H18562  -0.783   4.420   4.675  2.1465 -3.8463  4.5046
  141MOL0     H18563  -0.990   4.436   4.828 -0.5205 -0.8953 -0.7020
  141MOL0     H18564  -1.020   4.546   4.694  1.7171  1.0217 -0.1879
  141MOL0     H18565  -0.885   4.812   4.752 -1.1060  0.5558 -2.0870
  141MOL0     H18566  -1.108   5.041   4.903 -0.0890  1.2744  1.0381
  141MOL0     H18567  -0.935   5.033   4.865  3.3275 -2.1694  1.3068
  141MOL0     H18568  -0.865   5.008   5.088  0.9511  1.6858 -1.8225
  141MOL0     H18569  -1.043   4.993   5.140 -1.2617  0.0986 -1.0321
  141MOL0     H18570  -1.069   5.208   5.098 -2.2267 -4.4945 -0.7821
  141MOL0     H18571  -0.942   5.197   5.212 -1.2437  4.3065 -0.1143
  141MOL0     H18572  -0.852   5.360   5.075 -0.0277 -0.6559 -0.6978
  141MOL0     H18573  -0.893   5.279   4.923 -1.7576  0.0856 -1.1037
  141MOL0     H18574  -0.798   5.217   4.754  1.5353  0.4257 -4.2396
  141MOL0     H18575  -0.710   5.093   4.581  0.2231  0.8471 -0.2620
  141MOL0     H18576  -0.181   4.696   4.600  2.6113 -1.7834 -0.8585
  141MOL0     H18577  -0.081   4.581   4.404  0.5431  0.0701 -0.4582
  141MOL0     H18578  -0.057   4.649   4.179 -0.6250  0.6354 -2.1967
  141MOL0     H18579  -0.089   4.573   4.030 -5.7370 -0.2176 -0.3238
  141MOL0     H18580  -0.048   4.346   4.135 -0.0481  1.2562 -2.7676
  141MOL0     H18581  -0.008   4.430   4.285 -0.1788  1.6972  0.0521
  141MOL0     H18582   0.197   4.553   4.176  0.2508  0.9978 -0.7268
  141MOL0     H18583   0.139   4.490   4.023 -1.8071  1.2662  0.3665
  141MOL0     H18584   0.232   4.325   4.255  2.5157  1.0319  0.4633
  141MOL0     H18585   0.184   4.258   4.104  1.8143  0.2849 -1.5742
  141MOL0     H18586   0.414   4.457   4.165  2.3058  2.1317 -3.6825
  141MOL0     H18587   0.398   4.403   4.005  1.9168  2.5457  1.2390
  141MOL0     H18588   0.407   4.161   4.089  0.1531 -0.5049  0.4780
  141MOL0     H18589   0.486   4.228   4.240  0.2281  2.2078  0.6565
  141MOL0     H18590   0.648   4.154   4.041  3.1139  1.8574  1.7014
  141MOL0     H18591   0.571   4.279   3.944  2.1919 -3.5069 -1.0366
  141MOL0     H18592   0.652   4.446   4.134 -1.3718  0.6830 -1.5427
  141MOL0     H18593   0.774   4.373   4.041  0.6273 -0.1305  0.7656
  141MOL0     H18594  -0.470   4.591   4.211 -1.4754  2.7208  0.0213
  141MOL0     H18595  -0.557   4.711   4.397 -0.8078 -2.9115 -2.5442
  141MOL0     H18596  -0.436   4.909   4.847  0.4422  0.9026 -0.4002
  141MOL0     H18597  -0.551   5.016   5.039  0.9627 -3.3274  0.1433
  141MOL0     H18598  -0.181   3.781   4.444  0.8031  1.5742 -1.7841
  141MOL0     H18599   0.031   3.662   4.433 -0.2666 -0.8728  0.9894
  141MOL0     H18600   0.466   3.558   4.307  0.4313  0.7347 -0.8734
  141MOL0     H18601   0.720   3.553   4.299  1.1588  1.0258  0.1543
  141MOL0     H18602   1.053   3.677   4.553 -0.4984  1.7436 -2.2481
  141MOL0     H18603   0.920   3.675   4.673 -1.2144 -1.2751  0.2745
  141MOL0     H18604   0.906   3.920   4.492  0.6287 -1.6471 -1.8088
  141MOL0     H18605   0.887   3.906   4.665  0.3298 -0.0017 -0.1880
  141MOL0     H18606   1.150   3.915   4.515 -1.9293  3.8497 -1.1588
  141MOL0     H18607   1.135   3.877   4.693  3.1211 -2.1239 -2.7869
  141MOL0     H18608   1.205   4.111   4.609  0.6040 -0.9202  1.9845
  141MOL0     H18609   1.051   4.118   4.522 -1.0096 -2.8202 -0.9707
  141MOL0     H18610   0.958   4.255   4.905 -1.8705  0.4254 -0.6480
  141MOL0     H18611   0.710   3.780   4.680  2.4338 -1.0863 -0.3264
  141MOL0     H18612   0.485   3.783   4.670 -2.1941 -2.5637 -0.2354
  142MOL0     O18613   7.775   3.722   4.465 -0.1550 -0.1807  0.6476
  142MOL0     C18614   7.746   3.603   4.489 -0.2674 -0.7347 -0.2696
  142MOL0     O18615   7.820   3.486   4.475 -0.1741  0.0292  0.0220
  142MOL0     C18616   7.934   3.490   4.391  1.1595 -0.1684 -1.1347
  142MOL0     C18617   8.037   3.406   4.426 -0.3545 -1.3709 -0.0017
  142MOL0     C18618   8.163   3.407   4.362  0.2362  1.3373 -0.9881
  142MOL0     C18619   8.185   3.477   4.251  0.2519  0.8279 -0.2084
  142MOL0     O18620   8.305   3.465   4.184 -0.7406 -0.3657 -0.3448
  142MOL0     C18621   8.395   3.569   4.237  0.7542  0.2284 -0.1313
  142MOL0     C18622   8.495   3.614   4.135  0.4160  0.3908  0.0457
  142MOL0     C18623   8.602   3.495   4.114 -0.1273  0.2207 -0.0335
  142MOL0     C18624   8.711   3.532   4.011 -0.2950  0.3758  0.1488
  142MOL0     C18625   8.801   3.640   4.068  0.3815  0.2094 -0.1575
  142MOL0     C18626   8.841   3.636   4.218 -0.1694  0.5858 -0.4245
  142MOL0     C18627   8.927   3.762   4.244  0.0412 -0.7637  0.5272
  142MOL0     C18628   8.948   3.775   4.392 -0.0779  0.2309  0.0423
  142MOL0     N18629   9.038   3.887   4.428  1.1119 -0.4014 -0.9143
  142MOL0     C18630   9.175   3.893   4.409  0.0853 -0.6574 -0.1054
  142MOL0     C18631   9.202   4.031   4.436  0.4234  0.1255 -0.3482
  142MOL0     C18632   9.336   4.100   4.446 -0.6319  0.1224 -0.0019
  142MOL0     C18633   9.420   4.095   4.320 -0.3939  0.9604  0.5356
  142MOL0     C18634   9.550   4.171   4.332 -1.1720 -0.7225 -0.4636
  142MOL0     C18635   9.639   4.156   4.208  0.1165 -0.0237  1.1335
  142MOL0     O18636   9.701   4.019   4.214  0.2467 -1.0724 -0.5386
  142MOL0     C18637   9.683   3.938   4.102 -0.7141  0.3132  0.1545
  142MOL0     C18638   9.688   3.793   4.118 -0.5409  0.1547  1.0167
  142MOL0     C18639   9.694   3.697   4.014 -0.3771  0.0339  0.0228
  142MOL0     C18640   9.687   3.747   3.887 -0.2129 -0.0594  0.3664
  142MOL0     C18641   9.664   3.653   3.772  0.8365 -0.4002  0.0637
  142MOL0     O18642   9.639   3.524   3.793  0.0562  0.3079 -0.3228
  142MOL0     C18643   9.621   3.454   3.674 -0.3878  0.5918 -0.1454
  142MOL0     C18644   9.736   3.406   3.602  0.1489 -0.4187 -0.0400
  142MOL0     C18645   9.735   3.329   3.485 -0.7605 -0.7065  0.0998
  142MOL0     C18646   9.620   3.312   3.424  0.2759  0.0571  1.2859
  142MOL0     O18647   9.638   3.257   3.295 -0.2154  0.3749 -1.2113
  142MOL0     C18648   9.519   3.207   3.231 -0.4223  0.3984 -0.5513
  142MOL0     C18649   9.567   3.152   3.099 -0.3124 -0.0669  0.2455
  142MOL0     C18650   9.466   3.067   3.017  0.5982 -0.0526 -0.0848
  142MOL0     C18651   9.322   3.127   2.998 -0.0248 -0.3018 -0.8515
  142MOL0     C18652   9.237   3.048   2.908 -0.1687 -0.1276  0.2141
  142MOL0     C18653   9.093   3.097   2.886 -0.0120  0.0166  0.9174
  142MOL0     C18654   9.036   3.040   2.743  0.2514  0.1277  0.7309
  142MOL0     C18655   8.899   3.102   2.723 -0.3147  0.1052  0.1866
  142MOL0    Cl18656   8.782   3.075   2.859 -0.2459  0.3218 -0.1943
  142MOL0     C18657   9.495   3.366   3.483 -0.0349  0.0565  0.8513
  142MOL0     C18658   9.503   3.423   3.612  0.5223 -0.0492  0.2181
  142MOL0     O18659   9.672   3.706   3.659  0.1346 -0.1403  0.1009
  142MOL0     C18660   9.688   3.885   3.860  0.2619  0.3180  0.0891
  142MOL0     C18661   9.697   3.973   3.970 -0.4488  0.6320 -0.0204
  142MOL0     N18662   9.079   4.096   4.444 -0.0205  0.0500 -0.1476
  142MOL0     N18663   8.979   4.010   4.452  0.0326 -0.5606  0.8473
  142MOL0     C18664   8.078   3.550   4.205 -0.8096  0.2704 -0.3056
  142MOL0     C18665   7.953   3.562   4.270  0.5319  0.1935  0.1317
  142MOL0     C18666   7.627   3.579   4.580  0.3847 -0.1507  0.4618
  142MOL0     C18667   7.519   3.672   4.569  0.3366  0.7678 -0.3341
  142MOL0     C18668   7.403   3.639   4.647  0.1289  0.0532 -0.6609
  142MOL0     C18669   7.386   3.530   4.729  0.5638  0.0093  0.9770
  142MOL0     O18670   7.268   3.521   4.799  0.1217 -0.7382  0.4656
  142MOL0     C18671   7.235   3.404   4.874  0.1027 -0.2109  0.0550
  142MOL0     C18672   7.074   3.396   4.883 -0.7554  0.7145  0.5963
  142MOL0     C18673   7.021   3.464   5.009  0.4546 -0.2878  0.2132
  142MOL0     C18674   6.873   3.465   5.020  0.0655 -0.0849 -0.8852
  142MOL0     C18675   6.824   3.371   5.122 -0.2959  0.1537 -0.4552
  142MOL0     C18676   6.785   3.308   5.222 -1.2088  0.5607  0.8556
  142MOL0     C18677   7.487   3.445   4.737 -0.5080  0.2098  0.6268
  142MOL0     C18678   7.605   3.461   4.656  0.6641 -0.1416  0.6994
  142MOL0     H18679   8.018   3.329   4.500 -0.4918 -2.1029 -0.7775
  142MOL0     H18680   8.237   3.339   4.403 -1.0485  1.4146  1.6982
  142MOL0     H18681   8.436   3.520   4.325 -2.2576 -2.2509  0.0459
  142MOL0     H18682   8.348   3.660   4.276  0.0141 -1.3825  3.0464
  142MOL0     H18683   8.541   3.710   4.162  0.3535  1.5009 -3.3128
  142MOL0     H18684   8.440   3.645   4.046 -1.9114 -2.6597  0.2659
  142MOL0     H18685   8.555   3.403   4.078  1.0323 -1.5229  2.6086
  142MOL0     H18686   8.647   3.465   4.209  2.6578 -0.9081 -1.5623
  142MOL0     H18687   8.770   3.449   3.971  1.7716  2.6526 -1.8853
  142MOL0     H18688   8.651   3.570   3.928 -0.7819  3.2680  1.7003
  142MOL0     H18689   8.735   3.725   4.048 -1.1639 -1.4986 -2.9786
  142MOL0     H18690   8.891   3.654   4.008  0.0353 -0.8702 -0.9674
  142MOL0     H18691   8.890   3.540   4.238 -2.5023 -0.6111 -0.0931
  142MOL0     H18692   8.754   3.619   4.282 -0.0951 -3.3989 -1.1000
  142MOL0     H18693   9.026   3.764   4.198  0.3508  1.6293  1.2091
  142MOL0     H18694   8.885   3.850   4.194  0.7242  0.6099  2.2939
  142MOL0     H18695   8.999   3.684   4.423 -2.2452 -0.8490  0.6205
  142MOL0     H18696   8.851   3.789   4.440  1.6543  2.2070  3.3933
  142MOL0     H18697   9.245   3.813   4.387  0.5325  0.1410 -1.7497
  142MOL0     H18698   9.392   4.040   4.518 -2.8148 -1.6850  0.3016
  142MOL0     H18699   9.330   4.202   4.483  0.8109  0.3808 -0.4155
  142MOL0     H18700   9.360   4.154   4.250 -2.5408  0.6963  2.0398
  142MOL0     H18701   9.418   3.989   4.293 -2.0908  1.2916 -0.8020
  142MOL0     H18702   9.522   4.276   4.341  1.4960  0.2669 -2.2862
  142MOL0     H18703   9.608   4.138   4.419  0.2663  0.6890 -0.8369
  142MOL0     H18704   9.721   4.227   4.217  1.1345 -0.9698 -0.2850
  142MOL0     H18705   9.576   4.176   4.121  1.8721 -1.6001 -0.5835
  142MOL0     H18706   9.681   3.752   4.218  1.6536 -0.9148  0.7929
  142MOL0     H18707   9.712   3.592   4.033  2.5775  0.6127  0.9435
  142MOL0     H18708   9.830   3.418   3.654 -1.7582  0.6222  3.4831
  142MOL0     H18709   9.824   3.274   3.457 -1.4847 -0.7432 -2.3450
  142MOL0     H18710   9.438   3.279   3.217 -0.8279 -0.2780 -1.8761
  142MOL0     H18711   9.479   3.129   3.296  1.4855 -2.1020 -2.1698
  142MOL0     H18712   9.657   3.092   3.115 -0.7560 -1.0756 -0.8579
  142MOL0     H18713   9.584   3.244   3.042 -1.9754 -0.8869 -1.7296
  142MOL0     H18714   9.442   2.971   3.063  2.1458 -0.8357 -0.8504
  142MOL0     H18715   9.508   3.056   2.916  1.7780  1.9009  0.1373
  142MOL0     H18716   9.260   3.149   3.085  0.0499 -0.9566 -0.6297
  142MOL0     H18717   9.331   3.224   2.948 -1.7694 -0.4646 -1.5617
  142MOL0     H18718   9.229   2.940   2.928 -3.4933  0.1134  0.6678
  142MOL0     H18719   9.290   3.047   2.812  0.8768 -0.0672  0.7727
  142MOL0     H18720   9.092   3.206   2.879  1.3307  0.1016  1.6881
  142MOL0     H18721   9.030   3.066   2.969 -1.2212  2.6240  1.0774
  142MOL0     H18722   9.091   3.059   2.651  0.5913  1.5407  1.2039
  142MOL0     H18723   9.038   2.931   2.753  1.8157 -0.1682 -1.9112
  142MOL0     H18724   8.858   3.065   2.629 -1.6097 -0.2990  0.8913
  142MOL0     H18725   8.921   3.209   2.711 -2.7336  0.4061 -2.9883
  142MOL0     H18726   9.396   3.351   3.440  0.3755 -2.1291  0.5563
  142MOL0     H18727   9.409   3.446   3.660 -1.2662  0.3447 -3.2069
  142MOL0     H18728   9.685   3.915   3.756  0.2661 -2.7967 -0.9061
  142MOL0     H18729   9.707   4.077   3.939 -2.4984  0.8842 -0.0089
  142MOL0     H18730   8.090   3.596   4.107  0.0509  0.7821  0.0323
  142MOL0     H18731   7.878   3.623   4.222  0.9582 -0.9816 -2.1835
  142MOL0     H18732   7.507   3.757   4.502 -2.6060 -0.8069 -2.0266
  142MOL0     H18733   7.315   3.703   4.641  0.4779  0.5194 -0.9026
  142MOL0     H18734   7.276   3.417   4.975  1.6973  0.5977 -0.6577
  142MOL0     H18735   7.277   3.315   4.829  1.9828  1.8621 -2.5912
  142MOL0     H18736   7.035   3.467   4.809  0.8452 -1.1693 -2.2343
  142MOL0     H18737   7.031   3.298   4.862  2.5203 -0.1380 -3.3760
  142MOL0     H18738   7.060   3.566   5.016 -1.5663  0.7604 -2.2829
  142MOL0     H18739   7.061   3.408   5.094  0.4298 -1.2121 -0.3720
  142MOL0     H18740   6.833   3.565   5.040  1.2765  0.7271 -2.2690
  142MOL0     H18741   6.820   3.429   4.931 -4.1323 -0.3546  1.5066
  142MOL0     H18742   6.753   3.260   5.312  0.7643  0.4060  1.5271
  142MOL0     H18743   7.489   3.353   4.795 -1.1539 -0.6211 -0.6223
  142MOL0     H18744   7.688   3.391   4.655  0.1738 -0.8122 -2.3201
  143MOL0     O18745   0.202   6.218   3.654  1.2454 -0.2795  0.0539
  143MOL0     C18746   0.219   6.162   3.548 -0.4351  0.4297  0.0483
  143MOL0     O18747   0.341   6.136   3.487  0.2125  0.2312 -0.3029
  143MOL0     C18748   0.448   6.189   3.562 -0.3242  0.4475  0.2386
  143MOL0     C18749   0.487   6.133   3.689 -0.1553  0.3709  0.3917
  143MOL0     C18750   0.602   6.171   3.749 -0.2521  0.5446 -0.1433
  143MOL0     C18751   0.676   6.277   3.696 -0.2620  0.2985 -0.3961
  143MOL0     O18752   0.781   6.316   3.763  1.1071 -0.0795 -0.5782
  143MOL0     C18753   0.911   6.307   3.704 -0.0264  0.1917  0.1583
  143MOL0     C18754   1.013   6.408   3.775  0.1759 -0.1134  0.1116
  143MOL0     C18755   1.158   6.350   3.791  0.2276 -1.0479  0.1062
  143MOL0     C18756   1.238   6.400   3.661 -0.7841  0.7936 -0.2240
  143MOL0     C18757   1.381   6.353   3.667  0.7714 -1.3321 -0.1474
  143MOL0     C18758   1.454   6.344   3.532  0.2508 -0.2210 -0.8100
  143MOL0     C18759   1.471   6.482   3.460 -0.5227 -0.0379  0.3151
  143MOL0     C18760   1.563   6.575   3.550  0.9627  0.0580 -0.2670
  143MOL0     N18761   1.616   6.704   3.495  0.2112  0.3692 -0.0045
  143MOL0     C18762   1.544   6.780   3.415 -0.0440 -0.5110  0.4347
  143MOL0     C18763   1.640   6.874   3.381 -0.5295  0.0587  0.6619
  143MOL0     C18764   1.613   6.972   3.273 -0.3575  0.5654  1.0057
  143MOL0     C18765   1.573   7.108   3.338  0.0679  0.3434  0.2243
  143MOL0     C18766   1.429   7.151   3.313  0.3313  0.1975  0.0073
  143MOL0     C18767   1.328   7.043   3.354  0.4956  0.1583 -1.1894
  143MOL0     O18768   1.287   6.963   3.241  0.3207  0.1893 -0.3278
  143MOL0     C18769   1.167   6.905   3.247  1.0190 -0.1364  0.3004
  143MOL0     C18770   1.148   6.819   3.352 -0.2200 -0.9573  0.3856
  143MOL0     C18771   1.038   6.740   3.357 -0.1814 -0.7859 -0.8970
  143MOL0     C18772   0.935   6.757   3.258 -0.1214  0.9873  0.6267
  143MOL0     C18773   0.833   6.655   3.256 -0.2810 -0.0572  0.3457
  143MOL0     O18774   0.773   6.630   3.134 -0.0407  0.7578  0.3764
  143MOL0     C18775   0.685   6.530   3.107  0.2643 -0.2904  0.0733
  143MOL0     C18776   0.689   6.468   2.984 -0.0704  0.0341  0.0567
  143MOL0     C18777   0.610   6.359   2.965  0.5886 -0.5255 -0.1821
  143MOL0     C18778   0.506   6.323   3.057 -0.6060  0.1409  0.4667
  143MOL0     O18779   0.445   6.207   3.023  0.0243  0.5470 -0.1751
  143MOL0     C18780   0.414   6.108   3.117  0.4624 -0.8176 -0.4688
  143MOL0     C18781   0.270   6.069   3.086 -0.0453  0.5663 -0.1033
  143MOL0     C18782   0.161   6.178   3.086 -0.5352 -0.4244  0.1914
  143MOL0     C18783   0.042   6.132   2.999 -0.6285  0.0884  0.7422
  143MOL0     C18784  -0.062   6.238   2.994  1.0449 -0.4741 -1.0698
  143MOL0     C18785  -0.188   6.185   2.927  0.3171 -0.4719 -0.1491
  143MOL0     C18786  -0.304   6.282   2.928  0.9285 -0.4995  0.8434
  143MOL0     C18787  -0.439   6.216   2.918 -0.5632 -0.1612 -0.2509
  143MOL0    Cl18788  -0.513   6.200   3.074 -0.1726  0.0547  0.5248
  143MOL0     C18789   0.489   6.398   3.176  0.1941  0.6774  0.5825
  143MOL0     C18790   0.590   6.492   3.206 -0.3480  0.1947  0.4320
  143MOL0     O18791   0.825   6.583   3.353  0.3640  0.3397  0.1716
  143MOL0     C18792   0.963   6.844   3.145 -0.6823 -1.2688  0.1913
  143MOL0     C18793   1.078   6.916   3.142 -0.5316 -0.1229 -0.4828
  143MOL0     N18794   1.758   6.852   3.453  0.0105 -0.0824 -0.0048
  143MOL0     N18795   1.740   6.746   3.527  0.5166  0.5309  0.2051
  143MOL0     C18796   0.646   6.335   3.577  0.2807  0.6330  0.3150
  143MOL0     C18797   0.535   6.280   3.510 -0.2788 -0.0480 -1.0849
  143MOL0     C18798   0.096   6.106   3.475  0.1027 -0.8284 -0.4682
  143MOL0     C18799  -0.023   6.180   3.476  0.3782 -0.3571  0.3492
  143MOL0     C18800  -0.134   6.127   3.416 -0.4992  0.0950  0.5386
  143MOL0     C18801  -0.130   5.997   3.357  1.7151  0.4764  1.2406
  143MOL0     O18802  -0.234   5.934   3.294  0.4409  0.0668  0.2015
  143MOL0     C18803  -0.369   5.979   3.322 -0.5635 -0.5550 -0.3630
  143MOL0     C18804  -0.458   5.857   3.304  0.5654 -0.3596  0.3353
  143MOL0     C18805  -0.547   5.846   3.180 -0.6085  0.1672  0.4514
  143MOL0     C18806  -0.450   5.857   3.054  1.3175 -0.4763 -0.0349
  143MOL0     C18807  -0.528   5.846   2.935 -0.5832  0.0988  0.1466
  143MOL0     C18808  -0.568   5.840   2.820  0.3357  0.4736  0.3140
  143MOL0     C18809   0.001   5.935   3.349  0.2411 -0.0754 -0.7247
  143MOL0     C18810   0.110   5.993   3.409 -0.4060 -0.8641  1.0537
  143MOL0     H18811   0.426   6.056   3.737 -0.5796 -0.0326 -0.7505
  143MOL0     H18812   0.649   6.113   3.828  1.8453 -1.8444 -2.9353
  143MOL0     H18813   0.907   6.329   3.597  1.4654  0.0227  0.0494
  143MOL0     H18814   0.957   6.208   3.701 -1.5040 -0.5049 -1.3856
  143MOL0     H18815   0.977   6.419   3.878 -3.4585  0.3286 -1.0816
  143MOL0     H18816   1.003   6.502   3.720 -1.5626 -0.8165 -0.8414
  143MOL0     H18817   1.156   6.240   3.789 -0.4261 -1.0398 -0.1144
  143MOL0     H18818   1.203   6.386   3.884 -0.8816  1.2850 -0.1929
  143MOL0     H18819   1.195   6.357   3.571  1.0264  1.3976 -1.4383
  143MOL0     H18820   1.234   6.509   3.658 -0.2293  0.8277  0.0886
  143MOL0     H18821   1.372   6.260   3.724  0.8706  0.3428  2.7908
  143MOL0     H18822   1.430   6.423   3.735 -2.1873  1.1984 -0.4082
  143MOL0     H18823   1.388   6.287   3.467 -0.3557 -2.0353  1.2697
  143MOL0     H18824   1.549   6.292   3.546  1.7867  2.6794  0.2767
  143MOL0     H18825   1.518   6.478   3.362 -1.5475  2.5677 -0.3437
  143MOL0     H18826   1.373   6.525   3.441 -2.7396 -4.4695  0.2365
  143MOL0     H18827   1.644   6.514   3.590 -1.4912 -3.0990  0.2591
  143MOL0     H18828   1.507   6.603   3.640 -2.5854  0.7475 -2.5036
  143MOL0     H18829   1.444   6.771   3.375  0.3433  0.2319 -0.7417
  143MOL0     H18830   1.542   6.933   3.199  1.2101 -0.8679  0.1947
  143MOL0     H18831   1.706   6.981   3.216 -1.6833 -0.8397 -1.5907
  143MOL0     H18832   1.636   7.191   3.304  1.5061 -1.2031 -1.0864
  143MOL0     H18833   1.597   7.109   3.445  0.9269 -2.0868  0.1229
  143MOL0     H18834   1.409   7.250   3.354  1.7211 -0.5169  2.6703
  143MOL0     H18835   1.419   7.158   3.204  0.2655 -1.1079 -0.0950
  143MOL0     H18836   1.246   7.102   3.395  2.4980  0.3985  2.9257
  143MOL0     H18837   1.377   6.989   3.435 -1.2343  1.0938  0.5537
  143MOL0     H18838   1.232   6.817   3.422  0.6962 -0.1755 -0.6461
  143MOL0     H18839   1.036   6.675   3.444  0.8691 -0.7955 -0.8662
  143MOL0     H18840   0.757   6.505   2.908 -0.3005  0.3747  0.0171
  143MOL0     H18841   0.627   6.298   2.877 -0.1362 -0.6241 -0.2565
  143MOL0     H18842   0.426   6.144   3.219 -1.5811 -2.2338  0.3417
  143MOL0     H18843   0.481   6.022   3.109  1.0027 -0.5282  0.7309
  143MOL0     H18844   0.235   5.989   3.152  1.9558  0.1493  0.5113
  143MOL0     H18845   0.269   6.020   2.987 -2.7842  1.2017 -0.4708
  143MOL0     H18846   0.202   6.266   3.035  2.4258 -2.3754 -1.1045
  143MOL0     H18847   0.136   6.206   3.189  0.5971  2.0480 -0.1250
  143MOL0     H18848   0.086   6.113   2.901 -0.9780 -0.7629  0.7374
  143MOL0     H18849  -0.000   6.041   3.043 -3.5148  1.8506  1.9276
  143MOL0     H18850  -0.017   6.326   2.947  1.0106  0.1488  0.0163
  143MOL0     H18851  -0.097   6.263   3.095 -2.1303 -0.7607 -1.9978
  143MOL0     H18852  -0.212   6.087   2.970  0.5612 -1.6327 -2.4977
  143MOL0     H18853  -0.154   6.155   2.828  1.9594  0.0577  0.2237
  143MOL0     H18854  -0.301   6.355   3.009  1.0320  1.7481 -1.0963
  143MOL0     H18855  -0.301   6.351   2.843 -0.4310 -1.3684  0.0518
  143MOL0     H18856  -0.433   6.112   2.886  0.2063 -0.4203  0.6739
  143MOL0     H18857  -0.500   6.266   2.842  0.1439 -1.5823 -1.7980
  143MOL0     H18858   0.405   6.373   3.240  0.4743  0.2584  0.7900
  143MOL0     H18859   0.588   6.553   3.296  2.6022  1.1485 -0.0245
  143MOL0     H18860   0.888   6.857   3.068 -0.9633 -0.1404  0.6316
  143MOL0     H18861   1.102   6.993   3.069 -0.9906 -0.4680 -1.0038
  143MOL0     H18862   0.701   6.408   3.518 -1.5539  2.5416  0.8577
  143MOL0     H18863   0.512   6.323   3.413 -3.3594  1.1522  0.0705
  143MOL0     H18864  -0.024   6.277   3.524  0.2424  0.1665 -0.6836
  143MOL0     H18865  -0.229   6.179   3.410  0.1246  1.0250 -2.6087
  143MOL0     H18866  -0.389   6.065   3.257  1.8740 -0.3899 -1.0066
  143MOL0     H18867  -0.383   6.007   3.427 -1.3267 -3.1723  0.2878
  143MOL0     H18868  -0.387   5.773   3.305 -0.7254 -1.4844  1.1184
  143MOL0     H18869  -0.528   5.834   3.385 -1.2372 -2.1977 -1.6102
  143MOL0     H18870  -0.630   5.916   3.171 -3.3214 -3.0709 -2.2576
  143MOL0     H18871  -0.590   5.746   3.184  2.3759 -1.2037  0.9578
  143MOL0     H18872  -0.390   5.948   3.061 -2.8847  3.2340 -4.4799
  143MOL0     H18873  -0.381   5.772   3.058 -0.5209 -2.0744 -0.7490
  143MOL0     H18874  -0.600   5.837   2.718 -1.0686 -0.7124  0.7517
  143MOL0     H18875   0.030   5.851   3.286 -0.3150 -2.8694  2.4431
  143MOL0     H18876   0.201   5.934   3.401 -0.6525 -1.1637  0.3185
  144MOL0     O18877   5.588   1.509   7.548  0.6314  0.0136 -0.4849
  144MOL0     C18878   5.692   1.567   7.535  0.0591  0.2116  0.4567
  144MOL0     O18879   5.774   1.601   7.639  0.0681 -0.4497 -0.1558
  144MOL0     C18880   5.721   1.641   7.760 -0.0491  0.0510  0.0374
  144MOL0     C18881   5.585   1.665   7.772 -0.4517 -0.5484 -0.7112
  144MOL0     C18882   5.539   1.697   7.898  0.4450 -0.6289 -0.2988
  144MOL0     C18883   5.625   1.718   8.004  0.2355  0.2421  0.3537
  144MOL0     O18884   5.584   1.727   8.129  0.6646  0.3881 -0.1106
  144MOL0     C18885   5.462   1.788   8.169  0.8682  0.0724  0.0759
  144MOL0     C18886   5.366   1.681   8.225 -0.0675  0.1765  0.5656
  144MOL0     C18887   5.279   1.606   8.134  0.3486  0.3935 -0.4166
  144MOL0     C18888   5.163   1.536   8.226 -0.3536  0.2713 -0.5935
  144MOL0     C18889   5.080   1.439   8.138  0.2063  0.7138 -0.0380
  144MOL0     C18890   4.980   1.346   8.221 -0.3019  0.4024 -0.0730
  144MOL0     C18891   4.849   1.291   8.148 -0.4767  0.5711  0.1763
  144MOL0     C18892   4.738   1.235   8.237  0.6418 -0.2971 -1.0158
  144MOL0     N18893   4.607   1.220   8.168 -0.2045  0.0218  0.0631
  144MOL0     C18894   4.589   1.168   8.048  0.8692  1.0229  0.1776
  144MOL0     C18895   4.460   1.128   8.036 -0.5727 -0.5736  0.4184
  144MOL0     C18896   4.398   1.059   7.920 -0.2157  0.0335  0.6960
  144MOL0     C18897   4.358   1.151   7.809 -0.0546  0.4567 -0.9539
  144MOL0     C18898   4.278   1.074   7.702  1.1386 -0.3755 -0.1092
  144MOL0     C18899   4.129   1.081   7.722  0.5442  1.1030 -0.2546
  144MOL0     O18900   4.089   1.208   7.670  0.0101  0.6556  0.2871
  144MOL0     C18901   3.970   1.209   7.607  0.1190  0.0997  0.2908
  144MOL0     C18902   3.923   1.103   7.526  0.9564  0.0053 -0.2476
  144MOL0     C18903   3.798   1.118   7.468 -0.3528 -0.3811 -0.6256
  144MOL0     C18904   3.718   1.234   7.488  0.4059 -0.4067 -0.6215
  144MOL0     C18905   3.598   1.263   7.407  1.1478 -0.3738 -1.0237
  144MOL0     O18906   3.586   1.187   7.295 -0.2379  0.4231  0.2029
  144MOL0     C18907   3.491   1.212   7.197 -0.6854  0.0821 -0.0012
  144MOL0     C18908   3.363   1.190   7.231  0.5478 -0.7923  0.7694
  144MOL0     C18909   3.256   1.211   7.132 -0.6441  0.1543  0.4635
  144MOL0     C18910   3.291   1.247   7.005 -0.5725 -0.7733  0.3425
  144MOL0     O18911   3.208   1.259   6.899  0.2252 -0.1504  0.6539
  144MOL0     C18912   3.072   1.204   6.896 -0.5049 -1.0324  0.6298
  144MOL0     C18913   2.965   1.312   6.938  0.2979 -1.3673 -0.5542
  144MOL0     C18914   2.983   1.455   6.871  0.4299  0.0719 -1.0994
  144MOL0     C18915   2.868   1.541   6.927  0.5536  0.2553  0.3053
  144MOL0     C18916   2.899   1.691   6.912  0.2702 -1.0660  0.8002
  144MOL0     C18917   2.899   1.749   6.767  0.2087  0.0142 -0.2896
  144MOL0     C18918   2.913   1.898   6.753  0.0864 -1.1297  0.1146
  144MOL0     C18919   3.049   1.958   6.784  0.0374  0.7130 -1.0732
  144MOL0    Cl18920   3.032   2.121   6.713 -0.2690 -0.2712 -0.4739
  144MOL0     C18921   3.425   1.259   6.963  0.3187 -0.0370  0.4312
  144MOL0     C18922   3.524   1.247   7.059  0.0773 -0.3435 -0.7239
  144MOL0     O18923   3.532   1.362   7.434 -0.6431 -0.2498 -0.4525
  144MOL0     C18924   3.780   1.342   7.557  0.5661 -0.4765  0.4390
  144MOL0     C18925   3.897   1.323   7.628  0.2919  0.5845  0.0517
  144MOL0     N18926   4.402   1.158   8.154  0.0735 -0.5490  0.0240
  144MOL0     N18927   4.489   1.205   8.240  0.0821  0.9054 -0.1451
  144MOL0     C18928   5.760   1.695   7.986 -0.1915 -0.4156 -0.3034
  144MOL0     C18929   5.815   1.661   7.860  0.0801  0.0099  0.1969
  144MOL0     C18930   5.739   1.604   7.402  0.2410 -0.6382 -0.0082
  144MOL0     C18931   5.668   1.575   7.287  0.3275  0.4784  0.1211
  144MOL0     C18932   5.721   1.625   7.160  0.3914  0.1322 -0.0707
  144MOL0     C18933   5.829   1.701   7.145 -0.4641 -0.3999  0.9886
  144MOL0     O18934   5.881   1.775   7.035  0.0041  0.1142  0.8145
  144MOL0     C18935   5.791   1.822   6.940 -0.9214 -0.5269  0.8776
  144MOL0     C18936   5.861   1.938   6.864  0.3189 -0.1111 -0.3678
  144MOL0     C18937   5.779   2.052   6.810 -0.3049  1.3614 -0.0462
  144MOL0     C18938   5.722   2.121   6.940 -0.1664  0.6200  0.2256
  144MOL0     C18939   5.719   2.260   6.905 -0.3357  0.0309  0.5958
  144MOL0     C18940   5.711   2.380   6.884 -0.0402 -0.2627  0.2667
  144MOL0     C18941   5.903   1.723   7.261 -0.6210  0.7868 -0.0443
  144MOL0     C18942   5.863   1.675   7.393 -0.0606 -0.2825  0.1828
  144MOL0     H18943   5.505   1.661   7.698 -1.2596  1.1048 -0.0015
  144MOL0     H18944   5.433   1.721   7.897  0.1039 -1.9254 -2.4682
  144MOL0     H18945   5.421   1.835   8.079  2.3032  1.6300  0.1815
  144MOL0     H18946   5.474   1.879   8.230 -1.3402  1.4608 -1.4108
  144MOL0     H18947   5.306   1.744   8.291  0.8100  3.1455 -1.2532
  144MOL0     H18948   5.415   1.614   8.295  1.5039  1.4170  0.7200
  144MOL0     H18949   5.332   1.520   8.092 -2.3039 -1.4910 -0.2334
  144MOL0     H18950   5.220   1.660   8.060  0.5308 -1.4927 -2.0078
  144MOL0     H18951   5.217   1.481   8.303 -1.6858 -3.2774 -1.9527
  144MOL0     H18952   5.099   1.612   8.272 -2.1686 -1.1949 -0.5575
  144MOL0     H18953   5.147   1.368   8.090  1.3319 -0.3444  2.8641
  144MOL0     H18954   5.029   1.513   8.075  0.8691  1.0702 -0.1721
  144MOL0     H18955   4.951   1.409   8.305 -0.3879 -0.2685  0.4101
  144MOL0     H18956   5.040   1.260   8.250 -1.5197 -0.3041  0.4645
  144MOL0     H18957   4.813   1.371   8.081 -1.4255  2.5762  2.8792
  144MOL0     H18958   4.873   1.208   8.082  1.2048  0.5908  0.7083
  144MOL0     H18959   4.725   1.298   8.325  1.5525  2.0296 -2.4486
  144MOL0     H18960   4.755   1.131   8.268  1.7444  0.4209  0.9806
  144MOL0     H18961   4.661   1.140   7.971 -1.4252 -2.7975 -0.8926
  144MOL0     H18962   4.328   0.989   7.965  0.4779 -0.0856  1.6328
  144MOL0     H18963   4.482   1.001   7.880  1.5615  1.4554  2.1572
  144MOL0     H18964   4.438   1.208   7.762 -1.5799  1.3555 -2.5955
  144MOL0     H18965   4.287   1.221   7.853  0.6340  3.2059 -3.8240
  144MOL0     H18966   4.302   1.121   7.606  0.7514  3.5477  1.5352
  144MOL0     H18967   4.314   0.970   7.702 -0.5154 -0.9741  0.3516
  144MOL0     H18968   4.093   1.074   7.825 -2.2192 -3.2819 -1.2336
  144MOL0     H18969   4.087   0.997   7.666 -0.9942  3.4494 -2.8852
  144MOL0     H18970   3.980   1.013   7.504  0.4356 -0.2977 -0.3965
  144MOL0     H18971   3.778   1.032   7.405 -0.4829  0.7213 -2.1443
  144MOL0     H18972   3.327   1.185   7.333 -0.9572  1.8646  0.4849
  144MOL0     H18973   3.153   1.188   7.157 -0.2218 -1.5718  0.7738
  144MOL0     H18974   3.063   1.107   6.945  0.3061 -2.4827 -1.9065
  144MOL0     H18975   3.046   1.192   6.790 -3.8432  1.2618  1.0049
  144MOL0     H18976   2.957   1.324   7.047  0.1665  1.5343 -0.8054
  144MOL0     H18977   2.866   1.270   6.914 -1.5209  2.9069 -1.3843
  144MOL0     H18978   2.974   1.462   6.762  2.7057  1.3986 -1.2622
  144MOL0     H18979   3.078   1.506   6.887  1.3977 -0.3344 -4.6716
  144MOL0     H18980   2.788   1.518   6.856 -0.3747 -1.1225  1.7130
  144MOL0     H18981   2.837   1.528   7.032  0.2690  2.7017  0.5818
  144MOL0     H18982   2.998   1.707   6.956 -0.3867 -0.5707  2.1569
  144MOL0     H18983   2.821   1.749   6.961 -1.5670 -1.6493 -1.2743
  144MOL0     H18984   2.806   1.734   6.712 -0.5492  4.6171 -0.6128
  144MOL0     H18985   2.977   1.709   6.702 -0.3370 -0.6216 -0.5636
  144MOL0     H18986   2.897   1.926   6.648  0.6825 -0.6016  0.1577
  144MOL0     H18987   2.842   1.946   6.821  0.5714 -3.1284  2.1761
  144MOL0     H18988   3.130   1.902   6.737  2.7280  1.1975  2.5434
  144MOL0     H18989   3.064   1.961   6.892 -1.8357  1.0865 -0.7859
  144MOL0     H18990   3.467   1.283   6.866  2.0740 -0.7898  0.9634
  144MOL0     H18991   3.630   1.267   7.054  0.5575  0.0615  4.6678
  144MOL0     H18992   3.729   1.437   7.563  1.8992  0.1739  2.4174
  144MOL0     H18993   3.935   1.404   7.690 -3.2843 -0.1727  3.7049
  144MOL0     H18994   5.828   1.715   8.068 -2.1174 -0.7676  1.4886
  144MOL0     H18995   5.920   1.631   7.851  0.0993  0.6663 -2.8856
  144MOL0     H18996   5.578   1.516   7.279 -2.0714  4.0093 -1.3822
  144MOL0     H18997   5.671   1.608   7.065  0.3599 -1.9701  0.2662
  144MOL0     H18998   5.697   1.848   6.989  0.6626  0.2914  3.7375
  144MOL0     H18999   5.783   1.749   6.859  0.0693  1.1470 -0.7851
  144MOL0     H19000   5.937   1.975   6.932  0.1686 -4.3904  2.5276
  144MOL0     H19001   5.906   1.891   6.776 -1.7713 -1.8974 -0.5827
  144MOL0     H19002   5.688   2.024   6.757 -0.9271  0.8912  1.2394
  144MOL0     H19003   5.850   2.116   6.757  0.7930 -0.0889 -0.3869
  144MOL0     H19004   5.627   2.080   6.975 -0.3474  0.0017 -0.9538
  144MOL0     H19005   5.793   2.126   7.023  1.4962  0.6175 -1.1403
  144MOL0     H19006   5.695   2.485   6.871 -2.9663 -0.8295 -1.6889
  144MOL0     H19007   5.993   1.781   7.249  0.4332 -0.6265  0.7470
  144MOL0     H19008   5.935   1.682   7.474  1.6633 -3.5577 -0.8812
  145MOL0     O19009   6.594   4.688   2.496 -0.2872 -0.0450  0.4151
  145MOL0     C19010   6.636   4.794   2.532 -0.4815 -0.5624 -0.2132
  145MOL0     O19011   6.560   4.912   2.553 -0.3819 -1.0622  0.0472
  145MOL0     C19012   6.422   4.909   2.519 -0.2303  0.0665 -0.6861
  145MOL0     C19013   6.324   4.834   2.589  0.0072  0.1306  0.7320
  145MOL0     C19014   6.190   4.845   2.554  0.0458  0.1160 -0.4211
  145MOL0     C19015   6.145   4.929   2.447 -0.3989 -0.5751 -0.2148
  145MOL0     O19016   6.012   4.957   2.415  0.4628  0.6347 -0.1996
  145MOL0     C19017   5.969   5.091   2.439 -0.0313  0.5199  0.5882
  145MOL0     C19018   5.855   5.116   2.332  0.1461  0.0397  0.0517
  145MOL0     C19019   5.725   5.046   2.372 -0.4532 -0.0759  0.4183
  145MOL0     C19020   5.625   5.041   2.250  0.1837  0.8969 -0.6259
  145MOL0     C19021   5.538   5.156   2.267  0.9549 -0.1985  0.6231
  145MOL0     C19022   5.441   5.144   2.153 -0.8440  0.1238 -0.6678
  145MOL0     C19023   5.365   5.272   2.136  0.0343 -0.0701  0.3958
  145MOL0     C19024   5.223   5.246   2.069 -0.3265 -0.0461 -0.5417
  145MOL0     N19025   5.123   5.250   2.175  0.0646 -0.5720 -0.3011
  145MOL0     C19026   5.096   5.143   2.261  0.3552  0.4186  0.5672
  145MOL0     C19027   4.992   5.178   2.339 -0.6255  0.0621  0.5311
  145MOL0     C19028   4.934   5.101   2.454 -0.0065  0.1652 -0.4640
  145MOL0     C19029   4.997   5.145   2.592  1.0275 -0.2230 -0.7052
  145MOL0     C19030   5.147   5.121   2.609 -0.3008  0.7173 -0.2947
  145MOL0     C19031   5.149   4.972   2.657  1.0958 -0.6083 -0.2809
  145MOL0     O19032   5.270   4.909   2.615 -0.1761 -0.4737 -0.7631
  145MOL0     C19033   5.389   4.944   2.674  0.1594  0.8938  1.0664
  145MOL0     C19034   5.504   4.925   2.601  0.5209 -0.3190 -0.2246
  145MOL0     C19035   5.625   4.947   2.661 -0.5899 -0.6693  0.3365
  145MOL0     C19036   5.633   4.989   2.799 -0.2911  0.7024 -0.8955
  145MOL0     C19037   5.774   4.992   2.866  0.4796 -0.3061  0.5587
  145MOL0     O19038   5.878   4.943   2.783 -0.7002  0.2598 -0.1420
  145MOL0     C19039   6.001   4.915   2.842  0.4271 -0.2487  0.5736
  145MOL0     C19040   6.085   5.017   2.895 -0.2038  0.5854  0.8932
  145MOL0     C19041   6.198   4.989   2.967  0.3840  0.2860 -0.7753
  145MOL0     C19042   6.232   4.858   2.981  0.2979  0.3065 -0.1387
  145MOL0     O19043   6.363   4.837   3.032  0.9082  0.1563  0.5854
  145MOL0     C19044   6.390   4.721   3.121  0.2814 -0.2121 -0.2002
  145MOL0     C19045   6.544   4.712   3.147 -0.1474 -0.6166 -0.1685
  145MOL0     C19046   6.605   4.608   3.246 -0.8951  0.1428  0.0912
  145MOL0     C19047   6.756   4.605   3.239  0.2708  0.3645  1.1402
  145MOL0     C19048   6.811   4.518   3.350 -0.1700 -0.5525  0.0683
  145MOL0     C19049   6.807   4.371   3.317  0.2562 -0.5747 -0.5575
  145MOL0     C19050   6.864   4.278   3.428 -0.2322 -0.1400 -0.5749
  145MOL0     C19051   7.007   4.234   3.410  0.1118  0.1976  0.9224
  145MOL0    Cl19052   7.060   4.144   3.260 -0.3353  0.0543 -0.1131
  145MOL0     C19053   6.156   4.753   2.924  0.7161  0.3957  0.8669
  145MOL0     C19054   6.040   4.786   2.853 -0.0964  0.1572  1.0229
  145MOL0     O19055   5.782   5.057   2.968  0.5348 -0.7195 -0.0863
  145MOL0     C19056   5.514   5.004   2.877  0.3734 -0.5163  0.2905
  145MOL0     C19057   5.389   4.972   2.814  0.0957  0.2185  0.1115
  145MOL0     N19058   4.947   5.300   2.300 -0.6439 -0.4757  0.2073
  145MOL0     N19059   5.024   5.334   2.194 -0.1341 -1.4186  0.1939
  145MOL0     C19060   6.238   4.995   2.379  0.0979  0.7484  0.3977
  145MOL0     C19061   6.377   4.980   2.409 -1.1578 -0.1200 -0.3812
  145MOL0     C19062   6.783   4.798   2.562  0.0738 -0.3160 -0.3605
  145MOL0     C19063   6.872   4.688   2.560 -0.9342  0.1141 -0.3485
  145MOL0     C19064   7.009   4.698   2.582  0.4533  0.0740 -0.5806
  145MOL0     C19065   7.057   4.825   2.615 -0.1345  0.5014 -0.3140
  145MOL0     O19066   7.196   4.827   2.626 -0.3338  0.4478  0.1640
  145MOL0     C19067   7.270   4.950   2.649 -0.2718  1.0710 -0.3301
  145MOL0     C19068   7.397   4.932   2.731  0.2943 -0.2572  1.2775
  145MOL0     C19069   7.384   4.864   2.871  0.8226  0.2492 -0.9168
  145MOL0     C19070   7.494   4.760   2.904 -0.0437  0.3819 -0.8890
  145MOL0     C19071   7.608   4.838   2.939 -0.4807  0.8098  0.2099
  145MOL0     C19072   7.697   4.921   2.958  0.0492 -0.0071  0.2080
  145MOL0     C19073   6.976   4.938   2.623 -0.3174  0.1171  0.2756
  145MOL0     C19074   6.840   4.927   2.596  0.1398  0.0063  0.1905
  145MOL0     H19075   6.357   4.763   2.664 -2.1646  0.7208  2.3393
  145MOL0     H19076   6.117   4.784   2.607 -1.1431  4.8368  4.2561
  145MOL0     H19077   6.058   5.151   2.422  1.1267 -1.5325 -0.9511
  145MOL0     H19078   5.923   5.108   2.537 -2.1615  1.2163 -0.4524
  145MOL0     H19079   5.890   5.065   2.242 -0.6607 -1.0042  0.3059
  145MOL0     H19080   5.838   5.224   2.333  1.8506  0.3292  0.1898
  145MOL0     H19081   5.675   5.100   2.453 -3.2804 -0.9355 -0.6368
  145MOL0     H19082   5.744   4.939   2.389  1.9879 -0.2455 -2.4872
  145MOL0     H19083   5.677   5.026   2.155  1.5171 -1.9800  0.4234
  145MOL0     H19084   5.565   4.949   2.257  1.1263 -0.0016 -3.1237
  145MOL0     H19085   5.593   5.249   2.247  0.2970 -0.3570 -2.2921
  145MOL0     H19086   5.486   5.147   2.363 -3.3977  0.8213 -1.3797
  145MOL0     H19087   5.373   5.063   2.181  0.3893 -0.5801  0.4235
  145MOL0     H19088   5.502   5.130   2.063  0.8128 -0.1510  0.4429
  145MOL0     H19089   5.356   5.320   2.234  3.8585  3.0695 -0.5312
  145MOL0     H19090   5.423   5.339   2.072  0.7878 -0.8165  0.2745
  145MOL0     H19091   5.206   5.157   2.008 -1.0434  1.2925 -2.3721
  145MOL0     H19092   5.211   5.322   1.992 -2.3089 -3.5164 -4.0313
  145MOL0     H19093   5.138   5.044   2.249 -0.5244  0.1483 -0.5129
  145MOL0     H19094   4.959   4.994   2.456 -1.7404 -0.2901 -1.0515
  145MOL0     H19095   4.825   5.102   2.452 -0.0946 -1.4908  1.2701
  145MOL0     H19096   4.940   5.113   2.680  4.8328  0.3466  2.2173
  145MOL0     H19097   4.975   5.252   2.581  3.2648  0.3485 -0.0897
  145MOL0     H19098   5.189   5.121   2.508 -1.3546  0.0897 -0.7491
  145MOL0     H19099   5.193   5.192   2.679 -2.3622  0.7767  1.0833
  145MOL0     H19100   5.064   4.918   2.614 -0.9683  0.6036  2.0596
  145MOL0     H19101   5.121   4.973   2.762  1.2309  1.7548 -0.2306
  145MOL0     H19102   5.495   4.898   2.496 -0.7689  0.0694 -0.2227
  145MOL0     H19103   5.722   4.942   2.613  0.2432 -1.5182  2.0346
  145MOL0     H19104   6.059   5.122   2.881 -0.1847  0.3326 -1.3883
  145MOL0     H19105   6.259   5.071   3.003  1.5261 -1.0398  0.4801
  145MOL0     H19106   6.352   4.631   3.072 -0.1873 -0.0267 -0.1882
  145MOL0     H19107   6.333   4.732   3.214 -1.6321  1.5139 -1.4676
  145MOL0     H19108   6.576   4.810   3.186  1.6353  0.0282 -2.9255
  145MOL0     H19109   6.576   4.702   3.043  1.3385 -1.5402  0.3425
  145MOL0     H19110   6.569   4.512   3.207 -0.5594  1.2157 -3.1941
  145MOL0     H19111   6.561   4.630   3.344 -2.3502  0.2845 -0.5716
  145MOL0     H19112   6.783   4.557   3.144  1.9019  1.0345  1.2277
  145MOL0     H19113   6.791   4.709   3.238  0.7711  0.2034  0.2388
  145MOL0     H19114   6.773   4.545   3.449  0.7672 -0.3350  0.3782
  145MOL0     H19115   6.917   4.535   3.368  0.0412 -1.3616 -0.3524
  145MOL0     H19116   6.848   4.346   3.219  0.7909  0.2702 -0.5662
  145MOL0     H19117   6.698   4.367   3.310  0.0415  2.2004 -0.0937
  145MOL0     H19118   6.847   4.318   3.528 -0.1987  0.4033 -0.7817
  145MOL0     H19119   6.798   4.192   3.421  0.0684 -0.2521 -3.2371
  145MOL0     H19120   7.049   4.178   3.494  3.9410  1.6776  0.2069
  145MOL0     H19121   7.070   4.323   3.419 -0.4533  1.1501 -2.8289
  145MOL0     H19122   6.182   4.648   2.912 -3.3847 -0.9047  1.5787
  145MOL0     H19123   5.976   4.715   2.801  1.0875 -0.3387  0.2015
  145MOL0     H19124   5.511   5.030   2.982 -0.5915 -1.7862  0.6016
  145MOL0     H19125   5.299   4.971   2.873  0.2168  0.4542  0.3006
  145MOL0     H19126   6.199   5.051   2.295 -0.3015  2.0768  1.4485
  145MOL0     H19127   6.452   5.023   2.342 -1.5035  0.5085 -0.3792
  145MOL0     H19128   6.821   4.592   2.547 -0.0437 -0.5544  0.8778
  145MOL0     H19129   7.080   4.615   2.587  1.5089  0.9422 -0.7268
  145MOL0     H19130   7.204   5.025   2.693 -1.4766 -0.3935  0.4454
  145MOL0     H19131   7.316   4.985   2.556  2.3096 -1.5420 -0.1990
  145MOL0     H19132   7.464   4.887   2.657 -2.4673 -0.8355 -1.0623
  145MOL0     H19133   7.430   5.036   2.739  3.1777 -1.0546  0.8342
  145MOL0     H19134   7.291   4.810   2.890  0.5490  1.3847  1.1682
  145MOL0     H19135   7.387   4.942   2.947 -2.7137  0.7243 -1.1313
  145MOL0     H19136   7.469   4.695   2.988  0.0325  0.4472 -0.8163
  145MOL0     H19137   7.507   4.689   2.821 -1.2371 -1.0907  0.1198
  145MOL0     H19138   7.768   5.000   2.966 -1.6934  1.4886  1.9796
  145MOL0     H19139   7.020   5.036   2.637 -2.2166  1.1128 -0.5207
  145MOL0     H19140   6.771   5.010   2.586  1.8155  1.5937  1.2619
  146MOL0     O19141   5.642   0.852   1.889  0.2074 -0.4827  0.2972
  146MOL0     C19142   5.578   0.937   1.827  0.3899 -0.1004 -0.2326
  146MOL0     O19143   5.456   0.915   1.772 -0.3434  0.5881 -0.2453
  146MOL0     C19144   5.390   0.799   1.799  0.3630 -0.1855  0.6543
  146MOL0     C19145   5.352   0.769   1.928 -0.1191 -0.1268  0.1380
  146MOL0     C19146   5.277   0.651   1.954  0.4735 -1.1029  0.2988
  146MOL0     C19147   5.224   0.574   1.850  0.4391  0.4491  0.6614
  146MOL0     O19148   5.155   0.459   1.881 -0.3093 -0.1677 -0.2935
  146MOL0     C19149   5.204   0.381   1.984  0.1528  0.6375 -0.3093
  146MOL0     C19150   5.173   0.227   1.950  0.1315  0.3606 -0.8506
  146MOL0     C19151   5.236   0.132   2.053 -0.3907 -0.8665  0.1733
  146MOL0     C19152   5.395   0.147   2.061 -0.1649  0.9161 -0.1434
  146MOL0     C19153   5.458   0.041   2.154  0.6164  0.2979 -0.5793
  146MOL0     C19154   5.606   0.052   2.181 -0.2318 -0.5504 -0.6616
  146MOL0     C19155   5.652  -0.030   2.300 -0.4993 -0.1067  0.0267
  146MOL0     C19156   5.799  -0.004   2.316  0.2220  0.2383 -0.3180
  146MOL0     N19157   5.863  -0.048   2.440  0.0481  0.5151  0.4097
  146MOL0     C19158   5.991  -0.114   2.460 -0.0453  0.8774  0.5986
  146MOL0     C19159   6.005  -0.139   2.589  0.2874 -0.0563  0.8182
  146MOL0     C19160   6.119  -0.200   2.660  0.9718 -0.2848  0.0884
  146MOL0     C19161   6.247  -0.121   2.658 -0.2858 -0.1588  0.0129
  146MOL0     C19162   6.251   0.017   2.729  0.2851  0.1625 -0.4496
  146MOL0     C19163   6.228   0.016   2.884  0.0983  0.4696  0.7564
  146MOL0     O19164   6.215   0.157   2.928  1.0398  0.3216 -0.2976
  146MOL0     C19165   6.086   0.209   2.945  1.1371  0.5996  0.2876
  146MOL0     C19166   6.061   0.303   3.048 -0.1264 -0.2650 -0.1942
  146MOL0     C19167   5.936   0.355   3.063  0.7813 -0.3419 -0.2140
  146MOL0     C19168   5.822   0.304   3.001  0.4555  0.3126  0.4049
  146MOL0     C19169   5.689   0.357   3.040 -0.5532 -0.3922  0.3081
  146MOL0     O19170   5.595   0.330   2.945  0.1938  0.0965 -0.8174
  146MOL0     C19171   5.467   0.358   2.979 -0.8320  0.5137 -0.3257
  146MOL0     C19172   5.396   0.255   3.042  0.3493 -0.9753 -1.0456
  146MOL0     C19173   5.263   0.265   3.069 -0.6258 -1.5232  0.5001
  146MOL0     C19174   5.204   0.391   3.070 -0.2714 -0.1060 -1.0239
  146MOL0     O19175   5.087   0.398   3.138 -0.3556 -0.4138  0.1389
  146MOL0     C19176   5.080   0.486   3.249  0.5489 -0.9160 -0.5499
  146MOL0     C19177   4.947   0.476   3.310  0.0684  0.1297 -0.3506
  146MOL0     C19178   4.847   0.556   3.221  0.3583  0.7442  0.0679
  146MOL0     C19179   4.711   0.504   3.247 -0.2145 -0.4146 -0.4277
  146MOL0     C19180   4.622   0.573   3.142  0.4044 -0.7504  0.9055
  146MOL0     C19181   4.476   0.520   3.174  0.0510  0.5431  0.8376
  146MOL0     C19182   4.390   0.596   3.077 -0.4184 -0.0963  0.2063
  146MOL0     C19183   4.240   0.562   3.093 -0.4117  1.0410 -0.6739
  146MOL0    Cl19184   4.199   0.556   3.261  0.2205  0.0217  0.1214
  146MOL0     C19185   5.269   0.504   3.008  0.3412  0.1197 -0.1034
  146MOL0     C19186   5.403   0.481   2.955  0.3970 -1.1713  0.0405
  146MOL0     O19187   5.674   0.410   3.152 -0.0188 -0.3024 -0.3297
  146MOL0     C19188   5.842   0.205   2.909 -0.4248  0.2431  0.0964
  146MOL0     C19189   5.971   0.156   2.881  0.4041  0.2523  0.6342
  146MOL0     N19190   5.888  -0.086   2.648 -0.4852  0.0222 -0.5287
  146MOL0     N19191   5.809  -0.022   2.566  0.2754 -0.3493  0.2499
  146MOL0     C19192   5.270   0.604   1.719 -0.9366  0.1853  0.3143
  146MOL0     C19193   5.349   0.722   1.694  0.7169  1.8399 -0.0462
  146MOL0     C19194   5.631   1.077   1.821  0.2567 -0.1514 -0.4626
  146MOL0     C19195   5.561   1.179   1.753  0.3288  0.1947 -0.6204
  146MOL0     C19196   5.604   1.310   1.766 -0.0530 -0.7015 -0.3171
  146MOL0     C19197   5.723   1.337   1.832 -0.5541 -0.3095 -0.6436
  146MOL0     O19198   5.772   1.469   1.832  0.1318 -0.7701 -0.3542
  146MOL0     C19199   5.691   1.571   1.779 -0.2002 -0.0516  0.1816
  146MOL0     C19200   5.746   1.722   1.808 -0.4178  0.4506 -0.1863
  146MOL0     C19201   5.789   1.754   1.946  0.0014  0.1316  1.0594
  146MOL0     C19202   5.673   1.736   2.043 -0.2252  0.6796  0.7497
  146MOL0     C19203   5.697   1.809   2.166 -0.6030  0.3182  0.3380
  146MOL0     C19204   5.743   1.869   2.263  0.8737 -0.0964 -0.2688
  146MOL0     C19205   5.791   1.238   1.911  0.4430 -1.5535  0.5209
  146MOL0     C19206   5.736   1.113   1.905  0.0412 -0.6551  0.3623
  146MOL0     H19207   5.385   0.832   2.010 -0.0912 -0.0735  0.0870
  146MOL0     H19208   5.271   0.610   2.054 -2.2840  0.8392  1.0360
  146MOL0     H19209   5.162   0.427   2.074 -0.0060  2.0132 -1.0584
  146MOL0     H19210   5.312   0.386   1.996  0.3982  0.8350 -2.2494
  146MOL0     H19211   5.212   0.207   1.850 -0.2587  1.3375 -1.2093
  146MOL0     H19212   5.066   0.207   1.949  0.7806 -4.8937 -4.2076
  146MOL0     H19213   5.185   0.036   2.045 -1.1972 -0.6620  2.2355
  146MOL0     H19214   5.194   0.162   2.150 -0.9157  1.5115 -0.7218
  146MOL0     H19215   5.430   0.118   1.961 -2.6899 -0.1486 -0.7841
  146MOL0     H19216   5.439   0.244   2.086  2.1544 -0.5686  1.9599
  146MOL0     H19217   5.425  -0.059   2.123  0.5194  0.5521 -1.3179
  146MOL0     H19218   5.395   0.062   2.241 -0.7640 -1.8180 -0.9736
  146MOL0     H19219   5.613   0.160   2.201 -0.1623 -0.6827  0.0539
  146MOL0     H19220   5.662   0.027   2.090 -1.0175 -1.3040 -0.9503
  146MOL0     H19221   5.604   0.013   2.388  1.9764  5.6487 -0.9808
  146MOL0     H19222   5.631  -0.138   2.295  1.5816 -0.5467 -0.6331
  146MOL0     H19223   5.806   0.105   2.311 -1.7976  0.5588  1.7134
  146MOL0     H19224   5.850  -0.044   2.228 -2.1478 -2.1150 -0.7392
  146MOL0     H19225   6.060  -0.134   2.379 -1.7012  1.0475 -0.9187
  146MOL0     H19226   6.146  -0.297   2.618  1.0737 -0.9208  1.5461
  146MOL0     H19227   6.079  -0.212   2.761 -0.9842 -0.3779 -0.6646
  146MOL0     H19228   6.266  -0.105   2.551 -1.6716 -0.5237 -0.3052
  146MOL0     H19229   6.340  -0.170   2.687  0.4728  0.6695 -0.9094
  146MOL0     H19230   6.345   0.068   2.706  0.7154  1.7187  3.8079
  146MOL0     H19231   6.168   0.073   2.685 -0.5733 -0.5941  0.1483
  146MOL0     H19232   6.321  -0.024   2.925 -0.1935 -3.2908 -1.7066
  146MOL0     H19233   6.152  -0.054   2.920 -0.0038 -0.4717 -1.1669
  146MOL0     H19234   6.143   0.332   3.113 -3.0144  4.4602  1.8515
  146MOL0     H19235   5.921   0.442   3.125  0.2799  0.9697 -2.0779
  146MOL0     H19236   5.441   0.157   3.055  1.0383 -0.4620  0.7782
  146MOL0     H19237   5.207   0.183   3.113 -0.4620 -0.5310  2.7307
  146MOL0     H19238   5.105   0.589   3.223  0.7992 -1.1053 -1.0892
  146MOL0     H19239   5.147   0.461   3.332  1.0663  0.0937 -0.6426
  146MOL0     H19240   4.930   0.525   3.407 -0.3808 -2.9650  1.2838
  146MOL0     H19241   4.921   0.369   3.315 -2.4195  0.6161 -1.5383
  146MOL0     H19242   4.883   0.548   3.118  0.6816 -0.9225  0.2869
  146MOL0     H19243   4.852   0.663   3.242  0.3618  0.6478  0.5789
  146MOL0     H19244   4.718   0.399   3.216  3.0635 -0.8174  1.2281
  146MOL0     H19245   4.682   0.525   3.350  2.0816 -0.0123  0.1847
  146MOL0     H19246   4.655   0.546   3.041  0.6408 -1.2233  1.1086
  146MOL0     H19247   4.615   0.681   3.155 -3.6844 -0.7633  0.3700
  146MOL0     H19248   4.449   0.545   3.276 -0.4085  0.4764  0.7326
  146MOL0     H19249   4.462   0.411   3.168 -1.9962  0.5788  3.5527
  146MOL0     H19250   4.394   0.701   3.107  3.0697  0.2646 -1.0445
  146MOL0     H19251   4.427   0.588   2.974  0.1290 -1.8716  0.5150
  146MOL0     H19252   4.222   0.465   3.045 -0.6453  1.3447 -1.2023
  146MOL0     H19253   4.189   0.645   3.044  2.2600  3.3378  0.1702
  146MOL0     H19254   5.219   0.596   2.979 -3.3672 -2.3974 -2.4830
  146MOL0     H19255   5.453   0.551   2.889  2.7774 -2.8078  0.0027
  146MOL0     H19256   5.758   0.157   2.860 -0.6925 -0.6020  1.3346
  146MOL0     H19257   5.968   0.065   2.821 -2.2329 -0.3063  1.4535
  146MOL0     H19258   5.263   0.540   1.632 -0.0507  0.8538 -0.2623
  146MOL0     H19259   5.391   0.743   1.596  1.1700  0.9619 -0.0533
  146MOL0     H19260   5.464   1.155   1.711 -0.6541 -0.2036  1.7263
  146MOL0     H19261   5.558   1.382   1.699 -0.3522  0.9805  1.6280
  146MOL0     H19262   5.587   1.561   1.810 -0.6339  1.7474 -0.5984
  146MOL0     H19263   5.685   1.567   1.670  2.6978 -1.4417 -0.0351
  146MOL0     H19264   5.835   1.731   1.745 -0.0101  0.4258  0.3673
  146MOL0     H19265   5.669   1.790   1.772 -0.7181 -0.4033 -1.1809
  146MOL0     H19266   5.816   1.860   1.934 -0.2625 -0.1079 -4.4143
  146MOL0     H19267   5.867   1.680   1.960 -1.9387 -2.2339  0.0349
  146MOL0     H19268   5.577   1.771   2.005 -2.0543  0.3356  4.5640
  146MOL0     H19269   5.654   1.630   2.061 -1.2988  0.4963 -1.1977
  146MOL0     H19270   5.785   1.919   2.347  1.0556 -0.2432 -0.2714
  146MOL0     H19271   5.875   1.243   1.979  1.2260 -0.5417 -0.4918
  146MOL0     H19272   5.782   1.028   1.956  1.8660 -0.8880 -1.5125
  147MOL0     O19273   3.806   5.298   0.692  0.2421  0.8904 -0.5670
  147MOL0     C19274   3.896   5.291   0.769 -0.8521 -0.0769 -0.1197
  147MOL0     O19275   3.985   5.183   0.783 -0.8902 -0.5043 -0.1751
  147MOL0     C19276   3.958   5.070   0.710  0.4443 -0.2338 -0.0414
  147MOL0     C19277   4.005   5.057   0.586 -0.8702 -0.5254 -0.2935
  147MOL0     C19278   3.965   4.946   0.509  0.0024 -0.5046  0.0548
  147MOL0     C19279   3.878   4.843   0.556  0.2906 -0.5253  0.7276
  147MOL0     O19280   3.842   4.726   0.490  0.1318 -0.3943  0.6530
  147MOL0     C19281   3.839   4.713   0.350  0.6414  0.6429  0.6374
  147MOL0     C19282   3.734   4.602   0.313  0.6929  0.1613  0.2309
  147MOL0     C19283   3.723   4.568   0.165 -0.2505  0.7414 -0.0332
  147MOL0     C19284   3.828   4.461   0.117  0.3453 -0.0766 -0.0990
  147MOL0     C19285   3.863   4.466  -0.027 -0.6771  0.2036 -0.0986
  147MOL0     C19286   3.973   4.375  -0.076 -0.3295 -0.4539 -0.0056
  147MOL0     C19287   3.953   4.231  -0.033 -0.7349 -0.5540  0.5919
  147MOL0     C19288   4.053   4.152  -0.115  0.0173  0.9062 -0.1904
  147MOL0     N19289   4.049   4.011  -0.083 -0.2753  0.2379 -0.9200
  147MOL0     C19290   3.945   3.926  -0.085  0.9488 -0.2039 -1.0530
  147MOL0     C19291   3.989   3.806  -0.053  0.4884  0.3428  0.1118
  147MOL0     C19292   3.893   3.696  -0.046  0.4962 -0.2545 -0.7582
  147MOL0     C19293   3.894   3.623   0.097  0.1235 -0.1280  0.2278
  147MOL0     C19294   4.021   3.543   0.131 -0.6688  0.0799 -0.4596
  147MOL0     C19295   4.082   3.460   0.012  0.0303  0.3850  0.5920
  147MOL0     O19296   4.005   3.342  -0.014  0.2833 -0.3065  0.4739
  147MOL0     C19297   4.028   3.284  -0.140  0.1947 -0.0753 -0.1593
  147MOL0     C19298   3.933   3.220  -0.214  0.1619 -0.6828 -0.4025
  147MOL0     C19299   3.960   3.171  -0.340  0.4374  0.3166  0.1877
  147MOL0     C19300   4.090   3.152  -0.392  0.1037 -0.1631 -0.8397
  147MOL0     C19301   4.128   3.111  -0.527  0.8918  0.2837 -0.4467
  147MOL0     O19302   4.248   3.158  -0.572 -0.7975 -1.1846 -0.2618
  147MOL0     C19303   4.260   3.155  -0.711 -0.9097  0.6310 -0.2516
  147MOL0     C19304   4.247   3.265  -0.798 -0.2209  0.7715 -0.4715
  147MOL0     C19305   4.264   3.254  -0.937 -0.5588  0.5699 -0.7368
  147MOL0     C19306   4.288   3.128  -1.001  0.0629 -0.1794  0.4758
  147MOL0     O19307   4.295   3.125  -1.142  0.6444 -0.8825  0.0182
  147MOL0     C19308   4.397   3.198  -1.217 -0.0033 -0.6915  0.3860
  147MOL0     C19309   4.366   3.186  -1.367  0.3781 -0.2004 -1.1955
  147MOL0     C19310   4.424   3.298  -1.455 -0.0358  0.2152  0.2743
  147MOL0     C19311   4.572   3.325  -1.455 -0.3866  0.1299  0.2763
  147MOL0     C19312   4.655   3.230  -1.544 -0.0498  0.7517 -0.0896
  147MOL0     C19313   4.813   3.268  -1.555 -0.0353 -0.3748 -0.1625
  147MOL0     C19314   4.882   3.269  -1.419 -0.4587  0.0795  0.7776
  147MOL0     C19315   4.885   3.128  -1.359  0.2262 -0.1089 -0.3002
  147MOL0    Cl19316   4.998   3.007  -1.437  0.0005  0.5922 -0.0692
  147MOL0     C19317   4.294   3.018  -0.920  0.0107 -0.0890 -0.5589
  147MOL0     C19318   4.283   3.030  -0.782  0.2884  1.2992  0.0967
  147MOL0     O19319   4.045   3.054  -0.599  0.8281 -0.5203 -0.1197
  147MOL0     C19320   4.190   3.212  -0.314  0.8637  0.2042 -1.0945
  147MOL0     C19321   4.162   3.269  -0.191  0.0932 -0.4864 -0.8783
  147MOL0     N19322   4.128   3.815  -0.035  0.1530 -0.4058  1.3619
  147MOL0     N19323   4.155   3.940  -0.048  0.2406 -0.4127 -0.6231
  147MOL0     C19324   3.858   4.852   0.693  0.6836  0.5768  0.3114
  147MOL0     C19325   3.891   4.965   0.767 -0.3962  0.3686  0.2522
  147MOL0     C19326   3.903   5.394   0.873 -0.0211 -0.3775  0.7724
  147MOL0     C19327   4.024   5.426   0.927 -0.5988 -0.9435 -0.0962
  147MOL0     C19328   4.037   5.538   1.011 -0.2555  0.1151 -0.2395
  147MOL0     C19329   3.939   5.624   1.047  1.1565 -0.4055 -0.4070
  147MOL0     O19330   3.966   5.734   1.127  0.0722  0.6105  0.4463
  147MOL0     C19331   3.865   5.768   1.227 -0.5704  0.2307  0.0304
  147MOL0     C19332   3.926   5.861   1.324 -0.0694  0.5855 -1.0320
  147MOL0     C19333   4.049   5.785   1.396  0.5503 -0.7386 -0.0128
  147MOL0     C19334   4.121   5.880   1.497  0.2499 -1.0670 -0.4912
  147MOL0     C19335   4.022   5.960   1.577 -0.3241 -0.5950 -0.0624
  147MOL0     C19336   3.944   6.017   1.647 -0.2509 -0.0725  0.0075
  147MOL0     C19337   3.809   5.581   1.008 -0.1266 -0.5844  0.6163
  147MOL0     C19338   3.801   5.465   0.928  0.8379 -0.2595  0.1451
  147MOL0     H19339   4.063   5.139   0.546 -2.1898  0.5194 -0.1092
  147MOL0     H19340   4.008   4.941   0.410  3.6441  2.9940  1.2341
  147MOL0     H19341   3.937   4.684   0.312  0.5657  0.0588  0.8780
  147MOL0     H19342   3.811   4.811   0.308  2.4584  0.7176 -0.5016
  147MOL0     H19343   3.637   4.643   0.341  1.9653  2.3855  1.6932
  147MOL0     H19344   3.754   4.509   0.367  0.3384 -2.3758 -3.6460
  147MOL0     H19345   3.739   4.665   0.117 -2.8756  0.6108 -1.3479
  147MOL0     H19346   3.619   4.547   0.140 -0.7778  2.7054  0.3226
  147MOL0     H19347   3.922   4.489   0.164 -0.7078  2.6584  0.5153
  147MOL0     H19348   3.788   4.365   0.151 -3.4391  1.7947  1.3336
  147MOL0     H19349   3.893   4.570  -0.042  0.0585  0.3346  2.0165
  147MOL0     H19350   3.779   4.441  -0.093  0.2459 -1.5799 -0.6791
  147MOL0     H19351   4.062   4.411  -0.024 -0.2208 -1.5588  0.5956
  147MOL0     H19352   4.006   4.392  -0.178 -0.5678  0.8626  0.1156
  147MOL0     H19353   3.985   4.223   0.071  2.4709  0.2618 -0.1956
  147MOL0     H19354   3.853   4.202  -0.067  0.3755 -3.0479 -0.8520
  147MOL0     H19355   4.155   4.187  -0.096  0.5666 -1.0479  0.6445
  147MOL0     H19356   4.037   4.168  -0.222  3.7004 -1.4696 -1.3024
  147MOL0     H19357   3.844   3.958  -0.109  0.5252 -1.4319 -0.9758
  147MOL0     H19358   3.933   3.632  -0.125  1.4203  0.7482 -1.1345
  147MOL0     H19359   3.788   3.723  -0.066  0.9508  1.0740 -1.4887
  147MOL0     H19360   3.820   3.542   0.093  0.0650 -0.0552 -0.1575
  147MOL0     H19361   3.866   3.695   0.174  1.0588  0.8873 -0.3615
  147MOL0     H19362   4.109   3.604   0.155  1.3881 -2.2701 -1.6553
  147MOL0     H19363   4.001   3.471   0.211  0.2719 -3.1605 -2.9384
  147MOL0     H19364   4.177   3.418   0.045  0.4024  0.9210  0.2213
  147MOL0     H19365   4.100   3.518  -0.079  2.9033  0.6225  1.2165
  147MOL0     H19366   3.834   3.239  -0.174  0.1355  2.0515 -1.5056
  147MOL0     H19367   3.879   3.141  -0.407 -0.0052  2.1024 -0.1374
  147MOL0     H19368   4.221   3.365  -0.765 -0.4946  0.2493  0.9744
  147MOL0     H19369   4.257   3.345  -0.995  0.8763  2.8314  2.3349
  147MOL0     H19370   4.494   3.153  -1.193  0.0551 -0.1454  1.2188
  147MOL0     H19371   4.395   3.301  -1.178  0.7114 -1.0898  1.5349
  147MOL0     H19372   4.259   3.185  -1.389  0.6252 -2.8716 -2.7653
  147MOL0     H19373   4.409   3.091  -1.399 -0.1010 -0.6401 -0.5684
  147MOL0     H19374   4.386   3.395  -1.421 -2.9295  0.4641 -3.0655
  147MOL0     H19375   4.384   3.286  -1.556 -2.2153 -3.2747  1.3936
  147MOL0     H19376   4.601   3.419  -1.503  0.6450 -1.6640 -2.8855
  147MOL0     H19377   4.605   3.324  -1.350 -1.2498  2.0292  0.5993
  147MOL0     H19378   4.625   3.224  -1.649  0.3336 -0.7729 -0.1262
  147MOL0     H19379   4.647   3.130  -1.499  2.5921  1.0236  1.1820
  147MOL0     H19380   4.819   3.370  -1.594  1.1367  0.4305  1.9811
  147MOL0     H19381   4.857   3.188  -1.616  0.0842 -1.6711  1.5447
  147MOL0     H19382   4.988   3.296  -1.418 -0.2326 -0.2004 -2.5364
  147MOL0     H19383   4.829   3.346  -1.361 -1.5903  1.9794 -2.4798
  147MOL0     H19384   4.786   3.083  -1.364 -1.7000  3.3694  2.0459
  147MOL0     H19385   4.898   3.133  -1.250 -0.7907 -2.3996 -0.0103
  147MOL0     H19386   4.309   2.923  -0.969  1.4308  0.6941 -1.7077
  147MOL0     H19387   4.297   2.944  -0.718 -0.7809  0.5982 -0.5794
  147MOL0     H19388   4.295   3.201  -0.340  0.7401 -0.4494 -1.3149
  147MOL0     H19389   4.235   3.313  -0.124 -1.1076 -3.5299  2.7326
  147MOL0     H19390   3.815   4.763   0.739 -4.4645  2.2441 -0.6197
  147MOL0     H19391   3.874   4.961   0.874 -0.7452  0.1684  0.1928
  147MOL0     H19392   4.116   5.383   0.888  0.4100  2.9663 -2.5899
  147MOL0     H19393   4.140   5.555   1.038  0.1133 -0.9141 -0.9371
  147MOL0     H19394   3.834   5.679   1.282 -0.5095  0.6406  0.7360
  147MOL0     H19395   3.776   5.805   1.174  2.9952  2.2320 -5.5655
  147MOL0     H19396   3.953   5.956   1.277 -1.1367  1.6853  0.4890
  147MOL0     H19397   3.858   5.887   1.406  1.0001 -0.1722  0.1304
  147MOL0     H19398   4.118   5.750   1.320  0.4287  2.3641 -1.7033
  147MOL0     H19399   4.017   5.703   1.461 -0.7521  0.6393  1.1903
  147MOL0     H19400   4.183   5.815   1.559  0.0385 -0.0984  0.7820
  147MOL0     H19401   4.186   5.959   1.460 -0.3375  0.1775  1.0083
  147MOL0     H19402   3.874   6.050   1.721  0.5510  2.5449 -0.2903
  147MOL0     H19403   3.726   5.648   1.029  0.2516 -0.1263  0.6627
  147MOL0     H19404   3.707   5.448   0.877  0.1440  0.8105  1.0255
  148MOL0     O19405   9.702   6.753   1.865 -0.2477  0.1657 -0.0853
  148MOL0     C19406   9.792   6.719   1.946  0.9105 -0.5035  0.2995
  148MOL0     O19407   9.914   6.780   1.947 -0.3389 -0.3506  0.3530
  148MOL0     C19408   9.956   6.877   1.858  0.5192 -0.0955 -0.2849
  148MOL0     C19409   9.888   6.979   1.780  0.1511  0.3100 -0.7941
  148MOL0     C19410   9.955   7.072   1.699  0.0548 -1.1295 -0.2616
  148MOL0     C19411  10.099   7.076   1.696 -0.5667 -0.0828 -0.7574
  148MOL0     O19412  10.149   7.175   1.615  0.0033 -0.7802 -0.7769
  148MOL0     C19413  10.295   7.218   1.620  0.5553 -0.3971  0.5174
  148MOL0     C19414  10.308   7.367   1.628  0.2132 -0.0590 -0.1321
  148MOL0     C19415  10.257   7.425   1.767  0.2078  0.2146 -0.7286
  148MOL0     C19416  10.367   7.411   1.883 -0.2024 -0.1801 -1.0052
  148MOL0     C19417  10.337   7.507   2.006  0.1121  0.2147 -0.7590
  148MOL0     C19418  10.411   7.458   2.141 -0.8739  0.0949 -0.0703
  148MOL0     C19419  10.555   7.515   2.150 -0.6633 -0.0970 -0.0576
  148MOL0     C19420  10.605   7.472   2.290  0.0297  0.2643  0.2686
  148MOL0     N19421  10.669   7.338   2.298 -0.0936 -0.5031  0.4412
  148MOL0     C19422  10.793   7.294   2.242  0.1307 -0.0267 -0.0041
  148MOL0     C19423  10.809   7.169   2.281  0.2795 -0.3556 -0.6548
  148MOL0     C19424  10.921   7.084   2.258 -0.5594 -0.3361 -0.1069
  148MOL0     C19425  11.057   7.111   2.318 -0.7649 -0.8380 -0.4812
  148MOL0     C19426  11.139   6.981   2.340  0.3035  0.5693  0.1349
  148MOL0     C19427  11.159   6.894   2.219 -0.0750  0.3808 -0.0604
  148MOL0     O19428  11.195   6.981   2.112 -0.4591 -0.4782  0.8443
  148MOL0     C19429  11.207   6.939   1.985 -0.0273 -0.1314 -0.4716
  148MOL0     C19430  11.193   6.801   1.942 -0.4725  0.6358 -0.7899
  148MOL0     C19431  11.207   6.767   1.806 -0.7967 -0.4436 -0.3051
  148MOL0     C19432  11.227   6.866   1.710 -0.0787 -0.1209 -0.0073
  148MOL0     C19433  11.245   6.838   1.565 -0.7841 -0.0703  0.3847
  148MOL0     O19434  11.239   6.939   1.477  0.3114 -0.2091 -0.4697
  148MOL0     C19435  11.248   6.911   1.346  0.1631 -0.6425  0.4623
  148MOL0     C19436  11.356   6.846   1.285 -0.0654 -0.6960 -0.1968
  148MOL0     C19437  11.367   6.830   1.147 -0.0776  0.0316 -0.1343
  148MOL0     C19438  11.267   6.880   1.064  0.9860 -0.2792  0.1288
  148MOL0     O19439  11.284   6.864   0.933  0.2463 -0.1706 -0.2295
  148MOL0     C19440  11.172   6.886   0.835 -0.3705  0.6173  0.2146
  148MOL0     C19441  11.210   6.871   0.683 -0.5733 -0.4758 -0.0569
  148MOL0     C19442  11.293   7.003   0.644 -0.0812  0.6223 -0.0701
  148MOL0     C19443  11.385   6.967   0.525  0.6684 -0.4050  0.1735
  148MOL0     C19444  11.420   7.091   0.444 -0.1345  0.3607  0.2213
  148MOL0     C19445  11.490   7.061   0.322 -0.3751 -0.4754  0.1890
  148MOL0     C19446  11.425   6.972   0.225 -0.1616  0.6833 -1.0535
  148MOL0     C19447  11.490   6.959   0.086 -0.2558 -0.6659 -0.0099
  148MOL0    Cl19448  11.654   6.902   0.089 -0.4687 -0.5827 -0.4034
  148MOL0     C19449  11.153   6.942   1.123 -0.1902 -0.7446  0.2316
  148MOL0     C19450  11.154   6.971   1.257  0.2505 -0.2781 -0.5977
  148MOL0     O19451  11.255   6.723   1.532 -0.1359 -0.4989  0.1226
  148MOL0     C19452  11.230   7.002   1.752  0.1301 -0.0530  0.2691
  148MOL0     C19453  11.228   7.033   1.886 -0.4781  0.0245 -1.1024
  148MOL0     N19454  10.711   7.138   2.367  0.0245 -0.5991 -0.4184
  148MOL0     N19455  10.629   7.239   2.375  0.3674  0.0105 -0.6732
  148MOL0     C19456  10.165   6.970   1.758 -0.5773  0.3738 -0.0452
  148MOL0     C19457  10.091   6.882   1.843 -0.9113  0.3009 -0.0936
  148MOL0     C19458   9.759   6.606   2.043 -0.3656 -0.5022 -0.3199
  148MOL0     C19459   9.635   6.537   2.034  1.2608 -0.3600 -0.9130
  148MOL0     C19460   9.595   6.446   2.133 -0.0699 -0.8485  0.2279
  148MOL0     C19461   9.691   6.392   2.215 -0.5677  0.1509 -0.1245
  148MOL0     O19462   9.645   6.300   2.302 -0.1368 -0.1665  0.2587
  148MOL0     C19463   9.746   6.232   2.374  0.8082  0.4933  0.2796
  148MOL0     C19464   9.714   6.118   2.458  0.7517  0.5094 -0.9889
  148MOL0     C19465   9.576   6.114   2.532 -0.5958 -0.2173 -0.1045
  148MOL0     C19466   9.559   6.005   2.625 -1.3220 -0.4280 -0.8311
  148MOL0     C19467   9.542   5.876   2.568 -0.2024 -1.4990  0.7534
  148MOL0     C19468   9.524   5.769   2.516  0.2507  0.3628  0.6075
  148MOL0     C19469   9.827   6.451   2.218 -0.1236  0.2623  0.0816
  148MOL0     C19470   9.856   6.565   2.137 -0.1448 -0.0372 -0.7475
  148MOL0     H19471   9.781   6.975   1.796  0.6343 -2.7196  3.4351
  148MOL0     H19472   9.897   7.151   1.652 -2.3394  0.7919  5.1172
  148MOL0     H19473  10.337   7.183   1.526  1.2381 -0.2775  0.7745
  148MOL0     H19474  10.349   7.172   1.704  0.1383 -0.1670  0.9205
  148MOL0     H19475  10.247   7.408   1.546 -0.5018  0.3879  0.6085
  148MOL0     H19476  10.413   7.397   1.626  0.5756 -1.1347  1.4800
  148MOL0     H19477  10.162   7.380   1.799  0.7607  0.4133  1.3536
  148MOL0     H19478  10.242   7.533   1.763 -1.1332  0.4063  3.6893
  148MOL0     H19479  10.357   7.308   1.917 -1.8239  0.4758  0.6967
  148MOL0     H19480  10.468   7.432   1.847 -0.2244  0.8995 -0.4788
  148MOL0     H19481  10.229   7.513   2.025  0.0942  3.1127 -1.4105
  148MOL0     H19482  10.369   7.609   1.984  0.6219  0.5410  1.2349
  148MOL0     H19483  10.409   7.349   2.133  1.6399  0.0190 -0.4373
  148MOL0     H19484  10.351   7.480   2.229  0.0078 -0.4048  0.6638
  148MOL0     H19485  10.615   7.464   2.074  0.0702  0.2762  0.2608
  148MOL0     H19486  10.562   7.625   2.144  2.8347 -0.0465  2.1788
  148MOL0     H19487  10.519   7.475   2.358 -0.4699 -0.1138 -0.3326
  148MOL0     H19488  10.673   7.554   2.314  0.3579  0.6482 -1.7657
  148MOL0     H19489  10.862   7.358   2.187  0.7868 -1.1616 -0.5427
  148MOL0     H19490  10.935   7.078   2.150  0.7201 -1.2043  0.0824
  148MOL0     H19491  10.883   6.987   2.293  0.3272 -0.2756  1.0862
  148MOL0     H19492  11.045   7.151   2.419  1.3923 -1.8145  0.2194
  148MOL0     H19493  11.109   7.187   2.259 -0.5473 -0.9282 -0.4082
  148MOL0     H19494  11.243   7.001   2.371  2.1020  0.4745 -4.9409
  148MOL0     H19495  11.094   6.923   2.421 -0.4477 -0.3907 -0.9531
  148MOL0     H19496  11.072   6.834   2.190  1.6731 -1.9196 -0.8240
  148MOL0     H19497  11.241   6.823   2.236 -0.4680 -1.4787 -4.4154
  148MOL0     H19498  11.177   6.724   2.017  3.4771  0.4163  0.0586
  148MOL0     H19499  11.181   6.665   1.782 -1.5870 -0.8111  1.9068
  148MOL0     H19500  11.439   6.807   1.342  1.9003  1.3495 -1.5114
  148MOL0     H19501  11.449   6.781   1.096  0.1900  2.5410 -2.3451
  148MOL0     H19502  11.131   6.986   0.849 -0.0292  1.0497 -1.6531
  148MOL0     H19503  11.092   6.814   0.854  0.4212 -0.4118 -0.2163
  148MOL0     H19504  11.123   6.856   0.619  1.8146  1.3228 -4.0545
  148MOL0     H19505  11.281   6.788   0.673  0.2638  0.0565  1.1746
  148MOL0     H19506  11.363   7.034   0.722 -0.0921 -4.2917  2.2516
  148MOL0     H19507  11.219   7.080   0.621 -2.8802 -0.4846  4.1250
  148MOL0     H19508  11.475   6.915   0.561  0.2977  0.6189  2.7842
  148MOL0     H19509  11.327   6.892   0.469 -2.4431  0.6572  1.7895
  148MOL0     H19510  11.480   7.161   0.504 -0.7001  1.5399 -0.5543
  148MOL0     H19511  11.329   7.146   0.418  0.6770  1.2984 -0.7158
  148MOL0     H19512  11.586   7.013   0.347 -1.4033 -2.2466  0.9792
  148MOL0     H19513  11.511   7.153   0.267  1.2714 -1.0586 -0.2152
  148MOL0     H19514  11.432   6.865   0.249 -0.8344 -0.6553 -5.8244
  148MOL0     H19515  11.321   7.006   0.226 -0.0021  1.9363  4.0776
  148MOL0     H19516  11.486   7.044   0.017 -2.1985 -2.0800 -1.7727
  148MOL0     H19517  11.428   6.893   0.025 -0.9134 -1.0706  1.0731
  148MOL0     H19518  11.070   6.978   1.063  0.6346 -0.7298 -0.9217
  148MOL0     H19519  11.079   7.039   1.296 -0.9223 -3.3876  3.2368
  148MOL0     H19520  11.249   7.081   1.680  2.3468  0.0153  0.8642
  148MOL0     H19521  11.251   7.137   1.906  0.0334 -0.6266  2.3425
  148MOL0     H19522  10.271   6.954   1.774 -0.9085 -0.9685  0.9326
  148MOL0     H19523  10.148   6.803   1.891 -0.0357 -1.8449 -4.1507
  148MOL0     H19524   9.556   6.574   1.969  0.2084  1.2126  1.1352
  148MOL0     H19525   9.495   6.406   2.143  0.1804 -1.2278  1.4507
  148MOL0     H19526   9.788   6.298   2.450 -1.5601  0.5270  1.6576
  148MOL0     H19527   9.833   6.203   2.315 -0.5274  0.7935 -1.9395
  148MOL0     H19528   9.715   6.032   2.390 -0.9813  0.9923 -1.6700
  148MOL0     H19529   9.794   6.121   2.533  2.6924  1.9638 -2.9742
  148MOL0     H19530   9.510   6.108   2.444 -1.4609  1.0711  0.4279
  148MOL0     H19531   9.548   6.206   2.584 -2.2884 -0.7728  0.0312
  148MOL0     H19532   9.643   5.995   2.695 -2.7452 -2.3338  0.7220
  148MOL0     H19533   9.468   6.031   2.680 -0.3297  0.9177  0.2769
  148MOL0     H19534   9.510   5.669   2.479  0.1830  0.1724  1.1344
  148MOL0     H19535   9.912   6.418   2.276 -1.5082 -1.7302  1.0647
  148MOL0     H19536   9.949   6.621   2.143 -0.3946  0.3462 -0.4140
  149MOL0     O19537   4.730   8.397   8.839 -0.2632  0.0436 -0.5187
  149MOL0     C19538   4.687   8.468   8.929  0.3933 -0.8375  0.7393
  149MOL0     O19539   4.617   8.419   9.037  0.2591 -0.3658  0.4672
  149MOL0     C19540   4.612   8.285   9.054  0.1772  0.5710 -0.7143
  149MOL0     C19541   4.498   8.217   9.011 -0.1415  0.7585 -0.7917
  149MOL0     C19542   4.503   8.082   9.042 -0.2131  0.0960 -0.0371
  149MOL0     C19543   4.604   8.012   9.098 -0.3126  0.5039 -0.0021
  149MOL0     O19544   4.607   7.863   9.116 -0.3465 -0.3840  0.6228
  149MOL0     C19545   4.530   7.795   9.026  0.7224  0.5402 -0.8274
  149MOL0     C19546   4.397   7.751   9.078 -0.2570 -0.1577  0.0662
  149MOL0     C19547   4.331   7.639   8.996  0.0319  0.4255  0.3607
  149MOL0     C19548   4.269   7.679   8.857 -0.4984  0.2070  0.7059
  149MOL0     C19549   4.136   7.756   8.865  0.5187 -0.7028 -0.7129
  149MOL0     C19550   4.020   7.657   8.845  0.4389 -0.7229  0.5032
  149MOL0     C19551   3.881   7.714   8.843  0.0842  0.7349 -0.3792
  149MOL0     C19552   3.786   7.598   8.848  1.0591 -0.3288  0.1527
  149MOL0     N19553   3.645   7.638   8.819  0.2916 -0.5318  0.2395
  149MOL0     C19554   3.581   7.748   8.877  0.3463  0.5296 -0.6459
  149MOL0     C19555   3.457   7.759   8.814 -0.0129  0.1822 -1.3139
  149MOL0     C19556   3.343   7.859   8.841 -0.4789 -0.2245  0.7363
  149MOL0     C19557   3.384   7.941   8.966 -0.8671 -0.4257  1.5689
  149MOL0     C19558   3.291   8.057   8.999  0.0171 -0.1773  0.7762
  149MOL0     C19559   3.143   8.028   9.024 -1.0782 -0.2929 -0.5559
  149MOL0     O19560   3.075   7.957   8.924  0.0918  0.7297 -0.6349
  149MOL0     C19561   2.973   7.890   8.983 -1.2586  0.6723  0.2096
  149MOL0     C19562   2.869   7.960   9.048  0.0516  0.4357 -0.0212
  149MOL0     C19563   2.763   7.879   9.096 -0.2937  0.3883 -0.6517
  149MOL0     C19564   2.754   7.738   9.097 -0.1035  0.0596  0.1414
  149MOL0     C19565   2.645   7.666   9.165 -0.0054  0.0478 -1.4363
  149MOL0     O19566   2.557   7.734   9.253 -0.5285 -0.1199 -0.1693
  149MOL0     C19567   2.453   7.669   9.318 -0.1301  0.7888 -0.0189
  149MOL0     C19568   2.481   7.552   9.390 -0.0969  0.7785 -0.2093
  149MOL0     C19569   2.386   7.486   9.466  0.7658 -0.4294  0.1721
  149MOL0     C19570   2.256   7.535   9.464  0.0126  0.0581  1.1088
  149MOL0     O19571   2.165   7.454   9.531  0.2336  0.1536 -0.0590
  149MOL0     C19572   2.066   7.530   9.604  0.6548 -0.4060  0.2610
  149MOL0     C19573   2.005   7.444   9.718  0.4127 -0.1594  0.4526
  149MOL0     C19574   2.119   7.419   9.817  0.2907 -1.3820 -0.5101
  149MOL0     C19575   2.144   7.531   9.925 -1.7656  0.0421 -0.8652
  149MOL0     C19576   2.264   7.522  10.021  0.1680 -0.5691  0.2591
  149MOL0     C19577   2.398   7.494   9.944 -0.8272 -0.1792 -0.7048
  149MOL0     C19578   2.523   7.526  10.030  0.0114  0.4768  0.0574
  149MOL0     C19579   2.651   7.477   9.957 -0.1720  0.7205 -0.0755
  149MOL0    Cl19580   2.799   7.572   9.995  0.2966 -0.1026  0.1936
  149MOL0     C19581   2.222   7.653   9.385 -0.1795  0.8099  0.5463
  149MOL0     C19582   2.323   7.717   9.306  0.0188 -0.9941 -0.3926
  149MOL0     O19583   2.642   7.546   9.147 -0.4165  0.1700  0.2923
  149MOL0     C19584   2.852   7.685   9.022 -0.9345  0.4398 -0.0593
  149MOL0     C19585   2.968   7.751   8.970 -0.0655 -0.1706 -1.2090
  149MOL0     N19586   3.464   7.673   8.704  0.6463  0.0866 -0.8011
  149MOL0     N19587   3.577   7.606   8.709 -0.1389 -0.4508  0.5995
  149MOL0     C19588   4.713   8.080   9.142  0.7339 -0.1264 -0.7777
  149MOL0     C19589   4.721   8.221   9.128  0.2405  0.2198 -0.5327
  149MOL0     C19590   4.703   8.618   8.911 -0.2106  1.0082  1.0195
  149MOL0     C19591   4.614   8.718   8.962  0.0373  0.5470  0.7484
  149MOL0     C19592   4.640   8.851   8.930 -0.3072 -0.6033 -0.0242
  149MOL0     C19593   4.759   8.897   8.873 -0.2580  0.5012 -0.0141
  149MOL0     O19594   4.772   9.027   8.837 -0.3850 -0.5600  0.2430
  149MOL0     C19595   4.900   9.086   8.819  0.4925 -0.7108  0.0133
  149MOL0     C19596   4.900   9.220   8.733  0.3595 -0.0299 -0.0735
  149MOL0     C19597   4.908   9.191   8.584  0.2430  0.5667  0.4494
  149MOL0     C19598   4.906   9.300   8.491  0.6884  0.3200 -0.0076
  149MOL0     C19599   4.901   9.265   8.354 -0.1135  0.1336 -0.5250
  149MOL0     C19600   4.913   9.238   8.236 -0.2784 -0.2734 -0.2764
  149MOL0     C19601   4.843   8.793   8.827 -0.2875 -0.1153 -0.1278
  149MOL0     C19602   4.814   8.656   8.843  0.5853 -0.2468  1.0530
  149MOL0     H19603   4.416   8.264   8.958 -0.5411  0.7032 -0.2266
  149MOL0     H19604   4.419   8.021   9.011 -0.4209 -0.2907  1.2627
  149MOL0     H19605   4.589   7.714   8.982 -1.7437 -1.2125 -1.1139
  149MOL0     H19606   4.518   7.856   8.936  3.0211 -0.9598 -2.2289
  149MOL0     H19607   4.322   7.830   9.078 -2.8289 -2.4305 -0.8044
  149MOL0     H19608   4.413   7.724   9.183 -1.4338  1.7845  0.7827
  149MOL0     H19609   4.244   7.597   9.047 -1.9415  2.5578 -1.0413
  149MOL0     H19610   4.409   7.564   8.980  3.3961  3.5901  0.4327
  149MOL0     H19611   4.340   7.735   8.796 -1.2344 -1.2701 -1.6243
  149MOL0     H19612   4.250   7.597   8.787 -1.1128  1.3791 -0.5478
  149MOL0     H19613   4.141   7.817   8.773 -1.2621 -0.6461 -0.7937
  149MOL0     H19614   4.130   7.821   8.952  0.2654  0.0119 -1.2491
  149MOL0     H19615   4.028   7.598   8.937  0.8930 -0.7547  0.4473
  149MOL0     H19616   4.043   7.592   8.761 -0.2921 -2.5481  1.6518
  149MOL0     H19617   3.866   7.768   8.937  3.8571  3.0816 -0.8751
  149MOL0     H19618   3.870   7.771   8.750  1.5209 -1.9587 -2.3552
  149MOL0     H19619   3.781   7.551   8.947 -0.9770  4.3390  2.5810
  149MOL0     H19620   3.800   7.522   8.771 -2.5729 -2.3703  1.2673
  149MOL0     H19621   3.609   7.819   8.954  1.2019 -1.2147  0.7382
  149MOL0     H19622   3.241   7.819   8.845 -1.0635  1.0680 -0.4883
  149MOL0     H19623   3.336   7.928   8.756  2.0612 -1.3901 -0.5201
  149MOL0     H19624   3.478   7.997   8.959 -0.3386 -1.3918  0.7224
  149MOL0     H19625   3.388   7.872   9.051 -2.2878 -0.7722  1.3812
  149MOL0     H19626   3.319   8.110   9.091  0.0382 -1.7319  1.7054
  149MOL0     H19627   3.298   8.119   8.910  0.0892  0.4003  1.1798
  149MOL0     H19628   3.096   8.128   9.023 -3.2510 -1.2407  0.2342
  149MOL0     H19629   3.142   7.984   9.124 -0.5122  1.3511  0.2176
  149MOL0     H19630   2.868   8.068   9.049 -2.1387  0.5184  3.1810
  149MOL0     H19631   2.689   7.937   9.150  1.5153  2.9765 -0.7788
  149MOL0     H19632   2.583   7.514   9.383 -0.1445  0.7535 -0.7535
  149MOL0     H19633   2.401   7.392   9.518 -2.2436 -1.7103 -1.0654
  149MOL0     H19634   1.987   7.564   9.535  0.0170  1.6823  1.9074
  149MOL0     H19635   2.109   7.615   9.657  2.6948  1.0547 -3.3459
  149MOL0     H19636   1.971   7.347   9.682 -0.8473 -0.2161  1.7267
  149MOL0     H19637   1.914   7.491   9.757  0.5780 -0.5537  1.3422
  149MOL0     H19638   2.211   7.393   9.764  1.0919 -2.4171  1.2743
  149MOL0     H19639   2.087   7.334   9.877 -0.3941 -1.3535 -0.8355
  149MOL0     H19640   2.162   7.624   9.870  0.0715  0.4678  0.3579
  149MOL0     H19641   2.052   7.533   9.984 -1.5508 -1.9554 -0.3985
  149MOL0     H19642   2.241   7.440  10.091  0.5831 -0.6530  0.3007
  149MOL0     H19643   2.272   7.618  10.072 -2.2254  0.6999 -1.5963
  149MOL0     H19644   2.393   7.549   9.850 -1.1419  3.1800  1.1439
  149MOL0     H19645   2.388   7.390   9.912 -1.3134  0.1078 -1.5070
  149MOL0     H19646   2.536   7.635  10.035  0.6263  0.6350 -3.0667
  149MOL0     H19647   2.528   7.461  10.118  0.7206 -2.5794 -2.0847
  149MOL0     H19648   2.634   7.479   9.849 -0.0655 -5.1410 -0.5318
  149MOL0     H19649   2.672   7.372   9.984 -0.9154 -0.1470 -2.6315
  149MOL0     H19650   2.123   7.694   9.401  0.4624  2.6037  0.0827
  149MOL0     H19651   2.306   7.787   9.225  2.4253  2.1203  1.5956
  149MOL0     H19652   2.851   7.578   9.004 -2.3226  0.2950  0.7205
  149MOL0     H19653   3.049   7.704   8.916  1.6084 -1.5993  2.2320
  149MOL0     H19654   4.795   8.029   9.190 -0.5345 -1.7925 -0.2663
  149MOL0     H19655   4.811   8.278   9.151  0.5853 -0.5173  0.0088
  149MOL0     H19656   4.530   8.694   9.027  1.4116  0.6617  2.6201
  149MOL0     H19657   4.574   8.934   8.952  1.0400  0.6101 -0.3985
  149MOL0     H19658   4.972   9.017   8.773  0.1157 -2.7744  2.3306
  149MOL0     H19659   4.920   9.110   8.923  2.2959 -1.3478 -0.1493
  149MOL0     H19660   4.806   9.274   8.754 -0.3854 -0.9845 -0.8786
  149MOL0     H19661   4.992   9.274   8.757  0.5896  1.0035 -2.8601
  149MOL0     H19662   4.819   9.129   8.570  0.9827 -1.1940  2.9202
  149MOL0     H19663   4.988   9.118   8.569  0.3276  0.2621  2.1837
  149MOL0     H19664   4.806   9.340   8.510  0.6436 -0.5060  1.6561
  149MOL0     H19665   4.984   9.372   8.515 -0.2966  1.8994 -1.3143
  149MOL0     H19666   4.933   9.211   8.134 -1.5917 -2.0314 -0.1092
  149MOL0     H19667   4.936   8.827   8.782 -0.5027  0.9380  0.1921
  149MOL0     H19668   4.884   8.586   8.799  0.0143 -0.6206  0.7349
  150MOL0     O19669   3.125   0.964   5.871  0.7197  0.2797  0.1142
  150MOL0     C19670   3.221   0.986   5.805  0.0757 -0.3686 -0.6334
  150MOL0     O19671   3.312   0.885   5.757 -0.0797 -0.3122 -0.2685
  150MOL0     C19672   3.280   0.752   5.783 -1.0037 -0.9204  1.7059
  150MOL0     C19673   3.394   0.678   5.809 -0.8705  0.4314  0.3459
  150MOL0     C19674   3.382   0.541   5.832  0.4099  0.3905  0.6673
  150MOL0     C19675   3.255   0.482   5.825 -0.2012  0.5736 -0.0869
  150MOL0     O19676   3.235   0.347   5.854 -0.1901 -0.7038  0.5180
  150MOL0     C19677   3.124   0.299   5.928  0.5336 -0.1171  0.2990
  150MOL0     C19678   3.012   0.231   5.846 -0.5443 -0.5269  0.7752
  150MOL0     C19679   3.057   0.173   5.716 -0.2128 -0.4722  0.3081
  150MOL0     C19680   2.964   0.066   5.655  0.6075  0.4024 -0.3280
  150MOL0     C19681   2.969   0.061   5.499  0.5098  0.1840 -0.3138
  150MOL0     C19682   2.869  -0.026   5.447  0.3246 -0.2908  0.2901
  150MOL0     C19683   2.719   0.011   5.462  0.5501  0.0536  0.4888
  150MOL0     C19684   2.631  -0.082   5.369 -0.4687  0.2113  0.7656
  150MOL0     N19685   2.493  -0.098   5.419 -0.3098 -0.2486 -0.9008
  150MOL0     C19686   2.389  -0.137   5.342  0.0849 -0.0082 -0.2208
  150MOL0     C19687   2.283  -0.136   5.426 -0.3665  0.2799  0.8053
  150MOL0     C19688   2.151  -0.204   5.389 -0.3884 -0.1272 -0.7924
  150MOL0     C19689   2.037  -0.121   5.337  0.0259 -0.1626  0.8725
  150MOL0     C19690   2.006  -0.013   5.436 -0.2368 -0.5634 -0.3572
  150MOL0     C19691   1.885   0.073   5.387  0.0854  0.0805  0.9208
  150MOL0     O19692   1.749   0.018   5.384 -0.6673 -0.7824  0.3931
  150MOL0     C19693   1.646   0.112   5.366  0.8306  0.3585 -0.3766
  150MOL0     C19694   1.653   0.252   5.337  0.2119  0.9954  0.1940
  150MOL0     C19695   1.543   0.328   5.336  0.2368  0.4552 -0.3340
  150MOL0     C19696   1.413   0.280   5.369  0.5578 -0.1374 -0.0331
  150MOL0     C19697   1.295   0.370   5.348 -0.3524 -0.0020  0.2158
  150MOL0     O19698   1.175   0.306   5.357 -0.0932 -0.4374 -0.1196
  150MOL0     C19699   1.067   0.393   5.367 -0.3342  0.1513  0.2174
  150MOL0     C19700   0.994   0.428   5.255 -0.9277 -0.0853  0.6669
  150MOL0     C19701   0.890   0.515   5.265  0.0356  0.8874  0.3181
  150MOL0     C19702   0.843   0.565   5.387  0.7000 -0.1224  0.1251
  150MOL0     O19703   0.737   0.650   5.406 -0.3858 -0.2141 -0.3443
  150MOL0     C19704   0.717   0.744   5.309 -0.0706 -1.0073 -0.6561
  150MOL0     C19705   0.578   0.813   5.335  0.3205  0.5135 -0.7622
  150MOL0     C19706   0.528   0.903   5.218  0.1309 -0.2105 -0.9462
  150MOL0     C19707   0.494   1.036   5.280  0.0628 -0.1513  0.5453
  150MOL0     C19708   0.446   1.119   5.163  0.3022  0.0243  0.3207
  150MOL0     C19709   0.388   1.260   5.198  0.0496 -1.1947  0.0163
  150MOL0     C19710   0.265   1.289   5.111  0.3490 -0.4498  0.6656
  150MOL0     C19711   0.304   1.288   4.968 -0.8132 -0.4252 -0.2336
  150MOL0    Cl19712   0.379   1.451   4.934 -0.2350 -0.5131  0.1226
  150MOL0     C19713   0.914   0.516   5.496  0.7436 -0.4861 -0.2013
  150MOL0     C19714   1.021   0.428   5.494 -0.4186 -0.1334  0.1435
  150MOL0     O19715   1.313   0.484   5.325 -0.2666 -0.5778  0.2966
  150MOL0     C19716   1.399   0.140   5.390 -0.4770  0.1964 -0.3062
  150MOL0     C19717   1.517   0.058   5.379 -0.1855  0.0463  1.2224
  150MOL0     N19718   2.318  -0.094   5.551  0.9468  1.0064  0.5790
  150MOL0     N19719   2.442  -0.081   5.545  0.8504 -0.8467  0.6799
  150MOL0     C19720   3.143   0.550   5.784 -1.0561  0.0700  1.0144
  150MOL0     C19721   3.157   0.691   5.766 -0.2594  0.2927 -0.1366
  150MOL0     C19722   3.235   1.121   5.752 -0.7880 -0.9025 -0.3772
  150MOL0     C19723   3.294   1.130   5.620 -0.2614  0.4236 -0.3361
  150MOL0     C19724   3.310   1.257   5.570 -0.0108  0.5462  0.1776
  150MOL0     C19725   3.258   1.366   5.642  0.4471  0.2832  0.4240
  150MOL0     O19726   3.247   1.495   5.586 -0.2057 -0.5836  0.5040
  150MOL0     C19727   3.329   1.541   5.477  0.8644 -0.5055 -0.2771
  150MOL0     C19728   3.332   1.693   5.480 -0.4532 -0.6321  0.0822
  150MOL0     C19729   3.465   1.750   5.411 -0.4439  0.7660 -0.5806
  150MOL0     C19730   3.589   1.768   5.498 -0.3703  0.0939 -0.1389
  150MOL0     C19731   3.561   1.842   5.617  0.0953 -0.6051  0.1137
  150MOL0     C19732   3.538   1.905   5.710 -0.2546 -0.2544 -0.7108
  150MOL0     C19733   3.204   1.356   5.776  0.6683  0.4899 -0.1821
  150MOL0     C19734   3.194   1.223   5.831 -0.1994  0.1653  0.6902
  150MOL0     H19735   3.490   0.730   5.806  0.7351 -2.2566  1.1104
  150MOL0     H19736   3.469   0.482   5.861  1.4916  1.0066 -1.1774
  150MOL0     H19737   3.087   0.383   5.989 -0.7512 -0.7490  0.4228
  150MOL0     H19738   3.160   0.224   5.999 -0.1587 -1.0908 -0.3523
  150MOL0     H19739   2.938   0.307   5.817  0.9934  1.4454  1.7339
  150MOL0     H19740   2.949   0.162   5.902 -3.8737  1.4127 -0.2850
  150MOL0     H19741   3.154   0.125   5.738 -0.0813  0.4719  2.0113
  150MOL0     H19742   3.076   0.243   5.635  1.2420 -3.2518 -1.9452
  150MOL0     H19743   2.994  -0.031   5.695  0.7870  1.5212  2.4601
  150MOL0     H19744   2.865   0.077   5.701  0.5724 -3.3107  0.8159
  150MOL0     H19745   3.072   0.037   5.471  0.8125  0.8822  0.1739
  150MOL0     H19746   2.962   0.161   5.457  1.5864 -0.1599 -1.3639
  150MOL0     H19747   2.883  -0.125   5.491 -1.8896 -0.2826  1.1470
  150MOL0     H19748   2.885  -0.031   5.339  2.3225 -0.9213  0.5718
  150MOL0     H19749   2.681   0.000   5.564 -1.4094  0.8953 -0.1034
  150MOL0     H19750   2.701   0.118   5.449 -1.1747  0.0123  2.1987
  150MOL0     H19751   2.676  -0.181   5.372  1.2844  0.9861  2.6287
  150MOL0     H19752   2.638  -0.043   5.267 -1.7918  0.2387  0.6618
  150MOL0     H19753   2.392  -0.171   5.239  1.0057  1.2582 -0.6414
  150MOL0     H19754   2.104  -0.249   5.478  0.1392  0.7090 -0.0722
  150MOL0     H19755   2.160  -0.285   5.316  1.4159 -2.2770  1.6229
  150MOL0     H19756   1.947  -0.182   5.327  1.2314 -1.7431 -1.1801
  150MOL0     H19757   2.058  -0.080   5.237  2.6307 -2.0221  0.5384
  150MOL0     H19758   1.974  -0.039   5.538 -0.8345 -0.0392 -0.4060
  150MOL0     H19759   2.094   0.052   5.446 -0.3157 -0.5649  0.4214
  150MOL0     H19760   1.898   0.118   5.288  0.8646  1.9000  1.8143
  150MOL0     H19761   1.878   0.152   5.462 -1.6200 -0.9554  1.9207
  150MOL0     H19762   1.755   0.286   5.323  1.0224 -1.4394 -0.3945
  150MOL0     H19763   1.565   0.432   5.313  2.0203  0.0616 -0.5613
  150MOL0     H19764   1.025   0.393   5.157  0.4172 -1.3625  1.4961
  150MOL0     H19765   0.864   0.548   5.165 -0.1696 -1.2721 -0.3940
  150MOL0     H19766   0.713   0.702   5.208 -1.8538  0.6542 -1.3479
  150MOL0     H19767   0.796   0.819   5.307  0.3289 -1.4442 -1.4518
  150MOL0     H19768   0.599   0.872   5.424  2.7172  0.1881 -1.0642
  150MOL0     H19769   0.507   0.736   5.366  0.7685  0.3481 -0.1371
  150MOL0     H19770   0.435   0.855   5.186 -0.2216 -0.3121  0.1913
  150MOL0     H19771   0.595   0.893   5.132 -1.8487 -0.1276 -2.5874
  150MOL0     H19772   0.419   1.029   5.360  1.3402 -1.4160  1.6710
  150MOL0     H19773   0.589   1.074   5.317  1.0682 -0.1447 -1.8571
  150MOL0     H19774   0.371   1.058   5.113 -0.4374 -2.0460  3.6604
  150MOL0     H19775   0.533   1.132   5.098 -0.1601 -1.1632 -0.5550
  150MOL0     H19776   0.463   1.337   5.176  1.1927 -2.1362  0.5126
  150MOL0     H19777   0.364   1.267   5.304  0.3112  0.2012 -0.0016
  150MOL0     H19778   0.197   1.209   5.140 -1.7878  1.3852  1.0469
  150MOL0     H19779   0.214   1.381   5.142 -0.6320 -1.1083  1.0626
  150MOL0     H19780   0.216   1.290   4.903  0.9625  1.6209 -2.7806
  150MOL0     H19781   0.372   1.208   4.938  1.1143  0.0840  2.4021
  150MOL0     H19782   0.867   0.547   5.588  4.9254  2.5884  1.2218
  150MOL0     H19783   1.066   0.387   5.584  1.9968  1.1682 -0.3813
  150MOL0     H19784   1.309   0.088   5.418  2.2198 -2.3738  5.0470
  150MOL0     H19785   1.497  -0.049   5.380 -0.4049  0.0024 -0.9919
  150MOL0     H19786   3.050   0.500   5.762 -1.1617  1.2086 -1.4267
  150MOL0     H19787   3.064   0.741   5.739 -0.6996  0.7417  2.0724
  150MOL0     H19788   3.324   1.045   5.560  0.9527  0.8887 -0.4267
  150MOL0     H19789   3.356   1.278   5.473  0.2800  0.0200  0.1990
  150MOL0     H19790   3.294   1.504   5.380 -1.5966 -0.2569  0.4498
  150MOL0     H19791   3.430   1.502   5.490 -0.1358 -2.5287  2.5086
  150MOL0     H19792   3.239   1.728   5.436  2.2249  2.5404 -3.6625
  150MOL0     H19793   3.334   1.731   5.583  3.1232  0.3363 -0.2218
  150MOL0     H19794   3.433   1.847   5.373 -2.4462  1.0732  1.6174
  150MOL0     H19795   3.485   1.687   5.324  1.3748 -0.9776  0.9935
  150MOL0     H19796   3.611   1.666   5.532 -1.6840  0.1438  0.9490
  150MOL0     H19797   3.673   1.799   5.435 -1.3834 -0.9459 -2.0941
  150MOL0     H19798   3.525   1.969   5.795 -1.0625  0.4666 -1.3555
  150MOL0     H19799   3.156   1.441   5.824  1.9651  0.5240  1.1273
  150MOL0     H19800   3.161   1.207   5.933  0.1172  1.4223  1.0137
  151MOL0     O19801  10.024   5.842   0.979 -0.3733 -0.8072 -0.8923
  151MOL0     C19802  10.097   5.854   1.077 -0.1417 -0.0709  0.1908
  151MOL0     O19803  10.090   5.952   1.178  0.9075 -0.0463  0.0493
  151MOL0     C19804  10.008   6.054   1.161  0.2231  0.1099  0.6145
  151MOL0     C19805  10.062   6.188   1.150 -0.5709 -0.0985 -0.5414
  151MOL0     C19806   9.987   6.301   1.125  0.2127 -0.1446  0.4628
  151MOL0     C19807   9.861   6.277   1.071 -0.6168 -0.0942 -0.4164
  151MOL0     O19808   9.791   6.382   1.022  0.6231 -1.6845 -0.7055
  151MOL0     C19809   9.720   6.373   0.897 -1.6094  1.6911  0.3205
  151MOL0     C19810   9.680   6.514   0.847 -0.2048  0.8418  0.0226
  151MOL0     C19811   9.575   6.597   0.922 -0.5203  0.6195 -0.3317
  151MOL0     C19812   9.553   6.736   0.852  0.5382  0.4452  0.1460
  151MOL0     C19813   9.472   6.838   0.934 -0.0672  0.8504 -0.3528
  151MOL0     C19814   9.478   6.979   0.876  0.2026 -0.7674 -0.2186
  151MOL0     C19815   9.394   7.079   0.962 -0.6737  0.2709  0.6543
  151MOL0     C19816   9.472   7.140   1.079  0.1667  0.0229  0.5646
  151MOL0     N19817   9.373   7.199   1.168 -0.7175  0.4536  1.4405
  151MOL0     C19818   9.310   7.140   1.270 -0.2612 -0.2425 -0.2851
  151MOL0     C19819   9.249   7.236   1.341 -0.1223 -0.2478 -0.4876
  151MOL0     C19820   9.180   7.212   1.468  0.8075 -0.1553  0.2582
  151MOL0     C19821   9.037   7.273   1.449 -0.0197  1.0274 -0.4600
  151MOL0     C19822   8.953   7.247   1.571 -0.0888  0.6309  0.5770
  151MOL0     C19823   8.831   7.330   1.568  0.3738  0.4165  0.5306
  151MOL0     O19824   8.730   7.290   1.670 -0.3359 -0.4701 -0.7379
  151MOL0     C19825   8.713   7.368   1.782  1.0374 -0.5379  0.0899
  151MOL0     C19826   8.614   7.317   1.873 -0.8675 -0.1336 -0.1177
  151MOL0     C19827   8.599   7.371   2.008  0.7070 -0.0205 -0.3630
  151MOL0     C19828   8.667   7.492   2.042  0.1480 -0.4891 -0.3530
  151MOL0     C19829   8.648   7.559   2.175  0.2225 -0.4830 -0.2034
  151MOL0     O19830   8.542   7.508   2.249 -0.0752 -0.4150 -0.6809
  151MOL0     C19831   8.508   7.536   2.377 -0.7742 -0.5005 -0.4062
  151MOL0     C19832   8.440   7.442   2.455 -0.1333 -0.0757 -0.1465
  151MOL0     C19833   8.398   7.455   2.584 -0.8281  0.1787  0.0130
  151MOL0     C19834   8.428   7.575   2.647 -0.0954 -0.5186 -0.1590
  151MOL0     O19835   8.391   7.578   2.787 -0.4385 -0.4820  0.1019
  151MOL0     C19836   8.495   7.638   2.879  0.6273 -0.8932 -0.2431
  151MOL0     C19837   8.533   7.526   2.960 -1.1053  0.7469  0.3263
  151MOL0     C19838   8.615   7.569   3.092  0.8614 -0.5270  0.0132
  151MOL0     C19839   8.750   7.640   3.069 -0.1887  0.2419 -0.6114
  151MOL0     C19840   8.835   7.643   3.187  0.1180  0.2059 -0.4418
  151MOL0     C19841   8.949   7.536   3.194  0.0902 -0.2618  0.2202
  151MOL0     C19842   9.043   7.563   3.307 -0.5058  0.0698  0.1765
  151MOL0     C19843   9.141   7.446   3.326  0.2207 -0.5922  0.8569
  151MOL0    Cl19844   9.265   7.457   3.202  0.2159  0.2926  0.4114
  151MOL0     C19845   8.499   7.674   2.576  0.6679  0.0099 -0.2056
  151MOL0     C19846   8.532   7.659   2.440  0.2107 -0.0939  0.4688
  151MOL0     O19847   8.720   7.652   2.209 -0.2680  0.4194  0.5407
  151MOL0     C19848   8.752   7.541   1.944  0.2057 -0.1613  0.4734
  151MOL0     C19849   8.769   7.492   1.816 -1.0946 -1.1637 -0.8271
  151MOL0     N19850   9.269   7.351   1.266 -0.2082 -0.2010  0.8711
  151MOL0     N19851   9.340   7.330   1.167 -0.8053  0.6562  0.8000
  151MOL0     C19852   9.797   6.152   1.082  0.7925  1.0455 -1.1127
  151MOL0     C19853   9.866   6.043   1.140  0.4368 -0.5347  0.0871
  151MOL0     C19854  10.205   5.752   1.093 -0.2459 -2.1740  0.4164
  151MOL0     C19855  10.251   5.713   1.215  0.0487 -0.0614 -0.0465
  151MOL0     C19856  10.353   5.616   1.234 -0.5400 -0.7522  0.4055
  151MOL0     C19857  10.418   5.565   1.119 -0.3833  0.3123 -0.2378
  151MOL0     O19858  10.511   5.468   1.146  0.4109  0.3396  0.1610
  151MOL0     C19859  10.585   5.422   1.033 -0.2028  0.4014  0.6121
  151MOL0     C19860  10.691   5.318   1.078 -0.4734 -0.9538 -0.0038
  151MOL0     C19861  10.800   5.311   0.965 -0.5813  0.6920 -0.2676
  151MOL0     C19862  10.929   5.236   1.011 -0.0406  0.8024  1.4073
  151MOL0     C19863  10.915   5.085   1.011 -1.5998  0.1748 -0.4127
  151MOL0     C19864  10.901   4.961   0.988  0.1320  0.3686 -0.5667
  151MOL0     C19865  10.379   5.617   0.993  0.0210  0.4977  1.5399
  151MOL0     C19866  10.275   5.709   0.975  0.3787 -0.2811 -0.7336
  151MOL0     H19867  10.170   6.196   1.156 -0.7782  3.7630  0.8226
  151MOL0     H19868  10.011   6.407   1.122 -0.0157 -0.0831 -3.2509
  151MOL0     H19869   9.633   6.307   0.902  0.4006 -1.1413  0.1646
  151MOL0     H19870   9.792   6.329   0.828 -4.8019  0.5246 -2.5026
  151MOL0     H19871   9.648   6.498   0.743 -1.1441 -2.8828  0.7388
  151MOL0     H19872   9.773   6.571   0.837 -0.1654  0.8093  0.2113
  151MOL0     H19873   9.603   6.619   1.025  0.5813 -1.4317 -0.1576
  151MOL0     H19874   9.480   6.543   0.927  0.8301 -2.6146 -4.1922
  151MOL0     H19875   9.651   6.782   0.834 -1.1039  3.7327 -1.2691
  151MOL0     H19876   9.506   6.723   0.753 -1.7413  0.7099  1.1301
  151MOL0     H19877   9.505   6.832   1.038  2.5858 -1.4420 -1.2078
  151MOL0     H19878   9.370   6.798   0.940  1.2012 -2.5528  1.6607
  151MOL0     H19879   9.432   6.972   0.778  0.6905 -1.9471 -0.3817
  151MOL0     H19880   9.581   7.015   0.867  0.6690 -2.2392 -1.0613
  151MOL0     H19881   9.339   7.156   0.907 -1.3583 -0.8505 -0.2704
  151MOL0     H19882   9.319   7.010   1.002 -1.9870  0.4485 -1.3881
  151MOL0     H19883   9.549   7.209   1.042  0.4719  0.9057  2.6668
  151MOL0     H19884   9.516   7.054   1.130  1.2704 -0.4938 -1.1603
  151MOL0     H19885   9.296   7.032   1.273 -1.1829 -0.1397 -0.6464
  151MOL0     H19886   9.230   7.265   1.549 -0.3221  0.4883  0.5647
  151MOL0     H19887   9.192   7.106   1.492 -0.4255 -0.8056 -1.7459
  151MOL0     H19888   8.992   7.213   1.370  1.0184  1.3809 -1.3495
  151MOL0     H19889   9.047   7.377   1.418  0.4717  0.6014 -1.8111
  151MOL0     H19890   8.905   7.149   1.573 -0.7468  0.9458  2.7510
  151MOL0     H19891   8.997   7.269   1.668 -0.9178 -0.1390  1.1484
  151MOL0     H19892   8.785   7.326   1.469 -4.4956 -0.9145  2.5567
  151MOL0     H19893   8.870   7.430   1.584 -0.2103  0.6724  0.3728
  151MOL0     H19894   8.566   7.223   1.848 -1.2885  0.3077 -1.0233
  151MOL0     H19895   8.531   7.314   2.071  0.3997  0.3071 -0.3983
  151MOL0     H19896   8.396   7.366   2.391 -0.4739  1.0135 -1.2380
  151MOL0     H19897   8.338   7.376   2.630  0.9432  0.0980  2.3937
  151MOL0     H19898   8.457   7.716   2.945 -0.6958 -1.0949 -0.7390
  151MOL0     H19899   8.583   7.682   2.832  0.7004  0.0410  0.7114
  151MOL0     H19900   8.604   7.457   2.912 -1.6261  0.4493 -0.0313
  151MOL0     H19901   8.451   7.457   2.985  0.2373 -1.4133 -0.9013
  151MOL0     H19902   8.648   7.474   3.137 -0.7422 -1.0968  0.0328
  151MOL0     H19903   8.546   7.616   3.162 -0.3250 -0.0312 -1.4432
  151MOL0     H19904   8.798   7.585   2.987  1.4457  3.7022 -2.1917
  151MOL0     H19905   8.745   7.743   3.033  3.4583  1.6567  2.3226
  151MOL0     H19906   8.774   7.616   3.274 -0.7792 -0.4232 -1.2496
  151MOL0     H19907   8.902   7.729   3.199  1.3936 -1.0356  2.2144
  151MOL0     H19908   8.990   7.522   3.093 -0.0054 -0.6022  0.2247
  151MOL0     H19909   8.899   7.439   3.203 -2.3291  0.5670 -2.9008
  151MOL0     H19910   9.102   7.650   3.275 -2.0817  0.6022 -1.4253
  151MOL0     H19911   8.986   7.591   3.396 -0.6426  0.4290 -0.0228
  151MOL0     H19912   9.094   7.348   3.314  1.7358 -1.1987 -0.5860
  151MOL0     H19913   9.194   7.453   3.421  0.2181  0.9467  0.7738
  151MOL0     H19914   8.545   7.760   2.623 -1.8615  0.7426  1.1383
  151MOL0     H19915   8.581   7.743   2.392 -1.5689  0.8928  0.2946
  151MOL0     H19916   8.814   7.620   1.985  3.9528 -3.1032  1.0047
  151MOL0     H19917   8.842   7.545   1.755  0.9542 -2.2858  0.5348
  151MOL0     H19918   9.704   6.127   1.033  1.0739 -1.5565 -0.4506
  151MOL0     H19919   9.809   5.952   1.149 -0.6329 -0.0233 -1.1659
  151MOL0     H19920  10.223   5.767   1.305 -0.4260 -1.0017  0.3953
  151MOL0     H19921  10.390   5.593   1.333  1.3176  2.4635  0.6124
  151MOL0     H19922  10.629   5.503   0.975  0.6527 -0.8345 -0.5280
  151MOL0     H19923  10.523   5.379   0.954  0.9594  2.8629 -1.8018
  151MOL0     H19924  10.732   5.370   1.165 -1.9329 -2.4683  1.6905
  151MOL0     H19925  10.657   5.218   1.106  1.4937 -1.0835  2.2819
  151MOL0     H19926  10.820   5.411   0.927 -2.4983  0.9373 -0.7313
  151MOL0     H19927  10.743   5.245   0.899 -1.1384  0.5553  0.3312
  151MOL0     H19928  11.010   5.273   0.947  1.2532 -1.0486  1.8887
  151MOL0     H19929  10.959   5.274   1.109  1.7483 -1.9029  2.0089
  151MOL0     H19930  10.892   4.854   0.979  0.3802  0.1498  1.4055
  151MOL0     H19931  10.416   5.573   0.901  0.1166  3.9011 -0.2282
  151MOL0     H19932  10.247   5.738   0.874 -0.4986 -2.1910 -1.0935
  152MOL0     O19933   9.827  11.330   1.271  0.3114 -0.3765  0.3112
  152MOL0     C19934   9.766  11.325   1.159  0.5668  0.3460  0.2537
  152MOL0     O19935   9.819  11.358   1.035  0.1669  0.0225 -0.2991
  152MOL0     C19936   9.942  11.399   1.037 -0.4414 -0.5090 -0.3254
  152MOL0     C19937   9.967  11.539   1.015 -0.5907 -0.0431 -0.3273
  152MOL0     C19938  10.098  11.584   1.034 -0.2993  0.3934  0.1020
  152MOL0     C19939  10.205  11.502   1.064  0.0453 -0.4562 -1.4323
  152MOL0     O19940  10.332  11.548   1.082  0.3772  0.2375 -0.1976
  152MOL0     C19941  10.392  11.599   0.966 -0.4244 -0.7412  0.2741
  152MOL0     C19942  10.532  11.638   1.017 -0.2234  0.5316  0.8549
  152MOL0     C19943  10.619  11.680   0.894 -1.3902  0.0265  0.4150
  152MOL0     C19944  10.693  11.564   0.834 -0.6363 -0.2574  0.0883
  152MOL0     C19945  10.790  11.603   0.715  0.3044 -0.6883 -0.4179
  152MOL0     C19946  10.779  11.500   0.602  0.1704  0.0478  0.3362
  152MOL0     C19947  10.867  11.373   0.612  0.1808 -0.1030  0.1192
  152MOL0     C19948  10.819  11.269   0.507  0.4249 -0.9107 -0.7436
  152MOL0     N19949  10.844  11.308   0.365 -0.4045 -0.5042 -0.5874
  152MOL0     C19950  10.945  11.254   0.292  0.4308 -0.3894 -0.2768
  152MOL0     C19951  10.922  11.291   0.164 -0.9994  0.2845 -0.5424
  152MOL0     C19952  11.008  11.260   0.037 -0.0552  0.2756  0.1947
  152MOL0     C19953  10.982  11.114  -0.018 -1.2637  0.8425  0.1899
  152MOL0     C19954  10.864  11.097  -0.112 -0.2575 -0.4160 -0.5534
  152MOL0     C19955  10.858  10.957  -0.184  0.5360 -1.1426  0.3683
  152MOL0     O19956  10.744  10.944  -0.269  0.5165 -0.4802  0.8011
  152MOL0     C19957  10.740  10.822  -0.334 -0.0750 -0.0856 -0.1587
  152MOL0     C19958  10.626  10.805  -0.407  0.0472 -0.3183  0.1071
  152MOL0     C19959  10.591  10.713  -0.497 -0.2570  0.2931 -0.5335
  152MOL0     C19960  10.696  10.608  -0.523 -0.1216 -0.5674 -0.1985
  152MOL0     C19961  10.665  10.506  -0.620  0.2206 -0.2687 -1.3214
  152MOL0     O19962  10.734  10.391  -0.601  0.3540  0.2488 -0.9070
  152MOL0     C19963  10.690  10.277  -0.662  0.7958  0.5546 -0.1386
  152MOL0     C19964  10.784  10.199  -0.728 -0.2813  0.8417  0.7160
  152MOL0     C19965  10.759  10.075  -0.779 -0.3765 -0.5202  0.4770
  152MOL0     C19966  10.627  10.021  -0.757  0.2725 -0.1789  0.0344
  152MOL0     O19967  10.593   9.901  -0.805 -0.4724 -0.3166  0.6037
  152MOL0     C19968  10.549   9.894  -0.944  0.7340  0.1685 -0.6374
  152MOL0     C19969  10.547   9.736  -0.989 -0.3281 -0.4172 -0.4818
  152MOL0     C19970  10.474   9.656  -0.886  0.1691  0.5163 -0.0582
  152MOL0     C19971  10.477   9.509  -0.925  0.4310  0.7214 -0.2836
  152MOL0     C19972  10.349   9.417  -0.879 -0.9242 -1.7262  0.7206
  152MOL0     C19973  10.359   9.277  -0.943  0.9260  0.2328  0.4123
  152MOL0     C19974  10.481   9.193  -0.892 -0.0340  0.3647 -0.2481
  152MOL0     C19975  10.565   9.163  -1.005  0.6251 -0.2221 -0.3450
  152MOL0    Cl19976  10.499   9.038  -1.110 -0.5176  0.4530  0.0489
  152MOL0     C19977  10.530  10.105  -0.701 -0.3765  0.0972 -0.5442
  152MOL0     C19978  10.557  10.231  -0.647 -0.7990  0.5975  0.3760
  152MOL0     O19979  10.571  10.524  -0.703  0.2588  0.5263 -0.2111
  152MOL0     C19980  10.815  10.613  -0.450  0.3908 -0.7866 -0.4705
  152MOL0     C19981  10.831  10.719  -0.349 -0.2386  0.9177  0.5152
  152MOL0     N19982  10.812  11.369   0.159 -0.4134  0.0822  0.0342
  152MOL0     N19983  10.760  11.369   0.276 -0.6435  0.2177  0.1909
  152MOL0     C19984  10.176  11.371   1.093 -0.1738 -0.0082  0.7002
  152MOL0     C19985  10.046  11.324   1.075  0.4956  0.3409  0.0571
  152MOL0     C19986   9.623  11.276   1.164 -1.0281 -0.7632 -0.3750
  152MOL0     C19987   9.532  11.317   1.058  0.0259 -0.8359 -0.4720
  152MOL0     C19988   9.401  11.262   1.049 -0.4402  0.3645  0.6537
  152MOL0     C19989   9.358  11.175   1.152 -0.9528 -0.2825  0.1667
  152MOL0     O19990   9.227  11.126   1.152 -0.5611  0.0059  0.1805
  152MOL0     C19991   9.155  11.090   1.033 -0.2849  0.1242  0.2881
  152MOL0     C19992   9.017  11.038   1.085  0.5390 -0.0807  0.7947
  152MOL0     C19993   8.952  10.976   0.961  0.2750 -0.6066  0.0234
  152MOL0     C19994   8.813  10.929   0.999  0.3535  0.4916  0.0455
  152MOL0     C19995   8.725  11.042   1.020  0.3659  0.2404  0.2882
  152MOL0     C19996   8.644  11.130   1.048  0.7356 -0.4463  0.7829
  152MOL0     C19997   9.444  11.145   1.260 -0.2106  0.1653 -0.1960
  152MOL0     C19998   9.580  11.186   1.261  0.4262 -0.1506  0.2791
  152MOL0     H19999   9.891  11.613   0.993 -0.2353 -0.0191 -1.5404
  152MOL0     H20000  10.095  11.690   1.013  0.7577  0.0470 -2.0292
  152MOL0     H20001  10.338  11.691   0.941  0.1905 -0.5704 -0.4403
  152MOL0     H20002  10.398  11.525   0.886  1.2910  0.1038 -0.4252
  152MOL0     H20003  10.574  11.549   1.065 -1.6297 -0.4105  0.3782
  152MOL0     H20004  10.514  11.721   1.085 -1.1442  2.3156 -1.4230
  152MOL0     H20005  10.695  11.754   0.919 -0.2293 -0.3692 -1.7169
  152MOL0     H20006  10.553  11.722   0.818  0.1328 -0.7636 -1.4298
  152MOL0     H20007  10.757  11.530   0.916 -0.6670  1.1225  0.7285
  152MOL0     H20008  10.618  11.491   0.804 -2.0222  1.8328 -1.9279
  152MOL0     H20009  10.888  11.622   0.759 -0.2148 -2.7125  1.8046
  152MOL0     H20010  10.755  11.700   0.680  3.4838  0.9440  0.5381
  152MOL0     H20011  10.812  11.556   0.514 -1.0429  1.7269  0.8933
  152MOL0     H20012  10.676  11.461   0.599  1.1114 -3.2196  3.4135
  152MOL0     H20013  10.971  11.392   0.584 -0.2721 -1.2095 -2.5458
  152MOL0     H20014  10.862  11.329   0.712  3.0111 -2.6573 -0.7155
  152MOL0     H20015  10.712  11.252   0.526  0.9925 -1.0162  3.2267
  152MOL0     H20016  10.875  11.181   0.539  0.0554 -0.6192  0.8319
  152MOL0     H20017  11.029  11.197   0.331  1.2319  0.1280 -1.1773
  152MOL0     H20018  11.114  11.260   0.064  0.6783  0.3699 -2.4011
  152MOL0     H20019  10.994  11.343  -0.033  2.2098  0.3731 -0.2139
  152MOL0     H20020  10.971  11.044   0.064 -1.4403 -1.4580 -1.6989
  152MOL0     H20021  11.072  11.092  -0.076 -2.0931  0.2903 -0.9344
  152MOL0     H20022  10.772  11.110  -0.055  1.7487  0.6007  2.7506
  152MOL0     H20023  10.860  11.168  -0.196 -3.0737 -1.2988 -1.2765
  152MOL0     H20024  10.862  10.870  -0.118  2.7328 -1.2945  0.1207
  152MOL0     H20025  10.946  10.950  -0.250 -1.6040 -1.4663 -2.6439
  152MOL0     H20026  10.559  10.890  -0.399 -1.2635 -1.4696  2.2923
  152MOL0     H20027  10.496  10.726  -0.547 -0.1522  0.7303 -0.6234
  152MOL0     H20028  10.884  10.240  -0.726 -0.4777  1.4959 -1.1198
  152MOL0     H20029  10.835  10.025  -0.838  1.2856  1.0134  1.2374
  152MOL0     H20030  10.621   9.953  -1.002 -0.3071  0.9724 -1.1381
  152MOL0     H20031  10.450   9.939  -0.955  1.0454  0.4304 -2.7998
  152MOL0     H20032  10.648   9.698  -1.008 -0.4136  0.2154 -2.3825
  152MOL0     H20033  10.507   9.737  -1.090  1.5175 -0.1384 -1.2638
  152MOL0     H20034  10.369   9.684  -0.874 -0.2136 -0.8336 -0.1716
  152MOL0     H20035  10.518   9.663  -0.786 -0.1990 -1.9699  0.3493
  152MOL0     H20036  10.480   9.497  -1.034 -3.2712  4.3749 -1.0700
  152MOL0     H20037  10.571   9.471  -0.885 -0.4750  1.1011  2.3775
  152MOL0     H20038  10.248   9.446  -0.910 -1.3103 -1.5589  2.0744
  152MOL0     H20039  10.351   9.406  -0.770  2.0201 -1.7858  0.7466
  152MOL0     H20040  10.357   9.300  -1.050  0.7309 -0.4716  0.2596
  152MOL0     H20041  10.276   9.214  -0.912  0.7150 -0.1652 -0.9012
  152MOL0     H20042  10.536   9.242  -0.811  2.1837 -1.3763 -0.5974
  152MOL0     H20043  10.438   9.096  -0.866 -0.9576  0.6817 -0.5519
  152MOL0     H20044  10.657   9.119  -0.964 -0.6647  0.4912  3.7181
  152MOL0     H20045  10.583   9.252  -1.067  1.7274  0.0419  0.3304
  152MOL0     H20046  10.429  10.065  -0.702  0.4524 -2.1112 -0.4973
  152MOL0     H20047  10.488  10.308  -0.614 -1.0616  0.0346  1.1571
  152MOL0     H20048  10.894  10.541  -0.471  0.2345 -1.9944  2.5872
  152MOL0     H20049  10.932  10.722  -0.311  0.9382 -2.5156 -1.7722
  152MOL0     H20050  10.263  11.307   1.104  0.1230  0.1348 -0.6091
  152MOL0     H20051  10.030  11.220   1.100 -0.9080  1.5679  5.6488
  152MOL0     H20052   9.563  11.382   0.977  0.6046 -0.7335 -0.1797
  152MOL0     H20053   9.324  11.294   0.979 -4.2749 -3.5418  2.5827
  152MOL0     H20054   9.213  11.019   0.972 -1.0605  3.2248 -4.6267
  152MOL0     H20055   9.145  11.178   0.969  1.1510  0.7304  0.8503
  152MOL0     H20056   9.042  10.970   1.167  0.7076 -2.1300 -0.8835
  152MOL0     H20057   8.947  11.116   1.117 -0.0424  0.0087 -0.6491
  152MOL0     H20058   9.008  10.888   0.926  1.9358  0.9184 -1.3420
  152MOL0     H20059   8.940  11.042   0.874  0.0511  1.3981  1.5179
  152MOL0     H20060   8.785  10.870   0.912  4.0321  2.1028 -2.4867
  152MOL0     H20061   8.820  10.867   1.089  1.5895 -0.9066 -0.9588
  152MOL0     H20062   8.563  11.197   1.069 -0.1300  1.1158 -5.4832
  152MOL0     H20063   9.411  11.079   1.339  0.4853 -2.3395 -1.8816
  152MOL0     H20064   9.656  11.158   1.334 -2.0492 -1.2963  2.5804
  153MOL0     O20065   9.899   9.464   0.574  0.0310 -0.4606 -0.6606
  153MOL0     C20066   9.824   9.367   0.559  0.0134 -0.4886  0.3034
  153MOL0     O20067   9.812   9.296   0.440  0.9411 -0.1515  0.6295
  153MOL0     C20068   9.902   9.328   0.339  0.3866 -0.5322 -0.5552
  153MOL0     C20069   9.892   9.442   0.261 -0.0645 -1.4051  0.6627
  153MOL0     C20070   9.982   9.470   0.159  0.7102  0.5412 -0.2309
  153MOL0     C20071  10.082   9.382   0.126 -0.3829  0.5064 -0.0361
  153MOL0     O20072  10.177   9.407   0.031  0.2899 -0.2035 -0.5275
  153MOL0     C20073  10.229   9.542   0.022  0.3902 -0.3969  0.7344
  153MOL0     C20074  10.348   9.537  -0.078 -0.3100 -0.1676 -0.0902
  153MOL0     C20075  10.357   9.652  -0.177 -0.2129 -0.5608 -0.2500
  153MOL0     C20076  10.468   9.637  -0.285  0.5899 -0.4208  0.0880
  153MOL0     C20077  10.408   9.682  -0.420 -0.8683 -0.6064 -0.7436
  153MOL0     C20078  10.376   9.825  -0.419  0.0919  0.1977 -0.2649
  153MOL0     C20079  10.293   9.869  -0.544 -0.0787 -0.8421 -0.6711
  153MOL0     C20080  10.149   9.817  -0.541  0.5520 -0.3849  0.4137
  153MOL0     N20081  10.078   9.878  -0.663 -0.1692 -0.3225 -0.0458
  153MOL0     C20082   9.967   9.820  -0.709  0.3829  0.5283  0.2464
  153MOL0     C20083   9.939   9.883  -0.832  0.0911  0.4811 -0.9089
  153MOL0     C20084   9.811   9.864  -0.910 -0.8158  0.8498 -1.1254
  153MOL0     C20085   9.837   9.880  -1.061  0.5414  0.9592 -0.4386
  153MOL0     C20086   9.723   9.811  -1.148  0.2336  0.2842  0.4029
  153MOL0     C20087   9.586   9.876  -1.131 -0.2516  0.2697 -0.4148
  153MOL0     O20088   9.532   9.854  -1.005 -0.2762 -0.1102 -0.5371
  153MOL0     C20089   9.399   9.890  -0.984 -0.3049 -0.4436  0.0199
  153MOL0     C20090   9.291   9.847  -1.058  0.4564  0.7850  0.2575
  153MOL0     C20091   9.153   9.885  -1.034  0.4691  0.5229  0.1497
  153MOL0     C20092   9.128   9.991  -0.947  0.2628 -0.1683 -0.6954
  153MOL0     C20093   8.986  10.047  -0.933  0.3108 -0.1444 -0.2685
  153MOL0     O20094   8.874   9.977  -0.981  0.2442 -0.0654  0.6677
  153MOL0     C20095   8.744  10.012  -0.955  0.3979 -0.1054 -0.6146
  153MOL0     C20096   8.668   9.888  -0.980 -0.1101 -0.5947 -0.5587
  153MOL0     C20097   8.527   9.896  -1.000  0.7274 -0.1879 -0.3310
  153MOL0     C20098   8.473  10.023  -0.971  0.6192  1.1866  0.5914
  153MOL0     O20099   8.336  10.052  -0.977 -0.0342 -0.9660  0.1198
  153MOL0     C20100   8.253   9.978  -0.879  0.3817  0.2064 -0.8007
  153MOL0     C20101   8.112  10.050  -0.864 -0.1088 -0.3328  0.4205
  153MOL0     C20102   8.026  10.000  -0.979  0.5940 -0.2358  0.1743
  153MOL0     C20103   7.882  10.049  -0.962 -0.5681 -0.2526 -0.3589
  153MOL0     C20104   7.785   9.967  -1.066 -1.2370 -0.3861  0.4847
  153MOL0     C20105   7.730   9.842  -1.008 -0.4171 -0.5792 -0.5259
  153MOL0     C20106   7.611   9.861  -0.905  1.1572  0.1859  0.8206
  153MOL0     C20107   7.472   9.846  -0.968  0.4123  0.1500 -0.4918
  153MOL0    Cl20108   7.439   9.672  -0.973 -0.2505  0.0185  0.5827
  153MOL0     C20109   8.544  10.139  -0.936 -1.2416 -0.0706  0.2138
  153MOL0     C20110   8.681  10.134  -0.928 -0.1960  1.3311 -0.3750
  153MOL0     O20111   8.978  10.146  -0.854 -0.1974 -0.0359  0.7174
  153MOL0     C20112   9.237  10.042  -0.873 -0.8673 -0.2302 -0.5897
  153MOL0     C20113   9.368   9.990  -0.889  0.4509  0.1196 -0.0148
  153MOL0     N20114  10.027   9.989  -0.841  0.5491  0.0170  0.4595
  153MOL0     N20115  10.113   9.979  -0.748  0.6524  0.6081 -0.0786
  153MOL0     C20116  10.087   9.255   0.198  0.5221 -0.7071  0.5456
  153MOL0     C20117   9.997   9.240   0.306 -0.5353  0.0500  0.1520
  153MOL0     C20118   9.743   9.324   0.676 -0.6931 -0.4324  0.0159
  153MOL0     C20119   9.611   9.266   0.659 -0.4817  0.7885 -0.4588
  153MOL0     C20120   9.525   9.260   0.767 -0.3798  0.3225 -0.6407
  153MOL0     C20121   9.568   9.287   0.898  0.1404  0.6579 -0.3883
  153MOL0     O20122   9.488   9.275   1.004 -0.5144  0.3223  0.1700
  153MOL0     C20123   9.350   9.235   0.997 -0.5678  0.1288  0.2035
  153MOL0     C20124   9.296   9.202   1.131 -1.4016  0.1790 -0.0907
  153MOL0     C20125   9.149   9.196   1.139  0.0298 -0.5743 -0.2056
  153MOL0     C20126   9.077   9.339   1.164 -0.7209 -0.4511  0.7035
  153MOL0     C20127   8.937   9.329   1.182  0.0335 -0.0185  0.0681
  153MOL0     C20128   8.821   9.309   1.183  0.2440 -0.6145 -0.8594
  153MOL0     C20129   9.699   9.338   0.918 -0.1953 -0.3001  0.2302
  153MOL0     C20130   9.786   9.357   0.806  0.1834  0.9840 -0.3826
  153MOL0     H20131   9.814   9.514   0.284 -1.1734 -1.6721 -1.9866
  153MOL0     H20132   9.954   9.558   0.101 -1.0745  0.8577  1.0415
  153MOL0     H20133  10.247   9.579   0.123 -2.5792 -2.2964  2.1400
  153MOL0     H20134  10.159   9.614  -0.021  0.8359  1.1790  2.5533
  153MOL0     H20135  10.347   9.442  -0.132 -0.2486 -1.2300  1.7034
  153MOL0     H20136  10.440   9.547  -0.021 -2.0179  0.6430  2.7572
  153MOL0     H20137  10.361   9.752  -0.132 -1.7738  0.5615 -2.3995
  153MOL0     H20138  10.259   9.667  -0.223 -0.5115 -2.0542 -0.1601
  153MOL0     H20139  10.555   9.698  -0.262  0.3110  0.0870 -0.1835
  153MOL0     H20140  10.512   9.539  -0.304  0.3424 -0.2846 -1.3174
  153MOL0     H20141  10.318   9.621  -0.437 -0.4620 -1.4569  0.0773
  153MOL0     H20142  10.475   9.653  -0.501  0.1400  1.0417 -0.5499
  153MOL0     H20143  10.474   9.871  -0.406  0.0138  0.2931 -0.0114
  153MOL0     H20144  10.315   9.851  -0.332 -0.3380  0.8249 -0.7459
  153MOL0     H20145  10.294   9.979  -0.549  2.6193 -0.7922 -0.7983
  153MOL0     H20146  10.345   9.830  -0.632  1.9917  0.1996  0.0225
  153MOL0     H20147  10.098   9.841  -0.448  1.1383  0.8474  0.4403
  153MOL0     H20148  10.137   9.709  -0.556 -0.6524 -0.2446  0.2667
  153MOL0     H20149   9.910   9.743  -0.658  0.9877 -0.5809 -0.6962
  153MOL0     H20150   9.732   9.927  -0.868  0.1102  1.5124 -0.3295
  153MOL0     H20151   9.772   9.763  -0.896  0.1511  0.5956 -0.1704
  153MOL0     H20152   9.935   9.837  -1.085  1.4735  2.0549  1.2456
  153MOL0     H20153   9.836   9.987  -1.084 -1.8446  1.2741  0.8025
  153MOL0     H20154   9.757   9.838  -1.248  3.2681  2.1684  1.8121
  153MOL0     H20155   9.713   9.706  -1.119 -0.0664  0.8412  2.5681
  153MOL0     H20156   9.519   9.848  -1.213 -0.5872  1.7436 -0.6677
  153MOL0     H20157   9.601   9.984  -1.142  3.8550 -0.1749 -0.8041
  153MOL0     H20158   9.307   9.769  -1.131 -2.0312  0.9818 -0.6105
  153MOL0     H20159   9.069   9.841  -1.087 -2.2535  2.8522  2.1757
  153MOL0     H20160   8.730   9.800  -0.999  2.1714  0.1600  2.5340
  153MOL0     H20161   8.465   9.811  -1.024 -4.4023  2.8277  0.7390
  153MOL0     H20162   8.302   9.983  -0.781  0.7154  3.2885 -1.0252
  153MOL0     H20163   8.246   9.871  -0.901 -1.4437  0.8684 -3.8965
  153MOL0     H20164   8.118  10.159  -0.854 -0.3225 -0.3637  0.9324
  153MOL0     H20165   8.074  10.011  -0.769  0.8133 -2.7964 -0.1344
  153MOL0     H20166   8.053   9.895  -0.994 -0.2919 -0.2286 -1.7364
  153MOL0     H20167   8.062  10.053  -1.068 -0.2487 -0.0738 -0.0764
  153MOL0     H20168   7.862  10.025  -0.857 -1.8689  0.8186 -0.3321
  153MOL0     H20169   7.880  10.158  -0.972  0.0183 -0.0874  1.0964
  153MOL0     H20170   7.829   9.941  -1.163  0.0124  0.4721  0.7876
  153MOL0     H20171   7.704  10.035  -1.095 -1.1360 -1.5447 -3.0121
  153MOL0     H20172   7.811   9.804  -0.946  0.2832 -1.6175 -2.0160
  153MOL0     H20173   7.711   9.758  -1.076 -0.3307 -1.3862  0.4287
  153MOL0     H20174   7.615   9.789  -0.823 -0.5893 -2.6872 -1.4202
  153MOL0     H20175   7.620   9.960  -0.861  2.4939 -0.2341  1.5635
  153MOL0     H20176   7.477   9.880  -1.071 -0.0707  1.1351 -0.2051
  153MOL0     H20177   7.401   9.910  -0.915  0.4571  0.8413 -1.2618
  153MOL0     H20178   8.505  10.238  -0.918  1.2928  1.0146  0.1887
  153MOL0     H20179   8.738  10.226  -0.917  0.1114  1.1530 -0.4605
  153MOL0     H20180   9.218  10.125  -0.806  0.2549  0.8942 -1.6186
  153MOL0     H20181   9.460  10.041  -0.863 -1.4413  4.4065 -0.9146
  153MOL0     H20182  10.174   9.191   0.189  0.8788 -0.0343 -1.1582
  153MOL0     H20183  10.011   9.162   0.380  3.2113 -0.7346 -1.1674
  153MOL0     H20184   9.568   9.235   0.564 -2.0304 -1.5670  0.9190
  153MOL0     H20185   9.421   9.232   0.760 -0.4432 -0.0392  1.3169
  153MOL0     H20186   9.341   9.147   0.933  2.1584  0.2231 -0.4035
  153MOL0     H20187   9.295   9.314   0.945 -0.9799 -0.5658 -0.4395
  153MOL0     H20188   9.347   9.110   1.163 -0.2820  0.6585 -0.4189
  153MOL0     H20189   9.331   9.275   1.205 -3.0776  0.5754  0.3376
  153MOL0     H20190   9.118   9.134   1.224 -0.5132 -0.5730 -0.3985
  153MOL0     H20191   9.105   9.147   1.052 -2.4820 -0.2963  0.7982
  153MOL0     H20192   9.109   9.403   1.246 -1.7422 -2.1189  2.4724
  153MOL0     H20193   9.092   9.398   1.072 -4.4336  0.3510  0.4396
  153MOL0     H20194   8.715   9.292   1.193  0.5236 -1.2862  1.5124
  153MOL0     H20195   9.730   9.363   1.019 -2.4027 -3.0277  1.7358
  153MOL0     H20196   9.881   9.409   0.817  0.9367 -0.4201  0.0151
  154MOL0     O20197   0.529   5.192   2.224 -0.1314  0.1986  0.2680
  154MOL0     C20198   0.555   5.077   2.261 -0.1615  0.0837  0.6377
  154MOL0     O20199   0.461   4.998   2.314  0.2668  0.0373  0.5324
  154MOL0     C20200   0.335   5.041   2.280  0.4026  0.6527 -0.1089
  154MOL0     C20201   0.282   5.001   2.154  1.8539 -0.3488  0.7090
  154MOL0     C20202   0.137   5.038   2.132  0.2901 -0.4294 -0.2891
  154MOL0     C20203   0.064   5.107   2.223  0.1731  0.2892 -0.9249
  154MOL0     O20204  -0.069   5.138   2.210 -0.5044  0.6070 -0.6286
  154MOL0     C20205  -0.111   5.249   2.116 -0.2087 -0.6180  0.2777
  154MOL0     C20206  -0.250   5.229   2.055 -0.1605 -0.2954 -0.1720
  154MOL0     C20207  -0.295   5.349   1.975  0.0041  0.0778  1.0487
  154MOL0     C20208  -0.200   5.385   1.861 -0.3221 -0.6408  0.3516
  154MOL0     C20209  -0.247   5.490   1.761  0.8134  0.0719  0.6423
  154MOL0     C20210  -0.110   5.537   1.685  0.1519  0.1667 -0.8223
  154MOL0     C20211  -0.093   5.454   1.554 -0.0846  0.0637 -0.0835
  154MOL0     C20212   0.043   5.421   1.502 -0.0050 -0.0558 -1.0059
  154MOL0     N20213   0.088   5.290   1.523  0.4338  1.3081  0.3255
  154MOL0     C20214   0.156   5.214   1.426  0.2005 -0.1952  0.1085
  154MOL0     C20215   0.177   5.101   1.495  0.5237  0.1287  0.5808
  154MOL0     C20216   0.237   4.982   1.444 -0.3506 -0.0140 -1.2841
  154MOL0     C20217   0.386   4.992   1.486 -0.1293  0.7965 -0.2704
  154MOL0     C20218   0.483   4.884   1.430  0.2983  0.1345 -0.5078
  154MOL0     C20219   0.624   4.929   1.382  0.7995  0.3826  1.0921
  154MOL0     O20220   0.713   4.961   1.493 -0.1748  0.1080  0.4026
  154MOL0     C20221   0.854   4.974   1.465 -0.5014  0.2234  0.1652
  154MOL0     C20222   0.908   5.019   1.341  0.4023  0.4783 -0.6849
  154MOL0     C20223   1.044   5.039   1.335 -0.6268  0.5152  0.2805
  154MOL0     C20224   1.132   5.010   1.440  0.5861 -0.4245 -0.3057
  154MOL0     C20225   1.271   5.036   1.417  0.2259  0.3100  1.0172
  154MOL0     O20226   1.313   5.090   1.301  0.6751  0.1873 -0.7908
  154MOL0     C20227   1.446   5.092   1.285  0.4019  0.5200  0.7555
  154MOL0     C20228   1.500   4.989   1.204 -0.0977 -0.0877  0.4584
  154MOL0     C20229   1.640   5.003   1.192  0.6407  0.3032 -0.2057
  154MOL0     C20230   1.729   5.099   1.255 -0.5002  0.2468  2.3640
  154MOL0     O20231   1.872   5.109   1.245 -0.0372  0.1902 -0.0100
  154MOL0     C20232   1.946   5.028   1.156 -0.4350  0.0066 -0.1103
  154MOL0     C20233   2.016   4.921   1.237 -1.1550 -0.4062 -0.1405
  154MOL0     C20234   2.106   4.836   1.152  0.1479  0.2332 -0.3828
  154MOL0     C20235   2.224   4.913   1.081 -0.2690  0.1985 -1.4106
  154MOL0     C20236   2.291   4.844   0.970 -0.0245 -0.2451  0.4970
  154MOL0     C20237   2.425   4.909   0.933  0.1469  0.7429 -0.2261
  154MOL0     C20238   2.505   4.814   0.830 -0.0864  0.0133  0.8636
  154MOL0     C20239   2.485   4.869   0.684  0.2944 -0.0581 -0.5612
  154MOL0    Cl20240   2.620   4.807   0.581  0.0240 -0.3230  0.0145
  154MOL0     C20241   1.666   5.200   1.327  0.2124  0.2806 -0.9716
  154MOL0     C20242   1.532   5.196   1.347  0.7766  0.1351  0.6787
  154MOL0     O20243   1.344   4.993   1.503 -0.6897  0.3716  0.1016
  154MOL0     C20244   1.081   4.951   1.557 -0.4660 -0.1880 -0.6652
  154MOL0     C20245   0.941   4.936   1.566 -0.0240 -0.1362 -0.5888
  154MOL0     N20246   0.126   5.109   1.622  0.3149  0.0644  0.1284
  154MOL0     N20247   0.079   5.225   1.643  0.1147 -0.0177  0.0993
  154MOL0     C20248   0.126   5.142   2.341  0.2361  0.0949 -0.0665
  154MOL0     C20249   0.251   5.100   2.370 -0.0608  0.3844 -0.5936
  154MOL0     C20250   0.688   5.028   2.240  0.8486 -0.3015 -0.7443
  154MOL0     C20251   0.715   4.904   2.300 -0.3204  0.3443  0.2101
  154MOL0     C20252   0.843   4.846   2.268  0.7386  0.7231 -1.1866
  154MOL0     C20253   0.943   4.914   2.198 -0.8067  0.4285  0.3389
  154MOL0     O20254   1.072   4.870   2.161  0.1006  0.2627  0.0478
  154MOL0     C20255   1.094   4.732   2.178  0.8627  0.8183 -0.3749
  154MOL0     C20256   1.212   4.677   2.095  0.2133 -0.2665 -1.3110
  154MOL0     C20257   1.338   4.724   2.163 -0.0363  0.4958  0.3224
  154MOL0     C20258   1.465   4.654   2.094 -0.4260 -0.3383 -0.2767
  154MOL0     C20259   1.480   4.703   1.957  0.6097 -0.4780 -0.3950
  154MOL0     C20260   1.456   4.755   1.852 -0.2536 -0.7385  0.1368
  154MOL0     C20261   0.916   5.048   2.171  0.5957 -0.3510  0.5337
  154MOL0     C20262   0.793   5.106   2.190 -0.0168 -0.3372 -0.1131
  154MOL0     H20263   0.334   4.933   2.088  1.3169  0.7799 -0.9446
  154MOL0     H20264   0.083   5.009   2.042  0.0016 -1.9991  0.3630
  154MOL0     H20265  -0.044   5.261   2.031 -2.2285 -2.9133 -1.7752
  154MOL0     H20266  -0.095   5.347   2.162 -0.9469 -1.0482  1.5053
  154MOL0     H20267  -0.310   5.234   2.145  0.2635  5.8232  0.2177
  154MOL0     H20268  -0.242   5.140   1.993 -1.2567  0.0535 -0.8432
  154MOL0     H20269  -0.292   5.436   2.040  1.2803  0.7618  0.1227
  154MOL0     H20270  -0.396   5.327   1.939 -0.5197  1.8327  1.3676
  154MOL0     H20271  -0.098   5.411   1.891  1.3671 -5.6725 -0.0465
  154MOL0     H20272  -0.188   5.299   1.794 -4.4495  0.5424 -2.2762
  154MOL0     H20273  -0.290   5.581   1.804 -2.2421 -0.9031 -0.1178
  154MOL0     H20274  -0.318   5.452   1.687  3.0477 -2.6300 -0.3318
  154MOL0     H20275  -0.030   5.528   1.759 -1.1435  1.6572  0.8624
  154MOL0     H20276  -0.106   5.643   1.655 -0.0443 -0.0405 -1.6100
  154MOL0     H20277  -0.156   5.365   1.557 -2.6658  1.7622 -0.5112
  154MOL0     H20278  -0.145   5.514   1.479 -0.8362 -2.6235 -1.8270
  154MOL0     H20279   0.113   5.490   1.550 -1.9616  2.9462 -2.2218
  154MOL0     H20280   0.052   5.440   1.395  4.8427  0.2932 -0.7680
  154MOL0     H20281   0.171   5.221   1.318 -2.3030  0.8603 -0.2398
  154MOL0     H20282   0.222   4.976   1.336 -3.0603 -0.4766 -0.9399
  154MOL0     H20283   0.196   4.892   1.491  1.1177 -1.0617 -1.9168
  154MOL0     H20284   0.407   5.004   1.593  1.1256  3.2104 -0.7335
  154MOL0     H20285   0.412   5.088   1.441 -4.0627  1.4441 -1.5496
  154MOL0     H20286   0.502   4.808   1.506  0.3082 -1.3543 -1.9391
  154MOL0     H20287   0.436   4.837   1.343  1.3810 -1.0002 -0.5096
  154MOL0     H20288   0.620   5.006   1.304  1.6129 -2.0593 -1.5434
  154MOL0     H20289   0.664   4.840   1.332  0.4006  2.0558 -2.5641
  154MOL0     H20290   0.851   5.041   1.251 -0.2118 -0.3977 -0.5349
  154MOL0     H20291   1.082   5.089   1.246 -0.4999  0.6554  0.4131
  154MOL0     H20292   1.451   4.909   1.150  5.5813 -2.1425 -2.5285
  154MOL0     H20293   1.697   4.939   1.125  1.2531  2.8328 -2.2750
  154MOL0     H20294   2.020   5.100   1.121  1.1411  1.0165  4.5938
  154MOL0     H20295   1.892   4.993   1.068  0.3398  1.2904 -1.1274
  154MOL0     H20296   1.929   4.878   1.288 -1.3601  0.5907  0.3531
  154MOL0     H20297   2.074   4.974   1.312 -2.7651 -1.5374  2.0357
  154MOL0     H20298   2.044   4.790   1.074 -3.1349 -0.6016  2.4460
  154MOL0     H20299   2.147   4.750   1.204 -2.8247 -1.0222  0.0893
  154MOL0     H20300   2.197   5.007   1.032 -0.2982  0.4234 -0.9728
  154MOL0     H20301   2.296   4.939   1.159 -0.8084  1.9348 -1.4594
  154MOL0     H20302   2.218   4.845   0.888 -2.0637  4.5635  2.0286
  154MOL0     H20303   2.321   4.742   0.998  1.6837  0.8942  3.2468
  154MOL0     H20304   2.474   4.924   1.030 -1.1313  2.0998  0.2471
  154MOL0     H20305   2.417   5.010   0.891  0.6945  1.1986  0.7221
  154MOL0     H20306   2.609   4.839   0.850 -0.7937  4.1921  0.3017
  154MOL0     H20307   2.485   4.708   0.849 -4.0376 -0.0379 -2.0574
  154MOL0     H20308   2.493   4.977   0.691  0.2577 -0.0327 -0.8978
  154MOL0     H20309   2.392   4.833   0.639 -1.0843  1.4285  0.9712
  154MOL0     H20310   1.722   5.279   1.377 -0.6954  0.9026 -0.9226
  154MOL0     H20311   1.491   5.270   1.415  3.9651 -0.9160  4.0748
  154MOL0     H20312   1.149   4.924   1.638 -1.7857  0.1852  0.6131
  154MOL0     H20313   0.916   4.898   1.665 -1.6476  3.0971  0.3845
  154MOL0     H20314   0.072   5.178   2.429  3.0610 -1.0180  2.2774
  154MOL0     H20315   0.280   5.121   2.472 -3.0833 -1.8072  0.8534
  154MOL0     H20316   0.636   4.838   2.337 -0.2507 -0.7083 -1.4048
  154MOL0     H20317   0.861   4.748   2.310 -1.5902 -0.9586 -3.7202
  154MOL0     H20318   1.006   4.676   2.145  1.4220 -0.4525  0.1942
  154MOL0     H20319   1.108   4.715   2.286 -2.9853  1.2618  0.3504
  154MOL0     H20320   1.211   4.568   2.088 -0.4444 -0.4582  1.0260
  154MOL0     H20321   1.199   4.722   1.996 -3.6519  0.5613 -0.5884
  154MOL0     H20322   1.342   4.690   2.267  0.4806  0.2755  0.2340
  154MOL0     H20323   1.349   4.832   2.178 -1.5789  0.6113  0.7783
  154MOL0     H20324   1.555   4.684   2.148 -1.5022  0.0682  1.3679
  154MOL0     H20325   1.461   4.545   2.090 -1.2206 -0.2829 -1.9776
  154MOL0     H20326   1.440   4.812   1.762  2.1511 -0.7225 -0.3365
  154MOL0     H20327   0.991   5.111   2.125  0.8982 -3.0907 -3.1559
  154MOL0     H20328   0.775   5.210   2.164  2.5837  0.7067  1.8687
  155MOL0     O20329   0.948   3.468  10.263 -0.0317  0.2661  0.1172
  155MOL0     C20330   0.924   3.362  10.200 -0.2360  0.0986 -0.6889
  155MOL0     O20331   1.023   3.264  10.192  0.0208 -0.2311  0.1247
  155MOL0     C20332   1.144   3.262  10.260 -0.1680 -0.4538 -0.2779
  155MOL0     C20333   1.170   3.330  10.376  0.1403 -0.5180  0.0379
  155MOL0     C20334   1.304   3.331  10.425  0.1232 -0.2808 -0.2759
  155MOL0     C20335   1.413   3.274  10.368  0.6857  0.2322  1.5362
  155MOL0     O20336   1.533   3.258  10.431  0.0977  0.4958  0.1134
  155MOL0     C20337   1.641   3.186  10.361  0.2441 -0.5453 -0.1708
  155MOL0     C20338   1.759   3.157  10.455  0.2516  0.8828  0.2008
  155MOL0     C20339   1.893   3.143  10.382  0.6259  0.4074  0.3217
  155MOL0     C20340   1.922   3.013  10.311 -0.4457  0.1265  0.2825
  155MOL0     C20341   2.062   3.031  10.239 -1.0178  0.8210  0.8226
  155MOL0     C20342   2.180   2.991  10.319 -0.3549 -0.3527 -0.2315
  155MOL0     C20343   2.308   3.056  10.263 -0.1485  0.4227 -0.6208
  155MOL0     C20344   2.433   3.004  10.344  0.8268  0.3295  0.7219
  155MOL0     N20345   2.549   3.074  10.288  0.0300 -0.3546  0.2452
  155MOL0     C20346   2.619   3.183  10.333 -0.0579  0.0040  0.4534
  155MOL0     C20347   2.736   3.184  10.259  0.1702 -0.0963  1.3161
  155MOL0     C20348   2.850   3.269  10.286 -0.3047  0.5528 -0.1295
  155MOL0     C20349   2.808   3.411  10.315 -0.4457 -0.6130  0.7372
  155MOL0     C20350   2.726   3.495  10.215 -0.6867 -1.4279 -0.0090
  155MOL0     C20351   2.705   3.640  10.251  0.1950 -0.6205  0.0630
  155MOL0     O20352   2.636   3.658  10.370 -0.2835  0.5167 -1.0319
  155MOL0     C20353   2.616   3.777  10.431 -0.1469  0.4486  1.4184
  155MOL0     C20354   2.588   3.765  10.568  0.8821  0.3493 -0.5253
  155MOL0     C20355   2.570   3.874  10.652  0.9890  0.3855  0.4180
  155MOL0     C20356   2.571   4.003  10.593  0.3675  0.7104  0.2699
  155MOL0     C20357   2.540   4.128  10.673 -0.3622  0.6323 -0.1295
  155MOL0     O20358   2.532   4.109  10.804  0.9746 -0.0182 -0.5151
  155MOL0     C20359   2.487   4.210  10.885 -0.7039  0.3882  1.6942
  155MOL0     C20360   2.543   4.334  10.890  0.2633 -0.1168 -0.3380
  155MOL0     C20361   2.489   4.446  10.959  0.5934  0.7383 -0.8675
  155MOL0     C20362   2.366   4.423  11.027 -0.2624  0.2413  0.2530
  155MOL0     O20363   2.288   4.525  11.084  0.3744 -0.0591 -0.2698
  155MOL0     C20364   2.353   4.610  11.181  0.1683  0.3546  1.0828
  155MOL0     C20365   2.260   4.718  11.228  1.2181 -0.4407 -1.1632
  155MOL0     C20366   2.140   4.677  11.311 -0.3540 -0.0276 -0.2691
  155MOL0     C20367   2.090   4.801  11.378 -0.0307  0.4775 -0.4515
  155MOL0     C20368   1.962   4.777  11.459 -0.5174  0.7587 -0.3223
  155MOL0     C20369   1.845   4.749  11.367 -0.2219 -0.6024  0.8620
  155MOL0     C20370   1.705   4.765  11.436 -0.1309  0.3118  0.1815
  155MOL0     C20371   1.658   4.906  11.462 -0.3140  0.5445  0.4950
  155MOL0    Cl20372   1.543   4.956  11.350  0.1617 -0.2999 -0.3013
  155MOL0     C20373   2.307   4.295  11.021  0.1396  0.0726 -0.0721
  155MOL0     C20374   2.370   4.194  10.951  0.4581  0.5680  0.1803
  155MOL0     O20375   2.492   4.225  10.606 -0.0767  0.0374  0.0306
  155MOL0     C20376   2.578   4.013  10.450 -0.3920 -0.2466  0.1384
  155MOL0     C20377   2.606   3.905  10.371 -0.7187 -0.4203  0.0367
  155MOL0     N20378   2.733   3.083  10.163  0.0608  0.1711  0.1442
  155MOL0     N20379   2.624   3.022  10.177  0.1821 -0.3536 -1.0623
  155MOL0     C20380   1.384   3.198  10.250  0.7586  0.4090  0.9036
  155MOL0     C20381   1.249   3.197  10.195 -0.3781 -0.1562  0.0741
  155MOL0     C20382   0.795   3.344  10.135  0.4239 -0.2672  1.2347
  155MOL0     C20383   0.766   3.230  10.051  0.6397 -0.9589  0.4379
  155MOL0     C20384   0.632   3.205  10.000 -0.9540  0.2728  0.8811
  155MOL0     C20385   0.533   3.302  10.034  0.2567  0.5848 -0.3940
  155MOL0     O20386   0.408   3.304   9.993  0.2553  0.2861  0.1552
  155MOL0     C20387   0.362   3.227   9.888 -0.8326  0.2785 -0.0100
  155MOL0     C20388   0.244   3.294   9.823 -0.1194  0.3112  0.5111
  155MOL0     C20389   0.180   3.217   9.704 -0.6566  0.3611  0.1395
  155MOL0     C20390   0.099   3.309   9.627  0.0570 -0.1759  0.0244
  155MOL0     C20391   0.036   3.252   9.509 -0.6577 -0.0174 -0.4239
  155MOL0     C20392  -0.024   3.200   9.413  0.9125 -0.1533 -0.2034
  155MOL0     C20393   0.566   3.417  10.102 -0.3486 -0.1854 -0.9516
  155MOL0     C20394   0.693   3.435  10.159  0.0119 -0.4571 -1.0184
  155MOL0     H20395   1.087   3.385  10.419 -1.2614 -2.7996  0.4075
  155MOL0     H20396   1.321   3.365  10.526 -0.8161 -2.5494  0.7294
  155MOL0     H20397   1.669   3.248  10.275 -0.1129 -1.8045 -1.2320
  155MOL0     H20398   1.615   3.089  10.319  1.0118 -2.1148  2.7030
  155MOL0     H20399   1.756   3.063  10.510  0.8536  0.5379 -0.3452
  155MOL0     H20400   1.761   3.231  10.535 -1.8344 -1.6912  2.8490
  155MOL0     H20401   1.972   3.148  10.458  0.7765 -0.5786  0.2501
  155MOL0     H20402   1.898   3.231  10.317  0.9945  2.1584  2.5977
  155MOL0     H20403   1.925   2.923  10.372  0.4240  0.2305  0.4118
  155MOL0     H20404   1.845   3.012  10.233  1.5960  4.1144 -2.1199
  155MOL0     H20405   2.066   3.137  10.214  1.4936  0.9762  1.6270
  155MOL0     H20406   2.064   2.972  10.147 -1.3693  2.3621 -0.2148
  155MOL0     H20407   2.202   2.883  10.322 -0.3692 -0.3451  0.2109
  155MOL0     H20408   2.162   3.022  10.422  3.1678 -2.5281  1.2564
  155MOL0     H20409   2.336   3.021  10.163  3.7856 -1.2958  0.8752
  155MOL0     H20410   2.293   3.164  10.264  5.0751  1.5800 -4.3040
  155MOL0     H20411   2.443   2.896  10.328  0.1205  0.5352 -1.5080
  155MOL0     H20412   2.427   3.033  10.449  1.3860  0.8880  0.6043
  155MOL0     H20413   2.606   3.248  10.419 -2.2229  3.0431 -1.9441
  155MOL0     H20414   2.920   3.267  10.202 -1.7135 -2.1040 -1.3819
  155MOL0     H20415   2.916   3.231  10.365 -1.1634 -2.2593 -0.6480
  155MOL0     H20416   2.900   3.470  10.325 -0.8233 -0.2290  2.3120
  155MOL0     H20417   2.747   3.405  10.406 -4.8483 -1.6322 -1.9976
  155MOL0     H20418   2.776   3.502  10.118  0.6934 -0.3974  0.7512
  155MOL0     H20419   2.636   3.433  10.203 -2.6157  1.6351 -3.6001
  155MOL0     H20420   2.652   3.697  10.174  0.7309 -0.1502  0.0371
  155MOL0     H20421   2.798   3.698  10.256 -1.4409  2.1066  1.8531
  155MOL0     H20422   2.589   3.666  10.612  1.8102  0.4314 -0.3518
  155MOL0     H20423   2.535   3.856  10.753 -1.6783 -0.3330 -0.5484
  155MOL0     H20424   2.637   4.348  10.837  3.2505 -4.6403  3.0110
  155MOL0     H20425   2.539   4.542  10.954  2.1084  0.1375  1.4612
  155MOL0     H20426   2.436   4.662  11.132 -1.1808  2.2614  0.7181
  155MOL0     H20427   2.397   4.553  11.263  1.2300 -0.8451 -0.2602
  155MOL0     H20428   2.217   4.771  11.142 -0.5374  0.6262  0.2904
  155MOL0     H20429   2.325   4.785  11.286 -0.4696  0.6691 -0.4651
  155MOL0     H20430   2.174   4.605  11.386  0.4940  0.0192 -0.5979
  155MOL0     H20431   2.063   4.628  11.249  0.5199 -3.5177  1.1775
  155MOL0     H20432   2.174   4.835  11.439  0.9113 -1.6202 -0.4853
  155MOL0     H20433   2.071   4.882  11.307 -0.1715  0.5240 -0.3609
  155MOL0     H20434   1.940   4.865  11.520  1.1471  1.1143 -0.1831
  155MOL0     H20435   1.972   4.698  11.534 -4.3298  0.1352 -0.2747
  155MOL0     H20436   1.852   4.645  11.331 -0.2899 -0.3486  0.1059
  155MOL0     H20437   1.831   4.814  11.281  0.9834 -2.7335 -1.0499
  155MOL0     H20438   1.630   4.718  11.372  1.8764 -0.7775 -1.4727
  155MOL0     H20439   1.711   4.715  11.533 -1.4391 -1.0180 -0.3776
  155MOL0     H20440   1.741   4.977  11.462 -0.6175  0.9079 -0.4373
  155MOL0     H20441   1.623   4.890  11.565  1.1675  2.0999  1.2980
  155MOL0     H20442   2.203   4.286  11.051 -1.1472  0.0818 -3.9030
  155MOL0     H20443   2.309   4.105  10.951 -0.0622  0.8954  1.5683
  155MOL0     H20444   2.577   4.111  10.403  0.9759 -0.6014 -0.6822
  155MOL0     H20445   2.613   3.921  10.264 -0.2471  0.3216  0.1684
  155MOL0     H20446   1.454   3.151  10.182 -0.7167  0.6237 -0.8358
  155MOL0     H20447   1.221   3.153  10.100  0.3451  0.5900 -0.4905
  155MOL0     H20448   0.839   3.152  10.029 -0.0625 -1.6365  0.4794
  155MOL0     H20449   0.623   3.111   9.947  0.0562 -1.2077  3.1859
  155MOL0     H20450   0.341   3.127   9.927 -1.8355  1.2398  2.0769
  155MOL0     H20451   0.441   3.213   9.814  0.1242  0.1020  1.0239
  155MOL0     H20452   0.171   3.309   9.903  0.4543  1.0973  0.9056
  155MOL0     H20453   0.261   3.393   9.778 -2.6236  0.5038 -0.1941
  155MOL0     H20454   0.129   3.130   9.746 -1.2262  1.1936  1.2284
  155MOL0     H20455   0.257   3.173   9.640  0.8939  2.0325  0.7495
  155MOL0     H20456   0.013   3.349   9.683 -0.2418  2.1164 -1.8967
  155MOL0     H20457   0.158   3.397   9.599  1.1737 -0.4886  1.2744
  155MOL0     H20458  -0.069   3.158   9.326  0.1241 -2.9081  1.3983
  155MOL0     H20459   0.481   3.484  10.112  0.9312  1.5190 -0.8950
  155MOL0     H20460   0.721   3.515  10.226 -1.5931  1.1442 -2.1852
  156MOL0     O20461   5.322   4.808   6.587  1.4739  1.0519 -0.1291
  156MOL0     C20462   5.337   4.920   6.626 -0.5670 -1.5483 -0.0205
  156MOL0     O20463   5.259   4.986   6.721 -0.2768 -0.8675 -0.0042
  156MOL0     C20464   5.145   4.926   6.764 -0.1920 -0.5886 -0.0870
  156MOL0     C20465   5.037   4.912   6.679 -0.0919 -0.3631 -0.9568
  156MOL0     C20466   4.925   4.847   6.731  0.3323 -0.2332 -0.6256
  156MOL0     C20467   4.913   4.814   6.870 -0.0343 -0.4503 -0.0254
  156MOL0     O20468   4.795   4.749   6.899  0.1201  0.2115 -0.2324
  156MOL0     C20469   4.758   4.747   7.040 -0.2420 -0.0456  0.0581
  156MOL0     C20470   4.650   4.645   7.064 -0.3385  0.5105 -0.4658
  156MOL0     C20471   4.523   4.683   6.992  0.1773  0.0001 -0.0120
  156MOL0     C20472   4.413   4.585   7.013  0.0590  0.4046 -0.0367
  156MOL0     C20473   4.304   4.604   6.921 -0.3606 -0.2801  1.1314
  156MOL0     C20474   4.172   4.553   6.971 -0.7295 -0.4139 -1.0137
  156MOL0     C20475   4.069   4.551   6.856  0.7473  1.1177  0.3198
  156MOL0     C20476   4.057   4.677   6.765 -0.4050 -0.0112 -0.5989
  156MOL0     N20477   3.976   4.660   6.642 -0.2960  0.2554  0.3382
  156MOL0     C20478   3.996   4.549   6.556  0.2517 -0.0520 -0.5241
  156MOL0     C20479   3.915   4.574   6.451  0.4139 -0.0598 -0.3165
  156MOL0     C20480   3.892   4.481   6.336 -0.8175 -0.0438 -0.5441
  156MOL0     C20481   3.752   4.438   6.325  0.7951 -0.0605  0.1127
  156MOL0     C20482   3.739   4.355   6.188  0.4090 -0.1404 -0.3159
  156MOL0     C20483   3.632   4.244   6.184  1.2108  0.2996  0.0309
  156MOL0     O20484   3.508   4.284   6.244 -0.8300 -0.5031 -0.4828
  156MOL0     C20485   3.399   4.205   6.239  0.0111  0.1598  0.5187
  156MOL0     C20486   3.297   4.246   6.323 -0.4045  0.5696 -1.1452
  156MOL0     C20487   3.180   4.168   6.335 -0.0796  0.0487 -0.0635
  156MOL0     C20488   3.177   4.043   6.262  0.7174  0.5851 -0.0243
  156MOL0     C20489   3.072   3.942   6.280  0.5629  0.4524  0.0791
  156MOL0     O20490   2.990   3.977   6.381  0.2369  0.2459  0.2811
  156MOL0     C20491   2.870   3.911   6.410 -0.1130 -0.9925  0.6796
  156MOL0     C20492   2.843   3.882   6.549 -0.7810 -0.6685 -0.2412
  156MOL0     C20493   2.725   3.827   6.586  0.0882  1.4739 -0.8033
  156MOL0     C20494   2.623   3.804   6.493 -0.8924  0.3350  0.2618
  156MOL0     O20495   2.499   3.768   6.526  0.3233 -0.6127 -0.2235
  156MOL0     C20496   2.431   3.662   6.443  0.2082 -0.3063  0.0701
  156MOL0     C20497   2.320   3.596   6.519 -0.6781 -0.0374  0.3024
  156MOL0     C20498   2.283   3.458   6.465  0.1362  0.8133  0.8695
  156MOL0     C20499   2.245   3.461   6.318  0.6719 -0.0819  0.6850
  156MOL0     C20500   2.223   3.318   6.268  0.2172 -0.4203  0.3285
  156MOL0     C20501   2.176   3.324   6.126 -0.0454 -0.1267 -0.4227
  156MOL0     C20502   2.163   3.183   6.062 -0.1879  0.0547 -1.0896
  156MOL0     C20503   2.055   3.090   6.123  0.6651 -1.1292  1.0114
  156MOL0    Cl20504   2.104   2.925   6.086 -0.1889  0.7769 -0.1691
  156MOL0     C20505   2.654   3.829   6.353 -0.4939 -0.5678 -0.1538
  156MOL0     C20506   2.781   3.881   6.314  0.0055 -0.3714  0.5788
  156MOL0     O20507   3.061   3.856   6.193 -0.9573 -0.0623 -0.5558
  156MOL0     C20508   3.285   4.004   6.190  1.0596 -1.0098  0.3362
  156MOL0     C20509   3.391   4.086   6.171  0.0879  0.0159 -1.1551
  156MOL0     N20510   3.838   4.690   6.489  0.2614  0.1573 -0.0397
  156MOL0     N20511   3.871   4.726   6.605  0.8049  0.1369 -0.6969
  156MOL0     C20512   5.026   4.814   6.949 -0.1923 -0.1808  0.2459
  156MOL0     C20513   5.133   4.876   6.893  0.1919  0.3032 -0.4848
  156MOL0     C20514   5.464   4.993   6.582  0.1819  0.9368  0.0566
  156MOL0     C20515   5.563   4.935   6.500  0.1273 -0.4107  0.0501
  156MOL0     C20516   5.675   5.010   6.461 -0.0170  0.0905  0.1009
  156MOL0     C20517   5.696   5.145   6.511 -1.2079  0.1150 -0.6872
  156MOL0     O20518   5.820   5.189   6.473 -0.2012 -0.5685 -0.0581
  156MOL0     C20519   5.863   5.305   6.551 -0.2894 -0.3189 -0.7579
  156MOL0     C20520   5.989   5.383   6.499  0.2582  0.1087 -0.0202
  156MOL0     C20521   6.021   5.491   6.611  0.7068  0.6868 -0.1547
  156MOL0     C20522   6.173   5.501   6.637 -0.5836 -0.2227 -0.0448
  156MOL0     C20523   6.248   5.533   6.510  0.7001 -0.2705 -0.5151
  156MOL0     C20524   6.318   5.542   6.411 -0.0191 -0.3215 -0.4718
  156MOL0     C20525   5.608   5.201   6.603  0.8853 -0.5984 -0.4844
  156MOL0     C20526   5.500   5.117   6.639 -0.0450 -0.0632  1.0585
  156MOL0     H20527   5.028   4.945   6.576  2.5130 -0.2380 -1.2172
  156MOL0     H20528   4.839   4.831   6.668  0.6828 -0.9038 -0.9387
  156MOL0     H20529   4.708   4.843   7.054 -0.9373 -0.2591 -0.8584
  156MOL0     H20530   4.839   4.737   7.112 -0.6601  2.6596  1.0245
  156MOL0     H20531   4.635   4.629   7.172 -1.2544  3.1858 -0.1352
  156MOL0     H20532   4.688   4.550   7.024 -1.4818  0.0351 -0.4502
  156MOL0     H20533   4.541   4.694   6.885  0.5565  2.8468  0.2743
  156MOL0     H20534   4.489   4.780   7.028 -0.1035  0.0545 -0.4238
  156MOL0     H20535   4.460   4.487   6.999  3.1679  1.8929 -0.8850
  156MOL0     H20536   4.383   4.597   7.117 -2.2685  3.0988 -0.8898
  156MOL0     H20537   4.323   4.550   6.828 -1.1817  3.0403 -1.1390
  156MOL0     H20538   4.299   4.710   6.896  1.8795 -0.9239 -2.9131
  156MOL0     H20539   4.144   4.627   7.047 -0.3701 -3.5327  2.4025
  156MOL0     H20540   4.179   4.453   7.013  0.8724 -0.9710 -2.5245
  156MOL0     H20541   4.066   4.460   6.795 -1.0855  2.0726 -1.1357
  156MOL0     H20542   3.973   4.542   6.908 -1.1175 -1.8120 -3.1372
  156MOL0     H20543   4.152   4.718   6.731 -2.4067  3.4904 -2.5109
  156MOL0     H20544   4.025   4.757   6.832  1.5854  0.2201  0.1296
  156MOL0     H20545   4.060   4.465   6.581 -0.4937  0.0506  2.0872
  156MOL0     H20546   3.960   4.396   6.351 -2.1315 -1.0920 -0.2992
  156MOL0     H20547   3.918   4.541   6.249  0.5735  1.6007  0.9325
  156MOL0     H20548   3.685   4.524   6.322  2.5832  1.5008  2.1516
  156MOL0     H20549   3.722   4.365   6.401 -2.9037 -0.6309 -1.6686
  156MOL0     H20550   3.714   4.417   6.102 -1.3221 -0.7621 -0.2946
  156MOL0     H20551   3.834   4.302   6.176  1.0335  0.4077  1.6910
  156MOL0     H20552   3.669   4.165   6.250 -0.7155 -0.7288 -0.0378
  156MOL0     H20553   3.612   4.208   6.082 -3.7848 -3.2407  1.8123
  156MOL0     H20554   3.308   4.346   6.366  1.7612 -0.9230  2.2117
  156MOL0     H20555   3.105   4.200   6.406  2.5792 -0.4751  3.2355
  156MOL0     H20556   2.913   3.895   6.631  0.0210 -1.5180 -0.7648
  156MOL0     H20557   2.714   3.811   6.693  0.7923 -2.4900 -1.1666
  156MOL0     H20558   2.505   3.594   6.400  2.5263  1.8455  0.4001
  156MOL0     H20559   2.391   3.724   6.363  2.2004  2.3929  1.0198
  156MOL0     H20560   2.230   3.657   6.506 -1.5178 -1.2247  0.4617
  156MOL0     H20561   2.337   3.583   6.626 -0.2138  0.9112  0.3625
  156MOL0     H20562   2.200   3.415   6.523 -1.3835 -1.3842 -2.6401
  156MOL0     H20563   2.365   3.389   6.487  2.7914  3.5597  0.2744
  156MOL0     H20564   2.146   3.509   6.316  1.7547  2.5983  3.2678
  156MOL0     H20565   2.314   3.522   6.258 -0.9598 -0.0375 -1.2761
  156MOL0     H20566   2.158   3.259   6.334  2.7579 -1.2350  2.2800
  156MOL0     H20567   2.315   3.259   6.275 -1.0177 -3.0236 -3.0666
  156MOL0     H20568   2.242   3.387   6.066 -0.9973  0.1124 -1.2585
  156MOL0     H20569   2.079   3.376   6.123 -0.5146 -1.0085 -2.1023
  156MOL0     H20570   2.149   3.204   5.955  1.4575 -0.4678 -1.4367
  156MOL0     H20571   2.257   3.129   6.077 -0.0758  0.6326  0.5065
  156MOL0     H20572   1.955   3.115   6.085  2.0307 -0.4404 -2.5733
  156MOL0     H20573   2.033   3.104   6.229 -2.6514  2.3492  0.1181
  156MOL0     H20574   2.588   3.792   6.275 -0.7414  4.6734 -2.8638
  156MOL0     H20575   2.821   3.885   6.213  3.8157 -1.7303  1.8615
  156MOL0     H20576   3.281   3.918   6.124  0.8574  0.0115 -1.0158
  156MOL0     H20577   3.462   4.042   6.102 -1.6512 -1.5421 -2.0312
  156MOL0     H20578   5.024   4.762   7.044  2.6598 -0.6387  0.1359
  156MOL0     H20579   5.218   4.895   6.959  2.5617  1.3957 -3.5894
  156MOL0     H20580   5.551   4.842   6.446 -3.7379  0.2927 -0.6309
  156MOL0     H20581   5.738   4.962   6.386 -3.8586 -0.7826 -2.8906
  156MOL0     H20582   5.884   5.259   6.648 -0.7905  0.7808 -0.1055
  156MOL0     H20583   5.779   5.375   6.559 -2.1965 -2.6741  1.5242
  156MOL0     H20584   6.077   5.318   6.496  0.9545  1.0488 -0.3836
  156MOL0     H20585   5.977   5.432   6.402  0.8675  1.5988  0.6173
  156MOL0     H20586   5.960   5.471   6.699 -1.2751 -0.4903 -1.7207
  156MOL0     H20587   5.981   5.578   6.558 -3.3040 -0.2672  0.9994
  156MOL0     H20588   6.188   5.580   6.710 -2.5311  3.1406 -2.9656
  156MOL0     H20589   6.205   5.411   6.690 -1.0959 -1.3215 -1.5180
  156MOL0     H20590   6.386   5.575   6.336  0.0165 -0.9528 -0.7278
  156MOL0     H20591   5.614   5.300   6.648  2.2640  0.8449 -3.5123
  156MOL0     H20592   5.437   5.161   6.716  0.5993  1.7893  0.5992
  157MOL0     O20593   6.380   2.627   0.810 -0.1733 -0.2491 -0.3758
  157MOL0     C20594   6.455   2.535   0.847 -0.3169 -0.8928 -0.6188
  157MOL0     O20595   6.498   2.517   0.974  0.3374  0.1455 -1.0786
  157MOL0     C20596   6.491   2.628   1.053 -0.7163 -0.4101  0.4930
  157MOL0     C20597   6.372   2.677   1.091 -0.0404  0.9817  0.6259
  157MOL0     C20598   6.362   2.799   1.158  0.3655 -0.6852 -0.6245
  157MOL0     C20599   6.472   2.878   1.178 -0.7900  0.0535 -0.4521
  157MOL0     O20600   6.455   2.996   1.255 -0.6026  0.3130  0.2623
  157MOL0     C20601   6.390   2.996   1.381  0.5404 -1.0015  0.2767
  157MOL0     C20602   6.292   3.124   1.388 -0.6664 -0.3695  0.2997
  157MOL0     C20603   6.201   3.142   1.266  0.8229  0.0773  0.2226
  157MOL0     C20604   6.110   3.265   1.259 -0.2118  0.0150  0.2011
  157MOL0     C20605   6.029   3.245   1.389 -0.4031  0.8460 -0.3775
  157MOL0     C20606   5.897   3.326   1.374  0.2544  0.2000 -0.6658
  157MOL0     C20607   5.820   3.287   1.505 -0.4008 -0.3253 -0.0937
  157MOL0     C20608   5.674   3.329   1.521  0.0337 -0.0791  0.5902
  157MOL0     N20609   5.606   3.254   1.414 -0.1894  0.7472  0.1430
  157MOL0     C20610   5.578   3.122   1.421 -0.6917 -0.0957  0.4257
  157MOL0     C20611   5.525   3.099   1.300 -0.6080  0.8813 -0.3366
  157MOL0     C20612   5.477   2.967   1.250  0.0188 -0.1294  0.5540
  157MOL0     C20613   5.592   2.868   1.219  0.7166  0.2199 -0.7712
  157MOL0     C20614   5.548   2.740   1.146  0.1330  0.6791 -0.2164
  157MOL0     C20615   5.429   2.666   1.206 -0.9816 -0.9196 -1.2802
  157MOL0     O20616   5.456   2.601   1.332 -0.5022  0.1978 -0.0489
  157MOL0     C20617   5.348   2.549   1.398  0.0961 -1.0636 -0.4915
  157MOL0     C20618   5.375   2.479   1.516  0.8093 -0.2110  0.0107
  157MOL0     C20619   5.287   2.418   1.596 -0.6210  1.3036 -0.7424
  157MOL0     C20620   5.148   2.421   1.560 -0.6691  0.1744  0.7476
  157MOL0     C20621   5.039   2.350   1.637  0.3383 -0.4733  0.4442
  157MOL0     O20622   5.071   2.324   1.768  0.2585 -0.4635  0.7007
  157MOL0     C20623   4.975   2.302   1.866  0.1456  0.6046 -0.1235
  157MOL0     C20624   5.026   2.246   1.988  0.4432 -0.1951 -0.1161
  157MOL0     C20625   4.937   2.225   2.094 -0.1601  1.7493 -0.4173
  157MOL0     C20626   4.800   2.240   2.086 -0.2052  0.8165 -1.0912
  157MOL0     O20627   4.737   2.208   2.200 -0.3035  0.2953  0.0501
  157MOL0     C20628   4.594   2.223   2.207 -0.2169 -0.0876  0.2975
  157MOL0     C20629   4.566   2.367   2.235 -0.6552 -1.0350 -0.6435
  157MOL0     C20630   4.622   2.394   2.379 -0.5686 -0.0982  1.3860
  157MOL0     C20631   4.580   2.532   2.430 -1.0041 -0.5259 -0.5391
  157MOL0     C20632   4.642   2.551   2.563 -0.2386  0.6446 -0.1761
  157MOL0     C20633   4.620   2.687   2.643 -0.0140 -1.1052 -0.5917
  157MOL0     C20634   4.655   2.813   2.559  0.5857 -0.2969  0.2700
  157MOL0     C20635   4.673   2.942   2.643 -0.3125  0.0638 -0.4993
  157MOL0    Cl20636   4.805   2.899   2.756  0.1101  0.0852 -0.2534
  157MOL0     C20637   4.753   2.299   1.965  0.1844 -0.5781 -0.7098
  157MOL0     C20638   4.836   2.334   1.855  1.1254  0.5708  0.8005
  157MOL0     O20639   4.927   2.342   1.584  0.3419  0.1383 -0.0143
  157MOL0     C20640   5.112   2.503   1.442  0.5422  0.1687  0.3911
  157MOL0     C20641   5.214   2.557   1.357 -0.9387  0.9587 -0.3452
  157MOL0     N20642   5.501   3.213   1.235  0.8836 -1.2518 -0.2354
  157MOL0     N20643   5.552   3.312   1.304 -0.5661 -0.0060 -0.3936
  157MOL0     C20644   6.597   2.828   1.136  0.5905 -0.5579 -0.9161
  157MOL0     C20645   6.607   2.699   1.080  0.6132  0.0464  0.4133
  157MOL0     C20646   6.497   2.441   0.730 -0.4757  0.5346  0.2593
  157MOL0     C20647   6.582   2.331   0.743 -0.3114 -0.3830  0.5769
  157MOL0     C20648   6.633   2.255   0.635 -0.0790  0.2904  0.2759
  157MOL0     C20649   6.584   2.277   0.508  0.1257  1.1590 -0.7312
  157MOL0     O20650   6.639   2.195   0.416  0.1357  0.6249 -0.3485
  157MOL0     C20651   6.579   2.170   0.285  0.1297 -0.5566 -0.5312
  157MOL0     C20652   6.622   2.269   0.185  0.8491 -0.7165 -1.0060
  157MOL0     C20653   6.525   2.314   0.079  0.3090 -0.3543  0.1731
  157MOL0     C20654   6.488   2.197  -0.014 -0.5132 -0.0497  0.4881
  157MOL0     C20655   6.346   2.177  -0.018 -0.5014 -0.3273 -0.1682
  157MOL0     C20656   6.223   2.174   0.008  0.9506 -0.4426  0.5844
  157MOL0     C20657   6.498   2.384   0.485  0.6416 -0.4235  0.1566
  157MOL0     C20658   6.460   2.468   0.598 -0.1635  0.2485  0.3105
  157MOL0     H20659   6.278   2.626   1.070 -0.1439  0.4460  2.2953
  157MOL0     H20660   6.269   2.837   1.198  0.6990  0.5301 -0.9458
  157MOL0     H20661   6.469   2.999   1.457  1.7575  1.7459 -0.9644
  157MOL0     H20662   6.330   2.905   1.392 -1.4110 -0.0554 -1.6444
  157MOL0     H20663   6.354   3.214   1.397  0.2938 -0.6797 -2.3987
  157MOL0     H20664   6.238   3.111   1.482 -0.2386 -2.3156  0.3308
  157MOL0     H20665   6.137   3.053   1.261 -2.8192  2.3384  1.6759
  157MOL0     H20666   6.255   3.151   1.172 -0.6205  0.7270 -0.5740
  157MOL0     H20667   6.175   3.352   1.248  0.7513 -1.0043 -3.4315
  157MOL0     H20668   6.064   3.249   1.161 -0.8905  0.8092  0.3770
  157MOL0     H20669   6.083   3.282   1.477 -2.7508  1.6662  0.8101
  157MOL0     H20670   6.008   3.139   1.404 -3.4141  1.4251  0.2393
  157MOL0     H20671   5.845   3.292   1.284  1.4551  0.8849 -1.6556
  157MOL0     H20672   5.919   3.432   1.360 -1.9151  0.8373  0.3192
  157MOL0     H20673   5.819   3.178   1.501  1.0405 -0.3129 -1.3649
  157MOL0     H20674   5.871   3.325   1.594  0.6360 -0.3697 -0.6591
  157MOL0     H20675   5.651   3.435   1.507 -0.3503 -0.3096 -0.7112
  157MOL0     H20676   5.639   3.293   1.618 -1.2852 -2.4976 -0.6686
  157MOL0     H20677   5.589   3.052   1.503 -3.6217  1.8516  2.6983
  157MOL0     H20678   5.425   3.000   1.160 -1.6877  2.5291  2.3628
  157MOL0     H20679   5.409   2.926   1.325 -1.2448  2.0164  0.6676
  157MOL0     H20680   5.630   2.834   1.315  0.0267 -0.9602 -0.8942
  157MOL0     H20681   5.673   2.911   1.159  2.0276 -1.9984 -0.7036
  157MOL0     H20682   5.526   2.772   1.044 -1.0767  0.1253 -0.1519
  157MOL0     H20683   5.635   2.674   1.140  0.4060  0.9046  0.9440
  157MOL0     H20684   5.394   2.589   1.137 -0.7932 -1.9211 -0.2884
  157MOL0     H20685   5.350   2.742   1.209  1.1384  1.4086 -0.5054
  157MOL0     H20686   5.475   2.479   1.557 -0.8513  3.0610  4.9437
  157MOL0     H20687   5.331   2.375   1.685  1.5964 -1.6394 -3.0516
  157MOL0     H20688   5.131   2.224   2.003 -0.0153 -1.0355  2.1873
  157MOL0     H20689   4.976   2.176   2.183  1.0267  0.2783 -1.7173
  157MOL0     H20690   4.555   2.153   2.281  0.6408  1.7870  2.6834
  157MOL0     H20691   4.545   2.192   2.115 -0.8842  1.2819  0.1697
  157MOL0     H20692   4.462   2.397   2.218 -0.2060  0.5507 -0.7720
  157MOL0     H20693   4.619   2.437   2.170  1.1872 -3.3079 -1.7260
  157MOL0     H20694   4.731   2.387   2.393 -0.2703  0.3065 -0.4600
  157MOL0     H20695   4.578   2.325   2.452 -3.0018  1.8613  1.8802
  157MOL0     H20696   4.622   2.617   2.375 -1.3960  0.1562  0.1876
  157MOL0     H20697   4.472   2.547   2.438 -0.7576  0.1807  2.2804
  157MOL0     H20698   4.751   2.547   2.549  0.5184  1.2725  4.2046
  157MOL0     H20699   4.628   2.461   2.623 -0.5400 -0.3445 -1.6696
  157MOL0     H20700   4.680   2.686   2.735 -0.6137 -1.1861 -0.1980
  157MOL0     H20701   4.515   2.689   2.673  0.1746  2.2265  0.3364
  157MOL0     H20702   4.748   2.810   2.501  0.3858 -0.3649 -0.0444
  157MOL0     H20703   4.581   2.828   2.480  1.3555 -2.2250 -0.8814
  157MOL0     H20704   4.589   2.973   2.706  0.3710  3.6547 -1.1275
  157MOL0     H20705   4.705   3.023   2.577  1.6967 -1.5159 -1.5797
  157MOL0     H20706   4.646   2.309   1.954 -0.3614 -3.2072  1.3561
  157MOL0     H20707   4.787   2.379   1.770  0.9478  0.7489  0.9980
  157MOL0     H20708   5.009   2.517   1.412  1.2718  2.3558 -1.4715
  157MOL0     H20709   5.187   2.605   1.264 -3.8247 -1.1984 -0.7419
  157MOL0     H20710   6.689   2.879   1.161 -0.3679  1.6370 -1.6204
  157MOL0     H20711   6.700   2.655   1.047  1.2168  1.1283  0.6197
  157MOL0     H20712   6.620   2.318   0.844  1.1407  0.7930  0.2227
  157MOL0     H20713   6.698   2.172   0.660  0.7704  1.1357  0.9535
  157MOL0     H20714   6.471   2.188   0.289  0.3989  1.1201  0.2074
  157MOL0     H20715   6.581   2.065   0.254  0.1002 -1.8611  3.4066
  157MOL0     H20716   6.646   2.362   0.236  2.3606 -1.6585  0.0799
  157MOL0     H20717   6.712   2.235   0.132  2.0568  1.5975 -0.5568
  157MOL0     H20718   6.593   2.378   0.023  0.8328  0.0299  1.2096
  157MOL0     H20719   6.443   2.371   0.123 -0.2278 -1.1843  0.2629
  157MOL0     H20720   6.508   2.206  -0.121 -2.1012  1.1731  0.2642
  157MOL0     H20721   6.535   2.100   0.005  0.0223 -0.5439 -2.7230
  157MOL0     H20722   6.118   2.154   0.017  1.0205 -0.6480  0.9656
  157MOL0     H20723   6.454   2.393   0.386 -1.5426 -1.0389  1.0148
  157MOL0     H20724   6.408   2.559   0.570  1.3522  0.1984 -3.1338
  158MOL0     O20725   1.101   3.575   7.979 -0.4154  0.5065  0.5109
  158MOL0     C20726   1.022   3.491   8.018  0.0884  0.5966  0.8332
  158MOL0     O20727   1.043   3.359   8.036  0.7710  0.1376  0.8750
  158MOL0     C20728   1.155   3.283   7.997 -0.0524  0.0509  0.7302
  158MOL0     C20729   1.276   3.335   7.939  0.1562 -0.3881 -0.4572
  158MOL0     C20730   1.388   3.262   7.931 -0.4214  0.1920  0.3327
  158MOL0     C20731   1.388   3.126   7.976  1.2900 -0.4570  0.6903
  158MOL0     O20732   1.493   3.053   7.950 -0.7879  0.6459 -0.4802
  158MOL0     C20733   1.574   2.973   8.038  0.7804  0.7039  0.3304
  158MOL0     C20734   1.655   2.881   7.947 -0.6564  0.0153 -0.6747
  158MOL0     C20735   1.765   2.781   8.012 -0.6791  0.2226  0.2739
  158MOL0     C20736   1.859   2.720   7.892  0.7016  0.0683  0.2328
  158MOL0     C20737   1.895   2.570   7.924 -0.0190 -0.4666  0.1078
  158MOL0     C20738   1.767   2.494   7.885 -0.2565  0.6265 -0.0738
  158MOL0     C20739   1.738   2.477   7.736 -0.8995 -0.1515  0.7782
  158MOL0     C20740   1.629   2.384   7.716  0.9542 -0.9841 -0.1102
  158MOL0     N20741   1.508   2.439   7.790 -0.4888 -0.0418 -0.3585
  158MOL0     C20742   1.417   2.517   7.729 -0.4839  0.5348 -0.2215
  158MOL0     C20743   1.313   2.528   7.812  0.1085  0.1291  0.3223
  158MOL0     C20744   1.186   2.584   7.776 -0.1623 -0.6714 -0.7918
  158MOL0     C20745   1.095   2.472   7.720  0.6100  0.1155  0.0780
  158MOL0     C20746   1.027   2.383   7.816 -0.4279  0.7880 -0.4339
  158MOL0     C20747   0.931   2.434   7.930 -0.3112 -0.4675  0.8445
  158MOL0     O20748   0.873   2.563   7.887  0.0963 -0.7181 -0.0208
  158MOL0     C20749   0.843   2.660   7.977 -0.4026 -0.5749 -0.0679
  158MOL0     C20750   0.845   2.633   8.119  0.0313 -0.5610  1.1500
  158MOL0     C20751   0.835   2.737   8.208 -0.0842  1.1777  0.8063
  158MOL0     C20752   0.809   2.871   8.169 -0.7110 -0.2622  0.0353
  158MOL0     C20753   0.790   2.978   8.270 -0.2697  0.1995  1.8262
  158MOL0     O20754   0.748   3.099   8.223  0.5219 -0.3059 -0.1960
  158MOL0     C20755   0.732   3.205   8.318  0.1271  0.2540  0.8051
  158MOL0     C20756   0.641   3.211   8.428  1.0350 -0.8654 -0.6401
  158MOL0     C20757   0.645   3.306   8.532  0.3950 -0.0816 -0.2471
  158MOL0     C20758   0.740   3.408   8.535  0.2823  0.2023  0.4255
  158MOL0     O20759   0.737   3.501   8.639  0.2130  0.4268  0.3595
  158MOL0     C20760   0.801   3.623   8.620  0.7449  0.1322  0.0501
  158MOL0     C20761   0.779   3.721   8.729 -0.4122  0.5783  0.1595
  158MOL0     C20762   0.635   3.777   8.747 -0.3715  0.8794 -0.0913
  158MOL0     C20763   0.530   3.685   8.810 -0.2426 -0.7979 -0.0820
  158MOL0     C20764   0.423   3.770   8.861  0.8426  0.2207  0.1469
  158MOL0     C20765   0.294   3.695   8.891  0.8028 -0.1148  0.5541
  158MOL0     C20766   0.183   3.793   8.846 -0.8469  0.0420  0.9401
  158MOL0     C20767   0.054   3.761   8.908  0.5565  0.0553  0.4480
  158MOL0    Cl20768   0.004   3.589   8.864  0.3991 -0.1228  0.1292
  158MOL0     C20769   0.832   3.406   8.429  0.1887  0.0574  0.1553
  158MOL0     C20770   0.839   3.305   8.332 -0.0613  0.7599  0.2570
  158MOL0     O20771   0.815   2.958   8.389 -0.2461  0.4378 -0.2780
  158MOL0     C20772   0.793   2.896   8.034  0.1100  0.2962 -0.2649
  158MOL0     C20773   0.824   2.792   7.939 -0.5747 -0.2804  0.1998
  158MOL0     N20774   1.334   2.457   7.927 -0.7015  0.6611  0.5213
  158MOL0     N20775   1.445   2.395   7.908 -0.3259  0.0016 -0.3221
  158MOL0     C20776   1.268   3.072   8.022  0.1798  0.8416 -0.1113
  158MOL0     C20777   1.146   3.149   8.028 -0.6087 -0.4656 -0.1209
  158MOL0     C20778   0.895   3.547   8.058  0.1240  0.2801 -0.5224
  158MOL0     C20779   0.877   3.678   8.098 -0.0512  0.2980  0.2595
  158MOL0     C20780   0.748   3.723   8.137  0.2308  0.0612  0.6999
  158MOL0     C20781   0.638   3.638   8.132  0.4099 -0.4962  0.3516
  158MOL0     O20782   0.510   3.662   8.154  0.2988  0.0833 -0.1846
  158MOL0     C20783   0.476   3.719   8.283  0.1641 -0.6109  0.4663
  158MOL0     C20784   0.357   3.654   8.349 -0.6876 -0.1813 -0.2873
  158MOL0     C20785   0.364   3.496   8.359 -0.4858 -0.5639  0.3847
  158MOL0     C20786   0.319   3.442   8.495 -0.6735 -0.4206  0.9460
  158MOL0     C20787   0.197   3.504   8.537  0.7740  1.0152  0.6517
  158MOL0     C20788   0.090   3.547   8.536  0.3123 -0.1856 -0.4224
  158MOL0     C20789   0.659   3.508   8.097 -0.6831  0.1977 -0.4310
  158MOL0     C20790   0.788   3.462   8.058  0.3009 -0.3615 -0.4441
  158MOL0     H20791   1.279   3.437   7.901  1.4090 -0.0930  0.3671
  158MOL0     H20792   1.473   3.322   7.899 -1.4146  1.0521 -0.8121
  158MOL0     H20793   1.515   2.909   8.104  0.3285 -1.6046 -2.1411
  158MOL0     H20794   1.650   3.035   8.088 -0.8667  0.3665  3.4777
  158MOL0     H20795   1.714   2.936   7.874  0.7412  0.2852  0.6076
  158MOL0     H20796   1.580   2.830   7.885  0.3320 -0.9202 -1.1243
  158MOL0     H20797   1.712   2.699   8.062  0.5327 -1.1087 -0.5766
  158MOL0     H20798   1.822   2.842   8.083 -0.6068 -2.4656  2.7025
  158MOL0     H20799   1.824   2.734   7.789  1.2000 -1.9018 -0.2445
  158MOL0     H20800   1.948   2.782   7.900  1.9744 -1.5582 -0.7341
  158MOL0     H20801   1.912   2.564   8.032 -0.0311  0.8219  0.1964
  158MOL0     H20802   1.971   2.514   7.868 -1.3657 -2.4305  0.1354
  158MOL0     H20803   1.680   2.549   7.922  0.3450  0.9755  0.8679
  158MOL0     H20804   1.761   2.401   7.943 -1.1178 -1.6434 -3.4983
  158MOL0     H20805   1.732   2.571   7.682  3.5112  0.0678  0.2894
  158MOL0     H20806   1.828   2.430   7.695 -2.2964 -0.6594 -1.8723
  158MOL0     H20807   1.646   2.281   7.749 -2.7474 -2.4734 -2.1928
  158MOL0     H20808   1.608   2.373   7.609 -4.2781 -0.3235  0.5648
  158MOL0     H20809   1.420   2.549   7.626 -3.0675 -1.3358 -0.9739
  158MOL0     H20810   1.193   2.669   7.708 -2.9998  0.5510  0.2795
  158MOL0     H20811   1.143   2.621   7.870  3.1482  1.0542  0.1833
  158MOL0     H20812   1.157   2.416   7.648 -0.5616  1.8298 -2.4046
  158MOL0     H20813   1.023   2.529   7.661 -0.3428 -0.4351  0.6912
  158MOL0     H20814   0.968   2.322   7.747  1.3087 -1.3216 -0.1521
  158MOL0     H20815   1.098   2.314   7.862 -0.3615  0.8910 -0.3812
  158MOL0     H20816   0.983   2.440   8.026  0.5233  2.9104  0.3199
  158MOL0     H20817   0.848   2.363   7.928 -2.0906  1.5071 -0.1776
  158MOL0     H20818   0.854   2.533   8.162 -2.6667 -2.6521 -2.5920
  158MOL0     H20819   0.843   2.710   8.313 -0.9663 -0.2977  0.5206
  158MOL0     H20820   0.556   3.146   8.445 -1.0801  1.6320 -1.1058
  158MOL0     H20821   0.563   3.304   8.603 -2.7874  0.9884 -3.5595
  158MOL0     H20822   0.768   3.667   8.526 -1.7380  0.7893  1.1571
  158MOL0     H20823   0.908   3.601   8.610  1.2237  1.8484  0.9806
  158MOL0     H20824   0.837   3.812   8.712  1.9629 -0.9156 -0.2246
  158MOL0     H20825   0.819   3.669   8.816 -3.1575  0.7798  1.6388
  158MOL0     H20826   0.592   3.805   8.650  0.0552  2.1904  0.0722
  158MOL0     H20827   0.635   3.871   8.804  0.1129  0.1275  1.1851
  158MOL0     H20828   0.488   3.611   8.741 -2.3893 -0.2618  0.5499
  158MOL0     H20829   0.578   3.637   8.896 -0.6135  3.0130  2.5537
  158MOL0     H20830   0.397   3.839   8.781 -1.5940 -1.6941 -0.8403
  158MOL0     H20831   0.454   3.824   8.951  0.0423 -0.1672  0.6739
  158MOL0     H20832   0.286   3.672   8.998  2.2421 -0.0551  0.6964
  158MOL0     H20833   0.276   3.606   8.831 -1.7774  1.3865 -1.1241
  158MOL0     H20834   0.202   3.898   8.868 -0.5792  0.7691 -2.2130
  158MOL0     H20835   0.176   3.781   8.737  2.6547 -1.4942  0.7654
  158MOL0     H20836  -0.017   3.833   8.866  1.7399 -0.4029 -2.6324
  158MOL0     H20837   0.066   3.771   9.016 -1.9677 -1.0556  0.9051
  158MOL0     H20838   0.914   3.478   8.431 -0.7899  1.2761 -1.3824
  158MOL0     H20839   0.931   3.296   8.275  0.7539 -2.8397  1.8297
  158MOL0     H20840   0.762   2.995   8.003  1.0982 -0.2714 -3.3881
  158MOL0     H20841   0.836   2.820   7.835  0.4612 -3.4666 -0.6626
  158MOL0     H20842   1.257   2.968   8.050 -1.6872  0.7747 -0.9921
  158MOL0     H20843   1.049   3.108   8.054 -0.5966 -0.6133 -0.3079
  158MOL0     H20844   0.964   3.743   8.095 -0.8209  1.5219 -4.9396
  158MOL0     H20845   0.730   3.824   8.171 -0.7666 -0.1296  0.7741
  158MOL0     H20846   0.458   3.825   8.264 -1.1557 -1.0053 -0.6206
  158MOL0     H20847   0.568   3.710   8.341  0.5803 -2.7998 -0.4280
  158MOL0     H20848   0.332   3.697   8.446 -2.1369 -2.3894  0.4000
  158MOL0     H20849   0.274   3.690   8.287 -1.3593 -1.4933 -0.2028
  158MOL0     H20850   0.465   3.463   8.334 -1.8832 -2.8624 -3.0412
  158MOL0     H20851   0.300   3.464   8.275  1.1182  0.8603 -1.4665
  158MOL0     H20852   0.312   3.332   8.494 -1.4438 -0.3788  0.9624
  158MOL0     H20853   0.403   3.466   8.560  0.2040 -0.1146 -0.2636
  158MOL0     H20854  -0.003   3.600   8.538  1.0995  1.3113  2.7007
  158MOL0     H20855   0.578   3.435   8.106  0.9741 -1.7118 -0.3592
  158MOL0     H20856   0.794   3.356   8.038 -1.5475 -0.9284  1.6187
  159MOL0     O20857   0.670   6.351   1.879 -0.0112 -0.5348  0.6409
  159MOL0     C20858   0.767   6.415   1.913 -1.0749  0.3749 -0.1187
  159MOL0     O20859   0.855   6.488   1.838 -0.0619 -0.3889  0.4029
  159MOL0     C20860   0.825   6.541   1.714 -0.5172 -0.4149 -0.3505
  159MOL0     C20861   0.717   6.625   1.696  0.1588  0.3109 -0.2227
  159MOL0     C20862   0.691   6.684   1.571  0.1821  0.2336  0.4346
  159MOL0     C20863   0.780   6.659   1.462  1.0894 -0.5428  0.0454
  159MOL0     O20864   0.727   6.716   1.348  0.1401 -0.8404  0.0546
  159MOL0     C20865   0.785   6.691   1.213  0.1191  0.9767 -0.5119
  159MOL0     C20866   0.749   6.793   1.104  0.7849  0.1766 -0.5899
  159MOL0     C20867   0.832   6.771   0.981  0.4259 -0.0051  0.5981
  159MOL0     C20868   0.780   6.865   0.867 -0.0161  0.8618 -0.6516
  159MOL0     C20869   0.836   6.828   0.731 -0.1850 -0.3119  0.1793
  159MOL0     C20870   0.801   6.929   0.626  0.2175  0.6899 -1.0188
  159MOL0     C20871   0.881   7.055   0.648 -0.9306  0.5525  0.4009
  159MOL0     C20872   0.845   7.161   0.539 -0.4755 -1.1117  0.6612
  159MOL0     N20873   0.704   7.208   0.530 -0.1590 -0.3280  0.2901
  159MOL0     C20874   0.656   7.323   0.595  0.6522  0.5633  0.1718
  159MOL0     C20875   0.529   7.349   0.554 -0.7657  0.8544  1.0460
  159MOL0     C20876   0.444   7.458   0.600 -0.2647 -0.1966 -0.0976
  159MOL0     C20877   0.395   7.548   0.482 -0.6348 -0.1049 -0.4962
  159MOL0     C20878   0.361   7.693   0.535 -0.6415  0.7484 -0.5762
  159MOL0     C20879   0.257   7.759   0.443  0.0130 -0.0812  0.4192
  159MOL0     O20880   0.207   7.871   0.506 -1.1459 -0.7866 -0.0495
  159MOL0     C20881   0.075   7.916   0.501 -0.1236  0.1788  0.8734
  159MOL0     C20882   0.001   7.952   0.615 -0.0422 -1.0673  0.8134
  159MOL0     C20883  -0.129   7.985   0.609  0.7318 -0.0020 -0.6717
  159MOL0     C20884  -0.195   7.989   0.493 -0.2089 -1.2747  1.0077
  159MOL0     C20885  -0.343   8.028   0.477  1.1577 -0.0262  0.1963
  159MOL0     O20886  -0.399   8.054   0.351 -0.2535 -0.2529 -0.3163
  159MOL0     C20887  -0.535   8.074   0.342 -0.5926 -0.5829 -0.8990
  159MOL0     C20888  -0.604   8.190   0.403  0.6130 -0.7229 -0.2032
  159MOL0     C20889  -0.753   8.193   0.382  0.6103  0.1971  1.0576
  159MOL0     C20890  -0.813   8.109   0.289  0.8790 -0.4253  0.8391
  159MOL0     O20891  -0.951   8.117   0.268  0.4158  0.0516  0.1152
  159MOL0     C20892  -0.996   8.242   0.219 -0.8691 -0.9117  0.2366
  159MOL0     C20893  -1.134   8.235   0.149 -0.0912  0.0560  0.0940
  159MOL0     C20894  -1.125   8.139   0.025  1.6507 -0.2437  0.0978
  159MOL0     C20895  -1.270   8.087   0.002  0.5528  0.9324 -0.3405
  159MOL0     C20896  -1.317   7.983   0.105 -0.1045  0.6914 -0.8156
  159MOL0     C20897  -1.229   7.858   0.119 -0.9272  0.2558  0.4645
  159MOL0     C20898  -1.298   7.750   0.212 -1.0382  0.1901 -0.4802
  159MOL0     C20899  -1.195   7.637   0.213 -0.7025 -1.0794 -0.0661
  159MOL0    Cl20900  -1.255   7.507   0.306 -0.3988  0.2585  0.1609
  159MOL0     C20901  -0.739   8.013   0.217 -0.0441 -0.3895 -0.8405
  159MOL0     C20902  -0.600   7.996   0.245  0.0670  0.1310  0.6287
  159MOL0     O20903  -0.402   8.045   0.581  1.1430  0.8129  0.3532
  159MOL0     C20904  -0.130   7.962   0.367 -1.5719  0.2973 -0.5850
  159MOL0     C20905   0.002   7.921   0.375 -0.0478  0.4424 -0.5402
  159MOL0     N20906   0.507   7.245   0.452  0.1678  0.9808  0.5356
  159MOL0     N20907   0.607   7.159   0.450  0.1457 -0.3712  0.0708
  159MOL0     C20908   0.895   6.568   1.483 -0.0292 -0.3412 -0.1419
  159MOL0     C20909   0.913   6.518   1.608  0.2634  0.3007 -0.0775
  159MOL0     C20910   0.794   6.406   2.058  0.5143 -0.2124 -0.1998
  159MOL0     C20911   0.909   6.467   2.105  0.2561 -0.0388 -0.9273
  159MOL0     C20912   0.950   6.460   2.235 -0.3008  0.1307 -0.7335
  159MOL0     C20913   0.876   6.398   2.331 -0.3202 -0.1498 -0.4697
  159MOL0     O20914   0.927   6.399   2.460 -0.1385  0.0713  0.8139
  159MOL0     C20915   0.847   6.335   2.555 -0.6042  0.9000 -0.3451
  159MOL0     C20916   0.937   6.322   2.686  0.0685  0.4970  0.9112
  159MOL0     C20917   1.046   6.219   2.641 -0.2370 -0.6736  0.0479
  159MOL0     C20918   1.151   6.173   2.756  0.1833 -0.3030 -0.6276
  159MOL0     C20919   1.269   6.259   2.761  0.2189 -0.9747  0.0985
  159MOL0     C20920   1.368   6.337   2.777 -0.7903 -0.1287  0.3247
  159MOL0     C20921   0.753   6.344   2.286  0.3709  0.1428 -0.5389
  159MOL0     C20922   0.711   6.341   2.152 -1.1353  0.3502 -0.3543
  159MOL0     H20923   0.640   6.645   1.771  1.0138 -0.1357  0.7968
  159MOL0     H20924   0.606   6.751   1.563 -2.4119 -2.6856  1.5364
  159MOL0     H20925   0.765   6.592   1.170 -1.8376  0.6418  0.9816
  159MOL0     H20926   0.891   6.694   1.239 -0.0831 -0.7833  0.6997
  159MOL0     H20927   0.760   6.893   1.148  0.8348  0.8599 -2.0989
  159MOL0     H20928   0.645   6.779   1.072  0.4661 -2.8183  1.3108
  159MOL0     H20929   0.822   6.673   0.934  1.1147  0.2804 -0.1718
  159MOL0     H20930   0.935   6.797   1.006  1.2143 -1.2759 -1.1082
  159MOL0     H20931   0.673   6.846   0.869  0.4250 -2.4256  3.0913
  159MOL0     H20932   0.799   6.964   0.910  1.3563 -0.8857  3.2940
  159MOL0     H20933   0.786   6.732   0.717  0.7960 -1.2121  2.3230
  159MOL0     H20934   0.942   6.803   0.746 -0.2359  0.4814  2.1033
  159MOL0     H20935   0.697   6.960   0.635  0.0439 -0.0931 -0.2740
  159MOL0     H20936   0.828   6.893   0.526 -3.6988  0.9082 -2.3009
  159MOL0     H20937   0.870   7.102   0.747 -2.3745  1.5780 -0.2044
  159MOL0     H20938   0.986   7.039   0.623 -1.4466  1.3603 -2.6691
  159MOL0     H20939   0.884   7.131   0.441 -0.9710 -0.7934  0.3597
  159MOL0     H20940   0.903   7.247   0.572  0.2627 -1.3627  0.0538
  159MOL0     H20941   0.711   7.389   0.661  0.2978  1.2171 -0.1749
  159MOL0     H20942   0.494   7.511   0.682 -2.2295 -1.6043  2.1612
  159MOL0     H20943   0.354   7.411   0.642  0.1537 -1.7925 -0.9255
  159MOL0     H20944   0.305   7.506   0.436  1.0226 -1.3670 -2.7694
  159MOL0     H20945   0.468   7.566   0.403 -0.9961  3.0032 -0.2349
  159MOL0     H20946   0.319   7.680   0.634 -0.0605 -2.7711 -0.6488
  159MOL0     H20947   0.453   7.751   0.548 -0.3076 -0.1951  1.6022
  159MOL0     H20948   0.172   7.696   0.416 -0.0475 -0.6467  1.8397
  159MOL0     H20949   0.299   7.776   0.344  3.3991 -3.0780  1.1473
  159MOL0     H20950   0.041   7.955   0.716 -0.2113 -3.0568  0.9890
  159MOL0     H20951  -0.186   8.024   0.693  0.5351  0.0124 -0.8127
  159MOL0     H20952  -0.558   8.258   0.474 -0.6031  1.8413 -1.7568
  159MOL0     H20953  -0.828   8.257   0.427 -1.2209 -1.6993  0.8562
  159MOL0     H20954  -0.923   8.292   0.155 -1.1528 -1.9146 -0.8940
  159MOL0     H20955  -0.993   8.312   0.303 -1.0577  1.2156 -1.4401
  159MOL0     H20956  -1.164   8.334   0.114 -0.3403  0.4469  1.3468
  159MOL0     H20957  -1.208   8.209   0.225  0.8469  3.2106  2.3226
  159MOL0     H20958  -1.058   8.052   0.028 -1.1262 -2.6426 -1.5715
  159MOL0     H20959  -1.089   8.201  -0.057 -0.4225  0.8222 -0.0761
  159MOL0     H20960  -1.344   8.168   0.001  0.6474  1.0345 -1.6331
  159MOL0     H20961  -1.277   8.042  -0.098 -1.5502 -0.5661  0.4103
  159MOL0     H20962  -1.417   7.946   0.082  0.6026 -0.9247 -1.3852
  159MOL0     H20963  -1.330   8.039   0.198  2.2028  1.7595 -1.0708
  159MOL0     H20964  -1.134   7.900   0.154  0.6772  0.3245 -3.4675
  159MOL0     H20965  -1.209   7.817   0.019  0.5877 -1.9094  1.5578
  159MOL0     H20966  -1.310   7.786   0.315  1.4711  1.1442 -0.4336
  159MOL0     H20967  -1.388   7.719   0.158 -0.6484 -1.5411 -0.1983
  159MOL0     H20968  -1.095   7.662   0.251 -1.8814 -0.7855  3.1160
  159MOL0     H20969  -1.203   7.612   0.106 -2.8002 -0.7740 -0.0226
  159MOL0     H20970  -0.790   7.947   0.148  1.7250 -3.2213  0.3651
  159MOL0     H20971  -0.539   7.922   0.194 -2.7739 -1.9379 -0.0410
  159MOL0     H20972  -0.179   7.985   0.273 -3.2579 -1.9496 -0.3359
  159MOL0     H20973   0.056   7.904   0.282  0.4132  1.4425 -0.4699
  159MOL0     H20974   0.962   6.529   1.407 -0.5703  0.2614 -0.9582
  159MOL0     H20975   0.991   6.449   1.639 -0.1562  1.1649  3.3182
  159MOL0     H20976   0.977   6.514   2.035  1.9180 -1.4888 -0.3589
  159MOL0     H20977   1.044   6.502   2.269 -0.9631  0.3360  0.9667
  159MOL0     H20978   0.836   6.229   2.530  4.2405  0.0635  0.2290
  159MOL0     H20979   0.757   6.392   2.578 -2.1838 -0.0383 -3.5531
  159MOL0     H20980   0.987   6.409   2.731  0.1551 -0.3313  2.4965
  159MOL0     H20981   0.874   6.279   2.765  0.4624  1.1769  1.6187
  159MOL0     H20982   1.095   6.254   2.550 -1.3999  1.0774  0.0528
  159MOL0     H20983   0.982   6.136   2.610 -0.0864 -0.5937 -0.4884
  159MOL0     H20984   1.111   6.161   2.857  0.7933 -0.9534 -0.4497
  159MOL0     H20985   1.184   6.071   2.734  0.3774 -0.8014  1.7360
  159MOL0     H20986   1.448   6.408   2.766  1.0716 -1.5459  3.1336
  159MOL0     H20987   0.690   6.300   2.363  2.7094 -0.9473  0.8481
  159MOL0     H20988   0.623   6.286   2.121 -1.0527  0.3723 -0.6304
  160MOL0     O20989  10.977   2.144   6.433  0.5276 -0.4283  0.6856
  160MOL0     C20990  11.008   2.261   6.462 -0.5969 -1.2655  0.4785
  160MOL0     O20991  11.057   2.360   6.377 -0.3697 -0.0125  0.1312
  160MOL0     C20992  11.082   2.329   6.239 -0.3796 -0.5819  0.3029
  160MOL0     C20993  11.073   2.436   6.153  0.1341  0.1204 -0.1022
  160MOL0     C20994  11.075   2.429   6.016 -0.0829  0.3135 -0.5313
  160MOL0     C20995  11.092   2.307   5.948  0.4112  0.0036 -0.5050
  160MOL0     O20996  11.105   2.321   5.803  0.1906  0.3909  0.5801
  160MOL0     C20997  11.127   2.194   5.738  0.1012  0.0813 -0.4348
  160MOL0     C20998  11.265   2.127   5.751 -0.2443 -0.3233  0.4712
  160MOL0     C20999  11.272   1.999   5.666 -0.7272 -0.2913  0.6218
  160MOL0     C21000  11.406   1.932   5.699 -0.0702  0.4615  0.6163
  160MOL0     C21001  11.428   1.808   5.620 -0.5069  0.1422 -0.1235
  160MOL0     C21002  11.418   1.826   5.465  0.2082  0.5913 -0.3218
  160MOL0     C21003  11.461   1.710   5.381 -0.9799 -0.1706  0.9114
  160MOL0     C21004  11.376   1.592   5.385  0.4409 -0.1889  0.0824
  160MOL0     N21005  11.242   1.629   5.326 -0.1360 -0.5754  0.4513
  160MOL0     C21006  11.129   1.661   5.403  0.7273 -0.8481  0.5422
  160MOL0     C21007  11.027   1.685   5.312 -0.3970  0.1242  0.0042
  160MOL0     C21008  10.898   1.750   5.339 -0.6711  0.6621  0.4431
  160MOL0     C21009  10.818   1.684   5.451  0.0261 -0.0237  0.7411
  160MOL0     C21010  10.758   1.537   5.420 -0.6187  0.1235 -0.8242
  160MOL0     C21011  10.657   1.523   5.309 -0.7643 -0.0839 -0.6101
  160MOL0     O21012  10.598   1.394   5.295  0.5279 -0.4030 -0.4201
  160MOL0     C21013  10.482   1.373   5.369 -0.2695 -0.0287  0.0486
  160MOL0     C21014  10.447   1.446   5.479  0.9448  0.0413 -0.6232
  160MOL0     C21015  10.325   1.419   5.543 -0.2600 -0.4292  0.3844
  160MOL0     C21016  10.242   1.315   5.503 -0.0759 -0.0910 -0.2929
  160MOL0     C21017  10.103   1.278   5.554  0.2818  0.5113 -0.5569
  160MOL0     O21018  10.041   1.171   5.503  0.1997 -0.3260 -0.3839
  160MOL0     C21019   9.903   1.157   5.507  0.0508  0.0134 -0.2146
  160MOL0     C21020   9.810   1.258   5.489 -0.1460  0.1929 -0.0447
  160MOL0     C21021   9.670   1.227   5.479  0.4437  0.9541  0.6083
  160MOL0     C21022   9.622   1.098   5.481 -0.0106  0.4217 -0.4953
  160MOL0     O21023   9.491   1.060   5.455  0.1642  0.4083  0.7207
  160MOL0     C21024   9.429   1.142   5.358  0.0096 -0.4071 -0.1746
  160MOL0     C21025   9.322   1.230   5.419  0.0609 -0.3689  0.3616
  160MOL0     C21026   9.266   1.179   5.547  0.3955  0.0805 -0.3684
  160MOL0     C21027   9.133   1.247   5.597 -0.1557 -0.3674 -0.8881
  160MOL0     C21028   9.003   1.212   5.533  0.4876  0.6246  0.7730
  160MOL0     C21029   8.966   1.058   5.540 -0.1419 -0.2107 -0.3627
  160MOL0     C21030   8.813   1.041   5.510 -0.7055  0.0316  0.2215
  160MOL0     C21031   8.773   1.082   5.371 -0.1623 -0.3001  0.5243
  160MOL0    Cl21032   8.844   0.969   5.249  0.1488  0.1901  0.0163
  160MOL0     C21033   9.714   1.000   5.496  0.0729  0.0969  0.4511
  160MOL0     C21034   9.855   1.024   5.505 -0.5753 -0.8525  0.8276
  160MOL0     O21035  10.049   1.368   5.611 -0.3738 -0.4995 -0.0343
  160MOL0     C21036  10.282   1.246   5.389  0.5160  0.2979  0.1825
  160MOL0     C21037  10.398   1.281   5.322  0.0896  0.5368  1.0242
  160MOL0     N21038  11.087   1.671   5.185  0.3459 -0.4027 -0.0525
  160MOL0     N21039  11.210   1.627   5.192 -0.0019 -0.4269 -0.7315
  160MOL0     C21040  11.097   2.194   6.035 -0.1586 -0.4252 -0.4177
  160MOL0     C21041  11.095   2.203   6.173 -0.6782 -0.2445 -0.5312
  160MOL0     C21042  11.007   2.312   6.605  0.1611  0.7038  0.4374
  160MOL0     C21043  11.024   2.209   6.701 -0.0682 -0.6650  0.0085
  160MOL0     C21044  11.014   2.241   6.834  0.8410 -0.0725 -0.5134
  160MOL0     C21045  11.000   2.384   6.872 -0.7772  0.1583  0.6810
  160MOL0     O21046  10.979   2.434   6.995 -0.3622  0.8135 -0.1635
  160MOL0     C21047  10.974   2.347   7.113  0.3207  0.5853  0.6274
  160MOL0     C21048  10.886   2.415   7.227  0.1656 -0.5278 -0.7744
  160MOL0     C21049  10.746   2.375   7.215 -0.4421 -0.6409 -1.1251
  160MOL0     C21050  10.685   2.282   7.323 -0.1624  0.0355 -0.2840
  160MOL0     C21051  10.544   2.284   7.336 -0.4308  0.8137 -0.6228
  160MOL0     C21052  10.428   2.269   7.339 -0.2767 -1.0198 -0.8742
  160MOL0     C21053  11.007   2.484   6.775 -0.5451  0.5474 -0.8118
  160MOL0     C21054  11.001   2.445   6.641  0.8780  0.7374 -0.3673
  160MOL0     H21055  11.071   2.536   6.195 -0.4116  0.4449 -0.8865
  160MOL0     H21056  11.048   2.516   5.956  1.5067 -0.1368 -1.9974
  160MOL0     H21057  11.119   2.216   5.632 -1.6734  3.1894  0.2436
  160MOL0     H21058  11.053   2.121   5.773  0.5355  0.1169  0.6145
  160MOL0     H21059  11.292   2.103   5.854  0.3654  0.5820  0.5332
  160MOL0     H21060  11.342   2.201   5.728  0.7850 -1.4831  0.0890
  160MOL0     H21061  11.284   2.033   5.563  1.1125  3.3633  1.8789
  160MOL0     H21062  11.185   1.933   5.674 -0.3409 -0.6878  1.7383
  160MOL0     H21063  11.485   2.007   5.696 -1.6749  2.2265  0.4196
  160MOL0     H21064  11.390   1.902   5.803  3.6716 -0.3528  1.1005
  160MOL0     H21065  11.358   1.732   5.656  0.9672 -1.1285  0.1702
  160MOL0     H21066  11.530   1.776   5.643 -0.3971  0.7213  0.2156
  160MOL0     H21067  11.469   1.918   5.435 -0.8134  2.7394  3.7970
  160MOL0     H21068  11.317   1.856   5.435  0.2629  2.4705  1.2131
  160MOL0     H21069  11.460   1.740   5.276 -1.1810  0.2608  1.0371
  160MOL0     H21070  11.565   1.685   5.402  0.4036  1.0241 -3.3963
  160MOL0     H21071  11.359   1.553   5.486  0.2633 -0.8855 -0.2186
  160MOL0     H21072  11.426   1.518   5.322 -1.4558 -1.4918  0.0388
  160MOL0     H21073  11.126   1.663   5.511  0.0279 -4.3950  0.7387
  160MOL0     H21074  10.847   1.731   5.244  1.5694 -2.2841 -0.3431
  160MOL0     H21075  10.919   1.855   5.360 -0.1956  0.3479  1.6366
  160MOL0     H21076  10.741   1.759   5.469 -1.5053 -1.1716 -0.6253
  160MOL0     H21077  10.890   1.698   5.532  2.2221 -2.7478 -0.5659
  160MOL0     H21078  10.837   1.462   5.409 -0.3286  0.2297  0.4396
  160MOL0     H21079  10.699   1.496   5.503 -2.1134  0.3143 -1.7379
  160MOL0     H21080  10.715   1.550   5.220  0.0652  0.6730  0.1398
  160MOL0     H21081  10.585   1.601   5.334  0.2136  0.4619  0.6076
  160MOL0     H21082  10.507   1.527   5.519 -0.7142  1.2799 -0.5450
  160MOL0     H21083  10.301   1.472   5.635  0.0764 -0.9992  0.8079
  160MOL0     H21084   9.836   1.363   5.486 -1.4395  0.5873  1.2185
  160MOL0     H21085   9.614   1.318   5.465  1.8184  1.6710 -0.4479
  160MOL0     H21086   9.371   1.078   5.290  0.2161 -1.4687  0.6151
  160MOL0     H21087   9.491   1.196   5.286 -2.9476  1.3984 -1.5438
  160MOL0     H21088   9.257   1.256   5.335  1.4700  1.9020 -0.1157
  160MOL0     H21089   9.366   1.328   5.440  2.1439 -0.6662 -2.1562
  160MOL0     H21090   9.348   1.201   5.616 -0.9991  4.1468  0.2509
  160MOL0     H21091   9.249   1.071   5.552  1.3383 -0.0431  0.6733
  160MOL0     H21092   9.112   1.225   5.702 -3.9627  0.5585 -1.3354
  160MOL0     H21093   9.148   1.355   5.604 -2.4713 -0.1235  2.7784
  160MOL0     H21094   9.006   1.259   5.434 -1.7294  1.5474  1.0780
  160MOL0     H21095   8.931   1.263   5.598  0.8703  2.2645 -0.0349
  160MOL0     H21096   8.991   1.024   5.641  0.4671  1.0443 -0.0692
  160MOL0     H21097   9.018   1.003   5.461 -0.6473 -0.5990 -0.4275
  160MOL0     H21098   8.818   0.932   5.510  4.4594  0.0028 -1.5756
  160MOL0     H21099   8.753   1.092   5.585 -1.8921 -0.8736 -0.0824
  160MOL0     H21100   8.821   1.179   5.357 -0.5543 -0.0613  0.7937
  160MOL0     H21101   8.669   1.113   5.354  0.3229  0.5259 -1.1400
  160MOL0     H21102   9.683   0.896   5.505  0.7354  0.0279  2.5430
  160MOL0     H21103   9.928   0.944   5.507  1.6943  1.0774 -0.4513
  160MOL0     H21104  10.221   1.162   5.354  2.9942 -0.9186 -1.5241
  160MOL0     H21105  10.410   1.237   5.224  1.2181  2.3441  0.2912
  160MOL0     H21106  11.103   2.091   6.002 -1.1347 -1.3848  2.1628
  160MOL0     H21107  11.104   2.112   6.232 -3.0766  1.2537  2.3945
  160MOL0     H21108  11.013   2.106   6.671 -3.8513 -0.5736  0.6628
  160MOL0     H21109  11.007   2.174   6.919 -4.2699  0.0062 -0.6054
  160MOL0     H21110  11.076   2.330   7.150  0.1092 -0.5637  0.7308
  160MOL0     H21111  10.947   2.242   7.098  2.5819  0.1465 -1.0019
  160MOL0     H21112  10.922   2.370   7.321  0.4925 -1.3362 -1.2766
  160MOL0     H21113  10.898   2.524   7.228 -1.8346 -0.1495 -4.3356
  160MOL0     H21114  10.731   2.322   7.120  0.1921  0.1058 -1.6554
  160MOL0     H21115  10.689   2.468   7.220  1.7581  0.7367  0.2740
  160MOL0     H21116  10.705   2.181   7.286 -0.6427  0.6771 -2.3996
  160MOL0     H21117  10.721   2.291   7.426  0.0053 -2.1266 -0.1013
  160MOL0     H21118  10.321   2.260   7.333 -1.0911  3.2291  1.9856
  160MOL0     H21119  11.007   2.591   6.795  0.9468  0.5217 -0.5414
  160MOL0     H21120  10.988   2.508   6.554 -4.3054  0.4514 -0.1046
  161MOL0     O21121   4.900   5.502  10.873  0.3382 -0.9604 -0.7591
  161MOL0     C21122   4.970   5.469  10.776  0.1813  0.6363 -0.2807
  161MOL0     O21123   4.943   5.362  10.689  0.1452  0.0355 -0.5920
  161MOL0     C21124   4.821   5.294  10.691  0.0943 -0.1176  0.1908
  161MOL0     C21125   4.753   5.285  10.574 -0.4529  0.0875 -0.4547
  161MOL0     C21126   4.643   5.207  10.563  0.3335  0.1654  0.3886
  161MOL0     C21127   4.594   5.143  10.678 -0.1159  0.3104 -0.1389
  161MOL0     O21128   4.497   5.049  10.679 -0.3845  0.2016 -0.5505
  161MOL0     C21129   4.372   5.096  10.638 -0.7584 -0.7554  0.2527
  161MOL0     C21130   4.256   5.016  10.689 -0.4130  0.3461 -0.1683
  161MOL0     C21131   4.265   5.007  10.839  0.0604 -0.2813 -0.0707
  161MOL0     C21132   4.275   5.142  10.913  0.9104 -0.4678  0.1190
  161MOL0     C21133   4.230   5.154  11.056 -0.1198 -0.4926 -0.0720
  161MOL0     C21134   4.083   5.106  11.078 -0.0687 -0.3969  0.8024
  161MOL0     C21135   4.044   5.134  11.227 -1.1199 -0.3772 -0.5202
  161MOL0     C21136   3.912   5.078  11.268 -0.2356  0.0601 -0.4596
  161MOL0     N21137   3.897   5.101  11.411  0.2650 -0.0148  0.3288
  161MOL0     C21138   3.851   5.225  11.455 -0.3862 -0.2584 -0.3554
  161MOL0     C21139   3.840   5.209  11.589  0.0446  0.2772 -1.3286
  161MOL0     C21140   3.798   5.323  11.670 -0.4824 -1.0987  1.0040
  161MOL0     C21141   3.694   5.288  11.774 -1.1498 -0.5610  0.3940
  161MOL0     C21142   3.566   5.223  11.707  0.0661  1.0153 -0.4659
  161MOL0     C21143   3.509   5.088  11.774 -0.2527  0.9553  0.4331
  161MOL0     O21144   3.384   5.056  11.714  1.1467  0.0309 -0.2675
  161MOL0     C21145   3.372   4.977  11.601  0.1148 -0.0222 -0.2742
  161MOL0     C21146   3.474   4.954  11.513 -0.0766  0.8003 -0.4457
  161MOL0     C21147   3.450   4.864  11.413 -0.2807  0.5306 -0.3491
  161MOL0     C21148   3.317   4.824  11.375  0.5522 -0.2509  0.9756
  161MOL0     C21149   3.309   4.725  11.256  0.1947  0.0844 -0.0315
  161MOL0     O21150   3.419   4.680  11.197 -0.9817 -0.4288 -0.3603
  161MOL0     C21151   3.413   4.584  11.104  1.0926  0.0465 -0.2728
  161MOL0     C21152   3.482   4.465  11.120 -0.3274 -1.1241 -0.5774
  161MOL0     C21153   3.478   4.357  11.035  0.1512  0.2273  0.3339
  161MOL0     C21154   3.385   4.369  10.925  0.1341  0.2514 -0.0332
  161MOL0     O21155   3.368   4.283  10.823  0.0138 -1.0382  0.4319
  161MOL0     C21156   3.454   4.168  10.831  1.2429 -0.6315 -0.1376
  161MOL0     C21157   3.423   4.071  10.721 -0.7265 -0.1484 -0.2023
  161MOL0     C21158   3.532   4.038  10.615 -0.5837  0.2444 -0.1547
  161MOL0     C21159   3.477   3.942  10.508 -0.0472  0.5206  0.2430
  161MOL0     C21160   3.580   3.856  10.424 -0.1485 -0.3855 -0.2082
  161MOL0     C21161   3.512   3.745  10.347 -0.0390 -0.1285 -0.2192
  161MOL0     C21162   3.427   3.792  10.234 -0.5090  0.7276 -0.1985
  161MOL0     C21163   3.467   3.732  10.095 -0.1674  0.1335  0.2111
  161MOL0    Cl21164   3.506   3.554  10.098 -0.2709  0.3239 -0.3155
  161MOL0     C21165   3.312   4.488  10.917  0.7899  0.6898  0.7973
  161MOL0     C21166   3.327   4.594  11.000 -0.1035 -0.2655 -0.4741
  161MOL0     O21167   3.195   4.674  11.252  0.8006  0.2710  0.3019
  161MOL0     C21168   3.208   4.850  11.463 -0.1468 -0.4286 -0.6028
  161MOL0     C21169   3.238   4.937  11.570  1.0976  0.6080 -0.5861
  161MOL0     N21170   3.868   5.080  11.624  0.6853  0.8433  0.7951
  161MOL0     N21171   3.911   5.017  11.517 -0.5043 -0.7718  0.4805
  161MOL0     C21172   4.665   5.158  10.797  0.2252  1.0050  0.5626
  161MOL0     C21173   4.776   5.236  10.806 -0.0362 -0.0892 -0.5190
  161MOL0     C21174   5.084   5.560  10.738  0.2876 -0.0037 -0.5753
  161MOL0     C21175   5.154   5.549  10.613 -0.3242 -0.2375  0.2849
  161MOL0     C21176   5.270   5.630  10.590 -0.0694 -0.4474 -0.1352
  161MOL0     C21177   5.305   5.735  10.676  0.5383  0.1923 -0.0108
  161MOL0     O21178   5.408   5.826  10.638 -0.2558 -0.4131 -0.0932
  161MOL0     C21179   5.373   5.963  10.647 -0.0404  0.6921  0.8352
  161MOL0     C21180   5.241   6.004  10.570  0.0420 -0.2906  0.2212
  161MOL0     C21181   5.228   6.164  10.609 -0.1012  0.6155  0.7356
  161MOL0     C21182   5.135   6.234  10.507  0.1368  0.1773 -0.3579
  161MOL0     C21183   5.154   6.380  10.529  0.1754  0.3690  0.5942
  161MOL0     C21184   5.158   6.502  10.531 -0.5525 -0.6500 -0.6558
  161MOL0     C21185   5.227   5.748  10.792 -0.7833 -0.3307 -0.4722
  161MOL0     C21186   5.134   5.649  10.826 -0.2162 -0.7369 -0.2059
  161MOL0     H21187   4.799   5.339  10.492  0.2883  2.9897  1.7073
  161MOL0     H21188   4.595   5.210  10.466 -3.2110  0.9164  2.0037
  161MOL0     H21189   4.372   5.082  10.529  4.0323 -0.1538 -0.0572
  161MOL0     H21190   4.360   5.203  10.658  0.5860  0.0185 -2.4655
  161MOL0     H21191   4.253   4.919  10.639 -1.2606  2.0779 -3.8417
  161MOL0     H21192   4.164   5.069  10.662  0.3306  2.8365  1.8139
  161MOL0     H21193   4.360   4.956  10.860 -1.4396 -2.2809  2.3997
  161MOL0     H21194   4.194   4.937  10.884  1.0697 -3.5981 -3.1668
  161MOL0     H21195   4.368   5.200  10.912  0.5176  0.1832 -0.8345
  161MOL0     H21196   4.222   5.215  10.851  0.5631  0.3955  1.3930
  161MOL0     H21197   4.237   5.258  11.087  0.7923 -0.4518 -0.3820
  161MOL0     H21198   4.302   5.107  11.123 -0.6569  2.1055  2.5236
  161MOL0     H21199   4.076   4.999  11.059  1.7982 -0.6583  1.3787
  161MOL0     H21200   4.025   5.162  11.004 -1.1133 -1.0435  1.1216
  161MOL0     H21201   4.121   5.077  11.278 -1.1533 -2.5738 -2.7119
  161MOL0     H21202   4.052   5.236  11.265 -0.0294 -0.6327 -0.0365
  161MOL0     H21203   3.920   4.972  11.240 -0.4798  0.1667 -0.9590
  161MOL0     H21204   3.844   5.130  11.199  3.0077  2.6197 -2.0323
  161MOL0     H21205   3.826   5.315  11.400  0.2886  0.9128  1.1628
  161MOL0     H21206   3.753   5.395  11.601  1.6892 -0.2646  0.3979
  161MOL0     H21207   3.881   5.376  11.717  0.0408 -0.9303 -0.0798
  161MOL0     H21208   3.671   5.377  11.834  0.8307  1.6214 -1.8379
  161MOL0     H21209   3.729   5.208  11.839 -2.5109 -1.5425 -0.0176
  161MOL0     H21210   3.482   5.288  11.733 -1.6980 -1.8142  1.5803
  161MOL0     H21211   3.571   5.201  11.600 -2.8631  0.3172 -0.5590
  161MOL0     H21212   3.493   5.107  11.880 -0.4215 -0.3924  0.6575
  161MOL0     H21213   3.578   5.003  11.764  1.7622  2.3438  1.7128
  161MOL0     H21214   3.570   5.004  11.523  1.3228 -1.5764 -1.1729
  161MOL0     H21215   3.539   4.847  11.354  0.3254  0.1887  0.6543
  161MOL0     H21216   3.561   4.460  11.194  0.1651 -0.2018 -1.0198
  161MOL0     H21217   3.540   4.269  11.046  0.0317  0.3438  2.2554
  161MOL0     H21218   3.427   4.122  10.927 -3.3448 -3.0758 -2.2512
  161MOL0     H21219   3.559   4.198  10.829  0.6039  1.7679 -1.4160
  161MOL0     H21220   3.330   4.111  10.681 -2.4729 -0.4541  3.1711
  161MOL0     H21221   3.406   3.978  10.777  2.1157 -1.2300 -0.9498
  161MOL0     H21222   3.614   3.996  10.675  0.7848 -1.0000 -2.7616
  161MOL0     H21223   3.563   4.133  10.571  3.7677 -1.2671 -0.8195
  161MOL0     H21224   3.407   3.876  10.559 -1.9193  1.3808 -1.1042
  161MOL0     H21225   3.410   4.002  10.446 -3.0960 -0.5617  2.2434
  161MOL0     H21226   3.656   3.817  10.493  0.2490 -0.5455 -0.7255
  161MOL0     H21227   3.633   3.920  10.352  0.3848 -0.5345  0.0442
  161MOL0     H21228   3.459   3.687  10.422  2.7461  1.2146  3.0298
  161MOL0     H21229   3.592   3.679  10.312  0.8143  0.8133 -0.0927
  161MOL0     H21230   3.323   3.771  10.260  0.6243 -2.1577  2.8098
  161MOL0     H21231   3.427   3.901  10.222  0.6694  0.6327 -1.3486
  161MOL0     H21232   3.560   3.780  10.065 -0.5397  0.5321 -0.3182
  161MOL0     H21233   3.389   3.761  10.024  0.4809  1.4819  0.0250
  161MOL0     H21234   3.240   4.498  10.836  3.0164 -0.4793 -1.4696
  161MOL0     H21235   3.259   4.679  10.998 -2.9039 -2.3255 -0.0679
  161MOL0     H21236   3.111   4.804  11.447 -0.4521  0.8116 -2.5658
  161MOL0     H21237   3.151   4.965  11.629  1.7725  0.3857  0.5370
  161MOL0     H21238   4.614   5.105  10.877  0.5444 -0.5737 -0.2249
  161MOL0     H21239   4.835   5.249  10.896  0.4945  0.5719 -0.9502
  161MOL0     H21240   5.112   5.487  10.535  1.0530  0.0972 -0.7686
  161MOL0     H21241   5.322   5.622  10.495  2.4995  0.6494  1.0986
  161MOL0     H21242   5.460   6.023  10.619 -0.5744  2.5212  2.8347
  161MOL0     H21243   5.362   5.980  10.754 -1.0886 -4.4989  1.8226
  161MOL0     H21244   5.265   5.994  10.464  2.0350 -1.6279  0.7391
  161MOL0     H21245   5.156   5.942  10.597 -0.2929  0.1218  0.1281
  161MOL0     H21246   5.322   6.218  10.598  0.2205  0.3681  2.1102
  161MOL0     H21247   5.183   6.178  10.708 -0.3513 -2.8383  1.2431
  161MOL0     H21248   5.158   6.207  10.403 -4.9363  1.5000 -2.1326
  161MOL0     H21249   5.033   6.198  10.521 -0.2892 -0.0450 -3.3772
  161MOL0     H21250   5.167   6.607  10.517  2.3454 -0.6121  0.7359
  161MOL0     H21251   5.255   5.835  10.852  1.8646 -0.6604 -1.1334
  161MOL0     H21252   5.081   5.664  10.920 -0.1357  0.0021 -0.2711
  162MOL0     O21253  10.922   5.623   7.264  1.2293  0.1883  0.9443
  162MOL0     C21254  11.033   5.568   7.233 -0.3868 -0.1632  0.6258
  162MOL0     O21255  11.061   5.501   7.116 -0.7659  0.0865  0.8712
  162MOL0     C21256  10.965   5.474   7.017 -0.4965 -0.4535 -0.2780
  162MOL0     C21257  11.002   5.486   6.880 -0.2069 -0.1692 -0.4713
  162MOL0     C21258  10.905   5.454   6.781 -0.9673  0.0531 -1.0838
  162MOL0     C21259  10.773   5.421   6.822 -0.0314 -0.4105 -0.1647
  162MOL0     O21260  10.689   5.394   6.725 -0.3931  0.2069 -0.2910
  162MOL0     C21261  10.604   5.288   6.728  0.1421  0.0956 -0.4810
  162MOL0     C21262  10.567   5.269   6.577  0.0446 -0.8570 -0.3728
  162MOL0     C21263  10.461   5.158   6.554  0.5381  0.8921  0.2088
  162MOL0     C21264  10.312   5.183   6.562  0.7132  0.5413  0.2453
  162MOL0     C21265  10.216   5.076   6.508 -0.4970  0.3125  0.0529
  162MOL0     C21266  10.213   4.945   6.582  0.1889  0.6285 -0.5100
  162MOL0     C21267  10.118   4.845   6.532 -0.3049  0.2426  0.7006
  162MOL0     C21268  10.163   4.767   6.404  0.5249 -0.5143 -0.6486
  162MOL0     N21269  10.267   4.672   6.431  0.4072  0.0932  0.3203
  162MOL0     C21270  10.241   4.542   6.447 -0.5154  0.5090  0.2348
  162MOL0     C21271  10.353   4.475   6.416  0.0770 -0.4310  0.4723
  162MOL0     C21272  10.355   4.323   6.400 -0.3697 -0.2764 -1.0389
  162MOL0     C21273  10.415   4.267   6.521  0.1146 -0.6343  0.2965
  162MOL0     C21274  10.463   4.123   6.497 -0.5472 -0.3052  0.0723
  162MOL0     C21275  10.340   4.032   6.490  0.1062 -0.6049  0.7137
  162MOL0     O21276  10.291   4.036   6.354  0.0623  0.0444 -0.3059
  162MOL0     C21277  10.340   3.963   6.246 -0.2942 -0.7315  0.6348
  162MOL0     C21278  10.425   3.857   6.263  0.5574 -0.7902 -0.8533
  162MOL0     C21279  10.466   3.784   6.155 -0.8189  0.1036 -0.9454
  162MOL0     C21280  10.431   3.827   6.023  0.7290 -0.3466  0.1661
  162MOL0     C21281  10.465   3.735   5.904  0.1962  0.0383 -0.5847
  162MOL0     O21282  10.380   3.746   5.798 -0.2265 -1.0830  0.0736
  162MOL0     C21283  10.244   3.758   5.809 -1.3363 -0.1746  0.2325
  162MOL0     C21284  10.186   3.861   5.734  0.0248 -0.0432 -0.0337
  162MOL0     C21285  10.053   3.876   5.734  0.0288 -0.3163  1.4991
  162MOL0     C21286   9.968   3.785   5.801 -0.1512  0.6214  0.7585
  162MOL0     O21287   9.832   3.789   5.785 -0.5199 -0.5496 -0.9042
  162MOL0     C21288   9.751   3.775   5.903 -0.2155 -0.2854  1.0447
  162MOL0     C21289   9.627   3.861   5.877 -0.1637  1.0463  0.1016
  162MOL0     C21290   9.523   3.780   5.789 -0.4306 -0.9992 -0.5558
  162MOL0     C21291   9.410   3.873   5.754  0.1511 -0.3305  0.0668
  162MOL0     C21292   9.315   3.800   5.656  0.3597 -0.3818 -0.2843
  162MOL0     C21293   9.216   3.890   5.583  0.0552  0.9660 -0.8230
  162MOL0     C21294   9.121   3.791   5.510  0.3108  0.0906  0.3767
  162MOL0     C21295   9.006   3.861   5.452 -0.7175 -0.1610 -0.1612
  162MOL0    Cl21296   9.037   3.968   5.310  0.5644 -0.2218 -0.1973
  162MOL0     C21297  10.031   3.689   5.885  0.7731  0.2170  0.1587
  162MOL0     C21298  10.167   3.674   5.881  1.0685  0.4002 -0.6036
  162MOL0     O21299  10.552   3.646   5.921  0.4011 -0.2537 -0.2733
  162MOL0     C21300  10.366   3.950   6.005 -0.0134  0.2943 -0.4368
  162MOL0     C21301  10.317   4.010   6.113  0.1742 -0.1470  0.5208
  162MOL0     N21302  10.450   4.569   6.387 -0.1992  0.7790 -0.4968
  162MOL0     N21303  10.399   4.686   6.411  0.2222  0.1279 -0.2136
  162MOL0     C21304  10.740   5.411   6.956 -0.4445  1.0021  0.6353
  162MOL0     C21305  10.837   5.428   7.055  0.6455  0.2332 -0.1159
  162MOL0     C21306  11.133   5.580   7.339 -0.2357  0.2122  1.0326
  162MOL0     C21307  11.110   5.669   7.450 -1.1488  1.3786 -0.3693
  162MOL0     C21308  11.205   5.688   7.550 -0.7616 -0.2335  1.0813
  162MOL0     C21309  11.332   5.619   7.545  0.8489 -0.1584  0.4876
  162MOL0     O21310  11.441   5.652   7.616 -0.2434  0.1935 -0.3951
  162MOL0     C21311  11.421   5.724   7.733 -0.6547 -0.0448  0.5335
  162MOL0     C21312  11.558   5.752   7.794 -0.7473  0.6170 -0.8558
  162MOL0     C21313  11.571   5.837   7.917 -0.8421  1.5999  0.5971
  162MOL0     C21314  11.529   5.769   8.044 -0.1592  0.3273  0.2580
  162MOL0     C21315  11.575   5.857   8.148  0.1829  0.2002  0.2357
  162MOL0     C21316  11.603   5.922   8.251  0.6146  0.2499  0.9168
  162MOL0     C21317  11.362   5.531   7.435 -0.0759 -0.0968 -0.4395
  162MOL0     C21318  11.262   5.510   7.336 -0.0675  0.7080  1.0495
  162MOL0     H21319  11.104   5.512   6.856 -0.1342 -2.5127 -3.1060
  162MOL0     H21320  10.931   5.467   6.677  2.1980 -2.6780 -0.8217
  162MOL0     H21321  10.514   5.301   6.788  1.2849  2.0759  0.9297
  162MOL0     H21322  10.653   5.193   6.750  0.9330  0.2951 -1.2871
  162MOL0     H21323  10.662   5.254   6.525  0.6033  2.8668 -0.7055
  162MOL0     H21324  10.530   5.366   6.543  2.2115  0.2066  0.1134
  162MOL0     H21325  10.493   5.067   6.605 -0.7392  0.0167 -0.5118
  162MOL0     H21326  10.470   5.128   6.449 -3.5288 -0.9806  0.2365
  162MOL0     H21327  10.293   5.205   6.668  1.3169  0.4072  0.3864
  162MOL0     H21328  10.288   5.271   6.502 -0.0978 -1.1132 -1.9909
  162MOL0     H21329  10.238   5.065   6.401  0.3900  3.3191 -0.1380
  162MOL0     H21330  10.109   5.100   6.506 -0.6219  0.3874  3.1178
  162MOL0     H21331  10.175   4.952   6.685 -3.7412 -0.3250 -1.6994
  162MOL0     H21332  10.316   4.912   6.594  0.1473  1.1101  1.5864
  162MOL0     H21333  10.113   4.763   6.604  1.0758 -2.0629 -1.6959
  162MOL0     H21334  10.019   4.890   6.519  1.1094  3.7271  0.7478
  162MOL0     H21335  10.184   4.833   6.318  2.3812 -2.6603 -1.9499
  162MOL0     H21336  10.068   4.725   6.367 -0.2430  0.5823  0.0119
  162MOL0     H21337  10.136   4.515   6.457 -1.0985  1.5992 -2.0823
  162MOL0     H21338  10.412   4.310   6.308  2.0049 -0.3272  0.3502
  162MOL0     H21339  10.253   4.286   6.387 -1.0998  1.6003 -1.0247
  162MOL0     H21340  10.348   4.268   6.607 -1.2533 -1.6968 -0.7028
  162MOL0     H21341  10.503   4.327   6.545  0.4140 -1.1436  0.4909
  162MOL0     H21342  10.531   4.128   6.412 -1.8454  0.4878 -0.9695
  162MOL0     H21343  10.523   4.096   6.585  1.6117 -0.3447 -1.3494
  162MOL0     H21344  10.264   4.066   6.561 -0.4222 -2.3113  1.0252
  162MOL0     H21345  10.368   3.934   6.531  2.2945 -0.0490  0.6713
  162MOL0     H21346  10.454   3.833   6.365 -2.2997 -1.2428 -0.0420
  162MOL0     H21347  10.530   3.701   6.186 -0.6166  1.4906  2.9043
  162MOL0     H21348  10.246   3.933   5.679  0.8064 -3.2734 -3.9492
  162MOL0     H21349  10.000   3.953   5.679 -1.9367 -2.3176  0.4535
  162MOL0     H21350   9.803   3.818   5.989  3.3685 -1.6125 -0.2488
  162MOL0     H21351   9.742   3.670   5.929  2.7454 -1.0803 -0.5881
  162MOL0     H21352   9.654   3.953   5.823  0.7695  1.0481  0.5507
  162MOL0     H21353   9.576   3.903   5.964 -0.0162  2.0234 -0.2674
  162MOL0     H21354   9.472   3.702   5.846 -1.8351  0.9323  0.9921
  162MOL0     H21355   9.572   3.731   5.704  0.3612 -1.7925  0.3372
  162MOL0     H21356   9.354   3.907   5.841 -2.0406 -3.4929  0.0797
  162MOL0     H21357   9.453   3.960   5.703  0.2684  0.2547  1.1365
  162MOL0     H21358   9.256   3.728   5.713 -1.6867  0.2637 -1.4952
  162MOL0     H21359   9.367   3.748   5.575  0.3481 -1.1618  0.1970
  162MOL0     H21360   9.268   3.966   5.524  0.5847  0.2263 -1.3351
  162MOL0     H21361   9.150   3.939   5.655  0.0513 -0.7888  0.4271
  162MOL0     H21362   9.170   3.734   5.430 -0.0225 -0.8272  0.8211
  162MOL0     H21363   9.083   3.723   5.586 -2.3489  2.1826  1.0662
  162MOL0     H21364   8.973   3.931   5.530  1.1052  0.0510  0.4842
  162MOL0     H21365   8.927   3.788   5.436 -0.5622  0.1835 -3.0219
  162MOL0     H21366   9.971   3.624   5.948 -1.2611 -0.7456 -2.5663
  162MOL0     H21367  10.217   3.595   5.936  3.0448 -0.3387 -3.2452
  162MOL0     H21368  10.364   3.997   5.907  4.1315  2.3708  0.2579
  162MOL0     H21369  10.248   4.093   6.101 -0.6519 -1.1041 -1.7544
  162MOL0     H21370  10.643   5.369   6.983  0.2629 -2.7373 -1.8894
  162MOL0     H21371  10.806   5.403   7.156  1.8509  0.5358  0.3444
  162MOL0     H21372  11.016   5.722   7.456 -1.8540  0.4173 -2.1159
  162MOL0     H21373  11.186   5.760   7.629  0.5095  3.9250 -2.0614
  162MOL0     H21374  11.367   5.668   7.809  0.1522  1.9237  2.6592
  162MOL0     H21375  11.357   5.811   7.714 -3.4113 -2.1746 -0.6588
  162MOL0     H21376  11.598   5.655   7.827 -1.8285  1.4818  3.5522
  162MOL0     H21377  11.622   5.804   7.722  1.3326  1.5741  1.5639
  162MOL0     H21378  11.504   5.923   7.914 -1.2650  1.2998  0.9946
  162MOL0     H21379  11.673   5.876   7.917  2.3624 -5.1747 -1.4555
  162MOL0     H21380  11.425   5.741   8.061  0.4981 -1.9097  0.9191
  162MOL0     H21381  11.582   5.674   8.051 -0.9954 -0.0567  2.3654
  162MOL0     H21382  11.618   5.985   8.336  0.6340 -2.5719  3.1479
  162MOL0     H21383  11.463   5.492   7.428  0.5192  1.0094  1.3286
  162MOL0     H21384  11.289   5.443   7.255 -0.8355  2.3115 -0.5959
  163MOL0     O21385   0.265   5.661  10.742 -0.2650  0.5694 -0.0022
  163MOL0     C21386   0.386   5.682  10.789  0.9033 -0.2669 -0.8645
  163MOL0     O21387   0.458   5.593  10.867  0.5582  1.3080  0.5122
  163MOL0     C21388   0.411   5.466  10.884  0.8566  0.2508  0.6026
  163MOL0     C21389   0.299   5.447  10.962 -0.0440  0.8557  0.6656
  163MOL0     C21390   0.248   5.312  10.978 -0.0195 -0.7574 -0.3675
  163MOL0     C21391   0.320   5.204  10.921  0.1941  0.1455  0.5105
  163MOL0     O21392   0.266   5.077  10.932  0.4206 -0.2648 -0.0701
  163MOL0     C21393   0.336   4.970  10.992 -1.0267 -0.7391 -0.6053
  163MOL0     C21394   0.282   4.829  10.968  0.2215 -0.0907 -0.0381
  163MOL0     C21395   0.250   4.809  10.815 -0.2049 -0.2334 -0.2228
  163MOL0     C21396   0.239   4.657  10.783  0.7244  0.0889 -0.4218
  163MOL0     C21397   0.192   4.624  10.642  0.8134 -0.5717 -0.9402
  163MOL0     C21398   0.278   4.697  10.533 -0.8381  0.6004  0.1932
  163MOL0     C21399   0.260   4.616  10.402 -0.2260 -0.2678 -0.9928
  163MOL0     C21400   0.313   4.695  10.288  0.0441  0.2196  1.2275
  163MOL0     N21401   0.254   4.830  10.271 -0.2395 -0.4655  1.1752
  163MOL0     C21402   0.317   4.950  10.304  0.4373 -0.8156  0.7681
  163MOL0     C21403   0.213   5.038  10.306 -0.7182 -0.0325 -0.2803
  163MOL0     C21404   0.230   5.188  10.331 -0.5039 -0.1912 -0.9751
  163MOL0     C21405   0.222   5.222  10.479  0.4189  0.1346  0.5008
  163MOL0     C21406   0.228   5.376  10.523  0.5697  0.4773  0.6529
  163MOL0     C21407   0.081   5.436  10.501 -0.5157 -0.2069 -0.1322
  163MOL0     O21408   0.057   5.475  10.364  0.0652  0.6696  0.1770
  163MOL0     C21409   0.121   5.591  10.312  0.4937  0.6972 -0.2283
  163MOL0     C21410   0.177   5.704  10.373  0.7066  0.1213 -0.0059
  163MOL0     C21411   0.245   5.804  10.305  0.4299  0.0097 -0.0839
  163MOL0     C21412   0.250   5.794  10.162  0.2068 -0.2456  0.3432
  163MOL0     C21413   0.305   5.895  10.074 -0.9184  0.1770 -0.8564
  163MOL0     O21414   0.300   6.022  10.117  0.2629  0.0756  0.0700
  163MOL0     C21415   0.338   6.123  10.033 -0.7058 -0.4153  0.8237
  163MOL0     C21416   0.458   6.192  10.035 -0.3206 -0.3572 -0.8109
  163MOL0     C21417   0.480   6.303   9.961 -0.8589 -0.8834 -0.3065
  163MOL0     C21418   0.378   6.360   9.875 -0.3533 -1.3778  0.1576
  163MOL0     O21419   0.390   6.474   9.797  0.0516 -0.0494  0.1798
  163MOL0     C21420   0.448   6.592   9.850  0.2178 -0.4184  0.1667
  163MOL0     C21421   0.401   6.706   9.776 -0.1051  0.1916  0.0085
  163MOL0     C21422   0.255   6.740   9.818  1.0240 -0.3847  0.0247
  163MOL0     C21423   0.202   6.866   9.737 -0.5205 -0.3027 -1.0599
  163MOL0     C21424   0.261   6.993   9.787 -0.0648  0.9688 -0.6362
  163MOL0     C21425   0.176   7.124   9.765  0.3077  0.9084  0.2807
  163MOL0     C21426   0.257   7.253   9.789 -1.2442  1.2882 -0.6328
  163MOL0     C21427   0.156   7.364   9.815 -0.6499 -0.6218  0.0380
  163MOL0    Cl21428   0.085   7.361   9.972  0.1420  0.5488 -0.2016
  163MOL0     C21429   0.261   6.295   9.864  0.6289  0.3491  0.3650
  163MOL0     C21430   0.243   6.179   9.942  0.3989 -0.5528 -0.1519
  163MOL0     O21431   0.355   5.856   9.969 -0.1801 -0.3471 -0.1392
  163MOL0     C21432   0.194   5.684  10.100 -1.0568 -0.1539  0.3533
  163MOL0     C21433   0.128   5.587  10.172  0.3973  1.3784  0.2308
  163MOL0     N21434   0.097   4.978  10.272  0.1666  0.1983 -0.2047
  163MOL0     N21435   0.123   4.853  10.250 -0.7931  0.1468  0.1629
  163MOL0     C21436   0.431   5.232  10.838  0.2472  0.2940 -1.1085
  163MOL0     C21437   0.477   5.359  10.833  0.1240 -0.3511  0.0734
  163MOL0     C21438   0.446   5.812  10.767 -0.1801 -0.7987 -0.0191
  163MOL0     C21439   0.527   5.873  10.877  0.2374  0.0796  0.5026
  163MOL0     C21440   0.587   6.004  10.860  0.0954  0.2539  0.2956
  163MOL0     C21441   0.568   6.076  10.749  0.2650 -0.5977 -1.9215
  163MOL0     O21442   0.624   6.203  10.755  1.2615 -0.3430  0.2791
  163MOL0     C21443   0.550   6.319  10.691  0.1201  0.3297 -0.1125
  163MOL0     C21444   0.625   6.388  10.580 -0.0905  0.2829 -0.4458
  163MOL0     C21445   0.704   6.516  10.609 -0.5047 -0.3257  0.6023
  163MOL0     C21446   0.787   6.566  10.497  0.1035 -0.2683  0.1037
  163MOL0     C21447   0.717   6.610  10.383  0.5010 -0.1082  0.2882
  163MOL0     C21448   0.674   6.650  10.276  0.8483  0.3012  0.0854
  163MOL0     C21449   0.497   6.025  10.641  0.9950 -0.2405  0.7974
  163MOL0     C21450   0.432   5.895  10.649  0.4863 -0.4870 -0.1740
  163MOL0     H21451   0.244   5.535  10.995 -1.0270 -0.0647  1.5578
  163MOL0     H21452   0.156   5.300  11.034  0.3376  0.3122  0.4948
  163MOL0     H21453   0.336   4.990  11.100  0.0956  0.1212 -0.7478
  163MOL0     H21454   0.440   4.970  10.957 -0.3830  2.3048  0.9579
  163MOL0     H21455   0.197   4.809  11.034 -0.8370  2.8253 -0.3745
  163MOL0     H21456   0.358   4.760  11.007 -2.2927 -2.1090  1.5765
  163MOL0     H21457   0.333   4.852  10.758  1.6670 -0.4269  2.1737
  163MOL0     H21458   0.166   4.872  10.787  1.5192  3.5719  2.3941
  163MOL0     H21459   0.338   4.617  10.807  0.9891  2.2151  2.5491
  163MOL0     H21460   0.175   4.610  10.858  0.9289 -0.1745 -0.4083
  163MOL0     H21461   0.086   4.648  10.633  0.7856 -1.1956 -2.9162
  163MOL0     H21462   0.202   4.515  10.642 -0.0327 -0.8108  3.3466
  163MOL0     H21463   0.385   4.696  10.557 -0.9617 -0.9454  0.7823
  163MOL0     H21464   0.234   4.797  10.526 -0.5191  0.6366 -1.7795
  163MOL0     H21465   0.307   4.517  10.404 -0.6609 -0.4854  1.4525
  163MOL0     H21466   0.160   4.587  10.371 -0.0360  0.4478 -2.3531
  163MOL0     H21467   0.295   4.641  10.195 -0.4880 -0.6672  1.8277
  163MOL0     H21468   0.419   4.714  10.308  0.3000 -0.8322  0.9488
  163MOL0     H21469   0.418   4.971  10.335  0.5845  0.2127 -0.3416
  163MOL0     H21470   0.144   5.227  10.276 -0.4121 -1.0059 -1.7215
  163MOL0     H21471   0.324   5.224  10.289  1.9135 -1.8065  2.5282
  163MOL0     H21472   0.295   5.159  10.529  0.8096 -2.3926 -2.8799
  163MOL0     H21473   0.125   5.190  10.518 -1.0725  1.7444 -1.5988
  163MOL0     H21474   0.255   5.368  10.628 -2.8884  0.8066  1.7117
  163MOL0     H21475   0.299   5.435  10.465 -1.2954 -0.3909 -2.8146
  163MOL0     H21476   0.056   5.523  10.562 -3.7267 -0.6410 -0.6084
  163MOL0     H21477  -0.001   5.369  10.531 -1.5557  1.7106  1.5776
  163MOL0     H21478   0.162   5.715  10.480 -0.6470  0.2098 -0.1852
  163MOL0     H21479   0.305   5.886  10.344  0.3561  0.7945 -1.5422
  163MOL0     H21480   0.529   6.163  10.111  0.5625  0.7491 -1.1824
  163MOL0     H21481   0.578   6.350   9.962 -1.3959  0.2467  0.3686
  163MOL0     H21482   0.557   6.581   9.842  0.3540  1.6698 -1.4985
  163MOL0     H21483   0.416   6.586   9.955  0.1401  1.4753  0.2867
  163MOL0     H21484   0.409   6.687   9.669  0.6054  3.3492 -0.6074
  163MOL0     H21485   0.463   6.796   9.782  0.2516  0.1284 -2.0904
  163MOL0     H21486   0.248   6.756   9.927 -0.4858 -1.6466  0.1369
  163MOL0     H21487   0.202   6.647   9.798 -0.3713 -0.6900  4.1988
  163MOL0     H21488   0.239   6.857   9.634  0.3587 -3.2230 -0.5906
  163MOL0     H21489   0.093   6.865   9.730 -0.6399  0.5320  0.3685
  163MOL0     H21490   0.364   6.989   9.752  0.2966 -0.8786  0.5189
  163MOL0     H21491   0.270   6.980   9.895  1.2437 -0.7564 -0.9152
  163MOL0     H21492   0.083   7.115   9.822 -0.0899  2.6667 -0.0384
  163MOL0     H21493   0.136   7.122   9.663 -2.1206  0.4202  1.1674
  163MOL0     H21494   0.334   7.257   9.867 -0.1240 -0.1333 -1.6159
  163MOL0     H21495   0.317   7.276   9.700 -0.6093  0.9716 -0.2915
  163MOL0     H21496   0.072   7.350   9.745 -0.5664 -2.3215  0.2241
  163MOL0     H21497   0.192   7.465   9.796  1.1716 -1.4371 -1.1149
  163MOL0     H21498   0.190   6.324   9.786  1.8344 -2.7103 -2.0838
  163MOL0     H21499   0.147   6.130   9.931 -0.2065  0.4016  0.6920
  163MOL0     H21500   0.183   5.678   9.992 -0.5013  1.4896  0.1842
  163MOL0     H21501   0.086   5.505  10.115  0.7983 -0.5283  2.5202
  163MOL0     H21502   0.468   5.158  10.768 -1.5740  1.0986 -3.0476
  163MOL0     H21503   0.561   5.380  10.767 -0.4175  0.5307 -0.3476
  163MOL0     H21504   0.547   5.823  10.971  0.1828  0.7613  0.8781
  163MOL0     H21505   0.635   6.027  10.955  0.5151 -0.7928  0.3601
  163MOL0     H21506   0.521   6.391  10.768  0.1756 -1.1698  1.3740
  163MOL0     H21507   0.456   6.269  10.666 -0.3759  1.2542 -0.1479
  163MOL0     H21508   0.704   6.316  10.557  1.0289  0.8733  1.3721
  163MOL0     H21509   0.564   6.406  10.491  3.6723  3.5513 -2.7043
  163MOL0     H21510   0.772   6.476  10.684  1.1303 -0.0224 -0.6547
  163MOL0     H21511   0.629   6.590  10.641 -3.3354 -2.0839 -1.4290
  163MOL0     H21512   0.849   6.649  10.531  0.6056  0.8024 -3.0971
  163MOL0     H21513   0.863   6.496  10.464 -2.0526 -2.1432 -1.1914
  163MOL0     H21514   0.620   6.694  10.194 -0.0699 -0.5351  0.2208
  163MOL0     H21515   0.464   6.085  10.557  0.4657 -0.6267  0.7257
  163MOL0     H21516   0.376   5.862  10.562  0.5719 -0.6037 -0.1862
  164MOL0     O21517   8.287   4.956   2.878  1.1921  0.4649  0.5469
  164MOL0     C21518   8.186   4.905   2.932 -1.1698 -0.5590 -0.1260
  164MOL0     O21519   8.136   4.933   3.060 -0.7614  0.0095  0.6087
  164MOL0     C21520   8.209   4.987   3.168 -0.8747  0.0725  0.4052
  164MOL0     C21521   8.128   5.052   3.263  0.1369  1.4581 -0.0989
  164MOL0     C21522   8.183   5.108   3.384 -0.6468 -0.1315  0.0722
  164MOL0     C21523   8.322   5.082   3.408  0.4903 -0.9542  0.4447
  164MOL0     O21524   8.372   5.140   3.520 -0.6770  0.2154 -0.0330
  164MOL0     C21525   8.521   5.138   3.539  0.0867 -0.5143  0.5436
  164MOL0     C21526   8.575   5.004   3.600  0.0128 -0.4575 -0.3934
  164MOL0     C21527   8.699   5.006   3.686 -0.3735 -0.2488  0.3654
  164MOL0     C21528   8.687   5.107   3.802 -0.3509  0.1378  0.6330
  164MOL0     C21529   8.760   5.061   3.925 -0.2097  0.1460 -1.3252
  164MOL0     C21530   8.767   5.179   4.027  0.1298 -0.6332  0.5505
  164MOL0     C21531   8.820   5.158   4.167 -0.0477  0.6566  0.5244
  164MOL0     C21532   8.968   5.105   4.155 -1.0198  0.0955 -1.1048
  164MOL0     N21533   9.067   5.208   4.110 -0.0327  0.3998 -0.4504
  164MOL0     C21534   9.107   5.331   4.179 -0.5265 -0.2170  0.4118
  164MOL0     C21535   9.193   5.388   4.093  0.7842 -0.7679  1.3024
  164MOL0     C21536   9.264   5.518   4.105 -0.2286  0.1086 -0.5788
  164MOL0     C21537   9.417   5.514   4.169 -0.3875  0.1267  0.5280
  164MOL0     C21538   9.513   5.412   4.095  0.1984  0.1756 -0.1000
  164MOL0     C21539   9.656   5.466   4.097 -0.1320 -0.2845 -0.3770
  164MOL0     O21540   9.715   5.457   4.228  0.7026  0.2887  0.5081
  164MOL0     C21541   9.843   5.495   4.252 -0.5990  0.2618  1.3767
  164MOL0     C21542   9.905   5.454   4.373 -0.9950  0.1917  0.3840
  164MOL0     C21543  10.041   5.466   4.387 -0.3791 -0.4246  0.6657
  164MOL0     C21544  10.119   5.544   4.292  0.7318  0.1352  0.0401
  164MOL0     C21545  10.263   5.550   4.304  0.1536 -0.2801 -0.8473
  164MOL0     O21546  10.337   5.612   4.216  0.3456 -0.5374  0.1753
  164MOL0     C21547  10.467   5.589   4.198 -0.2665  0.0917 -0.3863
  164MOL0     C21548  10.553   5.694   4.172 -0.3272 -0.1920  0.3901
  164MOL0     C21549  10.689   5.674   4.135  0.7664  0.2046 -0.6082
  164MOL0     C21550  10.737   5.544   4.116  0.2593  0.0752  0.8324
  164MOL0     O21551  10.861   5.525   4.074  0.4901  0.4128  0.5549
  164MOL0     C21552  10.935   5.466   4.179  0.0170 -0.0711 -0.1130
  164MOL0     C21553  11.086   5.466   4.151 -0.1699 -0.3883  0.3911
  164MOL0     C21554  11.176   5.398   4.258  0.4570  0.7168  0.2234
  164MOL0     C21555  11.116   5.320   4.383 -0.5314  1.8362 -1.2301
  164MOL0     C21556  11.225   5.234   4.450 -0.3085  1.0181  0.0978
  164MOL0     C21557  11.197   5.182   4.587 -0.6352 -0.1604  0.1986
  164MOL0     C21558  11.296   5.056   4.611  0.7612  0.0608  0.3107
  164MOL0     C21559  11.245   4.988   4.735 -1.1015 -0.1763  0.1398
  164MOL0    Cl21560  11.363   4.883   4.801 -0.3140 -0.2449  0.1527
  164MOL0     C21561  10.651   5.438   4.151  0.3659 -0.9391  0.2438
  164MOL0     C21562  10.522   5.459   4.184  1.2637 -0.6687  0.1387
  164MOL0     O21563  10.304   5.476   4.393 -0.3875 -0.4608  0.1853
  164MOL0     C21564  10.059   5.604   4.186 -1.0694  0.7306  0.4245
  164MOL0     C21565   9.922   5.582   4.162  0.0249  0.2925 -0.8578
  164MOL0     N21566   9.207   5.315   3.981  0.3677 -0.1810  0.9150
  164MOL0     N21567   9.129   5.209   3.990 -1.0770  0.0484  0.0236
  164MOL0     C21568   8.399   5.017   3.313  0.4410  0.3694 -0.2369
  164MOL0     C21569   8.348   4.968   3.189 -0.0378  0.2805 -0.1241
  164MOL0     C21570   8.109   4.803   2.857 -0.0229  0.3349 -0.5484
  164MOL0     C21571   7.999   4.735   2.919 -0.4592 -1.0175  0.3956
  164MOL0     C21572   7.939   4.625   2.850 -0.7268  0.9896  0.6293
  164MOL0     C21573   7.976   4.588   2.716  0.2058 -0.1345  0.2788
  164MOL0     O21574   7.912   4.489   2.652 -0.2748 -0.0504 -0.2922
  164MOL0     C21575   7.817   4.402   2.719  0.2675 -0.1885 -0.5109
  164MOL0     C21576   7.756   4.297   2.630 -0.4087 -0.3663 -0.1171
  164MOL0     C21577   7.866   4.202   2.578  0.4864 -0.7643 -0.4915
  164MOL0     C21578   7.805   4.102   2.475  0.0786 -0.3233  0.7880
  164MOL0     C21579   7.911   4.028   2.413  0.4997  0.9824  0.6818
  164MOL0     C21580   8.004   3.965   2.384 -0.6787  0.5596  0.1815
  164MOL0     C21581   8.094   4.650   2.660 -0.2967  0.0702 -0.7457
  164MOL0     C21582   8.147   4.757   2.732 -0.2762  0.2294  0.3587
  164MOL0     H21583   8.021   5.041   3.248  0.1394 -1.0300  1.1649
  164MOL0     H21584   8.125   5.144   3.468 -0.3732  1.0046 -0.2156
  164MOL0     H21585   8.545   5.215   3.613  1.6284  0.1226 -0.5747
  164MOL0     H21586   8.573   5.178   3.452 -0.2303 -2.1616 -0.4479
  164MOL0     H21587   8.582   4.927   3.523 -1.7205 -3.2676  2.0362
  164MOL0     H21588   8.494   4.979   3.669 -0.1555  0.5511 -0.2066
  164MOL0     H21589   8.781   5.043   3.624 -1.1921  2.1250  0.6312
  164MOL0     H21590   8.735   4.911   3.728  1.1262 -0.1325 -0.5740
  164MOL0     H21591   8.721   5.207   3.776 -2.4775  1.1927  1.6291
  164MOL0     H21592   8.583   5.131   3.830 -0.1936  0.8011  0.6600
  164MOL0     H21593   8.866   5.042   3.904  0.4440 -0.1739  1.7914
  164MOL0     H21594   8.712   4.977   3.976  0.0091  1.9063  2.0247
  164MOL0     H21595   8.664   5.214   4.044  0.4498 -0.0258  1.2960
  164MOL0     H21596   8.815   5.260   3.972 -2.1216 -1.4813 -3.0520
  164MOL0     H21597   8.820   5.253   4.220 -1.2161  1.9088 -1.5668
  164MOL0     H21598   8.758   5.088   4.224 -1.4800 -0.0465 -1.7729
  164MOL0     H21599   8.976   5.029   4.077 -2.0553 -1.6316  0.3789
  164MOL0     H21600   9.014   5.062   4.244 -2.4840  3.4123  1.4619
  164MOL0     H21601   9.075   5.376   4.273 -2.9361  1.0923 -0.9334
  164MOL0     H21602   9.223   5.582   4.184  1.4606 -1.4008  1.6430
  164MOL0     H21603   9.256   5.571   4.010 -1.7869 -0.4699 -0.7974
  164MOL0     H21604   9.410   5.488   4.275  1.1340  1.0671  0.8938
  164MOL0     H21605   9.454   5.617   4.171 -1.0899  0.3785  0.7065
  164MOL0     H21606   9.496   5.310   4.131 -2.9769  0.4024 -0.6610
  164MOL0     H21607   9.476   5.410   3.993 -1.0529  2.8758  0.2363
  164MOL0     H21608   9.644   5.573   4.074 -2.6026 -0.9394 -2.6778
  164MOL0     H21609   9.719   5.427   4.017  2.0821  1.9269  0.1610
  164MOL0     H21610   9.838   5.397   4.436 -3.4551  1.7739 -0.6807
  164MOL0     H21611  10.085   5.420   4.475 -1.6881 -3.0335  0.0625
  164MOL0     H21612  10.526   5.798   4.184  2.8952  0.7533  0.5902
  164MOL0     H21613  10.740   5.768   4.114  0.1726  0.9409  1.0641
  164MOL0     H21614  10.896   5.368   4.207 -0.0901 -0.0306 -0.1151
  164MOL0     H21615  10.931   5.527   4.270 -1.9160  0.1087 -0.2755
  164MOL0     H21616  11.125   5.567   4.139  0.3099 -0.6483 -0.2837
  164MOL0     H21617  11.094   5.413   4.056 -0.3137  1.8182 -0.9090
  164MOL0     H21618  11.251   5.473   4.284  1.5187  0.3376 -1.5652
  164MOL0     H21619  11.236   5.324   4.204 -0.2306  0.1758  0.1962
  164MOL0     H21620  11.087   5.402   4.449 -0.8145  2.1959 -1.7950
  164MOL0     H21621  11.025   5.263   4.362 -0.0032  0.2329  0.5298
  164MOL0     H21622  11.318   5.292   4.452  0.8608 -0.7332 -0.6574
  164MOL0     H21623  11.249   5.153   4.380 -3.1636  1.2001 -1.2226
  164MOL0     H21624  11.091   5.160   4.595 -0.7839  0.7483  0.9652
  164MOL0     H21625  11.221   5.257   4.663 -1.9707  0.7424 -0.2275
  164MOL0     H21626  11.296   4.996   4.520  1.4244  1.0119 -0.3414
  164MOL0     H21627  11.396   5.096   4.635  0.7423  0.1479  0.2469
  164MOL0     H21628  11.151   4.937   4.711 -1.1727 -2.2051  3.9318
  164MOL0     H21629  11.207   5.055   4.812 -5.6665 -1.5978 -0.5580
  164MOL0     H21630  10.675   5.337   4.120  3.5954  0.8078 -4.0124
  164MOL0     H21631  10.455   5.375   4.201 -0.5284  0.8068  0.7405
  164MOL0     H21632  10.108   5.685   4.133  2.0463 -2.0876 -1.4016
  164MOL0     H21633   9.878   5.640   4.082 -0.5787 -0.0455 -0.7799
  164MOL0     H21634   8.506   5.009   3.329  0.7559  1.8801 -1.3716
  164MOL0     H21635   8.417   4.922   3.119  1.9705  1.7590  0.7825
  164MOL0     H21636   7.966   4.749   3.021  0.8165 -1.7028  0.9266
  164MOL0     H21637   7.865   4.569   2.906  0.9398 -0.9897  0.9958
  164MOL0     H21638   7.739   4.473   2.747  0.7328  1.1774 -2.4828
  164MOL0     H21639   7.870   4.361   2.806 -1.5032  2.0922  1.7876
  164MOL0     H21640   7.669   4.244   2.669 -1.3427  2.1555  1.4681
  164MOL0     H21641   7.705   4.355   2.553 -3.5718 -1.5188  0.9683
  164MOL0     H21642   7.901   4.134   2.657  0.9731  0.6052  0.5158
  164MOL0     H21643   7.954   4.249   2.534  1.3353  2.9808  4.2857
  164MOL0     H21644   7.730   4.036   2.519  1.9118 -0.7108  3.5446
  164MOL0     H21645   7.761   4.164   2.396 -1.7063 -2.3691  0.0723
  164MOL0     H21646   8.091   3.908   2.356  0.6609  1.6048  2.0625
  164MOL0     H21647   8.137   4.610   2.568 -2.1096 -3.7408 -0.1122
  164MOL0     H21648   8.230   4.809   2.684  1.0687 -0.3144  1.9762
  165MOL0     O21649   9.062   5.179   8.318  0.8163 -0.0121 -0.0691
  165MOL0     C21650   9.089   5.072   8.374 -0.7597 -0.5928  0.7081
  165MOL0     O21651   8.997   4.991   8.430 -0.3250 -0.1424  1.8293
  165MOL0     C21652   8.861   5.017   8.423 -0.3488  0.5141  0.2191
  165MOL0     C21653   8.793   5.142   8.443  0.3371  0.0764 -0.5538
  165MOL0     C21654   8.654   5.145   8.446 -0.4733 -0.8825  0.1219
  165MOL0     C21655   8.575   5.031   8.423 -0.6645  0.6196 -0.3576
  165MOL0     O21656   8.441   5.053   8.420 -0.5586 -0.6353  0.4457
  165MOL0     C21657   8.341   4.952   8.454 -0.4187  0.6947  0.2862
  165MOL0     C21658   8.207   4.980   8.393 -0.1994 -0.3553 -0.1806
  165MOL0     C21659   8.128   5.088   8.468  0.1785  0.1252  0.1152
  165MOL0     C21660   7.980   5.111   8.427  0.8330  0.4790  0.9091
  165MOL0     C21661   7.902   5.178   8.540 -0.2068 -0.0839 -0.1900
  165MOL0     C21662   7.752   5.208   8.509  0.1785 -0.1030  0.4670
  165MOL0     C21663   7.722   5.290   8.377 -0.3400  0.2024 -0.4635
  165MOL0     C21664   7.738   5.438   8.373 -0.7882  0.4736 -0.5081
  165MOL0     N21665   7.870   5.496   8.410 -0.3138 -0.1746  0.1207
  165MOL0     C21666   7.990   5.461   8.370  0.5145  0.0177  0.0290
  165MOL0     C21667   8.071   5.565   8.419  0.2261  0.3320  0.5508
  165MOL0     C21668   8.223   5.570   8.391  0.9489  0.6578  0.0828
  165MOL0     C21669   8.300   5.490   8.497  0.8264  0.0680  0.3137
  165MOL0     C21670   8.340   5.591   8.610  0.2262 -1.0215  1.1724
  165MOL0     C21671   8.444   5.527   8.701 -0.3513 -0.0780  0.9052
  165MOL0     O21672   8.575   5.525   8.629  0.4785  0.2051  0.2277
  165MOL0     C21673   8.695   5.511   8.699  0.4269  0.5652  0.6005
  165MOL0     C21674   8.814   5.474   8.626 -0.1146  0.3915 -0.1940
  165MOL0     C21675   8.930   5.460   8.699 -0.1349  0.0872 -0.2792
  165MOL0     C21676   8.943   5.518   8.830  0.1166  0.5988 -0.4733
  165MOL0     C21677   9.079   5.530   8.883 -0.1586 -0.5154 -0.9636
  165MOL0     O21678   9.190   5.502   8.808  0.5587  0.1209  0.7242
  165MOL0     C21679   9.313   5.513   8.866  0.9551  0.0335 -1.1716
  165MOL0     C21680   9.352   5.478   8.999  0.4610  0.8645  0.2912
  165MOL0     C21681   9.483   5.495   9.042  0.3865 -0.4197 -0.7139
  165MOL0     C21682   9.582   5.561   8.956  0.5432  0.7803 -0.2326
  165MOL0     O21683   9.710   5.596   8.988 -0.6509  0.3699  0.5515
  165MOL0     C21684   9.745   5.590   9.129  0.2605  0.3853  0.4985
  165MOL0     C21685   9.874   5.653   9.160 -1.1882  0.1861 -0.2096
  165MOL0     C21686   9.855   5.770   9.258 -0.1305  0.4712 -0.4615
  165MOL0     C21687   9.975   5.824   9.319  0.2971 -0.9363  0.5967
  165MOL0     C21688   9.950   5.963   9.405 -0.4465  0.5409 -0.5368
  165MOL0     C21689  10.092   5.994   9.475  0.3881 -0.4282  0.2160
  165MOL0     C21690  10.075   6.113   9.586  0.9744  0.4496  0.4175
  165MOL0     C21691  10.219   6.168   9.613 -0.0361 -0.2294 -0.0891
  165MOL0    Cl21692  10.298   6.083   9.745 -0.3818  0.0701 -0.0664
  165MOL0     C21693   9.545   5.582   8.822  0.3605 -1.4712 -1.3811
  165MOL0     C21694   9.405   5.567   8.785 -0.0612 -1.2532  0.3903
  165MOL0     O21695   9.080   5.553   9.003 -1.2776  0.7556 -0.1526
  165MOL0     C21696   8.825   5.546   8.907 -0.2035 -0.6356 -0.0153
  165MOL0     C21697   8.702   5.535   8.837 -0.7345  0.7574 -0.0638
  165MOL0     N21698   7.999   5.664   8.475  0.1931  0.3866  0.6033
  165MOL0     N21699   7.876   5.619   8.482 -0.0519 -1.2063  0.3304
  165MOL0     C21700   8.643   4.910   8.413 -0.7048  1.1412  0.2383
  165MOL0     C21701   8.780   4.900   8.403 -0.6776 -0.7865 -0.7666
  165MOL0     C21702   9.226   5.015   8.398 -0.1704  0.2427  0.0524
  165MOL0     C21703   9.339   5.093   8.395 -1.2626 -0.1981  0.1401
  165MOL0     C21704   9.472   5.039   8.398  0.4145  1.0097  0.4620
  165MOL0     C21705   9.489   4.904   8.393 -0.3689  0.2910 -0.3126
  165MOL0     O21706   9.618   4.860   8.387 -0.2790  0.1355 -0.4462
  165MOL0     C21707   9.657   4.729   8.388  1.2264 -0.1284  0.5439
  165MOL0     C21708   9.801   4.732   8.329 -0.3172 -0.4246  0.1440
  165MOL0     C21709   9.861   4.588   8.364  0.1279 -0.9626 -0.6513
  165MOL0     C21710  10.006   4.582   8.323 -0.0627 -0.7707 -0.0258
  165MOL0     C21711  10.082   4.475   8.391  0.2867  0.6432  0.8132
  165MOL0     C21712  10.150   4.394   8.456  0.3222 -0.5407 -0.0690
  165MOL0     C21713   9.376   4.821   8.390  0.4571  0.7777 -0.1204
  165MOL0     C21714   9.251   4.881   8.396 -1.0324  0.3932 -0.3686
  165MOL0     H21715   8.847   5.235   8.450  1.3421 -0.5264  0.0383
  165MOL0     H21716   8.607   5.242   8.449  3.0995  1.1697 -2.3441
  165MOL0     H21717   8.330   4.942   8.563 -1.8788 -2.4998 -0.0482
  165MOL0     H21718   8.383   4.856   8.422 -1.2447 -0.3199  2.1053
  165MOL0     H21719   8.151   4.886   8.395  1.2376 -1.4972 -4.1837
  165MOL0     H21720   8.237   5.021   8.296  1.3330  0.3662  0.5723
  165MOL0     H21721   8.173   5.187   8.468  0.1429  0.1613  1.7099
  165MOL0     H21722   8.130   5.051   8.571 -0.2158 -4.0172 -1.1744
  165MOL0     H21723   7.978   5.160   8.329  2.0147  0.4356  0.8432
  165MOL0     H21724   7.938   5.013   8.399  3.2936 -0.0323 -1.4182
  165MOL0     H21725   7.952   5.268   8.576  2.6260 -0.6147 -2.4331
  165MOL0     H21726   7.907   5.100   8.616 -1.0142 -1.3013 -1.3477
  165MOL0     H21727   7.714   5.258   8.599  2.6741  2.1464  0.3931
  165MOL0     H21728   7.700   5.112   8.505 -0.7433  0.3357  1.3786
  165MOL0     H21729   7.780   5.243   8.297 -0.3352 -4.1377  1.8346
  165MOL0     H21730   7.615   5.274   8.365 -0.3108 -0.8927  0.5640
  165MOL0     H21731   7.664   5.477   8.444 -1.0234 -0.0401 -0.4640
  165MOL0     H21732   7.708   5.462   8.270 -1.5161  3.1559  0.2420
  165MOL0     H21733   8.015   5.372   8.312 -1.9481  0.4298 -1.8398
  165MOL0     H21734   8.249   5.676   8.403 -1.1519  0.9787  2.8370
  165MOL0     H21735   8.232   5.529   8.290 -1.7405  4.2742 -1.9008
  165MOL0     H21736   8.391   5.450   8.451  1.2537 -0.1668  1.3263
  165MOL0     H21737   8.251   5.400   8.533 -0.6036 -1.6612 -5.0436
  165MOL0     H21738   8.371   5.687   8.567 -1.9705 -1.7646 -2.5543
  165MOL0     H21739   8.243   5.614   8.656 -1.2027  4.6135 -3.4383
  165MOL0     H21740   8.396   5.435   8.732  0.2156  0.0686  2.2740
  165MOL0     H21741   8.464   5.587   8.790 -1.5299  0.7724  0.6241
  165MOL0     H21742   8.811   5.453   8.520 -0.0831 -0.1717 -0.0887
  165MOL0     H21743   9.022   5.422   8.654  3.5661  1.5076  5.0993
  165MOL0     H21744   9.292   5.410   9.058  0.1124 -0.0962 -1.1114
  165MOL0     H21745   9.524   5.457   9.135  0.8425  0.8102 -0.3829
  165MOL0     H21746   9.748   5.487   9.166  2.3082 -0.8615 -2.7175
  165MOL0     H21747   9.670   5.644   9.188 -2.5769 -1.9539 -0.7277
  165MOL0     H21748   9.931   5.698   9.078 -0.1475  0.2936  0.5365
  165MOL0     H21749   9.944   5.577   9.196  0.5071  1.5641 -0.4642
  165MOL0     H21750   9.789   5.742   9.340 -1.3786  1.6282 -1.0405
  165MOL0     H21751   9.807   5.846   9.195 -0.6117  0.9338  0.4485
  165MOL0     H21752  10.022   5.746   9.379 -3.4804 -4.5030 -0.6317
  165MOL0     H21753  10.050   5.835   9.240 -0.1453  0.8085  0.3677
  165MOL0     H21754   9.865   5.941   9.471 -1.2376  1.3129 -1.2735
  165MOL0     H21755   9.928   6.053   9.348  1.1194  1.6601  0.5454
  165MOL0     H21756  10.166   6.019   9.398  0.0840  1.2760  0.4469
  165MOL0     H21757  10.131   5.916   9.540  0.9807  2.5387  3.7336
  165MOL0     H21758  10.015   6.195   9.546 -2.6303 -1.1889  2.0162
  165MOL0     H21759  10.030   6.080   9.680  2.2210  0.1785  0.9418
  165MOL0     H21760  10.209   6.276   9.627 -0.8782 -0.4333  1.0227
  165MOL0     H21761  10.276   6.154   9.521  0.8553  1.7791  0.1195
  165MOL0     H21762   9.622   5.615   8.754  1.2313 -1.5996 -0.4732
  165MOL0     H21763   9.376   5.565   8.681  2.8429 -4.0775 -0.5318
  165MOL0     H21764   8.827   5.557   9.015 -0.6402  0.5167 -0.1126
  165MOL0     H21765   8.614   5.546   8.899 -0.5451  1.1279  0.1438
  165MOL0     H21766   8.592   4.815   8.401  0.8651  0.1208  1.2721
  165MOL0     H21767   8.825   4.802   8.392 -0.0217 -0.3611 -2.1279
  165MOL0     H21768   9.325   5.201   8.401 -0.6359 -0.1931  2.0601
  165MOL0     H21769   9.559   5.103   8.393  0.5815  0.6788 -1.6332
  165MOL0     H21770   9.605   4.662   8.319  3.6718 -2.9039  1.2190
  165MOL0     H21771   9.645   4.689   8.489 -1.0220 -3.8351 -0.9592
  165MOL0     H21772   9.814   4.738   8.220  1.9718 -2.0719  0.2520
  165MOL0     H21773   9.864   4.810   8.372 -0.9149 -1.3486  2.8677
  165MOL0     H21774   9.809   4.504   8.318  0.0782 -1.2276 -0.1219
  165MOL0     H21775   9.858   4.585   8.473  1.7973 -0.9331 -0.5730
  165MOL0     H21776  10.017   4.573   8.215  2.0652 -3.4354  0.3161
  165MOL0     H21777  10.055   4.678   8.344 -1.1461  0.4315 -2.6000
  165MOL0     H21778  10.218   4.319   8.490  2.5852 -0.3097 -3.5880
  165MOL0     H21779   9.389   4.713   8.384  2.5130  0.9107  1.0667
  165MOL0     H21780   9.165   4.815   8.399 -2.5384  2.2869  0.2483
  166MOL0     O21781   2.622   8.578  10.862 -0.4437 -0.0387  0.4416
  166MOL0     C21782   2.657   8.669  10.790  0.1090  0.3721  0.3177
  166MOL0     O21783   2.780   8.715  10.767 -0.4497 -0.5763 -0.5329
  166MOL0     C21784   2.898   8.679  10.828 -0.1238  0.2442 -0.5954
  166MOL0     C21785   3.007   8.758  10.787  0.3711  0.3619 -0.1163
  166MOL0     C21786   3.121   8.740  10.848  0.6200  0.2038  0.0859
  166MOL0     C21787   3.157   8.631  10.935  0.1790 -1.5490  0.9041
  166MOL0     O21788   3.292   8.603  10.948  0.7246 -0.6597  0.4608
  166MOL0     C21789   3.332   8.478  10.980 -0.2962  0.1070 -0.0677
  166MOL0     C21790   3.483   8.463  10.985  0.0296 -0.6716  0.1450
  166MOL0     C21791   3.561   8.549  11.078  0.1857 -0.7449 -0.7625
  166MOL0     C21792   3.535   8.487  11.223 -0.5112 -1.0416  0.3809
  166MOL0     C21793   3.518   8.594  11.343  0.0484  0.4861 -0.0168
  166MOL0     C21794   3.389   8.680  11.333  0.3683  0.3159  0.3779
  166MOL0     C21795   3.372   8.774  11.450  0.4567 -0.8163 -0.4392
  166MOL0     C21796   3.280   8.887  11.426  1.1265 -0.4566  0.2085
  166MOL0     N21797   3.132   8.841  11.424 -0.5372 -0.0341 -0.0279
  166MOL0     C21798   3.064   8.783  11.315 -0.0528 -0.0568 -0.5353
  166MOL0     C21799   2.947   8.734  11.372 -1.0783 -0.0495  0.4834
  166MOL0     C21800   2.837   8.653  11.308 -0.3139  0.1372  0.1433
  166MOL0     C21801   2.762   8.739  11.201  0.2762 -0.2554  0.6013
  166MOL0     C21802   2.675   8.865  11.240 -0.2119 -0.4054  0.2518
  166MOL0     C21803   2.561   8.828  11.341  0.9434 -0.3181  0.1484
  166MOL0     O21804   2.482   8.728  11.267 -0.6920  0.2782  0.1819
  166MOL0     C21805   2.360   8.759  11.212 -0.1298  0.5530  0.1885
  166MOL0     C21806   2.333   8.700  11.096  0.0787  0.1534 -1.1211
  166MOL0     C21807   2.209   8.724  11.026 -0.1198  0.5649 -0.5218
  166MOL0     C21808   2.119   8.810  11.092  0.7065  0.9563 -0.0223
  166MOL0     C21809   1.994   8.842  11.017 -0.7799  1.0573 -0.3690
  166MOL0     O21810   1.965   8.767  10.903  0.3176 -0.1636 -0.4763
  166MOL0     C21811   1.847   8.787  10.830 -0.1916  0.7404 -0.1647
  166MOL0     C21812   1.786   8.912  10.817 -0.0243  0.1055  1.0885
  166MOL0     C21813   1.672   8.925  10.739 -0.4117  0.0168 -0.2829
  166MOL0     C21814   1.613   8.812  10.682  0.0291  0.1368  0.8105
  166MOL0     O21815   1.502   8.830  10.606  0.1020 -0.4980  0.4596
  166MOL0     C21816   1.464   8.741  10.505 -0.1090  0.1686 -0.8987
  166MOL0     C21817   1.346   8.790  10.423 -0.0594 -0.4542  0.3553
  166MOL0     C21818   1.240   8.860  10.503 -0.4222 -0.0236  0.6924
  166MOL0     C21819   1.150   8.759  10.570 -0.7015 -0.6609 -0.0906
  166MOL0     C21820   1.049   8.820  10.668  0.9665  0.8690 -0.3974
  166MOL0     C21821   0.992   8.943  10.624 -0.2263 -0.0751  1.0848
  166MOL0     C21822   0.896   8.998  10.732 -0.1338 -0.2205 -0.2385
  166MOL0     C21823   0.761   8.924  10.725  0.0813  0.0089  0.4169
  166MOL0    Cl21824   0.619   9.031  10.743  0.0016 -0.0163 -0.3667
  166MOL0     C21825   1.685   8.688  10.687  0.6538 -0.8177 -0.2497
  166MOL0     C21826   1.799   8.686  10.763 -1.3133  0.9894  0.7109
  166MOL0     O21827   1.932   8.927  11.074  0.5572 -0.8919  0.5425
  166MOL0     C21828   2.152   8.873  11.212 -0.3728 -0.0453 -0.5458
  166MOL0     C21829   2.272   8.845  11.279 -0.5770 -0.8330  0.7258
  166MOL0     N21830   2.943   8.764  11.509  0.4327  0.9481  0.3872
  166MOL0     N21831   3.059   8.831  11.540 -0.3046  0.1057 -0.4698
  166MOL0     C21832   3.048   8.557  10.988 -0.2842 -0.3488  0.8071
  166MOL0     C21833   2.916   8.576  10.933  0.1571 -0.4507  0.8111
  166MOL0     C21834   2.537   8.737  10.734  0.3492  0.1552  1.1376
  166MOL0     C21835   2.540   8.876  10.695 -1.0051 -0.0804 -0.0856
  166MOL0     C21836   2.432   8.938  10.632 -0.6650  0.9788  0.1190
  166MOL0     C21837   2.324   8.856  10.594  0.7120  0.2258  0.3917
  166MOL0     O21838   2.239   8.923  10.523  0.7579 -0.3840 -0.2263
  166MOL0     C21839   2.111   8.859  10.507  0.5676  0.1569 -0.7174
  166MOL0     C21840   2.023   8.971  10.444 -0.2471  1.0474  0.0623
  166MOL0     C21841   1.877   8.943  10.429 -0.3859 -0.6703  1.4666
  166MOL0     C21842   1.809   9.082  10.408  0.4616 -0.5665 -0.0417
  166MOL0     C21843   1.669   9.087  10.381  0.7354 -0.0711  0.6119
  166MOL0     C21844   1.550   9.097  10.371  0.6157 -1.3030  0.5594
  166MOL0     C21845   2.321   8.723  10.624 -0.8387  1.0711  0.7610
  166MOL0     C21846   2.429   8.662  10.695 -0.7308  0.1341  0.1198
  166MOL0     H21847   2.990   8.825  10.703  1.3819  0.0948 -0.5418
  166MOL0     H21848   3.201   8.803  10.811  1.4207 -0.6825  0.2496
  166MOL0     H21849   3.295   8.407  10.906  1.2492 -2.6010  1.5759
  166MOL0     H21850   3.286   8.455  11.077  1.2940 -1.5933  0.3382
  166MOL0     H21851   3.509   8.487  10.881 -2.9571 -1.6538 -0.9409
  166MOL0     H21852   3.509   8.357  10.993 -0.8265 -0.8130  1.2663
  166MOL0     H21853   3.529   8.653  11.065 -2.6838 -1.5758 -1.2050
  166MOL0     H21854   3.669   8.542  11.069  0.2190 -0.5036 -0.5735
  166MOL0     H21855   3.450   8.419  11.221 -2.7320  1.5018 -3.1314
  166MOL0     H21856   3.615   8.414  11.239 -1.4459 -3.6932 -4.7518
  166MOL0     H21857   3.612   8.650  11.355  1.8761 -2.0740 -1.4677
  166MOL0     H21858   3.496   8.534  11.431  1.1789  0.6333  0.3884
  166MOL0     H21859   3.298   8.619  11.328  0.7385 -0.1557 -1.0565
  166MOL0     H21860   3.391   8.752  11.251  1.9007  0.3268  0.3902
  166MOL0     H21861   3.340   8.715  11.537 -0.7036 -0.1049 -0.3625
  166MOL0     H21862   3.469   8.817  11.477  0.3152  0.9611 -2.5026
  166MOL0     H21863   3.302   8.927  11.326 -1.3424 -2.7331 -1.3733
  166MOL0     H21864   3.302   8.959  11.505  3.3530 -0.8474  0.0093
  166MOL0     H21865   3.098   8.764  11.214  1.3656  0.6326 -0.2280
  166MOL0     H21866   2.765   8.610  11.378 -1.5519 -1.1177 -1.8387
  166MOL0     H21867   2.881   8.565  11.261 -1.9761 -0.3251 -0.5776
  166MOL0     H21868   2.703   8.677  11.132  0.8905  0.1691 -0.3270
  166MOL0     H21869   2.847   8.781  11.145  0.8554 -1.3636  0.6266
  166MOL0     H21870   2.750   8.925  11.292 -0.7624  0.8497 -0.3546
  166MOL0     H21871   2.643   8.921  11.151  3.9486  1.4815 -0.3122
  166MOL0     H21872   2.504   8.919  11.364  0.4644 -0.6695  0.3519
  166MOL0     H21873   2.593   8.784  11.436  0.9773 -4.1190 -1.4383
  166MOL0     H21874   2.400   8.639  11.037 -1.2690 -0.3985 -2.1382
  166MOL0     H21875   2.188   8.672  10.933  1.6913 -1.2027 -0.0082
  166MOL0     H21876   1.832   8.996  10.869 -0.0651  0.7922  0.0446
  166MOL0     H21877   1.619   9.020  10.733  2.2397  1.6003  0.0161
  166MOL0     H21878   1.428   8.640  10.531  0.4835  0.5889  1.8672
  166MOL0     H21879   1.540   8.729  10.428 -1.7312  1.8844 -2.8778
  166MOL0     H21880   1.308   8.707  10.362  1.6936 -0.8557 -0.2579
  166MOL0     H21881   1.386   8.859  10.348  0.3504 -0.7536  0.2944
  166MOL0     H21882   1.178   8.912  10.429  0.2848 -0.4741 -0.2351
  166MOL0     H21883   1.286   8.928  10.574 -1.3796 -0.4335  1.7300
  166MOL0     H21884   1.094   8.724  10.482 -2.1660 -1.2696  1.0208
  166MOL0     H21885   1.203   8.676  10.617 -1.0235  0.3740  2.2171
  166MOL0     H21886   1.111   8.831  10.758 -1.2149 -0.9225  1.4650
  166MOL0     H21887   0.973   8.747  10.696  1.8806  1.0610  3.0031
  166MOL0     H21888   0.942   8.934  10.527  0.0559  2.2397  0.6872
  166MOL0     H21889   1.067   9.021  10.617  0.0126 -0.3896  0.0593
  166MOL0     H21890   0.935   9.000  10.834 -1.9769 -2.0828  0.5730
  166MOL0     H21891   0.870   9.102  10.705  0.0272 -0.4326 -1.2638
  166MOL0     H21892   0.758   8.841  10.797 -1.2585  0.0061  0.3879
  166MOL0     H21893   0.760   8.875  10.627 -0.2790  0.0309  0.4087
  166MOL0     H21894   1.633   8.599  10.654 -0.7773 -0.5417  1.1140
  166MOL0     H21895   1.845   8.589  10.773  1.7867  2.0247 -1.7105
  166MOL0     H21896   2.083   8.944  11.255  0.6663  1.2104 -0.9083
  166MOL0     H21897   2.285   8.906  11.368 -4.1077  0.3574  0.6172
  166MOL0     H21898   3.048   8.481  11.065 -3.3295 -0.5481  0.7072
  166MOL0     H21899   2.842   8.507  10.972  1.2825 -2.9441 -1.1666
  166MOL0     H21900   2.629   8.932  10.721 -0.6913 -0.2343 -0.8061
  166MOL0     H21901   2.438   9.038  10.591  0.4121  0.1989 -1.7460
  166MOL0     H21902   2.071   8.840  10.607 -2.4298  0.9248 -1.6794
  166MOL0     H21903   2.113   8.765  10.450 -0.2759 -0.8180  0.7970
  166MOL0     H21904   2.030   9.050  10.518 -3.0638  2.4283 -1.0083
  166MOL0     H21905   2.077   9.004  10.355 -0.0006 -0.0380 -0.2096
  166MOL0     H21906   1.846   8.897  10.523  0.9646 -0.5340  2.0036
  166MOL0     H21907   1.854   8.878  10.344 -0.7113  0.7190  0.4516
  166MOL0     H21908   1.831   9.156  10.485  0.8658  0.9500 -1.5265
  166MOL0     H21909   1.863   9.136  10.329  1.8498  1.5204  2.2022
  166MOL0     H21910   1.447   9.119  10.354  1.5887  1.9873 -2.4744
  166MOL0     H21911   2.251   8.649  10.588 -0.9228  0.3518  2.3427
  166MOL0     H21912   2.440   8.556  10.715  3.2798  0.9392  3.4823
  167MOL0     O21913   6.875   3.028  10.043  1.0090  0.1928  0.3969
  167MOL0     C21914   6.984   2.997  10.096  1.1383 -0.1778 -0.2284
  167MOL0     O21915   6.997   2.965  10.226 -0.7568  1.0678 -0.0132
  167MOL0     C21916   6.890   2.916  10.298 -0.3486 -0.6247  0.0402
  167MOL0     C21917   6.824   3.013  10.371 -0.2931  0.2354 -0.3032
  167MOL0     C21918   6.710   2.983  10.445 -0.3342 -0.6387 -0.7053
  167MOL0     C21919   6.658   2.854  10.456 -0.5824  0.2692 -0.0748
  167MOL0     O21920   6.537   2.829  10.520 -0.6215 -0.3144  0.1249
  167MOL0     C21921   6.444   2.939  10.547  0.6484  1.0875 -0.2929
  167MOL0     C21922   6.318   2.875  10.617 -0.0169  0.6784  0.0090
  167MOL0     C21923   6.212   2.967  10.677 -0.8297  0.3934  0.0282
  167MOL0     C21924   6.110   2.887  10.744  0.1196  0.8746 -0.6735
  167MOL0     C21925   5.999   2.966  10.798  0.5663  0.0011 -0.0507
  167MOL0     C21926   5.878   2.877  10.850  0.4181 -0.2079 -0.4253
  167MOL0     C21927   5.764   2.957  10.913 -1.5901 -0.0903 -0.6763
  167MOL0     C21928   5.676   2.868  11.013 -0.1732 -0.5194  0.2054
  167MOL0     N21929   5.565   2.931  11.091  0.9960 -0.3168  0.1741
  167MOL0     C21930   5.586   3.052  11.155  0.1252  0.2923 -0.2644
  167MOL0     C21931   5.477   3.081  11.220  1.0909  1.1138  0.0610
  167MOL0     C21932   5.457   3.204  11.308  1.2402  0.0050 -0.0804
  167MOL0     C21933   5.391   3.317  11.220  0.1485  1.2779  0.5128
  167MOL0     C21934   5.357   3.439  11.300 -0.3604  0.7575 -0.8569
  167MOL0     C21935   5.300   3.557  11.221 -1.0882 -0.0407  0.1100
  167MOL0     O21936   5.251   3.649  11.317  0.5996  0.5276  0.1710
  167MOL0     C21937   5.189   3.759  11.268 -0.4771 -0.5525  1.2613
  167MOL0     C21938   5.147   3.774  11.131 -0.3796 -0.2195 -1.0067
  167MOL0     C21939   5.084   3.889  11.081 -0.4438  0.1843 -1.0298
  167MOL0     C21940   5.071   4.006  11.158 -0.0432  0.3026 -0.0596
  167MOL0     C21941   5.006   4.129  11.101  0.9237  0.0350  0.1823
  167MOL0     O21942   4.958   4.127  10.971  0.0690  0.1227 -0.4849
  167MOL0     C21943   4.925   4.240  10.912  0.5954  0.3664 -0.0018
  167MOL0     C21944   4.809   4.245  10.833 -0.3073  0.3538 -0.5571
  167MOL0     C21945   4.750   4.358  10.778 -0.6129  0.3808 -0.2854
  167MOL0     C21946   4.825   4.482  10.790  0.0582  0.6337  0.5082
  167MOL0     O21947   4.779   4.594  10.721  0.4013  0.0935  0.3100
  167MOL0     C21948   4.815   4.721  10.767 -0.2747 -0.3407  0.1662
  167MOL0     C21949   4.761   4.826  10.670  0.0864  0.1790 -0.8236
  167MOL0     C21950   4.831   4.814  10.537 -0.9555 -0.5012 -0.7923
  167MOL0     C21951   4.816   4.924  10.437 -0.0341 -0.3851 -0.0350
  167MOL0     C21952   4.899   4.905  10.310  0.3549  0.3701  0.0592
  167MOL0     C21953   4.853   5.009  10.205 -0.7808  0.3736  1.3575
  167MOL0     C21954   4.929   5.000  10.068  1.0553  0.2998 -0.7119
  167MOL0     C21955   5.071   5.036  10.074 -0.4590 -1.4425  0.2112
  167MOL0    Cl21956   5.178   4.885  10.100  0.3470  0.1849 -0.1547
  167MOL0     C21957   4.947   4.476  10.860  0.7348 -0.2936 -0.3318
  167MOL0     C21958   5.001   4.360  10.910  0.2047  0.5092  0.6668
  167MOL0     O21959   4.998   4.221  11.187  0.0087  0.4357  0.3242
  167MOL0     C21960   5.111   3.988  11.294  0.1527 -0.3467  0.6275
  167MOL0     C21961   5.163   3.873  11.352 -0.7106  0.1873  0.9365
  167MOL0     N21962   5.385   2.981  11.188 -0.4575 -0.2939  0.0872
  167MOL0     N21963   5.434   2.892  11.115 -0.2384 -0.1169  0.1629
  167MOL0     C21964   6.723   2.755  10.376  0.0630  0.5898  0.8695
  167MOL0     C21965   6.840   2.788  10.302  0.1148 -0.5707  1.1546
  167MOL0     C21966   7.105   3.005  10.016  0.6151  0.1992 -0.2872
  167MOL0     C21967   7.133   3.106   9.928  0.2965 -0.4924 -1.4750
  167MOL0     C21968   7.250   3.118   9.853 -0.1991  0.0114  0.0615
  167MOL0     C21969   7.364   3.040   9.897  0.2074  0.5593  0.8138
  167MOL0     O21970   7.489   3.069   9.847 -0.1886  0.2753  0.6409
  167MOL0     C21971   7.605   3.011   9.903 -0.7008  0.6352 -0.2262
  167MOL0     C21972   7.728   3.092   9.877 -0.4254  0.5482  0.0558
  167MOL0     C21973   7.725   3.220   9.956  0.2835 -0.1172 -0.4023
  167MOL0     C21974   7.860   3.275   9.983 -1.3128  0.0406 -1.2483
  167MOL0     C21975   7.966   3.272   9.874 -0.3994  0.2773 -0.0723
  167MOL0     C21976   8.049   3.277   9.784  0.0319  0.6033  0.1133
  167MOL0     C21977   7.347   2.939   9.984 -0.1800  0.1865 -0.2880
  167MOL0     C21978   7.222   2.922  10.045  0.7122  0.0916  0.8867
  167MOL0     H21979   6.851   3.118  10.361 -0.1560  0.2783  0.5048
  167MOL0     H21980   6.659   3.063  10.498 -0.4149 -2.1122  1.6232
  167MOL0     H21981   6.402   2.983  10.456 -0.2457  0.6058 -0.1205
  167MOL0     H21982   6.492   3.010  10.616  2.7556  0.2971 -0.8733
  167MOL0     H21983   6.364   2.813  10.695 -0.5756  1.4915  1.0089
  167MOL0     H21984   6.264   2.799  10.558 -1.7198 -0.2396  2.5767
  167MOL0     H21985   6.167   3.042  10.610 -1.5058 -2.1352 -2.5436
  167MOL0     H21986   6.259   3.028  10.755 -1.3844  0.3602  0.3977
  167MOL0     H21987   6.055   2.826  10.672  2.6477 -1.7081 -0.5903
  167MOL0     H21988   6.154   2.825  10.822 -1.2609  0.7419  0.0296
  167MOL0     H21989   5.960   3.034  10.720  1.1703 -1.4025 -1.6323
  167MOL0     H21990   6.035   3.027  10.882 -0.1151  1.3120 -0.6677
  167MOL0     H21991   5.921   2.818  10.932 -2.6126  1.1994  2.4305
  167MOL0     H21992   5.847   2.817  10.764 -1.0223  2.4815 -1.9072
  167MOL0     H21993   5.809   3.036  10.974 -3.5799  1.5196 -1.1684
  167MOL0     H21994   5.699   3.003  10.837  0.2273  2.5828 -0.7511
  167MOL0     H21995   5.746   2.818  11.080 -2.0385 -1.8090  1.2918
  167MOL0     H21996   5.629   2.782  10.964 -0.4586 -2.3013  3.3656
  167MOL0     H21997   5.667   3.123  11.143 -3.4506  5.0661  0.7021
  167MOL0     H21998   5.559   3.230  11.337  1.4409  1.7705 -2.1191
  167MOL0     H21999   5.395   3.193  11.397 -4.5123  1.8338 -3.3475
  167MOL0     H22000   5.296   3.282  11.178 -0.4062  0.9565  1.9727
  167MOL0     H22001   5.452   3.342  11.133 -0.0460  1.1994  0.3528
  167MOL0     H22002   5.281   3.415  11.375  1.8042  2.1837  1.9921
  167MOL0     H22003   5.453   3.463  11.347  0.2596 -0.7432 -1.3007
  167MOL0     H22004   5.227   3.512  11.153 -0.2122 -1.7295  0.2492
  167MOL0     H22005   5.385   3.602  11.168  0.5828 -1.8733  1.0835
  167MOL0     H22006   5.141   3.685  11.070 -0.0632  0.2943 -1.7986
  167MOL0     H22007   5.035   3.877  10.985  0.0797 -4.0075 -0.9854
  167MOL0     H22008   4.747   4.157  10.817 -3.0835  2.5949 -3.2137
  167MOL0     H22009   4.649   4.347  10.740 -1.5654  0.2313  2.1114
  167MOL0     H22010   4.924   4.730  10.763 -0.2798 -0.5563 -0.4734
  167MOL0     H22011   4.774   4.731  10.869 -0.0282 -3.6355  0.6963
  167MOL0     H22012   4.769   4.922  10.722 -3.0749 -0.1138  0.4861
  167MOL0     H22013   4.657   4.790  10.670 -0.2854  1.0836  1.4016
  167MOL0     H22014   4.810   4.716  10.494  1.7963 -0.8532 -1.5063
  167MOL0     H22015   4.935   4.804  10.569 -1.6219 -1.2542  1.3377
  167MOL0     H22016   4.708   4.931  10.419 -0.0821 -2.1198 -0.6610
  167MOL0     H22017   4.852   5.017  10.482 -1.2087 -0.5371  1.3060
  167MOL0     H22018   4.900   4.801  10.276 -3.0742 -0.6430  2.4968
  167MOL0     H22019   5.002   4.922  10.342 -0.3050  0.8962  2.0894
  167MOL0     H22020   4.872   5.110  10.243  2.3392 -0.2254  1.6439
  167MOL0     H22021   4.749   4.990  10.177 -0.5726  1.1480 -0.0137
  167MOL0     H22022   4.910   4.905  10.017  0.3052 -0.5065  1.0007
  167MOL0     H22023   4.889   5.083  10.009 -1.0174  2.3287  3.1489
  167MOL0     H22024   5.074   5.094  10.166 -1.5832 -3.5204  1.6347
  167MOL0     H22025   5.102   5.085   9.981  2.8267 -0.2457  1.7935
  167MOL0     H22026   5.003   4.569  10.864 -0.0821  0.2354 -0.9774
  167MOL0     H22027   5.090   4.377  10.970 -0.2804 -0.5751  1.7466
  167MOL0     H22028   5.101   4.076  11.355 -0.4386 -0.6896  1.0302
  167MOL0     H22029   5.189   3.880  11.457 -2.6034 -1.3411  1.5596
  167MOL0     H22030   6.678   2.656  10.377 -2.4049  1.4270 -3.4316
  167MOL0     H22031   6.898   2.708  10.257  0.9885  1.3926 -1.4060
  167MOL0     H22032   7.055   3.180   9.908  1.6868  1.2559 -0.6999
  167MOL0     H22033   7.273   3.189   9.775 -0.6242 -2.0766 -2.0780
  167MOL0     H22034   7.622   2.912   9.858  2.8958  1.0247 -0.0612
  167MOL0     H22035   7.604   3.000  10.012 -2.0069  1.2310 -0.1612
  167MOL0     H22036   7.807   3.030   9.921 -0.2085  0.0026 -1.0556
  167MOL0     H22037   7.734   3.112   9.770 -0.8136 -0.1830 -0.1109
  167MOL0     H22038   7.674   3.207  10.052 -1.7254  3.2254 -0.8767
  167MOL0     H22039   7.667   3.293   9.900 -0.9315 -2.0473 -1.7808
  167MOL0     H22040   7.859   3.379  10.019 -1.1098 -0.2600 -0.3412
  167MOL0     H22041   7.900   3.223  10.071 -0.7570  0.2389 -1.3846
  167MOL0     H22042   8.123   3.269   9.707  2.1049 -0.7155  2.1174
  167MOL0     H22043   7.429   2.882  10.025  0.2667  1.5285  0.7680
  167MOL0     H22044   7.206   2.836  10.109  2.8261 -1.2381 -0.2658
  168MOL0     O22045  10.526   5.733   9.352 -0.1079 -0.5666 -0.6147
  168MOL0     C22046  10.420   5.757   9.298 -0.3641  0.5153  0.5227
  168MOL0     O22047  10.299   5.691   9.320  0.0032  0.2371  0.9046
  168MOL0     C22048  10.275   5.633   9.446  0.0817  0.4596 -0.4546
  168MOL0     C22049  10.316   5.684   9.566 -0.3217 -0.6021 -0.2430
  168MOL0     C22050  10.283   5.625   9.682  0.3686  0.7268 -0.1154
  168MOL0     C22051  10.220   5.500   9.686  0.0213  0.1789 -0.1525
  168MOL0     O22052  10.203   5.448   9.820  0.4038  0.1483  0.5394
  168MOL0     C22053  10.152   5.309   9.840 -0.2075  0.2771 -0.0450
  168MOL0     C22054  10.276   5.221   9.857  0.7469 -0.5903  0.4312
  168MOL0     C22055  10.229   5.080   9.918  0.2302 -0.2456 -0.6120
  168MOL0     C22056  10.355   4.992   9.937  0.1311  0.0885 -0.0498
  168MOL0     C22057  10.435   4.968   9.814  0.0798 -1.0679  1.2518
  168MOL0     C22058  10.544   4.858   9.828  0.5106 -0.5435  0.2228
  168MOL0     C22059  10.642   4.841   9.713 -0.1420 -0.4295  0.4562
  168MOL0     C22060  10.714   4.966   9.666  0.0896  0.1652  0.0046
  168MOL0     N22061  10.814   4.962   9.567  0.2918 -0.1451 -0.7562
  168MOL0     C22062  10.939   5.029   9.570 -0.7686  0.9278  0.9109
  168MOL0     C22063  11.008   4.958   9.474 -0.6481 -0.0091 -0.2434
  168MOL0     C22064  11.157   4.980   9.447 -0.3660  0.6484 -0.8039
  168MOL0     C22065  11.180   5.081   9.336  0.0271  1.2376  0.3875
  168MOL0     C22066  11.256   5.203   9.385  0.4954 -0.9264 -0.1945
  168MOL0     C22067  11.396   5.197   9.453  1.3141  0.2683  0.5252
  168MOL0     O22068  11.491   5.192   9.350 -0.4715  0.8608 -0.0010
  168MOL0     C22069  11.623   5.152   9.376 -0.2309 -0.6688  0.2495
  168MOL0     C22070  11.712   5.146   9.273 -0.0253  0.1563  0.8100
  168MOL0     C22071  11.839   5.096   9.295 -1.1348 -0.6080  0.2902
  168MOL0     C22072  11.893   5.056   9.422 -0.5224  0.2868  0.0704
  168MOL0     C22073  12.025   5.001   9.438 -0.5598 -0.1795 -0.2156
  168MOL0     O22074  12.095   4.989   9.324 -0.2337 -0.7706 -0.5539
  168MOL0     C22075  12.226   4.930   9.338 -0.4093 -0.2255 -0.1181
  168MOL0     C22076  12.326   4.988   9.422  1.1498  1.3725  0.4805
  168MOL0     C22077  12.450   4.927   9.430  0.0801  0.4577  0.0723
  168MOL0     C22078  12.490   4.830   9.340  0.0544  0.3585  0.8265
  168MOL0     O22079  12.615   4.779   9.371 -0.8695  0.2631 -0.0863
  168MOL0     C22080  12.677   4.683   9.281 -0.3210 -0.7963  0.3435
  168MOL0     C22081  12.788   4.620   9.353  0.4609 -0.2382  0.0656
  168MOL0     C22082  12.863   4.515   9.260  0.4040  0.2014 -0.3640
  168MOL0     C22083  12.983   4.447   9.330  1.2553 -0.8382  0.0485
  168MOL0     C22084  13.102   4.549   9.323 -0.2649 -0.0989  0.2624
  168MOL0     C22085  13.211   4.482   9.416 -0.8896 -0.1441 -0.5821
  168MOL0     C22086  13.185   4.526   9.559  0.3571  0.6782  0.3624
  168MOL0     C22087  13.307   4.513   9.663  0.2750 -0.1067 -0.8110
  168MOL0    Cl22088  13.348   4.344   9.640  0.0955  0.1953  0.6073
  168MOL0     C22089  12.392   4.789   9.249  0.4959 -0.6153  0.0547
  168MOL0     C22090  12.263   4.839   9.239 -0.3677 -0.8669  0.0205
  168MOL0     O22091  12.057   4.963   9.547  0.2472  1.0416  0.4326
  168MOL0     C22092  11.800   5.073   9.524 -0.6890 -0.4819  0.2435
  168MOL0     C22093  11.670   5.113   9.508  0.0666  0.1818  0.4418
  168MOL0     N22094  10.915   4.871   9.408 -0.4462  0.3281 -0.2900
  168MOL0     N22095  10.805   4.877   9.467  0.2132  0.0726  0.0234
  168MOL0     C22096  10.179   5.446   9.556 -0.8434  0.1582 -1.3419
  168MOL0     C22097  10.196   5.516   9.432 -1.0575  0.9174 -0.3867
  168MOL0     C22098  10.438   5.832   9.169  0.3905  0.6814 -0.5125
  168MOL0     C22099  10.316   5.861   9.092  0.5242  0.1193  0.6349
  168MOL0     C22100  10.328   5.921   8.967  0.7646 -0.6706  0.0356
  168MOL0     C22101  10.457   5.945   8.914  0.5399 -1.1495  0.3885
  168MOL0     O22102  10.478   6.002   8.793  0.3148  0.1367  0.4468
  168MOL0     C22103  10.433   6.143   8.808  0.8149 -1.0457  0.3234
  168MOL0     C22104  10.486   6.231   8.925 -0.1788 -0.6706  0.6921
  168MOL0     C22105  10.467   6.382   8.899 -0.4907 -0.1325 -0.0240
  168MOL0     C22106  10.531   6.466   9.007 -0.0068 -0.0073  0.7836
  168MOL0     C22107  10.519   6.615   8.991  0.1910  0.1951  0.0986
  168MOL0     C22108  10.511   6.740   8.991  1.4356  0.3497 -0.3030
  168MOL0     C22109  10.571   5.920   8.991 -0.6999 -0.7163  0.1269
  168MOL0     C22110  10.559   5.863   9.119 -0.5890  0.5158  0.4975
  168MOL0     H22111  10.380   5.771   9.578 -2.2497  1.3399 -2.9153
  168MOL0     H22112  10.320   5.664   9.777 -0.9649  1.6398  0.0516
  168MOL0     H22113  10.089   5.269   9.760 -1.4486  1.3871  0.3299
  168MOL0     H22114  10.103   5.289   9.935  2.1317 -1.9827  0.8042
  168MOL0     H22115  10.331   5.279   9.931 -0.0675  1.5701 -0.5876
  168MOL0     H22116  10.326   5.217   9.760 -3.5064 -0.9555 -1.9642
  168MOL0     H22117  10.154   5.026   9.858 -1.5354  1.5346 -0.1183
  168MOL0     H22118  10.176   5.090  10.013 -0.5195  2.3208 -1.2254
  168MOL0     H22119  10.415   5.032  10.019 -1.7094 -0.6923  1.7868
  168MOL0     H22120  10.320   4.900   9.986  1.5267  0.8094  2.4826
  168MOL0     H22121  10.484   5.061   9.783 -2.6851  1.0089  2.6596
  168MOL0     H22122  10.370   4.938   9.730  2.2592 -2.4161 -0.0416
  168MOL0     H22123  10.493   4.762   9.841 -2.2428  0.8446  0.3784
  168MOL0     H22124  10.608   4.889   9.911  1.3182 -1.8684  0.1254
  168MOL0     H22125  10.705   4.753   9.732 -2.1225 -1.7528  1.2356
  168MOL0     H22126  10.583   4.814   9.625  0.8966  1.8349 -1.0136
  168MOL0     H22127  10.755   5.019   9.753 -1.2783  0.8042  0.3025
  168MOL0     H22128  10.636   5.036   9.632  2.1055  1.5761 -1.9760
  168MOL0     H22129  10.959   5.122   9.622  0.8345  0.2005  1.6357
  168MOL0     H22130  11.209   4.890   9.411  1.2481  1.1226  0.2190
  168MOL0     H22131  11.219   4.991   9.536 -0.0220 -1.4949 -0.7089
  168MOL0     H22132  11.083   5.118   9.303 -0.6978 -0.7431  0.1637
  168MOL0     H22133  11.225   5.024   9.255  0.1837 -0.5184  1.6592
  168MOL0     H22134  11.254   5.289   9.318  2.0739  0.3037  1.2321
  168MOL0     H22135  11.205   5.237   9.476 -1.3052 -1.7762 -0.8387
  168MOL0     H22136  11.388   5.106   9.513  1.1111  0.6103  1.0317
  168MOL0     H22137  11.418   5.284   9.516 -0.7643  0.1271  1.5648
  168MOL0     H22138  11.680   5.183   9.176 -0.0030  1.3446  1.2332
  168MOL0     H22139  11.889   5.100   9.198 -3.1825  2.3161 -0.7832
  168MOL0     H22140  12.288   5.070   9.482 -0.2742  2.0721 -1.2825
  168MOL0     H22141  12.513   4.978   9.502  0.4234  2.1220 -1.3386
  168MOL0     H22142  12.725   4.737   9.198 -0.2823  0.0902  0.9214
  168MOL0     H22143  12.603   4.609   9.249  1.9031 -2.9266 -0.1801
  168MOL0     H22144  12.746   4.575   9.443  1.1926  1.7590  1.4996
  168MOL0     H22145  12.850   4.703   9.390  0.1804  0.9410 -1.9278
  168MOL0     H22146  12.875   4.566   9.165 -1.2391  0.0714 -0.6657
  168MOL0     H22147  12.791   4.438   9.233  1.2768 -0.9606  0.4826
  168MOL0     H22148  12.949   4.416   9.429 -4.3626  1.3730 -0.7969
  168MOL0     H22149  13.022   4.368   9.264  3.2719  0.9743 -1.0762
  168MOL0     H22150  13.072   4.646   9.366 -4.6190 -1.5259  0.9914
  168MOL0     H22151  13.144   4.557   9.222 -3.3684 -1.2664 -1.2633
  168MOL0     H22152  13.309   4.518   9.382 -0.9251 -0.8032 -1.4240
  168MOL0     H22153  13.208   4.373   9.425  1.6419 -0.1848  0.9461
  168MOL0     H22154  13.157   4.632   9.558 -1.9611  0.1143 -0.0465
  168MOL0     H22155  13.100   4.479   9.609 -0.4382  1.5910 -0.1017
  168MOL0     H22156  13.283   4.541   9.766 -0.5635 -0.6284 -0.8569
  168MOL0     H22157  13.387   4.580   9.630 -1.5677  2.4151 -0.4183
  168MOL0     H22158  12.410   4.719   9.168  1.4710 -1.7296  1.1896
  168MOL0     H22159  12.189   4.809   9.165 -0.2862 -0.6868 -0.1380
  168MOL0     H22160  11.825   5.043   9.626  0.4145 -3.5533 -0.8262
  168MOL0     H22161  11.609   5.127   9.596  1.0612  5.7458  0.6057
  168MOL0     H22162  10.144   5.344   9.560 -1.5484  0.4422  1.4042
  168MOL0     H22163  10.175   5.483   9.330 -1.3096  3.2919 -1.1582
  168MOL0     H22164  10.218   5.844   9.135  0.0022 -3.3187 -1.4570
  168MOL0     H22165  10.237   5.942   8.911 -0.7401 -0.7079  2.3305
  168MOL0     H22166  10.324   6.152   8.812  0.9378  0.7931  0.5511
  168MOL0     H22167  10.455   6.195   8.714  2.1944 -0.0627  1.1427
  168MOL0     H22168  10.438   6.221   9.023  1.2850 -1.0102  1.3974
  168MOL0     H22169  10.592   6.211   8.942  0.6164  4.5368  4.1539
  168MOL0     H22170  10.361   6.409   8.900  0.0153  2.1070 -0.7068
  168MOL0     H22171  10.513   6.407   8.803 -1.3533  0.7962 -0.2038
  168MOL0     H22172  10.477   6.441   9.098 -2.3970  1.6725 -0.0787
  168MOL0     H22173  10.636   6.440   9.024  0.1855 -2.1341 -2.6003
  168MOL0     H22174  10.488   6.844   8.988  0.8008  0.1936 -1.5386
  168MOL0     H22175  10.670   5.940   8.952 -0.0962  0.8381  2.3221
  168MOL0     H22176  10.655   5.850   9.170 -2.0361  0.8371  3.5448
  169MOL0     O22177   0.987   3.183   1.229  0.3747  0.4317  0.8153
  169MOL0     C22178   1.071   3.214   1.312 -1.0345  0.1234 -0.1361
  169MOL0     O22179   1.186   3.138   1.334 -0.0256 -1.1990  0.6108
  169MOL0     C22180   1.204   3.008   1.283  0.7575 -0.3769 -0.7507
  169MOL0     C22181   1.242   2.994   1.151  0.1780 -0.1435  0.0709
  169MOL0     C22182   1.250   2.860   1.093 -1.1789 -0.4093  0.4893
  169MOL0     C22183   1.208   2.746   1.168 -0.4258 -0.5877  0.8948
  169MOL0     O22184   1.206   2.618   1.114 -0.3866  0.5965 -0.0952
  169MOL0     C22185   1.208   2.596   0.970  0.3694 -0.5162 -0.5622
  169MOL0     C22186   1.245   2.455   0.946  0.1627 -0.7629 -0.1957
  169MOL0     C22187   1.191   2.390   0.815  0.0419  0.0797  0.1199
  169MOL0     C22188   1.268   2.256   0.795  0.1175  0.2901 -0.2995
  169MOL0     C22189   1.203   2.164   0.676 -0.0966 -0.2905 -0.4924
  169MOL0     C22190   1.242   2.013   0.716 -0.0894  0.5265  0.1537
  169MOL0     C22191   1.392   1.990   0.731  0.2919  0.8248 -0.4252
  169MOL0     C22192   1.419   1.845   0.785  0.1355 -0.3063  1.3192
  169MOL0     N22193   1.392   1.742   0.675  0.2117 -0.1777 -0.4238
  169MOL0     C22194   1.292   1.657   0.664  0.4356 -0.0124 -0.0140
  169MOL0     C22195   1.275   1.623   0.535 -0.2619 -0.1808 -0.6676
  169MOL0     C22196   1.150   1.552   0.478 -0.7084 -0.7026  0.7642
  169MOL0     C22197   1.149   1.399   0.491 -0.7838 -0.7451  0.0335
  169MOL0     C22198   1.267   1.336   0.410 -0.4546  0.5583  0.5180
  169MOL0     C22199   1.260   1.179   0.431  0.0883 -1.1195 -0.1338
  169MOL0     O22200   1.258   1.156   0.571  0.1383 -0.7817 -0.7048
  169MOL0     C22201   1.284   1.025   0.599  0.1975 -0.1625  0.1381
  169MOL0     C22202   1.215   0.919   0.537 -0.0379  0.5737 -0.3267
  169MOL0     C22203   1.250   0.787   0.575  0.3439  0.5604 -0.0905
  169MOL0     C22204   1.356   0.764   0.672 -0.2566 -0.4607  0.6266
  169MOL0     C22205   1.413   0.632   0.712  0.2131  0.2951  0.2938
  169MOL0     O22206   1.333   0.521   0.686  0.2441 -0.8141 -0.1240
  169MOL0     C22207   1.350   0.397   0.738 -0.6982 -0.4570 -0.2545
  169MOL0     C22208   1.237   0.323   0.780 -0.5012  0.7570  0.7389
  169MOL0     C22209   1.229   0.188   0.818 -0.1920 -0.7055  0.0919
  169MOL0     C22210   1.354   0.120   0.820  0.0502  0.3309 -1.5284
  169MOL0     O22211   1.370  -0.013   0.873  0.2160  0.7216 -0.4976
  169MOL0     C22212   1.269  -0.058   0.960  0.9650 -0.2462  0.7156
  169MOL0     C22213   1.280  -0.203   1.009 -0.6792  0.1266  0.5368
  169MOL0     C22214   1.159  -0.243   1.091 -0.3936 -1.1171 -0.3549
  169MOL0     C22215   1.179  -0.377   1.157 -0.6982  0.1331 -0.2503
  169MOL0     C22216   1.068  -0.430   1.241 -1.1977 -0.2122 -0.2575
  169MOL0     C22217   1.091  -0.580   1.273 -0.4804  0.6350  0.2283
  169MOL0     C22218   1.210  -0.596   1.371  0.5537  0.7075 -0.0976
  169MOL0     C22219   1.245  -0.742   1.382 -0.0792  0.1568  0.5021
  169MOL0    Cl22220   1.284  -0.778   1.549  0.1262  0.3669 -0.1284
  169MOL0     C22221   1.471   0.191   0.796 -0.5971 -0.0396  0.3540
  169MOL0     C22222   1.472   0.327   0.746 -0.8723  0.7702 -0.1687
  169MOL0     O22223   1.517   0.631   0.774  0.4185 -0.2819  0.1070
  169MOL0     C22224   1.428   0.878   0.726  0.0306  0.4134  0.3075
  169MOL0     C22225   1.380   1.004   0.695  0.0724  0.6097 -0.5992
  169MOL0     N22226   1.384   1.688   0.476 -0.0905  1.4215  0.4229
  169MOL0     N22227   1.441   1.760   0.555 -1.3071  0.5395 -0.5532
  169MOL0     C22228   1.190   2.767   1.299 -0.0534 -0.7937 -0.5512
  169MOL0     C22229   1.181   2.895   1.359 -0.0391  0.5914  0.2634
  169MOL0     C22230   1.055   3.341   1.375 -0.4471 -0.2467 -0.7673
  169MOL0     C22231   0.949   3.425   1.342 -0.0262  0.8582  0.5082
  169MOL0     C22232   0.930   3.548   1.410  1.0293  0.5643 -0.3541
  169MOL0     C22233   1.011   3.576   1.518 -0.2179 -0.0755  0.9409
  169MOL0     O22234   0.987   3.698   1.574  0.3410 -0.3379  0.5707
  169MOL0     C22235   1.100   3.786   1.563 -0.0170  0.4597 -0.1243
  169MOL0     C22236   1.141   3.817   1.420 -0.0619  0.2839  0.0357
  169MOL0     C22237   1.022   3.884   1.345 -0.1791 -0.2259  0.0511
  169MOL0     C22238   1.038   3.889   1.190  0.4664  0.4510  0.3419
  169MOL0     C22239   1.169   3.936   1.147 -1.1049  0.4731  0.5778
  169MOL0     C22240   1.271   3.999   1.116  0.6001  0.2442  1.1527
  169MOL0     C22241   1.115   3.486   1.567  0.2229 -0.1094  0.3881
  169MOL0     C22242   1.140   3.376   1.484 -0.1650  0.0793 -0.2059
  169MOL0     H22243   1.260   3.082   1.090 -1.1078 -0.7548 -1.2431
  169MOL0     H22244   1.294   2.864   0.994  0.6064  3.0368  1.2499
  169MOL0     H22245   1.270   2.664   0.910 -2.0207  2.0147 -0.3815
  169MOL0     H22246   1.106   2.611   0.933  0.3708 -1.4581 -0.9743
  169MOL0     H22247   1.204   2.402   1.033 -0.5944  2.7269  1.7900
  169MOL0     H22248   1.354   2.445   0.951  0.4446  1.7441  0.2570
  169MOL0     H22249   1.210   2.460   0.733  3.7311  0.0498  0.7839
  169MOL0     H22250   1.083   2.374   0.823  0.2743 -2.0552 -0.3126
  169MOL0     H22251   1.376   2.273   0.785  0.2760 -0.3519  0.2208
  169MOL0     H22252   1.258   2.210   0.893 -1.0591  2.4570  0.6499
  169MOL0     H22253   1.253   2.188   0.582  0.1032  1.9048  0.1226
  169MOL0     H22254   1.095   2.176   0.663 -0.0094 -1.3758 -2.6486
  169MOL0     H22255   1.190   1.945   0.648  1.1546  0.1516 -0.4601
  169MOL0     H22256   1.196   1.990   0.813 -3.1511  0.8300 -1.1020
  169MOL0     H22257   1.449   2.004   0.638  1.8196 -4.2387 -0.5412
  169MOL0     H22258   1.428   2.064   0.803 -0.8476  1.8980 -0.9202
  169MOL0     H22259   1.341   1.827   0.860 -1.3788  1.7104  0.3140
  169MOL0     H22260   1.511   1.816   0.836 -0.1913 -2.3570  0.8471
  169MOL0     H22261   1.225   1.641   0.748  0.3655  1.6831  0.2939
  169MOL0     H22262   1.132   1.576   0.373  2.1883  0.2382  0.4208
  169MOL0     H22263   1.061   1.572   0.539  0.1244  2.9161  0.9813
  169MOL0     H22264   1.053   1.367   0.450 -0.1561 -0.3797 -1.8382
  169MOL0     H22265   1.166   1.381   0.597  0.7274 -3.1577 -0.5161
  169MOL0     H22266   1.271   1.366   0.304 -1.8912  2.2680  0.8968
  169MOL0     H22267   1.363   1.373   0.447 -0.3174  1.1440 -0.3639
  169MOL0     H22268   1.351   1.139   0.386  2.3040  0.3557  2.6746
  169MOL0     H22269   1.167   1.146   0.384 -1.0186  3.4150 -1.6141
  169MOL0     H22270   1.137   0.932   0.462 -1.2843  1.7728  1.1155
  169MOL0     H22271   1.204   0.700   0.529 -2.3364  1.2606  1.0707
  169MOL0     H22272   1.155   0.394   0.777 -1.8913 -0.8068  0.5676
  169MOL0     H22273   1.138   0.154   0.867 -0.0377 -1.1448  0.0829
  169MOL0     H22274   1.171  -0.059   0.912  0.4591  1.5689  1.6069
  169MOL0     H22275   1.258   0.014   1.041 -1.1031  1.8647 -1.2832
  169MOL0     H22276   1.381  -0.218   1.048 -0.3610  3.1143  1.0997
  169MOL0     H22277   1.279  -0.265   0.919 -0.8535  1.4247 -0.3990
  169MOL0     H22278   1.070  -0.237   1.027 -0.9580  5.7129  0.3657
  169MOL0     H22279   1.137  -0.169   1.169  1.1844  0.3269 -1.2091
  169MOL0     H22280   1.178  -0.448   1.074 -0.9008 -0.1113 -0.0392
  169MOL0     H22281   1.272  -0.382   1.214  1.4426  1.2955 -3.3791
  169MOL0     H22282   0.978  -0.410   1.182 -1.5171 -1.0061 -0.0472
  169MOL0     H22283   1.061  -0.367   1.331 -1.3667 -0.7627  0.1195
  169MOL0     H22284   1.117  -0.627   1.178  0.3848  3.5672 -1.1167
  169MOL0     H22285   1.004  -0.629   1.317  0.7121 -0.8269  1.0446
  169MOL0     H22286   1.300  -0.543   1.338  1.3471 -0.8800 -0.5661
  169MOL0     H22287   1.168  -0.554   1.463  1.5240 -0.1014  0.7394
  169MOL0     H22288   1.329  -0.760   1.314 -0.2294  0.1881  0.3049
  169MOL0     H22289   1.169  -0.814   1.350  0.0955  0.2952 -0.2499
  169MOL0     H22290   1.557   0.129   0.816 -3.0808 -3.7304  0.5529
  169MOL0     H22291   1.563   0.385   0.741 -0.2635 -0.0989  0.4353
  169MOL0     H22292   1.507   0.853   0.795  2.4178  0.4464 -2.2402
  169MOL0     H22293   1.423   1.094   0.738  0.0191  2.7866 -4.5799
  169MOL0     H22294   1.174   2.684   1.367  2.7201 -1.0057 -0.0291
  169MOL0     H22295   1.161   2.902   1.465  1.3358 -0.3529  0.6092
  169MOL0     H22296   0.883   3.388   1.264 -1.7897 -0.0100  2.3104
  169MOL0     H22297   0.855   3.621   1.383 -0.6795 -1.5326 -1.6270
  169MOL0     H22298   1.182   3.749   1.625 -1.4383  1.8655  2.8042
  169MOL0     H22299   1.069   3.883   1.603  1.4164  0.8002  0.2363
  169MOL0     H22300   1.231   3.879   1.412 -0.3506  0.5396 -1.7479
  169MOL0     H22301   1.171   3.724   1.372  1.2649 -0.8524  2.8331
  169MOL0     H22302   1.023   3.988   1.382  1.4448  0.0856 -0.7733
  169MOL0     H22303   0.927   3.839   1.375  0.1010 -2.5443 -2.2570
  169MOL0     H22304   1.002   3.793   1.154  0.7708  0.3515  0.2997
  169MOL0     H22305   0.963   3.963   1.160 -2.0176 -2.1369 -0.3004
  169MOL0     H22306   1.349   4.062   1.077  1.2025 -0.7512  0.7281
  169MOL0     H22307   1.173   3.514   1.654  0.7198  0.6441 -0.1722
  169MOL0     H22308   1.232   3.324   1.508  0.6491  1.1766 -0.8459
  170MOL0     O22309   2.989   0.803  10.218  0.3426 -0.9968 -0.4079
  170MOL0     C22310   3.019   0.682  10.202  0.8064  0.0219 -0.0796
  170MOL0     O22311   3.147   0.635  10.178 -0.2352  0.3180 -0.4117
  170MOL0     C22312   3.246   0.730  10.196  0.4617  0.1759  0.4196
  170MOL0     C22313   3.251   0.829  10.098  0.2852  0.3335  0.5913
  170MOL0     C22314   3.348   0.925  10.103 -0.7486 -0.6844  0.2160
  170MOL0     C22315   3.449   0.922  10.205  0.2149 -1.1904 -0.1110
  170MOL0     O22316   3.534   1.029  10.239  0.0936  0.5057  0.2955
  170MOL0     C22317   3.594   1.111  10.138 -0.3348  0.7354 -0.0732
  170MOL0     C22318   3.715   1.035  10.076 -0.4867  0.0560 -0.3376
  170MOL0     C22319   3.763   1.097   9.950  0.2357  0.0983 -0.5479
  170MOL0     C22320   3.869   1.006   9.876 -0.3405  0.1623 -1.1253
  170MOL0     C22321   3.888   1.045   9.731  0.3037 -0.1433  0.6650
  170MOL0     C22322   3.961   1.176   9.700  0.7922  0.6847  0.2037
  170MOL0     C22323   3.999   1.184   9.546  0.6885 -0.2682  0.0744
  170MOL0     C22324   4.136   1.144   9.515  0.3269 -0.2734 -0.1232
  170MOL0     N22325   4.152   1.102   9.380 -0.8062  0.1480 -0.8659
  170MOL0     C22326   4.158   0.972   9.339  0.5815 -0.0531  0.1259
  170MOL0     C22327   4.227   0.980   9.220 -0.2184  0.2150  0.8657
  170MOL0     C22328   4.278   0.852   9.153  0.8050  0.4380 -0.6175
  170MOL0     C22329   4.430   0.848   9.117 -0.1459  0.0450 -0.5000
  170MOL0     C22330   4.476   0.947   9.005 -0.1742 -0.7296 -0.2380
  170MOL0     C22331   4.374   0.970   8.893 -0.5344  0.0017  1.1509
  170MOL0     O22332   4.322   0.840   8.845  0.1670  0.4728  0.4911
  170MOL0     C22333   4.230   0.836   8.742  0.1682 -0.4095 -0.0545
  170MOL0     C22334   4.181   0.956   8.673  0.2504 -0.0912  0.1994
  170MOL0     C22335   4.094   0.948   8.559  0.1190  0.4622  0.3202
  170MOL0     C22336   4.055   0.825   8.524 -0.8761  0.3523 -1.7435
  170MOL0     C22337   3.970   0.795   8.408 -0.4860  0.0592  0.5064
  170MOL0     O22338   3.955   0.669   8.374  0.1820 -0.7451 -0.6771
  170MOL0     C22339   3.871   0.644   8.270  0.4861 -0.1024  0.1273
  170MOL0     C22340   3.750   0.602   8.299 -0.4445 -0.8584  1.1156
  170MOL0     C22341   3.655   0.577   8.208 -0.0642  0.2156 -0.2910
  170MOL0     C22342   3.686   0.583   8.068 -0.1929  0.8567  0.2324
  170MOL0     O22343   3.589   0.542   7.982 -0.5473  0.6660  0.3249
  170MOL0     C22344   3.567   0.625   7.869 -0.3325  0.3402  0.2457
  170MOL0     C22345   3.415   0.601   7.839 -0.6075 -0.1554 -0.0534
  170MOL0     C22346   3.323   0.720   7.883 -0.4051 -0.7140  0.4970
  170MOL0     C22347   3.241   0.701   8.017 -0.0171 -0.2937  0.6168
  170MOL0     C22348   3.133   0.801   8.033 -0.6246  0.0915  0.6727
  170MOL0     C22349   3.011   0.752   7.955 -0.1418  0.1164  0.1533
  170MOL0     C22350   2.886   0.839   7.988 -0.7554  0.1571 -0.9465
  170MOL0     C22351   2.756   0.763   7.960  0.2982  1.1158 -1.3817
  170MOL0    Cl22352   2.750   0.613   8.065 -0.1068  0.7619 -0.2138
  170MOL0     C22353   3.813   0.622   8.035  0.3545 -0.6829 -0.6102
  170MOL0     C22354   3.909   0.660   8.135  0.1306 -0.1547 -0.0023
  170MOL0     O22355   3.918   0.887   8.344  0.4205  0.2369  0.0299
  170MOL0     C22356   4.095   0.711   8.595 -0.3212  1.1988  0.2842
  170MOL0     C22357   4.186   0.712   8.700  0.6734  0.0695  0.5696
  170MOL0     N22358   4.239   1.113   9.181 -0.1688  0.3863 -0.6435
  170MOL0     N22359   4.196   1.185   9.277  0.9378  0.1775 -0.8028
  170MOL0     C22360   3.438   0.816  10.300 -1.2330 -0.2917 -0.8184
  170MOL0     C22361   3.345   0.717  10.290  0.7166  0.3298  0.2542
  170MOL0     C22362   2.908   0.573  10.198 -0.1374  0.2008 -1.0638
  170MOL0     C22363   2.932   0.437  10.178  0.3972  0.4969 -0.3856
  170MOL0     C22364   2.827   0.341  10.180 -0.5033  0.7400  0.4192
  170MOL0     C22365   2.699   0.383  10.171 -0.4397  0.2210 -0.3188
  170MOL0     O22366   2.616   0.277  10.154 -0.5432 -0.2819  0.0283
  170MOL0     C22367   2.474   0.299  10.176 -0.3578  0.2969  0.1048
  170MOL0     C22368   2.394   0.167  10.191 -0.2242  0.2695  0.8017
  170MOL0     C22369   2.242   0.169  10.210  0.6651  0.4481 -0.0884
  170MOL0     C22370   2.159   0.263  10.107 -1.3690  0.5953 -0.5228
  170MOL0     C22371   2.170   0.403  10.162 -0.1533  0.0921 -1.0163
  170MOL0     C22372   2.184   0.519  10.200  0.2095  0.0459  0.0805
  170MOL0     C22373   2.672   0.518  10.187 -0.0087 -1.3140  0.8191
  170MOL0     C22374   2.779   0.615  10.202 -0.3433  0.4046 -0.5110
  170MOL0     H22375   3.180   0.821  10.015  2.1392  0.5709 -1.1013
  170MOL0     H22376   3.349   1.006  10.030 -0.7589 -2.3292 -1.7051
  170MOL0     H22377   3.640   1.202  10.179 -0.3949  0.3469  0.8971
  170MOL0     H22378   3.524   1.141  10.060 -1.7716  0.1911  0.9673
  170MOL0     H22379   3.684   0.931  10.062 -2.2552  0.7369 -1.9665
  170MOL0     H22380   3.789   1.040  10.157 -1.6054  2.1373  0.6608
  170MOL0     H22381   3.814   1.191   9.974 -1.4686  1.4163 -1.8730
  170MOL0     H22382   3.676   1.119   9.887 -1.7515  1.2740  2.4271
  170MOL0     H22383   3.964   1.014   9.931 -0.2406  2.0549 -1.5056
  170MOL0     H22384   3.844   0.900   9.882  3.2221 -0.7474  0.5431
  170MOL0     H22385   3.797   1.037   9.670  0.7079 -1.4423  0.1867
  170MOL0     H22386   3.945   0.963   9.687  0.0843  0.2457 -0.3666
  170MOL0     H22387   4.054   1.197   9.753  0.9977  2.9400 -0.9141
  170MOL0     H22388   3.888   1.254   9.724 -0.7570 -0.1189 -1.6138
  170MOL0     H22389   3.931   1.114   9.497  1.4105 -2.0657  1.5145
  170MOL0     H22390   3.982   1.290   9.526  1.6679 -0.1988 -0.4171
  170MOL0     H22391   4.152   1.054   9.575  4.1609  0.0059 -0.4875
  170MOL0     H22392   4.204   1.221   9.551 -0.6456  0.5004  0.1089
  170MOL0     H22393   4.115   0.887   9.392 -2.1603  0.8014 -0.5748
  170MOL0     H22394   4.205   0.845   9.072 -1.0051  2.4666  0.7189
  170MOL0     H22395   4.263   0.776   9.230 -0.0906 -0.6175 -1.8059
  170MOL0     H22396   4.461   0.752   9.074 -0.2478  0.0350 -0.5514
  170MOL0     H22397   4.482   0.853   9.213 -1.8755  2.8439  0.3902
  170MOL0     H22398   4.499   1.046   9.046  1.2849 -0.2896 -1.9760
  170MOL0     H22399   4.570   0.906   8.967  0.4862 -1.6850  2.2425
  170MOL0     H22400   4.421   1.026   8.811 -2.6906  1.9703  1.1769
  170MOL0     H22401   4.305   1.039   8.941 -0.2128 -0.6497  2.6056
  170MOL0     H22402   4.217   1.052   8.708  2.4741 -1.7321  2.7285
  170MOL0     H22403   4.056   1.035   8.507 -0.1917 -0.3626 -0.8462
  170MOL0     H22404   3.711   0.597   8.400 -1.3740 -0.6354  0.7793
  170MOL0     H22405   3.557   0.543   8.241  0.8939 -2.6596 -0.1792
  170MOL0     H22406   3.634   0.589   7.790  0.9630 -0.4562  1.6497
  170MOL0     H22407   3.597   0.729   7.886  0.7432 -0.0807  1.0824
  170MOL0     H22408   3.382   0.507   7.883  0.6781 -0.8849 -0.5747
  170MOL0     H22409   3.405   0.590   7.730  0.6267  1.2992 -0.3417
  170MOL0     H22410   3.253   0.743   7.802 -0.9148 -2.8613  0.2852
  170MOL0     H22411   3.388   0.808   7.888  1.1885 -1.8049 -0.0868
  170MOL0     H22412   3.200   0.601   8.032 -2.7159  0.7814  0.9265
  170MOL0     H22413   3.313   0.716   8.098  1.8060  2.0223 -1.2524
  170MOL0     H22414   3.156   0.897   7.986 -0.6528  0.0787  0.6329
  170MOL0     H22415   3.113   0.801   8.140  2.9680 -1.9701  1.4879
  170MOL0     H22416   2.999   0.652   7.997  3.1306  0.2778  1.8322
  170MOL0     H22417   3.021   0.739   7.846 -2.0981 -4.7613  0.2970
  170MOL0     H22418   2.878   0.863   8.095  1.0549 -0.2560 -0.6976
  170MOL0     H22419   2.880   0.930   7.928 -2.6049 -0.1064 -1.2364
  170MOL0     H22420   2.759   0.735   7.854 -1.8883 -1.1922 -0.9531
  170MOL0     H22421   2.660   0.809   7.986  3.1077  5.6712  2.6158
  170MOL0     H22422   3.824   0.618   7.927 -0.7067 -2.6848 -0.7007
  170MOL0     H22423   4.001   0.701   8.095 -0.6341 -0.6960 -2.5285
  170MOL0     H22424   4.060   0.610   8.577  1.1303 -0.1741  4.0550
  170MOL0     H22425   4.200   0.613   8.743 -2.7582 -0.3975  0.9507
  170MOL0     H22426   3.516   0.822  10.375 -0.0041 -0.5019 -2.0381
  170MOL0     H22427   3.336   0.622  10.343 -2.2692 -0.0202 -0.6567
  170MOL0     H22428   3.029   0.389  10.168  0.9214  1.2921  0.6565
  170MOL0     H22429   2.856   0.239  10.158 -0.3236  1.2129 -1.7455
  170MOL0     H22430   2.440   0.353  10.087  2.6362 -0.3215 -1.5614
  170MOL0     H22431   2.454   0.363  10.263 -0.2377 -1.6268  1.6204
  170MOL0     H22432   2.418   0.111  10.100  1.9001  0.0030  1.4616
  170MOL0     H22433   2.439   0.102  10.267  0.3582 -0.9977 -0.5843
  170MOL0     H22434   2.222   0.197  10.314 -0.9585 -1.9605  0.3312
  170MOL0     H22435   2.212   0.065  10.193  1.4715  0.2360 -0.2139
  170MOL0     H22436   2.208   0.260  10.009 -0.5111 -0.0177 -0.0952
  170MOL0     H22437   2.052   0.243  10.116 -1.0120 -0.5379  3.2361
  170MOL0     H22438   2.191   0.620  10.232 -2.9363  0.0933  0.9514
  170MOL0     H22439   2.572   0.560  10.189  0.3726 -0.2978 -0.1455
  170MOL0     H22440   2.751   0.720  10.215 -0.1117  0.2633  1.4356
  171MOL0     O22441   1.058   7.059   5.500  0.6552  0.1283 -0.3632
  171MOL0     C22442   0.988   7.132   5.568 -0.1665 -0.3538 -0.7591
  171MOL0     O22443   0.855   7.163   5.543  0.2459  0.0245  0.0670
  171MOL0     C22444   0.784   7.070   5.477  0.3368  0.3023 -0.4639
  171MOL0     C22445   0.667   7.101   5.402 -1.0768 -0.3368  0.3539
  171MOL0     C22446   0.586   6.999   5.344  0.1565  0.0069 -0.3249
  171MOL0     C22447   0.620   6.871   5.350  0.3934  0.0396  0.5263
  171MOL0     O22448   0.527   6.783   5.292 -0.0938  0.1472  0.7410
  171MOL0     C22449   0.579   6.666   5.222  0.6940 -0.8460 -0.1330
  171MOL0     C22450   0.487   6.593   5.118  0.3390  0.0982 -0.7393
  171MOL0     C22451   0.337   6.589   5.138 -0.1053  0.1096  0.3382
  171MOL0     C22452   0.280   6.451   5.102 -0.5818  0.7686 -0.1916
  171MOL0     C22453   0.134   6.453   5.141  0.9463 -0.3063 -0.3070
  171MOL0     C22454   0.053   6.320   5.109  0.2537  0.3473  0.2771
  171MOL0     C22455   0.075   6.204   5.201 -0.2647 -0.3684  0.5357
  171MOL0     C22456   0.011   6.235   5.333  0.6674  0.0026 -0.1637
  171MOL0     N22457  -0.097   6.140   5.368  0.2815 -0.1964  0.1123
  171MOL0     C22458  -0.087   6.003   5.397 -0.1435  0.5508  1.5298
  171MOL0     C22459  -0.215   5.966   5.404  0.3032  0.3060  0.0225
  171MOL0     C22460  -0.282   5.837   5.440  0.3062 -0.7962 -0.4417
  171MOL0     C22461  -0.235   5.723   5.354 -0.7860  0.0659 -0.8979
  171MOL0     C22462  -0.346   5.617   5.309  0.2429  0.6689 -0.1254
  171MOL0     C22463  -0.412   5.559   5.432 -0.7919  0.4557  0.3949
  171MOL0     O22464  -0.480   5.437   5.395  1.1321 -0.9753  0.5074
  171MOL0     C22465  -0.619   5.451   5.369 -0.1363  0.8727  0.2651
  171MOL0     C22466  -0.682   5.568   5.324 -0.0859 -0.5881  0.6039
  171MOL0     C22467  -0.816   5.584   5.315 -0.1799  1.0751  0.3288
  171MOL0     C22468  -0.899   5.469   5.347  0.4609  0.2760 -0.4578
  171MOL0     C22469  -1.041   5.486   5.357  0.6563  0.2354  0.0351
  171MOL0     O22470  -1.107   5.576   5.277 -0.5768 -0.2617 -0.1494
  171MOL0     C22471  -1.241   5.585   5.288  1.0047  0.0671 -0.1765
  171MOL0     C22472  -1.332   5.503   5.211  0.0711 -0.5014  0.2709
  171MOL0     C22473  -1.473   5.520   5.225  0.5261  0.1683  0.2439
  171MOL0     C22474  -1.528   5.606   5.311 -0.1904 -1.2361 -0.5210
  171MOL0     O22475  -1.657   5.618   5.333 -0.1870  0.0584  0.6512
  171MOL0     C22476  -1.692   5.603   5.466 -0.8060  0.3930 -0.4209
  171MOL0     C22477  -1.844   5.591   5.489 -0.1980  0.1741  0.9988
  171MOL0     C22478  -1.921   5.708   5.431 -0.0108 -0.0293 -0.0563
  171MOL0     C22479  -2.068   5.670   5.389  0.3364 -0.8467  0.2380
  171MOL0     C22480  -2.156   5.793   5.367 -0.1534 -0.1440 -0.1182
  171MOL0     C22481  -2.293   5.743   5.336 -0.4969 -0.2426  0.3241
  171MOL0     C22482  -2.378   5.870   5.327  0.0420  0.5258 -0.0341
  171MOL0     C22483  -2.530   5.845   5.307  1.3797 -0.0780 -0.4618
  171MOL0    Cl22484  -2.576   5.739   5.165  0.0866  0.2875 -0.1185
  171MOL0     C22485  -1.440   5.696   5.379  0.1984  0.3007  1.1783
  171MOL0     C22486  -1.301   5.690   5.362  0.2206  0.3653 -0.8566
  171MOL0     O22487  -1.095   5.400   5.422 -0.8643  0.9254  0.2029
  171MOL0     C22488  -0.839   5.350   5.402 -0.1086 -0.2948 -0.6735
  171MOL0     C22489  -0.695   5.336   5.407 -0.1923  0.3290  0.4199
  171MOL0     N22490  -0.298   6.076   5.372 -0.2425  0.1401  0.1625
  171MOL0     N22491  -0.229   6.179   5.354 -1.0167  0.0411  0.1838
  171MOL0     C22492   0.734   6.829   5.417  0.1777 -0.1563 -0.2097
  171MOL0     C22493   0.810   6.925   5.486 -1.2078  0.5933 -0.4414
  171MOL0     C22494   1.048   7.179   5.695  0.1985 -0.0585  0.4434
  171MOL0     C22495   0.985   7.275   5.784  0.7880  0.2886  1.2663
  171MOL0     C22496   1.056   7.338   5.891 -0.8873 -0.4066  0.3342
  171MOL0     C22497   1.193   7.312   5.909  0.8603  0.2861  1.4754
  171MOL0     O22498   1.283   7.362   5.995 -0.7414  0.8071  0.3779
  171MOL0     C22499   1.232   7.443   6.107  0.1366  0.3823  0.1864
  171MOL0     C22500   1.167   7.357   6.215  0.0731 -0.4721 -0.6792
  171MOL0     C22501   1.270   7.262   6.278 -0.0248 -0.1492  0.0573
  171MOL0     C22502   1.392   7.345   6.335  0.2527  0.3834 -0.5084
  171MOL0     C22503   1.446   7.278   6.458 -0.2094  0.4357  0.8524
  171MOL0     C22504   1.483   7.214   6.556 -0.4591 -0.5093  0.2963
  171MOL0     C22505   1.255   7.220   5.819  0.3603  0.1096 -1.0074
  171MOL0     C22506   1.187   7.153   5.720 -0.1186 -0.0421 -0.1928
  171MOL0     H22507   0.656   7.209   5.394  1.3981 -0.0587 -0.1318
  171MOL0     H22508   0.499   7.019   5.282  0.2376 -1.9120 -1.1118
  171MOL0     H22509   0.583   6.583   5.293 -0.7632 -0.3066  0.6131
  171MOL0     H22510   0.679   6.678   5.179  0.5947  0.5478 -0.0095
  171MOL0     H22511   0.527   6.491   5.117 -0.9302 -0.4150 -0.3856
  171MOL0     H22512   0.514   6.636   5.020  3.5768  1.1302  0.4629
  171MOL0     H22513   0.316   6.666   5.064 -0.1808 -0.8319 -0.6375
  171MOL0     H22514   0.306   6.625   5.237 -0.0888 -2.4879  1.3682
  171MOL0     H22515   0.287   6.452   4.992  1.6492  2.3815 -0.1053
  171MOL0     H22516   0.345   6.367   5.127  2.7973  2.8484 -1.3479
  171MOL0     H22517   0.086   6.544   5.102 -2.2134 -1.7798 -0.1713
  171MOL0     H22518   0.114   6.470   5.247  1.2650  0.4509 -0.3592
  171MOL0     H22519   0.083   6.276   5.013 -1.3817 -3.7159  1.4183
  171MOL0     H22520  -0.056   6.328   5.106  0.1758 -0.1514  1.3489
  171MOL0     H22521   0.018   6.118   5.165 -0.8234 -0.2089  1.0183
  171MOL0     H22522   0.178   6.167   5.206 -0.3013 -0.4912  0.3969
  171MOL0     H22523  -0.020   6.340   5.346 -0.2512 -0.3955  1.0318
  171MOL0     H22524   0.084   6.214   5.412  0.9641  3.3841  0.6331
  171MOL0     H22525   0.002   5.941   5.405  0.3416  1.0061  0.0215
  171MOL0     H22526  -0.389   5.851   5.422  0.4908 -2.1844 -3.0896
  171MOL0     H22527  -0.273   5.825   5.548 -0.8748  2.8482  0.1912
  171MOL0     H22528  -0.168   5.665   5.419 -3.4166 -1.0163  1.0165
  171MOL0     H22529  -0.192   5.759   5.260 -0.3196  1.1780 -0.2742
  171MOL0     H22530  -0.422   5.665   5.247 -1.0360 -2.4088 -1.1446
  171MOL0     H22531  -0.302   5.531   5.258  1.2217  0.4815  0.9792
  171MOL0     H22532  -0.477   5.631   5.483  0.4599  1.9909 -0.1016
  171MOL0     H22533  -0.340   5.522   5.506 -1.4212 -0.8095  0.3952
  171MOL0     H22534  -0.622   5.649   5.285  1.4087 -1.5766  0.7433
  171MOL0     H22535  -0.852   5.680   5.280 -0.6880  0.4165 -1.0302
  171MOL0     H22536  -1.292   5.433   5.139  0.3840  0.1554 -0.2089
  171MOL0     H22537  -1.541   5.458   5.168  0.4994 -1.3199  1.8333
  171MOL0     H22538  -1.644   5.677   5.531  3.8930 -1.6829 -1.1661
  171MOL0     H22539  -1.655   5.512   5.515  1.2574  0.5004 -1.6521
  171MOL0     H22540  -1.878   5.580   5.592 -0.1416  1.3236  1.1556
  171MOL0     H22541  -1.872   5.502   5.432  2.9045 -0.7747  0.7857
  171MOL0     H22542  -1.873   5.746   5.341  0.9638 -1.7029 -0.2771
  171MOL0     H22543  -1.919   5.775   5.518 -2.4870 -1.9758  1.6690
  171MOL0     H22544  -2.070   5.610   5.297 -1.8966 -0.0859 -0.2847
  171MOL0     H22545  -2.110   5.604   5.465 -1.0701  1.2395  1.3859
  171MOL0     H22546  -2.127   5.863   5.287  1.0126  1.0683  1.3054
  171MOL0     H22547  -2.161   5.845   5.463  0.9711 -2.8752  1.5389
  171MOL0     H22548  -2.336   5.670   5.405 -2.4530 -2.6650 -3.1579
  171MOL0     H22549  -2.288   5.690   5.241  3.6067 -0.2138  0.3475
  171MOL0     H22550  -2.357   5.929   5.417  2.4276 -2.6651  1.7012
  171MOL0     H22551  -2.360   5.926   5.235  1.4719  3.0525  1.6750
  171MOL0     H22552  -2.592   5.934   5.325  2.6711  0.7832 -0.0712
  171MOL0     H22553  -2.562   5.791   5.397 -2.4222  2.7277  0.1376
  171MOL0     H22554  -1.470   5.787   5.431 -0.5700  1.6560 -1.4452
  171MOL0     H22555  -1.241   5.762   5.416 -1.3172  1.6119 -0.7309
  171MOL0     H22556  -0.895   5.265   5.441 -0.4981 -0.1492 -0.9030
  171MOL0     H22557  -0.646   5.247   5.445 -3.1634 -0.7768  2.0200
  171MOL0     H22558   0.745   6.721   5.420  1.9300 -0.1076 -2.3792
  171MOL0     H22559   0.889   6.892   5.552 -1.5309  1.0648  0.1894
  171MOL0     H22560   0.880   7.298   5.764  1.7956  2.5382 -2.4034
  171MOL0     H22561   1.011   7.417   5.951 -0.2465 -0.0354  0.3407
  171MOL0     H22562   1.156   7.509   6.065 -0.7339 -0.3629  0.5630
  171MOL0     H22563   1.308   7.512   6.146  2.6657 -1.0472 -1.8430
  171MOL0     H22564   1.110   7.418   6.286  0.5497  0.1326 -0.8169
  171MOL0     H22565   1.084   7.295   6.181  1.9147 -2.9728 -0.9102
  171MOL0     H22566   1.312   7.192   6.205  1.3750  1.1088 -0.3964
  171MOL0     H22567   1.216   7.195   6.346 -0.1832 -0.2591 -0.1718
  171MOL0     H22568   1.468   7.338   6.257  0.8462  1.5074 -0.0398
  171MOL0     H22569   1.364   7.450   6.348  1.7149  0.9622 -1.7861
  171MOL0     H22570   1.509   7.160   6.644  0.2691 -0.1063  0.3383
  171MOL0     H22571   1.361   7.210   5.836  0.3032 -1.3114 -1.4030
  171MOL0     H22572   1.240   7.082   5.657  0.4332 -0.7517  1.0468
  172MOL0     O22573   5.969   3.511   3.686 -0.3340 -0.2558  0.3935
  172MOL0     C22574   6.020   3.401   3.690 -0.5124 -0.0136  1.0336
  172MOL0     O22575   5.964   3.295   3.765  0.2016 -0.1315  0.4909
  172MOL0     C22576   5.846   3.316   3.817 -0.3333  0.1782 -0.3222
  172MOL0     C22577   5.845   3.354   3.951  1.0778  0.2496 -0.6712
  172MOL0     C22578   5.723   3.379   4.018  0.4172 -0.5045 -0.3126
  172MOL0     C22579   5.601   3.357   3.951  0.0941  0.4629  0.0450
  172MOL0     O22580   5.487   3.390   4.003  0.1773 -0.1846  0.6080
  172MOL0     C22581   5.459   3.534   4.032 -0.6084 -0.6560 -0.8698
  172MOL0     C22582   5.340   3.595   3.959  0.1891 -0.4227 -0.7990
  172MOL0     C22583   5.209   3.533   3.997 -0.3670 -0.4427 -0.5227
  172MOL0     C22584   5.202   3.503   4.150  0.3074 -0.9802  0.3480
  172MOL0     C22585   5.053   3.474   4.187 -0.8283  0.9872 -0.0501
  172MOL0     C22586   5.064   3.424   4.328 -0.6915  0.5183  0.0440
  172MOL0     C22587   4.929   3.388   4.395 -0.5262 -0.3407  0.0032
  172MOL0     C22588   4.877   3.262   4.345 -0.3618  0.4417 -0.0027
  172MOL0     N22589   4.732   3.258   4.363 -0.9435 -0.0183 -0.2426
  172MOL0     C22590   4.650   3.292   4.257  0.3370 -1.0918 -0.5612
  172MOL0     C22591   4.525   3.247   4.288 -0.2914 -0.0784 -1.0050
  172MOL0     C22592   4.393   3.269   4.213  0.8867  0.0786 -0.5009
  172MOL0     C22593   4.409   3.349   4.089 -0.0332  0.2689 -0.3375
  172MOL0     C22594   4.296   3.321   3.991  0.2470  0.7122  0.4200
  172MOL0     C22595   4.167   3.362   4.058 -0.5982 -0.2383 -0.0721
  172MOL0     O22596   4.067   3.385   3.959  0.2577  0.4975  0.5269
  172MOL0     C22597   3.941   3.359   4.011 -0.3118 -0.0117  1.1737
  172MOL0     C22598   3.861   3.460   4.054 -0.2185 -0.3433  0.8266
  172MOL0     C22599   3.734   3.426   4.102 -0.2592  0.6687 -0.2973
  172MOL0     C22600   3.679   3.294   4.096  0.7224 -1.2555  0.1494
  172MOL0     C22601   3.535   3.275   4.124  0.2495  0.1774  1.1093
  172MOL0     O22602   3.465   3.389   4.166 -0.7094  0.4492 -0.7063
  172MOL0     C22603   3.327   3.372   4.190  1.2211  0.6601  0.8666
  172MOL0     C22604   3.246   3.385   4.077  0.0958  0.2465 -0.0434
  172MOL0     C22605   3.105   3.359   4.092 -0.8302  0.1359 -0.6176
  172MOL0     C22606   3.048   3.343   4.220  0.1792  0.1945 -0.1464
  172MOL0     O22607   2.910   3.329   4.230 -0.5194  0.4760  0.2585
  172MOL0     C22608   2.846   3.376   4.341  0.3564  0.5390  0.1335
  172MOL0     C22609   2.714   3.424   4.297 -0.0958 -0.1505 -0.0318
  172MOL0     C22610   2.615   3.313   4.262 -0.4069 -0.4987  0.1182
  172MOL0     C22611   2.550   3.245   4.386 -0.0353  0.0531 -0.2907
  172MOL0     C22612   2.395   3.250   4.375  0.1186 -0.1688 -0.5788
  172MOL0     C22613   2.322   3.175   4.472  0.5924  0.5933 -0.0065
  172MOL0     C22614   2.177   3.230   4.445 -0.0411  0.0794 -0.0660
  172MOL0     C22615   2.069   3.158   4.529  0.4500  0.1414 -0.3328
  172MOL0    Cl22616   2.131   3.148   4.706  0.0434  0.8889 -0.3991
  172MOL0     C22617   3.140   3.334   4.330 -0.3107 -0.6836 -0.5793
  172MOL0     C22618   3.278   3.335   4.317  0.1784 -0.2795  1.3289
  172MOL0     O22619   3.484   3.168   4.114 -0.4725 -0.2549  0.6116
  172MOL0     C22620   3.765   3.202   4.047 -0.9736  0.7807 -0.7440
  172MOL0     C22621   3.901   3.225   4.004  0.5086  0.5150 -0.6141
  172MOL0     N22622   4.535   3.182   4.406 -0.4176 -0.0170 -0.4602
  172MOL0     N22623   4.655   3.186   4.452  0.7583  0.1365 -0.2474
  172MOL0     C22624   5.597   3.296   3.822  0.7367  0.5642  0.3524
  172MOL0     C22625   5.720   3.287   3.755  0.8464 -0.6905  0.2225
  172MOL0     C22626   6.161   3.399   3.635  0.2403  0.7863  0.1342
  172MOL0     C22627   6.228   3.285   3.663 -0.1131  0.5900 -0.4897
  172MOL0     C22628   6.364   3.264   3.638 -0.7595  0.2286  1.1682
  172MOL0     C22629   6.431   3.365   3.559  0.8584 -0.8095 -0.2099
  172MOL0     O22630   6.561   3.369   3.525  0.3765 -0.0140  0.0744
  172MOL0     C22631   6.625   3.249   3.500  0.2891  0.3942 -0.0389
  172MOL0     C22632   6.773   3.271   3.541  0.7361  0.7237  0.9058
  172MOL0     C22633   6.869   3.205   3.447 -0.3818 -0.7779 -0.5307
  172MOL0     C22634   7.008   3.216   3.516  0.3289  0.1814  0.6425
  172MOL0     C22635   7.101   3.246   3.405 -0.6416 -0.1736 -1.1950
  172MOL0     C22636   7.181   3.283   3.318 -1.0299 -0.4875 -0.4644
  172MOL0     C22637   6.354   3.477   3.519 -0.8829 -0.6293  0.1128
  172MOL0     C22638   6.232   3.497   3.561 -0.1592 -0.4766 -0.3341
  172MOL0     H22639   5.938   3.371   4.005  2.6004 -1.3684 -2.6132
  172MOL0     H22640   5.734   3.408   4.123  0.0743 -1.3334 -0.0430
  172MOL0     H22641   5.546   3.593   4.003 -0.6590 -0.4002 -0.4963
  172MOL0     H22642   5.446   3.542   4.140 -2.9609 -0.7226 -1.0815
  172MOL0     H22643   5.353   3.585   3.851  0.6376 -2.5616 -0.5871
  172MOL0     H22644   5.345   3.702   3.979  1.1422 -0.5500 -0.2996
  172MOL0     H22645   5.201   3.438   3.943  1.7285  0.9450 -3.4984
  172MOL0     H22646   5.121   3.593   3.974 -0.6446  0.1680  1.8666
  172MOL0     H22647   5.266   3.419   4.177  1.2714 -1.4849 -3.0418
  172MOL0     H22648   5.238   3.598   4.192  2.5537  0.0754 -3.4484
  172MOL0     H22649   5.009   3.400   4.120 -0.4239  1.0991 -0.4486
  172MOL0     H22650   4.992   3.565   4.181 -0.9326  1.3866  4.1091
  172MOL0     H22651   5.121   3.496   4.387 -0.4147  1.3985 -1.2417
  172MOL0     H22652   5.126   3.334   4.323  0.7834  1.3677  1.7024
  172MOL0     H22653   4.943   3.371   4.502  0.6090  1.3072  0.1501
  172MOL0     H22654   4.854   3.466   4.376 -1.0110 -0.7461  0.2139
  172MOL0     H22655   4.915   3.177   4.403 -3.5886 -0.5601  0.9142
  172MOL0     H22656   4.899   3.243   4.240  1.0059 -1.3161  0.5658
  172MOL0     H22657   4.677   3.353   4.171 -2.8424 -0.3772 -1.1929
  172MOL0     H22658   4.331   3.329   4.280  0.7912 -2.0202  1.4160
  172MOL0     H22659   4.350   3.169   4.200  2.2987 -1.2108  3.3337
  172MOL0     H22660   4.502   3.327   4.035 -0.7131  1.3147 -2.0330
  172MOL0     H22661   4.406   3.454   4.120  2.2036  0.0870  0.7229
  172MOL0     H22662   4.302   3.381   3.900  0.2565 -0.3263 -0.2744
  172MOL0     H22663   4.302   3.218   3.955  2.0654  0.6463  0.7963
  172MOL0     H22664   4.192   3.461   4.097  3.6107 -0.4033 -1.8139
  172MOL0     H22665   4.130   3.285   4.127 -1.2132 -0.2933 -0.4579
  172MOL0     H22666   3.898   3.561   4.070 -0.6809  0.4233 -2.3354
  172MOL0     H22667   3.672   3.502   4.148 -0.4825 -0.9361  2.2440
  172MOL0     H22668   3.276   3.412   3.977  2.2503 -1.5898  0.0217
  172MOL0     H22669   3.033   3.381   4.015 -0.8189  0.4242 -0.5503
  172MOL0     H22670   2.890   3.460   4.397  1.8274 -0.1570  0.0783
  172MOL0     H22671   2.833   3.296   4.414  1.5977 -1.1191 -1.3779
  172MOL0     H22672   2.728   3.496   4.216  0.9109  0.6832  0.8433
  172MOL0     H22673   2.677   3.488   4.377  3.0718  0.9089  0.7345
  172MOL0     H22674   2.647   3.243   4.185  2.3692 -0.5995  1.2662
  172MOL0     H22675   2.531   3.365   4.215  0.2142  1.5319  1.1180
  172MOL0     H22676   2.595   3.145   4.388  2.3120  1.0428 -0.2722
  172MOL0     H22677   2.592   3.300   4.470 -3.3329  0.0512  1.5108
  172MOL0     H22678   2.365   3.214   4.276 -1.8859  1.4605 -0.6225
  172MOL0     H22679   2.373   3.357   4.378  0.6718 -0.0717  2.4209
  172MOL0     H22680   2.368   3.200   4.568 -0.0297  2.3511 -0.1173
  172MOL0     H22681   2.324   3.068   4.451 -0.3253  0.3930  0.8694
  172MOL0     H22682   2.177   3.325   4.499  1.8701  0.5668 -0.8180
  172MOL0     H22683   2.143   3.235   4.341  0.1184 -1.4031 -0.2093
  172MOL0     H22684   2.064   3.056   4.489  5.5719 -0.1003 -1.1254
  172MOL0     H22685   1.973   3.210   4.529 -0.1218 -0.6743  2.9065
  172MOL0     H22686   3.113   3.299   4.429 -1.8955  2.6729  0.3397
  172MOL0     H22687   3.356   3.331   4.392  1.9112  1.0232 -0.3145
  172MOL0     H22688   3.722   3.102   4.048 -0.8239  0.7177 -0.3720
  172MOL0     H22689   3.960   3.142   3.965  0.3132 -0.3482  0.8619
  172MOL0     H22690   5.501   3.282   3.773  0.6341 -1.6951  1.0921
  172MOL0     H22691   5.744   3.267   3.651 -1.0239 -1.2327 -0.1457
  172MOL0     H22692   6.180   3.203   3.715 -2.5149  1.5343 -1.1211
  172MOL0     H22693   6.418   3.177   3.673  1.7020  0.4622 -1.6090
  172MOL0     H22694   6.617   3.214   3.397 -3.8229 -0.1142  0.2652
  172MOL0     H22695   6.587   3.166   3.560 -2.0236  1.6377  0.3146
  172MOL0     H22696   6.783   3.380   3.538  1.3688  0.6538 -1.5820
  172MOL0     H22697   6.793   3.246   3.646 -1.0020  2.2675  1.6719
  172MOL0     H22698   6.861   3.250   3.348 -0.4342  0.0413 -0.1637
  172MOL0     H22699   6.850   3.098   3.433 -1.7266 -0.6067 -0.2220
  172MOL0     H22700   7.016   3.294   3.592 -1.7029  1.1933 -0.1015
  172MOL0     H22701   7.024   3.115   3.555  0.3667  1.1941  3.5292
  172MOL0     H22702   7.252   3.309   3.242  0.4695  0.2229  1.1042
  172MOL0     H22703   6.420   3.546   3.468 -0.0491  0.2083  2.2626
  172MOL0     H22704   6.184   3.594   3.565  0.3489 -0.2503  0.9283
  173MOL0     O22705   5.141   2.950  10.600  0.1633  0.5057  1.0933
  173MOL0     C22706   5.163   2.944  10.713 -0.1649  1.2157 -0.4927
  173MOL0     O22707   5.290   2.951  10.769  0.0776  0.3446 -0.1483
  173MOL0     C22708   5.394   2.971  10.689 -1.1135  0.8936  0.1035
  173MOL0     C22709   5.480   3.086  10.697 -0.1117  0.2394 -0.4424
  173MOL0     C22710   5.583   3.104  10.602  0.4773  0.6325  0.9953
  173MOL0     C22711   5.600   3.007  10.494  0.3946 -1.0364 -0.1730
  173MOL0     O22712   5.698   3.007  10.398  1.0504  0.2984 -0.4919
  173MOL0     C22713   5.769   3.129  10.380  0.4057 -0.0763 -0.4854
  173MOL0     C22714   5.822   3.124  10.239 -1.0090  0.0216  1.1039
  173MOL0     C22715   5.946   3.039  10.222  0.5518 -0.9142  0.0074
  173MOL0     C22716   6.011   3.085  10.090  0.3088 -0.2045 -0.5323
  173MOL0     C22717   6.138   3.006  10.086  0.9053  0.2814 -0.5249
  173MOL0     C22718   6.232   3.031   9.971 -0.4436 -0.2247 -0.2453
  173MOL0     C22719   6.350   2.934   9.985 -0.4160 -0.3875 -0.7086
  173MOL0     C22720   6.433   2.956  10.112  0.2423 -0.1593  0.0935
  173MOL0     N22721   6.471   3.102  10.130 -0.2118  0.4338 -0.6715
  173MOL0     C22722   6.556   3.175  10.052  0.7215 -0.7609  0.1386
  173MOL0     C22723   6.575   3.285  10.127  0.1238  0.3263 -0.1516
  173MOL0     C22724   6.650   3.407  10.084 -0.1860  0.0775 -0.2999
  173MOL0     C22725   6.796   3.391  10.053 -0.0245 -0.0603  0.0951
  173MOL0     C22726   6.862   3.530  10.045 -0.4638 -0.3980 -0.6256
  173MOL0     C22727   7.007   3.520   9.992 -0.3467  0.1586  0.6024
  173MOL0     O22728   7.069   3.643  10.035 -0.1989  0.2375 -0.1863
  173MOL0     C22729   7.206   3.648  10.017  0.3543 -1.6478 -0.3633
  173MOL0     C22730   7.281   3.556   9.950 -0.6570 -0.3492 -0.3823
  173MOL0     C22731   7.417   3.581   9.937  0.2660 -0.3223 -0.3180
  173MOL0     C22732   7.474   3.708   9.977 -0.5324  0.1557 -0.4618
  173MOL0     C22733   7.619   3.741   9.961 -0.1391  0.4795  0.0570
  173MOL0     O22734   7.704   3.634   9.934 -0.4871 -0.0735 -0.0778
  173MOL0     C22735   7.823   3.659   9.875 -0.1346  0.1425 -0.6820
  173MOL0     C22736   7.865   3.589   9.765  0.2296 -0.0310  0.2941
  173MOL0     C22737   7.985   3.614   9.699 -0.0979  0.5394 -0.7201
  173MOL0     C22738   8.074   3.709   9.752  0.5970  0.4598  0.5901
  173MOL0     O22739   8.183   3.724   9.672 -0.8417 -0.1966  0.5160
  173MOL0     C22740   8.259   3.848   9.671 -0.1145 -0.5456  0.8156
  173MOL0     C22741   8.398   3.824   9.602  0.0214 -0.6417  0.2511
  173MOL0     C22742   8.374   3.770   9.453 -0.5537 -0.4150  0.1171
  173MOL0     C22743   8.509   3.734   9.403 -0.0137  0.1860 -1.0248
  173MOL0     C22744   8.568   3.603   9.463  0.1731 -0.4088  0.3926
  173MOL0     C22745   8.680   3.544   9.377  0.9384  0.0027  0.2589
  173MOL0     C22746   8.800   3.636   9.379 -0.2727 -0.3585 -0.3196
  173MOL0     C22747   8.915   3.562   9.315  0.5405 -0.1105  0.3449
  173MOL0    Cl22748   8.891   3.528   9.135  0.0078  0.3315 -0.2528
  173MOL0     C22749   8.039   3.779   9.871 -0.6459  0.9978  0.0710
  173MOL0     C22750   7.913   3.754   9.931  0.0344 -0.2852 -0.5976
  173MOL0     O22751   7.651   3.860   9.967 -0.1932 -0.1335 -0.5808
  173MOL0     C22752   7.401   3.798  10.042  0.9082  0.6211  0.0359
  173MOL0     C22753   7.266   3.775  10.054  0.5050 -0.0572 -0.5588
  173MOL0     N22754   6.509   3.274  10.247 -0.0985  0.4438 -0.3110
  173MOL0     N22755   6.443   3.162  10.245  0.2671  0.2062 -0.6150
  173MOL0     C22756   5.528   2.887  10.502 -0.0158 -0.2124 -1.5862
  173MOL0     C22757   5.421   2.873  10.592  0.2975  0.5481  0.6312
  173MOL0     C22758   5.044   2.947  10.800  0.4696  0.7018  0.4718
  173MOL0     C22759   4.908   2.924  10.763  0.7292  0.4828  1.2683
  173MOL0     C22760   4.813   2.900  10.856  0.1286 -0.1037 -0.5300
  173MOL0     C22761   4.843   2.910  10.997  0.0567  0.3618  1.0324
  173MOL0     O22762   4.746   2.897  11.094 -0.3691  0.1621 -0.0289
  173MOL0     C22763   4.613   2.932  11.052  1.0159  0.9169 -0.3262
  173MOL0     C22764   4.516   2.906  11.170 -0.1547  1.0751 -0.6443
  173MOL0     C22765   4.540   3.003  11.299 -0.3418  0.0521  0.4462
  173MOL0     C22766   4.488   3.141  11.293  0.3283 -1.2481  0.3498
  173MOL0     C22767   4.463   3.185  11.431 -0.4819  0.0847  0.3781
  173MOL0     C22768   4.454   3.209  11.549 -0.6891 -0.2799  1.0460
  173MOL0     C22769   4.976   2.924  11.032  0.0389 -0.3901 -0.6050
  173MOL0     C22770   5.073   2.959  10.940 -0.0628  0.4123 -0.2669
  173MOL0     H22771   5.476   3.145  10.788 -3.1590 -0.1766 -0.2259
  173MOL0     H22772   5.624   3.203  10.620 -1.1819  1.7596 -0.9380
  173MOL0     H22773   5.850   3.137  10.453 -0.2807  1.5210  0.1552
  173MOL0     H22774   5.692   3.203  10.406 -0.2419 -1.5924  2.3189
  173MOL0     H22775   5.837   3.229  10.214 -3.4178 -0.2888 -2.4565
  173MOL0     H22776   5.740   3.087  10.177  1.2003 -1.6725 -0.9627
  173MOL0     H22777   5.917   2.933  10.221 -1.5285 -0.3834 -1.1538
  173MOL0     H22778   6.015   3.058  10.305 -0.3874 -1.0900  0.8517
  173MOL0     H22779   5.944   3.076  10.005  0.3539  3.3275 -1.0873
  173MOL0     H22780   6.047   3.188  10.086 -2.9339  1.0203 -0.9134
  173MOL0     H22781   6.103   2.903  10.073  0.0825  0.4394  0.3344
  173MOL0     H22782   6.185   3.023  10.183 -1.7654  1.7264  0.6334
  173MOL0     H22783   6.265   3.135   9.965 -1.6135  0.2889  1.7105
  173MOL0     H22784   6.181   3.008   9.877  0.5894  0.4311 -1.0013
  173MOL0     H22785   6.314   2.831   9.980  1.2542 -1.1278  1.2155
  173MOL0     H22786   6.412   2.946   9.896 -0.5250  0.5388 -0.6691
  173MOL0     H22787   6.524   2.896  10.105 -0.7282 -1.4787 -3.2425
  173MOL0     H22788   6.373   2.924  10.198 -0.6605 -0.9634 -0.8124
  173MOL0     H22789   6.596   3.147   9.955 -1.4555  0.4366 -1.1893
  173MOL0     H22790   6.637   3.481  10.163 -3.7133 -0.6991 -0.0147
  173MOL0     H22791   6.602   3.436   9.990  2.5339 -1.1215 -2.2231
  173MOL0     H22792   6.802   3.346   9.954 -1.8079  2.3896 -1.2512
  173MOL0     H22793   6.837   3.319  10.124  1.2378  1.7428  1.2850
  173MOL0     H22794   6.803   3.591   9.977 -1.8866 -2.5055 -1.3674
  173MOL0     H22795   6.862   3.569  10.147  0.0638 -0.6839 -0.5108
  173MOL0     H22796   7.027   3.511   9.885  2.4563 -1.1980  1.1345
  173MOL0     H22797   7.058   3.433  10.036  4.7976  1.7597 -1.3924
  173MOL0     H22798   7.241   3.467   9.903 -3.1698  0.6810 -0.3130
  173MOL0     H22799   7.480   3.497   9.910  3.2274  1.5288  0.2906
  173MOL0     H22800   7.787   3.532   9.715 -0.2162 -1.6096  2.6081
  173MOL0     H22801   7.994   3.563   9.604 -4.2481 -2.1386  0.0424
  173MOL0     H22802   8.280   3.888   9.771  0.5614 -0.1596  0.5206
  173MOL0     H22803   8.204   3.918   9.607 -1.9601 -2.1697  0.5378
  173MOL0     H22804   8.442   3.740   9.656 -0.1781 -1.2961 -0.5781
  173MOL0     H22805   8.459   3.914   9.593  1.1594 -1.5392 -1.5039
  173MOL0     H22806   8.327   3.838   9.381  0.2030  0.0758  0.0786
  173MOL0     H22807   8.307   3.684   9.448 -0.6511 -0.3177 -0.3378
  173MOL0     H22808   8.491   3.700   9.300 -1.9517 -2.3296  0.0417
  173MOL0     H22809   8.569   3.824   9.388  0.3141  0.0758 -0.4203
  173MOL0     H22810   8.496   3.520   9.459 -1.8523  1.2891 -0.3313
  173MOL0     H22811   8.596   3.613   9.568 -4.3183  1.0003  1.6762
  173MOL0     H22812   8.648   3.529   9.273  1.3343 -1.1110  0.2775
  173MOL0     H22813   8.717   3.446   9.407  3.5291 -0.2439 -3.0918
  173MOL0     H22814   8.772   3.728   9.328 -1.6383 -1.8367 -2.3812
  173MOL0     H22815   8.826   3.667   9.481  1.7288 -1.5681 -0.3987
  173MOL0     H22816   8.926   3.466   9.366 -2.3837  0.2436  1.8667
  173MOL0     H22817   9.010   3.609   9.341  0.5745 -1.0144  1.9730
  173MOL0     H22818   8.120   3.848   9.894  1.6543 -1.0984 -1.3326
  173MOL0     H22819   7.897   3.806  10.025 -3.1994 -1.4376 -0.3924
  173MOL0     H22820   7.435   3.901  10.049 -0.8751  1.3555 -1.3177
  173MOL0     H22821   7.199   3.846  10.101  0.1023 -1.8470  1.7453
  173MOL0     H22822   5.557   2.810  10.431 -1.2607 -4.8216  2.3974
  173MOL0     H22823   5.360   2.783  10.588  1.4437 -0.2432  0.2863
  173MOL0     H22824   4.891   2.917  10.656  0.1488  1.8350  1.2488
  173MOL0     H22825   4.715   2.881  10.813  0.8958 -1.4653 -1.7438
  173MOL0     H22826   4.575   2.863  10.976  2.4452 -0.4962  0.1814
  173MOL0     H22827   4.610   3.036  11.019  0.2236  0.4708 -1.7118
  173MOL0     H22828   4.412   2.898  11.137  0.2013 -0.3615 -1.5158
  173MOL0     H22829   4.550   2.809  11.206  0.5103  2.2914  2.3078
  173MOL0     H22830   4.644   3.003  11.336 -0.3557  1.1512  0.5217
  173MOL0     H22831   4.482   2.949  11.375  0.8324 -2.4772 -0.3181
  173MOL0     H22832   4.552   3.217  11.250 -0.8913 -0.5162 -0.2358
  173MOL0     H22833   4.393   3.144  11.238  0.0677 -1.4363  0.7780
  173MOL0     H22834   4.446   3.225  11.655 -0.0191  0.0262  1.0551
  173MOL0     H22835   4.988   2.925  11.140  1.9807 -1.0880 -0.7860
  173MOL0     H22836   5.175   2.975  10.974 -0.1030  2.1548 -0.8948
  174MOL0     O22837   4.136   1.232   2.762  0.5303  0.1851  0.2734
  174MOL0     C22838   4.084   1.141   2.819 -0.3621  0.1303 -0.1595
  174MOL0     O22839   4.145   1.016   2.856 -0.1780  0.2459  0.0222
  174MOL0     C22840   4.277   0.994   2.829 -0.0028  0.4530  0.6159
  174MOL0     C22841   4.373   1.090   2.849  0.8859 -0.6271  0.1222
  174MOL0     C22842   4.497   1.049   2.842 -0.4245 -0.5357  0.3786
  174MOL0     C22843   4.542   0.917   2.826 -0.2846 -0.5743 -0.9298
  174MOL0     O22844   4.680   0.893   2.835 -0.0048  0.1427  0.4198
  174MOL0     C22845   4.714   0.750   2.827  0.1421 -0.3687  0.0194
  174MOL0     C22846   4.861   0.720   2.850  0.5335  0.0580  0.3204
  174MOL0     C22847   4.954   0.807   2.758  0.3421  0.0209  0.5902
  174MOL0     C22848   5.105   0.775   2.762 -0.3745 -0.7130  0.2417
  174MOL0     C22849   5.185   0.826   2.643  0.1328 -0.4320  0.3067
  174MOL0     C22850   5.321   0.757   2.651  1.0947  0.5190 -0.8688
  174MOL0     C22851   5.408   0.813   2.546 -0.1187 -0.0806  0.7608
  174MOL0     C22852   5.528   0.722   2.533 -0.7137 -0.2278  0.3019
  174MOL0     N22853   5.631   0.802   2.459 -0.1535 -0.2850  0.5366
  174MOL0     C22854   5.706   0.744   2.354 -0.3685 -0.5235  0.6660
  174MOL0     C22855   5.812   0.827   2.335 -0.1881  0.2626 -0.6602
  174MOL0     C22856   5.914   0.819   2.227 -0.1157 -0.2204 -0.6438
  174MOL0     C22857   6.021   0.714   2.260  0.8072 -0.3764 -0.3024
  174MOL0     C22858   6.090   0.717   2.392 -0.2039 -0.6143  0.3666
  174MOL0     C22859   6.174   0.849   2.432 -0.4746 -0.3797 -0.2086
  174MOL0     O22860   6.299   0.853   2.359 -0.1178  0.1000  0.1211
  174MOL0     C22861   6.421   0.898   2.411 -0.0907  0.0425  0.2896
  174MOL0     C22862   6.444   0.956   2.535  0.1059 -0.6318  0.1156
  174MOL0     C22863   6.571   0.979   2.578 -0.5908 -0.0500 -0.0408
  174MOL0     C22864   6.686   0.971   2.496  0.6411 -0.6254 -0.0736
  174MOL0     C22865   6.824   1.000   2.549 -1.2248  0.7310  0.6068
  174MOL0     O22866   6.919   1.015   2.446  1.5071  0.2121 -0.1895
  174MOL0     C22867   7.053   1.024   2.464 -0.2680 -0.9081  0.6795
  174MOL0     C22868   7.115   0.977   2.575  0.6680  0.6079 -0.3647
  174MOL0     C22869   7.257   0.970   2.583  0.3335  0.3698 -0.5071
  174MOL0     C22870   7.330   1.003   2.477  0.1910 -0.3417  1.1971
  174MOL0     O22871   7.466   1.012   2.491 -0.4928 -0.0963  0.5658
  174MOL0     C22872   7.538   0.922   2.400 -0.6424 -0.2814 -0.3647
  174MOL0     C22873   7.691   0.937   2.434  0.6944 -0.1879  0.9636
  174MOL0     C22874   7.737   1.076   2.392  0.1568 -0.4839  0.3019
  174MOL0     C22875   7.883   1.085   2.412  0.0751 -0.5819  0.1608
  174MOL0     C22876   7.915   1.200   2.507  0.1168  0.8662  0.6304
  174MOL0     C22877   7.897   1.155   2.653 -0.1186 -0.3722  0.3681
  174MOL0     C22878   7.957   1.024   2.695  0.2550 -0.1896  0.2836
  174MOL0     C22879   7.965   1.000   2.839 -0.3784  0.3080 -0.3100
  174MOL0    Cl22880   8.063   0.856   2.875 -0.1574  0.4951  0.2371
  174MOL0     C22881   7.269   1.050   2.360 -0.3633  0.6177 -0.3048
  174MOL0     C22882   7.128   1.066   2.351 -0.6370 -1.3775  0.3919
  174MOL0     O22883   6.842   1.026   2.666 -0.0585 -0.3154  0.0227
  174MOL0     C22884   6.668   0.890   2.379 -0.3404  0.7241 -0.2923
  174MOL0     C22885   6.540   0.863   2.334  0.7159  0.1531 -1.3940
  174MOL0     N22886   5.808   0.927   2.439  1.2613  0.0163  0.2300
  174MOL0     N22887   5.691   0.913   2.508 -0.3134  0.1714 -0.2731
  174MOL0     C22888   4.448   0.827   2.794  0.3467 -0.4976 -0.1297
  174MOL0     C22889   4.314   0.857   2.800  0.0809 -0.6037  0.6249
  174MOL0     C22890   3.940   1.159   2.858 -0.0246  0.3689 -0.1248
  174MOL0     C22891   3.865   1.042   2.872  1.5258  0.1055  0.5910
  174MOL0     C22892   3.726   1.052   2.909 -0.7331  0.4539 -0.3047
  174MOL0     C22893   3.678   1.171   2.961  0.3322  0.4228 -0.8544
  174MOL0     O22894   3.555   1.191   3.024  0.9913 -0.1465 -0.0752
  174MOL0     C22895   3.458   1.086   3.034 -0.6326 -0.9357  0.6063
  174MOL0     C22896   3.485   1.006   3.162  1.4832 -0.9593 -0.6788
  174MOL0     C22897   3.436   1.061   3.304 -0.5828  0.4872  0.5901
  174MOL0     C22898   3.398   0.944   3.395 -1.0598  0.3047  0.4898
  174MOL0     C22899   3.268   0.903   3.353  0.1625  0.4545 -0.0872
  174MOL0     C22900   3.156   0.892   3.321  0.5656  1.1398 -0.1071
  174MOL0     C22901   3.758   1.283   2.954  0.0211 -0.7972 -0.0610
  174MOL0     C22902   3.886   1.278   2.889  0.1955 -0.0250  0.5086
  174MOL0     H22903   4.345   1.195   2.861  0.2448 -0.1499 -3.9558
  174MOL0     H22904   4.575   1.123   2.854  1.3620 -2.0596 -1.1009
  174MOL0     H22905   4.687   0.721   2.726 -0.8594 -2.3360  0.8074
  174MOL0     H22906   4.658   0.675   2.883 -0.4448 -2.3910 -3.0446
  174MOL0     H22907   4.873   0.612   2.839  0.2593 -0.0540  1.0748
  174MOL0     H22908   4.884   0.746   2.953 -1.2063 -3.2348  1.6895
  174MOL0     H22909   4.950   0.911   2.793  0.4922  0.5824 -0.9761
  174MOL0     H22910   4.921   0.804   2.654 -0.1505  1.6238  0.6697
  174MOL0     H22911   5.148   0.811   2.856 -3.0124  3.1440  0.1674
  174MOL0     H22912   5.110   0.666   2.766  2.0790 -0.6615  0.4156
  174MOL0     H22913   5.199   0.933   2.627 -1.3439 -0.2803 -0.1460
  174MOL0     H22914   5.123   0.793   2.559  0.1705 -0.1046  0.1489
  174MOL0     H22915   5.298   0.654   2.621  1.2535 -0.5482  2.3216
  174MOL0     H22916   5.357   0.747   2.753 -0.7570 -4.4395 -0.4474
  174MOL0     H22917   5.362   0.830   2.448  3.3444 -0.0374 -0.9940
  174MOL0     H22918   5.439   0.913   2.577  1.6372 -0.2890 -0.2075
  174MOL0     H22919   5.502   0.627   2.487  0.9544 -0.9734  0.8268
  174MOL0     H22920   5.586   0.715   2.626  2.2787 -0.6455 -1.4526
  174MOL0     H22921   5.680   0.661   2.290 -2.7502  0.5618  0.1168
  174MOL0     H22922   5.957   0.919   2.212 -0.8186 -0.1809 -2.6972
  174MOL0     H22923   5.867   0.797   2.131 -2.1139  0.7597  0.0585
  174MOL0     H22924   6.088   0.702   2.175  1.4634 -1.2831  0.3218
  174MOL0     H22925   5.975   0.615   2.262  1.7739 -0.8310 -0.0420
  174MOL0     H22926   6.024   0.690   2.476  1.0748 -0.9508  1.2977
  174MOL0     H22927   6.156   0.630   2.396 -1.9601 -1.9744  2.5934
  174MOL0     H22928   6.191   0.842   2.540  1.4152  2.0884 -0.2675
  174MOL0     H22929   6.122   0.943   2.411  1.6224  1.3050  1.6485
  174MOL0     H22930   6.359   0.971   2.600  1.9587 -3.4731  3.5343
  174MOL0     H22931   6.598   1.019   2.675  0.2916 -1.0753  0.1462
  174MOL0     H22932   7.055   0.943   2.659 -0.5889 -1.8994 -2.1182
  174MOL0     H22933   7.315   0.933   2.668 -2.4984  0.1712  1.4655
  174MOL0     H22934   7.525   0.960   2.298 -0.6778 -0.3104 -0.3704
  174MOL0     H22935   7.484   0.827   2.408 -4.5805  1.5628 -2.0797
  174MOL0     H22936   7.745   0.872   2.365  0.9392  1.9807 -1.0306
  174MOL0     H22937   7.700   0.894   2.534 -0.8487 -2.3069  0.2556
  174MOL0     H22938   7.685   1.150   2.453 -1.5064  1.2878 -2.9943
  174MOL0     H22939   7.701   1.090   2.290  0.8512 -0.1699  0.0952
  174MOL0     H22940   7.926   0.990   2.447  3.1803  0.7793  0.4369
  174MOL0     H22941   7.919   1.106   2.311 -0.4677 -2.9415 -0.5978
  174MOL0     H22942   7.858   1.292   2.491 -0.7161 -0.2165 -3.9316
  174MOL0     H22943   8.020   1.229   2.500  0.7079 -0.2636  3.4363
  174MOL0     H22944   7.789   1.150   2.672 -0.2025 -1.6524 -0.3501
  174MOL0     H22945   7.935   1.227   2.726 -0.1786 -0.2342  0.2634
  174MOL0     H22946   7.897   0.941   2.657  0.7208  0.0879 -1.1005
  174MOL0     H22947   8.055   1.007   2.649  0.4307  0.1663  0.5257
  174MOL0     H22948   7.859   1.001   2.867 -0.7289 -2.7743 -1.2110
  174MOL0     H22949   8.010   1.087   2.889 -3.2542  1.7623 -0.0594
  174MOL0     H22950   7.337   1.093   2.287 -0.1060  3.7772  1.6037
  174MOL0     H22951   7.084   1.108   2.261 -0.3973 -0.4348  0.7101
  174MOL0     H22952   6.753   0.844   2.331 -1.6603  0.8423 -2.9445
  174MOL0     H22953   6.532   0.789   2.255  0.7260  0.1433 -1.3857
  174MOL0     H22954   4.478   0.724   2.777  2.2361  0.2911 -1.9227
  174MOL0     H22955   4.248   0.771   2.810 -2.1627  1.1073  1.2236
  174MOL0     H22956   3.897   0.943   2.841  1.5336  0.9999 -2.5407
  174MOL0     H22957   3.665   0.965   2.887 -1.3221  1.7265 -4.5358
  174MOL0     H22958   3.472   1.017   2.950  1.1822 -1.4140  1.2622
  174MOL0     H22959   3.360   1.134   3.039 -0.1976  0.4946 -2.2724
  174MOL0     H22960   3.418   0.919   3.156  1.1407 -0.7177 -0.4304
  174MOL0     H22961   3.588   0.970   3.168  2.0931  0.7198 -0.7340
  174MOL0     H22962   3.349   1.122   3.276  0.1432  0.6090 -1.6176
  174MOL0     H22963   3.510   1.125   3.354  0.3045 -0.4898  0.5566
  174MOL0     H22964   3.482   0.873   3.399 -0.2881  0.9678 -2.1037
  174MOL0     H22965   3.389   0.981   3.498 -0.7078  1.0681  0.2598
  174MOL0     H22966   3.052   0.881   3.295 -0.3634  2.6150  2.5849
  174MOL0     H22967   3.712   1.370   2.999 -3.2441 -1.6511 -1.4046
  174MOL0     H22968   3.943   1.371   2.886  0.7705 -0.2756  2.4797
  175MOL0     O22969   5.951   7.009   7.016 -0.3672 -0.0167  0.1978
  175MOL0     C22970   5.898   6.915   7.076  0.6297  0.3452  0.2212
  175MOL0     O22971   5.909   6.884   7.209  0.5810 -0.1051  0.4056
  175MOL0     C22972   6.008   6.947   7.278  0.7938  0.1522 -0.1530
  175MOL0     C22973   5.970   7.034   7.376  0.1949 -0.2535  0.4851
  175MOL0     C22974   6.064   7.101   7.456  0.3905 -0.3307  0.8243
  175MOL0     C22975   6.196   7.070   7.436  0.5754 -0.2171 -0.0071
  175MOL0     O22976   6.286   7.129   7.523 -0.6408  0.0008  0.5939
  175MOL0     C22977   6.265   7.113   7.659 -0.1679  0.7682 -0.0151
  175MOL0     C22978   6.394   7.093   7.718 -0.8858  0.9908 -0.1519
  175MOL0     C22979   6.379   7.070   7.869 -0.4228 -0.5217  0.4902
  175MOL0     C22980   6.506   7.062   7.940 -0.6742 -0.6563 -0.2516
  175MOL0     C22981   6.493   7.070   8.093 -0.4800 -0.4695  0.8179
  175MOL0     C22982   6.452   6.944   8.163  0.8841  0.2655 -0.8271
  175MOL0     C22983   6.424   6.974   8.304  0.8505  0.5309  0.1361
  175MOL0     C22984   6.370   6.850   8.374 -0.0256  0.0303  0.3445
  175MOL0     N22985   6.337   6.868   8.514 -0.1820  0.7852 -0.0570
  175MOL0     C22986   6.215   6.911   8.553 -0.0833  0.3116  0.3957
  175MOL0     C22987   6.216   6.901   8.686  0.0277 -0.0682 -0.2103
  175MOL0     C22988   6.095   6.923   8.781 -0.0857  1.5049 -0.0423
  175MOL0     C22989   6.008   6.804   8.775  0.6638 -0.5080  0.1296
  175MOL0     C22990   5.890   6.803   8.871  0.8392 -0.6778  0.1249
  175MOL0     C22991   5.788   6.892   8.809 -1.5396 -0.4099  0.4677
  175MOL0     O22992   5.685   6.908   8.902  0.1307  0.4849 -0.6022
  175MOL0     C22993   5.564   6.883   8.854 -0.2355  0.0571  0.2681
  175MOL0     C22994   5.476   6.822   8.946 -0.3406  0.1121  1.1988
  175MOL0     C22995   5.346   6.780   8.904  0.2412 -0.3556 -0.3155
  175MOL0     C22996   5.310   6.795   8.777 -0.4870 -0.6632  0.7964
  175MOL0     C22997   5.190   6.732   8.728  0.3279 -0.4921  0.1406
  175MOL0     O22998   5.176   6.712   8.595  0.5980  0.8350 -0.5613
  175MOL0     C22999   5.077   6.632   8.530 -0.4998  0.0503 -0.1102
  175MOL0     C23000   4.974   6.565   8.597 -0.4250 -0.1774  0.5284
  175MOL0     C23001   4.881   6.486   8.532 -0.4060  0.1244 -0.0795
  175MOL0     C23002   4.872   6.487   8.396 -0.1138  0.9080 -0.0929
  175MOL0     O23003   4.785   6.401   8.331  0.8750 -0.2088 -0.0014
  175MOL0     C23004   4.687   6.329   8.401  0.1082  0.0536 -0.5041
  175MOL0     C23005   4.583   6.265   8.310  0.2477  0.6682  0.0800
  175MOL0     C23006   4.490   6.169   8.380 -0.0554  0.1957  0.2921
  175MOL0     C23007   4.396   6.093   8.281 -0.3029  0.4049  0.0716
  175MOL0     C23008   4.284   5.998   8.330 -0.0597 -0.5148  0.5976
  175MOL0     C23009   4.201   5.922   8.227  0.2889  0.3560  0.1600
  175MOL0     C23010   4.116   6.018   8.133  0.4842 -0.1343 -0.3524
  175MOL0     C23011   4.056   5.949   8.010 -0.4910  0.2967 -0.6680
  175MOL0    Cl23012   4.185   5.884   7.906 -0.1321 -0.1301  0.1527
  175MOL0     C23013   4.974   6.551   8.318 -0.0005  0.7051 -0.4965
  175MOL0     C23014   5.077   6.618   8.388 -1.7002  0.6779  0.0885
  175MOL0     O23015   5.105   6.706   8.815  0.3491  0.0689 -0.2409
  175MOL0     C23016   5.388   6.871   8.686  0.4501 -1.0196  1.0002
  175MOL0     C23017   5.514   6.918   8.728 -1.0198 -0.2713 -0.8480
  175MOL0     N23018   6.339   6.857   8.735 -0.5139 -0.2924 -0.3549
  175MOL0     N23019   6.416   6.840   8.623 -0.1656 -1.0252 -0.1834
  175MOL0     C23020   6.242   6.987   7.333  0.0395  0.1057 -0.3347
  175MOL0     C23021   6.151   6.926   7.247 -0.1839 -0.7262 -0.0124
  175MOL0     C23022   5.805   6.823   6.998 -0.0797 -0.1701 -0.3017
  175MOL0     C23023   5.831   6.788   6.859 -0.5490 -0.1043 -0.1899
  175MOL0     C23024   5.768   6.680   6.789 -0.3908 -0.3342  0.1094
  175MOL0     C23025   5.676   6.604   6.861 -1.2956 -0.3182 -0.1831
  175MOL0     O23026   5.605   6.498   6.809  0.3235  0.0075 -0.3698
  175MOL0     C23027   5.607   6.475   6.668 -0.0666 -0.0640 -0.1186
  175MOL0     C23028   5.514   6.362   6.636  1.2902  0.1381  0.1234
  175MOL0     C23029   5.368   6.418   6.619  0.5425  0.2620 -0.4824
  175MOL0     C23030   5.296   6.392   6.493 -0.4972 -0.3446  0.1271
  175MOL0     C23031   5.170   6.459   6.499 -0.5453  0.2183  0.6946
  175MOL0     C23032   5.059   6.493   6.512  0.0890  0.6741 -0.6793
  175MOL0     C23033   5.660   6.625   6.998  0.5396 -0.3510  0.1009
  175MOL0     C23034   5.711   6.746   7.061 -0.1790 -0.3327  0.3020
  175MOL0     H23035   5.865   7.025   7.402 -0.1177  1.9603  0.2536
  175MOL0     H23036   6.030   7.169   7.534  0.7674  0.1796  0.5515
  175MOL0     H23037   6.213   7.018   7.674  0.2978  0.3079 -1.1379
  175MOL0     H23038   6.214   7.199   7.702  0.0334  0.4158  0.9500
  175MOL0     H23039   6.462   7.179   7.708  0.1251 -0.0055 -2.8047
  175MOL0     H23040   6.445   7.007   7.675 -2.4330 -1.9518  3.4114
  175MOL0     H23041   6.323   6.978   7.891  0.3129 -0.2691  4.1051
  175MOL0     H23042   6.315   7.148   7.910 -2.1551 -1.0508 -1.0403
  175MOL0     H23043   6.577   6.991   7.898 -1.1098 -1.3302  0.1353
  175MOL0     H23044   6.547   7.163   7.929 -1.9305 -0.3094 -2.2711
  175MOL0     H23045   6.426   7.153   8.116  0.2410  1.2391 -2.6062
  175MOL0     H23046   6.588   7.096   8.141 -1.9381  2.2448  2.4675
  175MOL0     H23047   6.537   6.875   8.155  0.0482 -0.6605 -1.9681
  175MOL0     H23048   6.366   6.885   8.130  0.4753 -0.6091  1.5307
  175MOL0     H23049   6.510   7.019   8.355  1.7601  0.7805 -1.5368
  175MOL0     H23050   6.341   7.045   8.313  0.2345 -0.2504  0.7753
  175MOL0     H23051   6.442   6.769   8.361  0.0442  0.0324  0.6957
  175MOL0     H23052   6.281   6.812   8.323 -0.7131  0.6544  1.0563
  175MOL0     H23053   6.131   6.937   8.490 -0.2299 -1.3170 -0.1052
  175MOL0     H23054   6.039   7.016   8.763  0.0429  1.7052  0.5914
  175MOL0     H23055   6.137   6.930   8.882 -1.4495  4.3127  0.4391
  175MOL0     H23056   6.077   6.721   8.792 -0.8520 -2.0943 -1.0673
  175MOL0     H23057   5.972   6.808   8.672  2.1655 -1.6112 -0.4801
  175MOL0     H23058   5.849   6.704   8.891  2.1052 -0.6462  3.4208
  175MOL0     H23059   5.913   6.851   8.966  0.1127  3.4337 -1.5505
  175MOL0     H23060   5.754   6.857   8.711 -1.3420 -0.7648  0.5270
  175MOL0     H23061   5.825   6.994   8.798  0.0561 -1.0231 -0.0255
  175MOL0     H23062   5.516   6.803   9.045 -0.8086  0.4608  1.4578
  175MOL0     H23063   5.278   6.758   8.986  1.4879  1.2981  1.2684
  175MOL0     H23064   4.963   6.562   8.705  2.1110  2.3857  0.9932
  175MOL0     H23065   4.813   6.417   8.580  0.3123 -1.8014 -1.7098
  175MOL0     H23066   4.643   6.401   8.471  0.2643  0.2295 -0.5864
  175MOL0     H23067   4.731   6.246   8.457 -1.1502 -0.3509 -0.0729
  175MOL0     H23068   4.636   6.201   8.240  0.9171  1.2810  0.0151
  175MOL0     H23069   4.534   6.348   8.258 -0.4611 -0.0086 -0.3405
  175MOL0     H23070   4.437   6.235   8.450  1.2965  3.7158 -1.7291
  175MOL0     H23071   4.552   6.105   8.443  2.2315  0.9605 -1.0931
  175MOL0     H23072   4.351   6.171   8.219 -0.0578 -1.3016 -2.4078
  175MOL0     H23073   4.470   6.050   8.212 -1.4534 -0.8955 -0.3822
  175MOL0     H23074   4.218   6.062   8.388  2.7170 -0.2047  3.6923
  175MOL0     H23075   4.327   5.916   8.388  0.2184 -0.6146  0.2528
  175MOL0     H23076   4.119   5.864   8.271 -0.7485  1.0474 -0.8045
  175MOL0     H23077   4.270   5.858   8.172 -1.5037 -0.7292 -0.9375
  175MOL0     H23078   4.033   6.052   8.196 -0.3672 -1.7133 -0.5930
  175MOL0     H23079   4.171   6.108   8.102 -0.5003 -0.3186 -2.8301
  175MOL0     H23080   3.980   6.012   7.962  0.1836  0.8179 -1.0615
  175MOL0     H23081   4.010   5.858   8.050  1.1353  0.0634  0.7946
  175MOL0     H23082   4.980   6.537   8.211 -1.5620  1.6829 -0.7503
  175MOL0     H23083   5.163   6.663   8.340  2.3188 -3.0008  3.1091
  175MOL0     H23084   5.362   6.892   8.582  0.2102  0.1440  1.2831
  175MOL0     H23085   5.578   6.982   8.668 -2.8789  0.4162 -2.2052
  175MOL0     H23086   6.347   6.966   7.313  0.0198 -0.8642  0.4771
  175MOL0     H23087   6.190   6.858   7.172  1.6520 -1.1216  1.2373
  175MOL0     H23088   5.904   6.853   6.813 -1.2294  0.2736 -0.7526
  175MOL0     H23089   5.793   6.668   6.684  1.6471  3.5977 -0.0194
  175MOL0     H23090   5.704   6.434   6.637 -0.1891 -0.6835  0.3150
  175MOL0     H23091   5.578   6.568   6.619  2.8140  2.4821  2.5500
  175MOL0     H23092   5.551   6.300   6.553  1.0979 -0.5744  0.5592
  175MOL0     H23093   5.504   6.288   6.717 -3.5270  0.5538  0.1744
  175MOL0     H23094   5.378   6.525   6.634  3.4259 -0.1499  1.2202
  175MOL0     H23095   5.304   6.381   6.700  2.4417  2.2152  2.0488
  175MOL0     H23096   5.359   6.424   6.410  2.0540 -2.6364  1.0504
  175MOL0     H23097   5.285   6.283   6.488 -1.8748 -0.2497  0.4687
  175MOL0     H23098   4.956   6.522   6.521 -0.0020  0.5947 -1.4098
  175MOL0     H23099   5.585   6.559   7.041 -0.0646 -2.0463 -3.2466
  175MOL0     H23100   5.672   6.768   7.159 -1.4490  1.0470 -0.4626
  176MOL0     O23101   6.132   2.023   2.490 -1.2469  0.4466  0.8055
  176MOL0     C23102   6.185   1.935   2.548  0.1354  0.1450  1.1083
  176MOL0     O23103   6.116   1.828   2.611  0.2983  0.1166 -0.6052
  176MOL0     C23104   5.980   1.814   2.589 -0.0686  0.0353 -0.2575
  176MOL0     C23105   5.932   1.693   2.538 -0.6647 -0.0202  0.3983
  176MOL0     C23106   5.792   1.680   2.534 -0.3168  0.2743 -0.2309
  176MOL0     C23107   5.702   1.776   2.579  0.8253  0.0070  0.5789
  176MOL0     O23108   5.569   1.737   2.565  0.0925  0.0110  0.0186
  176MOL0     C23109   5.466   1.831   2.549 -0.4685 -0.1856  0.2699
  176MOL0     C23110   5.367   1.756   2.464  0.0080 -0.4509  0.3100
  176MOL0     C23111   5.422   1.691   2.341 -0.4134 -0.6102 -0.3949
  176MOL0     C23112   5.312   1.599   2.281 -0.4476 -0.2707  0.1584
  176MOL0     C23113   5.361   1.494   2.180 -0.6451  0.6774  0.1858
  176MOL0     C23114   5.437   1.382   2.255 -0.1582 -0.2562  0.1297
  176MOL0     C23115   5.504   1.280   2.168 -0.8333  0.7972 -0.1559
  176MOL0     C23116   5.411   1.201   2.077  0.8684 -0.9978 -0.1353
  176MOL0     N23117   5.324   1.115   2.166 -0.5253 -0.8311 -0.5201
  176MOL0     C23118   5.196   1.136   2.194  0.9562 -0.2818 -0.4861
  176MOL0     C23119   5.136   1.018   2.226  0.6471 -0.9913 -0.1645
  176MOL0     C23120   4.989   0.998   2.277 -0.1365  0.4780  0.5009
  176MOL0     C23121   4.959   0.845   2.255  0.9530 -0.1352 -0.0452
  176MOL0     C23122   4.803   0.812   2.286 -0.7048  0.7317 -0.6160
  176MOL0     C23123   4.705   0.913   2.244 -0.7307  0.0909 -0.2374
  176MOL0     O23124   4.709   0.947   2.103  0.2971  0.2885 -0.1641
  176MOL0     C23125   4.627   1.049   2.052 -0.9797  0.4631  0.4321
  176MOL0     C23126   4.697   1.134   1.965  0.5464 -0.2797 -0.4182
  176MOL0     C23127   4.631   1.245   1.918 -0.0192 -0.3044 -0.6297
  176MOL0     C23128   4.502   1.272   1.955  0.2930 -0.4433 -0.2087
  176MOL0     C23129   4.434   1.399   1.910  0.5743  0.4264  0.3259
  176MOL0     O23130   4.306   1.408   1.964  0.2125 -0.4656  0.6899
  176MOL0     C23131   4.224   1.516   1.957 -0.2298  0.0272  0.9448
  176MOL0     C23132   4.178   1.581   1.840  0.3337 -0.1673 -0.2352
  176MOL0     C23133   4.074   1.678   1.840 -0.2077 -0.9115 -0.9179
  176MOL0     C23134   4.020   1.717   1.964  0.1277 -0.1537  0.8406
  176MOL0     O23135   3.936   1.826   1.968 -0.4108  0.5080  0.2218
  176MOL0     C23136   3.960   1.926   2.069  1.0125 -1.0365 -0.2067
  176MOL0     C23137   3.848   1.931   2.182 -0.3415 -0.3863 -1.1555
  176MOL0     C23138   3.724   2.005   2.153 -0.3152 -0.2286  0.7294
  176MOL0     C23139   3.747   2.153   2.196  0.4854 -0.1210 -0.3427
  176MOL0     C23140   3.624   2.244   2.147  0.3996  0.1058 -0.8800
  176MOL0     C23141   3.624   2.274   1.995 -0.5855 -0.0929 -0.9516
  176MOL0     C23142   3.734   2.357   1.948 -0.5304  0.1080 -0.6275
  176MOL0     C23143   3.702   2.457   1.840  0.2151  0.8010  0.5069
  176MOL0    Cl23144   3.621   2.390   1.690  0.3873 -0.3967  0.2835
  176MOL0     C23145   4.062   1.646   2.084 -0.2271  0.1319  0.7514
  176MOL0     C23146   4.164   1.557   2.078 -0.1407 -0.2856  0.4012
  176MOL0     O23147   4.496   1.487   1.848  0.2964 -0.0011  0.4611
  176MOL0     C23148   4.423   1.180   2.034  0.4260  0.6068 -0.7955
  176MOL0     C23149   4.492   1.063   2.084  0.2781  0.6408  0.2565
  176MOL0     N23150   5.235   0.921   2.221 -0.5260 -0.0314 -0.2332
  176MOL0     N23151   5.344   0.987   2.187  0.3507 -0.5980 -0.3048
  176MOL0     C23152   5.752   1.897   2.638  0.4365 -1.3602 -0.9094
  176MOL0     C23153   5.894   1.914   2.640  0.1799  0.7770 -0.1890
  176MOL0     C23154   6.333   1.949   2.563  0.0726 -0.9929 -0.4626
  176MOL0     C23155   6.395   1.831   2.613  0.3968 -0.0783 -0.3332
  176MOL0     C23156   6.529   1.836   2.647 -1.2250  0.4351 -0.0115
  176MOL0     C23157   6.610   1.947   2.616 -0.2182  0.3984  0.3489
  176MOL0     O23158   6.735   1.941   2.671  0.3537  0.5501 -0.2317
  176MOL0     C23159   6.843   1.948   2.583  0.7175  0.0479  0.6475
  176MOL0     C23160   6.896   1.813   2.565 -0.0441  0.5073 -0.1108
  176MOL0     C23161   6.944   1.732   2.680  1.3309  0.0673 -0.1738
  176MOL0     C23162   6.904   1.581   2.686  0.0549  0.1001 -0.3585
  176MOL0     C23163   6.965   1.496   2.578 -0.5245  0.1891 -0.3402
  176MOL0     C23164   7.016   1.425   2.487 -0.4396 -0.8095  0.1303
  176MOL0     C23165   6.552   2.053   2.543  0.2583  0.1063  0.3251
  176MOL0     C23166   6.410   2.064   2.528 -1.4185 -0.4801 -1.2265
  176MOL0     H23167   6.000   1.616   2.503  2.2368  1.4245  2.4464
  176MOL0     H23168   5.740   1.589   2.506 -3.8986  1.0220  3.0273
  176MOL0     H23169   5.500   1.924   2.502  3.0238  1.8350  5.6799
  176MOL0     H23170   5.407   1.854   2.639  0.7375 -1.9625  1.6003
  176MOL0     H23171   5.278   1.816   2.446 -1.1481 -1.9217  0.8380
  176MOL0     H23172   5.331   1.674   2.528  0.1521 -0.3180  0.5647
  176MOL0     H23173   5.516   1.636   2.349  0.5357  0.3552 -3.3280
  176MOL0     H23174   5.444   1.769   2.267 -2.1231  0.1380 -0.1740
  176MOL0     H23175   5.246   1.545   2.350 -1.1096  0.7761  0.3758
  176MOL0     H23176   5.246   1.677   2.242  0.4851  1.8573  2.5113
  176MOL0     H23177   5.434   1.533   2.108  1.3013 -0.3265  1.5351
  176MOL0     H23178   5.278   1.448   2.126 -2.4274 -0.7688  3.8185
  176MOL0     H23179   5.367   1.348   2.332  0.3716 -0.3467  0.5781
  176MOL0     H23180   5.523   1.420   2.311 -0.9418 -2.6715  3.3178
  176MOL0     H23181   5.573   1.331   2.101 -1.0654 -0.7588 -1.6465
  176MOL0     H23182   5.572   1.213   2.222  1.0622  1.6338 -1.3777
  176MOL0     H23183   5.469   1.138   2.010 -0.5405  1.6216 -4.1819
  176MOL0     H23184   5.340   1.251   2.011 -0.7645 -2.0538  0.7809
  176MOL0     H23185   5.130   1.221   2.184 -0.3484 -0.9108  1.9259
  176MOL0     H23186   4.916   1.051   2.215 -0.9854  2.4025  3.0104
  176MOL0     H23187   4.969   1.035   2.378 -1.6780 -0.2431  0.4816
  176MOL0     H23188   5.023   0.790   2.324 -0.0073  1.5726  2.3236
  176MOL0     H23189   4.987   0.828   2.150  0.3908 -0.2885 -0.1735
  176MOL0     H23190   4.770   0.719   2.239 -4.7756  1.0924  1.1537
  176MOL0     H23191   4.800   0.788   2.393  0.6233  0.3444 -0.6447
  176MOL0     H23192   4.722   0.996   2.314  4.3850  0.3623 -1.4058
  176MOL0     H23193   4.603   0.876   2.261 -0.8952  0.7849  0.3311
  176MOL0     H23194   4.799   1.123   1.928  0.4285 -0.9632 -0.5520
  176MOL0     H23195   4.687   1.318   1.861  0.1705 -0.4191 -0.5908
  176MOL0     H23196   4.223   1.539   1.750 -1.7734 -3.0825 -0.0693
  176MOL0     H23197   4.036   1.728   1.752 -3.3315 -2.7778 -0.7901
  176MOL0     H23198   3.968   2.028   2.031  0.8082 -1.7056 -2.1886
  176MOL0     H23199   4.057   1.903   2.114 -0.4708 -0.4104  3.6842
  176MOL0     H23200   3.878   1.984   2.272 -3.4871  0.2059 -0.3246
  176MOL0     H23201   3.820   1.832   2.219  0.5055  0.4633  2.0292
  176MOL0     H23202   3.650   1.959   2.219 -0.0863 -1.1160  0.3713
  176MOL0     H23203   3.687   2.000   2.050 -2.5653 -2.3900  1.5207
  176MOL0     H23204   3.739   2.152   2.305 -1.9932 -0.6033 -0.4795
  176MOL0     H23205   3.850   2.185   2.179  0.7898 -0.4267  0.8170
  176MOL0     H23206   3.623   2.343   2.194 -1.4715  0.0433 -0.7291
  176MOL0     H23207   3.529   2.194   2.164  0.0244  1.2231  0.5617
  176MOL0     H23208   3.527   2.325   1.987 -1.8820 -2.3476 -0.5463
  176MOL0     H23209   3.614   2.187   1.929  0.8512  1.3238 -3.1729
  176MOL0     H23210   3.778   2.403   2.036 -0.6027  0.5687 -0.8295
  176MOL0     H23211   3.811   2.285   1.917 -0.7686 -2.1462  3.3342
  176MOL0     H23212   3.788   2.516   1.807  0.9555 -0.7781 -0.5211
  176MOL0     H23213   3.630   2.526   1.885 -0.4140  0.2424  0.3774
  176MOL0     H23214   4.042   1.674   2.187  1.9170  0.0136  1.2602
  176MOL0     H23215   4.200   1.515   2.172  1.8913  2.2819  0.8777
  176MOL0     H23216   4.321   1.191   2.068  0.0006  2.2745 -2.4670
  176MOL0     H23217   4.441   0.988   2.143  2.0610 -1.6283 -0.9724
  176MOL0     H23218   5.687   1.982   2.657  0.4161 -1.4661 -0.4956
  176MOL0     H23219   5.938   2.004   2.681  1.0270 -0.2824  1.3660
  176MOL0     H23220   6.338   1.740   2.628 -2.3103  1.2566 -1.8170
  176MOL0     H23221   6.571   1.750   2.698 -1.8865 -1.4858 -2.4950
  176MOL0     H23222   6.923   2.011   2.621  0.5125  1.4188 -1.0501
  176MOL0     H23223   6.815   1.999   2.490 -1.4214  0.1081  1.2669
  176MOL0     H23224   6.820   1.762   2.504 -0.5744  1.2707 -0.0970
  176MOL0     H23225   6.982   1.828   2.499  1.4820 -3.3179  0.7380
  176MOL0     H23226   6.883   1.776   2.758 -2.1045 -0.3925 -2.4043
  176MOL0     H23227   7.050   1.749   2.701  1.1153  1.1019  0.1217
  176MOL0     H23228   6.930   1.535   2.782 -0.2612  0.1319 -0.2544
  176MOL0     H23229   6.795   1.576   2.690  0.1003 -0.3504  0.9525
  176MOL0     H23230   7.068   1.372   2.409  0.1078 -0.7199  0.4295
  176MOL0     H23231   6.620   2.136   2.531  0.0933  0.1268 -0.5192
  176MOL0     H23232   6.366   2.153   2.483  0.5496  3.3814  3.5999
  177MOL0     O23233   7.513   4.626  11.158 -0.0118 -0.7609 -0.2209
  177MOL0     C23234   7.417   4.617  11.081  0.6383  0.0240 -0.5340
  177MOL0     O23235   7.368   4.711  11.001  0.1675 -0.0497  0.3586
  177MOL0     C23236   7.420   4.837  11.000  0.6670  0.7753 -0.9437
  177MOL0     C23237   7.323   4.941  11.007 -0.1948 -0.2776  0.0544
  177MOL0     C23238   7.359   5.073  11.012 -0.6020  0.2489  0.8346
  177MOL0     C23239   7.492   5.109  10.980  0.5954 -0.2790 -0.8715
  177MOL0     O23240   7.525   5.239  10.972 -0.6498  1.3752  0.4355
  177MOL0     C23241   7.436   5.346  11.011  0.4246 -0.8103 -0.3134
  177MOL0     C23242   7.509   5.473  10.975 -0.3316 -0.7320  0.1849
  177MOL0     C23243   7.469   5.603  11.050 -0.0415 -0.1289  0.0216
  177MOL0     C23244   7.561   5.721  11.021 -0.8473 -0.4155  0.0815
  177MOL0     C23245   7.503   5.795  10.905  0.3705 -0.2630 -0.2403
  177MOL0     C23246   7.599   5.917  10.860  0.5366  0.1529  0.9323
  177MOL0     C23247   7.556   6.011  10.751  0.6444 -0.1659  0.0732
  177MOL0     C23248   7.558   5.951  10.617  0.2617  0.4288  0.4212
  177MOL0     N23249   7.688   5.940  10.545 -0.2858  0.8930 -0.4003
  177MOL0     C23250   7.720   6.015  10.437  0.0915 -0.1175  0.8109
  177MOL0     C23251   7.841   5.972  10.411 -0.9829  0.0124 -0.7160
  177MOL0     C23252   7.918   6.022  10.293 -1.0191  0.3178 -0.0500
  177MOL0     C23253   8.045   5.933  10.256 -1.2921 -0.0072 -0.0922
  177MOL0     C23254   8.110   5.981  10.132  0.2475 -0.6874 -0.2909
  177MOL0     C23255   8.180   5.862  10.065 -0.3484 -1.1285 -0.2072
  177MOL0     O23256   8.229   5.919   9.943 -0.3328  0.5140  0.4337
  177MOL0     C23257   8.353   5.971   9.924 -0.9510  0.1485 -0.9017
  177MOL0     C23258   8.396   6.024   9.804  0.0006  0.5808  0.0172
  177MOL0     C23259   8.530   6.081   9.792  0.0990 -0.8052 -0.0312
  177MOL0     C23260   8.624   6.078   9.901  0.8612  0.2173 -0.3808
  177MOL0     C23261   8.753   6.140   9.882 -0.2910  0.1923 -0.5000
  177MOL0     O23262   8.843   6.112   9.981 -0.2551  0.4137 -0.1374
  177MOL0     C23263   8.976   6.108   9.955  0.2009 -0.8435 -0.2877
  177MOL0     C23264   9.059   6.175  10.049 -0.1595  0.7012 -0.4516
  177MOL0     C23265   9.192   6.199  10.013 -0.7563 -0.3633  0.1770
  177MOL0     C23266   9.246   6.149   9.893 -0.9258 -0.0337  0.9717
  177MOL0     O23267   9.383   6.183   9.864 -0.6303  0.3630  0.2840
  177MOL0     C23268   9.467   6.068   9.834 -1.0666 -0.9220  0.1152
  177MOL0     C23269   9.621   6.098   9.805 -0.5713  0.6791  0.0840
  177MOL0     C23270   9.709   6.162   9.920  0.6292  0.4477 -0.1086
  177MOL0     C23271   9.840   6.196   9.859 -0.2109  0.5153 -0.0711
  177MOL0     C23272   9.937   6.237   9.970 -0.7083  0.7421 -0.5815
  177MOL0     C23273  10.052   6.318   9.907 -0.3087  0.1962 -0.2135
  177MOL0     C23274  10.159   6.377  10.018 -0.2938  0.1715  0.2608
  177MOL0     C23275  10.288   6.439   9.956  0.2846 -0.5122  0.5271
  177MOL0    Cl23276  10.387   6.497  10.092 -0.0374  0.0449 -0.2652
  177MOL0     C23277   9.160   6.071   9.808 -0.0230 -0.4518  0.1600
  177MOL0     C23278   9.026   6.053   9.840 -0.5246  0.6977 -0.7694
  177MOL0     O23279   8.781   6.206   9.783  0.1409  0.3891 -0.2636
  177MOL0     C23280   8.576   6.015  10.016  0.1829  0.3728 -1.1881
  177MOL0     C23281   8.453   5.964  10.032 -0.1894 -1.0363  0.2622
  177MOL0     N23282   7.876   5.874  10.501 -0.0625 -0.4626 -0.9860
  177MOL0     N23283   7.780   5.850  10.585  0.3186 -0.6203  0.1560
  177MOL0     C23284   7.591   5.012  10.967 -0.1640 -0.1751  0.3940
  177MOL0     C23285   7.554   4.881  10.986  0.1485  0.0386 -0.7112
  177MOL0     C23286   7.334   4.496  11.082 -0.0518 -0.5287 -0.7612
  177MOL0     C23287   7.248   4.468  10.977  0.3867 -0.8626  0.6758
  177MOL0     C23288   7.183   4.352  10.971  1.0422 -0.1479 -0.1616
  177MOL0     C23289   7.165   4.269  11.075 -0.5045 -1.3820 -1.4835
  177MOL0     O23290   7.094   4.156  11.057  0.2278  0.0460  0.0211
  177MOL0     C23291   7.127   4.046  11.150 -0.2142  0.5182  1.0221
  177MOL0     C23292   7.017   4.008  11.251  0.5266  0.2622 -0.3176
  177MOL0     C23293   7.062   3.980  11.398 -1.2077  0.8750 -0.3198
  177MOL0     C23294   7.163   3.860  11.395  0.2221 -0.0815  0.3842
  177MOL0     C23295   7.091   3.737  11.400 -0.4419 -0.2516 -0.0484
  177MOL0     C23296   7.033   3.632  11.382  0.1453 -0.2398  0.3198
  177MOL0     C23297   7.255   4.295  11.190  0.1977 -0.0829  0.3983
  177MOL0     C23298   7.330   4.413  11.198 -0.1557 -0.9440  0.2016
  177MOL0     H23299   7.220   4.911  11.023  0.2737 -0.8793  2.4006
  177MOL0     H23300   7.285   5.144  11.046 -2.7504 -1.0773 -0.8436
  177MOL0     H23301   7.409   5.342  11.117 -0.1876  0.2396 -0.4133
  177MOL0     H23302   7.342   5.348  10.955 -0.0255 -1.1807  0.4293
  177MOL0     H23303   7.513   5.477  10.866 -0.1242 -0.3866  0.2006
  177MOL0     H23304   7.613   5.463  11.008 -0.6215 -3.4637  0.4356
  177MOL0     H23305   7.471   5.571  11.155  1.4567 -2.0743 -0.5363
  177MOL0     H23306   7.366   5.628  11.026 -0.8632 -1.7261  1.6201
  177MOL0     H23307   7.580   5.780  11.111  1.4284  0.6776 -1.0367
  177MOL0     H23308   7.661   5.690  10.990  0.2242  0.6089  2.3258
  177MOL0     H23309   7.401   5.829  10.926  1.0103  0.6508  1.6270
  177MOL0     H23310   7.480   5.732  10.819 -0.9573 -0.6677  0.3864
  177MOL0     H23311   7.707   5.907  10.848  0.7757  2.8421  0.1035
  177MOL0     H23312   7.594   5.973  10.954 -0.9110  0.6495  0.5881
  177MOL0     H23313   7.454   6.049  10.759  1.5917  3.4693 -2.3757
  177MOL0     H23314   7.618   6.101  10.754  1.0445 -0.4296 -0.1935
  177MOL0     H23315   7.489   6.014  10.559 -2.6500 -0.0760  3.0299
  177MOL0     H23316   7.512   5.851  10.617 -0.7429  0.8446  2.5135
  177MOL0     H23317   7.666   6.097  10.393  0.1031  0.4863  1.8773
  177MOL0     H23318   7.944   6.126  10.315 -2.3165  0.1720  2.6197
  177MOL0     H23319   7.856   6.016  10.204 -3.1581 -0.1141  1.3980
  177MOL0     H23320   8.013   5.828  10.245 -1.5820  0.1563 -0.8692
  177MOL0     H23321   8.118   5.949  10.336 -1.8810  1.5600  0.1657
  177MOL0     H23322   8.036   6.031  10.069  1.9603  1.1254 -0.9634
  177MOL0     H23323   8.187   6.058  10.149  0.2815 -0.6861 -0.4562
  177MOL0     H23324   8.114   5.785  10.023 -0.0354 -0.3133 -2.2702
  177MOL0     H23325   8.245   5.817  10.140  0.0211  0.7584  0.6509
  177MOL0     H23326   8.314   6.037   9.734 -1.0413 -0.5273  0.9807
  177MOL0     H23327   8.549   6.124   9.694  1.6427 -1.8613 -0.2186
  177MOL0     H23328   9.020   6.227  10.136  0.6257 -1.4872  1.3046
  177MOL0     H23329   9.253   6.267  10.072 -4.1346  1.4450  1.9216
  177MOL0     H23330   9.417   6.011   9.755 -1.1904 -1.2911  0.4526
  177MOL0     H23331   9.470   6.012   9.929  2.4720  0.1766  0.7625
  177MOL0     H23332   9.632   6.172   9.725  0.6559  0.7079  0.2655
  177MOL0     H23333   9.664   6.003   9.774  1.0233  1.7599 -1.1394
  177MOL0     H23334   9.725   6.091  10.001 -1.2050  0.7517  0.5538
  177MOL0     H23335   9.663   6.245   9.974  0.7867 -0.1648  0.9787
  177MOL0     H23336   9.888   6.106   9.819 -0.5425  0.4407 -0.3078
  177MOL0     H23337   9.819   6.268   9.780 -3.4887  0.8850  0.9568
  177MOL0     H23338   9.983   6.151  10.020 -0.9476  1.0869  0.2304
  177MOL0     H23339   9.891   6.306  10.041  0.3424  0.2697  0.5864
  177MOL0     H23340  10.008   6.405   9.858 -0.7372  0.5270  0.7339
  177MOL0     H23341  10.104   6.260   9.830  3.5282  0.9475  1.5820
  177MOL0     H23342  10.122   6.460  10.079  0.4520  1.4024 -0.8879
  177MOL0     H23343  10.175   6.293  10.086 -2.0353  1.0587  1.8546
  177MOL0     H23344  10.266   6.528   9.896 -0.1781 -0.9799 -0.0118
  177MOL0     H23345  10.341   6.371   9.888 -1.1009 -0.6618 -0.4603
  177MOL0     H23346   9.198   6.024   9.718 -0.5216 -1.0505  0.2608
  177MOL0     H23347   8.972   5.990   9.771  0.7012 -1.6736  0.2988
  177MOL0     H23348   8.648   5.993  10.095 -0.2810  1.0596 -0.5656
  177MOL0     H23349   8.423   5.924  10.128 -5.1865 -2.1428 -1.4720
  177MOL0     H23350   7.694   5.040  10.946  0.2234 -1.8499 -0.0950
  177MOL0     H23351   7.638   4.814  10.969  1.4374  1.2392  0.6304
  177MOL0     H23352   7.255   4.526  10.886 -3.4870  1.4326  1.6329
  177MOL0     H23353   7.137   4.331  10.875  0.6985  2.1672 -0.5658
  177MOL0     H23354   7.226   4.047  11.198 -1.0476  0.9023  2.8123
  177MOL0     H23355   7.141   3.948  11.104  0.7356  0.9432  0.3744
  177MOL0     H23356   6.952   4.097  11.252  1.1632  0.7970 -2.2146
  177MOL0     H23357   6.966   3.920  11.211  0.1932  0.1685  0.3058
  177MOL0     H23358   6.979   3.951  11.463 -0.8601 -3.3685 -1.4662
  177MOL0     H23359   7.105   4.064  11.453 -1.5884 -0.5092  2.2523
  177MOL0     H23360   7.220   3.868  11.302 -3.3993  6.5222 -1.9484
  177MOL0     H23361   7.220   3.862  11.489 -0.6818  2.0390  0.9537
  177MOL0     H23362   6.972   3.544  11.393 -1.2954  0.5897 -0.6816
  177MOL0     H23363   7.263   4.228  11.275 -3.2362 -1.5170 -0.2332
  177MOL0     H23364   7.391   4.443  11.283 -0.8389  2.2246 -0.3011
  178MOL0     O23365   7.415   9.633   9.924 -0.5520 -0.5610 -0.5396
  178MOL0     C23366   7.472   9.696  10.010  0.4386 -0.3828  0.1090
  178MOL0     O23367   7.418   9.798  10.092 -0.0524 -0.6054 -0.6980
  178MOL0     C23368   7.286   9.836  10.071  0.5140  0.8369 -0.5229
  178MOL0     C23369   7.232   9.899   9.950 -0.5318 -0.6105 -0.4016
  178MOL0     C23370   7.089   9.929   9.943  0.1181  0.3628  0.1193
  178MOL0     C23371   7.006   9.912  10.057 -0.5431 -0.5970  0.0012
  178MOL0     O23372   6.876   9.953  10.040  0.9104  0.8024  0.1730
  178MOL0     C23373   6.783   9.880  10.124  1.0644  0.4499  0.4305
  178MOL0     C23374   6.643   9.922  10.081 -0.4254  0.5259  0.6469
  178MOL0     C23375   6.593   9.866   9.951 -0.5386  0.4289 -0.3540
  178MOL0     C23376   6.443   9.895   9.925  0.4118  0.7996  0.1259
  178MOL0     C23377   6.359   9.779   9.980 -0.7022 -0.3996  0.9598
  178MOL0     C23378   6.206   9.799   9.980  0.1136 -0.2125  0.0233
  178MOL0     C23379   6.159   9.880  10.108 -0.6172 -0.0294  0.2964
  178MOL0     C23380   6.005   9.859  10.114 -0.2280 -0.4426  0.8070
  178MOL0     N23381   5.929   9.973  10.169 -0.1740  0.1123 -0.7312
  178MOL0     C23382   5.850  10.062  10.102 -0.2598  0.1251  0.0262
  178MOL0     C23383   5.835  10.170  10.188  0.6257 -0.2288  0.8582
  178MOL0     C23384   5.762  10.294  10.151 -0.2283 -0.0740 -0.1924
  178MOL0     C23385   5.868  10.392  10.101  0.0988  0.3967  0.3233
  178MOL0     C23386   5.803  10.526  10.042 -0.2760  0.1321 -0.4111
  178MOL0     C23387   5.914  10.604   9.988 -0.4656 -0.4267  1.0341
  178MOL0     O23388   5.861  10.700   9.890  0.6210 -0.0370 -0.1298
  178MOL0     C23389   5.930  10.825   9.881  0.4740 -0.1628 -0.8071
  178MOL0     C23390   6.059  10.842   9.908 -0.1097 -0.8001  0.4794
  178MOL0     C23391   6.123  10.966   9.881  0.1970  1.0621 -0.4190
  178MOL0     C23392   6.045  11.077   9.850  0.0002 -0.0369 -1.2620
  178MOL0     C23393   6.110  11.208   9.846 -0.4545 -0.5201 -0.4534
  178MOL0     O23394   6.240  11.228   9.900 -1.1922  0.5948 -0.4073
  178MOL0     C23395   6.303  11.351   9.890  0.1998 -0.0092  0.3977
  178MOL0     C23396   6.311  11.435   9.770  0.5478  0.4370  0.7568
  178MOL0     C23397   6.388  11.547   9.773 -0.0380 -0.4672 -0.2244
  178MOL0     C23398   6.446  11.594   9.887  0.4412  0.1813 -0.5764
  178MOL0     O23399   6.494  11.717   9.895  0.6012 -0.4459 -0.0286
  178MOL0     C23400   6.624  11.732   9.842 -0.4450 -1.3631  0.7137
  178MOL0     C23401   6.677  11.872   9.846 -0.0663 -0.5989 -0.8063
  178MOL0     C23402   6.821  11.894   9.856 -0.7705 -0.1683 -0.1468
  178MOL0     C23403   6.886  11.860   9.987 -0.3179  0.3084 -0.0942
  178MOL0     C23404   7.027  11.900   9.994 -0.0407 -0.1404  0.5652
  178MOL0     C23405   7.064  12.050  10.014 -0.1828  0.3774  0.2135
  178MOL0     C23406   7.215  12.050  10.040  1.0977  0.8164  0.2523
  178MOL0     C23407   7.268  12.196  10.040  0.0544  0.0569  0.3415
  178MOL0    Cl23408   7.446  12.190  10.056 -0.2961 -0.5202 -0.3103
  178MOL0     C23409   6.443  11.514  10.007 -0.0034  0.8866  0.0067
  178MOL0     C23410   6.378  11.390   9.997  0.1791  0.1448 -0.6183
  178MOL0     O23411   6.043  11.294   9.786 -0.5140  0.3069  0.7269
  178MOL0     C23412   5.904  11.062   9.823  0.0915  0.6807 -0.0533
  178MOL0     C23413   5.848  10.931   9.844  0.2933 -0.7557  0.5681
  178MOL0     N23414   5.916  10.148  10.297  0.3814  0.1783  0.2320
  178MOL0     N23415   5.967  10.029  10.291 -0.1634  0.7017  0.1339
  178MOL0     C23416   7.061   9.848  10.173  0.2127 -0.5104 -0.4412
  178MOL0     C23417   7.198   9.809  10.179  0.5829  0.6502  0.5462
  178MOL0     C23418   7.618   9.650  10.020 -0.4204 -0.1486 -0.2911
  178MOL0     C23419   7.710   9.754  10.048  0.0720  0.2603 -0.0483
  178MOL0     C23420   7.848   9.724  10.070  0.1872  0.3912 -0.5433
  178MOL0     C23421   7.895   9.593  10.070 -0.2683  0.9446 -0.5901
  178MOL0     O23422   8.027   9.580  10.094  0.1948  0.9013  0.3552
  178MOL0     C23423   8.100   9.457  10.113  0.6182 -0.1333  0.1303
  178MOL0     C23424   8.248   9.475  10.139 -0.9390  0.6300  0.9484
  178MOL0     C23425   8.307   9.336  10.147  0.4720  0.2898 -0.0684
  178MOL0     C23426   8.462   9.317  10.125  0.3476 -0.1422 -0.5827
  178MOL0     C23427   8.549   9.416  10.191  0.2857 -0.1617  0.2622
  178MOL0     C23428   8.632   9.500  10.224  0.2628 -0.1988 -0.3796
  178MOL0     C23429   7.804   9.486  10.059 -0.0292  0.2038  0.1244
  178MOL0     C23430   7.668   9.518  10.027 -0.6939  0.4507  1.0751
  178MOL0     H23431   7.302   9.935   9.876  0.4116  1.3308  1.3085
  178MOL0     H23432   7.055   9.969   9.848  0.9614  1.9887  0.4807
  178MOL0     H23433   6.805   9.911  10.227  3.8957  0.7317 -0.1812
  178MOL0     H23434   6.796   9.774  10.103  0.4397  0.4312  0.1315
  178MOL0     H23435   6.631  10.030  10.087 -0.5461  0.4377  2.4032
  178MOL0     H23436   6.570   9.881  10.152 -1.8592  1.1175 -0.4200
  178MOL0     H23437   6.619   9.760   9.944 -2.0535 -0.3985  3.6930
  178MOL0     H23438   6.648   9.905   9.865  0.4550 -3.8055 -1.8837
  178MOL0     H23439   6.425   9.991   9.975  1.6472  2.4399 -2.3583
  178MOL0     H23440   6.430   9.898   9.816 -0.7624 -0.5809  0.1950
  178MOL0     H23441   6.383   9.758  10.084 -0.7095 -2.6795  0.5611
  178MOL0     H23442   6.387   9.696   9.914 -3.0092 -0.3672 -0.2018
  178MOL0     H23443   6.159   9.701   9.991 -1.5490  0.5867  0.3263
  178MOL0     H23444   6.173   9.853   9.890  0.0615  0.1118  0.2344
  178MOL0     H23445   6.203   9.845  10.202 -0.7057 -0.1107  0.3078
  178MOL0     H23446   6.179   9.986  10.096 -0.4462 -0.2321 -1.4729
  178MOL0     H23447   6.002   9.766  10.172  1.8750 -0.7601  0.4824
  178MOL0     H23448   5.961   9.847  10.014  0.0177 -1.9615  0.8498
  178MOL0     H23449   5.796  10.061  10.008 -0.0875  3.4498 -0.2419
  178MOL0     H23450   5.711  10.331  10.240 -1.9430 -0.5358 -0.9311
  178MOL0     H23451   5.681  10.269  10.082  0.0998 -2.1183  0.1020
  178MOL0     H23452   5.930  10.343  10.026 -0.8985  1.7041 -1.4454
  178MOL0     H23453   5.940  10.429  10.175  0.9974 -0.8512  0.0981
  178MOL0     H23454   5.726  10.503   9.968  0.4262  1.9168 -1.7735
  178MOL0     H23455   5.765  10.592  10.121  2.5618  0.7998  0.4865
  178MOL0     H23456   5.984  10.536   9.940  0.3565 -0.2865  1.9943
  178MOL0     H23457   5.968  10.659  10.066  1.6286  1.3045 -1.4612
  178MOL0     H23458   6.124  10.763   9.944 -1.2524 -0.9027  2.4977
  178MOL0     H23459   6.228  10.988   9.898  0.9850 -0.6642 -2.6515
  178MOL0     H23460   6.262  11.406   9.678 -2.1855  2.7928  1.3264
  178MOL0     H23461   6.391  11.617   9.690 -0.5169 -1.9915 -1.5647
  178MOL0     H23462   6.619  11.690   9.741 -0.5340  0.8509 -0.2468
  178MOL0     H23463   6.689  11.658   9.891  2.6182 -0.6470 -1.9519
  178MOL0     H23464   6.620  11.919   9.927 -1.4943  0.4712 -2.3693
  178MOL0     H23465   6.640  11.918   9.754 -0.4258 -1.5289 -1.1339
  178MOL0     H23466   6.850  11.999   9.840  1.1194 -0.1393  2.7301
  178MOL0     H23467   6.875  11.834   9.783 -1.0262 -1.5010  0.7396
  178MOL0     H23468   6.832  11.911  10.068 -2.7996  1.0176 -2.0535
  178MOL0     H23469   6.883  11.755  10.016 -3.2046  0.6334  1.1370
  178MOL0     H23470   7.078  11.862   9.905 -0.8640  2.0436 -0.9159
  178MOL0     H23471   7.062  11.846  10.083  2.6046  1.0043  0.2901
  178MOL0     H23472   7.006  12.093  10.097  0.2871  1.5597 -0.0525
  178MOL0     H23473   7.045  12.113   9.927 -2.2211  2.3754  1.9838
  178MOL0     H23474   7.223  12.004  10.139  2.3093  2.4199  0.9621
  178MOL0     H23475   7.279  12.003   9.965  2.1409  3.4161 -0.6291
  178MOL0     H23476   7.228  12.240  10.132 -2.3378 -0.8080 -0.1982
  178MOL0     H23477   7.237  12.255   9.953  4.5187  1.2199 -0.7315
  178MOL0     H23478   6.506  11.544  10.091  1.3806  0.4186 -0.8300
  178MOL0     H23479   6.372  11.326  10.084 -2.5860 -0.7698 -1.3692
  178MOL0     H23480   5.847  11.145   9.782 -0.0494 -0.5236 -2.4790
  178MOL0     H23481   5.741  10.912   9.839  0.3019 -0.5892 -1.6361
  178MOL0     H23482   6.999   9.824  10.259  1.5638  0.4900  0.8609
  178MOL0     H23483   7.235   9.746  10.258  0.7059  0.4434  0.3240
  178MOL0     H23484   7.687   9.859  10.039  0.0836  0.4924  2.1219
  178MOL0     H23485   7.918   9.807  10.083 -0.0539  0.4980  0.1082
  178MOL0     H23486   8.098   9.404  10.017 -1.0712 -0.3683  0.2634
  178MOL0     H23487   8.053   9.390  10.186 -1.4551 -0.1682 -1.1545
  178MOL0     H23488   8.282   9.535  10.054  0.8615 -1.6155 -0.0270
  178MOL0     H23489   8.276   9.537  10.225 -0.5725 -2.2957  3.1127
  178MOL0     H23490   8.262   9.268  10.075 -4.7905 -0.8841  3.6961
  178MOL0     H23491   8.282   9.321  10.253  2.1916  1.2550  0.5227
  178MOL0     H23492   8.497   9.220  10.159 -3.4332 -1.1940  0.7018
  178MOL0     H23493   8.487   9.311  10.018  1.6034  0.0903 -0.3274
  178MOL0     H23494   8.707   9.572  10.249  1.2152 -0.5974 -1.9486
  178MOL0     H23495   7.843   9.386  10.049 -0.4590 -0.0747  1.1470
  178MOL0     H23496   7.599   9.442   9.991 -0.6803 -0.2032  2.4049
  179MOL0     O23497   5.196   6.928   5.108 -0.5218  0.2138 -0.1791
  179MOL0     C23498   5.118   6.999   5.183 -0.4670  0.4306 -0.5823
  179MOL0     O23499   5.165   7.110   5.255  0.7029  0.6927 -0.3130
  179MOL0     C23500   5.296   7.132   5.238  0.2297  0.8277 -0.8104
  179MOL0     C23501   5.388   7.089   5.336 -0.2214 -0.0935  0.0151
  179MOL0     C23502   5.530   7.121   5.322  1.2655 -0.4717  0.0305
  179MOL0     C23503   5.574   7.198   5.214 -0.6281 -0.2452 -0.8252
  179MOL0     O23504   5.711   7.225   5.212  0.2340 -0.5554 -0.4665
  179MOL0     C23505   5.792   7.162   5.104  0.4813 -0.0263  0.1233
  179MOL0     C23506   5.939   7.206   5.119  0.5234 -0.5076  0.1407
  179MOL0     C23507   6.022   7.127   5.012 -0.4064 -0.4085  0.4223
  179MOL0     C23508   6.176   7.153   5.021  0.0931 -0.2013 -0.4131
  179MOL0     C23509   6.231   7.138   4.877 -0.3847  0.3768 -0.5616
  179MOL0     C23510   6.388   7.178   4.867  0.0194 -0.9314  0.1481
  179MOL0     C23511   6.405   7.323   4.887 -0.6504  0.7829 -0.9704
  179MOL0     C23512   6.505   7.336   5.004  0.8593  0.1774 -1.4648
  179MOL0     N23513   6.460   7.314   5.144 -0.4119  0.8646  0.2031
  179MOL0     C23514   6.456   7.199   5.221  0.1572  0.1568 -0.3131
  179MOL0     C23515   6.383   7.227   5.333  0.2428 -0.1416  0.2369
  179MOL0     C23516   6.347   7.141   5.455 -0.0407  0.0066 -0.7110
  179MOL0     C23517   6.219   7.043   5.439 -0.0459 -0.5828 -0.5295
  179MOL0     C23518   6.090   7.104   5.497 -0.5988  0.4100  0.3316
  179MOL0     C23519   5.987   6.988   5.493 -0.2508 -1.0191  0.4717
  179MOL0     O23520   6.005   6.873   5.573 -0.0161  0.1919 -0.3437
  179MOL0     C23521   5.941   6.751   5.538 -1.0144  0.5813  0.4358
  179MOL0     C23522   5.993   6.628   5.595 -0.0137 -0.6702 -0.6490
  179MOL0     C23523   5.937   6.505   5.554 -0.4988 -0.6349 -1.0779
  179MOL0     C23524   5.825   6.498   5.469  0.1074  0.2961 -0.4023
  179MOL0     C23525   5.754   6.375   5.427 -0.5625  0.2594  0.9427
  179MOL0     O23526   5.828   6.257   5.425  0.1007  0.1182  0.1013
  179MOL0     C23527   5.778   6.138   5.386 -0.1158  0.3555  0.5721
  179MOL0     C23528   5.808   6.028   5.464 -0.3254 -0.2110  0.9365
  179MOL0     C23529   5.744   5.911   5.451  0.5473 -0.2472  0.6250
  179MOL0     C23530   5.643   5.893   5.352 -0.5142  0.6949  0.0673
  179MOL0     O23531   5.601   5.756   5.339  1.1757 -0.0071 -0.3773
  179MOL0     C23532   5.460   5.736   5.293 -0.4679 -0.1155 -0.0715
  179MOL0     C23533   5.370   5.788   5.394 -0.4011  0.5465  0.9416
  179MOL0     C23534   5.228   5.739   5.365 -0.2386  0.7932  0.3424
  179MOL0     C23535   5.133   5.785   5.472 -0.9671  0.2933 -1.1178
  179MOL0     C23536   4.998   5.713   5.467 -0.2323 -0.0994 -0.5781
  179MOL0     C23537   4.931   5.710   5.333 -0.4274  0.1392  0.6499
  179MOL0     C23538   4.785   5.692   5.339 -0.0991  0.0864  0.3512
  179MOL0     C23539   4.743   5.580   5.445  0.0745 -0.3654 -0.0484
  179MOL0    Cl23540   4.576   5.527   5.407  0.0389 -0.4638 -0.4908
  179MOL0     C23541   5.622   5.998   5.264 -0.5716 -0.1321 -0.4696
  179MOL0     C23542   5.690   6.113   5.282  0.5943  0.0056 -0.2861
  179MOL0     O23543   5.634   6.386   5.395 -0.5855  0.5198 -0.2176
  179MOL0     C23544   5.769   6.625   5.421 -0.2307  0.1493 -0.3761
  179MOL0     C23545   5.834   6.744   5.449 -0.1579 -0.7676 -0.3617
  179MOL0     N23546   6.346   7.358   5.318 -0.2304  0.1995 -0.6352
  179MOL0     N23547   6.406   7.412   5.219 -0.1876  0.2160  0.4841
  179MOL0     C23548   5.478   7.226   5.114 -0.1029 -0.2085  0.2817
  179MOL0     C23549   5.343   7.202   5.134 -1.5318 -0.2413  0.5938
  179MOL0     C23550   4.982   6.955   5.202 -1.2214 -0.6726  0.8841
  179MOL0     C23551   4.913   6.991   5.323 -0.5126 -0.2638  0.2959
  179MOL0     C23552   4.789   6.930   5.358 -0.4578 -0.1941  0.5024
  179MOL0     C23553   4.735   6.841   5.263  0.4859 -0.3209 -0.1262
  179MOL0     O23554   4.614   6.787   5.269  0.4150  0.2234  1.0585
  179MOL0     C23555   4.520   6.801   5.374  1.0730 -0.0941 -0.1577
  179MOL0     C23556   4.380   6.750   5.321  0.2796  0.3841 -0.4664
  179MOL0     C23557   4.367   6.595   5.317 -0.2946  0.4960 -0.5864
  179MOL0     C23558   4.346   6.543   5.458  0.6728 -0.4851  1.0046
  179MOL0     C23559   4.205   6.562   5.487 -0.3332  0.2831  0.1123
  179MOL0     C23560   4.083   6.570   5.505  0.3470 -0.5954 -0.7494
  179MOL0     C23561   4.799   6.809   5.150 -0.2335  0.0295  0.2812
  179MOL0     C23562   4.924   6.862   5.118 -0.3107 -0.6150  0.7089
  179MOL0     H23563   5.348   7.045   5.426  0.5557 -0.4350  0.1991
  179MOL0     H23564   5.587   7.095   5.411  1.3966  4.2125  1.5966
  179MOL0     H23565   5.743   7.182   5.009 -0.9165 -2.0647  0.3466
  179MOL0     H23566   5.780   7.053   5.110  1.5681 -0.1824 -0.4037
  179MOL0     H23567   5.984   7.171   5.212 -1.4259 -2.5648  0.4108
  179MOL0     H23568   5.943   7.315   5.131 -1.0556 -0.6826  4.0352
  179MOL0     H23569   5.984   7.154   4.913  0.3041 -1.1724 -0.0673
  179MOL0     H23570   6.008   7.020   5.027 -1.2837 -1.1876 -4.3952
  179MOL0     H23571   6.187   7.254   5.062  0.6494 -0.6261  0.5182
  179MOL0     H23572   6.222   7.083   5.091 -2.5589 -1.1698  0.4794
  179MOL0     H23573   6.172   7.207   4.815  1.0170  3.5156  1.3462
  179MOL0     H23574   6.231   7.033   4.847  2.7510  0.7250 -2.2653
  179MOL0     H23575   6.428   7.142   4.772  0.3442 -0.4134  0.0885
  179MOL0     H23576   6.433   7.114   4.943  1.2154 -0.3644 -0.0692
  179MOL0     H23577   6.445   7.366   4.795  0.9361  1.2752 -0.1003
  179MOL0     H23578   6.310   7.369   4.916 -2.6673 -2.0646 -2.5603
  179MOL0     H23579   6.555   7.432   5.001  0.9594  0.3043  1.6224
  179MOL0     H23580   6.588   7.266   4.988  0.5099  0.0736 -3.0076
  179MOL0     H23581   6.486   7.098   5.195  0.0760  0.2186 -0.6518
  179MOL0     H23582   6.334   7.206   5.542  1.1469  0.0339 -0.5371
  179MOL0     H23583   6.436   7.081   5.473  0.3468  0.5351 -0.8408
  179MOL0     H23584   6.244   6.951   5.492  0.9768 -0.1446 -0.2177
  179MOL0     H23585   6.205   7.025   5.332 -2.9381  4.9623 -1.4607
  179MOL0     H23586   6.098   7.123   5.605 -2.4328  1.0622  0.3995
  179MOL0     H23587   6.060   7.197   5.447  2.9652  0.4986 -1.9580
  179MOL0     H23588   5.988   6.957   5.388 -2.4445  0.7423 -0.1483
  179MOL0     H23589   5.884   7.024   5.504  1.2516  3.6554  1.3450
  179MOL0     H23590   6.074   6.629   5.667 -2.0478 -4.0925  2.0073
  179MOL0     H23591   5.991   6.414   5.580  2.1519 -0.1169 -4.1617
  179MOL0     H23592   5.878   6.044   5.546 -0.7352 -0.7729  1.4088
  179MOL0     H23593   5.753   5.829   5.522 -0.7504 -1.0307 -0.0789
  179MOL0     H23594   5.431   5.631   5.285  1.0084 -0.4948 -0.7624
  179MOL0     H23595   5.446   5.777   5.192 -0.3311 -1.5797 -0.7065
  179MOL0     H23596   5.375   5.897   5.393  2.2990  0.5207  2.4164
  179MOL0     H23597   5.406   5.758   5.493  0.9152  0.2731  0.3958
  179MOL0     H23598   5.223   5.630   5.363 -0.4125  0.7909  0.9164
  179MOL0     H23599   5.196   5.764   5.263  3.0987  0.3471 -0.9443
  179MOL0     H23600   5.178   5.776   5.572  0.4075  2.9494 -1.4015
  179MOL0     H23601   5.123   5.893   5.463  3.1630  1.1033  1.2168
  179MOL0     H23602   4.935   5.761   5.543 -0.3916  0.5063 -1.0786
  179MOL0     H23603   4.998   5.612   5.507 -4.7727  0.2109  0.7918
  179MOL0     H23604   4.976   5.629   5.274 -0.3306  0.6354  0.0317
  179MOL0     H23605   4.953   5.805   5.283 -2.3553  1.4472  2.1273
  179MOL0     H23606   4.737   5.787   5.364 -1.6695 -1.4051  3.5022
  179MOL0     H23607   4.741   5.664   5.243  0.0937 -1.2561  0.6264
  179MOL0     H23608   4.758   5.622   5.545  1.6929  0.7501 -0.7146
  179MOL0     H23609   4.799   5.487   5.432  2.8700  1.0617  1.0382
  179MOL0     H23610   5.562   5.985   5.174 -0.8061 -0.8161 -0.2234
  179MOL0     H23611   5.657   6.203   5.231 -1.3976 -0.7956 -0.5012
  179MOL0     H23612   5.676   6.624   5.365 -1.2337  0.5516  1.2437
  179MOL0     H23613   5.787   6.832   5.406 -1.7388 -1.0057  0.7871
  179MOL0     H23614   5.508   7.269   5.019 -1.7045  1.1277  0.3301
  179MOL0     H23615   5.280   7.250   5.059 -2.4445  2.6800  3.0261
  179MOL0     H23616   4.952   7.063   5.394  0.2385  0.2888 -0.6576
  179MOL0     H23617   4.737   6.981   5.438  1.4591  0.2252  1.5464
  179MOL0     H23618   4.497   6.905   5.397  0.4874 -0.6713  2.1768
  179MOL0     H23619   4.558   6.745   5.461  4.1654  0.3491 -1.0849
  179MOL0     H23620   4.288   6.786   5.367 -0.6750 -0.8020 -1.3704
  179MOL0     H23621   4.369   6.789   5.219 -0.4022  2.4421  0.3465
  179MOL0     H23622   4.463   6.561   5.279  0.1393  2.4297 -1.3637
  179MOL0     H23623   4.281   6.572   5.253 -0.8684 -0.6854  0.5611
  179MOL0     H23624   4.378   6.438   5.454  0.1061 -0.6529  0.7965
  179MOL0     H23625   4.402   6.591   5.539 -0.5768 -0.8167  2.0959
  179MOL0     H23626   3.980   6.583   5.534  0.0038 -1.7735 -1.3824
  179MOL0     H23627   4.760   6.727   5.091 -4.6062  1.6144  0.6502
  179MOL0     H23628   4.974   6.832   5.026 -1.9193 -0.0951 -0.3882
  180MOL0     O23629   0.005  11.015   0.747  0.0353 -0.5775 -0.2923
  180MOL0     C23630   0.089  11.103   0.715  0.4330  1.2479 -0.2324
  180MOL0     O23631   0.104  11.217   0.787  0.3311 -0.0826  0.2672
  180MOL0     C23632  -0.004  11.256   0.861  1.1760  0.3574 -0.3718
  180MOL0     C23633  -0.147  11.231   0.837  0.3067 -0.2217  0.2632
  180MOL0     C23634  -0.237  11.291   0.923  0.0130  0.3280  0.2648
  180MOL0     C23635  -0.209  11.375   1.030 -0.4213  0.1583 -0.7901
  180MOL0     O23636  -0.313  11.426   1.109 -0.1580  0.7620  1.0256
  180MOL0     C23637  -0.339  11.318   1.203 -0.4501  0.2095  0.1608
  180MOL0     C23638  -0.480  11.256   1.187  1.0458 -0.4644 -0.0537
  180MOL0     C23639  -0.590  11.373   1.216  0.8994 -0.5303 -0.6947
  180MOL0     C23640  -0.718  11.314   1.283 -0.0100  0.2703  0.2603
  180MOL0     C23641  -0.805  11.412   1.360  1.0309 -0.1221  0.1176
  180MOL0     C23642  -0.941  11.352   1.408  0.3189  0.5700  0.5030
  180MOL0     C23643  -1.041  11.466   1.435 -0.0422 -0.6528 -0.7964
  180MOL0     C23644  -1.188  11.436   1.458  0.4067  0.4774  1.0681
  180MOL0     N23645  -1.271  11.554   1.456  0.4950 -0.6121  0.2949
  180MOL0     C23646  -1.372  11.567   1.373 -0.7504  0.3122 -0.7761
  180MOL0     C23647  -1.412  11.693   1.394  0.8019 -0.2956  0.1024
  180MOL0     C23648  -1.532  11.772   1.344  0.2579 -0.2742  0.1251
  180MOL0     C23649  -1.666  11.739   1.419 -0.2690 -0.1508  0.8232
  180MOL0     C23650  -1.731  11.619   1.352 -1.0339  0.6110 -0.1425
  180MOL0     C23651  -1.773  11.517   1.456  0.7849  0.1398 -0.3184
  180MOL0     O23652  -1.882  11.571   1.539 -0.1728  0.0093 -0.3365
  180MOL0     C23653  -2.001  11.573   1.466 -0.4263 -0.8868  0.2085
  180MOL0     C23654  -2.050  11.449   1.432 -0.1124  0.2148  0.4857
  180MOL0     C23655  -2.173  11.428   1.368 -0.4122 -0.3969 -0.7523
  180MOL0     C23656  -2.263  11.540   1.344  0.1053 -0.5147 -0.0569
  180MOL0     C23657  -2.403  11.530   1.290 -0.1875 -0.1850 -0.4042
  180MOL0     O23658  -2.485  11.639   1.306  0.3591  0.2159  0.2977
  180MOL0     C23659  -2.595  11.657   1.224  0.0925  0.6459 -0.2233
  180MOL0     C23660  -2.679  11.552   1.183 -0.6061 -0.3930 -0.1488
  180MOL0     C23661  -2.775  11.575   1.083  1.2155 -0.8086 -0.7176
  180MOL0     C23662  -2.796  11.703   1.034  0.6754  0.7601 -0.7886
  180MOL0     O23663  -2.879  11.722   0.925  0.2317 -0.3400 -0.0945
  180MOL0     C23664  -2.995  11.633   0.914  0.5742 -0.5308  0.2257
  180MOL0     C23665  -3.108  11.657   1.015  0.0662  1.0534 -0.7125
  180MOL0     C23666  -3.177  11.792   0.999 -0.6710  0.0083 -0.2831
  180MOL0     C23667  -3.274  11.808   1.119  0.6506  0.1574 -0.5129
  180MOL0     C23668  -3.331  11.950   1.094  0.7468 -1.2002 -1.1179
  180MOL0     C23669  -3.444  11.985   1.197 -1.2602  0.7503 -0.1666
  180MOL0     C23670  -3.477  12.129   1.194  0.7112 -0.5262  0.5263
  180MOL0     C23671  -3.603  12.188   1.257  0.2883 -0.6968  0.5171
  180MOL0    Cl23672  -3.753  12.128   1.183 -0.1445 -0.4557  0.3630
  180MOL0     C23673  -2.720  11.809   1.085  0.7746  0.8147 -0.2538
  180MOL0     C23674  -2.620  11.787   1.175  0.0307  0.2834  0.1980
  180MOL0     O23675  -2.417  11.438   1.217  0.6897  0.0128  0.9420
  180MOL0     C23676  -2.212  11.667   1.391 -0.6528  0.3106  0.4605
  180MOL0     C23677  -2.078  11.688   1.449  0.4222  0.5078  0.2028
  180MOL0     N23678  -1.340  11.765   1.485 -0.1680 -0.2486  0.5000
  180MOL0     N23679  -1.256  11.675   1.521  0.6159  0.2377 -0.0551
  180MOL0     C23680  -0.072  11.409   1.048 -0.0797 -0.3893 -0.0586
  180MOL0     C23681   0.021  11.354   0.968 -0.0016  0.7001 -0.2959
  180MOL0     C23682   0.175  11.092   0.594 -0.6752 -0.1014  0.3391
  180MOL0     C23683   0.166  10.976   0.512  0.0145 -0.1503  0.1919
  180MOL0     C23684   0.257  10.950   0.408  0.1607  0.7221 -1.0317
  180MOL0     C23685   0.353  11.046   0.371  0.4870  0.0473  1.1021
  180MOL0     O23686   0.444  11.042   0.262 -0.3517 -0.1316  1.1603
  180MOL0     C23687   0.451  10.920   0.185 -0.0902 -0.5229 -0.1136
  180MOL0     C23688   0.587  10.927   0.099 -1.1520 -0.0789  0.5789
  180MOL0     C23689   0.710  10.987   0.169 -0.0862  0.2954 -0.9550
  180MOL0     C23690   0.791  11.057   0.060 -0.6769  1.0157  0.6060
  180MOL0     C23691   0.868  10.962  -0.027  1.1049 -0.0351  0.6338
  180MOL0     C23692   0.925  10.893  -0.104 -0.3678  0.5956  0.4202
  180MOL0     C23693   0.358  11.160   0.453 -1.0248 -0.7240  0.8813
  180MOL0     C23694   0.270  11.186   0.556 -1.2141  0.0861 -0.1249
  180MOL0     H23695  -0.178  11.172   0.751 -1.8712  1.3189 -0.0854
  180MOL0     H23696  -0.339  11.258   0.906  0.8065 -2.2472  0.0114
  180MOL0     H23697  -0.340  11.356   1.306 -1.1679  1.3679 -0.2577
  180MOL0     H23698  -0.275  11.230   1.187 -3.1451 -1.5602 -1.6017
  180MOL0     H23699  -0.479  11.180   1.265 -2.0052 -2.7464 -2.0227
  180MOL0     H23700  -0.482  11.213   1.086  2.1264 -1.5673  0.3667
  180MOL0     H23701  -0.610  11.433   1.128  0.0053 -1.5189 -1.1873
  180MOL0     H23702  -0.546  11.439   1.291  1.2384 -0.3923 -1.0104
  180MOL0     H23703  -0.779  11.278   1.200 -2.2797  0.3203  1.7879
  180MOL0     H23704  -0.694  11.227   1.344  2.1725  0.5498 -0.1191
  180MOL0     H23705  -0.829  11.498   1.296 -0.9492  0.1648  1.1430
  180MOL0     H23706  -0.750  11.446   1.448  0.7430  0.0267  0.2423
  180MOL0     H23707  -0.935  11.296   1.501  0.6723  1.8460  1.2710
  180MOL0     H23708  -0.972  11.296   1.319 -1.3996  1.4212  0.5406
  180MOL0     H23709  -1.010  11.526   1.520  2.0486 -1.5059 -0.9042
  180MOL0     H23710  -1.052  11.527   1.345 -4.0850 -2.4907 -1.8085
  180MOL0     H23711  -1.202  11.382   1.552 -0.7532  0.8872  1.1489
  180MOL0     H23712  -1.228  11.367   1.382  0.2221  2.6265 -0.8801
  180MOL0     H23713  -1.422  11.496   1.308  2.2931 -1.0241 -1.8124
  180MOL0     H23714  -1.551  11.762   1.237  1.2321  5.5498 -0.9420
  180MOL0     H23715  -1.510  11.878   1.357  0.5381 -0.6026  3.1747
  180MOL0     H23716  -1.732  11.826   1.418  2.2766  1.9641 -2.1669
  180MOL0     H23717  -1.642  11.706   1.520  1.3890 -0.7261  0.2814
  180MOL0     H23718  -1.814  11.642   1.284 -2.1944 -3.2240 -0.2323
  180MOL0     H23719  -1.660  11.570   1.284 -0.0260  0.7448  0.7982
  180MOL0     H23720  -1.692  11.496   1.527  0.2033 -0.9843  0.0256
  180MOL0     H23721  -1.802  11.434   1.391 -1.5352  2.4481 -2.4392
  180MOL0     H23722  -1.995  11.357   1.450 -0.1260  0.2481  0.7047
  180MOL0     H23723  -2.194  11.332   1.321 -0.4928 -0.1366 -1.2528
  180MOL0     H23724  -2.658  11.464   1.245  1.1481  0.5899  0.7460
  180MOL0     H23725  -2.823  11.488   1.039  0.5570 -0.0062 -1.6548
  180MOL0     H23726  -2.974  11.526   0.907  3.2383 -0.1252  0.6815
  180MOL0     H23727  -3.039  11.667   0.820  1.1917 -2.3722 -0.7739
  180MOL0     H23728  -3.074  11.634   1.116  0.6358 -0.1716 -1.1669
  180MOL0     H23729  -3.189  11.583   1.008  0.5311  0.2923  1.4705
  180MOL0     H23730  -3.226  11.784   0.902 -0.0381 -0.7291 -0.5519
  180MOL0     H23731  -3.113  11.881   1.002 -0.4644 -0.1605  1.2520
  180MOL0     H23732  -3.351  11.733   1.140  0.6308  0.6786  1.4784
  180MOL0     H23733  -3.220  11.819   1.214  2.1671  1.9331 -1.5111
  180MOL0     H23734  -3.370  11.964   0.992  1.3215 -0.4558 -1.2475
  180MOL0     H23735  -3.260  12.033   1.098 -1.3266  0.6366  0.7834
  180MOL0     H23736  -3.395  11.967   1.293  1.7379  1.6753 -1.4181
  180MOL0     H23737  -3.530  11.920   1.176 -0.2364 -1.6572  2.3536
  180MOL0     H23738  -3.395  12.179   1.246  1.0692  0.6246 -1.0613
  180MOL0     H23739  -3.471  12.150   1.087  2.2119 -0.7991  0.5429
  180MOL0     H23740  -3.590  12.297   1.267  1.3444 -0.8754  1.2245
  180MOL0     H23741  -3.617  12.151   1.359 -2.1153 -0.3668  0.3578
  180MOL0     H23742  -2.731  11.913   1.055  1.4972  1.4351  1.5038
  180MOL0     H23743  -2.561  11.873   1.206  3.7758 -1.2271 -2.1228
  180MOL0     H23744  -2.270  11.759   1.386  1.5966  1.7585 -0.6461
  180MOL0     H23745  -2.051  11.792   1.469 -0.4761  1.1470 -1.6455
  180MOL0     H23746  -0.045  11.472   1.132  3.7479 -0.4013 -1.0937
  180MOL0     H23747   0.126  11.382   0.972  0.6745 -1.5067 -1.2432
  180MOL0     H23748   0.107  10.885   0.522 -0.6966  0.5366  4.1175
  180MOL0     H23749   0.261  10.850   0.365  0.4283  0.3513 -0.1511
  180MOL0     H23750   0.359  10.919   0.126 -1.0311  0.9283  1.2510
  180MOL0     H23751   0.444  10.827   0.243 -1.9883 -1.0314 -1.0944
  180MOL0     H23752   0.617  10.825   0.073  0.4265  0.1770  1.2882
  180MOL0     H23753   0.568  10.992   0.013 -0.8633  1.4277  1.6058
  180MOL0     H23754   0.771  10.916   0.225 -1.2440 -0.1591 -0.2325
  180MOL0     H23755   0.672  11.071   0.228 -0.4936 -0.8268  0.4367
  180MOL0     H23756   0.744  11.129  -0.007 -1.0716  1.1656  1.0357
  180MOL0     H23757   0.870  11.102   0.120  0.7526 -1.2939  0.6038
  180MOL0     H23758   0.981  10.826  -0.166 -1.3175  2.1157 -2.2416
  180MOL0     H23759   0.418  11.246   0.424  2.1316 -3.8198 -2.9432
  180MOL0     H23760   0.283  11.266   0.628  1.8127 -1.5192  1.2761
  181MOL0     O23761   1.087   9.898   9.812 -0.8372  0.3701 -0.4144
  181MOL0     C23762   1.110   9.812   9.724 -0.5608  0.3787 -0.2552
  181MOL0     O23763   1.036   9.795   9.609 -0.4984  0.7386  0.2541
  181MOL0     C23764   0.922   9.879   9.582  0.2254  0.1891 -0.2303
  181MOL0     C23765   0.814   9.924   9.674 -0.7675 -0.9092  0.4159
  181MOL0     C23766   0.742  10.035   9.626 -0.2289  0.0658  0.5514
  181MOL0     C23767   0.751  10.069   9.487  0.0497 -0.4827 -1.0007
  181MOL0     O23768   0.677  10.170   9.441  0.3485  0.6467 -0.0218
  181MOL0     C23769   0.755  10.294   9.457  0.2528 -0.6664 -1.5757
  181MOL0     C23770   0.657  10.416   9.439  0.0999 -0.3798  0.3175
  181MOL0     C23771   0.721  10.542   9.475 -0.4722 -0.2588  0.2525
  181MOL0     C23772   0.612  10.655   9.482  0.2666  0.5299  0.1528
  181MOL0     C23773   0.644  10.777   9.395 -0.5654 -0.7444 -0.3835
  181MOL0     C23774   0.658  10.748   9.247  0.1281 -0.3972  0.0692
  181MOL0     C23775   0.659  10.873   9.168 -0.0396 -0.0803 -0.4186
  181MOL0     C23776   0.627  10.837   9.022 -0.1767  0.0975 -0.6019
  181MOL0     N23777   0.674  10.702   8.974  0.5745  0.5855 -0.1719
  181MOL0     C23778   0.799  10.650   8.933  0.0776 -0.5001  0.8287
  181MOL0     C23779   0.779  10.521   8.938  0.1353  0.0296  0.7856
  181MOL0     C23780   0.874  10.411   8.949 -0.4709  0.7836  0.7564
  181MOL0     C23781   0.914  10.415   9.103 -0.1842 -0.4464  0.0048
  181MOL0     C23782   1.027  10.321   9.146 -0.3432 -0.5851 -0.6034
  181MOL0     C23783   1.149  10.334   9.059  0.3330  0.0035  0.2491
  181MOL0     O23784   1.191  10.469   9.039 -0.5540 -0.4114 -0.0806
  181MOL0     C23785   1.301  10.501   8.960  0.3318 -0.0407  0.5877
  181MOL0     C23786   1.307  10.641   8.943 -0.2254  0.4576  0.4817
  181MOL0     C23787   1.410  10.694   8.873 -0.3954 -0.3278  0.0709
  181MOL0     C23788   1.526  10.617   8.833 -0.1007 -0.0597 -0.0863
  181MOL0     C23789   1.651  10.687   8.775  0.5374 -0.0457 -0.3090
  181MOL0     O23790   1.748  10.608   8.720 -0.2524 -0.6056 -0.9035
  181MOL0     C23791   1.870  10.667   8.670  0.0605 -0.2062  0.1142
  181MOL0     C23792   1.863  10.754   8.558  0.5286 -0.1383 -0.2022
  181MOL0     C23793   1.987  10.785   8.494  0.0477 -0.0459 -0.0715
  181MOL0     C23794   2.112  10.763   8.560  0.5859  1.3291  0.3184
  181MOL0     O23795   2.236  10.786   8.503 -0.3789  0.8513 -0.6000
  181MOL0     C23796   2.236  10.870   8.392 -0.3340 -0.1127  0.3952
  181MOL0     C23797   2.381  10.916   8.379 -0.1830 -0.2306  0.3949
  181MOL0     C23798   2.487  10.796   8.368  0.3223  0.1671  0.6810
  181MOL0     C23799   2.607  10.844   8.295 -0.1503  0.0981  0.7289
  181MOL0     C23800   2.709  10.734   8.273  0.1934 -0.8425  0.5374
  181MOL0     C23801   2.764  10.695   8.406 -0.0263  0.1602 -0.1716
  181MOL0     C23802   2.901  10.625   8.381 -0.1898  0.0957 -0.1711
  181MOL0     C23803   2.973  10.568   8.508 -0.7512  0.9619  0.0872
  181MOL0    Cl23804   2.895  10.423   8.588  0.1172  0.2287  0.2597
  181MOL0     C23805   2.115  10.676   8.670 -0.1058  0.1416  1.2128
  181MOL0     C23806   1.992  10.631   8.726  0.1145 -0.2868 -0.4308
  181MOL0     O23807   1.648  10.808   8.774 -0.2477 -1.3939 -0.2447
  181MOL0     C23808   1.520  10.476   8.862 -0.8449 -0.6656 -0.7319
  181MOL0     C23809   1.408  10.418   8.916 -0.2844 -0.3228  0.0869
  181MOL0     N23810   0.648  10.485   8.962 -0.7721 -0.2452  0.0195
  181MOL0     N23811   0.584  10.595   8.983  0.4403  0.2308 -0.0622
  181MOL0     C23812   0.841  10.008   9.399  0.3937 -0.0637 -0.4226
  181MOL0     C23813   0.937   9.919   9.453  0.2130 -0.1903 -0.7431
  181MOL0     C23814   1.230   9.726   9.744 -0.3276  1.1351 -0.5238
  181MOL0     C23815   1.243   9.602   9.674 -0.9546  0.2536  1.1172
  181MOL0     C23816   1.361   9.529   9.687  0.1047 -0.0705 -0.7511
  181MOL0     C23817   1.457   9.556   9.789 -0.2024  0.4325  0.2084
  181MOL0     O23818   1.564   9.472   9.795 -0.2345 -0.2804 -0.5700
  181MOL0     C23819   1.639   9.479   9.915 -0.1332 -0.0096 -0.3719
  181MOL0     C23820   1.769   9.390   9.906 -0.2874  0.3101  0.2451
  181MOL0     C23821   1.842   9.391  10.039 -0.1886 -0.5134  0.2055
  181MOL0     C23822   1.983   9.324  10.006  0.5517 -1.1035 -0.7714
  181MOL0     C23823   2.054   9.300  10.133 -0.3913  0.5607 -0.0090
  181MOL0     C23824   2.102   9.286  10.241  0.2175  0.4913 -0.4619
  181MOL0     C23825   1.434   9.675   9.856  0.1655  0.2227 -1.1340
  181MOL0     C23826   1.327   9.761   9.840  1.0590 -0.1570 -0.2719
  181MOL0     H23827   0.802   9.887   9.775 -2.0650  2.7531  1.7830
  181MOL0     H23828   0.678  10.101   9.683  0.8852  1.0797  0.6893
  181MOL0     H23829   0.834  10.302   9.382  0.0237  0.3062 -1.7348
  181MOL0     H23830   0.792  10.303   9.559 -0.2007  1.3350 -1.5272
  181MOL0     H23831   0.569  10.403   9.503 -0.3668  0.6959 -0.0971
  181MOL0     H23832   0.624  10.404   9.336  1.9379 -1.7943 -0.1694
  181MOL0     H23833   0.809  10.562   9.412  2.1214 -0.3494  3.5515
  181MOL0     H23834   0.769  10.543   9.573  0.9087  1.3358 -0.3863
  181MOL0     H23835   0.527  10.606   9.434  1.9401 -3.3615  0.8413
  181MOL0     H23836   0.592  10.689   9.584  1.1784  1.2280  0.1163
  181MOL0     H23837   0.736  10.824   9.433 -0.5946  0.2482 -1.5003
  181MOL0     H23838   0.562  10.848   9.405 -2.1606 -2.5521  0.0463
  181MOL0     H23839   0.577  10.679   9.221 -2.1652  2.2261 -0.1437
  181MOL0     H23840   0.754  10.700   9.226  1.6700  2.3888  0.3383
  181MOL0     H23841   0.576  10.933   9.207 -1.0422 -0.0547 -2.4526
  181MOL0     H23842   0.756  10.921   9.178 -0.8319  1.1928  1.8997
  181MOL0     H23843   0.672  10.917   8.961  0.2751  1.1270  1.0264
  181MOL0     H23844   0.518  10.843   9.018 -0.2655 -1.1739 -0.2865
  181MOL0     H23845   0.891  10.695   8.897 -0.1422 -1.0244 -0.4498
  181MOL0     H23846   0.955  10.433   8.880 -0.4970  1.0059  0.7967
  181MOL0     H23847   0.843  10.309   8.924 -0.2234  0.0342  3.2810
  181MOL0     H23848   0.820  10.386   9.150 -1.9741 -2.8063 -4.3867
  181MOL0     H23849   0.933  10.515   9.143 -1.7756 -0.3430  0.5680
  181MOL0     H23850   1.062  10.345   9.247  2.3216  2.6548 -2.0762
  181MOL0     H23851   0.993  10.217   9.151 -0.7007 -0.4878  4.4186
  181MOL0     H23852   1.111  10.309   8.959  0.1346 -0.0032  0.3255
  181MOL0     H23853   1.233  10.270   9.088  0.3503  0.6148  1.6058
  181MOL0     H23854   1.229  10.703   8.984 -0.2938  0.9963 -0.4401
  181MOL0     H23855   1.394  10.801   8.858  1.6787  0.1290  0.7669
  181MOL0     H23856   1.767  10.790   8.521  0.7446 -1.5124 -2.2811
  181MOL0     H23857   1.985  10.852   8.409  3.7425  1.6796  0.9751
  181MOL0     H23858   2.169  10.956   8.403  0.8761  1.2510 -1.9912
  181MOL0     H23859   2.199  10.810   8.308  0.6335 -2.4191  1.5340
  181MOL0     H23860   2.401  10.990   8.456  1.0135 -0.7011  0.5555
  181MOL0     H23861   2.395  10.978   8.290 -0.3922 -0.2506  0.3479
  181MOL0     H23862   2.438  10.716   8.313 -0.2498  1.5865 -0.9922
  181MOL0     H23863   2.521  10.764   8.467 -0.3754  0.2648  0.9539
  181MOL0     H23864   2.583  10.887   8.197  0.1826 -1.8586 -0.2479
  181MOL0     H23865   2.665  10.917   8.352  0.6335  0.4696 -0.5027
  181MOL0     H23866   2.793  10.760   8.208  0.6021 -0.0185  1.3682
  181MOL0     H23867   2.654  10.656   8.221  1.6438 -0.9283 -0.9464
  181MOL0     H23868   2.693  10.633   8.461  1.2602  1.2168  2.9245
  181MOL0     H23869   2.778  10.781   8.473  0.6481 -1.1861  1.4844
  181MOL0     H23870   2.887  10.551   8.301 -0.3516 -2.0487  1.7099
  181MOL0     H23871   2.958  10.710   8.343 -0.1454  1.0953  2.0360
  181MOL0     H23872   2.989  10.645   8.585  0.8354  0.5147  0.2293
  181MOL0     H23873   3.071  10.525   8.487 -0.7279  1.3646 -0.6777
  181MOL0     H23874   2.217  10.654   8.697  1.1043  1.4739 -1.7422
  181MOL0     H23875   2.005  10.566   8.811  1.9746  1.2847  0.5643
  181MOL0     H23876   1.604  10.408   8.848  0.0534 -0.2654  2.1764
  181MOL0     H23877   1.415  10.314   8.943  0.4592 -0.7767 -1.7019
  181MOL0     H23878   0.858  10.033   9.294  3.2125 -2.2497 -0.6176
  181MOL0     H23879   1.017   9.883   9.390  1.4038  2.7280 -1.0402
  181MOL0     H23880   1.171   9.562   9.603  1.1714 -1.8593  0.0253
  181MOL0     H23881   1.379   9.444   9.623  0.2738  0.0887 -0.9190
  181MOL0     H23882   1.583   9.426   9.992 -1.3959 -3.1825 -3.2710
  181MOL0     H23883   1.670   9.579   9.948 -1.3784 -0.0470  1.0299
  181MOL0     H23884   1.746   9.283   9.894 -0.9102  0.5725 -0.9892
  181MOL0     H23885   1.829   9.418   9.820  1.7105  0.3728  1.5957
  181MOL0     H23886   1.794   9.342  10.124  0.7422 -3.0254 -0.6398
  181MOL0     H23887   1.868   9.493  10.070  0.1756  0.0562 -1.8125
  181MOL0     H23888   1.954   9.224   9.974 -1.7672  0.3113 -3.5981
  181MOL0     H23889   2.040   9.393   9.942 -0.1162 -2.1396 -2.5352
  181MOL0     H23890   2.153   9.251  10.328  0.9859 -1.4358 -1.6063
  181MOL0     H23891   1.514   9.708   9.921  0.8139 -1.3022 -1.1349
  181MOL0     H23892   1.325   9.844   9.911  0.9176 -0.5050  0.1306
  182MOL0     O23893   7.704  10.296   7.337 -0.2155 -0.3272 -0.1882
  182MOL0     C23894   7.737  10.361   7.435  0.4858  0.6674 -0.4974
  182MOL0     O23895   7.672  10.465   7.488 -0.2456 -0.4309 -0.2140
  182MOL0     C23896   7.586  10.538   7.406  0.2122  0.1932 -0.5156
  182MOL0     C23897   7.617  10.572   7.273  0.8340  0.7271  0.6439
  182MOL0     C23898   7.521  10.644   7.199 -0.1088  0.8345  0.3340
  182MOL0     C23899   7.399  10.682   7.253  0.4111 -1.2697 -1.0961
  182MOL0     O23900   7.302  10.746   7.181 -0.4310 -0.0757 -0.0406
  182MOL0     C23901   7.268  10.695   7.055 -0.2749 -0.0267 -0.1114
  182MOL0     C23902   7.291  10.805   6.948 -0.0010 -0.3801 -1.5766
  182MOL0     C23903   7.277  10.756   6.810 -0.5861  0.1445  0.6497
  182MOL0     C23904   7.298  10.876   6.711  0.6459 -0.3630 -0.2250
  182MOL0     C23905   7.444  10.914   6.685 -0.0136 -0.1135  0.1759
  182MOL0     C23906   7.466  11.052   6.628 -0.4890  0.1228 -0.3436
  182MOL0     C23907   7.612  11.056   6.562  0.5518  0.0534  0.6096
  182MOL0     C23908   7.636  11.183   6.473 -0.4821 -0.3168 -0.1221
  182MOL0     N23909   7.584  11.306   6.538 -0.1778  0.5375 -0.4792
  182MOL0     C23910   7.658  11.385   6.620 -1.1409 -0.0756 -0.5876
  182MOL0     C23911   7.571  11.469   6.675 -0.0530 -0.7786  0.6450
  182MOL0     C23912   7.597  11.583   6.775  0.2764 -0.0979 -0.3190
  182MOL0     C23913   7.606  11.720   6.699  0.3097 -0.1131  0.3125
  182MOL0     C23914   7.656  11.830   6.783 -0.6191  0.2590 -0.1132
  182MOL0     C23915   7.708  11.942   6.698  0.1679 -0.0217  0.2084
  182MOL0     O23916   7.589  12.017   6.658  1.1282 -0.0439  0.5303
  182MOL0     C23917   7.596  12.083   6.540  1.0101 -0.1377  0.1848
  182MOL0     C23918   7.706  12.129   6.488  0.1495  0.7994 -0.4963
  182MOL0     C23919   7.708  12.198   6.366  1.1753 -0.3305  0.1400
  182MOL0     C23920   7.593  12.227   6.300 -0.4773 -0.4670 -0.0384
  182MOL0     C23921   7.600  12.303   6.169 -0.2847  0.2718 -0.6347
  182MOL0     O23922   7.485  12.329   6.124 -0.5281  0.5362  0.8695
  182MOL0     C23923   7.473  12.393   6.008  0.6294  0.5180  0.2037
  182MOL0     C23924   7.515  12.336   5.886  0.3019 -0.7263 -0.8410
  182MOL0     C23925   7.504  12.413   5.764  0.5940  0.7980  1.2830
  182MOL0     C23926   7.454  12.541   5.763 -0.3584  0.4251  0.4023
  182MOL0     O23927   7.450  12.611   5.643  0.5085  0.1795  0.6750
  182MOL0     C23928   7.392  12.741   5.633  0.7522  0.3605  0.4202
  182MOL0     C23929   7.240  12.725   5.650 -0.4843 -0.6188  0.5614
  182MOL0     C23930   7.166  12.857   5.677  0.2153  0.3931  0.7010
  182MOL0     C23931   7.004  12.845   5.681 -1.2024 -0.8342 -0.7049
  182MOL0     C23932   6.948  12.844   5.540 -0.0611  0.4162  0.0221
  182MOL0     C23933   6.794  12.844   5.525 -1.3629 -0.1605  0.1563
  182MOL0     C23934   6.747  12.847   5.377 -0.4896 -0.4448  0.3693
  182MOL0     C23935   6.601  12.896   5.368 -0.9750 -0.1024 -0.5873
  182MOL0    Cl23936   6.564  12.940   5.197  0.9271  0.0470  0.3649
  182MOL0     C23937   7.409  12.589   5.893  0.2396  0.5144  0.3249
  182MOL0     C23938   7.415  12.513   6.008  0.2621 -0.7799 -0.2419
  182MOL0     O23939   7.705  12.341   6.127 -0.3488 -0.3176 -0.0918
  182MOL0     C23940   7.473  12.177   6.360 -0.4605 -0.7456  0.8594
  182MOL0     C23941   7.467  12.107   6.482 -0.1668  0.1135  0.3868
  182MOL0     N23942   7.444  11.440   6.633 -0.0101 -0.4212  0.5317
  182MOL0     N23943   7.457  11.342   6.542 -0.0446 -0.6056 -0.0229
  182MOL0     C23944   7.363  10.646   7.387 -0.8604  0.2737  0.2980
  182MOL0     C23945   7.460  10.577   7.463  0.4310  0.1398 -0.8569
  182MOL0     C23946   7.875  10.339   7.484 -1.0522 -0.5589  1.2645
  182MOL0     C23947   7.968  10.267   7.416 -0.2993  0.4782 -0.4446
  182MOL0     C23948   8.094  10.243   7.467 -0.6123  0.6235  0.0901
  182MOL0     C23949   8.134  10.300   7.588 -0.5513  0.1222 -0.4840
  182MOL0     O23950   8.256  10.253   7.636  0.1357  0.0485  0.4094
  182MOL0     C23951   8.287  10.268   7.770  0.3806  0.1548 -0.2984
  182MOL0     C23952   8.402  10.174   7.808 -0.5913  0.3463  0.0320
  182MOL0     C23953   8.438  10.188   7.962  0.5079  0.1882 -0.1449
  182MOL0     C23954   8.561  10.104   7.989  0.1560 -0.2815  0.2258
  182MOL0     C23955   8.608  10.133   8.127 -0.5555 -0.1403  0.3521
  182MOL0     C23956   8.637  10.163   8.248  1.2956  0.6086 -0.6006
  182MOL0     C23957   8.044  10.393   7.655  0.2512 -1.1046  0.8636
  182MOL0     C23958   7.920  10.411   7.593 -0.2886  0.4302 -0.0581
  182MOL0     H23959   7.716  10.559   7.230 -0.1475  0.3424 -1.6242
  182MOL0     H23960   7.542  10.679   7.099 -0.2824  0.1159  0.0447
  182MOL0     H23961   7.163  10.668   7.037 -0.3103  0.3762 -0.5109
  182MOL0     H23962   7.326  10.602   7.049 -0.2311 -0.0193  0.1550
  182MOL0     H23963   7.395  10.839   6.960 -0.1185  1.9797 -5.4396
  182MOL0     H23964   7.225  10.889   6.971 -0.9836 -1.2857 -0.9865
  182MOL0     H23965   7.174  10.725   6.788 -0.1301 -0.8012 -0.2365
  182MOL0     H23966   7.350  10.678   6.788 -0.3100  0.6345 -0.2184
  182MOL0     H23967   7.249  10.851   6.617 -0.3344  2.4473 -0.5657
  182MOL0     H23968   7.247  10.961   6.757 -2.0457 -1.7237 -0.5211
  182MOL0     H23969   7.488  10.835   6.624  1.1954 -1.6453  2.8317
  182MOL0     H23970   7.494  10.902   6.782 -2.1145 -4.4215  0.9722
  182MOL0     H23971   7.463  11.124   6.710  0.3850  1.1833 -1.2235
  182MOL0     H23972   7.389  11.079   6.555  0.9905 -1.1548 -2.4732
  182MOL0     H23973   7.692  11.047   6.636 -0.6268 -2.4318  1.6923
  182MOL0     H23974   7.622  10.967   6.500  2.3626 -1.0409  2.3602
  182MOL0     H23975   7.569  11.172   6.388 -1.3035  0.2343  0.4301
  182MOL0     H23976   7.742  11.188   6.448 -0.6776  0.7486 -0.8119
  182MOL0     H23977   7.766  11.382   6.619 -1.1497 -0.7577  0.0649
  182MOL0     H23978   7.685  11.567   6.839 -0.5335 -0.4310  0.7448
  182MOL0     H23979   7.518  11.596   6.849 -1.8561  1.2005 -2.6887
  182MOL0     H23980   7.505  11.739   6.660 -0.2436 -0.4595  1.5312
  182MOL0     H23981   7.680  11.704   6.620  0.7241  0.1652  0.6450
  182MOL0     H23982   7.584  11.865   6.858  2.5269  0.9356  2.8637
  182MOL0     H23983   7.737  11.788   6.844 -0.2656  1.5540  0.3463
  182MOL0     H23984   7.760  11.897   6.612 -0.5984  1.1309 -0.8977
  182MOL0     H23985   7.784  12.006   6.744 -0.6641  0.4239  0.9935
  182MOL0     H23986   7.801  12.112   6.539 -0.3088 -1.1117 -0.1917
  182MOL0     H23987   7.805  12.209   6.320  0.6915  1.5902 -0.5456
  182MOL0     H23988   7.546  12.232   5.883  3.9256  0.2362 -3.0988
  182MOL0     H23989   7.541  12.384   5.666  2.3078  2.1103  1.4887
  182MOL0     H23990   7.414  12.792   5.538  0.5603  0.3751  0.3840
  182MOL0     H23991   7.433  12.807   5.711 -2.1114  0.9943  1.5260
  182MOL0     H23992   7.233  12.652   5.731  3.6318  1.0451  2.7065
  182MOL0     H23993   7.194  12.679   5.562  2.3767 -1.4443 -0.6141
  182MOL0     H23994   7.188  12.927   5.596 -0.9542 -0.7690 -0.6893
  182MOL0     H23995   7.208  12.902   5.767  2.8875 -1.1118  0.3043
  182MOL0     H23996   6.962  12.753   5.723 -1.5694 -1.9605 -3.3391
  182MOL0     H23997   6.967  12.931   5.736 -1.3682 -1.4626  0.1924
  182MOL0     H23998   6.992  12.754   5.496  2.8026  1.4611  0.5474
  182MOL0     H23999   6.976  12.932   5.481 -1.2006  1.1759  0.5713
  182MOL0     H24000   6.753  12.929   5.580 -3.1599 -2.6212  2.8824
  182MOL0     H24001   6.746  12.760   5.575 -1.7008  1.4722  2.7790
  182MOL0     H24002   6.805  12.910   5.309 -2.0986  0.3496 -0.3422
  182MOL0     H24003   6.747  12.745   5.335 -2.6743  0.2665 -1.6000
  182MOL0     H24004   6.590  12.988   5.427  0.2853  0.9732 -1.9468
  182MOL0     H24005   6.550  12.810   5.412  0.5455 -1.6792 -1.7705
  182MOL0     H24006   7.368  12.688   5.910 -1.5547  0.1461 -1.4723
  182MOL0     H24007   7.385  12.546   6.106 -0.3555 -1.8786 -0.0456
  182MOL0     H24008   7.379  12.192   6.307 -0.1285 -1.2525  0.1130
  182MOL0     H24009   7.377  12.071   6.531 -0.1410 -2.0929 -1.0432
  182MOL0     H24010   7.280  10.692   7.439 -1.4994  1.5990 -1.7649
  182MOL0     H24011   7.448  10.585   7.570 -1.3899 -2.1601 -0.8114
  182MOL0     H24012   7.946  10.233   7.315  0.8135 -2.0810  0.0991
  182MOL0     H24013   8.173  10.182   7.424  1.1970  2.4061  0.7452
  182MOL0     H24014   8.195  10.246   7.825  0.3877 -1.2567 -0.8066
  182MOL0     H24015   8.318  10.370   7.791 -2.7395  1.1936 -0.1625
  182MOL0     H24016   8.367  10.072   7.795 -0.5128 -0.1241  2.9184
  182MOL0     H24017   8.490  10.191   7.744  0.2165 -1.4225  0.6256
  182MOL0     H24018   8.347  10.152   8.011 -0.2029  0.3222 -1.3324
  182MOL0     H24019   8.463  10.292   7.986 -0.6972  0.5610 -0.4595
  182MOL0     H24020   8.540   9.998   7.972  0.7996  0.1580 -4.7934
  182MOL0     H24021   8.628  10.132   7.908 -0.3405  0.1716 -0.0311
  182MOL0     H24022   8.651  10.194   8.349  0.3628  1.3531 -0.6862
  182MOL0     H24023   8.063  10.465   7.734 -1.9267  1.2699 -0.6198
  182MOL0     H24024   7.852  10.476   7.647 -1.9853 -2.7379  1.9307
  183MOL0     O24025   1.048   8.769   4.047 -0.4416  0.3012  0.7651
  183MOL0     C24026   1.050   8.887   4.074  0.7710 -0.3919 -0.7455
  183MOL0     O24027   0.945   8.967   4.047 -0.3209 -0.7060  0.4281
  183MOL0     C24028   0.828   8.904   4.001  0.9678 -0.0317 -0.5059
  183MOL0     C24029   0.805   8.888   3.873 -0.4056  0.6680  0.0941
  183MOL0     C24030   0.692   8.820   3.826  0.2259 -0.1244  0.2136
  183MOL0     C24031   0.607   8.759   3.920 -0.4578  0.6389  0.7054
  183MOL0     O24032   0.496   8.691   3.869 -1.0127  0.1585 -0.0258
  183MOL0     C24033   0.417   8.629   3.975  0.4992 -0.2052  1.0454
  183MOL0     C24034   0.297   8.567   3.901  0.0438 -0.2114 -0.4646
  183MOL0     C24035   0.203   8.521   4.019 -0.2140  1.0276 -0.0738
  183MOL0     C24036   0.083   8.439   3.956 -0.3900  0.5113  0.5257
  183MOL0     C24037   0.044   8.319   4.050  0.2600  0.4829  0.3545
  183MOL0     C24038  -0.081   8.240   4.008 -0.0962 -0.2912 -0.9677
  183MOL0     C24039  -0.071   8.082   3.998  0.6618 -0.7486 -0.3922
  183MOL0     C24040   0.065   8.020   3.943  0.0841 -1.2577  0.6300
  183MOL0     N24041   0.111   8.062   3.801  0.1828  0.3442 -0.1914
  183MOL0     C24042   0.231   8.097   3.748  0.4931  0.2291 -0.3320
  183MOL0     C24043   0.222   8.100   3.616  0.4418 -0.6406 -0.0761
  183MOL0     C24044   0.329   8.139   3.523 -0.3131  0.3017  0.3710
  183MOL0     C24045   0.309   8.071   3.387 -0.8409  0.7619 -0.0650
  183MOL0     C24046   0.363   7.932   3.373  0.1846  0.1449  0.5403
  183MOL0     C24047   0.493   7.905   3.439  0.1681  0.0355  0.2281
  183MOL0     O24048   0.538   7.771   3.405  0.2091  0.1628 -0.5584
  183MOL0     C24049   0.661   7.736   3.459  0.6288  0.3087 -0.6791
  183MOL0     C24050   0.775   7.810   3.440  0.9386 -0.1421  0.3176
  183MOL0     C24051   0.899   7.779   3.494  0.3498 -0.3952 -0.9068
  183MOL0     C24052   0.908   7.671   3.582 -0.5675  0.3327  0.0494
  183MOL0     C24053   1.030   7.638   3.662  0.8381 -0.3723 -0.1476
  183MOL0     O24054   1.006   7.522   3.744  0.0677 -0.2697  0.0787
  183MOL0     C24055   1.088   7.507   3.848  0.6321 -0.6207  0.4267
  183MOL0     C24056   1.129   7.376   3.876 -0.4533 -0.4955 -0.1760
  183MOL0     C24057   1.207   7.357   3.996 -0.7500  0.1066 -0.0135
  183MOL0     C24058   1.238   7.468   4.081  0.1387  0.5977 -0.3305
  183MOL0     O24059   1.336   7.440   4.174  1.5083  0.1294 -0.0195
  183MOL0     C24060   1.414   7.555   4.213 -0.6883 -0.1946  0.0155
  183MOL0     C24061   1.514   7.529   4.328  0.9445  0.4902  0.3207
  183MOL0     C24062   1.577   7.381   4.336  0.4652  0.0261  0.2415
  183MOL0     C24063   1.615   7.350   4.482  0.3452 -0.1434  0.6629
  183MOL0     C24064   1.734   7.442   4.529  0.1166 -0.2891 -0.5707
  183MOL0     C24065   1.862   7.416   4.452  0.1088  0.0078  0.0543
  183MOL0     C24066   1.964   7.533   4.479 -0.6921 -0.8190  0.0855
  183MOL0     C24067   2.114   7.469   4.483  0.3718  0.0776 -0.4430
  183MOL0    Cl24068   2.148   7.427   4.321 -0.0894  0.4082  0.6070
  183MOL0     C24069   1.186   7.594   4.049 -0.3588 -0.3357  1.1554
  183MOL0     C24070   1.102   7.607   3.936  0.3825 -0.5692 -0.0744
  183MOL0     O24071   1.138   7.701   3.645  0.3274  0.5578  0.2020
  183MOL0     C24072   0.798   7.583   3.582  0.4390  0.4851 -0.9732
  183MOL0     C24073   0.675   7.607   3.523  0.6514  0.6435 -0.3605
  183MOL0     N24074   0.093   8.064   3.586 -0.1135 -0.1432  0.0122
  183MOL0     N24075   0.021   8.047   3.692 -0.3332  0.4425  0.0258
  183MOL0     C24076   0.638   8.767   4.053  1.0748 -1.0296 -0.5491
  183MOL0     C24077   0.751   8.832   4.095  0.0479  0.2815 -0.1932
  183MOL0     C24078   1.177   8.950   4.116 -0.3381  0.6199 -0.3159
  183MOL0     C24079   1.175   9.080   4.171  0.1988 -0.1480  0.2308
  183MOL0     C24080   1.303   9.138   4.210  0.9360 -0.3024 -0.0751
  183MOL0     C24081   1.429   9.078   4.189 -0.1835 -0.3332  0.2558
  183MOL0     O24082   1.555   9.127   4.224  0.3275  0.6568 -0.1775
  183MOL0     C24083   1.584   9.260   4.254  0.4738 -0.2268 -0.2714
  183MOL0     C24084   1.721   9.294   4.331 -0.7496  0.2853 -0.8484
  183MOL0     C24085   1.727   9.224   4.473  0.9747  0.1931 -0.2152
  183MOL0     C24086   1.864   9.214   4.548  0.1698  0.4402  0.1325
  183MOL0     C24087   1.842   9.098   4.641 -0.2826 -0.1558 -0.3987
  183MOL0     C24088   1.816   9.011   4.716  1.4552 -0.1202 -1.0196
  183MOL0     C24089   1.418   8.949   4.140  0.2317 -0.0031  0.3034
  183MOL0     C24090   1.303   8.886   4.099 -0.6215 -0.3804  1.2759
  183MOL0     H24091   0.872   8.929   3.798 -0.2816 -2.2741 -1.5401
  183MOL0     H24092   0.668   8.800   3.722 -0.6211  0.3794  0.3049
  183MOL0     H24093   0.383   8.702   4.048 -0.4369 -0.0849  0.5034
  183MOL0     H24094   0.460   8.537   4.015 -2.7940 -1.5030  1.9571
  183MOL0     H24095   0.340   8.487   3.840  0.3121 -0.0870 -0.4413
  183MOL0     H24096   0.252   8.638   3.830  0.6733 -0.0486 -0.7118
  183MOL0     H24097   0.162   8.613   4.062 -1.0930 -0.2714  2.0499
  183MOL0     H24098   0.261   8.462   4.092 -0.9628 -0.1104 -0.3787
  183MOL0     H24099  -0.003   8.503   3.932 -0.4127  0.5682  0.7583
  183MOL0     H24100   0.120   8.404   3.860  0.0696  0.1846  0.8176
  183MOL0     H24101   0.030   8.346   4.155 -2.1984  1.6587 -0.1935
  183MOL0     H24102   0.131   8.253   4.036 -0.8692 -0.6599 -1.8430
  183MOL0     H24103  -0.108   8.284   3.911  2.0365  1.5078 -0.8242
  183MOL0     H24104  -0.152   8.274   4.084  0.9256 -0.7909  0.2497
  183MOL0     H24105  -0.077   8.052   4.103 -0.1642  0.2923 -0.1203
  183MOL0     H24106  -0.157   8.044   3.942  1.4566 -0.2343 -2.0198
  183MOL0     H24107   0.061   7.911   3.939  1.4287 -1.3422  1.0264
  183MOL0     H24108   0.137   8.044   4.022 -2.2445 -0.7514  2.7619
  183MOL0     H24109   0.327   8.117   3.793  0.5964  2.1267 -1.3027
  183MOL0     H24110   0.428   8.116   3.563  0.8412  2.5787 -0.9703
  183MOL0     H24111   0.304   8.245   3.512 -4.7545 -0.5528  0.3105
  183MOL0     H24112   0.365   8.133   3.316  1.4529 -0.5089  0.5211
  183MOL0     H24113   0.207   8.073   3.349 -0.5346  1.9336 -0.9040
  183MOL0     H24114   0.288   7.866   3.416 -1.2233  0.0936 -1.8554
  183MOL0     H24115   0.361   7.901   3.268  2.4816  0.2959  0.4036
  183MOL0     H24116   0.497   7.918   3.547 -1.8937  0.1105  0.3340
  183MOL0     H24117   0.559   7.987   3.410 -0.1780  1.3974  2.9422
  183MOL0     H24118   0.773   7.899   3.379  0.2854  1.1064  2.0883
  183MOL0     H24119   0.985   7.845   3.490 -1.0281  1.7109  1.3304
  183MOL0     H24120   1.128   7.297   3.801  0.0318  0.3145 -1.0491
  183MOL0     H24121   1.260   7.265   4.014  1.8393  1.2432 -1.3041
  183MOL0     H24122   1.349   7.631   4.256 -1.0229  0.2253 -1.1799
  183MOL0     H24123   1.474   7.586   4.127  0.2287  0.8640  1.0076
  183MOL0     H24124   1.467   7.562   4.421 -0.3794 -2.9655  1.0284
  183MOL0     H24125   1.608   7.586   4.320  2.4992 -1.6057  2.3255
  183MOL0     H24126   1.665   7.368   4.272  0.6974  2.0098  0.1034
  183MOL0     H24127   1.506   7.301   4.313  2.2321 -1.5320 -0.1212
  183MOL0     H24128   1.530   7.380   4.544  0.1901  0.4247  0.1889
  183MOL0     H24129   1.627   7.242   4.497 -2.6456 -0.8797 -1.2613
  183MOL0     H24130   1.758   7.430   4.635 -0.4765  0.8622 -0.2867
  183MOL0     H24131   1.715   7.546   4.501 -0.4146 -0.5870 -1.3335
  183MOL0     H24132   1.853   7.411   4.343 -1.7708 -2.1591  0.2053
  183MOL0     H24133   1.892   7.317   4.488 -0.0028  0.2978  0.9787
  183MOL0     H24134   1.957   7.611   4.403 -1.5490 -0.5770  0.3996
  183MOL0     H24135   1.943   7.583   4.574  1.2452  0.2973 -0.0128
  183MOL0     H24136   2.121   7.384   4.551  0.8101 -0.4087 -1.0844
  183MOL0     H24137   2.183   7.547   4.516 -0.5606  0.8839 -0.3450
  183MOL0     H24138   1.197   7.685   4.107  0.3865  1.0045 -0.9666
  183MOL0     H24139   1.054   7.701   3.908  1.5870 -0.5394 -2.2956
  183MOL0     H24140   0.809   7.489   3.635  0.4058  2.4105  2.7793
  183MOL0     H24141   0.590   7.541   3.520  2.7041 -2.1180 -1.4188
  183MOL0     H24142   0.570   8.724   4.126  1.7699 -3.3901 -1.2229
  183MOL0     H24143   0.784   8.830   4.198  1.4705  0.8978 -0.6109
  183MOL0     H24144   1.077   9.122   4.185 -0.5289 -1.0798 -1.6254
  183MOL0     H24145   1.299   9.235   4.259  2.0052  0.0157 -0.5679
  183MOL0     H24146   1.518   9.298   4.332  0.7667 -0.6231  0.1759
  183MOL0     H24147   1.583   9.320   4.162  3.3390  0.9824  0.3624
  183MOL0     H24148   1.802   9.262   4.265 -0.9846 -1.4427 -0.3435
  183MOL0     H24149   1.722   9.402   4.348 -2.5240  0.2931 -0.6517
  183MOL0     H24150   1.693   9.122   4.456 -0.6828  1.0159 -2.3347
  183MOL0     H24151   1.663   9.281   4.541 -1.6362 -1.1394 -1.4122
  183MOL0     H24152   1.944   9.192   4.477  0.4294 -2.0223  1.0831
  183MOL0     H24153   1.882   9.307   4.602 -1.9476  0.5667  0.7259
  183MOL0     H24154   1.806   8.920   4.772 -0.3600 -0.2098 -1.4298
  183MOL0     H24155   1.509   8.892   4.122 -2.0645 -4.1903  0.6846
  183MOL0     H24156   1.293   8.787   4.056  2.0752  0.4546 -1.5926
  184MOL0     O24157   0.425   3.063  11.198  0.3278 -1.2859  0.3532
  184MOL0     C24158   0.328   3.124  11.243 -0.7288  0.2712  0.6103
  184MOL0     O24159   0.319   3.254  11.249  0.0022 -0.6028 -0.1226
  184MOL0     C24160   0.410   3.337  11.192  0.6738 -0.4077 -0.6127
  184MOL0     C24161   0.488   3.325  11.081 -0.0884  0.5129 -1.0334
  184MOL0     C24162   0.580   3.422  11.042 -0.3113  0.3079  0.7913
  184MOL0     C24163   0.609   3.536  11.123 -0.0054 -0.9483  0.0588
  184MOL0     O24164   0.694   3.639  11.095 -0.6027  0.6614  0.2791
  184MOL0     C24165   0.748   3.634  10.965 -0.0550  0.4113 -0.6201
  184MOL0     C24166   0.847   3.754  10.963 -0.5618  0.4195  0.3109
  184MOL0     C24167   0.868   3.802  10.820 -0.3243  0.3100 -0.2259
  184MOL0     C24168   0.959   3.929  10.813 -0.9176  0.8193  0.0789
  184MOL0     C24169   0.946   4.007  10.679 -0.0481  1.1235  0.5079
  184MOL0     C24170   0.926   3.938  10.546 -0.3385 -1.2341 -0.3740
  184MOL0     C24171   1.037   3.843  10.513 -1.3332  0.0621  0.8719
  184MOL0     C24172   1.035   3.802  10.364  0.6941 -0.2320 -0.1424
  184MOL0     N24173   1.078   3.912  10.281 -0.7512  0.2105 -0.9364
  184MOL0     C24174   1.206   3.950  10.269 -0.2006  0.4226 -0.1004
  184MOL0     C24175   1.200   4.072  10.204  0.0292 -0.4632  1.2529
  184MOL0     C24176   1.303   4.185  10.183 -0.1355  0.5711  1.1604
  184MOL0     C24177   1.255   4.326  10.230 -0.8546 -0.2771 -0.1895
  184MOL0     C24178   1.190   4.323  10.377 -0.3860 -1.0903 -0.3099
  184MOL0     C24179   1.213   4.467  10.440  0.1211 -0.0293 -0.9628
  184MOL0     O24180   1.148   4.468  10.563  0.6101 -0.0838 -0.0168
  184MOL0     C24181   1.219   4.432  10.675  0.6099  0.3563 -0.0641
  184MOL0     C24182   1.356   4.416  10.672  0.2026 -0.5238 -0.1735
  184MOL0     C24183   1.421   4.377  10.793 -0.2123 -0.3887  0.5973
  184MOL0     C24184   1.358   4.352  10.912  0.7305 -0.4088  0.9613
  184MOL0     C24185   1.420   4.290  11.027 -0.7645 -0.2692  0.2756
  184MOL0     O24186   1.345   4.248  11.137  0.0017 -0.5554  0.1180
  184MOL0     C24187   1.404   4.175  11.241  0.5221 -0.7737  1.0211
  184MOL0     C24188   1.537   4.141  11.257 -0.9377 -0.1057 -0.9771
  184MOL0     C24189   1.577   4.057  11.369 -1.5860 -0.5034  0.6929
  184MOL0     C24190   1.482   4.017  11.460 -0.1247 -0.1304 -0.2644
  184MOL0     O24191   1.493   3.940  11.565  0.0119  0.3552  0.0653
  184MOL0     C24192   1.586   3.830  11.556  0.2075  0.3294  0.3488
  184MOL0     C24193   1.614   3.800  11.700  0.8295  0.3455  0.5423
  184MOL0     C24194   1.742   3.858  11.758 -0.8521 -0.0812  0.6690
  184MOL0     C24195   1.713   4.001  11.803  0.4741  0.5246 -0.0806
  184MOL0     C24196   1.849   4.063  11.852 -0.1272 -0.4896 -0.7037
  184MOL0     C24197   1.941   3.977  11.937 -0.4518 -0.7167 -0.0821
  184MOL0     C24198   2.071   4.051  11.959  0.3480 -0.2125  1.0181
  184MOL0     C24199   2.188   3.973  12.022 -0.6954 -0.5900  0.5445
  184MOL0    Cl24200   2.287   3.874  11.892  0.3595 -0.6830  0.2748
  184MOL0     C24201   1.356   4.044  11.436  0.1041 -0.1246  0.2565
  184MOL0     C24202   1.309   4.121  11.326 -0.1034  0.0482 -0.1311
  184MOL0     O24203   1.544   4.281  11.020 -0.3408 -0.8801  0.0526
  184MOL0     C24204   1.216   4.362  10.908 -0.3344  0.8645 -0.3401
  184MOL0     C24205   1.149   4.412  10.794 -1.2204 -0.1059  0.5463
  184MOL0     N24206   1.065   4.084  10.158 -0.4895 -0.3622  0.2786
  184MOL0     N24207   1.000   3.984  10.192  0.5791 -0.1135 -0.4836
  184MOL0     C24208   0.527   3.553  11.235  0.5358  0.1928  0.2375
  184MOL0     C24209   0.431   3.461  11.268  0.9448 -0.0565  0.0126
  184MOL0     C24210   0.225   3.046  11.313 -0.7338  0.0435  0.5942
  184MOL0     C24211   0.148   3.113  11.411 -1.6825  0.2152 -0.1942
  184MOL0     C24212   0.036   3.046  11.464  0.0081 -0.1336 -0.2536
  184MOL0     C24213   0.004   2.907  11.432  0.6185 -0.1516  0.7393
  184MOL0     O24214  -0.100   2.849  11.489 -0.1574  0.6790  0.3453
  184MOL0     C24215  -0.224   2.903  11.481  0.4880  0.3006  0.0040
  184MOL0     C24216  -0.256   2.964  11.340 -0.3172  0.0630  0.7479
  184MOL0     C24217  -0.405   3.007  11.354 -0.7770 -0.1642 -0.1190
  184MOL0     C24218  -0.443   3.117  11.255 -0.4475 -0.6879 -0.1738
  184MOL0     C24219  -0.471   3.055  11.129 -0.7657 -0.4187 -0.2504
  184MOL0     C24220  -0.475   3.015  11.009  0.6746 -0.1568  0.3799
  184MOL0     C24221   0.087   2.838  11.345  0.1513  0.5378  0.6167
  184MOL0     C24222   0.202   2.910  11.287 -0.0634 -0.5802  0.4396
  184MOL0     H24223   0.466   3.233  11.027 -1.5887 -0.7003  1.4554
  184MOL0     H24224   0.632   3.397  10.950 -1.4206 -3.0955  0.9697
  184MOL0     H24225   0.668   3.647  10.891  1.2119  0.3503 -2.0582
  184MOL0     H24226   0.803   3.542  10.940 -2.9374 -0.8256 -3.1376
  184MOL0     H24227   0.930   3.712  11.021 -1.5611 -3.9888 -1.0802
  184MOL0     H24228   0.817   3.833  11.032  5.1171  0.2846  3.5114
  184MOL0     H24229   0.770   3.825  10.778 -0.0872  1.4953 -0.1624
  184MOL0     H24230   0.912   3.726  10.755  2.3961  1.1971  0.4468
  184MOL0     H24231   0.919   4.003  10.883 -2.1040  0.8666 -0.6238
  184MOL0     H24232   1.063   3.903  10.835 -0.7760  0.1883 -1.1910
  184MOL0     H24233   1.029   4.079  10.680  0.3465  0.7299 -1.0958
  184MOL0     H24234   0.851   4.057  10.698 -0.3475  0.3244  1.1807
  184MOL0     H24235   0.900   4.007  10.465  0.7975  0.5223  0.7157
  184MOL0     H24236   0.836   3.876  10.558 -0.7222 -0.7107 -0.5068
  184MOL0     H24237   1.134   3.890  10.536 -0.6893 -1.7413  2.0917
  184MOL0     H24238   1.041   3.754  10.578 -0.0770 -0.9832 -0.5639
  184MOL0     H24239   0.934   3.774  10.333  1.8413 -3.5763 -1.2598
  184MOL0     H24240   1.091   3.711  10.346  1.1950 -0.1615  0.9364
  184MOL0     H24241   1.296   3.902  10.309 -0.8924 -0.5522  0.3247
  184MOL0     H24242   1.327   4.179  10.076 -0.0677  1.6683  1.1026
  184MOL0     H24243   1.397   4.171  10.238 -0.4289  1.8776  2.0241
  184MOL0     H24244   1.178   4.367  10.163 -1.6098  0.5345  1.1269
  184MOL0     H24245   1.336   4.400  10.230  0.3345 -1.4903  1.9227
  184MOL0     H24246   1.086   4.291  10.363  0.6511 -5.6809  0.6301
  184MOL0     H24247   1.232   4.243  10.440  2.2841 -1.8120 -2.7902
  184MOL0     H24248   1.158   4.536  10.375 -1.1309  0.6714  0.7367
  184MOL0     H24249   1.319   4.490  10.434  0.2825 -0.6276 -0.5072
  184MOL0     H24250   1.428   4.436  10.594  2.7692  0.7898  2.3493
  184MOL0     H24251   1.529   4.373  10.796 -0.0737  1.8675  0.7532
  184MOL0     H24252   1.617   4.188  11.201 -1.9269  1.7357 -0.9246
  184MOL0     H24253   1.684   4.047  11.375 -1.6755 -0.8530  1.9309
  184MOL0     H24254   1.678   3.862  11.507 -0.6617  2.2153 -0.1524
  184MOL0     H24255   1.548   3.739  11.508 -2.3050  2.5669 -2.3178
  184MOL0     H24256   1.637   3.693  11.694  1.0553  0.2334  2.8353
  184MOL0     H24257   1.523   3.822  11.756  0.7128 -0.7640  0.8021
  184MOL0     H24258   1.830   3.851  11.694  0.1699 -1.7476  2.1720
  184MOL0     H24259   1.769   3.796  11.843 -1.9686 -0.6175  0.6485
  184MOL0     H24260   1.678   4.058  11.717 -2.0971  0.8038  1.0725
  184MOL0     H24261   1.634   3.997  11.879 -0.2041 -0.6123 -0.8131
  184MOL0     H24262   1.837   4.155  11.910  1.2351  0.6179 -2.1106
  184MOL0     H24263   1.896   4.093  11.758 -0.0927  1.7559 -0.0367
  184MOL0     H24264   1.967   3.879  11.896  3.3500 -0.3237  1.0024
  184MOL0     H24265   1.887   3.954  12.029  0.0674  4.1571  1.7463
  184MOL0     H24266   2.109   4.094  11.866  2.3427 -1.1796  1.3330
  184MOL0     H24267   2.043   4.131  12.029 -2.1201 -0.3653  0.2943
  184MOL0     H24268   2.141   3.910  12.098 -4.1358  0.6926 -0.2944
  184MOL0     H24269   2.254   4.051  12.059  0.8045 -1.6034  0.0937
  184MOL0     H24270   1.284   4.002  11.506  0.2745 -0.1480  0.4164
  184MOL0     H24271   1.205   4.140  11.302 -0.6616 -2.6461 -0.2349
  184MOL0     H24272   1.163   4.382  11.001  1.9022  1.1291  0.9618
  184MOL0     H24273   1.048   4.452  10.797 -1.6600 -1.0704 -0.6471
  184MOL0     H24274   0.570   3.636  11.290  5.2888 -0.4995 -1.9509
  184MOL0     H24275   0.364   3.482  11.351 -1.1828 -1.0766 -1.3738
  184MOL0     H24276   0.165   3.217  11.439 -3.4458 -0.5742  4.6089
  184MOL0     H24277  -0.043   3.093  11.521  0.3917 -0.0066  0.1821
  184MOL0     H24278  -0.235   2.975  11.563  2.3236  1.3334 -0.5899
  184MOL0     H24279  -0.292   2.821  11.506  4.3871 -2.4628  2.6694
  184MOL0     H24280  -0.202   3.056  11.317 -2.1125  0.9502 -0.1297
  184MOL0     H24281  -0.234   2.890  11.261 -0.3748 -1.1588  1.8460
  184MOL0     H24282  -0.435   3.039  11.454  0.3922 -0.6153  0.3988
  184MOL0     H24283  -0.462   2.917  11.327  0.7457 -1.3829  0.5486
  184MOL0     H24284  -0.539   3.164  11.280 -0.4739  0.5290 -2.2867
  184MOL0     H24285  -0.361   3.189  11.246 -2.5765  1.7817 -1.1802
  184MOL0     H24286  -0.496   3.006  10.904  4.4076  1.8169 -0.6861
  184MOL0     H24287   0.078   2.732  11.324  2.1900  0.7885 -2.2101
  184MOL0     H24288   0.279   2.862  11.228  0.9109 -0.0334  1.2220
  185MOL0     O24289   0.104   0.668   9.478 -0.2430 -1.2160  0.2269
  185MOL0     C24290   0.099   0.660   9.604  0.4216  0.3994 -0.2779
  185MOL0     O24291   0.152   0.745   9.695 -0.1672  0.1774 -0.4384
  185MOL0     C24292   0.216   0.849   9.643  0.8442 -0.2547 -0.2598
  185MOL0     C24293   0.141   0.966   9.608 -0.2194 -0.5273  0.0383
  185MOL0     C24294   0.204   1.086   9.554 -0.2983  0.6473 -0.1452
  185MOL0     C24295   0.341   1.083   9.533  0.1540 -0.4526 -0.0918
  185MOL0     O24296   0.419   1.178   9.481  0.7148  0.4490 -0.0623
  185MOL0     C24297   0.467   1.255   9.584 -0.1141  1.1413  0.8672
  185MOL0     C24298   0.493   1.403   9.540  0.3436  0.6469 -0.6381
  185MOL0     C24299   0.365   1.468   9.495  0.1578 -0.9472  0.1416
  185MOL0     C24300   0.391   1.612   9.433  0.1101 -0.4819 -0.2208
  185MOL0     C24301   0.268   1.660   9.366 -0.5027 -0.2257  0.6803
  185MOL0     C24302   0.152   1.691   9.458  1.0933  0.0451 -0.5161
  185MOL0     C24303   0.059   1.786   9.381 -0.0395  0.5893  0.2895
  185MOL0     C24304  -0.053   1.839   9.467  0.7506  0.5002 -0.7073
  185MOL0     N24305  -0.002   1.925   9.577 -0.3541  0.0419  0.5641
  185MOL0     C24306  -0.041   1.914   9.711  0.6067 -0.1502  0.8870
  185MOL0     C24307   0.002   2.033   9.768  0.1603  0.5672 -1.0182
  185MOL0     C24308  -0.020   2.075   9.917  0.8100  0.2185  0.2086
  185MOL0     C24309  -0.162   2.122   9.941 -1.0186  0.5985  0.4964
  185MOL0     C24310  -0.259   2.008   9.963  0.3865  1.7505 -0.0882
  185MOL0     C24311  -0.408   2.061   9.953  0.5329  0.2447 -0.0717
  185MOL0     O24312  -0.485   1.958  10.014 -0.2168  0.4247  1.4809
  185MOL0     C24313  -0.618   1.990  10.028 -0.6270  0.2564  0.3859
  185MOL0     C24314  -0.681   2.117  10.022 -0.3081 -0.4495  0.2347
  185MOL0     C24315  -0.821   2.117  10.022 -0.4227 -0.4456 -0.2417
  185MOL0     C24316  -0.897   2.008  10.058  0.1894  0.4135  0.0757
  185MOL0     C24317  -1.046   2.020  10.076 -0.4285 -0.0301 -0.3264
  185MOL0     O24318  -1.122   1.909  10.097  0.0855  0.5081  0.4402
  185MOL0     C24319  -1.252   1.926  10.121  0.6736  1.1067  0.4742
  185MOL0     C24320  -1.342   1.908  10.020  0.7345  0.4489 -0.2125
  185MOL0     C24321  -1.483   1.930  10.053  0.0937 -0.0663 -0.2072
  185MOL0     C24322  -1.522   1.953  10.183  0.3766 -0.0185  0.1230
  185MOL0     O24323  -1.653   1.957  10.212  0.5199 -0.2455 -0.3729
  185MOL0     C24324  -1.706   2.030  10.328 -0.0569 -0.0394 -0.1889
  185MOL0     C24325  -1.855   2.060  10.329  0.7192  0.2888  0.5963
  185MOL0     C24326  -1.883   2.149  10.447  0.4807 -0.3961 -0.2830
  185MOL0     C24327  -2.030   2.199  10.424 -0.0691 -0.1666  0.5261
  185MOL0     C24328  -2.054   2.299  10.537  0.6754  0.1584 -0.9212
  185MOL0     C24329  -2.174   2.398  10.504 -0.0327 -0.1501  1.4089
  185MOL0     C24330  -2.221   2.462  10.633  0.5703 -1.3783  0.4754
  185MOL0     C24331  -2.300   2.375  10.733  0.2932  0.5851  1.0999
  185MOL0    Cl24332  -2.434   2.309  10.643 -0.3754 -0.1909 -0.2524
  185MOL0     C24333  -1.426   1.978  10.280  0.1978  0.4870 -0.2230
  185MOL0     C24334  -1.291   1.964  10.247 -1.1974 -0.5795  0.3377
  185MOL0     O24335  -1.085   2.134  10.079 -0.0359 -0.7336 -0.3755
  185MOL0     C24336  -0.821   1.888  10.086 -0.3406 -0.3556  0.8561
  185MOL0     C24337  -0.690   1.877  10.073  0.7411 -0.3677  0.3336
  185MOL0     N24338   0.064   2.102   9.676 -1.0151 -0.2364  0.0320
  185MOL0     N24339   0.082   2.029   9.568  0.7247  0.5770 -1.0673
  185MOL0     C24340   0.412   0.961   9.556 -0.0944  0.0053  0.3640
  185MOL0     C24341   0.348   0.853   9.615 -0.0662 -0.1230 -0.8996
  185MOL0     C24342   0.031   0.540   9.647  0.1431 -0.0587  0.5991
  185MOL0     C24343   0.101   0.458   9.741  0.0754  0.4415 -0.7998
  185MOL0     C24344   0.032   0.363   9.819  0.0939 -0.4474  0.0268
  185MOL0     C24345  -0.104   0.336   9.788  0.2071 -0.4229  0.4921
  185MOL0     O24346  -0.166   0.246   9.874 -0.2255 -0.4621 -0.4684
  185MOL0     C24347  -0.295   0.272   9.914  0.5459 -0.6498  0.2421
  185MOL0     C24348  -0.344   0.172  10.015  0.1780  0.4708 -0.1199
  185MOL0     C24349  -0.244   0.128  10.119 -0.1317 -0.4209  0.6050
  185MOL0     C24350  -0.205   0.243  10.206  0.9354  0.1198  0.6664
  185MOL0     C24351  -0.154   0.177  10.334  0.4723 -0.3933 -0.3304
  185MOL0     C24352  -0.104   0.126  10.438 -0.2449 -0.4684  0.7187
  185MOL0     C24353  -0.164   0.402   9.679  1.3841  0.0996  0.5405
  185MOL0     C24354  -0.101   0.501   9.606  0.3328 -0.6257  1.6133
  185MOL0     H24355   0.035   0.963   9.629 -0.0725 -0.3973  0.8283
  185MOL0     H24356   0.169   1.185   9.528  2.5406  1.7507 -0.1085
  185MOL0     H24357   0.564   1.207   9.600 -0.4514 -0.1345 -0.6368
  185MOL0     H24358   0.401   1.257   9.671 -1.7679 -0.4329 -0.2676
  185MOL0     H24359   0.576   1.415   9.469  0.2138  0.6015 -0.7987
  185MOL0     H24360   0.527   1.446   9.635 -1.5929  3.4480 -1.1079
  185MOL0     H24361   0.301   1.483   9.582  1.5961  2.5678  0.7801
  185MOL0     H24362   0.307   1.406   9.427  0.1499 -1.5650  0.7050
  185MOL0     H24363   0.425   1.670   9.519  0.1703  0.7371 -1.0335
  185MOL0     H24364   0.473   1.608   9.361  0.7355  2.1689  0.2429
  185MOL0     H24365   0.242   1.594   9.282  3.4339 -0.5242 -0.5046
  185MOL0     H24366   0.292   1.754   9.316 -3.3040 -0.7743 -2.0982
  185MOL0     H24367   0.181   1.743   9.550 -1.4731  1.3377 -0.3524
  185MOL0     H24368   0.099   1.597   9.477  0.6504  0.5927  1.0862
  185MOL0     H24369   0.116   1.876   9.357 -0.6438  0.7319 -0.6690
  185MOL0     H24370   0.024   1.739   9.289 -0.3442 -0.8078  1.0956
  185MOL0     H24371  -0.117   1.771   9.523 -1.7346  3.3208  0.1766
  185MOL0     H24372  -0.119   1.897   9.402 -0.8399  1.3257  1.5004
  185MOL0     H24373  -0.094   1.834   9.760  1.0005 -1.5825 -0.9170
  185MOL0     H24374   0.039   2.165   9.935 -0.4970  0.9051  1.2739
  185MOL0     H24375   0.008   1.999   9.989  0.0760 -0.6460 -0.3921
  185MOL0     H24376  -0.192   2.181   9.853 -0.4542  1.7718  1.0678
  185MOL0     H24377  -0.161   2.184  10.031 -4.0550 -1.0569  1.8079
  185MOL0     H24378  -0.240   1.926   9.894  2.0870  2.3085 -0.3310
  185MOL0     H24379  -0.238   1.974  10.065 -2.7580  1.8771  0.6896
  185MOL0     H24380  -0.420   2.077   9.846 -0.1431  0.6205  0.0539
  185MOL0     H24381  -0.430   2.155  10.004  0.4518 -0.0622  0.4727
  185MOL0     H24382  -0.627   2.208   9.995 -0.8809 -0.2496 -0.2557
  185MOL0     H24383  -0.868   2.214  10.013  0.8530  0.6165  3.1173
  185MOL0     H24384  -1.311   1.895   9.916  1.0589 -4.6557  0.2832
  185MOL0     H24385  -1.557   1.920   9.974  2.6352 -1.0090 -2.6613
  185MOL0     H24386  -1.663   2.131  10.332 -2.4445  1.3386 -4.0339
  185MOL0     H24387  -1.676   1.973  10.417 -1.1065 -0.3764 -0.0330
  185MOL0     H24388  -1.918   1.974  10.354 -0.7566  1.6603  1.7921
  185MOL0     H24389  -1.877   2.107  10.233  1.3430 -1.2095 -0.3174
  185MOL0     H24390  -1.823   2.241  10.447  2.0597 -1.2489 -3.8915
  185MOL0     H24391  -1.873   2.098  10.542  2.0387  2.6426  1.3362
  185MOL0     H24392  -2.031   2.241  10.323  0.8173 -3.7567 -1.1630
  185MOL0     H24393  -2.093   2.110  10.435  0.4959 -0.7227 -0.5048
  185MOL0     H24394  -1.969   2.360  10.568 -0.1421  1.3385 -0.9204
  185MOL0     H24395  -2.083   2.238  10.623 -0.4006  2.4523  0.4312
  185MOL0     H24396  -2.257   2.346  10.456  0.4441 -2.2989  2.7762
  185MOL0     H24397  -2.132   2.475  10.439 -2.4465 -0.3758 -0.5497
  185MOL0     H24398  -2.136   2.509  10.682 -1.0511  2.8454 -0.3611
  185MOL0     H24399  -2.296   2.538  10.611  3.3324  0.8132 -2.2323
  185MOL0     H24400  -2.321   2.434  10.823 -1.1975  1.2474  0.3585
  185MOL0     H24401  -2.243   2.289  10.767  1.1825 -0.0104 -1.6974
  185MOL0     H24402  -1.455   2.003  10.382 -2.6557  0.4771 -0.9471
  185MOL0     H24403  -1.228   1.996  10.330 -1.6961  1.4758 -0.0028
  185MOL0     H24404  -0.877   1.800  10.117 -0.5374 -1.4405 -2.2160
  185MOL0     H24405  -0.636   1.789  10.106 -0.7005 -0.5218  2.4234
  185MOL0     H24406   0.517   0.956   9.531 -0.8899 -3.0529 -3.3085
  185MOL0     H24407   0.412   0.770   9.644  0.0759  0.4004  0.3538
  185MOL0     H24408   0.207   0.468   9.764 -0.0051 -1.1618  0.4755
  185MOL0     H24409   0.078   0.312   9.903 -2.1963  2.4801  3.3415
  185MOL0     H24410  -0.367   0.266   9.832 -0.4171 -2.1343  1.1564
  185MOL0     H24411  -0.292   0.367   9.967 -0.6479 -1.1550  1.2635
  185MOL0     H24412  -0.426   0.207  10.078  1.1158  0.9446  0.8613
  185MOL0     H24413  -0.371   0.090   9.947 -1.8156  1.9324 -1.1812
  185MOL0     H24414  -0.157   0.075  10.080  0.9446  2.8769 -1.8919
  185MOL0     H24415  -0.299   0.050  10.173 -1.7591 -0.2677 -0.7553
  185MOL0     H24416  -0.123   0.292  10.153  1.8539 -3.1562 -1.2212
  185MOL0     H24417  -0.288   0.313  10.219  1.8308  1.5802 -1.0556
  185MOL0     H24418  -0.053   0.089  10.525 -0.2206  2.7434  2.1961
  185MOL0     H24419  -0.265   0.379   9.647  1.8645  1.5929 -2.4982
  185MOL0     H24420  -0.163   0.564   9.544 -1.4609 -2.9238  0.9258
  186MOL0     O24421   5.463   5.731   0.354 -0.2437  0.0612 -0.0078
  186MOL0     C24422   5.387   5.825   0.352  0.3695 -0.9030  1.2486
  186MOL0     O24423   5.255   5.823   0.307 -0.3670  1.1089 -0.0436
  186MOL0     C24424   5.192   5.715   0.251  0.5567 -0.2099 -1.5441
  186MOL0     C24425   5.054   5.713   0.268 -0.4217  0.3321 -0.3895
  186MOL0     C24426   4.992   5.599   0.217 -1.1165 -0.1577  0.0617
  186MOL0     C24427   5.049   5.505   0.136  1.3220  0.8688 -0.8616
  186MOL0     O24428   4.993   5.405   0.064  0.1257 -0.0175 -0.1839
  186MOL0     C24429   4.853   5.433   0.014 -0.3562 -0.7715 -0.1769
  186MOL0     C24430   4.830   5.345  -0.104  0.5507 -0.1475 -0.0282
  186MOL0     C24431   4.688   5.308  -0.148 -0.6965 -0.0318  0.0476
  186MOL0     C24432   4.591   5.416  -0.183 -0.2895 -0.8738  0.5258
  186MOL0     C24433   4.451   5.423  -0.125 -0.2164  0.3096 -0.9984
  186MOL0     C24434   4.444   5.461   0.020  0.8191 -1.1197  0.2858
  186MOL0     C24435   4.291   5.497   0.063 -0.7431 -0.5270  0.6636
  186MOL0     C24436   4.208   5.385   0.091 -0.2724  0.1607 -0.2719
  186MOL0     N24437   4.247   5.341   0.230  0.4532  0.0022  0.1892
  186MOL0     C24438   4.204   5.411   0.341  0.2321  0.3278  0.4252
  186MOL0     C24439   4.257   5.335   0.444  0.3365 -0.6282  0.4182
  186MOL0     C24440   4.248   5.363   0.591  0.4741  0.1368 -0.4495
  186MOL0     C24441   4.374   5.447   0.639  0.0555  0.6925  0.5474
  186MOL0     C24442   4.509   5.360   0.614  0.6146  0.3650 -0.5469
  186MOL0     C24443   4.624   5.414   0.702  0.1949 -0.7913 -0.1763
  186MOL0     O24444   4.675   5.536   0.647  0.7503  0.3671  0.1730
  186MOL0     C24445   4.798   5.583   0.667 -0.4086 -0.0615 -0.9709
  186MOL0     C24446   4.804   5.720   0.658 -1.0042 -0.2437 -0.2379
  186MOL0     C24447   4.930   5.781   0.690 -0.4867  0.0213 -0.3198
  186MOL0     C24448   5.042   5.705   0.716  0.3293  0.2251 -1.3038
  186MOL0     C24449   5.178   5.760   0.767  1.2194 -1.1249  0.2885
  186MOL0     O24450   5.263   5.668   0.812 -0.1590 -0.2877 -0.3904
  186MOL0     C24451   5.383   5.727   0.860  0.4173  0.3701  0.0303
  186MOL0     C24452   5.398   5.759   0.994  0.7407  0.4705 -0.7041
  186MOL0     C24453   5.510   5.812   1.044  0.7823  1.1515  0.2746
  186MOL0     C24454   5.615   5.851   0.963 -0.9036 -0.1998 -1.0817
  186MOL0     O24455   5.723   5.921   1.008 -0.5052  0.0022 -0.3731
  186MOL0     C24456   5.818   5.845   1.083  0.2334  0.6793 -0.2885
  186MOL0     C24457   5.950   5.909   1.091 -0.2389  0.0077 -0.4500
  186MOL0     C24458   6.046   5.829   1.186  0.8969  0.1989  0.3783
  186MOL0     C24459   6.167   5.920   1.213  0.9445 -0.3648  0.4998
  186MOL0     C24460   6.263   5.854   1.323  0.4451 -0.2268  0.7227
  186MOL0     C24461   6.356   5.741   1.265  1.1556  0.4164 -0.4862
  186MOL0     C24462   6.467   5.715   1.370 -0.5165  0.8265  0.6662
  186MOL0     C24463   6.502   5.564   1.374  0.1765  0.0253 -0.7868
  186MOL0    Cl24464   6.363   5.476   1.459 -0.0756  0.5262  0.1902
  186MOL0     C24465   5.603   5.835   0.832 -0.0972 -0.6287  0.5122
  186MOL0     C24466   5.490   5.755   0.784 -0.4621  0.6273  0.0173
  186MOL0     O24467   5.186   5.890   0.762  0.0593 -0.6029 -0.1804
  186MOL0     C24468   5.030   5.563   0.724  0.4407  0.4402 -0.3821
  186MOL0     C24469   4.907   5.505   0.701 -0.1549 -0.0761 -0.3436
  186MOL0     N24470   4.315   5.216   0.393  0.7860 -0.0108  0.0881
  186MOL0     N24471   4.302   5.215   0.262 -0.3653 -0.4220 -0.1105
  186MOL0     C24472   5.187   5.506   0.127  0.8414 -0.3963 -0.0895
  186MOL0     C24473   5.256   5.608   0.184  0.2822 -0.0983  0.6248
  186MOL0     C24474   5.443   5.930   0.424 -1.6952 -0.0089  0.6985
  186MOL0     C24475   5.355   6.031   0.467 -0.1877 -0.9057  0.6462
  186MOL0     C24476   5.403   6.128   0.560 -0.2730 -0.2544  1.0693
  186MOL0     C24477   5.548   6.138   0.586  0.9539  0.0823  0.2725
  186MOL0     O24478   5.588   6.240   0.670 -0.4512  0.8238 -0.4039
  186MOL0     C24479   5.704   6.214   0.754 -0.1020 -0.0871  0.1294
  186MOL0     C24480   5.660   6.259   0.891 -0.4694  0.2271 -0.8267
  186MOL0     C24481   5.783   6.278   0.979 -0.8463  0.5601 -0.4003
  186MOL0     C24482   5.772   6.288   1.137 -1.0987  0.0162  0.6954
  186MOL0     C24483   5.900   6.290   1.214  0.3039  0.2473 -0.0954
  186MOL0     C24484   6.007   6.287   1.282  0.2686  0.3423 -0.6538
  186MOL0     C24485   5.637   6.046   0.525  0.1285  0.2783 -0.7574
  186MOL0     C24486   5.580   5.940   0.454  0.3739  0.2548 -1.0875
  186MOL0     H24487   4.997   5.779   0.333  0.7149 -3.8425  5.7177
  186MOL0     H24488   4.887   5.578   0.238 -0.9518  0.1573  1.2373
  186MOL0     H24489   4.849   5.534  -0.028 -2.6937 -1.5354 -2.0134
  186MOL0     H24490   4.782   5.445   0.097  0.9436  1.5915  0.7072
  186MOL0     H24491   4.890   5.255  -0.091 -0.1157 -0.6506 -0.3570
  186MOL0     H24492   4.868   5.400  -0.191 -1.4990 -1.5642 -1.9420
  186MOL0     H24493   4.651   5.257  -0.058  0.2953  3.1303  2.4682
  186MOL0     H24494   4.678   5.231  -0.225 -1.0520  0.3265 -0.2625
  186MOL0     H24495   4.646   5.508  -0.159 -2.9556  1.3960 -1.4039
  186MOL0     H24496   4.581   5.419  -0.292 -2.4946  0.7592  0.7223
  186MOL0     H24497   4.403   5.326  -0.138 -1.9371  0.7766  1.2102
  186MOL0     H24498   4.397   5.492  -0.191  1.9116  0.6163 -2.5119
  186MOL0     H24499   4.498   5.556   0.030 -0.4225 -0.0995 -1.8860
  186MOL0     H24500   4.498   5.390   0.083  0.2156 -0.7997  1.1874
  186MOL0     H24501   4.291   5.559   0.153 -0.8145  0.4734 -0.0178
  186MOL0     H24502   4.240   5.561  -0.009 -0.1978 -1.7145 -0.8359
  186MOL0     H24503   4.239   5.307   0.021  1.4040  1.2521 -0.8061
  186MOL0     H24504   4.105   5.421   0.091 -0.9296 -1.4776 -2.6674
  186MOL0     H24505   4.155   5.507   0.335 -1.9523 -0.8109 -3.3294
  186MOL0     H24506   4.253   5.265   0.639 -1.6816  0.6869  1.0259
  186MOL0     H24507   4.150   5.403   0.615 -0.9950  0.0560 -5.1828
  186MOL0     H24508   4.355   5.469   0.744 -2.0801 -3.2835  1.2143
  186MOL0     H24509   4.379   5.540   0.583  3.6619  0.5583  0.4553
  186MOL0     H24510   4.498   5.259   0.653 -1.0304  2.0677  4.0024
  186MOL0     H24511   4.530   5.356   0.506 -0.5949  1.0385 -0.8309
  186MOL0     H24512   4.710   5.347   0.708  3.0088  2.2212 -2.8014
  186MOL0     H24513   4.590   5.435   0.804  2.2820  0.5621  0.2846
  186MOL0     H24514   4.719   5.782   0.632  0.3539  2.5676  1.5812
  186MOL0     H24515   4.936   5.889   0.701  4.2266 -0.0379 -0.5293
  186MOL0     H24516   5.315   5.748   1.062 -1.6644  0.2922 -3.4491
  186MOL0     H24517   5.513   5.843   1.148  1.0450  2.8447 -0.2067
  186MOL0     H24518   5.822   5.749   1.030 -0.5549 -0.1507  1.0724
  186MOL0     H24519   5.767   5.827   1.179 -0.4482 -1.3876 -0.9737
  186MOL0     H24520   5.944   6.014   1.122 -0.3689  0.9867 -3.4874
  186MOL0     H24521   5.996   5.904   0.992  1.2002 -3.3200  0.2447
  186MOL0     H24522   6.086   5.738   1.140  3.8073  2.1700 -1.3573
  186MOL0     H24523   6.000   5.810   1.283  1.2281 -3.4349 -0.0146
  186MOL0     H24524   6.221   5.954   1.124 -0.8194 -2.7693 -1.6147
  186MOL0     H24525   6.118   6.011   1.251 -1.2503 -0.9397 -0.7749
  186MOL0     H24526   6.209   5.819   1.411 -0.8284 -0.5826 -0.1712
  186MOL0     H24527   6.323   5.944   1.343 -1.8885  1.6737 -0.3222
  186MOL0     H24528   6.413   5.773   1.177  2.3987  0.2148  0.2143
  186MOL0     H24529   6.299   5.652   1.238  0.2478  1.0957 -0.8625
  186MOL0     H24530   6.554   5.776   1.344  0.0019 -0.0173  0.3889
  186MOL0     H24531   6.438   5.739   1.473  1.2641 -1.6555  1.8479
  186MOL0     H24532   6.592   5.551   1.434 -0.2837  0.9213  0.1213
  186MOL0     H24533   6.510   5.516   1.276  1.5911 -2.2859  0.4053
  186MOL0     H24534   5.677   5.877   0.765  2.8064 -2.2758  2.4674
  186MOL0     H24535   5.482   5.734   0.678  1.7129 -3.4321  0.4780
  186MOL0     H24536   5.113   5.497   0.744  3.1819  4.4675  3.4363
  186MOL0     H24537   4.896   5.397   0.707 -2.8337  0.0475 -1.7404
  186MOL0     H24538   5.228   5.418   0.079  4.0913 -0.1210  1.8298
  186MOL0     H24539   5.363   5.620   0.170 -0.3528  4.4816 -2.3648
  186MOL0     H24540   5.249   6.043   0.452 -0.6705 -1.1049  3.3784
  186MOL0     H24541   5.334   6.195   0.610  1.0696  0.6676  1.7184
  186MOL0     H24542   5.790   6.274   0.720  0.4210 -0.3752  0.9000
  186MOL0     H24543   5.731   6.109   0.760 -0.7957 -0.2376  0.8513
  186MOL0     H24544   5.606   6.354   0.887  1.1176  1.3821  1.9450
  186MOL0     H24545   5.596   6.177   0.923  0.6434 -0.4332 -0.2401
  186MOL0     H24546   5.824   6.375   0.949  0.5989  0.5865  1.4564
  186MOL0     H24547   5.863   6.206   0.959 -0.8100  0.5672 -0.2813
  186MOL0     H24548   5.709   6.369   1.174 -1.0629 -0.2829  1.4291
  186MOL0     H24549   5.727   6.193   1.166  1.7790 -1.1578  1.6791
  186MOL0     H24550   6.088   6.260   1.348 -0.5482 -2.6305 -0.6922
  186MOL0     H24551   5.740   6.030   0.554 -0.7870  0.4795  3.0704
  186MOL0     H24552   5.646   5.857   0.431 -2.6806 -3.1966  1.4083
  187MOL0     O24553   6.395   7.233   4.369 -0.3397  0.8853  0.2441
  187MOL0     C24554   6.442   7.116   4.378  0.0085 -0.8584 -0.8300
  187MOL0     O24555   6.362   6.997   4.382  0.2263 -0.1761 -0.2964
  187MOL0     C24556   6.221   7.010   4.384 -0.2414 -0.2223 -0.4344
  187MOL0     C24557   6.150   6.904   4.314 -0.7057  0.8489  0.7816
  187MOL0     C24558   6.011   6.896   4.336  0.4978  0.0293  0.7883
  187MOL0     C24559   5.940   6.988   4.410 -0.5217 -1.3272  0.3640
  187MOL0     O24560   5.807   6.964   4.410 -0.7738 -0.5175 -0.1006
  187MOL0     C24561   5.719   7.068   4.442 -0.6322 -0.3886  0.4411
  187MOL0     C24562   5.576   7.018   4.428 -0.2979  0.9977  0.8183
  187MOL0     C24563   5.539   7.000   4.268  0.3002  0.0128  0.4139
  187MOL0     C24564   5.390   6.983   4.260  0.0072  0.4177 -0.5020
  187MOL0     C24565   5.353   6.969   4.118 -0.1400  0.4775 -0.4880
  187MOL0     C24566   5.202   6.940   4.110 -0.1244  0.2880  0.6190
  187MOL0     C24567   5.178   6.878   3.973 -0.9384  0.3035  0.0034
  187MOL0     C24568   5.057   6.789   3.969  0.4391 -0.5292  0.3789
  187MOL0     N24569   4.936   6.863   3.998  0.2060  0.5828  0.6718
  187MOL0     C24570   4.884   6.955   3.912 -0.8508 -0.0318 -0.4200
  187MOL0     C24571   4.771   7.007   3.973  0.2448 -0.4066 -0.4465
  187MOL0     C24572   4.680   7.108   3.917 -0.7034  0.3396  0.3881
  187MOL0     C24573   4.669   7.242   4.007 -0.0287 -0.8368  1.0661
  187MOL0     C24574   4.768   7.350   3.974  0.2768 -0.4996  0.6366
  187MOL0     C24575   4.889   7.362   4.059 -0.3526 -0.6915  0.1093
  187MOL0     O24576   4.970   7.481   4.048 -0.5748  0.0331 -0.0214
  187MOL0     C24577   5.098   7.481   4.096 -0.2647  0.3726 -0.5337
  187MOL0     C24578   5.167   7.374   4.166  0.0860  0.5253 -0.2418
  187MOL0     C24579   5.290   7.405   4.228  0.5711 -0.7710 -0.8932
  187MOL0     C24580   5.363   7.532   4.202  0.2434  0.7129 -0.4745
  187MOL0     C24581   5.495   7.547   4.256 -0.2758 -0.2191  0.5377
  187MOL0     O24582   5.560   7.426   4.281  0.2068 -0.4421  0.5957
  187MOL0     C24583   5.691   7.437   4.329  0.0751  0.6287 -0.3525
  187MOL0     C24584   5.719   7.534   4.435  0.0436 -0.5477  0.1166
  187MOL0     C24585   5.860   7.545   4.475  0.1944  0.6936 -0.4200
  187MOL0     C24586   5.974   7.478   4.408  0.4717  0.8421  0.1363
  187MOL0     O24587   6.109   7.497   4.422  0.1120 -0.5961 -0.1581
  187MOL0     C24588   6.161   7.624   4.455  0.8139  0.0414  0.1453
  187MOL0     C24589   6.176   7.640   4.603 -0.2819 -0.5769 -0.2400
  187MOL0     C24590   6.283   7.754   4.615  0.3904  0.1609  0.6660
  187MOL0     C24591   6.286   7.823   4.750 -0.2658 -0.3776 -0.5887
  187MOL0     C24592   6.316   7.739   4.881  0.7310  0.3057  1.3313
  187MOL0     C24593   6.313   7.808   5.013  0.0614 -1.0148  0.1695
  187MOL0     C24594   6.365   7.720   5.126  0.5246  0.3200  0.9354
  187MOL0     C24595   6.383   7.791   5.257 -0.6568  0.1811  0.1866
  187MOL0    Cl24596   6.250   7.907   5.312 -0.2407  0.5369 -0.1666
  187MOL0     C24597   5.932   7.391   4.308  0.2107  0.1600 -0.1802
  187MOL0     C24598   5.800   7.368   4.270  0.4017 -0.1262  0.1764
  187MOL0     O24599   5.553   7.656   4.243  0.0673 -0.7486  0.4622
  187MOL0     C24600   5.291   7.631   4.130  0.3006  0.1288 -0.5650
  187MOL0     C24601   5.159   7.602   4.085 -0.1563 -0.0755 -1.0126
  187MOL0     N24602   4.759   6.962   4.099  0.0304  0.5989 -0.6534
  187MOL0     N24603   4.859   6.874   4.113 -0.0183 -0.0202  0.3084
  187MOL0     C24604   6.014   7.095   4.479  1.1967 -0.3393  0.6051
  187MOL0     C24605   6.151   7.103   4.463  0.8998 -0.5875 -0.3041
  187MOL0     C24606   6.585   7.093   4.401 -1.7960 -0.0775 -0.0052
  187MOL0     C24607   6.674   7.194   4.379 -0.0770  0.3232  0.6741
  187MOL0     C24608   6.812   7.182   4.417 -0.5517  0.5772  0.5546
  187MOL0     C24609   6.861   7.071   4.473 -0.4916 -0.6279 -0.2661
  187MOL0     O24610   6.995   7.075   4.505 -0.1486  0.1389  0.8659
  187MOL0     C24611   7.038   6.956   4.568 -0.2213  0.1045 -0.5064
  187MOL0     C24612   7.196   6.958   4.579 -0.0028  0.1121 -0.2584
  187MOL0     C24613   7.251   7.073   4.675  0.5512 -0.4011  0.7003
  187MOL0     C24614   7.213   7.054   4.825  0.3974  0.3372  0.3082
  187MOL0     C24615   7.269   7.148   4.928 -0.2430 -0.5486 -0.1523
  187MOL0     C24616   7.281   7.227   5.011  1.3351  0.3360  0.0520
  187MOL0     C24617   6.769   6.969   4.503  0.0827 -0.2769  0.0202
  187MOL0     C24618   6.636   6.976   4.465  0.6864  0.8744 -0.2076
  187MOL0     H24619   6.210   6.832   4.261  1.7333  3.0907  0.2774
  187MOL0     H24620   5.958   6.823   4.276  0.0255  1.2094 -0.2608
  187MOL0     H24621   5.733   7.164   4.390 -0.8893 -1.1722 -1.1417
  187MOL0     H24622   5.750   7.097   4.542 -0.4754  0.5552  0.1341
  187MOL0     H24623   5.512   7.090   4.480  0.7316  3.0632 -0.5938
  187MOL0     H24624   5.551   6.923   4.476 -1.7856  1.9502  2.0163
  187MOL0     H24625   5.592   6.914   4.226 -4.5784 -3.5299  0.6573
  187MOL0     H24626   5.572   7.088   4.213 -1.2434  0.0859 -0.4424
  187MOL0     H24627   5.372   6.891   4.317  1.4479  0.6321  0.3419
  187MOL0     H24628   5.332   7.057   4.316 -0.8681 -2.3651  2.6301
  187MOL0     H24629   5.410   6.893   4.065 -1.6714  0.2979 -1.9484
  187MOL0     H24630   5.362   7.057   4.053  1.0996  2.0367  1.6356
  187MOL0     H24631   5.140   7.027   4.133 -0.9994 -0.1223 -0.1298
  187MOL0     H24632   5.183   6.857   4.178  2.6281 -0.6726  0.3454
  187MOL0     H24633   5.177   6.959   3.900  3.2818 -1.9778 -2.9975
  187MOL0     H24634   5.265   6.818   3.944 -0.7803 -0.1348  1.2967
  187MOL0     H24635   5.056   6.722   4.055 -1.3494  1.8941  2.4182
  187MOL0     H24636   5.051   6.735   3.874  1.8448  1.5529 -0.9909
  187MOL0     H24637   4.931   6.974   3.816  0.1487 -1.6450 -0.3052
  187MOL0     H24638   4.583   7.059   3.906  1.4350 -4.5280  0.6253
  187MOL0     H24639   4.714   7.140   3.819 -1.3365  1.3606  0.4810
  187MOL0     H24640   4.663   7.227   4.116 -3.3186  2.6008  1.5768
  187MOL0     H24641   4.570   7.278   3.977  0.5201 -1.3997 -1.6887
  187MOL0     H24642   4.793   7.334   3.869 -1.6488  0.9188 -0.0932
  187MOL0     H24643   4.714   7.444   3.987  0.8014  0.2468 -1.9878
  187MOL0     H24644   4.950   7.273   4.041  0.7388 -0.2363  1.3572
  187MOL0     H24645   4.851   7.353   4.161 -0.5457 -2.3035 -0.0798
  187MOL0     H24646   5.128   7.274   4.183 -1.2607  1.2583  1.2268
  187MOL0     H24647   5.331   7.324   4.288  0.6853  0.5505  0.9129
  187MOL0     H24648   5.632   7.582   4.481 -0.9280 -2.0533 -0.0880
  187MOL0     H24649   5.881   7.626   4.544  1.8950 -0.2338  0.2083
  187MOL0     H24650   6.108   7.709   4.412 -0.3713  0.5080  2.3616
  187MOL0     H24651   6.262   7.619   4.412 -0.0160 -0.6662 -1.8285
  187MOL0     H24652   6.233   7.560   4.652  2.1855  0.2686 -1.5133
  187MOL0     H24653   6.081   7.652   4.655 -0.1829  3.0612 -0.6323
  187MOL0     H24654   6.263   7.834   4.542 -0.1035 -1.1513 -0.7091
  187MOL0     H24655   6.380   7.713   4.587  0.0834 -0.0971 -0.0565
  187MOL0     H24656   6.370   7.893   4.745 -0.3419 -0.1564  0.8843
  187MOL0     H24657   6.194   7.880   4.766  1.0249  2.5249 -2.5901
  187MOL0     H24658   6.405   7.678   4.862 -1.8745 -3.3674 -0.2972
  187MOL0     H24659   6.232   7.669   4.879  0.7019  0.3238 -0.9487
  187MOL0     H24660   6.212   7.838   5.043  0.6240  1.5547 -0.2720
  187MOL0     H24661   6.378   7.896   5.008 -1.1216 -0.1929 -2.3719
  187MOL0     H24662   6.297   7.635   5.139 -0.2211  0.4211 -1.7278
  187MOL0     H24663   6.457   7.675   5.087 -0.8897  1.4951 -4.5390
  187MOL0     H24664   6.474   7.851   5.242  0.1029 -1.4832 -2.5672
  187MOL0     H24665   6.423   7.724   5.333  0.7925  2.0718  1.1794
  187MOL0     H24666   6.000   7.323   4.256  0.9725 -0.5005  1.5952
  187MOL0     H24667   5.773   7.291   4.199  0.3967 -0.4386  0.5187
  187MOL0     H24668   5.336   7.729   4.119  3.7631 -0.9009  2.4219
  187MOL0     H24669   5.097   7.683   4.049  1.1879  1.5329  0.1482
  187MOL0     H24670   5.955   7.168   4.534 -0.4911 -1.4613  0.3552
  187MOL0     H24671   6.207   7.174   4.523  2.3236 -1.9386  0.0211
  187MOL0     H24672   6.637   7.281   4.325  3.0369  1.3873  0.0342
  187MOL0     H24673   6.873   7.264   4.382 -0.2716 -0.4538 -1.5493
  187MOL0     H24674   7.005   6.868   4.512  0.9187 -0.6608 -0.0197
  187MOL0     H24675   6.992   6.952   4.667  3.4975 -2.1198  1.3534
  187MOL0     H24676   7.234   6.865   4.623 -0.1494 -0.1086 -0.5977
  187MOL0     H24677   7.239   6.975   4.480  1.8892  0.0618  0.5035
  187MOL0     H24678   7.220   7.171   4.638 -1.5980 -1.8527 -1.6426
  187MOL0     H24679   7.359   7.077   4.660  0.3638 -0.2972 -0.6804
  187MOL0     H24680   7.105   7.043   4.842  0.6536  0.0531  1.9776
  187MOL0     H24681   7.261   6.960   4.854  2.1786  1.1289  0.0469
  187MOL0     H24682   7.279   7.301   5.089  0.8814  1.0483 -0.6153
  187MOL0     H24683   6.795   6.878   4.556  3.6328  0.8433  0.4597
  187MOL0     H24684   6.566   6.900   4.499 -0.2763  2.5143  1.7041
  188MOL0     O24685   4.139   5.251   5.201  0.2589 -0.3230 -0.2849
  188MOL0     C24686   4.115   5.309   5.099 -0.6218 -0.2567  0.8115
  188MOL0     O24687   3.990   5.337   5.042  0.0492 -0.0794  0.6956
  188MOL0     C24688   3.880   5.323   5.113  1.3776 -0.3553  0.3409
  188MOL0     C24689   3.793   5.428   5.115 -0.2680  0.4163  0.1380
  188MOL0     C24690   3.665   5.410   5.184  0.1227 -0.4462 -0.2141
  188MOL0     C24691   3.629   5.286   5.235 -1.2131 -1.1235 -0.3650
  188MOL0     O24692   3.504   5.271   5.288  0.5806  0.8199 -0.9466
  188MOL0     C24693   3.441   5.148   5.254  0.1104 -0.7461 -0.9102
  188MOL0     C24694   3.309   5.184   5.185 -0.5906  0.1434 -0.3382
  188MOL0     C24695   3.238   5.053   5.152 -0.2679  0.4285 -0.3651
  188MOL0     C24696   3.328   4.944   5.082  0.7394  0.3209 -0.3242
  188MOL0     C24697   3.377   4.981   4.943  0.2566 -0.5648  0.8034
  188MOL0     C24698   3.523   5.024   4.932  0.7193  0.4962  0.4161
  188MOL0     C24699   3.630   4.931   4.974 -0.3747  0.0807 -0.1023
  188MOL0     C24700   3.768   4.989   4.935  0.2557  0.0636 -0.9007
  188MOL0     N24701   3.877   4.894   4.959  0.0737  0.2098  0.0445
  188MOL0     C24702   3.880   4.775   5.034 -0.2720 -0.5517  0.3404
  188MOL0     C24703   3.993   4.710   4.997  0.0029  0.3460 -0.0612
  188MOL0     C24704   4.042   4.580   5.046  0.0329 -0.4232 -0.7120
  188MOL0     C24705   4.197   4.588   5.069  0.7897  0.6661  0.7405
  188MOL0     C24706   4.247   4.690   5.176  0.3578  0.1020 -0.7115
  188MOL0     C24707   4.388   4.741   5.144  0.0006 -0.0483  0.0102
  188MOL0     O24708   4.478   4.628   5.154 -0.4804 -0.2502  0.4362
  188MOL0     C24709   4.604   4.649   5.209 -1.1204 -0.6777 -0.5858
  188MOL0     C24710   4.650   4.570   5.308  0.5525 -1.4353 -0.5270
  188MOL0     C24711   4.778   4.573   5.353 -0.6398 -0.2203  0.3129
  188MOL0     C24712   4.869   4.661   5.288  0.5769  0.1967 -0.7708
  188MOL0     C24713   5.007   4.673   5.342  0.1955  0.3684 -0.5437
  188MOL0     O24714   5.091   4.760   5.282  0.0392 -0.4254 -0.6443
  188MOL0     C24715   5.213   4.765   5.346  0.0845  0.7238  0.8698
  188MOL0     C24716   5.304   4.652   5.352  0.4197  0.2155  0.2469
  188MOL0     C24717   5.425   4.677   5.431 -0.2592 -0.8567  0.8571
  188MOL0     C24718   5.447   4.801   5.497 -0.8528  0.5182  0.9255
  188MOL0     O24719   5.560   4.799   5.570 -0.3175  0.3099 -0.3756
  188MOL0     C24720   5.633   4.915   5.598 -0.5322  0.2213  0.0944
  188MOL0     C24721   5.752   4.933   5.500  0.4713  0.0977  0.7665
  188MOL0     C24722   5.846   4.812   5.508  0.2817 -0.3660  0.1240
  188MOL0     C24723   5.914   4.795   5.646 -0.1700  0.6683 -0.7413
  188MOL0     C24724   6.049   4.711   5.635  0.5399  0.7958 -0.4626
  188MOL0     C24725   6.148   4.779   5.543 -0.4767 -0.6332  0.1858
  188MOL0     C24726   6.285   4.728   5.554 -0.3983 -0.3650 -0.3315
  188MOL0     C24727   6.388   4.835   5.519  0.3063 -0.1955 -0.8210
  188MOL0    Cl24728   6.367   4.909   5.367 -0.2533 -0.0488 -0.1046
  188MOL0     C24729   5.354   4.908   5.479 -0.6815  0.0428  0.5057
  188MOL0     C24730   5.238   4.883   5.408 -0.2367 -0.4454  0.8868
  188MOL0     O24731   5.034   4.597   5.436 -0.4457 -0.8862 -0.3129
  188MOL0     C24732   4.817   4.766   5.210  0.8504 -0.7914 -0.1313
  188MOL0     C24733   4.682   4.755   5.166 -0.1999  1.2131  0.2943
  188MOL0     N24734   4.065   4.799   4.921 -0.1637 -0.5693  0.1388
  188MOL0     N24735   3.996   4.901   4.892  0.0103  0.4570  0.2276
  188MOL0     C24736   3.724   5.184   5.224  0.3291 -1.0630 -0.7327
  188MOL0     C24737   3.852   5.202   5.183 -0.9013 -0.0775  0.7745
  188MOL0     C24738   4.240   5.355   5.031  0.5465 -1.1208 -0.4847
  188MOL0     C24739   4.227   5.394   4.895 -0.0089  0.6371 -0.0116
  188MOL0     C24740   4.332   5.434   4.824  0.1016 -0.2147  0.8593
  188MOL0     C24741   4.458   5.447   4.888  0.3047  0.2132  0.3093
  188MOL0     O24742   4.576   5.477   4.821 -0.0321 -0.1441  0.3307
  188MOL0     C24743   4.554   5.542   4.696 -0.2981  0.0744 -0.5624
  188MOL0     C24744   4.680   5.582   4.622  0.2126  0.5106  0.0639
  188MOL0     C24745   4.780   5.470   4.603 -0.8511  0.5171  0.1981
  188MOL0     C24746   4.922   5.519   4.578 -0.4957 -0.5392 -0.5666
  188MOL0     C24747   5.007   5.408   4.537 -0.3699  0.4561 -0.2545
  188MOL0     C24748   5.078   5.311   4.503  0.3233 -0.1674  0.5678
  188MOL0     C24749   4.475   5.419   5.025  1.0411 -0.0889  0.4036
  188MOL0     C24750   4.360   5.375   5.100  0.3164  1.1735  0.8284
  188MOL0     H24751   3.807   5.527   5.072 -1.4037  0.8560  0.7514
  188MOL0     H24752   3.594   5.491   5.198 -0.2075 -0.7287 -0.2340
  188MOL0     H24753   3.445   5.094   5.349  1.4626  0.9389  0.0491
  188MOL0     H24754   3.497   5.084   5.184  1.4165 -1.0008  0.3071
  188MOL0     H24755   3.339   5.247   5.101  2.3758  3.0357  2.5837
  188MOL0     H24756   3.253   5.252   5.251 -0.8834 -1.2681  0.9256
  188MOL0     H24757   3.156   5.080   5.085 -2.0514 -0.6291  1.2818
  188MOL0     H24758   3.201   5.003   5.242  0.2292 -2.6547 -1.7359
  188MOL0     H24759   3.396   4.904   5.156  2.1861  0.2988 -1.6196
  188MOL0     H24760   3.261   4.861   5.058 -0.2680  1.5414 -2.0259
  188MOL0     H24761   3.315   5.065   4.907  1.9355 -0.2365 -1.5788
  188MOL0     H24762   3.366   4.893   4.880 -2.5647  0.4391 -0.2751
  188MOL0     H24763   3.523   5.125   4.975  1.3298  1.3090 -1.3879
  188MOL0     H24764   3.533   5.032   4.824 -1.0434 -2.7646 -0.0995
  188MOL0     H24765   3.632   4.921   5.083  0.6490 -0.3160 -0.1503
  188MOL0     H24766   3.619   4.840   4.914  3.5182  1.7068 -3.8199
  188MOL0     H24767   3.805   5.085   4.973 -2.7989  0.3472  1.7778
  188MOL0     H24768   3.758   5.005   4.827  0.5914  0.1739 -0.9188
  188MOL0     H24769   3.817   4.743   5.116  1.8114 -1.2405  1.7618
  188MOL0     H24770   4.013   4.501   4.977  0.8208 -1.5469  0.1948
  188MOL0     H24771   4.003   4.552   5.145  3.2205 -2.4773  0.1257
  188MOL0     H24772   4.230   4.606   4.966 -2.4503  0.1120 -0.5098
  188MOL0     H24773   4.224   4.488   5.105  0.2663  0.7649  1.4309
  188MOL0     H24774   4.187   4.781   5.169  0.4936  0.1301 -1.6264
  188MOL0     H24775   4.261   4.637   5.271  0.7201 -1.4603 -1.6015
  188MOL0     H24776   4.411   4.820   5.216  0.3426 -0.0483 -0.0932
  188MOL0     H24777   4.385   4.782   5.042 -3.4063  0.3699  0.1599
  188MOL0     H24778   4.596   4.479   5.330 -0.5154 -1.4820 -3.0383
  188MOL0     H24779   4.807   4.492   5.420 -1.5743 -3.5054 -2.9370
  188MOL0     H24780   5.281   4.559   5.301  1.7513 -0.3271  0.5816
  188MOL0     H24781   5.505   4.605   5.446  0.1130 -0.4843  0.6868
  188MOL0     H24782   5.661   4.925   5.703 -0.5572 -2.3417  0.4039
  188MOL0     H24783   5.572   5.004   5.580  0.8051  1.5154  1.5512
  188MOL0     H24784   5.815   5.022   5.511 -0.1243  1.0768 -2.7694
  188MOL0     H24785   5.714   4.951   5.400  1.2801  3.6053  0.9712
  188MOL0     H24786   5.920   4.817   5.428  2.2394  3.7423  1.8966
  188MOL0     H24787   5.789   4.719   5.493  0.7336 -0.5583 -0.4503
  188MOL0     H24788   5.926   4.889   5.701  1.7775 -1.1267  2.1849
  188MOL0     H24789   5.846   4.729   5.701 -1.4436  1.3126 -1.4968
  188MOL0     H24790   6.027   4.612   5.593 -0.0756  2.1108 -3.5658
  188MOL0     H24791   6.078   4.706   5.740 -0.1006 -2.2831 -0.3583
  188MOL0     H24792   6.149   4.888   5.556  1.6730 -0.8028  1.9518
  188MOL0     H24793   6.108   4.754   5.444 -2.5336 -0.6654  0.9575
  188MOL0     H24794   6.306   4.719   5.661  2.4267 -0.1222 -0.7658
  188MOL0     H24795   6.301   4.633   5.502  2.5222 -0.2524  0.1942
  188MOL0     H24796   6.491   4.797   5.524  0.0548 -0.8225 -0.2703
  188MOL0     H24797   6.384   4.906   5.601 -3.5918  1.0221 -1.8380
  188MOL0     H24798   5.357   5.010   5.517 -1.4513  0.1651  0.2614
  188MOL0     H24799   5.158   4.956   5.409  0.7300  0.6547  1.6505
  188MOL0     H24800   4.889   4.839   5.173  2.0761 -1.0839  1.5472
  188MOL0     H24801   4.636   4.823   5.094  4.8627  1.3784 -3.2664
  188MOL0     H24802   3.693   5.091   5.270  0.5223 -1.8729 -2.1745
  188MOL0     H24803   3.924   5.121   5.174  0.8923  1.6811 -2.2225
  188MOL0     H24804   4.130   5.381   4.848 -0.4164  0.5986  0.8305
  188MOL0     H24805   4.311   5.453   4.719 -3.6017  2.1884  1.8508
  188MOL0     H24806   4.497   5.631   4.723  1.6536  0.5026  2.6158
  188MOL0     H24807   4.498   5.484   4.622 -0.7318 -0.9176  0.5058
  188MOL0     H24808   4.649   5.623   4.525 -0.4118 -1.3993 -0.5901
  188MOL0     H24809   4.725   5.669   4.671 -1.8686  1.8674 -0.3139
  188MOL0     H24810   4.753   5.399   4.524  0.1540  0.1069  0.2140
  188MOL0     H24811   4.776   5.417   4.698  1.4632 -0.8351 -0.3873
  188MOL0     H24812   4.902   5.591   4.498 -0.9705  0.6055  0.5521
  188MOL0     H24813   4.966   5.571   4.663 -0.2003 -2.4318  0.5017
  188MOL0     H24814   5.163   5.249   4.484  1.3531  1.1223  0.7759
  188MOL0     H24815   4.570   5.430   5.077  1.9395 -0.5604 -1.0957
  188MOL0     H24816   4.387   5.353   5.203 -2.2146  1.7802  1.6804
  189MOL0     O24817  10.442   0.062   8.798 -0.0566 -1.1848 -0.4277
  189MOL0     C24818  10.535   0.137   8.775  0.1032  0.5295  0.1420
  189MOL0     O24819  10.651   0.145   8.854  0.0813  0.2791  0.5211
  189MOL0     C24820  10.660   0.089   8.978  0.8557  0.0432 -0.4897
  189MOL0     C24821  10.550   0.081   9.072 -0.4782 -0.1790  0.4523
  189MOL0     C24822  10.575   0.027   9.197  0.2820 -1.3382  0.3276
  189MOL0     C24823  10.709  -0.027   9.228  0.5481 -0.2422 -0.2023
  189MOL0     O24824  10.720  -0.084   9.350 -0.2690 -0.0872 -0.0369
  189MOL0     C24825  10.708  -0.232   9.335  0.4598 -0.1944  0.1376
  189MOL0     C24826  10.581  -0.284   9.395 -0.4515 -0.4828 -0.4389
  189MOL0     C24827  10.582  -0.440   9.407 -0.4761 -0.2619 -0.5022
  189MOL0     C24828  10.663  -0.481   9.535 -0.4778  1.0050  0.4714
  189MOL0     C24829  10.685  -0.626   9.533 -0.4196  0.3023  0.9650
  189MOL0     C24830  10.747  -0.680   9.651  0.3637  0.0175 -1.0659
  189MOL0     C24831  10.663  -0.683   9.782  0.4026 -0.4054 -0.6322
  189MOL0     C24832  10.541  -0.783   9.780 -0.2053 -0.2409  0.4563
  189MOL0     N24833  10.475  -0.810   9.906 -0.3407  0.2685 -1.7622
  189MOL0     C24834  10.461  -0.716  10.010  0.1005  0.6915  0.0828
  189MOL0     C24835  10.407  -0.791  10.105  1.4158 -0.6844 -0.7669
  189MOL0     C24836  10.357  -0.739  10.235  0.8789 -0.1584  0.1388
  189MOL0     C24837  10.245  -0.640  10.215 -0.7101 -0.2637  1.0443
  189MOL0     C24838  10.134  -0.685  10.123 -0.0533  0.8060  0.3040
  189MOL0     C24839  10.073  -0.817  10.173  1.1138  0.1499 -0.2087
  189MOL0     O24840   9.998  -0.811  10.297 -0.8013  0.4648 -0.1708
  189MOL0     C24841   9.874  -0.760  10.309 -0.3940 -0.0344 -0.4593
  189MOL0     C24842   9.828  -0.726  10.440  0.1426  0.6699 -0.8721
  189MOL0     C24843   9.699  -0.667  10.451 -0.4378  0.5862  0.2338
  189MOL0     C24844   9.607  -0.651  10.337 -0.1942 -0.1126 -0.3313
  189MOL0     C24845   9.466  -0.597  10.355 -0.3765 -0.1252 -0.6839
  189MOL0     O24846   9.380  -0.613  10.246  0.5255 -0.2508 -0.2199
  189MOL0     C24847   9.258  -0.563  10.260 -0.6395 -0.2643  0.4499
  189MOL0     C24848   9.145  -0.639  10.272 -0.4595 -0.8623  0.5415
  189MOL0     C24849   9.017  -0.579  10.269 -0.4952 -1.2637 -0.9016
  189MOL0     C24850   8.999  -0.440  10.266  0.3195 -0.0337  0.4637
  189MOL0     O24851   8.871  -0.404  10.256  0.1380 -0.2300  0.3587
  189MOL0     C24852   8.832  -0.266  10.279 -0.3869  0.1903  0.8767
  189MOL0     C24853   8.677  -0.263  10.290  0.0996  0.0994 -0.6676
  189MOL0     C24854   8.634  -0.343  10.409 -0.4688  0.4578 -0.0766
  189MOL0     C24855   8.473  -0.334  10.414  0.0521 -0.1201 -0.2383
  189MOL0     C24856   8.405  -0.196  10.456  0.2456  0.0898 -0.5280
  189MOL0     C24857   8.253  -0.217  10.469 -0.0830  0.1890  0.6127
  189MOL0     C24858   8.188  -0.082  10.515  1.1415 -0.5400 -0.1424
  189MOL0     C24859   8.040  -0.097  10.503 -0.2604  0.3773 -0.3408
  189MOL0    Cl24860   7.955   0.014  10.610  0.4405  0.1096 -0.0054
  189MOL0     C24861   9.112  -0.357  10.272 -0.7218  0.3733  0.1760
  189MOL0     C24862   9.242  -0.422  10.258  0.3957  0.7706 -0.1540
  189MOL0     O24863   9.438  -0.544  10.464  0.3463  0.4913 -0.6054
  189MOL0     C24864   9.660  -0.691  10.211  0.2750  1.0589 -0.3497
  189MOL0     C24865   9.790  -0.732  10.200  0.7746  0.2924  0.0055
  189MOL0     N24866  10.379  -0.919  10.068  0.7148 -0.0989 -0.0747
  189MOL0     N24867  10.430  -0.931   9.954 -0.3855 -0.8428 -0.4522
  189MOL0     C24868  10.818  -0.010   9.145  0.3578 -0.5513 -0.3872
  189MOL0     C24869  10.791   0.051   9.018 -0.9256 -0.2323 -0.3722
  189MOL0     C24870  10.538   0.201   8.647  0.9848  0.0937 -0.3523
  189MOL0     C24871  10.645   0.277   8.600 -0.6518  0.1275 -0.3700
  189MOL0     C24872  10.656   0.320   8.473 -0.4354  0.5502  0.7215
  189MOL0     C24873  10.550   0.301   8.380 -0.0997 -0.0353  0.0175
  189MOL0     O24874  10.557   0.352   8.249  0.5431 -0.4693 -0.4223
  189MOL0     C24875  10.681   0.359   8.187 -0.2498 -0.5942 -1.1458
  189MOL0     C24876  10.666   0.335   8.030 -0.3213 -1.1425  0.5802
  189MOL0     C24877  10.809   0.345   7.967 -0.3846 -1.4779 -0.7775
  189MOL0     C24878  10.796   0.334   7.816 -0.0621 -0.1375 -0.3375
  189MOL0     C24879  10.937   0.320   7.760  0.3269  0.3990 -0.8388
  189MOL0     C24880  11.042   0.291   7.704  0.1453 -0.5421 -0.7010
  189MOL0     C24881  10.441   0.223   8.426 -0.3007 -0.8461  0.5140
  189MOL0     C24882  10.442   0.164   8.546 -0.0338 -0.4570  0.1755
  189MOL0     H24883  10.451   0.124   9.057  0.6940  1.8576 -1.9428
  189MOL0     H24884  10.493   0.009   9.266 -2.1052 -4.2281 -2.9674
  189MOL0     H24885  10.802  -0.274   9.370  0.5537 -2.0539 -2.1143
  189MOL0     H24886  10.709  -0.259   9.229  3.1781 -0.5457  0.1938
  189MOL0     H24887  10.491  -0.252   9.342  0.0952 -1.1044 -1.7750
  189MOL0     H24888  10.577  -0.247   9.498 -1.8882  1.9126 -1.2850
  189MOL0     H24889  10.627  -0.486   9.319  0.8443  0.0660 -0.0361
  189MOL0     H24890  10.480  -0.477   9.417  0.3269 -2.6962 -0.6819
  189MOL0     H24891  10.763  -0.436   9.540 -0.7958  2.3363 -2.6675
  189MOL0     H24892  10.607  -0.455   9.625 -2.2387 -1.0350  0.0192
  189MOL0     H24893  10.752  -0.644   9.448  0.0936  2.5604  0.8406
  189MOL0     H24894  10.595  -0.678   9.500 -0.1436  1.5036 -2.0113
  189MOL0     H24895  10.838  -0.624   9.675 -1.9192  2.8314  1.8900
  189MOL0     H24896  10.774  -0.786   9.642  3.7253  0.8189 -1.6398
  189MOL0     H24897  10.719  -0.707   9.873 -0.4983 -0.3613 -0.0530
  189MOL0     H24898  10.608  -0.590   9.799 -1.7039 -1.9312  1.4225
  189MOL0     H24899  10.566  -0.884   9.745 -0.1492 -0.8838  2.2690
  189MOL0     H24900  10.475  -0.734   9.709 -0.5152 -1.1527  0.0917
  189MOL0     H24901  10.496  -0.613  10.014  0.3619  0.6497 -0.8593
  189MOL0     H24902  10.431  -0.696  10.302  1.4013  1.9885 -1.6899
  189MOL0     H24903  10.308  -0.825  10.282  0.3747  0.3074  0.4800
  189MOL0     H24904  10.281  -0.545  10.175  0.4697 -1.2441 -0.3219
  189MOL0     H24905  10.200  -0.621  10.313 -1.3040  0.5097  0.6404
  189MOL0     H24906  10.060  -0.605  10.136 -1.9876 -1.2540  3.2641
  189MOL0     H24907  10.165  -0.696  10.019 -0.5684  2.4107 -0.0473
  189MOL0     H24908  10.142  -0.900  10.190 -2.0536 -2.1142  3.0780
  189MOL0     H24909  10.000  -0.857  10.102 -0.9315  0.6782  1.4913
  189MOL0     H24910   9.888  -0.754  10.526 -1.2238  1.3417  0.3336
  189MOL0     H24911   9.660  -0.653  10.551  0.8342 -0.2021  0.8692
  189MOL0     H24912   9.149  -0.747  10.279 -2.1112 -0.8694  2.0442
  189MOL0     H24913   8.925  -0.637  10.271 -0.8911 -0.6329  0.3605
  189MOL0     H24914   8.863  -0.209  10.191  0.0365  0.1612  1.0060
  189MOL0     H24915   8.881  -0.231  10.370  0.5165 -5.1402  2.7800
  189MOL0     H24916   8.629  -0.319  10.209  0.4340 -0.6104 -0.3858
  189MOL0     H24917   8.635  -0.162  10.298  0.8105  0.4431 -1.1465
  189MOL0     H24918   8.681  -0.299  10.498  1.8351 -0.1233 -0.9338
  189MOL0     H24919   8.672  -0.445  10.400  2.5292  1.3356  1.1516
  189MOL0     H24920   8.445  -0.361  10.311 -0.7965 -2.1724  0.4735
  189MOL0     H24921   8.438  -0.416  10.477  2.1198 -2.6045 -2.0880
  189MOL0     H24922   8.422  -0.123  10.375  1.7469  1.1441  0.6714
  189MOL0     H24923   8.451  -0.168  10.551  1.0947 -4.6151  0.7000
  189MOL0     H24924   8.227  -0.296  10.539 -1.4316  0.3373  0.3036
  189MOL0     H24925   8.220  -0.239  10.367  0.2891  1.4002  0.2053
  189MOL0     H24926   8.199  -0.076  10.623 -0.8937 -1.0193  0.1476
  189MOL0     H24927   8.227   0.008  10.467  0.4952 -0.5659 -0.7386
  189MOL0     H24928   8.009  -0.197  10.536  0.9999 -0.5514 -1.7705
  189MOL0     H24929   8.015  -0.081  10.398 -0.2145  1.4454 -0.1999
  189MOL0     H24930   9.113  -0.249  10.279  4.3383  0.5135  1.1290
  189MOL0     H24931   9.341  -0.378  10.259  1.6348 -1.8077 -0.5276
  189MOL0     H24932   9.604  -0.684  10.118  2.4541  0.3027 -1.7976
  189MOL0     H24933   9.819  -0.750  10.097 -0.0777  4.3067 -1.1243
  189MOL0     H24934  10.923  -0.033   9.161  0.4889  0.4171  0.2132
  189MOL0     H24935  10.875   0.068   8.951  0.4998 -0.4298  1.2801
  189MOL0     H24936  10.720   0.305   8.673  0.5276  4.2101 -2.7945
  189MOL0     H24937  10.741   0.378   8.439 -1.1884  0.0220 -2.4441
  189MOL0     H24938  10.756   0.300   8.241 -0.0579 -2.4317 -3.2254
  189MOL0     H24939  10.733   0.455   8.197 -3.3269  0.9686  1.1205
  189MOL0     H24940  10.631   0.233   8.014 -0.3894 -1.8190  4.2830
  189MOL0     H24941  10.606   0.414   7.984  3.3797  4.0838  3.5849
  189MOL0     H24942  10.877   0.271   8.010 -0.2295 -1.3472 -0.7979
  189MOL0     H24943  10.848   0.444   7.993  2.2202 -2.8373  0.9652
  189MOL0     H24944  10.727   0.255   7.784  1.2702 -1.7108  0.4945
  189MOL0     H24945  10.753   0.424   7.772  0.4019 -0.2271 -0.9894
  189MOL0     H24946  11.138   0.259   7.669  0.7668 -1.2145  1.4129
  189MOL0     H24947  10.360   0.221   8.353  0.7747  1.6152 -0.8395
  189MOL0     H24948  10.358   0.098   8.567  0.0803 -0.2503  1.3159
  190MOL0     O24949   2.649   0.517   7.155 -0.7472  0.2345 -0.4055
  190MOL0     C24950   2.685   0.527   7.268 -0.2082  0.9945 -0.0593
  190MOL0     O24951   2.600   0.531   7.378  0.0303  0.6810 -0.3699
  190MOL0     C24952   2.467   0.563   7.368 -0.3474  0.2349 -0.5848
  190MOL0     C24953   2.384   0.499   7.460 -0.0094 -0.1101 -0.6119
  190MOL0     C24954   2.237   0.514   7.454  0.6486  0.3012  0.6106
  190MOL0     C24955   2.190   0.606   7.363  0.8009  0.5451 -0.1795
  190MOL0     O24956   2.057   0.605   7.361  0.4954  0.3444  0.1351
  190MOL0     C24957   1.993   0.649   7.239 -0.5040  0.0704  0.2289
  190MOL0     C24958   1.895   0.549   7.206  0.5802  0.3059 -0.0028
  190MOL0     C24959   1.766   0.558   7.300 -0.1901 -0.4609 -0.1316
  190MOL0     C24960   1.655   0.467   7.270 -0.4162 -0.8305 -0.0660
  190MOL0     C24961   1.520   0.497   7.347 -0.1966 -0.2747  0.2385
  190MOL0     C24962   1.416   0.397   7.306 -0.4043 -0.9576  0.0873
  190MOL0     C24963   1.281   0.444   7.343 -0.2078 -0.3216 -0.6940
  190MOL0     C24964   1.176   0.361   7.296  0.0626  0.9282  0.8517
  190MOL0     N24965   1.034   0.411   7.314 -0.6442 -0.5252 -0.0063
  190MOL0     C24966   0.995   0.528   7.256 -0.9036  0.8102 -0.7204
  190MOL0     C24967   0.862   0.519   7.220 -0.3722 -0.4476  0.4125
  190MOL0     C24968   0.764   0.621   7.163  0.4134  0.3806 -0.9590
  190MOL0     C24969   0.636   0.564   7.110  0.4482 -0.2282 -0.5632
  190MOL0     C24970   0.565   0.658   7.012 -0.0648 -0.2588  0.7639
  190MOL0     C24971   0.421   0.622   6.998  0.6856  0.5253  0.2732
  190MOL0     O24972   0.348   0.634   7.121  0.4876  0.0289 -0.9806
  190MOL0     C24973   0.208   0.623   7.129 -0.7635  0.3461  0.9287
  190MOL0     C24974   0.121   0.624   7.013 -0.2369  0.3255  0.1926
  190MOL0     C24975  -0.014   0.612   7.030 -0.8216  0.9676 -0.5321
  190MOL0     C24976  -0.066   0.601   7.166  0.0078 -0.0350  0.3360
  190MOL0     C24977  -0.214   0.594   7.201 -0.5122  0.6855 -0.1286
  190MOL0     O24978  -0.246   0.531   7.319 -1.0635 -0.1935  0.5911
  190MOL0     C24979  -0.369   0.523   7.370 -0.0401 -0.3773  0.1526
  190MOL0     C24980  -0.481   0.496   7.294 -0.5934  0.3334 -0.2062
  190MOL0     C24981  -0.612   0.490   7.356 -0.4536  0.7553 -0.8160
  190MOL0     C24982  -0.622   0.532   7.490 -0.0713 -0.1654  0.6511
  190MOL0     O24983  -0.741   0.544   7.560 -0.4823 -0.0902  0.3266
  190MOL0     C24984  -0.854   0.478   7.500  0.2869 -0.2096  0.5454
  190MOL0     C24985  -0.972   0.513   7.592  0.7988 -0.1196 -0.7391
  190MOL0     C24986  -0.941   0.435   7.719  0.4942 -1.1573  0.3593
  190MOL0     C24987  -1.083   0.427   7.766  0.7918  0.4044  0.0842
  190MOL0     C24988  -1.079   0.361   7.904  0.2749 -0.7997 -0.5823
  190MOL0     C24989  -1.222   0.313   7.945  1.4010 -0.6211 -0.6236
  190MOL0     C24990  -1.255   0.171   7.886  0.7288 -0.3072  0.1293
  190MOL0     C24991  -1.399   0.166   7.860  0.1637  0.1363 -0.7495
  190MOL0    Cl24992  -1.444   0.004   7.828 -0.1238  0.4313  0.6062
  190MOL0     C24993  -0.505   0.577   7.549 -0.2344  1.3497  0.0970
  190MOL0     C24994  -0.377   0.555   7.497  0.5600 -0.3114  0.1942
  190MOL0     O24995  -0.297   0.644   7.129  0.3219 -0.6305  0.3033
  190MOL0     C24996   0.024   0.609   7.280  0.4299  0.3264 -0.1744
  190MOL0     C24997   0.160   0.623   7.261 -0.5240  0.0640 -0.3403
  190MOL0     N24998   0.826   0.393   7.255 -0.0360  0.7993 -0.3058
  190MOL0     N24999   0.925   0.333   7.313 -0.7961 -0.5426 -0.0569
  190MOL0     C25000   2.273   0.690   7.291  0.0339 -0.0665  0.8889
  190MOL0     C25001   2.408   0.654   7.286  0.1341 -0.1709 -0.4782
  190MOL0     C25002   2.839   0.511   7.293  0.1925  0.3422 -0.6932
  190MOL0     C25003   2.930   0.488   7.188  0.8240  0.1199 -0.2303
  190MOL0     C25004   3.065   0.479   7.218  0.3520  0.4869 -0.6209
  190MOL0     C25005   3.116   0.490   7.352  0.4016  1.0419  0.2570
  190MOL0     O25006   3.250   0.481   7.391 -0.1558 -0.3159  0.5778
  190MOL0     C25007   3.346   0.523   7.297  0.1727 -0.1953 -0.0684
  190MOL0     C25008   3.488   0.522   7.368  0.9899 -0.0074  1.3937
  190MOL0     C25009   3.541   0.378   7.380  0.4393  0.2758 -0.0250
  190MOL0     C25010   3.693   0.395   7.382 -0.1500  0.2696 -1.0312
  190MOL0     C25011   3.766   0.264   7.370  0.2225 -0.4583 -0.7370
  190MOL0     C25012   3.818   0.151   7.361  0.1395  0.8471 -1.1385
  190MOL0     C25013   3.020   0.496   7.455 -0.0582  0.5237  0.1619
  190MOL0     C25014   2.890   0.518   7.424 -0.0154  0.2302 -0.0881
  190MOL0     H25015   2.433   0.439   7.536  0.1185 -2.9897 -2.8263
  190MOL0     H25016   2.172   0.452   7.515  1.5627  1.4314  2.8465
  190MOL0     H25017   2.061   0.638   7.154 -1.1198 -2.2663 -0.0379
  190MOL0     H25018   1.953   0.751   7.236  1.4826  0.9362  0.8766
  190MOL0     H25019   1.937   0.448   7.206 -1.5747 -0.7392  3.2445
  190MOL0     H25020   1.852   0.579   7.110  1.9205  1.6754 -0.2144
  190MOL0     H25021   1.725   0.659   7.292 -0.6808 -0.5120  1.4039
  190MOL0     H25022   1.801   0.555   7.404  1.8335 -0.5192 -0.7605
  190MOL0     H25023   1.626   0.466   7.165 -3.9004 -3.2660  0.7646
  190MOL0     H25024   1.693   0.365   7.282  0.9393 -0.3536 -0.1469
  190MOL0     H25025   1.481   0.597   7.325  0.3205 -0.3876 -1.3405
  190MOL0     H25026   1.539   0.490   7.455  3.8576 -2.2281 -0.4119
  190MOL0     H25027   1.430   0.301   7.358  2.3719  0.2625  1.8032
  190MOL0     H25028   1.422   0.372   7.200 -1.1345 -1.3957  0.1444
  190MOL0     H25029   1.270   0.460   7.450  0.9020  0.2827 -0.6528
  190MOL0     H25030   1.266   0.544   7.301 -0.2959 -0.8880 -2.0706
  190MOL0     H25031   1.182   0.263   7.344  1.3450  1.2550  1.4008
  190MOL0     H25032   1.189   0.336   7.191  0.2274  0.8866  0.8818
  190MOL0     H25033   1.056   0.615   7.236  1.5363 -0.8685 -1.0793
  190MOL0     H25034   0.807   0.674   7.078  0.6063  0.7195 -0.6555
  190MOL0     H25035   0.741   0.708   7.225 -0.8683  0.3657 -1.3927
  190MOL0     H25036   0.565   0.544   7.191 -0.9691  1.8153 -1.2309
  190MOL0     H25037   0.646   0.472   7.051  0.1167  0.0968 -1.1300
  190MOL0     H25038   0.578   0.763   7.043 -0.1104 -0.2696  0.8211
  190MOL0     H25039   0.615   0.650   6.916 -4.3948  0.1858 -1.7794
  190MOL0     H25040   0.410   0.516   6.970 -1.2011  0.5747  0.6640
  190MOL0     H25041   0.375   0.684   6.920  2.7306 -0.0023 -1.4360
  190MOL0     H25042   0.164   0.620   6.913 -0.7370 -3.4479 -0.0349
  190MOL0     H25043  -0.078   0.603   6.943  0.2669  3.9408 -1.7708
  190MOL0     H25044  -0.479   0.468   7.189  3.1107  4.0311 -1.3728
  190MOL0     H25045  -0.700   0.453   7.305 -0.1192  1.7012 -2.1567
  190MOL0     H25046  -0.825   0.374   7.486  3.7123  0.7893 -1.0914
  190MOL0     H25047  -0.888   0.515   7.403  0.0538 -1.0223  0.3099
  190MOL0     H25048  -1.064   0.477   7.544  1.6177 -2.5255 -0.6658
  190MOL0     H25049  -0.969   0.614   7.633  2.8368 -0.6435  0.5062
  190MOL0     H25050  -0.879   0.489   7.791  1.4743 -4.0565  1.8399
  190MOL0     H25051  -0.892   0.339   7.702 -0.1512 -1.5397  0.6246
  190MOL0     H25052  -1.140   0.520   7.770 -0.0118  0.0163 -1.5653
  190MOL0     H25053  -1.135   0.364   7.694  1.8075 -0.8852  0.4154
  190MOL0     H25054  -1.039   0.437   7.971  0.1803  1.5128 -2.9849
  190MOL0     H25055  -1.004   0.282   7.902  0.0505 -1.0612  0.6289
  190MOL0     H25056  -1.295   0.391   7.922  2.1313  0.9509  1.9508
  190MOL0     H25057  -1.218   0.305   8.054  1.4349 -0.2984 -0.6006
  190MOL0     H25058  -1.219   0.168   7.782  1.5746  0.8894  0.3657
  190MOL0     H25059  -1.216   0.080   7.933 -0.8068 -2.5453 -2.5568
  190MOL0     H25060  -1.426   0.219   7.768 -0.7628 -0.3861 -0.7856
  190MOL0     H25061  -1.449   0.216   7.944  0.7333  0.7761 -0.7803
  190MOL0     H25062  -0.507   0.609   7.653 -1.1186 -0.1602  0.5789
  190MOL0     H25063  -0.293   0.563   7.565 -0.2100 -1.3356  1.3323
  190MOL0     H25064  -0.005   0.598   7.383  2.6832 -1.3886  0.3547
  190MOL0     H25065   0.221   0.618   7.350 -1.4893  2.4185  0.5327
  190MOL0     H25066   2.235   0.771   7.228  0.3692  1.3799  2.4751
  190MOL0     H25067   2.478   0.713   7.227 -0.2239  1.5057  0.7086
  190MOL0     H25068   2.893   0.489   7.086 -1.9332 -1.4815  0.6719
  190MOL0     H25069   3.136   0.461   7.138  3.1907 -0.3869  1.9081
  190MOL0     H25070   3.317   0.625   7.272  0.5917  0.6020  2.4187
  190MOL0     H25071   3.342   0.471   7.201 -0.8734  0.4703 -0.3949
  190MOL0     H25072   3.551   0.566   7.290 -0.8278  0.8360  0.3320
  190MOL0     H25073   3.486   0.582   7.459 -3.3044 -0.1876  1.6096
  190MOL0     H25074   3.511   0.328   7.287 -2.2579  0.2994  0.7367
  190MOL0     H25075   3.505   0.315   7.461  1.5384 -0.4167 -0.0626
  190MOL0     H25076   3.719   0.452   7.292  4.0773  0.3276  0.0146
  190MOL0     H25077   3.725   0.451   7.470 -0.9403 -1.2926  0.3065
  190MOL0     H25078   3.835   0.045   7.363 -3.1977  0.2129  0.4440
  190MOL0     H25079   3.049   0.527   7.555 -0.7748  3.1363 -0.3745
  190MOL0     H25080   2.810   0.526   7.498  1.3989  0.0483  1.5137
  191MOL0     O25081   8.825   3.271   6.072  0.3138  0.1990 -0.6829
  191MOL0     C25082   8.827   3.237   5.960 -0.1902  0.0704  0.0417
  191MOL0     O25083   8.721   3.229   5.884 -0.1209 -0.5074 -1.3099
  191MOL0     C25084   8.598   3.287   5.933 -0.1907  0.0599  0.0288
  191MOL0     C25085   8.507   3.209   5.996 -0.1573 -0.2282 -0.3823
  191MOL0     C25086   8.383   3.265   6.027  0.1420  0.3841  0.1426
  191MOL0     C25087   8.342   3.387   5.989  0.5198  0.2053 -0.9272
  191MOL0     O25088   8.208   3.406   6.015 -0.0375 -0.3522 -0.6014
  191MOL0     C25089   8.176   3.545   6.010 -0.1626  0.5318 -0.5562
  191MOL0     C25090   8.023   3.576   6.011  0.2098  0.5865  0.0675
  191MOL0     C25091   7.953   3.568   6.149  0.3464  0.4447 -0.5100
  191MOL0     C25092   7.799   3.601   6.133 -0.2912 -0.2470  0.4956
  191MOL0     C25093   7.778   3.750   6.109 -0.1743 -0.1938 -0.1151
  191MOL0     C25094   7.626   3.770   6.130 -0.3770  0.0423  0.6118
  191MOL0     C25095   7.581   3.915   6.094 -0.8008 -0.1069 -0.1020
  191MOL0     C25096   7.440   3.947   6.149 -0.3669 -0.3461 -0.2757
  191MOL0     N25097   7.349   3.860   6.080  0.4052  0.2724 -0.4734
  191MOL0     C25098   7.273   3.767   6.134 -0.0141  0.1046 -0.9666
  191MOL0     C25099   7.170   3.755   6.039 -0.4444 -0.5057  0.7481
  191MOL0     C25100   7.055   3.660   6.065  0.7416  0.2310  1.3299
  191MOL0     C25101   7.027   3.552   5.954 -0.6714  0.5966  0.3121
  191MOL0     C25102   6.974   3.421   6.014 -0.2520  0.2947  0.2558
  191MOL0     C25103   6.978   3.302   5.908 -0.2390  0.9705  0.2976
  191MOL0     O25104   6.950   3.176   5.973  0.4276  0.3326 -1.0437
  191MOL0     C25105   6.814   3.171   5.981 -0.0283 -0.8539  0.3445
  191MOL0     C25106   6.740   3.110   5.879 -0.9943 -0.8404 -0.6636
  191MOL0     C25107   6.599   3.097   5.880  0.2467  0.5110 -0.1930
  191MOL0     C25108   6.536   3.161   5.990  1.4064 -0.8754 -0.3561
  191MOL0     C25109   6.386   3.162   5.999 -0.5939  0.0242  0.6172
  191MOL0     O25110   6.315   3.106   5.899 -0.1509 -0.1365  0.1279
  191MOL0     C25111   6.183   3.117   5.902  0.0268  1.4544 -1.2077
  191MOL0     C25112   6.119   3.004   5.958 -0.6772 -0.7606  0.0912
  191MOL0     C25113   5.980   3.002   5.972  0.7427 -0.1810  0.3551
  191MOL0     C25114   5.900   3.092   5.901  0.4481  0.1760 -0.5184
  191MOL0     O25115   5.764   3.065   5.912 -0.0665  0.0687  0.2213
  191MOL0     C25116   5.684   3.108   5.802 -0.5251 -0.1118  0.6844
  191MOL0     C25117   5.551   3.023   5.796 -0.3673 -0.8555 -0.0392
  191MOL0     C25118   5.455   3.066   5.910 -0.3023  0.5423 -0.4969
  191MOL0     C25119   5.328   2.979   5.909 -0.7122 -0.0090  0.1191
  191MOL0     C25120   5.231   3.030   6.008  0.0422 -0.3709  0.3993
  191MOL0     C25121   5.115   2.930   6.032  0.9630  0.8217  0.5058
  191MOL0     C25122   5.000   2.971   6.118  0.0622 -0.5682 -0.4980
  191MOL0     C25123   4.863   2.931   6.070  0.3785  0.6186 -0.2668
  191MOL0    Cl25124   4.872   2.749   6.082 -0.2663 -0.1439 -0.2467
  191MOL0     C25125   5.965   3.196   5.829  0.2665  0.1321 -0.9738
  191MOL0     C25126   6.102   3.218   5.839  0.1667  0.6016 -0.6144
  191MOL0     O25127   6.341   3.221   6.097  0.2303 -0.8479 -0.1240
  191MOL0     C25128   6.608   3.222   6.097 -0.4391  1.4299  0.7844
  191MOL0     C25129   6.750   3.220   6.098 -0.2873 -0.0866 -1.0418
  191MOL0     N25130   7.207   3.824   5.926 -0.2702 -0.1024  0.3020
  191MOL0     N25131   7.309   3.893   5.955  1.1635 -0.5215 -0.2311
  191MOL0     C25132   8.445   3.473   5.946  0.5549 -0.2289 -0.2477
  191MOL0     C25133   8.580   3.427   5.913  0.5400 -0.0430  0.4358
  191MOL0     C25134   8.961   3.197   5.903  0.4915 -0.2840  0.1058
  191MOL0     C25135   8.984   3.109   5.799 -0.4757 -0.4204  0.0815
  191MOL0     C25136   9.112   3.066   5.760  0.2363  0.2063 -0.5693
  191MOL0     C25137   9.224   3.114   5.829  0.0551 -0.2426  0.4348
  191MOL0     O25138   9.348   3.080   5.797  0.8495  0.1184  0.0159
  191MOL0     C25139   9.379   2.962   5.711  0.4691 -0.2581  0.2998
  191MOL0     C25140   9.520   2.913   5.731  0.2960  1.0194  0.8752
  191MOL0     C25141   9.563   2.910   5.879 -0.5624  0.5011  0.7545
  191MOL0     C25142   9.695   2.834   5.894 -0.0667  1.8037 -0.2379
  191MOL0     C25143   9.823   2.895   5.848  0.0979 -0.5617 -0.4663
  191MOL0     C25144   9.937   2.924   5.824 -0.2331  0.1271  0.8704
  191MOL0     C25145   9.209   3.203   5.933  0.8775 -0.3684  0.4523
  191MOL0     C25146   9.077   3.237   5.978  0.0467 -0.4670 -0.4313
  191MOL0     H25147   8.536   3.108   6.023 -0.0244  0.9274  4.8467
  191MOL0     H25148   8.319   3.196   6.080  0.0065  1.8065  1.9180
  191MOL0     H25149   8.209   3.582   5.913  0.8305  1.6500  0.1698
  191MOL0     H25150   8.228   3.602   6.088 -2.1222 -0.1396  1.3581
  191MOL0     H25151   7.969   3.503   5.950 -0.9399  0.1874  1.4975
  191MOL0     H25152   8.009   3.672   5.962  0.0406  2.5077  3.5397
  191MOL0     H25153   8.006   3.631   6.222  0.4143 -0.0029 -0.1705
  191MOL0     H25154   7.953   3.463   6.179 -2.6315  0.1318 -1.2612
  191MOL0     H25155   7.760   3.538   6.052  0.2946 -2.5130  1.8756
  191MOL0     H25156   7.746   3.583   6.227 -2.0942 -0.0134 -0.4275
  191MOL0     H25157   7.796   3.789   6.009  0.1358  0.0785  0.0427
  191MOL0     H25158   7.833   3.814   6.180 -3.0147  1.8055  0.4298
  191MOL0     H25159   7.587   3.754   6.231 -3.6571  1.3804 -0.3361
  191MOL0     H25160   7.586   3.696   6.060  3.1166 -0.3932 -1.1358
  191MOL0     H25161   7.651   3.988   6.137 -1.7336  0.7048  0.0661
  191MOL0     H25162   7.576   3.911   5.985  2.4600 -1.7195 -0.3095
  191MOL0     H25163   7.417   4.052   6.127 -1.6443 -0.0086  2.2891
  191MOL0     H25164   7.437   3.927   6.256 -1.0540  2.2907  0.2729
  191MOL0     H25165   7.278   3.725   6.234 -1.2059 -0.1933 -1.0134
  191MOL0     H25166   6.958   3.705   6.089  0.3404  0.1623 -0.0982
  191MOL0     H25167   7.083   3.609   6.158 -2.6941 -1.2679  1.6879
  191MOL0     H25168   7.126   3.524   5.914 -0.4113 -2.2261  2.5793
  191MOL0     H25169   6.962   3.603   5.883 -0.8689  0.3539  0.3170
  191MOL0     H25170   7.044   3.388   6.091 -0.9392  2.4978  1.9125
  191MOL0     H25171   6.873   3.442   6.050 -0.9257 -0.5966 -1.0218
  191MOL0     H25172   7.080   3.286   5.871  0.0880 -0.5643  1.7561
  191MOL0     H25173   6.906   3.333   5.831  3.2019  2.8974 -2.4841
  191MOL0     H25174   6.779   3.060   5.791 -3.2670  0.8527 -2.7765
  191MOL0     H25175   6.544   3.042   5.803 -0.2137  0.7551 -0.0453
  191MOL0     H25176   6.185   2.922   5.983  0.8450  0.4002  0.0651
  191MOL0     H25177   5.935   2.914   6.016 -2.3279  1.5165  0.9010
  191MOL0     H25178   5.735   3.099   5.705 -2.3156 -1.2729 -0.2165
  191MOL0     H25179   5.653   3.212   5.818  1.3343  0.3912  1.1931
  191MOL0     H25180   5.577   2.917   5.799  1.7923 -0.3603  2.7315
  191MOL0     H25181   5.506   3.048   5.699  2.3579  0.2604 -1.1394
  191MOL0     H25182   5.426   3.171   5.911  0.7963  0.8645  0.7289
  191MOL0     H25183   5.494   3.034   6.008  0.2326  1.0213 -0.5508
  191MOL0     H25184   5.290   2.989   5.807 -0.4006 -1.3969 -0.1538
  191MOL0     H25185   5.337   2.871   5.925  3.5646 -0.3413 -2.8766
  191MOL0     H25186   5.190   3.122   5.966 -1.2347 -1.5330 -1.0005
  191MOL0     H25187   5.277   3.048   6.106  0.6572 -1.4864  0.3227
  191MOL0     H25188   5.140   2.827   6.059 -1.9508 -0.4021 -0.9368
  191MOL0     H25189   5.076   2.917   5.930  0.4598  2.0232  0.5320
  191MOL0     H25190   5.011   2.912   6.209  3.2658 -0.3404 -0.6351
  191MOL0     H25191   4.996   3.079   6.137 -3.5209 -0.7443  0.3758
  191MOL0     H25192   4.861   2.965   5.966 -0.8276 -0.8159 -0.7437
  191MOL0     H25193   4.787   2.982   6.129 -0.2559 -0.0083 -0.5313
  191MOL0     H25194   5.897   3.261   5.775 -1.2195  0.5724  1.2741
  191MOL0     H25195   6.147   3.306   5.794 -0.8520  1.6793  0.3957
  191MOL0     H25196   6.552   3.250   6.185 -1.8364 -3.7460  1.9013
  191MOL0     H25197   6.810   3.263   6.178 -2.1619  2.3139 -0.8159
  191MOL0     H25198   8.426   3.577   5.921 -0.5558 -0.2916  0.2691
  191MOL0     H25199   8.648   3.493   5.860 -0.5108  1.3320  0.7543
  191MOL0     H25200   8.897   3.075   5.744 -0.8356 -1.9439  1.5118
  191MOL0     H25201   9.128   2.991   5.682  1.9318  0.2455 -0.2961
  191MOL0     H25202   9.358   2.985   5.607  1.5946  1.6456  0.4539
  191MOL0     H25203   9.313   2.880   5.743  1.9533 -1.0579  1.4263
  191MOL0     H25204   9.533   2.821   5.674 -0.9826  1.5351 -0.3287
  191MOL0     H25205   9.581   2.984   5.674 -0.0606 -0.1825 -1.0890
  191MOL0     H25206   9.487   2.854   5.934 -0.4991 -0.8142 -0.4367
  191MOL0     H25207   9.581   3.015   5.904  1.0857  1.4435 -3.4789
  191MOL0     H25208   9.712   2.808   5.999 -0.6608 -3.3215 -1.1586
  191MOL0     H25209   9.690   2.742   5.836  3.3164  1.4057 -0.1364
  191MOL0     H25210  10.041   2.948   5.808  0.5413 -2.6208  1.1814
  191MOL0     H25211   9.287   3.246   5.996  0.7365  3.4627 -1.6996
  191MOL0     H25212   9.058   3.304   6.062  0.0170 -1.0877  0.0642
  192MOL0     O25213   6.132  10.781   2.997 -0.3338  0.5288 -0.0506
  192MOL0     C25214   6.022  10.737   2.972 -0.5797 -0.8427 -0.2576
  192MOL0     O25215   5.903  10.807   2.980  0.2150 -0.6936  0.1522
  192MOL0     C25216   5.889  10.928   3.049 -0.2936  0.5404  0.5180
  192MOL0     C25217   5.869  11.044   2.974 -0.5807  0.1920  0.5581
  192MOL0     C25218   5.865  11.168   3.040 -0.1661 -0.4638 -0.2108
  192MOL0     C25219   5.886  11.181   3.180 -0.0386  0.0563 -0.0271
  192MOL0     O25220   5.873  11.295   3.262  0.0482 -0.7026 -0.1304
  192MOL0     C25221   5.832  11.430   3.206  0.3213  0.5206  0.1266
  192MOL0     C25222   5.837  11.526   3.322  0.2765  0.7316  0.2586
  192MOL0     C25223   5.719  11.497   3.414 -0.8170  0.4109 -0.4473
  192MOL0     C25224   5.579  11.539   3.364  0.4572 -0.4932  0.5814
  192MOL0     C25225   5.469  11.521   3.472  0.3267  0.2108 -1.2318
  192MOL0     C25226   5.325  11.521   3.410  0.4879  0.4498  0.1293
  192MOL0     C25227   5.203  11.545   3.493 -0.7436 -0.0351  0.3549
  192MOL0     C25228   5.075  11.542   3.412  0.2610 -0.0811 -0.0516
  192MOL0     N25229   4.961  11.541   3.510 -0.5344  0.2596  0.0743
  192MOL0     C25230   4.897  11.621   3.601 -0.5742  0.2703 -0.6203
  192MOL0     C25231   4.776  11.572   3.628  0.1248  0.4709 -0.0060
  192MOL0     C25232   4.694  11.620   3.739  0.2656 -0.0154  1.1253
  192MOL0     C25233   4.566  11.688   3.691 -0.0012 -0.0388  0.1590
  192MOL0     C25234   4.576  11.824   3.610  0.2812 -0.0086 -0.4294
  192MOL0     C25235   4.452  11.849   3.543  0.1694 -0.0931  0.3597
  192MOL0     O25236   4.339  11.838   3.629 -0.2113 -0.3400 -1.0958
  192MOL0     C25237   4.307  11.951   3.701 -0.1985 -0.9454 -0.9837
  192MOL0     C25238   4.335  11.961   3.843  0.3919  0.2027  0.2054
  192MOL0     C25239   4.312  12.082   3.917 -0.6222  0.5585 -0.0388
  192MOL0     C25240   4.228  12.183   3.859 -0.3574  0.5326  0.3500
  192MOL0     C25241   4.192  12.299   3.947 -0.1959  0.5213  0.2835
  192MOL0     O25242   4.231  12.297   4.079 -0.1081 -0.5585  0.4788
  192MOL0     C25243   4.167  12.382   4.168 -0.4740  1.0315 -0.1484
  192MOL0     C25244   4.123  12.327   4.287 -0.2290 -1.2506 -0.2839
  192MOL0     C25245   4.088  12.413   4.389  0.4014  0.5904  0.1051
  192MOL0     C25246   4.086  12.552   4.378  0.5219  1.4816 -0.1619
  192MOL0     O25247   4.059  12.619   4.492 -0.4958  0.4293 -0.2705
  192MOL0     C25248   4.065  12.760   4.481 -0.5923 -0.4891 -0.5914
  192MOL0     C25249   4.019  12.826   4.616 -0.8183  0.5370  0.3756
  192MOL0     C25250   3.865  12.844   4.617  0.6174  0.0068 -0.1255
  192MOL0     C25251   3.846  12.921   4.751  0.1388 -0.0094 -0.3948
  192MOL0     C25252   3.705  12.949   4.793  0.2505 -0.1378 -0.2879
  192MOL0     C25253   3.600  12.960   4.683  0.0107 -0.2536  0.7251
  192MOL0     C25254   3.482  13.045   4.731 -0.0822  0.0113  0.1944
  192MOL0     C25255   3.407  12.988   4.840 -0.6394  0.9733 -0.6520
  192MOL0    Cl25256   3.238  13.060   4.834  0.0295 -0.0063  0.0150
  192MOL0     C25257   4.132  12.602   4.257  0.2172  0.5062 -0.4263
  192MOL0     C25258   4.174  12.522   4.156 -0.5534  0.3978  1.0668
  192MOL0     O25259   4.122  12.381   3.892  0.5534  0.3544  0.3667
  192MOL0     C25260   4.199  12.178   3.720 -0.0948 -0.1208  0.8236
  192MOL0     C25261   4.246  12.070   3.644 -1.2744  0.1297  0.6638
  192MOL0     N25262   4.765  11.450   3.569 -0.3280  0.8478  0.2528
  192MOL0     N25263   4.885  11.425   3.505  0.4324 -0.2220  1.3510
  192MOL0     C25264   5.908  11.061   3.248  0.4521  0.9906 -0.4039
  192MOL0     C25265   5.911  10.938   3.181  0.7803  0.4988 -0.3904
  192MOL0     C25266   6.018  10.577   2.946  0.0864 -0.3816  0.3580
  192MOL0     C25267   5.912  10.499   2.901  0.0667  0.5031 -0.4959
  192MOL0     C25268   5.924  10.362   2.889  0.0205 -0.2162  0.0625
  192MOL0     C25269   6.052  10.296   2.892  0.5027  0.6731  0.3000
  192MOL0     O25270   6.069  10.166   2.834 -0.0374 -0.7809 -0.5023
  192MOL0     C25271   6.162  10.076   2.904  0.2855  0.4525 -0.0116
  192MOL0     C25272   6.108   9.939   2.876 -0.4935 -0.6065 -0.4633
  192MOL0     C25273   6.002   9.891   2.973 -0.5208 -0.0337  0.4914
  192MOL0     C25274   5.894   9.996   3.011  0.6543 -0.0680 -0.6067
  192MOL0     C25275   5.775   9.950   3.077  0.2446 -0.5642 -0.3972
  192MOL0     C25276   5.671   9.901   3.120 -0.3251  0.7653 -0.1427
  192MOL0     C25277   6.162  10.372   2.933  0.8584  0.3063 -0.0295
  192MOL0     C25278   6.140  10.508   2.959 -0.1131 -0.6933 -0.7019
  192MOL0     H25279   5.853  11.037   2.867 -1.2464 -1.0825  0.7172
  192MOL0     H25280   5.860  11.265   2.991 -1.5808 -0.2663  0.2856
  192MOL0     H25281   5.737  11.440   3.153  1.5590  6.2400 -1.8566
  192MOL0     H25282   5.906  11.467   3.134  0.2349  1.2775  0.4091
  192MOL0     H25283   5.846  11.629   3.288 -0.5927  0.8679  0.4171
  192MOL0     H25284   5.924  11.498   3.383 -0.3608 -2.9668 -0.2592
  192MOL0     H25285   5.751  11.557   3.500  0.6838 -2.0972  0.8516
  192MOL0     H25286   5.711  11.389   3.424  0.6751 -0.0191 -2.9877
  192MOL0     H25287   5.580  11.645   3.335 -0.6967 -0.1145  1.8227
  192MOL0     H25288   5.544  11.471   3.286  1.9892  1.1008 -1.6331
  192MOL0     H25289   5.483  11.605   3.541 -2.0486  2.4810 -3.2915
  192MOL0     H25290   5.490  11.420   3.508 -1.5720  0.8153  1.9686
  192MOL0     H25291   5.316  11.419   3.371  0.2078  0.2915  0.5974
  192MOL0     H25292   5.326  11.601   3.335 -1.7470  2.6448  2.2447
  192MOL0     H25293   5.206  11.471   3.574  0.1535 -0.2796  0.1070
  192MOL0     H25294   5.218  11.643   3.539  0.5503  0.3602 -0.8731
  192MOL0     H25295   5.081  11.460   3.340  1.3470  0.4444 -0.5752
  192MOL0     H25296   5.071  11.640   3.362 -1.7458  1.0181  2.0636
  192MOL0     H25297   4.910  11.724   3.633 -1.5177 -0.7697  3.8501
  192MOL0     H25298   4.752  11.677   3.813 -0.0789 -1.1447  2.3005
  192MOL0     H25299   4.650  11.529   3.781 -0.2785 -0.3924 -0.2274
  192MOL0     H25300   4.510  11.690   3.786  0.3466 -0.6634  0.3801
  192MOL0     H25301   4.515  11.616   3.628  1.3583 -2.6225  1.8470
  192MOL0     H25302   4.595  11.905   3.680  1.5326 -3.5509  3.7672
  192MOL0     H25303   4.659  11.829   3.538 -1.1885 -1.7631 -2.3693
  192MOL0     H25304   4.450  11.780   3.457  1.5681  1.3056 -0.8711
  192MOL0     H25305   4.444  11.947   3.495 -0.0386 -1.0066 -1.5657
  192MOL0     H25306   4.376  11.872   3.890  0.9622  0.9430  1.1502
  192MOL0     H25307   4.347  12.101   4.018  1.3673  0.6773 -0.7271
  192MOL0     H25308   4.130  12.219   4.296 -0.2935 -1.3674 -1.4807
  192MOL0     H25309   4.063  12.364   4.482  0.1593 -0.4021 -0.4696
  192MOL0     H25310   4.015  12.800   4.393 -0.0889  0.8912 -0.2872
  192MOL0     H25311   4.166  12.801   4.465 -0.2820 -2.1911 -3.7335
  192MOL0     H25312   4.067  12.922   4.637  3.1933 -1.5346  1.5363
  192MOL0     H25313   4.072  12.768   4.692  0.3853 -0.6157 -1.2768
  192MOL0     H25314   3.807  12.751   4.610 -0.4502  0.6253  0.2210
  192MOL0     H25315   3.829  12.901   4.531  0.4362 -0.7310 -0.5534
  192MOL0     H25316   3.884  12.868   4.839 -0.7815  0.1020  0.0864
  192MOL0     H25317   3.892  13.020   4.740  3.4742 -1.6264 -2.2648
  192MOL0     H25318   3.702  13.048   4.840 -3.6939  0.0193 -0.6064
  192MOL0     H25319   3.677  12.876   4.869  1.6498 -0.5745 -0.1613
  192MOL0     H25320   3.565  12.861   4.655  1.4146 -0.8340  0.9450
  192MOL0     H25321   3.648  13.005   4.596 -3.4033  1.5313 -0.4494
  192MOL0     H25322   3.516  13.146   4.757 -2.3051 -0.4596  6.4120
  192MOL0     H25323   3.409  13.041   4.650  1.9164 -2.0211 -1.6721
  192MOL0     H25324   3.459  12.994   4.936 -1.0660  0.7372 -0.4009
  192MOL0     H25325   3.383  12.883   4.825 -0.5680  0.3677  2.7393
  192MOL0     H25326   4.123  12.709   4.236  0.1695  0.8617  1.2308
  192MOL0     H25327   4.220  12.564   4.067 -0.2783 -0.9999  0.5260
  192MOL0     H25328   4.138  12.256   3.675 -0.3286 -1.8630 -2.1402
  192MOL0     H25329   4.218  12.088   3.540 -1.8888  2.5419  1.1726
  192MOL0     H25330   5.915  11.066   3.356 -0.6666 -0.4411 -0.2330
  192MOL0     H25331   5.943  10.853   3.239  5.4378  1.7802 -0.7167
  192MOL0     H25332   5.824  10.560   2.882 -1.0489 -1.2706 -1.2292
  192MOL0     H25333   5.837  10.299   2.875 -1.5615  1.4077  1.9929
  192MOL0     H25334   6.150  10.088   3.012  1.5332 -1.7473  0.4375
  192MOL0     H25335   6.267  10.080   2.874  0.7247  1.1231  1.5361
  192MOL0     H25336   6.059   9.943   2.778 -1.4874  2.1460  0.0502
  192MOL0     H25337   6.189   9.865   2.879  0.9867  0.8284 -2.1712
  192MOL0     H25338   6.045   9.845   3.062  0.2007  1.7794  1.1322
  192MOL0     H25339   5.956   9.810   2.916 -1.2375 -1.7098  3.2897
  192MOL0     H25340   5.938  10.078   3.069  0.5588 -0.1313 -0.4411
  192MOL0     H25341   5.842  10.054   2.934 -2.6637  1.8570  2.6885
  192MOL0     H25342   5.583   9.864   3.167 -0.0459  2.3186  1.7744
  192MOL0     H25343   6.260  10.327   2.945 -0.6389 -2.4832  4.1098
  192MOL0     H25344   6.227  10.559   2.998 -0.3816 -0.7587 -0.0030
  193MOL0     O25345   2.894   2.567   8.556  0.5515 -0.8814  0.9275
  193MOL0     C25346   2.774   2.551   8.533 -0.4466 -0.0531  0.2129
  193MOL0     O25347   2.712   2.437   8.505  0.2632  0.0221 -0.4204
  193MOL0     C25348   2.781   2.326   8.534  0.2269  0.2510  0.3255
  193MOL0     C25349   2.773   2.274   8.671 -0.0290  0.9629 -0.0625
  193MOL0     C25350   2.844   2.158   8.706 -0.2895  0.3205  0.0065
  193MOL0     C25351   2.927   2.098   8.618 -0.2648  0.7369 -0.1780
  193MOL0     O25352   3.013   2.004   8.664  0.3504  0.6153 -0.0552
  193MOL0     C25353   3.022   1.875   8.594  0.6608  1.0507  0.2139
  193MOL0     C25354   3.123   1.780   8.672  0.7016  0.6162  0.4764
  193MOL0     C25355   3.266   1.794   8.643  0.1152 -0.1874  0.3006
  193MOL0     C25356   3.358   1.713   8.739 -0.8724 -0.9812  0.2931
  193MOL0     C25357   3.500   1.772   8.727  0.2081  0.4073  0.8158
  193MOL0     C25358   3.593   1.694   8.810  0.1888  0.2674 -0.7290
  193MOL0     C25359   3.741   1.735   8.816  1.3092  0.4696 -0.2644
  193MOL0     C25360   3.818   1.645   8.719 -0.3851 -0.2444 -0.4434
  193MOL0     N25361   3.955   1.690   8.704 -0.3087 -0.4466  0.6718
  193MOL0     C25362   4.049   1.715   8.803 -0.6153  0.2120  0.2091
  193MOL0     C25363   4.157   1.778   8.743  0.6898  0.0427 -0.1146
  193MOL0     C25364   4.282   1.807   8.805 -0.3799 -0.9519  0.5362
  193MOL0     C25365   4.400   1.856   8.717  0.0002 -0.6783 -0.1208
  193MOL0     C25366   4.521   1.890   8.802 -0.0190 -0.6495  0.1624
  193MOL0     C25367   4.614   1.968   8.714  0.3413  0.1481 -0.5086
  193MOL0     O25368   4.731   2.010   8.802 -0.4816 -0.1091  0.8944
  193MOL0     C25369   4.837   2.068   8.737 -0.1572  0.1277  0.5453
  193MOL0     C25370   4.860   2.074   8.596 -0.3212  0.5323 -1.3983
  193MOL0     C25371   4.972   2.132   8.548 -0.2562  0.1527 -0.5446
  193MOL0     C25372   5.061   2.208   8.623  0.6150  0.6571 -0.2829
  193MOL0     C25373   5.169   2.297   8.568  0.0444  1.1602 -0.6671
  193MOL0     O25374   5.245   2.368   8.659 -1.0435  0.0907 -0.5978
  193MOL0     C25375   5.312   2.478   8.600  0.3985  0.4242  0.3603
  193MOL0     C25376   5.250   2.601   8.606  0.0851  0.4792  0.0709
  193MOL0     C25377   5.309   2.708   8.537  0.4186  0.3730 -0.0035
  193MOL0     C25378   5.428   2.691   8.467 -0.6682 -0.3911  0.1594
  193MOL0     O25379   5.501   2.797   8.415  0.0537  0.6515  0.0288
  193MOL0     C25380   5.437   2.870   8.301  0.8164  0.6355 -0.3374
  193MOL0     C25381   5.545   2.912   8.198  0.0158  0.2323 -0.9702
  193MOL0     C25382   5.493   3.023   8.102  0.7519 -0.2656 -0.3339
  193MOL0     C25383   5.577   3.055   7.983  0.0618 -0.3584 -0.5199
  193MOL0     C25384   5.725   3.078   8.016 -0.0418 -0.0812 -0.5256
  193MOL0     C25385   5.739   3.221   8.070  0.0595 -0.2299  0.0947
  193MOL0     C25386   5.888   3.265   8.104  0.3237 -0.3555  0.2350
  193MOL0     C25387   5.952   3.197   8.228  0.5808  0.0979  0.4893
  193MOL0    Cl25388   6.113   3.267   8.271  0.0676 -0.3668 -0.1277
  193MOL0     C25389   5.487   2.566   8.450 -0.9429 -0.2051  0.4544
  193MOL0     C25390   5.426   2.464   8.517  0.7384  0.1184  0.0323
  193MOL0     O25391   5.180   2.300   8.446 -0.2928 -0.3851  0.3862
  193MOL0     C25392   5.046   2.192   8.767  0.0618 -0.1507  0.5405
  193MOL0     C25393   4.940   2.124   8.822  0.1330 -0.7300  0.0828
  193MOL0     N25394   4.131   1.791   8.610  0.5197  0.4873 -0.6037
  193MOL0     N25395   4.007   1.739   8.587 -0.9386 -0.5695 -0.0468
  193MOL0     C25396   2.956   2.159   8.496  0.5744  0.0539  0.6092
  193MOL0     C25397   2.878   2.262   8.443 -0.8218 -0.0625  0.1531
  193MOL0     C25398   2.684   2.672   8.526 -0.0606 -0.4266  0.2217
  193MOL0     C25399   2.721   2.801   8.464  0.5433  0.3350  0.3029
  193MOL0     C25400   2.635   2.913   8.469 -0.0786 -0.0323  0.3815
  193MOL0     C25401   2.504   2.905   8.522  0.4970  0.0302 -0.5869
  193MOL0     O25402   2.416   3.009   8.515 -0.2107  0.6852 -0.4097
  193MOL0     C25403   2.420   3.087   8.633  0.3842  0.1135 -1.0413
  193MOL0     C25404   2.320   3.208   8.640 -0.5421  0.6831  0.6273
  193MOL0     C25405   2.172   3.156   8.647  0.9542 -0.7541 -0.0173
  193MOL0     C25406   2.086   3.289   8.681  0.0380  0.1018 -1.0231
  193MOL0     C25407   2.108   3.316   8.825  0.7067 -0.2050 -0.1222
  193MOL0     C25408   2.113   3.333   8.948 -0.8616  0.3708  0.3272
  193MOL0     C25409   2.465   2.779   8.582  0.1382 -0.4008  0.6973
  193MOL0     C25410   2.546   2.666   8.570 -0.2340 -0.4014 -0.0631
  193MOL0     H25411   2.720   2.327   8.750  0.4063 -0.0974  0.9614
  193MOL0     H25412   2.836   2.123   8.808  1.1226  3.6926  1.4543
  193MOL0     H25413   3.070   1.890   8.497 -2.9294  0.7992 -1.7765
  193MOL0     H25414   2.928   1.819   8.592  1.5338 -0.4545 -0.6354
  193MOL0     H25415   3.097   1.678   8.642 -2.0695  1.2806  0.2730
  193MOL0     H25416   3.107   1.784   8.780 -0.2586  1.0745  0.3306
  193MOL0     H25417   3.275   1.900   8.668 -0.7188  0.9576 -3.6530
  193MOL0     H25418   3.288   1.764   8.540  3.0707 -0.5282  0.9220
  193MOL0     H25419   3.322   1.707   8.842  0.6628 -2.9278  0.7720
  193MOL0     H25420   3.357   1.617   8.687  0.1077  0.3627 -2.4227
  193MOL0     H25421   3.503   1.878   8.752  0.0294  1.3251 -2.5856
  193MOL0     H25422   3.527   1.765   8.621  0.2940  2.0687  0.7026
  193MOL0     H25423   3.582   1.590   8.776  1.9401  0.5105 -2.1811
  193MOL0     H25424   3.541   1.699   8.907 -1.1809  2.7639 -1.5085
  193MOL0     H25425   3.752   1.841   8.792 -1.1317  1.5483  2.6995
  193MOL0     H25426   3.776   1.732   8.920 -1.6531  1.0366  0.8441
  193MOL0     H25427   3.768   1.656   8.622  0.5188  1.6460 -0.7294
  193MOL0     H25428   3.816   1.537   8.739  5.5201 -0.6120 -0.1904
  193MOL0     H25429   4.043   1.675   8.903  2.6788  1.6699  1.1179
  193MOL0     H25430   4.317   1.713   8.850 -1.4611 -2.2610 -1.2185
  193MOL0     H25431   4.259   1.878   8.884  1.1337 -1.1042  1.1420
  193MOL0     H25432   4.364   1.947   8.667 -0.0264  0.0702  1.2165
  193MOL0     H25433   4.427   1.780   8.643 -2.2089 -1.6920  0.0516
  193MOL0     H25434   4.499   1.960   8.883  1.9776 -0.6267  0.7448
  193MOL0     H25435   4.575   1.813   8.859  0.6692 -0.8471 -0.7149
  193MOL0     H25436   4.561   2.058   8.684 -0.5766 -0.2986 -0.2447
  193MOL0     H25437   4.634   1.908   8.624  1.3102 -0.2865 -0.0245
  193MOL0     H25438   4.787   2.028   8.530  0.5002  0.7748 -2.4984
  193MOL0     H25439   4.978   2.148   8.441  2.9444  0.7357 -0.3759
  193MOL0     H25440   5.156   2.594   8.659 -1.8644 -0.7283 -3.2530
  193MOL0     H25441   5.271   2.810   8.541  1.0974  0.7352 -1.7332
  193MOL0     H25442   5.390   2.956   8.350  0.7189 -0.3123  1.3213
  193MOL0     H25443   5.367   2.799   8.256  0.2649 -1.9837  3.9826
  193MOL0     H25444   5.562   2.822   8.138 -0.5331 -1.0220  0.7004
  193MOL0     H25445   5.633   2.942   8.256 -1.1751  2.8128 -0.3794
  193MOL0     H25446   5.462   3.113   8.155  3.5847  0.9884 -0.6369
  193MOL0     H25447   5.399   2.982   8.062  2.0598 -2.1395 -1.6503
  193MOL0     H25448   5.572   2.978   7.905  0.5642 -1.0414  0.1059
  193MOL0     H25449   5.537   3.149   7.943  0.2256  0.1376  0.4399
  193MOL0     H25450   5.785   3.062   7.926 -4.2411 -2.3474 -3.2215
  193MOL0     H25451   5.765   2.996   8.077  2.4811 -1.1696 -3.3856
  193MOL0     H25452   5.690   3.227   8.167  0.8746 -0.9748  0.5656
  193MOL0     H25453   5.699   3.277   7.985  1.1003 -1.9876 -1.6553
  193MOL0     H25454   5.951   3.241   8.018  3.2722 -0.3674  2.2504
  193MOL0     H25455   5.897   3.374   8.114  1.1098 -0.0265 -3.0226
  193MOL0     H25456   5.967   3.091   8.205 -0.6481 -1.2126  4.7417
  193MOL0     H25457   5.873   3.203   8.303 -3.0750  1.4523 -3.1495
  193MOL0     H25458   5.586   2.553   8.408 -1.1782  1.2635 -0.6473
  193MOL0     H25459   5.475   2.368   8.516 -1.7277 -1.2834  2.0438
  193MOL0     H25460   5.120   2.225   8.840 -0.0800 -0.6230  0.9042
  193MOL0     H25461   4.942   2.122   8.931 -1.4831 -1.5064  0.1433
  193MOL0     H25462   3.032   2.113   8.433  0.3690  2.0151 -1.1688
  193MOL0     H25463   2.885   2.304   8.343 -1.9827 -0.1830  0.0059
  193MOL0     H25464   2.824   2.810   8.432  1.1152  0.7993  2.1544
  193MOL0     H25465   2.669   3.010   8.433 -1.8402  0.9686  1.2759
  193MOL0     H25466   2.524   3.117   8.653 -0.1224  1.8178 -0.7746
  193MOL0     H25467   2.375   3.031   8.715 -0.7022  1.6353 -0.5445
  193MOL0     H25468   2.349   3.267   8.727  0.5230  1.7425 -0.4051
  193MOL0     H25469   2.330   3.274   8.553  0.8025  0.8371  0.8851
  193MOL0     H25470   2.155   3.083   8.728 -0.2561  0.5859  0.9810
  193MOL0     H25471   2.146   3.117   8.548 -0.7319 -2.4857  1.0471
  193MOL0     H25472   2.118   3.382   8.632  1.3705  1.5834  2.3736
  193MOL0     H25473   1.984   3.262   8.651  0.7056 -3.3719 -0.6258
  193MOL0     H25474   2.116   3.351   9.054  2.1949 -0.2099  0.4387
  193MOL0     H25475   2.364   2.779   8.620 -0.3958 -0.8022 -0.6607
  193MOL0     H25476   2.494   2.582   8.615 -0.3447  0.4121  1.3897
  194MOL0     O25477   1.200   5.674   1.194 -0.4117 -0.3026 -0.4594
  194MOL0     C25478   1.271   5.576   1.201  0.1926 -0.1106 -0.6316
  194MOL0     O25479   1.331   5.531   1.321  0.3783 -0.0749 -0.5693
  194MOL0     C25480   1.300   5.584   1.451 -0.6609 -0.3977  0.6585
  194MOL0     C25481   1.394   5.559   1.547  0.8560  0.2109 -0.4874
  194MOL0     C25482   1.367   5.592   1.685  0.0371  0.6303  0.7343
  194MOL0     C25483   1.249   5.659   1.715  0.4460 -0.0632  0.0248
  194MOL0     O25484   1.210   5.714   1.833 -0.7401  0.0396  0.4426
  194MOL0     C25485   1.226   5.638   1.950  0.2299  0.7580  0.0289
  194MOL0     C25486   1.282   5.717   2.060 -0.6666 -1.2445 -0.1932
  194MOL0     C25487   1.433   5.738   2.049  0.7195  0.3116  1.0435
  194MOL0     C25488   1.494   5.803   2.173  0.2631  0.3498  0.4093
  194MOL0     C25489   1.448   5.949   2.201  0.0628 -0.1208  0.1205
  194MOL0     C25490   1.525   6.022   2.306 -0.0785 -0.3072 -0.0216
  194MOL0     C25491   1.495   6.169   2.288  0.9062 -0.9581  0.0056
  194MOL0     C25492   1.552   6.257   2.404  0.8970  0.0221  0.5471
  194MOL0     N25493   1.525   6.397   2.383  0.4322  0.4807  0.1267
  194MOL0     C25494   1.422   6.472   2.436 -0.5808 -0.0246  0.0448
  194MOL0     C25495   1.427   6.592   2.376  0.3588  0.3642  0.1059
  194MOL0     C25496   1.334   6.706   2.409 -1.1992 -0.1172 -0.8073
  194MOL0     C25497   1.368   6.780   2.541 -0.7104  0.3285 -0.2215
  194MOL0     C25498   1.245   6.821   2.620  0.2181 -0.2475 -0.4911
  194MOL0     C25499   1.281   6.903   2.745  1.3521 -0.3672  0.5989
  194MOL0     O25500   1.342   6.826   2.853  0.3107  0.0417  0.1613
  194MOL0     C25501   1.271   6.738   2.933  0.1866  0.3435 -0.3317
  194MOL0     C25502   1.138   6.696   2.922 -0.6342  0.0256  0.4635
  194MOL0     C25503   1.088   6.593   2.990 -0.0369  0.4287 -0.3898
  194MOL0     C25504   1.166   6.528   3.096 -0.7008 -0.3583  0.2532
  194MOL0     C25505   1.111   6.407   3.160 -0.6663 -0.5072  0.6669
  194MOL0     O25506   1.005   6.337   3.105  0.2127  0.2350  0.1116
  194MOL0     C25507   0.921   6.245   3.165  0.2289 -0.1802  0.0355
  194MOL0     C25508   0.855   6.153   3.074  0.2271 -0.1086 -0.9307
  194MOL0     C25509   0.764   6.063   3.143  0.6972 -0.3804  0.6364
  194MOL0     C25510   0.764   6.032   3.283  0.3199 -0.5169  0.4471
  194MOL0     O25511   0.700   5.920   3.324  0.3942  0.7131 -0.3292
  194MOL0     C25512   0.665   5.906   3.458  0.0870 -0.0266  0.1265
  194MOL0     C25513   0.582   5.782   3.470 -0.0364 -0.6311  0.3757
  194MOL0     C25514   0.538   5.769   3.624  0.2873 -0.5529  0.3300
  194MOL0     C25515   0.463   5.643   3.647  0.9616  0.5745  0.0952
  194MOL0     C25516   0.435   5.617   3.792 -0.0876  0.0878 -0.5255
  194MOL0     C25517   0.330   5.717   3.857 -0.1388 -0.0495 -0.1922
  194MOL0     C25518   0.266   5.656   3.980 -0.1119  0.1440  1.4441
  194MOL0     C25519   0.163   5.542   3.942  0.1890 -0.7088  0.8818
  194MOL0    Cl25520   0.089   5.459   4.070 -1.0777 -0.2824  0.4585
  194MOL0     C25521   0.828   6.121   3.368  0.0296 -0.1514  0.7689
  194MOL0     C25522   0.905   6.228   3.309 -0.0681 -0.1932 -0.1042
  194MOL0     O25523   1.165   6.379   3.271  0.2347 -0.8615  0.2750
  194MOL0     C25524   1.297   6.579   3.124  1.0451 -0.7114 -1.0769
  194MOL0     C25525   1.355   6.671   3.031  0.6717 -0.2981  0.8542
  194MOL0     N25526   1.543   6.598   2.299 -0.1928 -0.4256  1.0871
  194MOL0     N25527   1.599   6.481   2.302 -0.0192 -0.0386 -0.2890
  194MOL0     C25528   1.157   5.697   1.611 -0.0581 -0.1254  0.1614
  194MOL0     C25529   1.189   5.654   1.481  1.0739  0.9716  0.3122
  194MOL0     C25530   1.329   5.525   1.074 -0.3332 -0.1087  0.1567
  194MOL0     C25531   1.319   5.601   0.952 -0.0073 -0.3322  0.3363
  194MOL0     C25532   1.376   5.565   0.831  0.1383  0.8568  0.1607
  194MOL0     C25533   1.450   5.437   0.833 -0.8027 -1.0150 -1.1071
  194MOL0     O25534   1.530   5.397   0.727 -0.1396  0.8918 -0.0178
  194MOL0     C25535   1.562   5.474   0.603  1.0306 -0.1675  0.4117
  194MOL0     C25536   1.600   5.375   0.494  0.4606 -0.0369 -0.9410
  194MOL0     C25537   1.489   5.274   0.447  0.0480 -0.0120 -0.6010
  194MOL0     C25538   1.551   5.188   0.347 -0.0302  0.3082  0.1188
  194MOL0     C25539   1.453   5.085   0.302  0.4894  0.5908  0.3072
  194MOL0     C25540   1.371   5.003   0.275 -0.0899 -0.1839 -0.1317
  194MOL0     C25541   1.457   5.363   0.950  0.9582 -0.1182  1.0804
  194MOL0     C25542   1.400   5.404   1.069  0.6527 -0.4576 -0.5970
  194MOL0     H25543   1.480   5.501   1.516  0.5198 -0.6794  0.1749
  194MOL0     H25544   1.435   5.574   1.768 -0.7265 -2.0861  0.8663
  194MOL0     H25545   1.282   5.544   1.943  0.7047  1.0543 -0.2344
  194MOL0     H25546   1.125   5.608   1.978 -0.1100 -0.9849 -2.6757
  194MOL0     H25547   1.255   5.675   2.157  0.7106  2.4757  2.0386
  194MOL0     H25548   1.240   5.818   2.051 -1.0681 -1.5487 -2.1099
  194MOL0     H25549   1.465   5.787   1.957 -0.2217  2.4785  1.8152
  194MOL0     H25550   1.472   5.636   2.045  0.5660  0.2790  0.3471
  194MOL0     H25551   1.477   5.747   2.265  3.6249  0.0247  0.9422
  194MOL0     H25552   1.603   5.804   2.164  0.4793 -1.6230  2.1926
  194MOL0     H25553   1.343   5.947   2.231 -0.1957  1.3570 -0.5988
  194MOL0     H25554   1.462   5.996   2.103 -2.4992 -1.2896 -0.8939
  194MOL0     H25555   1.629   6.002   2.280 -0.0154 -2.0417  1.3935
  194MOL0     H25556   1.504   5.972   2.401  0.1472 -1.9824 -0.8170
  194MOL0     H25557   1.539   6.198   2.193 -1.1780  0.2602 -0.6431
  194MOL0     H25558   1.387   6.186   2.280  0.7045 -2.3380 -0.6312
  194MOL0     H25559   1.660   6.237   2.399  0.9653  0.6178 -0.5995
  194MOL0     H25560   1.511   6.216   2.497  1.2790 -0.5868  0.4590
  194MOL0     H25561   1.349   6.436   2.508  0.2006  0.0803  0.9043
  194MOL0     H25562   1.237   6.656   2.423 -1.4091  0.0607 -1.5672
  194MOL0     H25563   1.332   6.781   2.329  4.3413  2.9430  1.3820
  194MOL0     H25564   1.443   6.852   2.508  0.8553 -1.2265 -0.1901
  194MOL0     H25565   1.413   6.702   2.603 -3.0404 -1.8427 -1.0940
  194MOL0     H25566   1.179   6.881   2.556  1.5069  1.3664 -0.3757
  194MOL0     H25567   1.193   6.729   2.647  0.1088 -0.9524 -2.8338
  194MOL0     H25568   1.188   6.942   2.788  2.5544  0.8758  2.2180
  194MOL0     H25569   1.351   6.985   2.722  0.8640 -0.5516 -1.8854
  194MOL0     H25570   1.064   6.740   2.857 -1.0186  0.6322  1.2899
  194MOL0     H25571   0.990   6.551   2.965  1.2280 -0.8767 -3.5966
  194MOL0     H25572   0.863   6.155   2.966 -2.4887  0.9440 -1.1922
  194MOL0     H25573   0.705   5.998   3.078  0.5476 -0.1083  0.4985
  194MOL0     H25574   0.606   5.993   3.487 -1.0940 -0.9308  0.4819
  194MOL0     H25575   0.760   5.896   3.511  0.6420 -0.5624 -0.9333
  194MOL0     H25576   0.644   5.693   3.452 -1.8293 -1.6906 -0.8629
  194MOL0     H25577   0.498   5.790   3.401 -1.0697  0.0682  1.6860
  194MOL0     H25578   0.480   5.861   3.634  2.8691  1.0314  1.8212
  194MOL0     H25579   0.619   5.781   3.697 -0.7495  1.6727  1.1963
  194MOL0     H25580   0.375   5.651   3.583 -0.2967 -2.0415  1.3467
  194MOL0     H25581   0.509   5.551   3.610 -3.1717 -1.5702 -0.2624
  194MOL0     H25582   0.528   5.608   3.850  0.3492 -1.2000 -1.3715
  194MOL0     H25583   0.385   5.520   3.789  0.2968 -0.1609  0.3981
  194MOL0     H25584   0.254   5.756   3.788  0.8833  1.3150 -0.5958
  194MOL0     H25585   0.377   5.814   3.876 -2.6865  0.8381  2.4974
  194MOL0     H25586   0.349   5.606   4.032  2.5560  2.3946 -0.4012
  194MOL0     H25587   0.216   5.729   4.044 -4.0368 -1.4774  0.5708
  194MOL0     H25588   0.204   5.467   3.873  0.4513 -0.1790  0.4555
  194MOL0     H25589   0.074   5.588   3.898  0.8415 -0.4212 -0.1828
  194MOL0     H25590   0.809   6.119   3.475 -1.8125  0.8669  0.4899
  194MOL0     H25591   0.951   6.311   3.363 -0.3494  0.7290 -1.2529
  194MOL0     H25592   1.345   6.517   3.199 -0.4472 -1.6703 -0.8660
  194MOL0     H25593   1.462   6.687   3.035  0.5816  0.7638 -0.3217
  194MOL0     H25594   1.072   5.762   1.629 -0.6480 -1.0218  0.6700
  194MOL0     H25595   1.121   5.675   1.399  1.1952  0.0023 -0.0561
  194MOL0     H25596   1.262   5.693   0.951  2.8837  1.6194  1.0642
  194MOL0     H25597   1.363   5.637   0.750  3.2338  3.3308  1.6304
  194MOL0     H25598   1.645   5.541   0.629  3.1656 -2.3296 -0.4136
  194MOL0     H25599   1.476   5.531   0.566  1.2013  1.3872  2.2145
  194MOL0     H25600   1.621   5.433   0.403  1.2113 -1.9497 -2.0504
  194MOL0     H25601   1.694   5.325   0.518 -0.1783 -0.5779  0.5546
  194MOL0     H25602   1.400   5.322   0.406  1.3763  0.7361 -2.7795
  194MOL0     H25603   1.454   5.211   0.530  0.0625 -1.8573 -1.9344
  194MOL0     H25604   1.575   5.250   0.260 -1.5347  1.5993  0.5732
  194MOL0     H25605   1.647   5.145   0.376 -0.7853 -1.5047  0.0919
  194MOL0     H25606   1.302   4.927   0.245  0.9996 -0.9489 -0.7767
  194MOL0     H25607   1.501   5.265   0.939  0.1050 -0.3783 -0.2841
  194MOL0     H25608   1.415   5.346   1.159 -0.0302  0.4476  0.1212
  195MOL0     O25609  10.550   8.717  10.104  0.2407  0.5851 -0.6612
  195MOL0     C25610  10.598   8.696   9.998 -0.0128  0.7417  0.8222
  195MOL0     O25611  10.540   8.732   9.876  0.1921 -0.0236 -0.0605
  195MOL0     C25612  10.405   8.777   9.861  0.1799  0.8394 -0.1561
  195MOL0     C25613  10.379   8.809   9.730  0.6929 -0.5191  0.4162
  195MOL0     C25614  10.258   8.870   9.694  0.1251  0.1757 -0.0041
  195MOL0     C25615  10.162   8.910   9.786 -0.4650 -0.3717  0.3520
  195MOL0     O25616  10.032   8.955   9.779 -0.3741 -0.9720  0.5278
  195MOL0     C25617   9.995   9.037   9.667  0.3282 -0.3623 -0.6522
  195MOL0     C25618   9.859   9.081   9.696  0.7724 -0.7022  0.1614
  195MOL0     C25619   9.751   9.022   9.591 -0.0141  0.4628  0.1856
  195MOL0     C25620   9.728   8.870   9.582 -0.3579 -0.4643  0.1717
  195MOL0     C25621   9.636   8.819   9.469  0.7025 -0.9064 -0.3617
  195MOL0     C25622   9.717   8.817   9.338 -0.2290 -0.2255  0.4096
  195MOL0     C25623   9.637   8.769   9.216  0.0228  0.2148  0.3329
  195MOL0     C25624   9.500   8.838   9.196 -0.9487 -0.3372  0.0873
  195MOL0     N25625   9.463   8.797   9.060 -0.0891  0.1726 -0.1098
  195MOL0     C25626   9.513   8.837   8.939 -0.3034  0.4191 -0.3057
  195MOL0     C25627   9.429   8.772   8.856 -0.4196  0.5702 -0.4444
  195MOL0     C25628   9.435   8.748   8.712 -0.1335  0.2454  0.0790
  195MOL0     C25629   9.321   8.812   8.645  0.2028  0.4863  0.1334
  195MOL0     C25630   9.298   8.777   8.499  0.7076  0.1193  0.9668
  195MOL0     C25631   9.368   8.869   8.403 -0.5855  0.2650  0.1714
  195MOL0     O25632   9.354   8.815   8.268  0.7131  0.2649 -0.6348
  195MOL0     C25633   9.465   8.813   8.194  0.2721  0.4600 -0.2419
  195MOL0     C25634   9.542   8.926   8.190 -0.4171 -0.7269 -0.1007
  195MOL0     C25635   9.652   8.938   8.104  1.1818  0.2377  0.1051
  195MOL0     C25636   9.688   8.832   8.015  0.0872  0.1110  0.1494
  195MOL0     C25637   9.806   8.827   7.924 -0.6450 -0.0172  0.0126
  195MOL0     O25638   9.908   8.917   7.955  0.7690  0.1899 -0.8699
  195MOL0     C25639  10.004   8.949   7.870 -0.1144  0.8802  0.3644
  195MOL0     C25640  10.125   8.976   7.919  0.5095 -0.1936  0.9532
  195MOL0     C25641  10.232   9.002   7.830 -0.1611 -1.1786 -0.3346
  195MOL0     C25642  10.214   9.014   7.696  0.5500  0.0635 -0.6366
  195MOL0     O25643  10.315   9.056   7.611 -0.3294 -0.5104  0.5208
  195MOL0     C25644  10.451   9.042   7.662  0.8254  0.3506  0.1636
  195MOL0     C25645  10.538   9.084   7.555  0.0279 -0.3027 -0.6590
  195MOL0     C25646  10.583   8.986   7.457  0.1373 -0.0600 -0.5573
  195MOL0     C25647  10.689   9.057   7.377 -0.5045 -0.0497 -0.6543
  195MOL0     C25648  10.719   8.992   7.244  0.1089 -0.4080  0.5813
  195MOL0     C25649  10.823   9.070   7.172 -0.3370  0.1791 -0.2228
  195MOL0     C25650  10.846   8.992   7.041  0.2587  0.1545 -0.8254
  195MOL0     C25651  10.938   9.060   6.945 -0.3910  0.1190 -0.0570
  195MOL0    Cl25652  11.092   9.069   7.016  0.1151 -0.5683 -0.0111
  195MOL0     C25653  10.072   9.008   7.651 -0.2438  0.5287  0.0365
  195MOL0     C25654   9.965   8.969   7.737  0.8644 -0.1582  1.5589
  195MOL0     O25655   9.817   8.738   7.842  0.2214  1.1437 -0.0432
  195MOL0     C25656   9.603   8.715   8.029 -0.3048  0.1850  2.2172
  195MOL0     C25657   9.490   8.706   8.112  0.5168  0.4195  0.2060
  195MOL0     N25658   9.343   8.691   8.926  0.8538 -0.9275 -0.1813
  195MOL0     N25659   9.370   8.700   9.053  1.1347 -0.3375 -0.3151
  195MOL0     C25660  10.196   8.879   9.919 -0.5148 -0.5544 -0.8739
  195MOL0     C25661  10.313   8.804   9.961  0.0693 -0.0537  0.5266
  195MOL0     C25662  10.748   8.650   9.995  0.4887 -0.6169 -0.5989
  195MOL0     C25663  10.824   8.657   9.881 -0.2337  0.3125  0.6371
  195MOL0     C25664  10.956   8.616   9.882 -0.7849  0.5301  0.1622
  195MOL0     C25665  11.023   8.570   9.995 -0.6368  0.2733  0.0268
  195MOL0     O25666  11.154   8.532  10.022  0.1195  0.8974 -0.1352
  195MOL0     C25667  11.245   8.496   9.916  0.8083 -0.6792 -0.8028
  195MOL0     C25668  11.336   8.615   9.878  0.3037  0.7850 -0.3568
  195MOL0     C25669  11.448   8.577   9.795  0.0062  0.9345  0.0312
  195MOL0     C25670  11.527   8.707   9.774  0.2683 -1.2480  0.0630
  195MOL0     C25671  11.458   8.792   9.677 -1.0399 -0.3601 -0.5769
  195MOL0     C25672  11.403   8.879   9.606  0.0839  0.3131 -0.3545
  195MOL0     C25673  10.949   8.567  10.115 -0.7850 -0.5215 -0.5189
  195MOL0     C25674  10.814   8.599  10.115  0.0678  0.1110  0.3227
  195MOL0     H25675  10.450   8.797   9.649 -0.9410  0.7739 -1.2973
  195MOL0     H25676  10.244   8.867   9.586 -1.7208 -2.1052  0.2062
  195MOL0     H25677  10.007   8.988   9.570 -0.9848 -0.6144 -0.7071
  195MOL0     H25678  10.057   9.127   9.662  0.7371 -0.6107 -0.1301
  195MOL0     H25679   9.861   9.189   9.714 -2.6634 -0.8172  2.1751
  195MOL0     H25680   9.834   9.059   9.800  2.0330  4.1011  1.7404
  195MOL0     H25681   9.778   9.050   9.488  0.6295 -0.4511  0.1013
  195MOL0     H25682   9.656   9.076   9.604 -0.7402 -1.1046  1.6492
  195MOL0     H25683   9.825   8.820   9.583 -0.3039 -0.4074 -0.9430
  195MOL0     H25684   9.687   8.827   9.674  5.2219 -2.4679  2.1416
  195MOL0     H25685   9.553   8.889   9.457  1.8706  0.8443  1.2277
  195MOL0     H25686   9.601   8.719   9.497 -3.6401  0.6137  0.4443
  195MOL0     H25687   9.788   8.735   9.354  0.6575  0.7954  1.9171
  195MOL0     H25688   9.766   8.910   9.308  0.8158 -1.5016 -2.0761
  195MOL0     H25689   9.696   8.799   9.129  1.1358 -1.0781  0.6034
  195MOL0     H25690   9.628   8.660   9.205 -0.5779  0.4986 -3.2616
  195MOL0     H25691   9.508   8.947   9.199  1.1630 -0.4075 -0.9801
  195MOL0     H25692   9.424   8.813   9.271 -3.6291  2.0108 -1.6262
  195MOL0     H25693   9.588   8.907   8.904 -2.0244  0.8027 -3.6764
  195MOL0     H25694   9.432   8.641   8.693 -0.4271  0.1821  0.4740
  195MOL0     H25695   9.529   8.792   8.676 -1.1444  2.7845  0.3059
  195MOL0     H25696   9.326   8.920   8.663  3.0084  0.2358  1.2892
  195MOL0     H25697   9.230   8.783   8.698  0.6939  0.5059  0.9915
  195MOL0     H25698   9.322   8.673   8.475  1.3610  0.9253 -2.3406
  195MOL0     H25699   9.194   8.800   8.473 -0.3295 -0.5999  4.0048
  195MOL0     H25700   9.473   8.875   8.435 -1.3700 -0.0842  3.1362
  195MOL0     H25701   9.327   8.970   8.411  2.2937  1.5887 -0.4446
  195MOL0     H25702   9.512   9.015   8.245 -1.0136 -1.5307  0.9220
  195MOL0     H25703   9.714   9.028   8.103  4.0772 -1.6296 -0.4529
  195MOL0     H25704  10.144   8.968   8.025 -0.1961 -0.5969  1.0545
  195MOL0     H25705  10.321   9.030   7.886 -2.1920  3.9239  0.8660
  195MOL0     H25706  10.470   8.935   7.673 -0.1437  0.3297  1.9925
  195MOL0     H25707  10.473   9.101   7.751  2.2101 -2.8211  2.1133
  195MOL0     H25708  10.625   9.119   7.611  0.8554 -2.9595 -0.1104
  195MOL0     H25709  10.496   9.172   7.505  1.5302  0.0298 -1.3822
  195MOL0     H25710  10.504   8.969   7.384 -3.6835  0.6933  2.9813
  195MOL0     H25711  10.620   8.892   7.500  0.8457 -0.3761 -1.8305
  195MOL0     H25712  10.668   9.164   7.370 -1.7394 -0.0368  1.8780
  195MOL0     H25713  10.783   9.057   7.434 -0.9018  1.5239  0.0462
  195MOL0     H25714  10.621   9.001   7.196 -0.9761 -4.4899  1.6258
  195MOL0     H25715  10.747   8.887   7.255 -0.1701 -0.7998 -1.7732
  195MOL0     H25716  10.919   9.071   7.225  0.2009  1.7630 -1.1895
  195MOL0     H25717  10.790   9.173   7.162 -1.7265 -0.2142 -0.0028
  195MOL0     H25718  10.881   8.891   7.065 -2.0158 -0.9037 -1.6582
  195MOL0     H25719  10.750   8.984   6.988 -0.9351  2.8514  0.7362
  195MOL0     H25720  10.904   9.163   6.931  0.9962  0.7362  0.9051
  195MOL0     H25721  10.942   9.007   6.849 -4.6655  2.1767 -1.5999
  195MOL0     H25722  10.068   9.026   7.544 -0.7217  0.5323  0.0534
  195MOL0     H25723   9.867   8.946   7.699  1.9263 -1.0907 -0.7930
  195MOL0     H25724   9.631   8.636   7.960  1.7663  0.8047  2.2606
  195MOL0     H25725   9.418   8.625   8.125 -2.1778  2.6027 -0.2279
  195MOL0     H25726  10.129   8.923   9.992  1.9961  1.0002  0.6255
  195MOL0     H25727  10.322   8.773  10.064  0.8551  0.8295  0.7394
  195MOL0     H25728  10.776   8.676   9.786 -0.9716 -2.6884  0.3113
  195MOL0     H25729  11.017   8.626   9.793 -1.5187  0.5548 -0.3409
  195MOL0     H25730  11.192   8.461   9.827  0.8944  0.3507 -1.2702
  195MOL0     H25731  11.293   8.403   9.947  0.0594 -1.4320 -1.8552
  195MOL0     H25732  11.272   8.696   9.844 -2.8528 -1.5528 -0.5067
  195MOL0     H25733  11.374   8.655   9.972 -1.8151 -1.3319  1.5258
  195MOL0     H25734  11.405   8.524   9.709  1.3577 -3.2757  1.6917
  195MOL0     H25735  11.500   8.500   9.853 -0.6813  0.0042 -0.5621
  195MOL0     H25736  11.534   8.764   9.867 -1.3254  1.0004 -1.0813
  195MOL0     H25737  11.624   8.675   9.737 -0.0407 -3.0138  0.6817
  195MOL0     H25738  11.367   8.946   9.530 -0.0686  3.4649  2.3080
  195MOL0     H25739  11.007   8.531  10.199  0.0842 -2.1334 -1.7612
  195MOL0     H25740  10.750   8.602  10.203 -0.1963  1.5115  0.1060
  196MOL0     O25741   5.631  11.379   5.743  0.1057 -0.3824  0.4521
  196MOL0     C25742   5.542  11.302   5.700  0.1200  0.1837 -0.3227
  196MOL0     O25743   5.406  11.320   5.708  0.5072 -0.4665  1.3142
  196MOL0     C25744   5.340  11.436   5.750  0.0974 -0.2248  0.9635
  196MOL0     C25745   5.211  11.476   5.684 -0.1539 -1.1261  0.3036
  196MOL0     C25746   5.156  11.600   5.720 -0.3565 -1.1323 -0.4060
  196MOL0     C25747   5.210  11.682   5.820 -0.9725  1.4640  0.4538
  196MOL0     O25748   5.135  11.792   5.843 -0.3903  0.4476 -0.7373
  196MOL0     C25749   5.192  11.901   5.917 -0.3875 -0.4847  0.3488
  196MOL0     C25750   5.142  11.881   6.066 -0.2980 -0.7686  0.4774
  196MOL0     C25751   5.203  11.990   6.151 -0.8669  0.4316 -0.7531
  196MOL0     C25752   5.352  11.971   6.163  0.2064 -0.9174 -1.1521
  196MOL0     C25753   5.407  12.080   6.265  0.1751  0.4552 -1.0726
  196MOL0     C25754   5.553  12.058   6.294  0.4483  0.5388  0.4740
  196MOL0     C25755   5.632  12.164   6.371  0.1884  0.6607  0.8939
  196MOL0     C25756   5.779  12.127   6.400 -0.3397  0.0632 -0.1708
  196MOL0     N25757   5.866  12.128   6.281 -0.5844  1.0598  0.4798
  196MOL0     C25758   5.958  12.228   6.242  0.7658  0.0759 -0.5130
  196MOL0     C25759   5.995  12.194   6.121  1.2229  0.6144 -0.8153
  196MOL0     C25760   6.078  12.272   6.030 -1.2334 -0.1186  0.2325
  196MOL0     C25761   5.996  12.361   5.939  0.5072  0.1940  0.0673
  196MOL0     C25762   5.914  12.288   5.837 -0.8600 -0.0719  0.0079
  196MOL0     C25763   5.943  12.332   5.689 -1.2915 -0.4214 -0.6630
  196MOL0     O25764   5.926  12.477   5.677  0.6444  0.1358 -0.5999
  196MOL0     C25765   5.801  12.525   5.642 -0.2158 -0.0313  0.1528
  196MOL0     C25766   5.791  12.666   5.619 -0.7570 -0.0545 -0.5350
  196MOL0     C25767   5.661  12.717   5.595  0.1490 -0.0889 -0.7181
  196MOL0     C25768   5.554  12.623   5.572  0.6690 -0.7102  0.5642
  196MOL0     C25769   5.419  12.665   5.527  0.1360  0.8132  0.1333
  196MOL0     O25770   5.336  12.578   5.490 -0.3929  0.2248  0.0776
  196MOL0     C25771   5.201  12.603   5.486 -0.5642 -0.1455  0.1823
  196MOL0     C25772   5.133  12.524   5.389 -1.0619 -0.1395 -0.7906
  196MOL0     C25773   4.996  12.530   5.369  0.7675  0.9438  0.8596
  196MOL0     C25774   4.921  12.619   5.448  0.5705 -0.1419 -0.7169
  196MOL0     O25775   4.788  12.634   5.432  0.2986  0.2788 -0.3991
  196MOL0     C25776   4.713  12.720   5.515  0.9077 -0.1943 -0.5314
  196MOL0     C25777   4.565  12.691   5.503  0.0367 -0.4371 -0.8209
  196MOL0     C25778   4.515  12.703   5.358 -0.6520  0.6016  0.1615
  196MOL0     C25779   4.361  12.710   5.347  0.5654 -0.7746 -0.0751
  196MOL0     C25780   4.287  12.580   5.392 -0.2281 -0.1878 -0.2132
  196MOL0     C25781   4.151  12.622   5.449 -1.0545 -0.2577  0.7941
  196MOL0     C25782   4.066  12.499   5.471  0.9440  0.2947 -0.5194
  196MOL0     C25783   4.123  12.390   5.568  0.3527  0.6283 -0.2936
  196MOL0    Cl25784   3.984  12.286   5.591  0.2156  0.3880 -0.3401
  196MOL0     C25785   4.988  12.698   5.551 -0.5481  0.2352  0.5923
  196MOL0     C25786   5.130  12.693   5.563  0.2434 -0.2647 -0.1864
  196MOL0     O25787   5.395  12.788   5.530  0.1071 -0.3600 -0.0148
  196MOL0     C25788   5.564  12.491   5.591 -0.6500 -0.0319 -0.1590
  196MOL0     C25789   5.689  12.441   5.623 -0.7360 -0.8640 -0.2719
  196MOL0     N25790   5.939  12.066   6.088 -0.3394  0.1337 -0.5417
  196MOL0     N25791   5.866  12.032   6.188 -0.3097 -0.4024 -0.4599
  196MOL0     C25792   5.322  11.641   5.889 -0.0872 -0.1325 -0.5153
  196MOL0     C25793   5.384  11.522   5.857 -0.6584  0.0455 -0.1832
  196MOL0     C25794   5.575  11.191   5.617  0.0134  1.3685 -0.0804
  196MOL0     C25795   5.707  11.136   5.625  0.0345 -0.1762  0.5001
  196MOL0     C25796   5.750  11.028   5.541  0.5717  0.0639  0.7312
  196MOL0     C25797   5.659  10.983   5.449 -0.4446  1.0514  0.2571
  196MOL0     O25798   5.685  10.886   5.351 -0.1366  0.7314 -0.1502
  196MOL0     C25799   5.818  10.842   5.331 -0.2723  0.6991 -0.1769
  196MOL0     C25800   5.816  10.739   5.211 -0.7694  0.4865  0.7315
  196MOL0     C25801   5.755  10.606   5.261 -0.3346  0.6121  0.0758
  196MOL0     C25802   5.725  10.486   5.160  0.5330  0.6864  0.2417
  196MOL0     C25803   5.851  10.419   5.106 -0.0842 -0.1490 -0.6247
  196MOL0     C25804   5.957  10.381   5.063 -0.5418 -0.8752 -0.1685
  196MOL0     C25805   5.533  11.044   5.442 -0.0357 -0.8249  0.0246
  196MOL0     C25806   5.492  11.150   5.516 -0.2491 -0.5823  0.6464
  196MOL0     H25807   5.172  11.416   5.602 -1.8556  0.9904 -0.5288
  196MOL0     H25808   5.069  11.630   5.663 -0.0589 -2.2972 -1.5157
  196MOL0     H25809   5.160  11.999   5.879 -1.0844 -0.9149 -0.1812
  196MOL0     H25810   5.301  11.906   5.904 -0.5679  0.4727 -1.0341
  196MOL0     H25811   5.182  11.788   6.107  0.0304  0.3094  2.7819
  196MOL0     H25812   5.034  11.893   6.076  0.0107  2.5748  0.9190
  196MOL0     H25813   5.170  11.985   6.255  5.0240  2.1615  1.6566
  196MOL0     H25814   5.189  12.092   6.114  3.0016  1.5660  0.3779
  196MOL0     H25815   5.379  11.877   6.212 -1.7057 -1.2692 -0.7049
  196MOL0     H25816   5.405  11.996   6.071 -0.9098  5.1316 -0.5558
  196MOL0     H25817   5.370  12.066   6.367  3.2462  0.6012  0.1932
  196MOL0     H25818   5.388  12.185   6.240 -1.8691  1.1749  2.7508
  196MOL0     H25819   5.605  12.033   6.201  0.4664  0.2975  0.5479
  196MOL0     H25820   5.576  11.971   6.356 -0.1539  2.2844  3.3330
  196MOL0     H25821   5.627  12.246   6.299 -1.3660 -1.0499 -1.0819
  196MOL0     H25822   5.575  12.193   6.460 -2.4459 -0.3363 -0.3503
  196MOL0     H25823   5.788  12.026   6.441  0.9710  0.3588  0.3227
  196MOL0     H25824   5.814  12.192   6.481 -3.1505 -1.1168  2.1566
  196MOL0     H25825   5.968  12.325   6.289  1.4819 -0.2348 -0.0077
  196MOL0     H25826   6.118  12.193   5.965 -3.4768 -2.6405  1.7056
  196MOL0     H25827   6.164  12.320   6.076 -1.2317  0.4849 -0.3899
  196MOL0     H25828   6.061  12.437   5.893 -3.0536  3.4527 -0.0584
  196MOL0     H25829   5.920  12.412   5.999 -1.7903  0.0248 -2.5274
  196MOL0     H25830   5.930  12.180   5.841 -1.9267 -0.2810 -0.8176
  196MOL0     H25831   5.807  12.299   5.852 -0.8725  3.4757 -1.6424
  196MOL0     H25832   5.911  12.269   5.606  0.4909  0.7253 -2.3159
  196MOL0     H25833   6.051  12.327   5.674 -1.2624 -1.6426 -0.1395
  196MOL0     H25834   5.879  12.729   5.623 -0.1080 -0.8308 -1.9431
  196MOL0     H25835   5.649  12.824   5.580  0.1157 -0.3372 -2.7734
  196MOL0     H25836   5.187  12.446   5.335  1.9678  1.5780 -0.4480
  196MOL0     H25837   4.954  12.456   5.301  0.8601  1.2280  0.4902
  196MOL0     H25838   4.736  12.825   5.492  3.8446 -0.5182  0.4637
  196MOL0     H25839   4.748  12.696   5.616 -0.3899 -0.2759 -0.0875
  196MOL0     H25840   4.520  12.766   5.568  0.0147 -1.1841  0.0334
  196MOL0     H25841   4.545  12.593   5.545 -1.1970  0.8468  1.8153
  196MOL0     H25842   4.540  12.621   5.290  0.7695  1.5099 -0.4626
  196MOL0     H25843   4.557  12.795   5.318  1.2736  0.0857  0.8494
  196MOL0     H25844   4.328  12.793   5.409  3.2192  1.8302 -1.8346
  196MOL0     H25845   4.338  12.725   5.241  0.3281  1.8383  0.2726
  196MOL0     H25846   4.334  12.528   5.476 -1.6596 -0.8630  0.2087
  196MOL0     H25847   4.277  12.503   5.315  1.4173 -0.4944 -0.1562
  196MOL0     H25848   4.093  12.678   5.375 -1.7967 -0.4380  1.2257
  196MOL0     H25849   4.153  12.684   5.539  0.3157  0.4293  0.3158
  196MOL0     H25850   3.971  12.543   5.502  0.1102 -0.5205 -1.8001
  196MOL0     H25851   4.048  12.443   5.378 -1.8024 -3.2497  1.8702
  196MOL0     H25852   4.150  12.432   5.666  1.5743 -3.3576  1.2450
  196MOL0     H25853   4.213  12.337   5.537  0.2851 -0.2061  0.8731
  196MOL0     H25854   4.937  12.766   5.619  0.8014 -0.6936  2.6313
  196MOL0     H25855   5.174  12.752   5.643 -0.5454  0.1542 -0.0458
  196MOL0     H25856   5.489  12.415   5.568 -0.5518  0.5757 -2.8296
  196MOL0     H25857   5.696  12.334   5.634 -0.8507 -0.7785  0.7006
  196MOL0     H25858   5.373  11.692   5.971  0.6976 -0.9241 -0.4975
  196MOL0     H25859   5.469  11.481   5.911  0.5190  2.1712 -0.3066
  196MOL0     H25860   5.780  11.184   5.690 -0.2219  3.0330 -1.3788
  196MOL0     H25861   5.854  10.999   5.538  1.0092  1.5872  0.4640
  196MOL0     H25862   5.865  10.788   5.413  0.4707  0.5016 -0.7277
  196MOL0     H25863   5.884  10.927   5.312 -1.0595  1.9164  2.1726
  196MOL0     H25864   5.742  10.772   5.138  0.2720 -0.0517 -0.6132
  196MOL0     H25865   5.909  10.721   5.158 -0.2700 -0.5845  1.9039
  196MOL0     H25866   5.653  10.628   5.293 -1.4297 -0.7628 -2.2255
  196MOL0     H25867   5.811  10.570   5.348  0.5321  1.0494 -0.2883
  196MOL0     H25868   5.673  10.406   5.213 -0.7753  1.8494  0.7647
  196MOL0     H25869   5.673  10.517   5.069  1.8825 -0.5857 -1.0276
  196MOL0     H25870   6.055  10.345   5.042  0.0451 -2.9768  4.8206
  196MOL0     H25871   5.479  10.998   5.360  1.2378 -0.3059 -1.1553
  196MOL0     H25872   5.403  11.208   5.495  0.3627  0.0638 -0.2416
  197MOL0     O25873   2.314   9.459   8.500  0.6785  0.0606  0.2019
  197MOL0     C25874   2.233   9.531   8.555  0.6747  0.0710 -0.6685
  197MOL0     O25875   2.101   9.531   8.533  0.6552  0.4014 -0.2191
  197MOL0     C25876   2.041   9.448   8.443  0.5456  0.3217  0.4415
  197MOL0     C25877   2.107   9.364   8.346  0.1044 -0.6456 -0.6082
  197MOL0     C25878   2.031   9.285   8.264 -0.2515  0.5498  0.3581
  197MOL0     C25879   1.889   9.285   8.272 -0.4978  0.9909  0.2054
  197MOL0     O25880   1.818   9.192   8.204  0.9450  0.0669 -0.5873
  197MOL0     C25881   1.863   9.151   8.071 -0.4173 -0.3128  0.1476
  197MOL0     C25882   1.753   9.091   7.989  0.6926 -0.4327  1.1902
  197MOL0     C25883   1.657   9.216   7.957 -0.1679 -0.3760 -0.0912
  197MOL0     C25884   1.545   9.180   7.858 -0.2427 -0.9094  0.4915
  197MOL0     C25885   1.432   9.278   7.880 -0.0017 -0.6180  0.0868
  197MOL0     C25886   1.342   9.271   7.747 -0.1205  0.1632 -0.3690
  197MOL0     C25887   1.201   9.345   7.759 -1.5229 -0.9675 -0.2156
  197MOL0     C25888   1.178   9.448   7.657  0.1254 -0.3014 -0.6107
  197MOL0     N25889   1.216   9.588   7.676 -0.0058 -0.4391 -0.0548
  197MOL0     C25890   1.155   9.675   7.760 -0.2155 -0.4066  0.8603
  197MOL0     C25891   1.232   9.781   7.765 -0.7018  0.1276  0.0314
  197MOL0     C25892   1.204   9.912   7.846  0.4107  0.0756  0.1524
  197MOL0     C25893   1.309  10.023   7.833  0.6554  0.5279 -0.1190
  197MOL0     C25894   1.425   9.971   7.917 -0.2746 -0.6722 -0.0630
  197MOL0     C25895   1.537  10.080   7.944  0.0821 -1.1371  0.2233
  197MOL0     O25896   1.482  10.193   8.023 -0.2008  0.2735  0.2483
  197MOL0     C25897   1.492  10.313   7.961  0.2567 -0.0310 -0.0250
  197MOL0     C25898   1.438  10.335   7.829  0.0051  0.0183 -0.4342
  197MOL0     C25899   1.467  10.462   7.765 -1.3611  0.3258 -0.4352
  197MOL0     C25900   1.534  10.569   7.830  0.5187 -0.0188 -0.0451
  197MOL0     C25901   1.577  10.686   7.754 -1.1820 -1.0250  0.8240
  197MOL0     O25902   1.603  10.794   7.827  0.2028  0.1965 -0.1733
  197MOL0     C25903   1.663  10.904   7.775 -0.6638 -0.3549  0.3934
  197MOL0     C25904   1.799  10.909   7.763  0.0865  0.0146  0.0934
  197MOL0     C25905   1.859  11.019   7.701 -0.4060  0.5134 -0.4896
  197MOL0     C25906   1.789  11.127   7.666 -0.6634  0.1833 -0.7644
  197MOL0     O25907   1.839  11.237   7.593  0.0349 -0.0448 -0.8726
  197MOL0     C25908   1.983  11.250   7.572  0.5832 -0.8171  1.1389
  197MOL0     C25909   2.030  11.352   7.456 -0.1576 -0.0476 -0.2521
  197MOL0     C25910   1.956  11.482   7.447 -0.5218  0.6584  0.6448
  197MOL0     C25911   1.939  11.562   7.577 -0.1504 -0.5074 -0.9686
  197MOL0     C25912   1.865  11.701   7.554 -0.9275 -0.1435 -0.0469
  197MOL0     C25913   1.826  11.762   7.685  0.2539  0.5670  0.2735
  197MOL0     C25914   1.746  11.897   7.679  0.7791 -0.0652  0.2098
  197MOL0     C25915   1.676  11.930   7.819 -0.2473  0.9794  0.0615
  197MOL0    Cl25916   1.787  11.891   7.963  0.2009  0.0709  0.1760
  197MOL0     C25917   1.652  11.131   7.683 -0.8140  1.2040  0.2272
  197MOL0     C25918   1.593  11.020   7.739  0.4153 -0.0211 -0.3906
  197MOL0     O25919   1.601  10.684   7.633 -0.4529  0.2319 -0.5070
  197MOL0     C25920   1.558  10.550   7.969  0.0138 -0.0699  0.0890
  197MOL0     C25921   1.542  10.425   8.030  0.7894  1.0764  0.2535
  197MOL0     N25922   1.346   9.753   7.682  0.6511  0.2481 -0.0045
  197MOL0     N25923   1.336   9.643   7.631 -0.8655  0.8512 -0.1690
  197MOL0     C25924   1.833   9.351   8.375  0.0298  0.8525 -0.2269
  197MOL0     C25925   1.907   9.450   8.444  0.3262 -0.3471 -1.1905
  197MOL0     C25926   2.292   9.628   8.655 -0.2472  0.3231  0.3950
  197MOL0     C25927   2.203   9.717   8.717  0.2719  0.5566 -0.1743
  197MOL0     C25928   2.248   9.818   8.805  0.0180 -1.0958 -0.6969
  197MOL0     C25929   2.388   9.832   8.842  0.0587  0.2722 -0.0876
  197MOL0     O25930   2.438   9.923   8.934  0.6429 -0.3388 -0.2664
  197MOL0     C25931   2.354  10.032   8.981 -0.1789 -0.2108 -0.1980
  197MOL0     C25932   2.273   9.983   9.106 -0.5541  0.4036  0.0092
  197MOL0     C25933   2.365   9.967   9.233 -0.1481  0.1959 -0.0171
  197MOL0     C25934   2.283   9.943   9.355 -0.9470  0.1330  0.2761
  197MOL0     C25935   2.375   9.898   9.460  0.2285 -0.9123  0.0248
  197MOL0     C25936   2.458   9.868   9.547 -0.5542 -0.1779  0.4146
  197MOL0     C25937   2.477   9.742   8.784 -0.2443  0.1436 -0.4176
  197MOL0     C25938   2.426   9.645   8.691 -1.4611  0.8758 -0.3199
  197MOL0     H25939   2.214   9.361   8.325  0.0929 -1.5242 -0.5770
  197MOL0     H25940   2.077   9.231   8.181 -1.8699  2.8129 -2.1548
  197MOL0     H25941   1.954   9.090   8.075  0.0277  0.1782  5.8193
  197MOL0     H25942   1.895   9.245   8.024 -0.9832  0.1192  0.6101
  197MOL0     H25943   1.691   9.019   8.043 -1.1349  0.2135  0.0250
  197MOL0     H25944   1.786   9.041   7.897 -1.6375 -1.4797  0.8601
  197MOL0     H25945   1.714   9.304   7.928 -0.0912 -0.6516 -0.8009
  197MOL0     H25946   1.605   9.227   8.053  0.4868 -1.1408  0.3652
  197MOL0     H25947   1.581   9.185   7.755  2.4606 -4.1794  1.0908
  197MOL0     H25948   1.514   9.076   7.868 -0.5012 -1.1803 -2.2951
  197MOL0     H25949   1.475   9.379   7.881  2.9345 -1.6100 -3.0766
  197MOL0     H25950   1.385   9.254   7.976 -0.4587 -2.2892 -0.5207
  197MOL0     H25951   1.314   9.169   7.721  0.4032  0.0742 -0.5950
  197MOL0     H25952   1.407   9.303   7.665  1.2076 -2.6805 -0.5420
  197MOL0     H25953   1.115   9.278   7.746 -2.3807  0.2223 -0.8572
  197MOL0     H25954   1.201   9.388   7.860  0.1895  2.1347 -1.4114
  197MOL0     H25955   1.071   9.449   7.635  0.1450 -1.7036 -0.8583
  197MOL0     H25956   1.229   9.418   7.565  1.7565 -3.6706  1.2326
  197MOL0     H25957   1.053   9.657   7.794 -1.2770  2.2087 -0.6747
  197MOL0     H25958   1.175   9.902   7.951 -3.4423  1.3690 -0.6475
  197MOL0     H25959   1.115   9.961   7.806  0.1366 -0.5804 -0.0644
  197MOL0     H25960   1.264  10.115   7.874  0.7438  0.2186  0.6747
  197MOL0     H25961   1.331  10.039   7.727  0.8221 -1.6052 -0.4322
  197MOL0     H25962   1.381   9.932   8.009 -4.1204  0.7387 -1.1347
  197MOL0     H25963   1.490   9.905   7.859  0.0303  0.4218 -1.0155
  197MOL0     H25964   1.572  10.122   7.849  0.5934  0.4188  1.0748
  197MOL0     H25965   1.621  10.036   7.999 -1.0809 -3.6143  0.1799
  197MOL0     H25966   1.386  10.258   7.773  0.8597 -0.6483 -0.3446
  197MOL0     H25967   1.435  10.484   7.663 -1.6148  0.1524 -0.3941
  197MOL0     H25968   1.858  10.824   7.794  2.4271  1.0142 -1.2934
  197MOL0     H25969   1.966  11.028   7.681 -0.3608  1.1955 -0.0021
  197MOL0     H25970   2.027  11.153   7.549 -0.1035 -1.0038  0.5844
  197MOL0     H25971   2.035  11.276   7.665 -0.6947  2.6506  1.0474
  197MOL0     H25972   2.017  11.297   7.363  1.0904 -2.1695  0.7598
  197MOL0     H25973   2.138  11.364   7.465  0.3706 -2.7588 -2.0469
  197MOL0     H25974   1.854  11.461   7.414 -0.8676  0.6885  1.6447
  197MOL0     H25975   2.008  11.532   7.364  0.1673 -1.5263 -0.3005
  197MOL0     H25976   1.890  11.492   7.645  2.2830 -0.6541  0.7431
  197MOL0     H25977   2.038  11.587   7.616 -1.8193  1.3366  2.5874
  197MOL0     H25978   1.778  11.669   7.496 -1.2018 -0.3647  0.4803
  197MOL0     H25979   1.925  11.784   7.516  0.8238  0.1693  3.1030
  197MOL0     H25980   1.919  11.772   7.741 -0.2128  4.3579  0.6141
  197MOL0     H25981   1.758  11.687   7.727 -1.0691  0.5884 -1.6972
  197MOL0     H25982   1.823  11.971   7.657  1.2367  0.0329  1.9926
  197MOL0     H25983   1.667  11.913   7.604  0.9793  1.9844  0.3899
  197MOL0     H25984   1.580  11.878   7.813  0.5327 -0.3745 -1.1396
  197MOL0     H25985   1.650  12.036   7.829  0.8618  1.5361 -2.2272
  197MOL0     H25986   1.589  11.208   7.641 -1.1726 -0.3641 -2.3089
  197MOL0     H25987   1.487  11.012   7.764  0.4677  2.1037  0.7003
  197MOL0     H25988   1.606  10.631   8.023 -1.4231  0.2947  0.8707
  197MOL0     H25989   1.588  10.410   8.127  0.4257  0.4692  0.3359
  197MOL0     H25990   1.728   9.359   8.403  0.7065  4.1609  1.8460
  197MOL0     H25991   1.867   9.525   8.511  3.8690  0.6570  0.0662
  197MOL0     H25992   2.099   9.724   8.687  1.2542  0.3064 -4.2270
  197MOL0     H25993   2.176   9.899   8.815 -2.7536 -3.1893 -2.1385
  197MOL0     H25994   2.285  10.080   8.911  2.2704  0.2256 -2.4832
  197MOL0     H25995   2.424  10.107   9.020  0.8444 -1.4655  0.4367
  197MOL0     H25996   2.178  10.034   9.123 -1.7190 -1.7956  0.4111
  197MOL0     H25997   2.243   9.880   9.084 -2.7679  1.0785 -0.3186
  197MOL0     H25998   2.415  10.064   9.240 -3.0863  1.7900  0.9617
  197MOL0     H25999   2.436   9.887   9.213 -0.9279 -0.9637  1.6285
  197MOL0     H26000   2.230  10.033   9.387 -3.2951 -0.5094 -1.4906
  197MOL0     H26001   2.201   9.872   9.344 -1.1712  0.5057 -0.4995
  197MOL0     H26002   2.521   9.834   9.627 -2.5520 -1.8422  1.4023
  197MOL0     H26003   2.584   9.749   8.802  0.0552 -0.2336 -1.9134
  197MOL0     H26004   2.500   9.580   8.645 -0.3353  1.5637  0.4671
  198MOL0     O26005   9.630   8.351  10.758  0.4162 -0.7954 -0.0766
  198MOL0     C26006   9.506   8.344  10.761  0.1711  0.1363  0.1893
  198MOL0     O26007   9.425   8.250  10.702  0.9017 -0.0337  0.7687
  198MOL0     C26008   9.471   8.126  10.680 -0.7310 -0.1109  0.2247
  198MOL0     C26009   9.550   8.106  10.562 -0.6382 -0.0884  0.2069
  198MOL0     C26010   9.585   7.975  10.523 -0.6822  0.4332 -0.6415
  198MOL0     C26011   9.550   7.861  10.600  0.2185  0.2046 -0.1880
  198MOL0     O26012   9.590   7.736  10.581 -0.2510  0.2919 -0.1685
  198MOL0     C26013   9.591   7.676  10.450 -0.2387 -0.7831 -1.1257
  198MOL0     C26014   9.643   7.531  10.477 -0.3415 -0.0907 -0.6395
  198MOL0     C26015   9.642   7.443  10.353  0.1009  0.0175  0.8567
  198MOL0     C26016   9.678   7.297  10.392 -0.6776  0.3041  0.2977
  198MOL0     C26017   9.819   7.280  10.460 -0.0371 -0.6545  0.0711
  198MOL0     C26018   9.928   7.278  10.355  0.6719 -0.9298 -1.3615
  198MOL0     C26019  10.066   7.311  10.417 -0.3533 -0.1733  0.2530
  198MOL0     C26020  10.170   7.353  10.302  0.1222 -0.6443 -0.1204
  198MOL0     N26021  10.183   7.238  10.213  1.2328  0.1644  0.2808
  198MOL0     C26022  10.111   7.218  10.092 -0.4745 -0.6928  0.5680
  198MOL0     C26023  10.148   7.094  10.059 -0.3478 -0.4741  0.2536
  198MOL0     C26024  10.101   7.037   9.924 -0.7490 -0.0133 -0.0336
  198MOL0     C26025   9.962   7.001   9.946  0.3224  0.0207  0.2021
  198MOL0     C26026   9.934   6.909  10.072  0.1901  0.7776 -0.6332
  198MOL0     C26027  10.015   6.775  10.067  0.6262 -0.2911 -0.0483
  198MOL0     O26028   9.994   6.701   9.940 -0.2962 -0.3084 -0.3263
  198MOL0     C26029   9.869   6.659   9.907  0.5972  0.0857 -0.1692
  198MOL0     C26030   9.819   6.675   9.772  0.1716 -0.0604  0.3656
  198MOL0     C26031   9.694   6.619   9.744  0.3757  0.0764 -0.0864
  198MOL0     C26032   9.606   6.571   9.850 -0.5690 -0.2836 -0.3265
  198MOL0     C26033   9.465   6.523   9.814 -0.3267 -0.6158  0.0076
  198MOL0     O26034   9.432   6.531   9.680 -0.4583 -0.0634  0.1273
  198MOL0     C26035   9.312   6.476   9.638 -0.9620 -0.4427 -0.1010
  198MOL0     C26036   9.192   6.544   9.646 -1.0328 -0.5950  0.2466
  198MOL0     C26037   9.077   6.491   9.596  0.0506 -0.0102 -0.0783
  198MOL0     C26038   9.064   6.362   9.537 -0.1859  0.1337 -1.0957
  198MOL0     O26039   8.940   6.305   9.526  0.9069  0.1489  0.2454
  198MOL0     C26040   8.822   6.387   9.525 -0.7886  0.6524 -0.6557
  198MOL0     C26041   8.813   6.465   9.392  0.0033 -0.4840  0.1559
  198MOL0     C26042   8.675   6.525   9.373  0.5348 -0.5721  0.7692
  198MOL0     C26043   8.638   6.563   9.238  0.8803  0.3783  0.4273
  198MOL0     C26044   8.729   6.658   9.172 -0.1156  1.4148  0.3584
  198MOL0     C26045   8.686   6.687   9.023  0.9822 -0.0988 -0.3298
  198MOL0     C26046   8.783   6.785   8.959 -0.0676  0.2300  1.3177
  198MOL0     C26047   8.763   6.799   8.804  0.3744  0.2427  0.0326
  198MOL0    Cl26048   8.916   6.830   8.721  0.2870 -0.1277 -0.1770
  198MOL0     C26049   9.187   6.289   9.533 -0.2444 -0.6304 -0.3060
  198MOL0     C26050   9.309   6.344   9.582  0.6597  0.0580 -1.2025
  198MOL0     O26051   9.384   6.490   9.901  0.8649  0.4071 -0.2360
  198MOL0     C26052   9.667   6.550   9.977 -0.3517 -0.2138 -0.2092
  198MOL0     C26053   9.789   6.604  10.004  0.0772 -0.1062 -0.8664
  198MOL0     N26054  10.222   7.029  10.158  0.6129  0.0258  0.0587
  198MOL0     N26055  10.243   7.115  10.252  0.4648 -0.5803  0.0501
  198MOL0     C26056   9.476   7.883  10.711  0.9810  1.2733 -0.0685
  198MOL0     C26057   9.427   8.011  10.751  0.1855 -0.3229  0.2386
  198MOL0     C26058   9.440   8.453  10.830  0.6767  0.1253 -0.2955
  198MOL0     C26059   9.511   8.538  10.920  0.0961 -0.9731  0.4212
  198MOL0     C26060   9.453   8.648  10.983 -1.0080  0.7106 -0.8728
  198MOL0     C26061   9.324   8.680  10.943 -0.6873 -0.3408 -0.4724
  198MOL0     O26062   9.267   8.793  10.991  0.7584  0.7680 -0.0103
  198MOL0     C26063   9.325   8.865  11.097 -1.2038 -0.0265 -0.6142
  198MOL0     C26064   9.246   8.980  11.142 -0.6730 -0.5799 -0.5820
  198MOL0     C26065   9.297   9.056  11.270  0.4378  0.1458 -0.1722
  198MOL0     C26066   9.247   8.993  11.403 -0.0182 -0.8048  0.9622
  198MOL0     C26067   9.231   8.843  11.408  0.2375  0.4594 -0.4731
  198MOL0     C26068   9.219   8.725  11.435  0.2795  0.2624  0.7268
  198MOL0     C26069   9.250   8.597  10.864  0.1711  0.0493  0.4775
  198MOL0     C26070   9.303   8.475  10.819 -0.4012  0.0550  0.7451
  198MOL0     H26071   9.574   8.199  10.512 -0.3214  1.7278  3.4680
  198MOL0     H26072   9.644   7.966  10.432  0.7898  1.6759  0.1380
  198MOL0     H26073   9.665   7.722  10.385  0.5756  0.5003  0.6119
  198MOL0     H26074   9.491   7.671  10.406 -1.3915 -2.7988  1.4501
  198MOL0     H26075   9.576   7.469  10.538 -2.5430 -0.5009 -3.3130
  198MOL0     H26076   9.741   7.535  10.525 -1.1272 -3.2808  1.6026
  198MOL0     H26077   9.721   7.482  10.288  1.7383 -0.3571  2.5429
  198MOL0     H26078   9.547   7.442  10.298  0.6502  0.1159 -0.1125
  198MOL0     H26079   9.610   7.268  10.473 -1.3999 -2.5332 -1.2059
  198MOL0     H26080   9.678   7.233  10.303 -1.9695  0.9857 -0.2207
  198MOL0     H26081   9.829   7.186  10.514 -0.5260 -0.4985  0.4334
  198MOL0     H26082   9.845   7.358  10.532  0.5748 -1.2539  0.5106
  198MOL0     H26083   9.904   7.350  10.277  0.9641 -0.4540 -1.0182
  198MOL0     H26084   9.926   7.177  10.312 -2.0491 -1.1583 -0.8579
  198MOL0     H26085  10.048   7.392  10.489  2.4171 -0.5117  1.4418
  198MOL0     H26086  10.097   7.221  10.471  0.7500 -0.2197 -0.4191
  198MOL0     H26087  10.269   7.363  10.348  0.2916 -0.9458 -0.4144
  198MOL0     H26088  10.133   7.435  10.240 -1.5852 -2.5178 -1.7125
  198MOL0     H26089  10.055   7.292  10.037 -0.5886  0.8055  2.5922
  198MOL0     H26090  10.162   6.947   9.910  2.0466  1.6002  1.0712
  198MOL0     H26091  10.125   7.097   9.836  0.9395  0.0646  0.4538
  198MOL0     H26092   9.918   6.947   9.863  1.5277 -0.4227 -0.1755
  198MOL0     H26093   9.904   7.088   9.977  0.8923 -0.7434  3.9330
  198MOL0     H26094   9.938   6.950  10.173 -3.7954 -0.1694  0.0770
  198MOL0     H26095   9.828   6.886  10.066  0.3389  0.2192 -1.4202
  198MOL0     H26096   9.993   6.728  10.163 -2.2434  5.1830  2.3818
  198MOL0     H26097  10.120   6.807  10.074 -0.0054  2.1603 -0.7172
  198MOL0     H26098   9.865   6.741   9.700 -0.5348 -1.6584 -1.6410
  198MOL0     H26099   9.659   6.631   9.641  1.2241  1.7030 -0.2051
  198MOL0     H26100   9.198   6.632   9.710 -1.1698 -1.7711  1.9220
  198MOL0     H26101   8.992   6.559   9.602 -0.5718 -0.3387 -3.1563
  198MOL0     H26102   8.803   6.445   9.616 -0.5091  0.6348 -0.5859
  198MOL0     H26103   8.737   6.318   9.532 -0.6478  0.6580  2.5387
  198MOL0     H26104   8.834   6.389   9.315  4.3245 -0.6875  1.3128
  198MOL0     H26105   8.893   6.538   9.377  0.0154 -0.7812 -1.4119
  198MOL0     H26106   8.668   6.611   9.441  1.9687 -1.0175  1.5340
  198MOL0     H26107   8.598   6.460   9.414  1.0250  0.1714  3.0291
  198MOL0     H26108   8.618   6.472   9.180 -1.9841  1.4354 -0.3992
  198MOL0     H26109   8.537   6.604   9.240 -1.2072 -4.0056 -1.8174
  198MOL0     H26110   8.835   6.632   9.182 -0.2734  0.1002 -1.0898
  198MOL0     H26111   8.713   6.755   9.220 -0.9775  2.9187 -2.7279
  198MOL0     H26112   8.581   6.719   9.023  0.8191 -0.5279  1.0418
  198MOL0     H26113   8.686   6.592   8.969  0.4870  0.5025 -1.4043
  198MOL0     H26114   8.775   6.890   8.988  2.5133  1.6976 -2.5405
  198MOL0     H26115   8.885   6.744   8.963  0.3810  0.4840 -3.1280
  198MOL0     H26116   8.703   6.889   8.790 -1.6714 -1.0256  0.2437
  198MOL0     H26117   8.715   6.711   8.759  1.0924  0.0467 -0.3702
  198MOL0     H26118   9.186   6.181   9.516  2.8557 -0.8277  0.1740
  198MOL0     H26119   9.398   6.281   9.584 -0.4529 -1.5762  0.0639
  198MOL0     H26120   9.613   6.494  10.053  2.0823  0.8527  2.4982
  198MOL0     H26121   9.822   6.567  10.101 -1.5441  1.2256  0.2562
  198MOL0     H26122   9.438   7.796  10.762  1.6197  1.5414  0.8912
  198MOL0     H26123   9.359   8.032  10.833 -0.6952  2.6531 -1.0951
  198MOL0     H26124   9.613   8.506  10.936 -0.1780 -2.4947 -0.6657
  198MOL0     H26125   9.515   8.714  11.043 -1.9225 -0.9780  2.1378
  198MOL0     H26126   9.427   8.896  11.071 -0.3120 -1.2888  1.1547
  198MOL0     H26127   9.346   8.793  11.177  0.0937  0.7514 -0.2193
  198MOL0     H26128   9.230   9.054  11.063 -0.0969  0.1839 -0.0018
  198MOL0     H26129   9.146   8.935  11.152  0.1730 -3.1274 -2.5483
  198MOL0     H26130   9.259   9.157  11.255 -0.5006 -0.1323  0.2882
  198MOL0     H26131   9.406   9.056  11.261  0.3804  2.6529 -1.6834
  198MOL0     H26132   9.315   9.036  11.477 -0.4354  0.2185  0.7694
  198MOL0     H26133   9.148   9.036  11.419 -0.1899 -0.9833  0.4066
  198MOL0     H26134   9.189   8.622  11.448 -2.9968  0.8723 -0.9462
  198MOL0     H26135   9.152   8.629  10.828  0.5078  2.9433  1.8439
  198MOL0     H26136   9.247   8.403  10.758 -1.0184 -0.0202  1.3871
  199MOL0     O26137   6.332  10.715   8.446 -0.6821  0.1635 -0.1685
  199MOL0     C26138   6.292  10.678   8.554 -0.4806 -0.5877 -0.7211
  199MOL0     O26139   6.180  10.730   8.618  0.7253  0.1580  0.2121
  199MOL0     C26140   6.088  10.799   8.541 -0.4672  0.0051  0.1400
  199MOL0     C26141   6.029  10.745   8.417 -0.6807 -0.4355  0.6357
  199MOL0     C26142   5.931  10.817   8.358  0.0241  0.7700 -0.1473
  199MOL0     C26143   5.877  10.932   8.425  1.2984 -0.9455  1.1678
  199MOL0     O26144   5.756  10.975   8.361 -0.3085  0.0466  0.1099
  199MOL0     C26145   5.631  10.942   8.430 -0.5814 -0.2971 -0.0819
  199MOL0     C26146   5.517  10.932   8.330  0.3335 -0.3729 -0.5339
  199MOL0     C26147   5.392  10.897   8.396  0.4145 -0.0452  0.4405
  199MOL0     C26148   5.274  10.905   8.302 -0.4620 -0.2043  0.6965
  199MOL0     C26149   5.152  10.853   8.383 -0.1155 -0.4631  0.2442
  199MOL0     C26150   5.017  10.830   8.308  0.8947 -1.3042  0.4100
  199MOL0     C26151   4.967  10.951   8.239  0.2883  0.3581  0.0667
  199MOL0     C26152   4.891  10.921   8.111 -0.1368  0.3316 -0.4267
  199MOL0     N26153   4.768  10.836   8.130 -0.9912 -0.5593 -0.2250
  199MOL0     C26154   4.653  10.881   8.161  0.0222 -0.1742 -0.2462
  199MOL0     C26155   4.578  10.773   8.172  1.1707  0.1325  0.5327
  199MOL0     C26156   4.443  10.778   8.227 -0.0105 -0.1462 -0.2871
  199MOL0     C26157   4.431  10.680   8.346 -0.3137 -0.3453  0.4629
  199MOL0     C26158   4.292  10.670   8.403  0.4238 -0.6056  0.4104
  199MOL0     C26159   4.276  10.552   8.500  0.2801 -0.5173  0.3182
  199MOL0     O26160   4.325  10.594   8.630 -0.8523 -0.2551  0.6608
  199MOL0     C26161   4.236  10.647   8.712  0.1292  0.0343 -0.1386
  199MOL0     C26162   4.108  10.585   8.737  0.6419  0.5720  0.5215
  199MOL0     C26163   4.011  10.623   8.834 -0.7484 -1.2597 -0.2598
  199MOL0     C26164   4.045  10.742   8.909 -0.6680 -0.3934  1.0713
  199MOL0     C26165   3.954  10.802   9.011  0.5206 -0.6988  0.3025
  199MOL0     O26166   3.824  10.766   9.003 -0.4562  0.1059 -0.9188
  199MOL0     C26167   3.720  10.825   9.067  0.1609  0.7656  0.3160
  199MOL0     C26168   3.684  10.951   9.030  0.6577  0.1001  0.4062
  199MOL0     C26169   3.589  11.030   9.090  0.2085  0.2004 -0.0755
  199MOL0     C26170   3.508  10.977   9.199  0.0817 -0.2400  0.9014
  199MOL0     O26171   3.414  11.038   9.277 -0.5298 -0.2319  0.0055
  199MOL0     C26172   3.370  11.164   9.215  0.7009  0.4801 -0.3309
  199MOL0     C26173   3.262  11.237   9.287  1.2007 -0.6008  0.2305
  199MOL0     C26174   3.294  11.279   9.430  0.4669  0.7378  1.0645
  199MOL0     C26175   3.197  11.382   9.490  0.0281 -0.4486  0.2587
  199MOL0     C26176   3.201  11.364   9.636 -0.0113 -0.2973  0.7350
  199MOL0     C26177   3.094  11.449   9.691  0.5346 -0.1403 -0.4706
  199MOL0     C26178   3.117  11.441   9.844  0.2249 -0.1950  0.1147
  199MOL0     C26179   3.028  11.540   9.924 -0.6329 -0.3274  0.5145
  199MOL0    Cl26180   2.867  11.466   9.954 -0.0380  0.0129  0.2732
  199MOL0     C26181   3.532  10.843   9.235  0.1640 -0.0840  0.4622
  199MOL0     C26182   3.636  10.767   9.173  1.1360 -0.1715  0.5825
  199MOL0     O26183   3.994  10.899   9.076  0.2168  0.3161  0.7600
  199MOL0     C26184   4.176  10.791   8.897 -0.6450  0.6193 -0.4026
  199MOL0     C26185   4.267  10.746   8.807 -0.0591 -0.4450  0.4926
  199MOL0     N26186   4.648  10.663   8.155  0.2385  0.0355 -0.1128
  199MOL0     N26187   4.761  10.702   8.117 -0.2884 -0.1004  0.1987
  199MOL0     C26188   5.920  10.962   8.548 -0.6424 -0.3954 -0.9172
  199MOL0     C26189   6.024  10.892   8.611  0.0162 -0.7283  0.3665
  199MOL0     C26190   6.376  10.573   8.624  0.7569 -0.5182 -0.4560
  199MOL0     C26191   6.362  10.552   8.768  0.5637  0.0070  0.4736
  199MOL0     C26192   6.466  10.476   8.838  0.7025 -0.2234  0.4513
  199MOL0     C26193   6.570  10.418   8.767  0.3425  0.7429 -0.1636
  199MOL0     O26194   6.664  10.360   8.851 -0.1225  0.2901  0.2637
  199MOL0     C26195   6.715  10.240   8.794 -0.5762 -0.1470 -0.2106
  199MOL0     C26196   6.782  10.161   8.896 -0.5546  0.2766  0.2013
  199MOL0     C26197   6.835  10.019   8.860  0.2507  0.4982 -0.2607
  199MOL0     C26198   6.908   9.957   8.984  0.1750  0.5652  0.2082
  199MOL0     C26199   6.817   9.912   9.087 -0.1897 -0.5868 -0.0164
  199MOL0     C26200   6.736   9.871   9.166  0.0060 -0.5450  0.0660
  199MOL0     C26201   6.585  10.444   8.632 -0.3113  0.1908 -0.7843
  199MOL0     C26202   6.483  10.507   8.561 -1.1199 -0.2568 -0.3664
  199MOL0     H26203   6.073  10.664   8.360  1.3785  0.2591  1.1741
  199MOL0     H26204   5.899  10.776   8.262  0.6557 -3.9640  1.4005
  199MOL0     H26205   5.607  11.014   8.509 -4.3101 -0.5144 -0.8224
  199MOL0     H26206   5.658  10.854   8.489  1.7662  1.3136  1.4239
  199MOL0     H26207   5.539  10.863   8.249 -2.9910 -0.5617 -1.4317
  199MOL0     H26208   5.513  11.027   8.277  3.7053 -1.7891 -3.7889
  199MOL0     H26209   5.361  10.975   8.466 -1.9901 -0.2719 -0.2652
  199MOL0     H26210   5.410  10.801   8.446  0.8566 -1.0086 -1.4478
  199MOL0     H26211   5.254  10.999   8.250  2.6936 -1.1319 -2.5509
  199MOL0     H26212   5.307  10.840   8.220 -3.5154  0.4676 -1.2040
  199MOL0     H26213   5.127  10.922   8.464 -0.4751  0.4379 -0.6015
  199MOL0     H26214   5.182  10.763   8.437 -0.5998 -2.1939 -2.1878
  199MOL0     H26215   4.950  10.802   8.390  0.2801 -1.0775 -0.0123
  199MOL0     H26216   5.029  10.740   8.247 -4.1102  0.2465 -3.4468
  199MOL0     H26217   4.893  10.988   8.312 -1.8721 -1.6115 -0.9851
  199MOL0     H26218   5.041  11.031   8.225  0.9624 -0.1853  0.4641
  199MOL0     H26219   4.958  10.880   8.035 -0.0830  1.2371 -0.8849
  199MOL0     H26220   4.851  11.020   8.088  1.3998  1.0648 -0.0842
  199MOL0     H26221   4.627  10.986   8.171 -0.9952 -0.4624  0.2362
  199MOL0     H26222   4.379  10.755   8.141 -1.0300  3.9928 -0.8689
  199MOL0     H26223   4.418  10.884   8.242 -0.4740  0.0186 -2.0224
  199MOL0     H26224   4.494  10.721   8.425  1.5862 -1.3018 -0.4791
  199MOL0     H26225   4.454  10.579   8.313 -0.0287  0.2517 -1.2870
  199MOL0     H26226   4.267  10.766   8.450 -2.7400 -1.6116  1.0239
  199MOL0     H26227   4.229  10.652   8.315  0.4934  0.8214  0.0308
  199MOL0     H26228   4.338  10.467   8.468  4.5919  3.4517 -3.5713
  199MOL0     H26229   4.176  10.510   8.506  1.5417 -3.5714  2.4789
  199MOL0     H26230   4.093  10.489   8.689  1.5999  0.2049  0.9329
  199MOL0     H26231   3.925  10.565   8.864 -2.0035  1.7489  2.6814
  199MOL0     H26232   3.741  10.993   8.948 -2.6539  0.8676 -1.7169
  199MOL0     H26233   3.584  11.133   9.056 -2.3387 -0.8678 -3.4941
  199MOL0     H26234   3.326  11.141   9.118  4.4127 -0.5206 -1.9780
  199MOL0     H26235   3.452  11.234   9.197  0.7266  0.3500 -0.7352
  199MOL0     H26236   3.169  11.179   9.285  1.2293 -0.6730  0.9250
  199MOL0     H26237   3.244  11.331   9.234  2.2792 -1.8326 -2.5160
  199MOL0     H26238   3.390  11.328   9.446  0.7700  0.8796 -0.9135
  199MOL0     H26239   3.293  11.191   9.495 -0.6917  0.0258  0.1201
  199MOL0     H26240   3.246  11.477   9.468  2.8066 -1.1938  2.5649
  199MOL0     H26241   3.091  11.365   9.470 -0.4102 -2.7028  3.5947
  199MOL0     H26242   3.297  11.384   9.684 -0.3298  1.1289  0.8136
  199MOL0     H26243   3.169  11.265   9.671  1.4357 -0.7170  0.9497
  199MOL0     H26244   2.991  11.419   9.671  0.1094  1.2744 -0.5132
  199MOL0     H26245   3.102  11.555   9.665  2.8127  0.9998  3.8437
  199MOL0     H26246   3.086  11.343   9.883 -0.3538 -0.0507  0.0362
  199MOL0     H26247   3.221  11.464   9.866 -0.2121 -1.2931  4.4427
  199MOL0     H26248   3.021  11.631   9.864  2.6546 -1.7862 -2.5106
  199MOL0     H26249   3.086  11.559  10.014 -1.8900  0.0744  1.2588
  199MOL0     H26250   3.472  10.783   9.302 -0.3394  0.5343  0.5781
  199MOL0     H26251   3.639  10.664   9.209 -0.4788  0.2999  2.2236
  199MOL0     H26252   4.205  10.876   8.958  0.9967 -0.7844  0.8748
  199MOL0     H26253   4.364  10.794   8.808 -0.1380 -0.2856  0.6153
  199MOL0     H26254   5.861  11.033   8.606  1.5472  0.2730  0.6362
  199MOL0     H26255   6.038  10.911   8.716  0.4615 -3.5340  0.8901
  199MOL0     H26256   6.277  10.597   8.818  1.5159  2.5065 -0.0318
  199MOL0     H26257   6.466  10.455   8.944 -2.6230 -4.5599 -0.0994
  199MOL0     H26258   6.794  10.271   8.724  1.0107 -0.6442  1.2754
  199MOL0     H26259   6.644  10.184   8.733  1.5000 -2.3972 -0.7227
  199MOL0     H26260   6.869  10.215   8.933 -0.5840  1.1605 -0.9665
  199MOL0     H26261   6.706  10.144   8.973  1.1119 -0.5073  1.7213
  199MOL0     H26262   6.913  10.024   8.784  0.7158  0.2233  0.1996
  199MOL0     H26263   6.748   9.963   8.823 -1.7519  3.5981 -0.5967
  199MOL0     H26264   6.978   9.879   8.954 -0.8956  0.9985 -4.1196
  199MOL0     H26265   6.970  10.032   9.034 -0.9598  1.7100 -0.0484
  199MOL0     H26266   6.656   9.843   9.232 -3.1604  1.7452 -2.5105
  199MOL0     H26267   6.670  10.390   8.592 -0.1140  2.1049 -3.1720
  199MOL0     H26268   6.516  10.513   8.458 -0.8563 -1.0092 -0.3326
  200MOL0     O26269   4.889   5.188   8.428  0.0155  0.3253 -0.1203
  200MOL0     C26270   4.795   5.222   8.358 -0.0868  0.6789  0.8352
  200MOL0     O26271   4.792   5.336   8.276  0.1557 -0.2345 -0.1084
  200MOL0     C26272   4.888   5.427   8.284 -0.4798 -0.2239 -1.0840
  200MOL0     C26273   4.947   5.457   8.169 -0.5718  0.4345  1.0238
  200MOL0     C26274   5.051   5.547   8.158 -0.0907 -1.1288  0.5080
  200MOL0     C26275   5.098   5.609   8.279  0.5684 -0.3973 -0.0196
  200MOL0     O26276   5.206   5.686   8.270  0.0594  0.0583  0.3774
  200MOL0     C26277   5.169   5.826   8.279 -0.5466 -0.5863  0.0398
  200MOL0     C26278   5.234   5.893   8.401  0.1795 -0.3999 -0.1963
  200MOL0     C26279   5.382   5.929   8.383  0.1503  0.1602  0.3462
  200MOL0     C26280   5.406   6.031   8.276  0.8092  0.1820  0.3195
  200MOL0     C26281   5.546   6.085   8.282 -0.4983 -0.6429  0.6649
  200MOL0     C26282   5.579   6.186   8.167 -0.0075 -0.6032  0.2138
  200MOL0     C26283   5.731   6.250   8.178  0.9691 -0.0533 -0.3149
  200MOL0     C26284   5.844   6.145   8.171  0.4079 -0.0282  1.0654
  200MOL0     N26285   5.976   6.201   8.130 -0.0171  0.4723 -0.5144
  200MOL0     C26286   6.080   6.260   8.206 -0.9123 -0.0556 -0.4169
  200MOL0     C26287   6.181   6.285   8.124  0.0210  0.1403  0.0722
  200MOL0     C26288   6.299   6.373   8.140  0.4832  0.1453  0.5956
  200MOL0     C26289   6.415   6.304   8.214 -0.7302  0.0129  0.1587
  200MOL0     C26290   6.531   6.401   8.255  0.4845  0.8657  0.0805
  200MOL0     C26291   6.602   6.471   8.142  0.4257  0.2037 -0.6141
  200MOL0     O26292   6.536   6.562   8.061  1.0098 -0.1570  0.8140
  200MOL0     C26293   6.562   6.565   7.924  0.1405  0.3864 -1.1533
  200MOL0     C26294   6.527   6.447   7.853  0.6350 -0.8534  1.4244
  200MOL0     C26295   6.562   6.439   7.717 -0.0303 -0.4843  0.2630
  200MOL0     C26296   6.620   6.555   7.653  0.8230  0.0509  0.7029
  200MOL0     C26297   6.663   6.558   7.505  1.2536 -0.4421 -0.4720
  200MOL0     O26298   6.745   6.653   7.452 -0.5777  0.0034 -0.1690
  200MOL0     C26299   6.756   6.646   7.314 -0.3862 -0.3770  0.0936
  200MOL0     C26300   6.650   6.634   7.221 -0.0011  0.1201  0.2706
  200MOL0     C26301   6.673   6.631   7.082 -0.6457 -0.2012  0.1465
  200MOL0     C26302   6.802   6.647   7.036 -0.2948 -0.4373  0.1161
  200MOL0     O26303   6.831   6.649   6.895 -0.2545  0.2686 -0.1873
  200MOL0     C26304   6.932   6.573   6.827 -0.2067  0.2342  0.0331
  200MOL0     C26305   6.895   6.572   6.683  0.0811 -0.1059 -0.6488
  200MOL0     C26306   6.755   6.542   6.649  0.7653  0.8691 -0.0282
  200MOL0     C26307   6.725   6.556   6.495 -0.1311  0.7075 -0.9483
  200MOL0     C26308   6.585   6.508   6.463  0.3747  0.5338 -0.8313
  200MOL0     C26309   6.542   6.530   6.320 -0.9991  0.3736 -0.1748
  200MOL0     C26310   6.407   6.466   6.280 -0.1305  0.3370 -1.1352
  200MOL0     C26311   6.382   6.512   6.139 -0.4644 -0.5347  0.1728
  200MOL0    Cl26312   6.233   6.422   6.086 -0.2485  0.1350 -0.2807
  200MOL0     C26313   6.906   6.663   7.128 -0.0455  0.2235  0.6769
  200MOL0     C26314   6.882   6.664   7.261  0.7444  0.1532  0.2888
  200MOL0     O26315   6.619   6.463   7.437  0.3202 -0.1391 -0.8053
  200MOL0     C26316   6.639   6.669   7.725 -0.6582  0.5205  0.5402
  200MOL0     C26317   6.620   6.676   7.856 -0.0047 -0.4052 -0.5416
  200MOL0     N26318   6.140   6.248   7.998  0.2759 -0.5722  0.1976
  200MOL0     N26319   6.028   6.186   8.005 -0.3517 -1.2995  0.8550
  200MOL0     C26320   5.040   5.579   8.402  1.1967 -0.3093  0.2311
  200MOL0     C26321   4.926   5.488   8.404  0.1638  0.8516  0.4165
  200MOL0     C26322   4.670   5.141   8.344 -0.3259  0.7089 -0.0923
  200MOL0     C26323   4.633   5.042   8.444  0.1162  0.5404  0.4136
  200MOL0     C26324   4.529   4.954   8.407 -0.3250 -0.8001 -0.5527
  200MOL0     C26325   4.450   4.979   8.293  0.0932  0.8270  0.5319
  200MOL0     O26326   4.345   4.893   8.278  0.2245 -0.3035  0.5529
  200MOL0     C26327   4.230   4.932   8.201  1.1369 -0.5552  0.2790
  200MOL0     C26328   4.104   4.874   8.245 -0.5359  0.1718  0.1212
  200MOL0     C26329   4.092   4.718   8.226  0.2826 -0.4632 -0.0663
  200MOL0     C26330   4.030   4.670   8.089 -0.0684  0.1411 -0.7494
  200MOL0     C26331   3.889   4.697   8.084 -0.5411  0.2160 -0.7745
  200MOL0     C26332   3.768   4.715   8.082 -0.3352 -0.2366  0.1750
  200MOL0     C26333   4.484   5.082   8.198 -0.4555  0.5173  0.1775
  200MOL0     C26334   4.596   5.157   8.230 -0.2609  0.0244  0.3566
  200MOL0     H26335   4.910   5.392   8.090 -0.5065  2.3102 -0.6311
  200MOL0     H26336   5.103   5.565   8.064 -0.9314 -0.4008  0.1663
  200MOL0     H26337   5.060   5.832   8.280 -0.7381 -2.7999  2.8912
  200MOL0     H26338   5.209   5.872   8.188  0.2578 -1.3099  0.0099
  200MOL0     H26339   5.224   5.835   8.493 -0.7955  0.1760  0.0658
  200MOL0     H26340   5.181   5.987   8.420  0.1577 -0.1359 -1.4385
  200MOL0     H26341   5.434   5.838   8.352 -0.0315 -1.0442  3.2103
  200MOL0     H26342   5.428   5.955   8.479  2.1485  1.4241 -0.8883
  200MOL0     H26343   5.392   5.990   8.176 -0.2652  4.0824 -1.3381
  200MOL0     H26344   5.343   6.119   8.297  2.0096  1.4389 -1.1619
  200MOL0     H26345   5.617   6.002   8.285  0.5330  0.2052  0.2969
  200MOL0     H26346   5.547   6.141   8.376 -2.5681 -1.9853  1.5542
  200MOL0     H26347   5.513   6.273   8.172  3.0728  2.0003 -0.8110
  200MOL0     H26348   5.572   6.139   8.068  1.4721  0.0736 -0.2428
  200MOL0     H26349   5.727   6.325   8.098  0.8182 -0.0384 -0.2927
  200MOL0     H26350   5.739   6.301   8.274 -2.2163 -0.1967  0.1458
  200MOL0     H26351   5.802   6.078   8.095 -1.4882 -1.6563  3.4033
  200MOL0     H26352   5.857   6.090   8.265  1.1560 -0.2647  0.8354
  200MOL0     H26353   6.084   6.295   8.309  0.1877  1.0938 -0.8298
  200MOL0     H26354   6.258   6.458   8.196 -0.8779 -0.5579  0.6921
  200MOL0     H26355   6.333   6.422   8.048 -1.5717  0.5668  0.0088
  200MOL0     H26356   6.470   6.246   8.139 -1.4696 -3.9148  2.3829
  200MOL0     H26357   6.376   6.249   8.300  0.7308 -1.3830 -0.0312
  200MOL0     H26358   6.494   6.476   8.326  0.4976 -0.8678  2.0339
  200MOL0     H26359   6.606   6.349   8.315 -0.8885  0.7771  1.8031
  200MOL0     H26360   6.662   6.401   8.083  1.8284  1.4229 -0.7014
  200MOL0     H26361   6.671   6.526   8.206 -2.0855  0.0626  2.4412
  200MOL0     H26362   6.496   6.347   7.883  3.1316 -1.5724  1.7852
  200MOL0     H26363   6.544   6.351   7.656  0.9583  1.5195 -3.1764
  200MOL0     H26364   6.549   6.616   7.255  0.5534 -3.1090  0.4758
  200MOL0     H26365   6.587   6.609   7.018  1.4573 -0.5621 -2.7779
  200MOL0     H26366   6.945   6.469   6.859  1.0864 -0.2232 -1.8666
  200MOL0     H26367   7.033   6.611   6.844 -0.2981 -0.4595  2.5433
  200MOL0     H26368   6.952   6.493   6.633 -0.4091 -0.4291 -0.7155
  200MOL0     H26369   6.920   6.665   6.631 -3.0573  1.0032 -0.4307
  200MOL0     H26370   6.692   6.610   6.707  0.0841 -0.7123  1.1814
  200MOL0     H26371   6.735   6.439   6.681 -0.8531  1.3114  0.4648
  200MOL0     H26372   6.747   6.658   6.459 -0.5229  0.7068 -1.1978
  200MOL0     H26373   6.805   6.501   6.444 -1.7891 -2.0097 -0.7784
  200MOL0     H26374   6.506   6.549   6.526 -1.3775  0.4727 -2.8666
  200MOL0     H26375   6.595   6.403   6.489 -1.7217  0.6037  0.4876
  200MOL0     H26376   6.615   6.491   6.248  0.6709  0.0644  1.6207
  200MOL0     H26377   6.540   6.638   6.304  2.4586  1.4980  4.8676
  200MOL0     H26378   6.417   6.358   6.286  2.4669  0.5996  0.3411
  200MOL0     H26379   6.324   6.502   6.341 -1.6968 -2.4730 -1.4536
  200MOL0     H26380   6.454   6.478   6.064  0.5322  1.5350  0.1089
  200MOL0     H26381   6.367   6.620   6.142  3.1279  0.1195  3.6624
  200MOL0     H26382   7.008   6.665   7.092 -0.4989 -1.3768 -0.8558
  200MOL0     H26383   6.970   6.679   7.323  0.2060  3.2381  0.4519
  200MOL0     H26384   6.685   6.755   7.678 -0.8002 -0.4490 -1.5054
  200MOL0     H26385   6.640   6.762   7.919  0.5000 -0.4983 -0.5699
  200MOL0     H26386   5.080   5.624   8.492  1.9986 -3.9038  1.8574
  200MOL0     H26387   4.877   5.474   8.500  0.1691  0.2286  0.3310
  200MOL0     H26388   4.669   5.029   8.546 -1.3176  1.8501  1.1265
  200MOL0     H26389   4.501   4.870   8.469 -1.8456 -0.3941 -0.6584
  200MOL0     H26390   4.248   4.905   8.096 -0.3720 -2.6118  0.4803
  200MOL0     H26391   4.220   5.040   8.217  0.5007 -0.3860 -1.0983
  200MOL0     H26392   4.097   4.888   8.354 -2.0493 -0.2054  0.0938
  200MOL0     H26393   4.016   4.918   8.198 -1.0438 -1.1887 -0.2578
  200MOL0     H26394   4.041   4.669   8.310 -0.6540 -0.3335 -0.5488
  200MOL0     H26395   4.196   4.686   8.243  1.1198  2.2445  0.4428
  200MOL0     H26396   4.082   4.714   8.003  0.5822 -0.7461 -0.8201
  200MOL0     H26397   4.050   4.563   8.082  0.6431  0.2331 -0.1809
  200MOL0     H26398   3.662   4.732   8.081 -0.2694  0.1746 -0.2553
  200MOL0     H26399   4.445   5.097   8.098  2.3307 -1.2294 -1.3011
  200MOL0     H26400   4.637   5.218   8.150 -0.8048  0.3231  0.3004
  201MOL0     O26401   0.412   5.336   4.517  0.3530 -0.3356  0.1728
  201MOL0     C26402   0.336   5.264   4.589  0.5927 -0.1094  0.3895
  201MOL0     O26403   0.202   5.291   4.613 -0.1704  0.3229 -0.1391
  201MOL0     C26404   0.159   5.421   4.582 -0.4661 -0.3270 -0.0215
  201MOL0     C26405   0.136   5.481   4.452  0.3044 -0.2472 -0.4899
  201MOL0     C26406   0.069   5.591   4.425  0.5302 -0.1926 -0.4479
  201MOL0     C26407   0.007   5.651   4.537 -0.1349 -0.0881  0.3365
  201MOL0     O26408  -0.089   5.750   4.520 -0.1065  0.4730 -0.4912
  201MOL0     C26409  -0.076   5.832   4.403 -0.1327  0.2650  0.4366
  201MOL0     C26410  -0.159   5.958   4.431  0.4078 -0.3224  0.8553
  201MOL0     C26411  -0.307   5.930   4.450  0.3497  0.6727 -1.0481
  201MOL0     C26412  -0.391   5.847   4.336 -0.9052 -0.2509 -0.0793
  201MOL0     C26413  -0.359   5.904   4.196 -0.0873  0.2042  0.7008
  201MOL0     C26414  -0.420   6.052   4.164 -0.4504 -0.4456  0.0472
  201MOL0     C26415  -0.432   6.071   4.016  0.1600 -0.3299  0.6522
  201MOL0     C26416  -0.435   6.215   3.967 -0.5114  0.0651  0.2270
  201MOL0     N26417  -0.460   6.209   3.818 -0.2188  0.0080 -0.2474
  201MOL0     C26418  -0.569   6.161   3.743 -0.0234  0.8274 -0.0464
  201MOL0     C26419  -0.540   6.206   3.617  0.3950  0.4364  0.4805
  201MOL0     C26420  -0.605   6.180   3.482 -0.1071 -0.1803 -0.1728
  201MOL0     C26421  -0.744   6.231   3.481  0.0244 -0.9575  0.6134
  201MOL0     C26422  -0.808   6.196   3.333  0.2612 -0.1250  0.5601
  201MOL0     C26423  -0.936   6.273   3.305 -0.3894  1.0971 -0.0014
  201MOL0     O26424  -1.040   6.231   3.393 -0.1122  0.2847 -0.3817
  201MOL0     C26425  -1.170   6.282   3.384  0.0949  0.3602  0.4091
  201MOL0     C26426  -1.263   6.234   3.482  0.2528  0.3407  0.2990
  201MOL0     C26427  -1.393   6.292   3.483 -0.0748 -0.7247  0.2657
  201MOL0     C26428  -1.424   6.400   3.395  0.6132  0.5294 -0.0995
  201MOL0     C26429  -1.552   6.478   3.408 -0.2088 -0.2216 -0.1892
  201MOL0     O26430  -1.568   6.578   3.333  0.7632 -0.6336 -0.1543
  201MOL0     C26431  -1.688   6.636   3.307  0.5802 -0.0800 -0.2582
  201MOL0     C26432  -1.701   6.770   3.343 -0.0738  0.6987 -0.1435
  201MOL0     C26433  -1.814   6.838   3.333  0.2193 -0.0464  0.4877
  201MOL0     C26434  -1.932   6.776   3.278 -0.8088  0.1613  0.6826
  201MOL0     O26435  -2.047   6.844   3.272 -0.2094  0.0152 -0.3902
  201MOL0     C26436  -2.056   6.991   3.283  1.2060  0.2824  0.8140
  201MOL0     C26437  -2.211   7.030   3.255 -0.8923 -0.0210  0.4548
  201MOL0     C26438  -2.296   6.996   3.373 -0.6794 -0.4507  0.3223
  201MOL0     C26439  -2.327   6.846   3.385 -0.2937 -0.5915 -0.6674
  201MOL0     C26440  -2.415   6.801   3.260  0.4958 -0.0454 -0.1239
  201MOL0     C26441  -2.347   6.714   3.157  0.6623 -0.1870 -0.9780
  201MOL0     C26442  -2.448   6.610   3.096 -1.4980 -0.1498 -0.2369
  201MOL0     C26443  -2.392   6.529   2.978 -0.2105 -0.0404  0.9539
  201MOL0    Cl26444  -2.502   6.392   2.951 -0.1716  0.4014 -0.4439
  201MOL0     C26445  -1.925   6.644   3.238  0.0698  0.0281 -1.2321
  201MOL0     C26446  -1.803   6.570   3.256 -0.0425  0.7244  0.3945
  201MOL0     O26447  -1.632   6.444   3.490  0.4691 -0.0017  0.0186
  201MOL0     C26448  -1.322   6.444   3.305 -0.4790 -0.8667 -0.7291
  201MOL0     C26449  -1.191   6.388   3.299  0.2472 -0.7499 -0.3636
  201MOL0     N26450  -0.441   6.307   3.623  0.2821  0.0601 -0.3135
  201MOL0     N26451  -0.393   6.291   3.741 -0.4028 -0.1211 -0.1575
  201MOL0     C26452   0.021   5.598   4.661 -0.3763  0.3810 -0.9343
  201MOL0     C26453   0.092   5.485   4.682  0.5461 -0.1927 -0.5856
  201MOL0     C26454   0.381   5.146   4.653 -0.0487  0.1313 -0.1393
  201MOL0     C26455   0.516   5.111   4.637  0.9510 -0.3091  0.1354
  201MOL0     C26456   0.558   4.990   4.680 -0.9865 -0.1298 -0.1355
  201MOL0     C26457   0.486   4.911   4.774 -1.1150  0.8280  0.3471
  201MOL0     O26458   0.533   4.798   4.843  0.0937  0.1142  0.2483
  201MOL0     C26459   0.671   4.765   4.826  0.4651 -0.1524  0.0795
  201MOL0     C26460   0.695   4.623   4.884 -1.2009 -0.9156 -0.0094
  201MOL0     C26461   0.659   4.624   5.029  0.4400  0.0955  0.1007
  201MOL0     C26462   0.687   4.487   5.089 -0.9957  0.7207 -0.3168
  201MOL0     C26463   0.675   4.491   5.241  0.5906  0.3593  0.3838
  201MOL0     C26464   0.663   4.510   5.358 -0.8654  0.3516 -0.3087
  201MOL0     C26465   0.353   4.949   4.793 -0.1711  0.0212 -0.1952
  201MOL0     C26466   0.300   5.059   4.726 -0.2392 -0.0875 -0.8511
  201MOL0     H26467   0.185   5.440   4.364 -2.6923 -2.5697 -1.2391
  201MOL0     H26468   0.054   5.637   4.328  0.0168 -0.0976 -0.3247
  201MOL0     H26469  -0.110   5.783   4.312 -1.3140  2.2484 -0.2458
  201MOL0     H26470   0.028   5.860   4.382 -0.3867  1.2334  0.4353
  201MOL0     H26471  -0.164   6.021   4.342  2.5389 -2.6982 -1.1037
  201MOL0     H26472  -0.116   6.015   4.514 -2.3431  1.2494  1.3108
  201MOL0     H26473  -0.363   6.024   4.460  0.8238  0.9338 -0.8006
  201MOL0     H26474  -0.323   5.884   4.548  1.4387 -0.8728 -1.5615
  201MOL0     H26475  -0.362   5.742   4.347  1.0416  0.1187 -1.1476
  201MOL0     H26476  -0.497   5.855   4.361 -0.8460 -1.1734  0.5100
  201MOL0     H26477  -0.412   5.843   4.122 -0.4147  2.1461 -0.7601
  201MOL0     H26478  -0.252   5.897   4.177 -0.4412 -2.9531 -0.6484
  201MOL0     H26479  -0.362   6.134   4.207  1.4960 -1.8736  0.3086
  201MOL0     H26480  -0.520   6.069   4.205 -1.2700  0.2036 -2.0750
  201MOL0     H26481  -0.343   6.022   3.974  1.1839  1.6246  0.4503
  201MOL0     H26482  -0.520   6.016   3.982  0.7078  0.5619 -2.5157
  201MOL0     H26483  -0.343   6.266   3.995  0.8367 -0.9141 -2.1541
  201MOL0     H26484  -0.521   6.261   4.016  1.9024  3.5148  1.5881
  201MOL0     H26485  -0.654   6.100   3.774  0.0995  0.4344 -0.4652
  201MOL0     H26486  -0.614   6.073   3.457 -0.2409  0.3090 -2.3800
  201MOL0     H26487  -0.545   6.237   3.411 -1.3118  1.0352 -0.2517
  201MOL0     H26488  -0.747   6.338   3.503  0.9070 -0.7472 -0.2272
  201MOL0     H26489  -0.805   6.183   3.558 -1.3143 -2.3449 -1.2057
  201MOL0     H26490  -0.741   6.228   3.252 -1.8383  1.7306 -0.5336
  201MOL0     H26491  -0.827   6.089   3.324 -0.1675  0.0926 -1.3490
  201MOL0     H26492  -0.962   6.258   3.200  1.5596 -1.5722 -0.1917
  201MOL0     H26493  -0.909   6.379   3.315 -0.8138  1.2855 -0.7921
  201MOL0     H26494  -1.236   6.152   3.548 -2.4515 -1.0449 -0.2069
  201MOL0     H26495  -1.476   6.254   3.542  1.6320 -2.4739  1.6794
  201MOL0     H26496  -1.608   6.811   3.380  0.1629 -2.2315  3.0554
  201MOL0     H26497  -1.815   6.937   3.377  0.1629 -0.9672  2.7512
  201MOL0     H26498  -1.988   7.045   3.217  0.6440  1.6954  1.3309
  201MOL0     H26499  -2.040   7.022   3.386 -2.6207  3.0167  0.8280
  201MOL0     H26500  -2.253   6.985   3.164  2.0943  1.6886 -1.9350
  201MOL0     H26501  -2.220   7.137   3.236 -2.3404 -0.3863 -1.2140
  201MOL0     H26502  -2.382   7.062   3.368  0.4834  1.0139 -1.5453
  201MOL0     H26503  -2.245   7.024   3.465  1.1200  0.3859 -0.8768
  201MOL0     H26504  -2.239   6.781   3.398  0.2130  0.5549  2.4643
  201MOL0     H26505  -2.394   6.836   3.471 -0.1719  1.3373 -0.3076
  201MOL0     H26506  -2.456   6.886   3.206  1.1646  1.0711  1.0729
  201MOL0     H26507  -2.496   6.743   3.304  1.4181  1.4662  4.0761
  201MOL0     H26508  -2.262   6.665   3.206 -0.0015 -0.6217 -0.2279
  201MOL0     H26509  -2.317   6.780   3.075 -0.2185  0.6222 -0.6784
  201MOL0     H26510  -2.468   6.533   3.171 -0.1165  0.0929  0.4136
  201MOL0     H26511  -2.540   6.656   3.060 -1.9864 -0.9612 -0.0530
  201MOL0     H26512  -2.290   6.494   2.994 -1.1868 -1.8767  4.0802
  201MOL0     H26513  -2.404   6.585   2.885 -0.0047 -0.6001  0.5885
  201MOL0     H26514  -2.003   6.591   3.185  1.4448 -3.6831  0.1088
  201MOL0     H26515  -1.812   6.465   3.231 -1.0880  0.8789  0.1034
  201MOL0     H26516  -1.327   6.534   3.243  1.8070 -0.5629 -0.5477
  201MOL0     H26517  -1.109   6.440   3.252 -0.8608  0.8931 -0.5546
  201MOL0     H26518  -0.028   5.641   4.748 -0.9852  0.3910 -1.2797
  201MOL0     H26519   0.103   5.446   4.783  0.4751  1.2654  0.0088
  201MOL0     H26520   0.585   5.169   4.577  0.1508  1.2599  0.6688
  201MOL0     H26521   0.658   4.963   4.650  0.1790 -1.9309  4.4682
  201MOL0     H26522   0.723   4.844   4.881 -0.3348  2.0066 -2.0860
  201MOL0     H26523   0.706   4.757   4.723  0.9651 -0.3605  0.2649
  201MOL0     H26524   0.641   4.544   4.831 -0.7578 -3.9855  3.6775
  201MOL0     H26525   0.799   4.591   4.869 -0.9783 -0.4044  0.4402
  201MOL0     H26526   0.554   4.651   5.041 -0.4342 -2.0795 -1.9534
  201MOL0     H26527   0.716   4.705   5.078  1.8258 -0.1441 -1.0324
  201MOL0     H26528   0.603   4.431   5.047 -2.5578  1.4973  1.6033
  201MOL0     H26529   0.784   4.444   5.065 -1.1084 -2.0372  3.3548
  201MOL0     H26530   0.650   4.518   5.464 -0.6766  2.9470 -0.4237
  201MOL0     H26531   0.278   4.881   4.831 -1.7926  3.4392  3.4487
  201MOL0     H26532   0.193   5.074   4.722 -0.4075 -1.4084 -1.7471
  202MOL0     O26533   0.473   0.920   4.712  0.1188  0.1438  0.5182
  202MOL0     C26534   0.440   0.820   4.778  0.1997 -1.5518  0.0329
  202MOL0     O26535   0.324   0.799   4.838  0.3713  0.8246 -0.2882
  202MOL0     C26536   0.222   0.880   4.820  0.3989 -0.0962 -0.2708
  202MOL0     C26537   0.157   0.935   4.925 -0.9231 -0.0422  0.4460
  202MOL0     C26538   0.038   1.008   4.913 -0.0150  0.0747  0.4133
  202MOL0     C26539   0.002   1.057   4.781  0.4031  0.7390 -0.5600
  202MOL0     O26540  -0.110   1.135   4.785 -0.4866  0.3387  0.5814
  202MOL0     C26541  -0.144   1.220   4.678 -0.0212 -0.1718 -0.8147
  202MOL0     C26542  -0.268   1.319   4.726 -1.2950 -0.0224  0.1589
  202MOL0     C26543  -0.404   1.256   4.696 -0.1300 -0.3535  0.7368
  202MOL0     C26544  -0.520   1.359   4.721  0.5736  0.3796 -0.4411
  202MOL0     C26545  -0.653   1.289   4.728  0.7629  0.8837  0.5465
  202MOL0     C26546  -0.781   1.379   4.743  0.2358  0.3093  0.2408
  202MOL0     C26547  -0.905   1.288   4.720  0.2512  0.4564  0.3614
  202MOL0     C26548  -0.948   1.212   4.848 -0.5396 -0.0262 -0.6620
  202MOL0     N26549  -1.059   1.114   4.819 -0.6220 -0.1114 -0.4082
  202MOL0     C26550  -1.122   1.034   4.912  0.5938 -0.0777  0.2634
  202MOL0     C26551  -1.191   0.937   4.844  0.1314 -0.3581 -0.2833
  202MOL0     C26552  -1.278   0.824   4.890  0.7650 -0.2523 -0.4849
  202MOL0     C26553  -1.190   0.701   4.898 -0.2879  0.2617  0.5976
  202MOL0     C26554  -1.139   0.655   4.759  0.0813  1.0521 -0.0189
  202MOL0     C26555  -1.260   0.622   4.671  1.0869  0.0372 -0.1062
  202MOL0     O26556  -1.350   0.537   4.736  0.2658  0.5236  0.1077
  202MOL0     C26557  -1.487   0.554   4.710 -0.1355  0.1578  0.4359
  202MOL0     C26558  -1.555   0.648   4.631  0.1623  0.5605 -0.0596
  202MOL0     C26559  -1.697   0.650   4.618  0.4833  0.2905 -1.3056
  202MOL0     C26560  -1.776   0.539   4.670 -0.5649  0.3038 -0.3903
  202MOL0     C26561  -1.920   0.515   4.647  0.4469 -1.0359  0.6422
  202MOL0     O26562  -1.981   0.392   4.669  0.4799  0.5445  0.0462
  202MOL0     C26563  -2.116   0.371   4.648 -1.0155 -0.3952  0.1239
  202MOL0     C26564  -2.210   0.460   4.598  0.7064  1.1002  0.0470
  202MOL0     C26565  -2.344   0.420   4.576 -0.0748 -0.3203 -0.8629
  202MOL0     C26566  -2.384   0.288   4.615  0.5961 -0.4235 -0.3744
  202MOL0     O26567  -2.505   0.227   4.601 -0.1436  0.4974 -0.4205
  202MOL0     C26568  -2.615   0.290   4.665 -0.1407  0.2621  0.4875
  202MOL0     C26569  -2.718   0.177   4.679  0.7305 -0.7209  0.1778
  202MOL0     C26570  -2.674   0.077   4.774 -0.5278  0.7874 -0.3694
  202MOL0     C26571  -2.775  -0.046   4.785  0.5765 -0.9653 -0.4293
  202MOL0     C26572  -2.880  -0.017   4.892  0.3290  0.8493 -0.1965
  202MOL0     C26573  -2.953  -0.139   4.955 -0.1142  0.2374 -0.1501
  202MOL0     C26574  -2.958  -0.271   4.874 -0.2448  0.2768 -0.6009
  202MOL0     C26575  -3.006  -0.391   4.955  0.5515 -0.1442 -0.4955
  202MOL0    Cl26576  -2.902  -0.432   5.098 -0.7387  0.2872  0.0337
  202MOL0     C26577  -2.286   0.195   4.661 -0.5963  0.9272 -0.4082
  202MOL0     C26578  -2.152   0.238   4.676 -0.0828 -0.2069 -0.0266
  202MOL0     O26579  -1.972   0.623   4.608  0.0139 -0.0288  0.8463
  202MOL0     C26580  -1.700   0.439   4.735 -0.4668 -0.0468  0.1060
  202MOL0     C26581  -1.562   0.456   4.769  0.2882 -0.1197 -0.0458
  202MOL0     N26582  -1.163   0.966   4.706  0.5703  0.1924  0.2088
  202MOL0     N26583  -1.080   1.064   4.692 -0.8176 -0.0263 -1.1123
  202MOL0     C26584   0.060   0.995   4.676  0.2472 -0.1121 -0.2338
  202MOL0     C26585   0.168   0.910   4.691  0.2313  0.3675 -0.1436
  202MOL0     C26586   0.536   0.709   4.780  0.1101  0.3048 -0.1166
  202MOL0     C26587   0.671   0.733   4.783 -0.0404 -0.3487  0.0667
  202MOL0     C26588   0.760   0.636   4.809  0.3689 -0.1545  0.1703
  202MOL0     C26589   0.720   0.499   4.812 -0.6654  0.1982 -0.2346
  202MOL0     O26590   0.813   0.405   4.785 -0.8979  1.0837 -0.3802
  202MOL0     C26591   0.953   0.447   4.739 -0.2640  0.2997 -0.1144
  202MOL0     C26592   1.010   0.307   4.694  0.1057 -0.6051 -0.1110
  202MOL0     C26593   1.040   0.204   4.805  0.1879 -1.0991 -0.5118
  202MOL0     C26594   1.081   0.072   4.740 -0.5386 -0.3694  0.5182
  202MOL0     C26595   1.115  -0.033   4.832 -0.0873 -0.6660 -1.5798
  202MOL0     C26596   1.151  -0.107   4.914  0.0605  0.5206 -0.1192
  202MOL0     C26597   0.585   0.463   4.812  0.5594 -0.1507  0.6651
  202MOL0     C26598   0.499   0.573   4.801  0.6117  0.3273  0.6020
  202MOL0     H26599   0.179   0.928   5.031 -0.1521  0.7364  0.3524
  202MOL0     H26600  -0.018   1.041   5.000  0.2905 -1.5738  1.2646
  202MOL0     H26601  -0.174   1.163   4.590  0.0299  0.8914 -1.5409
  202MOL0     H26602  -0.052   1.277   4.662 -0.7409  1.6748  1.1907
  202MOL0     H26603  -0.252   1.407   4.662  1.2118 -0.9705 -0.6511
  202MOL0     H26604  -0.261   1.349   4.831  0.7875  0.0296  0.0617
  202MOL0     H26605  -0.408   1.184   4.778 -0.6490 -1.4187 -0.2011
  202MOL0     H26606  -0.409   1.197   4.605 -0.9398 -3.0422  2.4004
  202MOL0     H26607  -0.508   1.434   4.799  0.4129  0.4994 -0.5299
  202MOL0     H26608  -0.522   1.421   4.631  1.0247  0.1590 -0.6035
  202MOL0     H26609  -0.652   1.204   4.797 -0.1852 -0.2506 -0.7783
  202MOL0     H26610  -0.653   1.233   4.635  3.2158  0.1310  0.9319
  202MOL0     H26611  -0.787   1.458   4.668 -2.3222  0.0207  0.0723
  202MOL0     H26612  -0.778   1.440   4.833  4.3138  0.2553  0.3549
  202MOL0     H26613  -0.982   1.350   4.673  0.8631 -1.2749 -3.2323
  202MOL0     H26614  -0.873   1.209   4.652  1.7602  1.1884  0.1738
  202MOL0     H26615  -0.983   1.282   4.924 -0.2178  1.3734 -1.7584
  202MOL0     H26616  -0.866   1.153   4.890  0.1828 -1.0452 -3.2475
  202MOL0     H26617  -1.114   1.045   5.020 -0.4831 -0.0559  0.3573
  202MOL0     H26618  -1.356   0.809   4.816  0.7543 -1.7314 -0.2121
  202MOL0     H26619  -1.325   0.852   4.985 -1.6093  0.5935 -1.8317
  202MOL0     H26620  -1.237   0.616   4.950  3.1920 -2.1406  0.1442
  202MOL0     H26621  -1.104   0.729   4.960  0.7199  1.1763 -1.1368
  202MOL0     H26622  -1.066   0.718   4.707  1.3662 -0.3436 -0.0070
  202MOL0     H26623  -1.085   0.562   4.780 -1.4262 -0.0517 -0.7834
  202MOL0     H26624  -1.234   0.581   4.572  2.2034  1.9667 -0.6480
  202MOL0     H26625  -1.305   0.720   4.655  2.1011  0.4863 -0.2810
  202MOL0     H26626  -1.505   0.732   4.584  1.6068 -0.1321  0.1853
  202MOL0     H26627  -1.747   0.736   4.575 -1.3554 -0.2954 -0.4420
  202MOL0     H26628  -2.185   0.564   4.582  1.0584  0.8522 -1.0481
  202MOL0     H26629  -2.419   0.484   4.531  0.2101 -1.0028 -2.3506
  202MOL0     H26630  -2.642   0.375   4.602  0.4890  0.9746  1.1470
  202MOL0     H26631  -2.594   0.331   4.765 -3.5570 -0.9507  1.8337
  202MOL0     H26632  -2.732   0.142   4.577 -0.3800  2.9133 -1.0824
  202MOL0     H26633  -2.816   0.223   4.699  1.6668  1.3235  0.3681
  202MOL0     H26634  -2.653   0.124   4.870  0.3324  0.2545 -0.2810
  202MOL0     H26635  -2.577   0.041   4.739 -2.0070 -1.4254 -2.5790
  202MOL0     H26636  -2.822  -0.079   4.692  0.1222  0.3242 -0.6814
  202MOL0     H26637  -2.706  -0.125   4.816  1.3852  0.0676  0.5017
  202MOL0     H26638  -2.966   0.037   4.852 -2.7353 -1.8962  2.0819
  202MOL0     H26639  -2.835   0.038   4.975  0.3189 -0.0074  0.3942
  202MOL0     H26640  -3.056  -0.103   4.959  0.1663  1.6718 -3.1375
  202MOL0     H26641  -2.915  -0.163   5.055  1.0913  0.7172 -0.4715
  202MOL0     H26642  -3.021  -0.250   4.787 -0.9081 -0.5934 -0.3474
  202MOL0     H26643  -2.852  -0.282   4.849 -0.3136  0.9508 -1.2447
  202MOL0     H26644  -3.017  -0.488   4.906  0.3139 -0.0448 -0.6419
  202MOL0     H26645  -3.107  -0.371   4.992  0.7052 -1.0128  0.4452
  202MOL0     H26646  -2.316   0.091   4.663 -0.5213  0.8860 -1.3929
  202MOL0     H26647  -2.083   0.168   4.723 -0.6095 -1.1057 -0.5777
  202MOL0     H26648  -1.748   0.353   4.781  0.5542 -1.0387 -0.6470
  202MOL0     H26649  -1.524   0.382   4.839  1.3100 -0.6575 -1.1394
  202MOL0     H26650   0.014   1.022   4.581  2.2741  1.4306 -0.8439
  202MOL0     H26651   0.205   0.857   4.604 -0.2890  1.3708 -1.0066
  202MOL0     H26652   0.709   0.835   4.778 -0.5414 -0.1275  0.6325
  202MOL0     H26653   0.864   0.665   4.816  0.0185  1.4725 -0.8374
  202MOL0     H26654   1.021   0.487   4.814 -0.1610 -1.4205  0.7527
  202MOL0     H26655   0.930   0.510   4.652 -0.7983  0.2513 -0.0146
  202MOL0     H26656   0.937   0.258   4.630 -0.4624  0.1466 -0.0615
  202MOL0     H26657   1.101   0.333   4.640 -0.0932  2.0560  0.6584
  202MOL0     H26658   0.951   0.186   4.866 -0.3423  1.1500 -0.5373
  202MOL0     H26659   1.116   0.231   4.880  1.1317 -0.7477 -1.5592
  202MOL0     H26660   1.003   0.039   4.672 -0.3833  0.0869  0.1170
  202MOL0     H26661   1.173   0.097   4.686 -1.7100  0.6737 -1.0579
  202MOL0     H26662   1.170  -0.171   4.998 -3.3597 -0.8403 -0.2012
  202MOL0     H26663   0.540   0.368   4.788 -1.8649  1.0402  0.2347
  202MOL0     H26664   0.397   0.538   4.804  2.1457 -5.0569  2.6460
  203MOL0     O26665   6.284   0.841   1.310 -0.9883 -0.3767  0.2065
  203MOL0     C26666   6.175   0.898   1.308  0.2689  0.4752 -0.3793
  203MOL0     O26667   6.142   1.022   1.369 -0.5791  0.4847 -0.1281
  203MOL0     C26668   6.247   1.090   1.428  0.4813 -0.2258 -0.3099
  203MOL0     C26669   6.313   1.038   1.537 -0.2609  0.6280 -0.9067
  203MOL0     C26670   6.412   1.097   1.608  0.0422  0.3399 -0.2625
  203MOL0     C26671   6.440   1.227   1.565  0.1873 -0.5852 -0.5978
  203MOL0     O26672   6.557   1.274   1.628  0.4826  0.0477 -0.3099
  203MOL0     C26673   6.594   1.408   1.607  0.2977 -0.3397 -0.2428
  203MOL0     C26674   6.694   1.453   1.709 -0.3359  0.1547 -0.1713
  203MOL0     C26675   6.819   1.367   1.694 -0.5298  1.0300 -0.1353
  203MOL0     C26676   6.918   1.397   1.798 -1.0639 -0.3804 -0.5247
  203MOL0     C26677   7.049   1.323   1.772 -0.0109 -0.3094 -0.3368
  203MOL0     C26678   7.150   1.329   1.881 -0.0633 -1.0579  0.0087
  203MOL0     C26679   7.289   1.274   1.841 -0.3943 -0.3856 -0.5575
  203MOL0     C26680   7.373   1.276   1.972  0.8784  0.4878  0.5053
  203MOL0     N26681   7.519   1.289   1.940 -0.6862  0.2813 -1.2218
  203MOL0     C26682   7.618   1.216   2.004  0.3868 -0.1305 -0.2290
  203MOL0     C26683   7.730   1.283   1.993 -1.0920 -0.2172 -0.3920
  203MOL0     C26684   7.862   1.251   2.049  0.7528  0.4344  0.1331
  203MOL0     C26685   7.969   1.260   1.948 -0.6356  0.3304  1.0671
  203MOL0     C26686   8.097   1.230   2.021 -0.2941 -0.0847  0.3225
  203MOL0     C26687   8.216   1.262   1.939 -0.0329 -0.3588  0.0334
  203MOL0     O26688   8.325   1.267   2.022 -0.4876 -0.1624 -0.5773
  203MOL0     C26689   8.448   1.286   1.970 -0.7197 -0.0107  0.6795
  203MOL0     C26690   8.457   1.349   1.847  0.0212 -0.4079 -0.6274
  203MOL0     C26691   8.582   1.346   1.776 -0.7002  0.5094  0.6161
  203MOL0     C26692   8.694   1.285   1.829 -0.2306  0.6191 -1.1457
  203MOL0     C26693   8.833   1.308   1.783  0.2277  0.0305  0.1174
  203MOL0     O26694   8.931   1.289   1.880  0.0293  0.9443 -0.2691
  203MOL0     C26695   9.051   1.362   1.876  0.0953  0.1655 -0.2535
  203MOL0     C26696   9.068   1.497   1.830 -0.4084 -0.3221 -0.1819
  203MOL0     C26697   9.191   1.560   1.867 -0.3356 -0.6700 -0.6779
  203MOL0     C26698   9.292   1.501   1.939  0.6224  0.3182  0.0075
  203MOL0     O26699   9.411   1.557   1.969 -0.7431  0.4399  0.2839
  203MOL0     C26700   9.481   1.599   1.847  0.7537  0.3252 -0.9576
  203MOL0     C26701   9.628   1.625   1.889  0.2059  0.6424 -0.6253
  203MOL0     C26702   9.656   1.744   1.984  0.3347 -0.5593 -1.3833
  203MOL0     C26703   9.775   1.831   1.954 -0.2995 -0.6454 -0.3073
  203MOL0     C26704   9.772   1.913   1.823  0.3571 -0.1863 -0.8156
  203MOL0     C26705   9.903   1.980   1.771 -0.5129  0.5888  0.3616
  203MOL0     C26706   9.964   2.082   1.866  0.5355 -0.5368 -0.6397
  203MOL0     C26707   9.887   2.221   1.865 -0.3341  0.3005 -0.6631
  203MOL0    Cl26708   9.998   2.348   1.941 -0.0665  0.1686 -0.2749
  203MOL0     C26709   9.272   1.364   1.967  0.2496  0.0763  0.4551
  203MOL0     C26710   9.155   1.296   1.942  0.4470  0.0747  0.4317
  203MOL0     O26711   8.842   1.346   1.664 -0.5755 -0.7658  0.3658
  203MOL0     C26712   8.680   1.222   1.951 -0.3932 -0.0350 -0.3126
  203MOL0     C26713   8.560   1.234   2.026 -0.3543 -0.0791 -0.2338
  203MOL0     N26714   7.708   1.400   1.921 -0.3702 -0.0419  1.2328
  203MOL0     N26715   7.579   1.407   1.905  0.3529 -0.0066  0.4774
  203MOL0     C26716   6.370   1.291   1.459  0.3157 -0.2128 -0.4962
  203MOL0     C26717   6.280   1.213   1.385  0.1867  0.1583 -0.2902
  203MOL0     C26718   6.057   0.833   1.248  0.0307 -1.2636  0.0674
  203MOL0     C26719   6.067   0.698   1.201  0.6668 -0.5109 -0.4182
  203MOL0     C26720   5.956   0.643   1.144  0.8221  0.8798 -0.2929
  203MOL0     C26721   5.835   0.712   1.106 -0.3235 -0.2887 -0.6296
  203MOL0     O26722   5.744   0.640   1.033 -0.0609  0.6213 -0.1209
  203MOL0     C26723   5.657   0.705   0.942 -0.0547  0.7700  0.3939
  203MOL0     C26724   5.736   0.747   0.815 -0.8938  0.3038  0.0025
  203MOL0     C26725   5.831   0.628   0.764  0.0508 -0.3109  0.5842
  203MOL0     C26726   5.867   0.648   0.613  0.1218 -0.0671  0.2563
  203MOL0     C26727   5.769   0.635   0.504  0.6518  0.2660 -0.1017
  203MOL0     C26728   5.677   0.626   0.428  1.0524 -0.4963 -1.2005
  203MOL0     C26729   5.829   0.843   1.145 -0.7413 -1.2564 -0.2387
  203MOL0     C26730   5.934   0.906   1.222  0.1608 -0.1364 -0.0956
  203MOL0     H26731   6.280   0.936   1.555  2.6598 -0.4130 -1.0332
  203MOL0     H26732   6.461   1.050   1.693  0.1981  4.2223  2.0428
  203MOL0     H26733   6.503   1.469   1.615  0.6860  0.4806 -1.6712
  203MOL0     H26734   6.639   1.429   1.509  0.6771 -0.0225 -0.0054
  203MOL0     H26735   6.646   1.437   1.806  1.2463  0.3805  0.6835
  203MOL0     H26736   6.703   1.562   1.699 -2.6790  0.3761 -0.4458
  203MOL0     H26737   6.859   1.354   1.593 -3.0661 -2.9507 -0.8362
  203MOL0     H26738   6.785   1.266   1.718  1.3696  0.6917  1.3682
  203MOL0     H26739   6.936   1.505   1.797 -2.0875 -0.0187  3.1739
  203MOL0     H26740   6.872   1.363   1.891 -1.2329 -0.9902 -0.8275
  203MOL0     H26741   7.097   1.360   1.681  0.0451  1.6490  0.4253
  203MOL0     H26742   7.026   1.218   1.752 -1.1186 -0.2710  0.6003
  203MOL0     H26743   7.106   1.278   1.967 -2.3355  2.0384  0.9110
  203MOL0     H26744   7.171   1.432   1.912  0.6530 -1.2412  0.1364
  203MOL0     H26745   7.272   1.179   1.790  2.2371 -0.9993 -0.4145
  203MOL0     H26746   7.341   1.335   1.767  0.2907  0.9432  0.9471
  203MOL0     H26747   7.349   1.192   2.038 -0.0128  2.9516  3.5567
  203MOL0     H26748   7.341   1.367   2.025 -1.6109  0.2539 -0.4338
  203MOL0     H26749   7.609   1.118   2.049  0.0791 -0.8411 -1.7815
  203MOL0     H26750   7.853   1.148   2.084 -0.3198  0.2427 -0.6523
  203MOL0     H26751   7.881   1.314   2.136  0.7582  0.3807  0.1708
  203MOL0     H26752   7.969   1.366   1.920 -1.0776  0.4422  1.4769
  203MOL0     H26753   7.943   1.190   1.869 -2.2318  1.4011  0.6109
  203MOL0     H26754   8.105   1.296   2.108 -0.5135  1.9556 -1.1458
  203MOL0     H26755   8.096   1.127   2.058  2.5517  0.3857  2.0900
  203MOL0     H26756   8.203   1.362   1.897 -0.7370  0.4415  2.0007
  203MOL0     H26757   8.237   1.178   1.872  2.6237 -1.3030  1.8873
  203MOL0     H26758   8.371   1.390   1.794 -2.6248 -3.1857  1.1776
  203MOL0     H26759   8.592   1.378   1.673 -2.9910 -4.0141 -1.3046
  203MOL0     H26760   8.993   1.562   1.786  0.7587 -0.4055 -2.4416
  203MOL0     H26761   9.207   1.663   1.837 -0.7017 -0.3995  0.0392
  203MOL0     H26762   9.438   1.694   1.812  1.9134  1.9563  1.7335
  203MOL0     H26763   9.473   1.524   1.768  2.3483  0.3972 -1.2163
  203MOL0     H26764   9.698   1.636   1.806  0.1263  0.0351 -0.7758
  203MOL0     H26765   9.663   1.531   1.933 -1.4188  0.2575 -0.0769
  203MOL0     H26766   9.663   1.710   2.088 -1.9229  2.2221 -0.1599
  203MOL0     H26767   9.570   1.811   1.997 -0.2259 -1.5229  0.1738
  203MOL0     H26768   9.789   1.904   2.034  2.6113 -0.7428 -0.6058
  203MOL0     H26769   9.863   1.765   1.952 -1.2452 -1.9364 -1.0978
  203MOL0     H26770   9.694   1.989   1.835 -1.0155 -1.4055 -1.7503
  203MOL0     H26771   9.736   1.842   1.749  0.4764 -0.7350 -0.3581
  203MOL0     H26772   9.880   2.015   1.670  1.2878 -4.2419 -2.0648
  203MOL0     H26773   9.968   1.895   1.746 -2.8784 -0.8164 -1.4129
  203MOL0     H26774   9.957   2.039   1.967 -2.0071  1.9408  0.3720
  203MOL0     H26775  10.071   2.093   1.848  0.4139  3.3458 -0.0009
  203MOL0     H26776   9.789   2.220   1.913  0.7781  1.4077  1.7913
  203MOL0     H26777   9.877   2.244   1.758  1.9193  0.1085 -0.9510
  203MOL0     H26778   9.354   1.319   2.022 -0.4881  0.0646  1.5784
  203MOL0     H26779   9.131   1.203   1.992  0.5980  0.0074  0.3804
  203MOL0     H26780   8.767   1.175   1.997  0.2263  0.8964 -0.5097
  203MOL0     H26781   8.553   1.191   2.125  2.0742  0.5232  0.2662
  203MOL0     H26782   6.396   1.389   1.421  0.0895 -0.5634 -1.6045
  203MOL0     H26783   6.220   1.258   1.307  2.7153  2.4768 -1.0772
  203MOL0     H26784   6.149   0.633   1.227  0.6018  0.3842  2.4164
  203MOL0     H26785   5.960   0.537   1.124 -0.0808  0.8403 -0.3045
  203MOL0     H26786   5.597   0.785   0.986 -0.6277 -0.8420  2.7230
  203MOL0     H26787   5.582   0.634   0.905  0.7351  0.6454 -1.0628
  203MOL0     H26788   5.668   0.778   0.735 -0.3957  0.4822 -0.3532
  203MOL0     H26789   5.790   0.839   0.838 -0.1274 -0.5261  1.7343
  203MOL0     H26790   5.779   0.534   0.786 -2.5144  0.8146 -0.1816
  203MOL0     H26791   5.927   0.625   0.817  1.0070 -2.4147 -1.1161
  203MOL0     H26792   5.895   0.753   0.608 -3.1730  0.8611 -1.3164
  203MOL0     H26793   5.943   0.574   0.585 -0.9586 -1.7997  1.6281
  203MOL0     H26794   5.589   0.638   0.368 -0.5388 -0.4498  0.9964
  203MOL0     H26795   5.747   0.909   1.120  0.5120 -0.0357 -1.2471
  203MOL0     H26796   5.930   1.011   1.251 -0.5257 -0.2106  0.0778
  204MOL0     O26797   5.973   9.725   2.306 -0.7276 -0.8287  0.3501
  204MOL0     C26798   6.038   9.833   2.323 -0.7097  0.3779 -0.5357
  204MOL0     O26799   6.015   9.927   2.415  0.0551  0.7397 -0.6793
  204MOL0     C26800   5.911   9.929   2.506  0.6996  0.5812 -0.0051
  204MOL0     C26801   5.812   9.826   2.518 -0.4689  0.1031 -0.5447
  204MOL0     C26802   5.700   9.862   2.587  0.2117  0.0514  0.1378
  204MOL0     C26803   5.678   9.982   2.658 -0.4986  0.7672  0.3807
  204MOL0     O26804   5.552  10.000   2.714 -0.0016  0.7976  0.7730
  204MOL0     C26805   5.531  10.114   2.793  0.0398 -0.3205 -0.4038
  204MOL0     C26806   5.388  10.102   2.855  0.3639 -0.6923 -0.2258
  204MOL0     C26807   5.283  10.144   2.752  0.2125 -0.0504  0.2301
  204MOL0     C26808   5.150  10.165   2.820  1.7566  0.2610 -0.3688
  204MOL0     C26809   5.034  10.100   2.751 -0.6777  0.0580  0.4995
  204MOL0     C26810   4.901  10.130   2.830  0.2414  0.3109  0.1669
  204MOL0     C26811   4.858  10.262   2.796  0.6897  0.8266  0.2737
  204MOL0     C26812   4.697  10.270   2.783 -0.5469  0.1335 -0.5046
  204MOL0     N26813   4.660  10.407   2.746  0.4318 -0.8390 -1.2170
  204MOL0     C26814   4.710  10.528   2.807  0.0695  0.8159  0.1921
  204MOL0     C26815   4.644  10.629   2.739 -0.7796  0.7138 -0.0762
  204MOL0     C26816   4.644  10.773   2.767  0.5103 -1.1124 -0.3502
  204MOL0     C26817   4.541  10.826   2.872  0.4696 -0.0150 -0.2697
  204MOL0     C26818   4.560  10.981   2.896  0.7452 -0.7215 -0.3591
  204MOL0     C26819   4.513  11.078   2.792  0.7301  0.2820 -1.2290
  204MOL0     O26820   4.607  11.100   2.687  0.3367 -0.3256  0.8935
  204MOL0     C26821   4.578  11.216   2.614 -0.0525  0.0868 -0.6162
  204MOL0     C26822   4.624  11.217   2.476  0.0022  0.5256  0.2446
  204MOL0     C26823   4.569  11.306   2.383  0.2189 -0.6118 -0.6377
  204MOL0     C26824   4.487  11.413   2.436 -0.6592  0.7362  0.7709
  204MOL0     C26825   4.440  11.513   2.335  0.8616 -0.2485  0.8198
  204MOL0     O26826   4.425  11.468   2.209 -0.1322 -0.0994  0.0950
  204MOL0     C26827   4.334  11.521   2.125 -0.9300 -0.1335  0.1650
  204MOL0     C26828   4.359  11.503   1.994 -0.3495  1.0153 -0.0102
  204MOL0     C26829   4.268  11.547   1.895  0.5861 -0.4726  0.0410
  204MOL0     C26830   4.156  11.622   1.926 -0.5865  0.3413 -0.9285
  204MOL0     O26831   4.087  11.694   1.833  0.5152  0.0830 -0.5646
  204MOL0     C26832   4.116  11.672   1.696 -0.0203  0.3333  0.5120
  204MOL0     C26833   4.038  11.760   1.601 -0.5373  0.0586 -0.5740
  204MOL0     C26834   3.888  11.749   1.616  0.1434 -0.2909  0.6631
  204MOL0     C26835   3.803  11.837   1.530  0.2589  0.0771 -0.2793
  204MOL0     C26836   3.804  11.795   1.382  1.0322  0.0763 -0.1730
  204MOL0     C26837   3.729  11.894   1.296  0.3813 -0.1845 -0.3855
  204MOL0     C26838   3.576  11.910   1.308 -0.1462  0.8349  0.1263
  204MOL0     C26839   3.517  11.969   1.184  0.3333  0.4938  0.7088
  204MOL0    Cl26840   3.342  11.968   1.191  0.1790 -0.3119  0.0427
  204MOL0     C26841   4.128  11.634   2.064 -1.7765  0.0020  0.5236
  204MOL0     C26842   4.217  11.586   2.163  0.1403  0.9336 -0.2796
  204MOL0     O26843   4.418  11.631   2.367 -0.1353  0.0154 -0.5381
  204MOL0     C26844   4.463  11.427   2.573 -0.6532 -0.3358 -0.3968
  204MOL0     C26845   4.500  11.322   2.658  0.4830 -0.5178  0.3953
  204MOL0     N26846   4.569  10.573   2.648 -0.3705 -0.5377  0.6648
  204MOL0     N26847   4.575  10.445   2.653  0.8702  0.8574  0.0184
  204MOL0     C26848   5.775  10.077   2.650 -0.1437  0.3235  1.7431
  204MOL0     C26849   5.886  10.056   2.570  0.1701 -0.4219  0.4513
  204MOL0     C26850   6.160   9.841   2.241 -0.7913 -0.0732  0.3443
  204MOL0     C26851   6.150   9.808   2.102 -0.7509  0.0969  1.8153
  204MOL0     C26852   6.268   9.787   2.029  0.0559  0.4255 -0.9065
  204MOL0     C26853   6.393   9.794   2.094  0.0569  0.1496  0.2462
  204MOL0     O26854   6.507   9.759   2.027 -0.4871  0.9003  1.1584
  204MOL0     C26855   6.559   9.867   1.937  0.5384  0.9498  1.2007
  204MOL0     C26856   6.562   9.797   1.798 -0.0709 -0.5082 -0.3052
  204MOL0     C26857   6.620   9.898   1.690 -0.0202  0.2014  0.0870
  204MOL0     C26858   6.572  10.043   1.682  0.4204 -0.3231  0.2065
  204MOL0     C26859   6.428  10.034   1.671 -0.3266  0.0986  0.5411
  204MOL0     C26860   6.305  10.030   1.670 -0.3905  0.9029  0.4246
  204MOL0     C26861   6.397   9.830   2.232 -0.6459 -0.7775 -0.1453
  204MOL0     C26862   6.283   9.846   2.315  0.1111 -0.1549  0.6691
  204MOL0     H26863   5.800   9.734   2.460 -3.9706  0.6761 -0.9331
  204MOL0     H26864   5.614   9.797   2.571  0.5800  0.0130 -1.8945
  204MOL0     H26865   5.536  10.203   2.729 -1.4103  0.6579  0.7834
  204MOL0     H26866   5.599  10.120   2.879  1.0174 -1.4464 -1.0798
  204MOL0     H26867   5.384  10.182   2.930  2.1615 -1.5303  0.8313
  204MOL0     H26868   5.365  10.002   2.893 -2.7994  1.1825  3.4515
  204MOL0     H26869   5.278  10.059   2.685  0.7551  0.1056 -0.0193
  204MOL0     H26870   5.315  10.236   2.702 -1.3587  0.6275  0.4262
  204MOL0     H26871   5.157  10.137   2.926  1.9726  0.9364 -0.1978
  204MOL0     H26872   5.141  10.274   2.824  4.0821  0.5176 -1.1433
  204MOL0     H26873   5.048   9.991   2.750  0.7380  0.1647 -2.5032
  204MOL0     H26874   5.028  10.132   2.646 -1.0110  0.6897  0.7087
  204MOL0     H26875   4.916  10.120   2.938  1.0576  1.7193  0.2136
  204MOL0     H26876   4.834  10.053   2.792  1.5384 -0.4125 -0.7536
  204MOL0     H26877   4.889  10.331   2.875  4.5303 -1.8307  1.3787
  204MOL0     H26878   4.901  10.294   2.701 -0.2378  0.8875 -0.1362
  204MOL0     H26879   4.643  10.254   2.876 -1.3270  1.4724 -0.6894
  204MOL0     H26880   4.666  10.202   2.703 -2.8735 -0.9452  1.2035
  204MOL0     H26881   4.786  10.538   2.884  3.2356  0.1768 -2.6144
  204MOL0     H26882   4.619  10.831   2.677 -0.3614  0.9830  1.1451
  204MOL0     H26883   4.744  10.810   2.792 -0.1564  1.6322 -1.2998
  204MOL0     H26884   4.555  10.774   2.968 -2.4408 -2.0810 -0.8443
  204MOL0     H26885   4.441  10.807   2.833  1.7500 -2.3647 -2.7267
  204MOL0     H26886   4.512  10.996   2.993 -0.1224 -4.4368 -0.0448
  204MOL0     H26887   4.666  11.000   2.908  0.3106  1.8457 -0.0360
  204MOL0     H26888   4.487  11.173   2.840  1.4932  1.7709 -3.5685
  204MOL0     H26889   4.422  11.042   2.743  1.8255 -2.0879 -1.6760
  204MOL0     H26890   4.692  11.139   2.441 -0.8440  0.1885 -0.6908
  204MOL0     H26891   4.595  11.286   2.279 -0.6499 -2.2966 -0.5724
  204MOL0     H26892   4.430  11.425   1.967 -0.5649  0.3920  1.1890
  204MOL0     H26893   4.300  11.513   1.797  1.8254 -0.8171  0.5431
  204MOL0     H26894   4.093  11.567   1.674  3.0369 -0.4414  0.5460
  204MOL0     H26895   4.224  11.678   1.679  0.2323 -3.3424  0.0103
  204MOL0     H26896   4.057  11.720   1.500  1.8431  0.5809 -0.3792
  204MOL0     H26897   4.060  11.866   1.617 -0.6202  0.2148 -1.4112
  204MOL0     H26898   3.868  11.763   1.723  0.8330  0.3317  0.7215
  204MOL0     H26899   3.869  11.641   1.611  0.7211 -0.3951  0.5724
  204MOL0     H26900   3.697  11.845   1.556  0.9702  3.5674  2.3366
  204MOL0     H26901   3.834  11.941   1.540 -2.0813  0.8327 -0.2149
  204MOL0     H26902   3.744  11.703   1.378 -2.3367  1.8988  2.8488
  204MOL0     H26903   3.907  11.784   1.345  1.3419 -1.8541  1.0930
  204MOL0     H26904   3.761  11.845   1.204  3.6625 -0.1451  0.6072
  204MOL0     H26905   3.779  11.991   1.286  1.0752 -0.6100 -1.1999
  204MOL0     H26906   3.537  11.808   1.318  3.6903 -0.9117 -0.8107
  204MOL0     H26907   3.542  11.959   1.399 -2.7408 -0.2616 -0.1690
  204MOL0     H26908   3.545  11.902   1.102 -2.1994 -0.3334  0.4417
  204MOL0     H26909   3.540  12.076   1.179 -4.0525  1.6917  1.6109
  204MOL0     H26910   4.042  11.694   2.095 -1.5487  1.0272 -0.7182
  204MOL0     H26911   4.201  11.611   2.268  0.6532  0.4224 -0.0793
  204MOL0     H26912   4.401  11.507   2.612 -1.2817 -1.0670  0.1025
  204MOL0     H26913   4.472  11.351   2.759 -0.8279 -0.0802 -0.0756
  204MOL0     H26914   5.763  10.177   2.690 -1.4582  1.1026 -0.4126
  204MOL0     H26915   5.963  10.133   2.567 -1.2763  1.1216  1.2522
  204MOL0     H26916   6.057   9.790   2.048  0.1347  0.1095  0.2242
  204MOL0     H26917   6.281   9.759   1.925  0.9301 -0.0607 -0.6799
  204MOL0     H26918   6.657   9.893   1.977 -0.3236 -0.3165  4.4430
  204MOL0     H26919   6.494   9.956   1.940 -0.7844  0.0408  0.6895
  204MOL0     H26920   6.627   9.714   1.828 -2.8147 -1.3865  4.2102
  204MOL0     H26921   6.461   9.757   1.786 -0.6317  0.0904  1.9812
  204MOL0     H26922   6.598   9.857   1.591  1.0664 -0.3200  0.0463
  204MOL0     H26923   6.728   9.902   1.701 -0.2024  0.8785  1.9564
  204MOL0     H26924   6.590  10.092   1.778 -0.5935  2.0556 -0.7458
  204MOL0     H26925   6.604  10.093   1.590 -2.5784 -2.2185 -2.0330
  204MOL0     H26926   6.199  10.030   1.662 -0.4981 -0.3600  1.4169
  204MOL0     H26927   6.496   9.838   2.276  0.1360 -4.4897 -0.8619
  204MOL0     H26928   6.290   9.875   2.420 -0.7717 -0.9194  0.9558
  205MOL0     O26929   7.622   2.863   7.745  0.1471 -0.2839 -0.3993
  205MOL0     C26930   7.645   2.822   7.860 -0.9652  0.4930  0.5158
  205MOL0     O26931   7.649   2.901   7.968 -0.1613  0.2673  0.0089
  205MOL0     C26932   7.618   3.032   7.949 -0.2033 -0.3632 -0.2297
  205MOL0     C26933   7.486   3.062   7.966 -0.1991 -0.7975  0.5082
  205MOL0     C26934   7.454   3.196   7.956  0.7367 -0.8851 -0.0528
  205MOL0     C26935   7.546   3.301   7.925  1.2554  0.2940 -0.4053
  205MOL0     O26936   7.492   3.414   7.913  0.4907 -0.2140  0.0011
  205MOL0     C26937   7.560   3.494   7.806  0.6378  0.4616  0.2638
  205MOL0     C26938   7.479   3.632   7.786 -0.5439  0.2375  0.5156
  205MOL0     C26939   7.334   3.622   7.742  0.1248  0.0013  0.0228
  205MOL0     C26940   7.240   3.597   7.856  0.1525 -0.3982 -0.2085
  205MOL0     C26941   7.098   3.613   7.802  0.5552  1.1244  0.3018
  205MOL0     C26942   6.982   3.604   7.912  0.7969  0.0742  0.4058
  205MOL0     C26943   7.011   3.704   8.022  0.3483 -0.1819  0.4293
  205MOL0     C26944   6.882   3.692   8.118 -0.6448 -0.5564 -0.2613
  205MOL0     N26945   6.912   3.775   8.235  0.1313  0.6574  1.5963
  205MOL0     C26946   6.927   3.727   8.363 -0.6365 -0.3409  0.2534
  205MOL0     C26947   6.969   3.834   8.435 -0.4342  0.5023  0.4641
  205MOL0     C26948   7.026   3.829   8.576  0.4251  0.4252 -0.1749
  205MOL0     C26949   6.910   3.838   8.679  0.2323 -0.2454  0.5423
  205MOL0     C26950   6.805   3.944   8.638 -0.0966  0.2112 -0.7707
  205MOL0     C26951   6.752   4.035   8.746 -1.0146 -1.2938 -0.8899
  205MOL0     O26952   6.698   3.968   8.859 -0.4633  0.1793  0.0024
  205MOL0     C26953   6.566   3.944   8.859  0.1297  0.4735 -0.1879
  205MOL0     C26954   6.516   3.901   8.986  0.6819 -0.1537 -1.1491
  205MOL0     C26955   6.374   3.899   9.000  1.3340  0.1189 -0.7146
  205MOL0     C26956   6.280   3.927   8.899 -0.2418  0.8816 -0.8533
  205MOL0     C26957   6.136   3.913   8.942 -0.3352  0.3226  0.0868
  205MOL0     O26958   6.102   3.793   8.989  0.1975  0.0099 -0.1993
  205MOL0     C26959   5.970   3.774   9.022  0.9554  0.0976  0.5751
  205MOL0     C26960   5.892   3.868   9.097  0.5750  0.7612  1.0044
  205MOL0     C26961   5.749   3.857   9.099  0.6475  0.9265  0.2508
  205MOL0     C26962   5.686   3.736   9.052  0.0454  1.1113 -0.1541
  205MOL0     O26963   5.549   3.737   9.058  0.0192  0.2662 -0.3888
  205MOL0     C26964   5.460   3.641   8.998 -0.3899 -0.5390  0.1546
  205MOL0     C26965   5.398   3.698   8.878 -0.2995 -0.5346  0.1013
  205MOL0     C26966   5.308   3.818   8.909 -0.9271 -0.8379 -0.3469
  205MOL0     C26967   5.270   3.903   8.786 -0.3168 -0.0664  0.4718
  205MOL0     C26968   5.149   3.991   8.824 -0.1347 -0.1737 -0.1300
  205MOL0     C26969   5.109   4.105   8.719  0.4224  0.1121 -0.2343
  205MOL0     C26970   5.115   4.066   8.574 -0.0547 -1.1840  1.3516
  205MOL0     C26971   5.044   4.165   8.480  0.4952  0.2471 -0.4642
  205MOL0    Cl26972   5.044   4.087   8.329  0.4441 -0.0005  0.1816
  205MOL0     C26973   5.764   3.633   8.996 -0.1591  0.6027  0.2968
  205MOL0     C26974   5.902   3.658   8.965  0.6116 -0.1529  0.1669
  205MOL0     O26975   6.068   4.012   8.918  0.3036  0.2514  0.6405
  205MOL0     C26976   6.327   3.960   8.774 -0.4608  0.6304  0.7544
  205MOL0     C26977   6.473   3.966   8.750  0.8310 -0.2958 -1.1951
  205MOL0     N26978   6.962   3.944   8.353 -0.6957 -0.1947 -0.1255
  205MOL0     N26979   6.932   3.909   8.229  0.2326  0.2500 -0.0905
  205MOL0     C26980   7.678   3.268   7.912 -0.2784 -0.0233  1.2005
  205MOL0     C26981   7.718   3.134   7.927 -0.6100  0.7203  0.6646
  205MOL0     C26982   7.694   2.682   7.872 -0.3669 -0.2632  0.8231
  205MOL0     C26983   7.721   2.610   7.756 -1.0005  0.2107  0.2434
  205MOL0     C26984   7.762   2.479   7.764  0.0042  0.3883 -0.3144
  205MOL0     C26985   7.760   2.413   7.884 -0.3472  0.1380 -1.3015
  205MOL0     O26986   7.805   2.287   7.876 -0.5113  0.9889  0.4290
  205MOL0     C26987   7.765   2.211   7.979  0.0762  1.0753  1.0523
  205MOL0     C26988   7.783   2.065   7.940 -0.7492 -0.3681  0.1962
  205MOL0     C26989   7.664   2.028   7.854 -0.3366 -0.1223  0.2321
  205MOL0     C26990   7.665   1.878   7.828  0.0961  0.0374  0.0541
  205MOL0     C26991   7.546   1.815   7.755 -0.6719  0.6267 -0.4656
  205MOL0     C26992   7.463   1.775   7.683  0.2380 -1.1950  0.2642
  205MOL0     C26993   7.731   2.485   8.003  0.3121 -0.5758  0.9363
  205MOL0     C26994   7.702   2.623   7.991  0.0650  0.4827  0.1914
  205MOL0     H26995   7.413   2.985   7.986  0.8709 -0.9415  4.6605
  205MOL0     H26996   7.352   3.231   7.947  1.7085  2.7538  1.0199
  205MOL0     H26997   7.549   3.445   7.709  1.2626  1.2092 -0.1910
  205MOL0     H26998   7.666   3.517   7.820  0.5274 -0.4467  3.2801
  205MOL0     H26999   7.536   3.688   7.712  3.9316 -2.6490  1.3813
  205MOL0     H27000   7.480   3.688   7.881 -0.1877 -1.6032  1.6414
  205MOL0     H27001   7.312   3.541   7.672 -2.0876  0.4341  0.1193
  205MOL0     H27002   7.304   3.719   7.700  2.7700  0.5478 -0.7301
  205MOL0     H27003   7.260   3.495   7.890 -0.6603 -1.0378 -1.5656
  205MOL0     H27004   7.267   3.674   7.929  2.9696  0.3178 -1.8411
  205MOL0     H27005   7.087   3.540   7.722  2.0499  0.4333  0.6922
  205MOL0     H27006   7.074   3.712   7.762 -3.8123 -0.0691 -0.6020
  205MOL0     H27007   6.975   3.503   7.953  0.5344 -0.0070  0.1672
  205MOL0     H27008   6.887   3.620   7.860  0.4919  1.1210  1.2515
  205MOL0     H27009   7.100   3.690   8.084  1.5875 -0.3352 -1.3050
  205MOL0     H27010   7.022   3.808   7.989 -0.2751  0.2517  1.5216
  205MOL0     H27011   6.850   3.591   8.145 -3.0561 -0.2061 -1.5146
  205MOL0     H27012   6.801   3.744   8.066 -0.7105  0.5480  0.8651
  205MOL0     H27013   6.931   3.622   8.390  1.2153 -0.6832 -1.1781
  205MOL0     H27014   7.099   3.909   8.596  1.1752  0.4336 -2.5747
  205MOL0     H27015   7.079   3.735   8.594 -0.5788 -0.6621 -2.4656
  205MOL0     H27016   6.960   3.868   8.772  3.6334  3.8496 -2.2019
  205MOL0     H27017   6.876   3.735   8.697 -0.9549  0.0229 -0.0969
  205MOL0     H27018   6.858   4.015   8.574  0.0760  0.6249 -0.1734
  205MOL0     H27019   6.719   3.890   8.598 -1.1493  1.2963 -0.0407
  205MOL0     H27020   6.690   4.117   8.707  0.3960  0.2042 -0.1359
  205MOL0     H27021   6.842   4.088   8.778 -2.3994  1.8473 -1.6926
  205MOL0     H27022   6.582   3.888   9.071 -1.7301  0.4158  0.9016
  205MOL0     H27023   6.345   3.881   9.103  4.6484  1.3728  0.6045
  205MOL0     H27024   5.930   3.959   9.144 -1.1070 -0.0578  4.3201
  205MOL0     H27025   5.689   3.935   9.143  2.3443  2.2342  0.3512
  205MOL0     H27026   5.379   3.603   9.062 -0.1050  1.1912  1.6162
  205MOL0     H27027   5.512   3.549   8.969  0.8777  0.4970 -0.9227
  205MOL0     H27028   5.339   3.619   8.829 -2.3649  0.5961  0.6657
  205MOL0     H27029   5.468   3.749   8.811  1.7006  0.8293  3.0219
  205MOL0     H27030   5.350   3.883   8.986 -0.4252 -0.9247 -0.5452
  205MOL0     H27031   5.216   3.773   8.947 -2.2961 -1.0510 -3.5600
  205MOL0     H27032   5.351   3.972   8.758 -1.3341  2.1736  2.6474
  205MOL0     H27033   5.236   3.843   8.702 -1.2226  0.1106  0.7047
  205MOL0     H27034   5.164   4.043   8.920  3.5423  4.3304 -2.6929
  205MOL0     H27035   5.064   3.926   8.842 -1.1823  1.2312  0.1960
  205MOL0     H27036   5.179   4.184   8.745  0.4678 -0.8004  2.8546
  205MOL0     H27037   5.012   4.152   8.740 -0.2344 -1.8292  1.4404
  205MOL0     H27038   5.222   4.050   8.559 -0.0188 -1.8836  2.2770
  205MOL0     H27039   5.064   3.970   8.567  1.8834 -2.4085  3.0130
  205MOL0     H27040   5.094   4.261   8.465  1.7768 -0.1700  0.9050
  205MOL0     H27041   4.947   4.182   8.527  0.6022 -2.6086  1.0150
  205MOL0     H27042   5.714   3.541   8.968 -0.3550 -0.2931  3.2654
  205MOL0     H27043   5.959   3.579   8.916  2.3216 -1.6648  4.1375
  205MOL0     H27044   6.255   3.980   8.695 -0.3717 -1.5916  0.0489
  205MOL0     H27045   6.510   3.978   8.648 -0.1638  0.9361 -1.4345
  205MOL0     H27046   7.750   3.341   7.876 -0.2549 -1.0295 -0.8771
  205MOL0     H27047   7.821   3.121   7.895 -1.3831  2.7584 -3.3652
  205MOL0     H27048   7.729   2.648   7.655 -2.3211  0.3204  0.1668
  205MOL0     H27049   7.790   2.434   7.669  0.5082  0.1773 -0.0729
  205MOL0     H27050   7.659   2.221   8.004  0.0531  0.7078  1.1001
  205MOL0     H27051   7.826   2.225   8.069  1.2962 -0.5664  0.5248
  205MOL0     H27052   7.875   2.051   7.881 -1.2853  0.0033 -0.7543
  205MOL0     H27053   7.799   2.012   8.034  3.4786 -0.9200 -0.6347
  205MOL0     H27054   7.666   2.072   7.754  1.2749 -0.9898 -0.1344
  205MOL0     H27055   7.573   2.065   7.902  0.9607  3.0681  0.4751
  205MOL0     H27056   7.755   1.854   7.770  1.1750  2.2274  0.7094
  205MOL0     H27057   7.668   1.829   7.926  0.1310  0.4994  0.2902
  205MOL0     H27058   7.386   1.735   7.619 -0.2323 -2.0211  1.3171
  205MOL0     H27059   7.744   2.430   8.096  2.8975 -2.3049 -0.3203
  205MOL0     H27060   7.691   2.674   8.086  2.6715  0.2642  0.6841
  206MOL0     O27061   6.582   7.479   4.142 -0.9596  0.5626 -0.6652
  206MOL0     C27062   6.548   7.456   4.032  0.2128 -1.0057  0.2305
  206MOL0     O27063   6.622   7.390   3.940  0.2740 -0.4668  0.3073
  206MOL0     C27064   6.765   7.392   3.954 -0.2190  0.8002 -0.5512
  206MOL0     C27065   6.835   7.370   4.075  0.5953 -0.7551  0.3896
  206MOL0     C27066   6.971   7.387   4.084 -0.1573  0.3494  0.3314
  206MOL0     C27067   7.049   7.426   3.978  0.1917  0.3528  0.2970
  206MOL0     O27068   7.184   7.438   3.994 -0.8704  0.0389 -0.1714
  206MOL0     C27069   7.260   7.545   3.930 -0.9800 -0.3697 -0.5069
  206MOL0     C27070   7.397   7.495   3.887 -0.3816  0.3543  0.0369
  206MOL0     C27071   7.519   7.599   3.891  0.0838 -0.3751  1.1294
  206MOL0     C27072   7.652   7.546   3.878  0.0638  0.5150  0.6300
  206MOL0     C27073   7.757   7.632   3.942 -0.6553  1.0174 -0.2819
  206MOL0     C27074   7.784   7.767   3.867 -0.2122 -0.9840 -0.4778
  206MOL0     C27075   7.857   7.859   3.966  0.4856  0.3316  0.3004
  206MOL0     C27076   7.911   7.986   3.887  0.2275  0.0947 -0.5383
  206MOL0     N27077   7.992   8.068   3.980  0.0464  0.9001  0.0287
  206MOL0     C27078   7.954   8.164   4.067  1.2157  0.1777  0.6968
  206MOL0     C27079   8.065   8.205   4.132 -0.8554 -0.9940 -0.1510
  206MOL0     C27080   8.079   8.307   4.244 -0.2417  0.0652 -0.3355
  206MOL0     C27081   7.997   8.429   4.212 -0.4090 -0.1398  0.4436
  206MOL0     C27082   8.003   8.550   4.303  0.1675  0.0784  0.0006
  206MOL0     C27083   7.908   8.530   4.424  0.1888  0.7852  0.4743
  206MOL0     O27084   7.788   8.596   4.412 -0.1891 -0.9173  0.2096
  206MOL0     C27085   7.780   8.729   4.381  0.1392 -0.1535 -0.2354
  206MOL0     C27086   7.881   8.830   4.380 -1.2278  0.6571 -0.5530
  206MOL0     C27087   7.854   8.958   4.340 -0.6621  0.5392  0.8957
  206MOL0     C27088   7.729   8.990   4.296  0.7431 -0.2107  0.3475
  206MOL0     C27089   7.700   9.139   4.259 -0.2344  0.2080 -0.3907
  206MOL0     O27090   7.790   9.233   4.298  0.8261 -0.4271  0.3995
  206MOL0     C27091   7.778   9.363   4.262 -0.1081  0.0453 -0.7632
  206MOL0     C27092   7.664   9.439   4.261  0.8739 -0.1406 -1.0732
  206MOL0     C27093   7.666   9.570   4.230 -0.1982  0.0368 -0.2549
  206MOL0     C27094   7.789   9.635   4.198  0.4651  1.1655  0.6662
  206MOL0     O27095   7.791   9.765   4.156  0.2989  0.1137 -0.1123
  206MOL0     C27096   7.719   9.861   4.239  0.7638  0.8503  0.1284
  206MOL0     C27097   7.632   9.954   4.163 -0.5804 -0.2538  0.0296
  206MOL0     C27098   7.552   9.880   4.055 -0.5178 -0.1179  0.3503
  206MOL0     C27099   7.446   9.971   4.002  0.5686 -0.8535 -0.0307
  206MOL0     C27100   7.327   9.903   3.937 -0.2632  0.6013  0.3223
  206MOL0     C27101   7.228   9.837   4.037 -0.1493  0.3723 -0.3404
  206MOL0     C27102   7.093   9.793   3.974  0.0996 -0.5003 -0.8641
  206MOL0     C27103   7.111   9.697   3.856  0.4385  0.7400  0.2251
  206MOL0    Cl27104   6.963   9.615   3.836 -0.4538  0.3903 -0.0279
  206MOL0     C27105   7.909   9.563   4.195 -0.2922 -0.1125  0.9376
  206MOL0     C27106   7.900   9.428   4.229 -0.6902  0.2330 -0.3959
  206MOL0     O27107   7.611   9.154   4.173  0.3296  0.5510 -0.4555
  206MOL0     C27108   7.622   8.894   4.295 -0.3968  0.0694 -0.7122
  206MOL0     C27109   7.652   8.763   4.333 -0.2529  0.2531 -1.0108
  206MOL0     N27110   8.169   8.144   4.074  0.0151 -0.1777  0.0698
  206MOL0     N27111   8.127   8.058   3.993  0.0537  0.1132  0.2224
  206MOL0     C27112   6.982   7.450   3.859 -0.8525 -0.7261 -0.6475
  206MOL0     C27113   6.843   7.429   3.844 -0.6099 -0.4513 -0.8243
  206MOL0     C27114   6.408   7.493   3.999 -1.1948  0.7514  0.3708
  206MOL0     C27115   6.369   7.517   3.861 -0.0374  0.3932  0.4697
  206MOL0     C27116   6.234   7.533   3.832  0.3286 -0.4798  0.3947
  206MOL0     C27117   6.135   7.528   3.927 -0.0447 -0.9257 -0.7207
  206MOL0     O27118   5.999   7.562   3.896  0.2231 -0.7425  0.3966
  206MOL0     C27119   5.893   7.523   3.983 -0.2983  0.6363 -0.1768
  206MOL0     C27120   5.755   7.545   3.921  0.1826 -1.2440 -0.0230
  206MOL0     C27121   5.729   7.695   3.891 -0.4310  0.8659  0.3576
  206MOL0     C27122   5.598   7.707   3.807 -0.1088  0.8174 -0.5482
  206MOL0     C27123   5.522   7.833   3.834 -0.2584  0.0855  0.2354
  206MOL0     C27124   5.452   7.928   3.852 -0.1911  0.4033  0.0910
  206MOL0     C27125   6.171   7.507   4.068  0.1658 -0.9547 -0.1689
  206MOL0     C27126   6.309   7.490   4.103 -0.3644  0.3108 -0.6872
  206MOL0     H27127   6.785   7.333   4.164  1.5723 -3.5143 -0.0903
  206MOL0     H27128   7.022   7.374   4.179  0.7012  0.6381 -0.0749
  206MOL0     H27129   7.276   7.622   4.006 -0.0088 -3.0512  2.2276
  206MOL0     H27130   7.203   7.592   3.849 -1.2373  1.9525  0.9136
  206MOL0     H27131   7.393   7.450   3.787 -1.4124  0.4607  0.0199
  206MOL0     H27132   7.429   7.418   3.958 -0.4158  1.4149  1.2191
  206MOL0     H27133   7.500   7.663   3.978  0.3320 -0.4281  1.2226
  206MOL0     H27134   7.511   7.676   3.813 -0.1475  0.2658  1.7720
  206MOL0     H27135   7.668   7.448   3.925  0.3418 -0.5956 -1.6302
  206MOL0     H27136   7.668   7.520   3.773  0.6205  0.4413  0.7317
  206MOL0     H27137   7.852   7.578   3.944 -0.5021  1.3036  0.2658
  206MOL0     H27138   7.724   7.646   4.045 -1.5096 -0.1352 -0.3835
  206MOL0     H27139   7.689   7.817   3.842 -3.0168 -4.0032  2.9071
  206MOL0     H27140   7.854   7.757   3.784  0.1023 -2.9394 -0.0186
  206MOL0     H27141   7.789   7.882   4.049 -2.9263 -0.6458 -2.0220
  206MOL0     H27142   7.940   7.804   4.012 -1.6376 -0.0150  4.2123
  206MOL0     H27143   7.829   8.045   3.844  3.8235  1.8430 -6.0593
  206MOL0     H27144   7.979   7.962   3.805  0.1998 -0.4079 -0.4208
  206MOL0     H27145   7.848   8.186   4.075  1.1526 -0.1188  0.6963
  206MOL0     H27146   8.186   8.329   4.236  0.8988 -4.7771 -1.5124
  206MOL0     H27147   8.057   8.258   4.339  0.6753  2.5309  1.2400
  206MOL0     H27148   7.894   8.397   4.195  0.6600 -1.8983 -4.6680
  206MOL0     H27149   8.022   8.471   4.114  0.1663  0.9352  1.0354
  206MOL0     H27150   8.105   8.577   4.334  0.7522  0.8956 -2.4073
  206MOL0     H27151   7.972   8.635   4.242 -1.6039  1.6639  2.8460
  206MOL0     H27152   7.967   8.566   4.510 -1.4993  2.2673  1.0807
  206MOL0     H27153   7.887   8.423   4.437  0.0570  1.0453  3.0304
  206MOL0     H27154   7.985   8.822   4.411 -1.8788  1.2368  2.0378
  206MOL0     H27155   7.927   9.038   4.343 -2.4717  2.3652 -0.5418
  206MOL0     H27156   7.571   9.390   4.290  0.6644  0.3585 -0.8742
  206MOL0     H27157   7.577   9.632   4.224  0.7063  2.1738  4.2437
  206MOL0     H27158   7.798   9.924   4.284  0.4492  0.6160  1.0330
  206MOL0     H27159   7.659   9.810   4.315  0.5793 -0.4792 -0.8801
  206MOL0     H27160   7.692  10.029   4.109 -1.3196 -0.4702 -1.1212
  206MOL0     H27161   7.572  10.009   4.237  0.2422 -0.7318  1.0874
  206MOL0     H27162   7.504   9.797   4.108  0.1101 -0.6415  0.1026
  206MOL0     H27163   7.618   9.846   3.975  0.2936  3.5278 -0.6954
  206MOL0     H27164   7.418  10.044   4.079  0.1901 -2.8760  1.8676
  206MOL0     H27165   7.491  10.031   3.923  0.7188 -0.3537  0.4234
  206MOL0     H27166   7.349   9.821   3.867 -1.1450 -0.6620  1.4635
  206MOL0     H27167   7.279   9.985   3.883  1.2863  3.9034  3.5597
  206MOL0     H27168   7.209   9.910   4.116 -1.0512  0.8991 -1.0250
  206MOL0     H27169   7.278   9.744   4.065 -0.0293  0.2245 -1.0230
  206MOL0     H27170   7.042   9.742   4.056 -1.9668  0.2725 -1.5962
  206MOL0     H27171   7.035   9.885   3.960  2.0437  1.5175  2.8042
  206MOL0     H27172   7.174   9.612   3.884 -1.9814 -1.8080 -1.5245
  206MOL0     H27173   7.129   9.745   3.759  1.0409  0.9532  0.4395
  206MOL0     H27174   8.005   9.607   4.167  0.8972 -3.0306  0.0183
  206MOL0     H27175   7.985   9.362   4.220 -1.0812 -0.4933  0.9650
  206MOL0     H27176   7.519   8.922   4.271 -1.0554 -2.3255 -0.9457
  206MOL0     H27177   7.572   8.691   4.348 -0.9125  1.0862 -0.4754
  206MOL0     H27178   7.033   7.469   3.764 -0.1916 -0.2557 -0.2099
  206MOL0     H27179   6.794   7.447   3.748  0.0602  0.2170 -1.0538
  206MOL0     H27180   6.440   7.503   3.780 -0.7927 -1.5232  0.0667
  206MOL0     H27181   6.217   7.557   3.728  3.2003 -3.1674 -0.8486
  206MOL0     H27182   5.888   7.587   4.072 -1.4710 -0.7810  0.8241
  206MOL0     H27183   5.900   7.417   4.008  1.0609  0.0956 -2.5377
  206MOL0     H27184   5.735   7.488   3.830 -2.2295 -0.8898  0.2369
  206MOL0     H27185   5.680   7.515   3.995  0.1398 -0.6258  0.1878
  206MOL0     H27186   5.810   7.746   3.837 -1.9207  2.0810 -0.8459
  206MOL0     H27187   5.718   7.743   3.988  0.0837 -1.6675  1.7485
  206MOL0     H27188   5.623   7.698   3.701  0.3852  0.1456 -0.3851
  206MOL0     H27189   5.545   7.615   3.835  3.2689 -1.5796 -1.3497
  206MOL0     H27190   5.387   8.006   3.886 -0.8514 -0.4556  0.8158
  206MOL0     H27191   6.098   7.524   4.147 -0.3636 -0.1431 -0.8201
  206MOL0     H27192   6.349   7.469   4.202  1.2332 -4.6284 -2.1139
  207MOL0     O27193   0.686   8.522   3.004 -0.1629 -0.0075  0.6505
  207MOL0     C27194   0.747   8.609   2.944 -0.0111 -0.9710  0.5869
  207MOL0     O27195   0.699   8.689   2.842 -0.2163  0.4792 -0.1382
  207MOL0     C27196   0.577   8.675   2.783  0.0892 -0.8666 -0.0441
  207MOL0     C27197   0.523   8.555   2.738  0.2095  0.3121 -0.2713
  207MOL0     C27198   0.409   8.552   2.652  0.2141 -0.9155 -0.4948
  207MOL0     C27199   0.325   8.667   2.634 -0.4433  0.8426 -0.2373
  207MOL0     O27200   0.212   8.654   2.569  0.5069 -0.3289  0.5726
  207MOL0     C27201   0.194   8.739   2.448  0.1221  0.4367  0.5305
  207MOL0     C27202   0.049   8.737   2.403 -0.4371 -0.6162  0.6940
  207MOL0     C27203   0.026   8.851   2.298  0.5389  0.2657 -0.8964
  207MOL0     C27204  -0.118   8.857   2.247  0.2165  0.4439  0.1159
  207MOL0     C27205  -0.156   8.734   2.169  0.6469  0.2508  0.0703
  207MOL0     C27206  -0.087   8.721   2.029  0.0470  0.0581  0.4431
  207MOL0     C27207  -0.160   8.593   1.960  0.0138 -0.6462 -0.4027
  207MOL0     C27208  -0.101   8.570   1.824  1.0399  0.2026 -0.0196
  207MOL0     N27209  -0.121   8.427   1.797  0.0689  0.2142  0.1734
  207MOL0     C27210  -0.216   8.366   1.713 -0.1593 -0.4966  0.8199
  207MOL0     C27211  -0.183   8.237   1.715 -0.1801  0.4473 -0.3049
  207MOL0     C27212  -0.253   8.143   1.636 -0.3189  0.1832 -0.0591
  207MOL0     C27213  -0.166   8.033   1.558 -0.3135  0.3988 -0.6554
  207MOL0     C27214  -0.256   7.915   1.525 -0.1009  0.3883  0.3409
  207MOL0     C27215  -0.228   7.826   1.401 -0.2919 -0.0785 -0.0047
  207MOL0     O27216  -0.301   7.713   1.372 -0.0104 -0.0806  0.0805
  207MOL0     C27217  -0.434   7.721   1.378  0.5795  0.9056  0.0545
  207MOL0     C27218  -0.513   7.614   1.424 -0.2703 -0.0738  0.0138
  207MOL0     C27219  -0.653   7.631   1.420  0.0205 -0.5048  0.0951
  207MOL0     C27220  -0.719   7.744   1.372  0.2367 -0.1365 -0.8153
  207MOL0     C27221  -0.866   7.762   1.371  0.5436  0.1916 -0.8772
  207MOL0     O27222  -0.942   7.657   1.385 -0.3421 -0.9396 -0.4666
  207MOL0     C27223  -1.075   7.663   1.347  1.0171 -0.0549 -0.2153
  207MOL0     C27224  -1.108   7.632   1.211  0.8181 -0.3173 -0.5660
  207MOL0     C27225  -1.236   7.638   1.166  0.2893  1.0347 -0.5734
  207MOL0     C27226  -1.334   7.695   1.253  0.0832  0.8545 -0.1743
  207MOL0     O27227  -1.469   7.710   1.212 -0.2251 -0.5140 -0.1663
  207MOL0     C27228  -1.547   7.818   1.281 -0.9589  0.1565  0.2749
  207MOL0     C27229  -1.499   7.950   1.210  0.4853 -0.6548 -0.1670
  207MOL0     C27230  -1.600   7.999   1.101  0.0866 -0.2492 -0.9260
  207MOL0     C27231  -1.541   8.123   1.034  0.3477  0.2781  0.0098
  207MOL0     C27232  -1.659   8.194   0.952 -0.0226 -0.3197 -0.1329
  207MOL0     C27233  -1.591   8.308   0.875 -0.7663  0.3386  0.4658
  207MOL0     C27234  -1.705   8.374   0.783  0.8950 -0.5222  0.2763
  207MOL0     C27235  -1.694   8.335   0.635  0.1612 -0.2989 -0.0452
  207MOL0    Cl27236  -1.789   8.446   0.542  0.3992 -0.4296  0.5552
  207MOL0     C27237  -1.298   7.735   1.387 -0.5507 -0.4529  0.1609
  207MOL0     C27238  -1.171   7.716   1.435 -0.3011 -0.2179 -0.0119
  207MOL0     O27239  -0.910   7.868   1.328  0.2339  0.1214 -0.3081
  207MOL0     C27240  -0.639   7.854   1.337  0.1055  0.0872 -0.4953
  207MOL0     C27241  -0.501   7.843   1.336  0.0020  0.4477  0.1657
  207MOL0     N27242  -0.090   8.214   1.825  0.3913  0.3975  0.3306
  207MOL0     N27243  -0.050   8.329   1.866  0.1247  0.2756 -0.3172
  207MOL0     C27244   0.381   8.789   2.683  0.4372 -0.4158  1.2760
  207MOL0     C27245   0.512   8.794   2.737 -0.3676  0.2821  0.1796
  207MOL0     C27246   0.890   8.636   2.975 -0.6437  0.2277 -1.0456
  207MOL0     C27247   0.968   8.709   2.878 -0.7665  0.6868 -0.8102
  207MOL0     C27248   1.104   8.738   2.903  0.5022  0.6748  0.4125
  207MOL0     C27249   1.160   8.710   3.023  0.5026 -0.0676 -0.2137
  207MOL0     O27250   1.289   8.765   3.046 -0.1767  1.1791  0.0088
  207MOL0     C27251   1.306   8.813   3.186  0.0232  1.5068 -0.4423
  207MOL0     C27252   1.393   8.718   3.265 -0.9752  0.2212  0.1644
  207MOL0     C27253   1.527   8.666   3.205 -0.6339 -0.4519 -0.2946
  207MOL0     C27254   1.576   8.533   3.257  0.2865 -0.8852 -0.1450
  207MOL0     C27255   1.632   8.550   3.397 -0.0187  0.5842  0.6978
  207MOL0     C27256   1.679   8.558   3.511  0.1676 -0.1591 -0.6416
  207MOL0     C27257   1.090   8.626   3.112 -0.1456 -0.4164 -0.4739
  207MOL0     C27258   0.956   8.587   3.088 -1.1059 -0.5507 -0.0443
  207MOL0     H27259   0.581   8.470   2.771 -0.0648  1.3937  3.5168
  207MOL0     H27260   0.376   8.457   2.613 -1.5629 -0.7478  0.4903
  207MOL0     H27261   0.262   8.700   2.372  1.7580  1.1954  1.5440
  207MOL0     H27262   0.226   8.842   2.464  3.8832 -0.8128  2.5938
  207MOL0     H27263  -0.027   8.749   2.481 -1.1627 -0.0785 -0.0704
  207MOL0     H27264   0.028   8.650   2.341  2.7061 -0.4259 -0.8232
  207MOL0     H27265   0.092   8.826   2.215  0.2200 -4.5893  0.0543
  207MOL0     H27266   0.048   8.955   2.326 -0.7672  0.1126  0.9189
  207MOL0     H27267  -0.193   8.899   2.314 -0.3346  2.8987 -1.8766
  207MOL0     H27268  -0.107   8.939   2.175  3.2646 -0.7947 -0.9841
  207MOL0     H27269  -0.260   8.759   2.146  1.1539  2.2538 -0.1874
  207MOL0     H27270  -0.140   8.641   2.225  2.5774  1.0610  0.9456
  207MOL0     H27271   0.021   8.706   2.030  0.0898  0.1085 -1.2872
  207MOL0     H27272  -0.102   8.808   1.965  2.4400 -1.2111 -2.0087
  207MOL0     H27273  -0.139   8.500   2.014  1.7552 -0.5874 -0.9102
  207MOL0     H27274  -0.267   8.612   1.949 -0.0020 -0.9990 -0.8995
  207MOL0     H27275   0.008   8.578   1.828  1.4274 -0.9699 -3.9899
  207MOL0     H27276  -0.140   8.632   1.743  1.9889 -0.9476 -1.3990
  207MOL0     H27277  -0.293   8.419   1.657 -0.3752 -2.2056 -0.6126
  207MOL0     H27278  -0.315   8.191   1.560  0.8148 -0.3587 -1.3725
  207MOL0     H27279  -0.320   8.096   1.708  1.2541 -1.4630  0.3790
  207MOL0     H27280  -0.084   8.004   1.625 -1.5157  0.7430  1.0248
  207MOL0     H27281  -0.129   8.081   1.467  1.8756 -3.5282 -2.1024
  207MOL0     H27282  -0.252   7.842   1.607 -1.6614  0.0147  0.1174
  207MOL0     H27283  -0.356   7.953   1.506 -3.0980 -4.3483  3.9948
  207MOL0     H27284  -0.123   7.795   1.402  0.0626  0.8765 -2.3686
  207MOL0     H27285  -0.227   7.891   1.313 -0.3325 -1.0854 -0.7638
  207MOL0     H27286  -0.478   7.523   1.471 -3.8382 -0.4590  2.2435
  207MOL0     H27287  -0.708   7.548   1.461  0.1380 -0.3808  0.5092
  207MOL0     H27288  -1.032   7.600   1.140 -1.7012 -2.5604 -2.4266
  207MOL0     H27289  -1.262   7.618   1.062  0.9168  1.9465 -0.9230
  207MOL0     H27290  -1.528   7.823   1.388  1.3559 -1.8013  0.0409
  207MOL0     H27291  -1.654   7.806   1.261 -0.9372  1.1441 -0.5420
  207MOL0     H27292  -1.401   7.938   1.164  1.9242  0.3253  2.4391
  207MOL0     H27293  -1.492   8.038   1.275  2.1559  0.7200 -2.1002
  207MOL0     H27294  -1.694   8.016   1.154  0.9497 -0.3106  0.6771
  207MOL0     H27295  -1.606   7.912   1.034 -1.3802 -1.3314  0.5382
  207MOL0     H27296  -1.519   8.198   1.110 -2.0681  1.4488 -0.3569
  207MOL0     H27297  -1.453   8.096   0.975  0.3230  0.9109 -0.3195
  207MOL0     H27298  -1.725   8.232   1.031  1.3422 -2.2646  2.0464
  207MOL0     H27299  -1.718   8.129   0.887 -2.1776 -0.8276  2.1839
  207MOL0     H27300  -1.506   8.274   0.815 -0.5824  1.4147  0.0971
  207MOL0     H27301  -1.548   8.382   0.943 -0.6521 -1.2828  2.2468
  207MOL0     H27302  -1.800   8.342   0.827  1.3408  1.2485  2.7445
  207MOL0     H27303  -1.688   8.482   0.781  3.1431 -0.8090  1.1166
  207MOL0     H27304  -1.730   8.235   0.610 -0.5808 -0.2681  0.8393
  207MOL0     H27305  -1.591   8.355   0.604 -0.1686  3.1378  0.6626
  207MOL0     H27306  -1.360   7.775   1.467  1.9550  1.2642  1.4001
  207MOL0     H27307  -1.153   7.738   1.539 -3.5162 -2.0321  1.0907
  207MOL0     H27308  -0.674   7.954   1.312 -2.1876 -0.5227 -0.0095
  207MOL0     H27309  -0.442   7.931   1.311  0.8440  0.3866  1.7823
  207MOL0     H27310   0.333   8.886   2.677 -0.7284 -0.9452  1.7377
  207MOL0     H27311   0.566   8.887   2.752  2.9302 -0.9405 -2.7528
  207MOL0     H27312   0.922   8.742   2.786 -0.5232 -0.0013 -1.1896
  207MOL0     H27313   1.157   8.811   2.843  2.1430  2.6195  3.8784
  207MOL0     H27314   1.207   8.832   3.228 -1.8379  1.7299 -4.4253
  207MOL0     H27315   1.352   8.912   3.191  2.3637  0.4044  2.4728
  207MOL0     H27316   1.417   8.767   3.359 -1.7220 -0.1508  0.5569
  207MOL0     H27317   1.333   8.635   3.302 -1.1137 -0.3444 -1.2569
  207MOL0     H27318   1.608   8.739   3.212 -1.7661  0.7534  0.9687
  207MOL0     H27319   1.504   8.648   3.100  0.9909  0.3422 -0.8293
  207MOL0     H27320   1.496   8.459   3.251 -0.4397 -0.2198  0.9024
  207MOL0     H27321   1.655   8.504   3.187  0.9015  2.5313 -1.0694
  207MOL0     H27322   1.715   8.568   3.612 -1.0407 -1.9048  0.0249
  207MOL0     H27323   1.139   8.604   3.207 -2.7989  0.2149  1.1222
  207MOL0     H27324   0.913   8.520   3.162 -2.1331  0.2325  0.0887
  208MOL0     O27325   6.246   3.753   2.525  0.2799  0.8587  0.5453
  208MOL0     C27326   6.313   3.849   2.555 -0.5679  0.9644  0.7846
  208MOL0     O27327   6.443   3.844   2.598  0.0537  0.0753  0.0753
  208MOL0     C27328   6.508   3.723   2.609  0.3956  0.1105  0.1777
  208MOL0     C27329   6.518   3.634   2.499 -0.1345 -0.0548  1.0445
  208MOL0     C27330   6.614   3.521   2.501  1.0770 -0.6744  0.1060
  208MOL0     C27331   6.697   3.497   2.622  0.2251  0.3452  0.3991
  208MOL0     O27332   6.783   3.399   2.665 -0.0532 -0.6530 -0.9604
  208MOL0     C27333   6.843   3.333   2.562 -0.9957  0.2837 -0.2735
  208MOL0     C27334   6.961   3.246   2.608 -0.1912 -0.0905 -0.5812
  208MOL0     C27335   7.046   3.218   2.487 -0.1562  0.2922 -0.6731
  208MOL0     C27336   7.180   3.144   2.535  0.3696  0.4749 -0.0486
  208MOL0     C27337   7.291   3.133   2.438 -0.0115 -0.3069  0.2705
  208MOL0     C27338   7.305   3.005   2.361 -0.2163 -0.3086 -1.4622
  208MOL0     C27339   7.375   3.010   2.233 -0.5283  0.4505  0.5507
  208MOL0     C27340   7.415   2.867   2.186 -0.3605 -0.1172  0.5014
  208MOL0     N27341   7.291   2.789   2.175 -0.5163  0.0308  0.8717
  208MOL0     C27342   7.186   2.805   2.087  0.8635  0.5872 -0.4949
  208MOL0     C27343   7.081   2.720   2.130  1.1096  0.1692  0.1781
  208MOL0     C27344   6.945   2.724   2.070  0.2580 -0.1836 -0.0530
  208MOL0     C27345   6.888   2.862   2.014  1.1485  0.5257 -0.7733
  208MOL0     C27346   6.937   2.882   1.870  0.1870 -0.3752  0.5654
  208MOL0     C27347   6.889   3.016   1.822  0.3554  0.5650 -0.1736
  208MOL0     O27348   6.755   3.002   1.797  0.4179 -0.5538 -0.2604
  208MOL0     C27349   6.665   3.104   1.800 -0.5693  1.0779 -0.5495
  208MOL0     C27350   6.695   3.238   1.782  0.9222 -0.7382  0.5983
  208MOL0     C27351   6.599   3.333   1.757  0.5325 -0.7331  0.2719
  208MOL0     C27352   6.459   3.305   1.758 -0.1247  0.6400  0.7713
  208MOL0     C27353   6.356   3.415   1.738  0.1938  0.1063 -0.5992
  208MOL0     O27354   6.390   3.545   1.708 -0.1518 -0.5741 -0.1064
  208MOL0     C27355   6.287   3.631   1.677 -0.1539  0.2275  0.5218
  208MOL0     C27356   6.227   3.635   1.543  0.9635  0.8243 -0.3568
  208MOL0     C27357   6.120   3.718   1.523 -0.1226  0.0122 -0.5241
  208MOL0     C27358   6.071   3.802   1.628 -0.3459 -0.5787 -0.2539
  208MOL0     O27359   5.962   3.880   1.586  0.4020  0.0540 -0.6370
  208MOL0     C27360   5.905   3.965   1.685  0.3759 -0.4198  0.1319
  208MOL0     C27361   5.797   4.054   1.633 -0.4852  0.0069  0.1442
  208MOL0     C27362   5.725   4.126   1.743  0.7272  0.8770  0.6681
  208MOL0     C27363   5.597   4.199   1.687  0.1181 -0.0560  0.3789
  208MOL0     C27364   5.535   4.281   1.801 -0.3446  0.2621  0.9724
  208MOL0     C27365   5.411   4.360   1.755  0.3143  0.1995 -0.1232
  208MOL0     C27366   5.283   4.274   1.786 -0.1495 -0.8633 -0.1550
  208MOL0     C27367   5.150   4.352   1.749  0.4321  0.4768 -0.7586
  208MOL0    Cl27368   5.019   4.223   1.731  0.0363 -0.2564 -0.0748
  208MOL0     C27369   6.139   3.817   1.747 -0.2291  0.0590  0.4881
  208MOL0     C27370   6.249   3.735   1.766  0.5975  0.2218 -1.4747
  208MOL0     O27371   6.242   3.367   1.738 -0.2088  0.5459 -0.1445
  208MOL0     C27372   6.437   3.169   1.784  0.0646 -0.3270 -0.6387
  208MOL0     C27373   6.536   3.075   1.806  1.3796  0.8469 -0.3942
  208MOL0     N27374   7.138   2.646   2.231 -1.1183  0.5136 -0.2274
  208MOL0     N27375   7.256   2.684   2.259 -0.6388 -0.6539 -0.3372
  208MOL0     C27376   6.675   3.588   2.728 -0.1524  1.2077 -0.3002
  208MOL0     C27377   6.588   3.699   2.724 -0.2409  0.1577  0.3107
  208MOL0     C27378   6.248   3.977   2.530  0.7094  0.2263  0.3964
  208MOL0     C27379   6.329   4.094   2.505  0.4348 -0.2023 -0.9332
  208MOL0     C27380   6.281   4.215   2.495 -0.0354 -1.1791 -0.0492
  208MOL0     C27381   6.142   4.229   2.483 -0.8042 -0.3903  0.5774
  208MOL0     O27382   6.078   4.357   2.485 -0.1514 -0.5400  0.5346
  208MOL0     C27383   6.062   4.425   2.364  1.3870 -0.2248  0.0815
  208MOL0     C27384   5.921   4.466   2.334  0.4406  0.2068  0.4137
  208MOL0     C27385   5.884   4.577   2.431 -0.0079  0.2699  0.0707
  208MOL0     C27386   5.748   4.627   2.414 -0.1640 -0.0592  0.5696
  208MOL0     C27387   5.735   4.679   2.276 -0.8616 -0.1290 -0.1487
  208MOL0     C27388   5.735   4.729   2.166 -0.8981 -0.4317  0.1644
  208MOL0     C27389   6.053   4.118   2.489 -1.1044  0.8053  0.0434
  208MOL0     C27390   6.113   3.991   2.521 -0.0504  0.3784 -0.1084
  208MOL0     H27391   6.455   3.652   2.412 -0.8504 -0.9439  1.3765
  208MOL0     H27392   6.614   3.450   2.419  0.7478  0.9289 -1.3636
  208MOL0     H27393   6.880   3.399   2.483  1.1195 -1.0677 -0.5243
  208MOL0     H27394   6.776   3.257   2.520 -0.8161 -0.8358  1.3342
  208MOL0     H27395   6.933   3.147   2.644  1.6215  0.0924  1.5636
  208MOL0     H27396   7.025   3.291   2.685  0.1931  2.2168 -2.1369
  208MOL0     H27397   7.060   3.316   2.440  0.7744 -1.4251 -4.3316
  208MOL0     H27398   6.984   3.165   2.414 -2.5168  0.3101  1.1988
  208MOL0     H27399   7.225   3.193   2.622  0.4915 -4.4840  3.0798
  208MOL0     H27400   7.152   3.047   2.576 -4.4131  2.2408  1.5748
  208MOL0     H27401   7.384   3.148   2.493 -0.5137 -1.1924  1.3934
  208MOL0     H27402   7.283   3.223   2.376 -2.0121  0.5684  1.7076
  208MOL0     H27403   7.204   2.968   2.341 -0.8433  1.7213 -2.3274
  208MOL0     H27404   7.355   2.934   2.428 -1.1652 -1.0886 -1.5614
  208MOL0     H27405   7.326   3.057   2.148  1.1309 -0.1844 -0.8261
  208MOL0     H27406   7.460   3.073   2.262 -1.2528  0.6458  2.4311
  208MOL0     H27407   7.484   2.816   2.253  0.6309 -1.3526 -1.3727
  208MOL0     H27408   7.464   2.884   2.090  1.6633  0.0847  1.5313
  208MOL0     H27409   7.177   2.889   2.019 -1.2195  0.3540 -0.5680
  208MOL0     H27410   6.880   2.692   2.152  0.2519 -0.3740 -0.1316
  208MOL0     H27411   6.937   2.647   1.992 -0.0136 -3.0826  2.6384
  208MOL0     H27412   6.913   2.935   2.091 -1.1306  1.7555 -1.0942
  208MOL0     H27413   6.779   2.854   2.015  1.0679  1.3021 -1.6663
  208MOL0     H27414   7.046   2.890   1.865  0.5536  0.5730  5.3269
  208MOL0     H27415   6.909   2.799   1.804 -0.1968 -3.2889  4.0367
  208MOL0     H27416   6.925   3.025   1.719 -1.5537 -0.0848 -0.9477
  208MOL0     H27417   6.928   3.104   1.874  1.9616  0.7614 -1.6212
  208MOL0     H27418   6.799   3.259   1.758  0.4066 -1.1382 -2.3497
  208MOL0     H27419   6.627   3.425   1.707  3.0246 -1.5736 -0.0107
  208MOL0     H27420   6.253   3.579   1.454  0.6066  1.0978 -0.6328
  208MOL0     H27421   6.069   3.712   1.427  0.8609  0.6028 -1.0921
  208MOL0     H27422   5.974   4.040   1.725  1.6255 -0.7416 -1.3614
  208MOL0     H27423   5.860   3.901   1.762 -3.4769  2.5504  0.7000
  208MOL0     H27424   5.728   3.988   1.579 -2.2215 -0.3750  2.6737
  208MOL0     H27425   5.839   4.125   1.562 -3.5809  1.1158 -0.7419
  208MOL0     H27426   5.793   4.205   1.776 -0.2697  1.7647  0.6581
  208MOL0     H27427   5.694   4.065   1.828 -1.6834  2.1169  0.7685
  208MOL0     H27428   5.619   4.261   1.600 -2.8951 -1.3913 -1.4967
  208MOL0     H27429   5.528   4.130   1.638  1.6504  0.0583 -2.1261
  208MOL0     H27430   5.611   4.352   1.835 -1.1146  1.2995  0.5729
  208MOL0     H27431   5.511   4.216   1.885 -0.2140 -2.4356 -0.9245
  208MOL0     H27432   5.424   4.378   1.648  0.3295  2.1930  0.1738
  208MOL0     H27433   5.412   4.460   1.800  2.0048  2.5728 -4.7280
  208MOL0     H27434   5.286   4.186   1.722 -0.7508  0.0936 -1.5465
  208MOL0     H27435   5.277   4.248   1.892  0.9109  0.3604  0.2209
  208MOL0     H27436   5.177   4.394   1.651 -0.8886  2.3475 -0.3848
  208MOL0     H27437   5.124   4.446   1.798 -1.1344  1.2751 -2.9245
  208MOL0     H27438   6.113   3.881   1.831  0.8274 -0.6716  1.4043
  208MOL0     H27439   6.309   3.731   1.856  3.2823 -3.1404 -3.2015
  208MOL0     H27440   6.336   3.133   1.800  0.1342  0.6556  2.9328
  208MOL0     H27441   6.512   2.972   1.829  1.2030  0.8116 -0.7227
  208MOL0     H27442   6.714   3.559   2.825  0.2950  0.4548 -0.6960
  208MOL0     H27443   6.583   3.767   2.807  1.7200 -0.9229  1.3745
  208MOL0     H27444   6.437   4.096   2.505  0.4314  1.6911 -0.6352
  208MOL0     H27445   6.336   4.308   2.491 -0.7189 -0.7954 -1.8537
  208MOL0     H27446   6.079   4.356   2.281 -1.9684 -0.6275 -0.4366
  208MOL0     H27447   6.112   4.522   2.359  0.8167  0.0186 -2.2875
  208MOL0     H27448   5.910   4.508   2.233  0.6496 -0.0971  0.2611
  208MOL0     H27449   5.848   4.384   2.339  2.6225 -2.3319 -3.5914
  208MOL0     H27450   5.963   4.652   2.431  0.6670 -0.4196 -0.3352
  208MOL0     H27451   5.880   4.539   2.533  0.3755 -1.6505 -0.5805
  208MOL0     H27452   5.669   4.555   2.440 -0.4109  0.6637  1.9404
  208MOL0     H27453   5.742   4.712   2.482  0.7680  0.1838  0.3474
  208MOL0     H27454   5.753   4.776   2.071 -0.5062 -2.1115 -0.6133
  208MOL0     H27455   5.946   4.128   2.477 -1.2952  0.2867  1.2392
  208MOL0     H27456   6.052   3.901   2.528  2.2034 -1.3234 -1.0612
  209MOL0     O27457   5.218   4.717   7.501 -0.3989 -0.6833 -0.8800
  209MOL0     C27458   5.116   4.715   7.569  0.4847 -0.0089  0.2248
  209MOL0     O27459   5.106   4.659   7.687  0.2568 -0.2141 -0.3023
  209MOL0     C27460   5.221   4.623   7.751  0.0629  0.1788 -0.2314
  209MOL0     C27461   5.238   4.483   7.775 -0.2994 -0.4938  0.2030
  209MOL0     C27462   5.334   4.431   7.859  0.1357  0.1348 -0.4842
  209MOL0     C27463   5.429   4.516   7.919 -0.2949 -0.4000  0.4723
  209MOL0     O27464   5.526   4.454   7.996  0.5627 -0.1494  0.1898
  209MOL0     C27465   5.645   4.524   8.047  0.1509  0.1081  0.8697
  209MOL0     C27466   5.731   4.428   8.123  0.9840 -0.5320 -0.0861
  209MOL0     C27467   5.789   4.302   8.052  0.1259  0.4232  0.5180
  209MOL0     C27468   5.865   4.330   7.920  0.2088 -0.1694 -0.0414
  209MOL0     C27469   5.918   4.214   7.842 -0.6667  0.2126  0.6593
  209MOL0     C27470   6.006   4.111   7.923  0.1498  0.5616 -0.1616
  209MOL0     C27471   6.123   4.066   7.835 -1.4859  0.3304 -0.0445
  209MOL0     C27472   6.218   3.974   7.917 -0.3917  0.1033 -0.4726
  209MOL0     N27473   6.333   3.925   7.840 -0.2903 -0.5554 -0.6084
  209MOL0     C27474   6.457   3.994   7.827  0.9457 -0.4163  0.5627
  209MOL0     C27475   6.539   3.893   7.779 -0.4434  0.1166  0.1406
  209MOL0     C27476   6.689   3.908   7.754 -0.1206  0.1699  0.0043
  209MOL0     C27477   6.736   4.040   7.683 -0.6615  0.0077  0.2673
  209MOL0     C27478   6.788   4.154   7.781  0.0441 -0.6120  1.0880
  209MOL0     C27479   6.907   4.121   7.877 -1.0790  0.1018 -0.1682
  209MOL0     O27480   6.947   4.237   7.954 -0.4919 -0.1934  0.7262
  209MOL0     C27481   6.844   4.307   8.010  0.3153  0.1407  0.1859
  209MOL0     C27482   6.766   4.265   8.121 -0.7286  0.3865 -0.4827
  209MOL0     C27483   6.667   4.347   8.181 -0.0671 -0.2099 -0.0028
  209MOL0     C27484   6.643   4.474   8.129  0.4412  0.2004 -0.2934
  209MOL0     C27485   6.538   4.559   8.187 -0.3004 -0.4159 -0.3889
  209MOL0     O27486   6.492   4.657   8.106 -1.1953  0.6663 -0.2178
  209MOL0     C27487   6.413   4.749   8.164  0.7736  0.5190 -0.6778
  209MOL0     C27488   6.273   4.724   8.180 -0.2451 -0.2691  0.2027
  209MOL0     C27489   6.185   4.835   8.208  0.2435  0.1887  1.0390
  209MOL0     C27490   6.245   4.956   8.243 -0.3999  0.2236  0.3277
  209MOL0     O27491   6.153   5.053   8.263 -0.4594  0.1193 -0.3545
  209MOL0     C27492   6.200   5.179   8.300  0.6137  0.3449  0.7244
  209MOL0     C27493   6.092   5.282   8.313  0.6777 -0.7138  0.3748
  209MOL0     C27494   5.981   5.233   8.404 -0.4351 -0.3572  0.4106
  209MOL0     C27495   5.870   5.342   8.419 -0.1243  0.2196  0.5689
  209MOL0     C27496   5.738   5.280   8.447 -0.1490 -0.1061  0.2893
  209MOL0     C27497   5.624   5.379   8.420  0.4432  0.4487 -0.9871
  209MOL0     C27498   5.484   5.304   8.414  0.2365  0.2977 -0.5036
  209MOL0     C27499   5.380   5.360   8.319 -0.3139  0.6593  0.1481
  209MOL0    Cl27500   5.445   5.359   8.147 -0.0381  0.2678 -0.0543
  209MOL0     C27501   6.385   4.973   8.245 -0.2275  0.3361  0.4854
  209MOL0     C27502   6.473   4.875   8.186 -0.4354 -0.1543  0.1193
  209MOL0     O27503   6.492   4.530   8.299  0.0510 -0.9452  0.6076
  209MOL0     C27504   6.718   4.523   8.022 -0.1999 -0.6093 -0.1678
  209MOL0     C27505   6.812   4.435   7.966 -0.8509 -0.0095  0.0354
  209MOL0     N27506   6.470   3.771   7.766 -0.4702  0.5628 -0.1913
  209MOL0     N27507   6.346   3.792   7.808  0.1082  0.0072  0.2073
  209MOL0     C27508   5.424   4.646   7.886  0.1830 -0.0779  0.0090
  209MOL0     C27509   5.316   4.704   7.807 -0.1333 -0.1407 -0.2298
  209MOL0     C27510   4.987   4.774   7.511 -0.3199 -0.0988  0.4817
  209MOL0     C27511   4.861   4.753   7.572 -0.9181 -0.0368 -0.0446
  209MOL0     C27512   4.738   4.795   7.508  0.4459 -0.4377 -0.0212
  209MOL0     C27513   4.742   4.879   7.393 -0.9006 -0.2991 -0.2849
  209MOL0     O27514   4.631   4.922   7.331  1.1139  0.1456  0.9584
  209MOL0     C27515   4.496   4.871   7.342 -0.8471  0.1135  0.8970
  209MOL0     C27516   4.398   4.967   7.287 -0.8348  0.4521  0.0687
  209MOL0     C27517   4.269   4.887   7.252 -0.4149  0.1416  0.1439
  209MOL0     C27518   4.167   4.974   7.185 -0.0124 -0.3625 -0.5543
  209MOL0     C27519   4.056   4.897   7.131 -0.6341  0.0107  0.5671
  209MOL0     C27520   3.967   4.833   7.085 -0.7157 -0.7843  0.7521
  209MOL0     C27521   4.875   4.916   7.336  0.1301 -0.1068 -0.0862
  209MOL0     C27522   4.989   4.861   7.394  0.6691 -0.4501 -0.1045
  209MOL0     H27523   5.158   4.419   7.738 -1.7819  0.3483  1.8330
  209MOL0     H27524   5.340   4.323   7.865 -1.4360 -0.0832 -2.0047
  209MOL0     H27525   5.606   4.600   8.115  0.8582 -0.2264  1.6671
  209MOL0     H27526   5.709   4.575   7.975 -0.2954 -2.0246 -1.1595
  209MOL0     H27527   5.670   4.401   8.210  1.4526 -1.2735  0.0240
  209MOL0     H27528   5.812   4.491   8.160  2.0209 -0.3459 -2.5083
  209MOL0     H27529   5.700   4.242   8.030 -0.2889 -1.2078  5.5048
  209MOL0     H27530   5.853   4.261   8.130  0.8258 -2.2325 -1.3151
  209MOL0     H27531   5.800   4.386   7.852  1.9562  0.3315 -1.3781
  209MOL0     H27532   5.947   4.396   7.950 -2.8298  2.3787  3.5201
  209MOL0     H27533   5.965   4.260   7.755 -1.3354  1.9846  1.1862
  209MOL0     H27534   5.831   4.158   7.807  0.4476 -1.4372  0.4347
  209MOL0     H27535   5.960   4.022   7.968 -1.6046  0.9979 -0.9983
  209MOL0     H27536   6.062   4.165   8.000  2.1336 -1.4479 -0.0688
  209MOL0     H27537   6.093   4.008   7.748  0.1291 -0.9680  0.2164
  209MOL0     H27538   6.183   4.155   7.812 -2.1895  0.7801 -0.1662
  209MOL0     H27539   6.159   3.890   7.956  0.8851 -0.0138  1.3536
  209MOL0     H27540   6.250   4.021   8.011 -2.3600  0.1914  0.1858
  209MOL0     H27541   6.491   4.095   7.847 -2.1436  0.6887  0.8853
  209MOL0     H27542   6.726   3.824   7.694 -2.1838  0.0906 -1.2288
  209MOL0     H27543   6.746   3.894   7.847  0.2898 -0.2589 -0.3003
  209MOL0     H27544   6.658   4.074   7.615 -1.6472 -0.2251  1.2468
  209MOL0     H27545   6.824   4.020   7.622 -1.1471 -0.7708 -0.1991
  209MOL0     H27546   6.836   4.224   7.713 -1.7114 -0.6217 -0.2393
  209MOL0     H27547   6.698   4.196   7.827 -2.6818 -1.9010 -2.5394
  209MOL0     H27548   6.990   4.073   7.824 -0.1975 -0.8046  1.9105
  209MOL0     H27549   6.871   4.051   7.953  2.4802  1.6636  3.3182
  209MOL0     H27550   6.786   4.166   8.159 -1.3572 -0.4243 -2.1816
  209MOL0     H27551   6.603   4.304   8.257 -2.8576  1.6655 -1.1598
  209MOL0     H27552   6.237   4.623   8.165  2.4669 -1.1682 -0.8919
  209MOL0     H27553   6.079   4.814   8.214 -0.5548  2.1390 -2.7166
  209MOL0     H27554   6.270   5.224   8.229  0.7934 -0.9048  0.1031
  209MOL0     H27555   6.259   5.178   8.392 -0.2540  0.6965  1.3043
  209MOL0     H27556   6.053   5.302   8.213  0.1904  0.1415  0.7314
  209MOL0     H27557   6.130   5.374   8.356  0.9541 -0.0921 -1.1260
  209MOL0     H27558   6.022   5.215   8.504  1.0057 -1.5062 -0.3517
  209MOL0     H27559   5.938   5.139   8.368 -1.7886  0.9392 -1.5104
  209MOL0     H27560   5.904   5.410   8.497  2.5642 -1.6038  1.1523
  209MOL0     H27561   5.865   5.397   8.325 -1.6341  0.2782  0.6605
  209MOL0     H27562   5.733   5.231   8.545  2.7235 -2.5589 -0.6203
  209MOL0     H27563   5.731   5.199   8.373 -0.8868  0.3427 -0.1414
  209MOL0     H27564   5.641   5.434   8.326  1.3814  2.2262  0.1613
  209MOL0     H27565   5.618   5.450   8.503 -1.4695 -0.0795 -0.6260
  209MOL0     H27566   5.508   5.200   8.388 -0.6501 -0.1907  0.5453
  209MOL0     H27567   5.452   5.305   8.518  0.9957  1.7949 -0.2549
  209MOL0     H27568   5.345   5.461   8.344 -1.7900  0.3746 -0.6250
  209MOL0     H27569   5.291   5.298   8.329 -0.8794  1.1693 -1.3150
  209MOL0     H27570   6.436   5.066   8.265 -0.8113  0.6697  0.4406
  209MOL0     H27571   6.579   4.890   8.168 -0.2897 -1.8556 -0.5996
  209MOL0     H27572   6.705   4.617   7.969  0.1214 -0.3163  0.2709
  209MOL0     H27573   6.855   4.493   7.884 -0.4972 -0.9822 -0.4820
  209MOL0     H27574   5.501   4.709   7.928  1.9139 -1.4279 -0.9714
  209MOL0     H27575   5.328   4.812   7.800  0.4290 -0.0819  1.2401
  209MOL0     H27576   4.863   4.683   7.656 -1.4084 -0.3287 -0.2693
  209MOL0     H27577   4.644   4.772   7.558  0.0428  1.8470  0.3847
  209MOL0     H27578   4.477   4.829   7.441  1.1750  1.2438  1.8192
  209MOL0     H27579   4.490   4.785   7.274 -2.5606  2.5859 -2.3545
  209MOL0     H27580   4.383   5.051   7.355 -3.4831  2.4980 -2.7483
  209MOL0     H27581   4.445   5.004   7.195 -2.5640  2.2023 -0.1624
  209MOL0     H27582   4.218   4.840   7.336 -1.3538  1.4815  0.3549
  209MOL0     H27583   4.298   4.798   7.195 -1.0524 -1.6370  2.4630
  209MOL0     H27584   4.122   5.033   7.266 -0.0853 -1.4799  0.2387
  209MOL0     H27585   4.223   5.033   7.112 -2.1884 -0.7005 -2.6372
  209MOL0     H27586   3.892   4.772   7.038  0.1867 -0.3542 -1.3399
  209MOL0     H27587   4.892   4.984   7.253 -0.2378  1.5071  1.1121
  209MOL0     H27588   5.086   4.865   7.344  0.4834  2.4330 -0.3886
  210MOL0     O27589  10.187   5.953   3.974  0.1584  0.3090  0.0777
  210MOL0     C27590  10.128   5.872   3.907  0.5503  0.2107 -0.2979
  210MOL0     O27591  10.191   5.776   3.825 -0.3981 -0.6444  0.3962
  210MOL0     C27592  10.329   5.803   3.800  0.5946 -0.2013  0.2443
  210MOL0     C27593  10.415   5.719   3.866  0.9319 -0.0354 -0.1732
  210MOL0     C27594  10.556   5.706   3.827 -0.8678 -0.0937  0.1921
  210MOL0     C27595  10.601   5.789   3.735  1.0202 -0.9615  0.8659
  210MOL0     O27596  10.728   5.796   3.692 -0.1541  1.0786  0.2753
  210MOL0     C27597  10.836   5.723   3.752 -0.8464  0.4035  0.4875
  210MOL0     C27598  10.958   5.798   3.701 -0.4365 -0.2337  0.2747
  210MOL0     C27599  11.088   5.725   3.734 -0.0954 -0.6303 -0.4768
  210MOL0     C27600  11.194   5.797   3.666 -0.3105  0.3900  0.4961
  210MOL0     C27601  11.326   5.788   3.751  0.2897  0.8636  0.9226
  210MOL0     C27602  11.343   5.883   3.860 -0.1709  0.3684 -0.6106
  210MOL0     C27603  11.335   6.029   3.812 -0.0604  0.2004 -0.1524
  210MOL0     C27604  11.356   6.128   3.927  0.2374 -0.3659 -0.5300
  210MOL0     N27605  11.474   6.088   4.004  0.0061  0.1664 -0.2401
  210MOL0     C27606  11.601   6.113   3.964  0.5074  0.0309  0.3862
  210MOL0     C27607  11.678   6.063   4.064 -0.3450 -0.4000  0.3469
  210MOL0     C27608  11.825   6.034   4.069 -0.0591 -0.4230 -0.6637
  210MOL0     C27609  11.888   6.095   4.200 -0.2427  0.0660 -0.0734
  210MOL0     C27610  12.043   6.129   4.189 -0.4885  0.5008 -0.2797
  210MOL0     C27611  12.131   6.006   4.231  0.4352  0.8425  0.3044
  210MOL0     O27612  12.111   5.888   4.150 -0.3141 -1.0023 -0.3325
  210MOL0     C27613  12.178   5.890   4.035 -0.1492 -0.1031  1.2172
  210MOL0     C27614  12.167   5.776   3.954  1.1058 -0.2886  1.1244
  210MOL0     C27615  12.227   5.774   3.824  0.1213  0.8735  0.4643
  210MOL0     C27616  12.316   5.869   3.783  0.8722  0.3624 -0.3031
  210MOL0     C27617  12.386   5.872   3.642 -0.0706 -0.2362  0.3209
  210MOL0     O27618  12.369   5.765   3.559  0.1700 -0.4382 -0.2931
  210MOL0     C27619  12.455   5.762   3.456  0.3584 -0.1273  0.1764
  210MOL0     C27620  12.600   5.758   3.466 -0.5325  1.4474 -1.0515
  210MOL0     C27621  12.682   5.751   3.357  0.0810  0.0197 -0.3769
  210MOL0     C27622  12.620   5.758   3.231 -1.3786 -0.5374 -0.3895
  210MOL0     O27623  12.700   5.758   3.122 -0.6393  0.2894 -0.1383
  210MOL0     C27624  12.711   5.885   3.052 -0.5047  0.9623  0.5699
  210MOL0     C27625  12.769   5.994   3.154 -0.5921  0.3099 -0.0531
  210MOL0     C27626  12.839   6.116   3.082 -0.2508  0.1354  0.1017
  210MOL0     C27627  12.945   6.183   3.176  0.1836  0.3992  0.1861
  210MOL0     C27628  13.025   6.300   3.119  0.1431 -0.3485 -0.2423
  210MOL0     C27629  13.141   6.355   3.207 -0.3085 -0.8621 -0.0076
  210MOL0     C27630  13.195   6.492   3.151 -0.1248  0.6014 -0.0143
  210MOL0     C27631  13.319   6.540   3.242 -0.8005  0.2957 -0.4531
  210MOL0    Cl27632  13.429   6.401   3.271 -0.1325  0.1928  0.3119
  210MOL0     C27633  12.482   5.747   3.216  0.6351 -0.1689  0.0722
  210MOL0     C27634  12.397   5.751   3.329 -1.6437  0.5023 -0.2186
  210MOL0     O27635  12.446   5.975   3.616  0.3938 -0.0238  0.0728
  210MOL0     C27636  12.325   5.978   3.869 -0.6488 -0.2424 -0.7816
  210MOL0     C27637  12.256   5.994   3.990  0.3185  0.4240  1.1340
  210MOL0     N27638  11.602   6.002   4.158  0.0507 -1.1906  0.0961
  210MOL0     N27639  11.476   6.029   4.125  0.1621 -0.2783  0.1858
  210MOL0     C27640  10.519   5.878   3.664 -0.1752 -0.3072 -0.2958
  210MOL0     C27641  10.381   5.892   3.708 -0.0005  0.8746  0.4823
  210MOL0     C27642   9.978   5.880   3.904 -0.1921 -0.4761 -0.1921
  210MOL0     C27643   9.900   5.778   3.855 -0.3571  0.0961  1.3671
  210MOL0     C27644   9.764   5.773   3.851 -0.1893 -0.0487 -0.3253
  210MOL0     C27645   9.697   5.879   3.912  0.1049 -0.3642  0.0717
  210MOL0     O27646   9.560   5.887   3.927 -0.0631  0.3753  0.1168
  210MOL0     C27647   9.482   5.959   3.834 -0.1026  0.2444 -2.0210
  210MOL0     C27648   9.332   5.935   3.834  0.2132  0.3385 -0.2442
  210MOL0     C27649   9.337   5.786   3.768 -0.2634 -0.7418 -0.5963
  210MOL0     C27650   9.204   5.733   3.723  0.1801 -0.0697 -0.5061
  210MOL0     C27651   9.169   5.819   3.613  0.3241 -0.0316  0.1126
  210MOL0     C27652   9.138   5.899   3.532 -0.7796  0.0598 -0.0297
  210MOL0     C27653   9.773   5.986   3.950 -0.1589 -0.3832  0.4989
  210MOL0     C27654   9.907   5.986   3.954  0.2515  0.0052  0.3150
  210MOL0     H27655  10.375   5.665   3.951 -2.8931  0.8124 -1.2230
  210MOL0     H27656  10.616   5.636   3.884  0.1507  1.2513  0.8305
  210MOL0     H27657  10.834   5.619   3.718 -1.8520 -0.4990  3.0544
  210MOL0     H27658  10.832   5.737   3.861 -2.4361  3.8129  0.1042
  210MOL0     H27659  10.963   5.904   3.728  1.9453 -0.3079  0.3417
  210MOL0     H27660  10.947   5.802   3.593 -0.1708  1.0389  0.2829
  210MOL0     H27661  11.085   5.628   3.684  0.5110 -0.6683 -0.4479
  210MOL0     H27662  11.102   5.713   3.842 -2.9657  0.9329  0.1752
  210MOL0     H27663  11.221   5.746   3.573 -1.8137 -1.0726  0.8194
  210MOL0     H27664  11.165   5.901   3.652 -0.0444  0.6657  1.8938
  210MOL0     H27665  11.405   5.800   3.676 -0.5321  0.1329 -0.0859
  210MOL0     H27666  11.341   5.683   3.775 -1.4591  0.3964  0.1837
  210MOL0     H27667  11.437   5.868   3.915  1.0047 -0.4423 -2.7120
  210MOL0     H27668  11.261   5.879   3.932  0.9653 -0.1744  0.7257
  210MOL0     H27669  11.412   6.041   3.736  0.8011  0.2004  0.6978
  210MOL0     H27670  11.235   6.051   3.772 -1.6803 -2.1023  2.2726
  210MOL0     H27671  11.270   6.139   3.994  1.6331  5.0027  0.8955
  210MOL0     H27672  11.364   6.224   3.875 -1.4306  0.5434  0.8012
  210MOL0     H27673  11.639   6.156   3.872  2.9043 -0.3525  1.1124
  210MOL0     H27674  11.866   6.080   3.978 -3.4967 -0.5135 -2.4164
  210MOL0     H27675  11.845   5.927   4.071  0.2303 -0.4109 -1.8862
  210MOL0     H27676  11.874   6.017   4.276  1.2823  0.6370  0.8407
  210MOL0     H27677  11.837   6.186   4.234 -0.1206 -0.6791  2.3304
  210MOL0     H27678  12.075   6.166   4.091 -2.7753  2.2954 -0.4581
  210MOL0     H27679  12.059   6.216   4.252 -1.7212 -0.5698  1.6161
  210MOL0     H27680  12.113   5.978   4.335 -1.8850  3.1633  0.6411
  210MOL0     H27681  12.234   6.043   4.231 -0.2541  2.8730 -0.6422
  210MOL0     H27682  12.100   5.700   3.991 -0.2211 -0.3822 -1.2432
  210MOL0     H27683  12.203   5.689   3.760  1.2112  0.1047  1.0448
  210MOL0     H27684  12.641   5.750   3.566 -2.1748 -0.9535 -0.4803
  210MOL0     H27685  12.788   5.760   3.376  0.0862 -1.2281  0.2976
  210MOL0     H27686  12.618   5.909   3.000 -0.8539  2.2080  1.7129
  210MOL0     H27687  12.794   5.868   2.982  0.0818 -1.8272  1.8161
  210MOL0     H27688  12.844   5.941   3.213  1.6109  1.2382 -1.8537
  210MOL0     H27689  12.690   6.022   3.224  0.2899 -0.7508  1.4102
  210MOL0     H27690  12.766   6.190   3.047 -0.9854 -1.7520 -2.7188
  210MOL0     H27691  12.886   6.095   2.985  0.6613  3.7329 -0.3891
  210MOL0     H27692  12.888   6.217   3.263 -0.5805  2.8136 -1.1715
  210MOL0     H27693  13.018   6.105   3.201  4.3770  4.3236  1.4031
  210MOL0     H27694  12.955   6.381   3.096 -1.6202 -1.4439  1.1152
  210MOL0     H27695  13.057   6.261   3.022 -0.2625 -0.7168 -0.2299
  210MOL0     H27696  13.226   6.287   3.194  0.7752  0.7336 -1.6860
  210MOL0     H27697  13.119   6.361   3.314 -3.8271  0.4230 -0.6612
  210MOL0     H27698  13.230   6.480   3.049  2.8118 -1.8196  1.1451
  210MOL0     H27699  13.122   6.574   3.152  1.3424  1.9456 -0.3471
  210MOL0     H27700  13.291   6.559   3.346 -0.6733 -2.0629  0.0640
  210MOL0     H27701  13.372   6.629   3.207 -0.5028  0.8391  1.2983
  210MOL0     H27702  12.436   5.735   3.118 -0.4228  2.3494  0.1969
  210MOL0     H27703  12.290   5.747   3.308 -1.4104  2.7834 -2.3156
  210MOL0     H27704  12.396   6.057   3.845 -0.6844 -0.0505 -0.2735
  210MOL0     H27705  12.283   6.090   4.033  2.4489 -0.0241  0.8976
  210MOL0     H27706  10.562   5.933   3.582  3.8446 -0.0047  1.7991
  210MOL0     H27707  10.325   5.968   3.654  0.9551  0.8004 -0.6769
  210MOL0     H27708   9.940   5.693   3.800 -2.1620  0.5669 -0.7749
  210MOL0     H27709   9.711   5.689   3.806  1.6006  0.5362 -3.8584
  210MOL0     H27710   9.525   5.955   3.734 -0.4333  5.5994 -2.6732
  210MOL0     H27711   9.488   6.061   3.874  0.3605 -0.7418  0.6576
  210MOL0     H27712   9.275   5.944   3.927  2.0483  0.1629  0.9635
  210MOL0     H27713   9.292   6.007   3.762 -1.2114  0.9535  1.1117
  210MOL0     H27714   9.365   5.710   3.843 -1.5969 -1.0162 -0.3482
  210MOL0     H27715   9.403   5.783   3.681  0.9400 -2.0531  0.3168
  210MOL0     H27716   9.210   5.631   3.685  0.6672 -0.6086  0.9481
  210MOL0     H27717   9.128   5.721   3.801  0.7224 -1.5045 -0.1614
  210MOL0     H27718   9.122   5.980   3.464 -1.0202  0.0795  0.0474
  210MOL0     H27719   9.712   6.070   3.979 -0.2143 -0.0053 -0.6589
  210MOL0     H27720   9.957   6.071   4.000  3.1108 -1.0556 -0.5935
  211MOL0     O27721   2.190   8.807   6.048  0.2087 -0.4311 -0.0909
  211MOL0     C27722   2.167   8.824   5.927 -0.3436  0.2210 -0.4317
  211MOL0     O27723   2.157   8.938   5.869  0.7147  0.1085  0.5955
  211MOL0     C27724   2.155   9.042   5.957 -0.1546  0.2603  0.8724
  211MOL0     C27725   2.248   9.144   5.934 -0.7371 -0.1520 -0.4554
  211MOL0     C27726   2.251   9.262   6.015  0.3472 -0.3153 -0.4905
  211MOL0     C27727   2.149   9.274   6.118 -1.0982 -0.5455 -0.0310
  211MOL0     O27728   2.152   9.381   6.211  0.3125  0.1931 -0.2120
  211MOL0     C27729   2.280   9.444   6.229  0.6429  0.0839  0.7039
  211MOL0     C27730   2.259   9.549   6.333  0.5471  0.2449 -0.2557
  211MOL0     C27731   2.176   9.669   6.269 -0.4316 -0.6024 -0.8764
  211MOL0     C27732   2.177   9.779   6.382  1.2145  0.1145  0.1663
  211MOL0     C27733   2.117   9.916   6.335  0.2962 -0.2187 -0.1757
  211MOL0     C27734   2.124  10.026   6.442 -1.0082 -0.6000 -0.5491
  211MOL0     C27735   2.071  10.164   6.388 -0.0049 -0.3261  0.1382
  211MOL0     C27736   2.031  10.271   6.500  0.4695  0.0158 -0.6940
  211MOL0     N27737   1.992  10.402   6.436  0.9413  0.7362 -0.6103
  211MOL0     C27738   2.040  10.469   6.332 -0.1910  0.1317  0.2169
  211MOL0     C27739   1.960  10.566   6.296  0.4234  0.2370 -0.1829
  211MOL0     C27740   1.989  10.668   6.184  0.2899 -0.3075  0.4537
  211MOL0     C27741   1.883  10.655   6.070  0.3063  0.7547  0.0213
  211MOL0     C27742   1.771  10.753   6.090  0.8406 -0.2485 -0.7531
  211MOL0     C27743   1.682  10.777   5.965  0.1735  0.1211 -0.2726
  211MOL0     O27744   1.744  10.854   5.859 -0.0782  0.6020 -0.2757
  211MOL0     C27745   1.671  10.882   5.748 -0.0825 -0.7529 -0.9631
  211MOL0     C27746   1.554  10.801   5.709  1.1186 -0.2117 -0.6640
  211MOL0     C27747   1.472  10.846   5.608  0.3773 -0.4695  0.6993
  211MOL0     C27748   1.506  10.962   5.540  0.3196  1.0294 -1.0776
  211MOL0     C27749   1.427  11.011   5.430 -0.4165 -0.5344 -0.2092
  211MOL0     O27750   1.302  10.961   5.439  0.3460  0.5403  0.5686
  211MOL0     C27751   1.203  11.008   5.345  0.2973  0.0200  0.9058
  211MOL0     C27752   1.163  11.145   5.342 -0.4966 -0.6073 -0.8113
  211MOL0     C27753   1.072  11.181   5.240  0.0699 -0.3028 -0.3618
  211MOL0     C27754   1.026  11.078   5.151 -0.0181 -0.2366  0.5504
  211MOL0     O27755   0.941  11.108   5.048  0.0432 -1.2854  0.0774
  211MOL0     C27756   0.831  11.203   5.076 -0.6503 -0.3945  0.5691
  211MOL0     C27757   0.725  11.164   4.969  0.0616  0.4645 -0.5240
  211MOL0     C27758   0.771  11.166   4.823 -0.1356 -0.4291  0.3254
  211MOL0     C27759   0.656  11.175   4.726  0.8175  0.2278  0.0440
  211MOL0     C27760   0.596  11.033   4.705 -0.6074 -1.1851  0.9860
  211MOL0     C27761   0.498  11.031   4.595  0.3898  1.1304  0.7372
  211MOL0     C27762   0.434  10.895   4.583  0.4801 -1.0576 -0.4308
  211MOL0     C27763   0.328  10.879   4.474  0.7555 -0.1877 -0.6957
  211MOL0    Cl27764   0.321  10.702   4.430 -0.1188 -0.1854 -0.1941
  211MOL0     C27765   1.071  10.946   5.147 -0.0911  0.7418  0.2961
  211MOL0     C27766   1.158  10.910   5.250 -0.2944 -0.2106 -0.3180
  211MOL0     O27767   1.467  11.088   5.340  0.2254 -0.4956 -0.2962
  211MOL0     C27768   1.611  11.049   5.592  0.0066 -0.5485 -0.0357
  211MOL0     C27769   1.687  11.010   5.700  0.0664  0.2909 -0.2607
  211MOL0     N27770   1.850  10.556   6.377  0.8104  0.0990  0.2145
  211MOL0     N27771   1.872  10.459   6.461 -0.6515 -0.3118  0.3410
  211MOL0     C27772   2.047   9.178   6.133  1.0599  0.1276  0.2511
  211MOL0     C27773   2.052   9.066   6.045  0.5279 -0.0412  0.1506
  211MOL0     C27774   2.132   8.709   5.844  0.5444  0.5161  1.3407
  211MOL0     C27775   2.110   8.581   5.903 -0.1654  0.2061  0.4619
  211MOL0     C27776   2.065   8.468   5.824 -1.0717 -0.9839 -0.4334
  211MOL0     C27777   2.045   8.480   5.688 -0.5142 -0.8896  1.1375
  211MOL0     O27778   2.008   8.362   5.627  0.2878  0.3975  0.2459
  211MOL0     C27779   2.030   8.345   5.483  0.0038 -0.2368 -0.6412
  211MOL0     C27780   2.057   8.203   5.446  1.6960 -0.0668 -0.3121
  211MOL0     C27781   2.174   8.197   5.339  0.6714  0.1110 -0.4293
  211MOL0     C27782   2.227   8.053   5.330  0.2315 -0.3568 -0.0781
  211MOL0     C27783   2.361   8.057   5.281  0.0007  0.3247 -0.1177
  211MOL0     C27784   2.485   8.059   5.252 -0.8061  0.5529 -0.6298
  211MOL0     C27785   2.070   8.611   5.623 -0.2018  1.0695 -0.2944
  211MOL0     C27786   2.086   8.717   5.706 -0.1095 -0.7027  0.0979
  211MOL0     H27787   2.317   9.128   5.852  0.1559 -1.1040  0.4369
  211MOL0     H27788   2.324   9.336   5.983  0.0337 -0.6400 -2.0341
  211MOL0     H27789   2.305   9.492   6.134  4.0501 -1.8490  0.4360
  211MOL0     H27790   2.359   9.374   6.260  2.2991  2.1452  1.3995
  211MOL0     H27791   2.356   9.579   6.372 -1.0996  2.7815  2.3403
  211MOL0     H27792   2.200   9.498   6.410 -1.4738  0.4230 -1.5975
  211MOL0     H27793   2.073   9.651   6.238 -0.5342  1.3270 -1.8410
  211MOL0     H27794   2.226   9.702   6.178  0.4147  0.3649 -0.0901
  211MOL0     H27795   2.125   9.744   6.471 -0.8930  0.6665 -0.7922
  211MOL0     H27796   2.283   9.792   6.408  0.9402 -0.1974  1.5184
  211MOL0     H27797   2.012   9.925   6.306  0.3127  3.0857  0.4406
  211MOL0     H27798   2.166   9.952   6.244 -1.1736  0.2465 -0.8122
  211MOL0     H27799   2.226  10.048   6.477 -1.3732  0.8228 -0.3226
  211MOL0     H27800   2.065   9.993   6.529  0.3165  0.7884  0.9407
  211MOL0     H27801   2.140  10.215   6.320 -2.7997 -0.9557 -3.5343
  211MOL0     H27802   1.977  10.142   6.336 -1.2887  0.2132  2.1196
  211MOL0     H27803   2.114  10.289   6.568  0.2513  0.5166 -0.5590
  211MOL0     H27804   1.945  10.230   6.555  0.3926 -0.0227 -0.8393
  211MOL0     H27805   2.135  10.445   6.286 -0.4845  0.1680 -0.4250
  211MOL0     H27806   2.086  10.629   6.151  0.0941 -1.4842  1.1730
  211MOL0     H27807   2.009  10.771   6.214  0.7489 -0.0947 -0.5487
  211MOL0     H27808   1.837  10.556   6.070  0.8318  0.4995 -1.1369
  211MOL0     H27809   1.929  10.671   5.972  1.5042  0.7085  0.5575
  211MOL0     H27810   1.714  10.729   6.180 -0.5841 -4.2675 -2.4555
  211MOL0     H27811   1.817  10.851   6.104 -0.2372  0.4860 -2.1361
  211MOL0     H27812   1.587  10.824   5.990  0.4548  1.0799 -0.9754
  211MOL0     H27813   1.664  10.679   5.920 -1.9959  0.3528 -0.0326
  211MOL0     H27814   1.525  10.703   5.745 -0.0912  0.4041  0.1290
  211MOL0     H27815   1.392  10.779   5.581  2.1620 -1.9616 -1.2538
  211MOL0     H27816   1.194  11.208   5.424 -1.1034 -1.4067  0.0482
  211MOL0     H27817   1.038  11.284   5.243 -0.1562 -0.3306 -1.6019
  211MOL0     H27818   0.863  11.305   5.051  2.4345 -0.8314  2.1827
  211MOL0     H27819   0.817  11.201   5.184  2.7385 -2.0198  1.1250
  211MOL0     H27820   0.642  11.234   4.980  1.3034  1.5849  2.8856
  211MOL0     H27821   0.693  11.062   4.993 -3.1869  1.3645 -0.5863
  211MOL0     H27822   0.836  11.078   4.812  0.1354 -0.3930  1.4750
  211MOL0     H27823   0.824  11.259   4.803  0.9082 -1.1882 -0.5853
  211MOL0     H27824   0.575  11.238   4.764 -1.3667 -3.0560  1.2825
  211MOL0     H27825   0.688  11.216   4.629  0.9305 -0.2417 -0.1169
  211MOL0     H27826   0.559  10.984   4.795 -2.5636 -2.0047 -0.1937
  211MOL0     H27827   0.676  10.973   4.661 -0.0288  0.7473 -0.7572
  211MOL0     H27828   0.547  11.059   4.501 -2.2403  0.6249 -0.9087
  211MOL0     H27829   0.416  11.102   4.610 -0.7608  0.4606 -1.7618
  211MOL0     H27830   0.506  10.815   4.563  1.3984 -1.6214  4.0610
  211MOL0     H27831   0.391  10.875   4.681  0.3369  2.8533  0.4568
  211MOL0     H27832   0.365  10.924   4.382  2.2295  3.2972  1.4294
  211MOL0     H27833   0.230  10.918   4.504  0.8641  0.9431 -1.7403
  211MOL0     H27834   1.028  10.876   5.076  1.1020  0.4403 -0.1574
  211MOL0     H27835   1.205  10.814   5.266  1.4537  0.4964 -0.9310
  211MOL0     H27836   1.655  11.127   5.531 -0.8148  0.5737  0.7675
  211MOL0     H27837   1.770  11.075   5.728 -1.9542  2.1034  1.9295
  211MOL0     H27838   1.962   9.188   6.199 -0.2908 -0.6034 -1.3028
  211MOL0     H27839   1.973   8.992   6.040  0.0139  0.4955  0.2190
  211MOL0     H27840   2.128   8.577   6.010  0.2609  0.7471  0.4201
  211MOL0     H27841   2.045   8.382   5.887  1.0481 -0.2326  1.4011
  211MOL0     H27842   2.110   8.408   5.442  2.4074 -2.3061  0.6072
  211MOL0     H27843   1.944   8.380   5.426  0.4165  1.9910  0.0018
  211MOL0     H27844   2.078   8.138   5.531 -0.2080  0.8805  0.9348
  211MOL0     H27845   1.960   8.164   5.414  0.6685  2.0998  0.0212
  211MOL0     H27846   2.258   8.260   5.370 -1.9037  3.8451 -0.4928
  211MOL0     H27847   2.135   8.242   5.248  0.8685 -1.8651 -1.5445
  211MOL0     H27848   2.232   8.020   5.435  1.0631 -0.7540 -0.2368
  211MOL0     H27849   2.163   7.980   5.280  0.4437  0.6840 -1.9685
  211MOL0     H27850   2.584   8.084   5.219 -1.0105  2.5101  0.0902
  211MOL0     H27851   2.058   8.627   5.516  0.1619 -1.2985 -0.7682
  211MOL0     H27852   2.098   8.815   5.661  0.2339 -1.6314 -1.9501
  212MOL0     O27853  11.177   6.764   2.656  0.1192 -0.3776 -0.5673
  212MOL0     C27854  11.118   6.730   2.759 -0.2821 -1.2333 -0.3026
  212MOL0     O27855  11.181   6.697   2.881  0.3705  0.1397  0.0074
  212MOL0     C27856  11.318   6.695   2.896  0.6751  0.1244  0.3904
  212MOL0     C27857  11.384   6.793   2.968  0.4808  0.1795 -0.3635
  212MOL0     C27858  11.526   6.783   2.983  0.7230  1.1339 -0.4363
  212MOL0     C27859  11.588   6.667   2.933  0.0544 -0.6316  0.3966
  212MOL0     O27860  11.719   6.630   2.956  0.6791 -0.0587  0.0763
  212MOL0     C27861  11.801   6.727   3.000 -0.3915  0.2982 -0.8256
  212MOL0     C27862  11.817   6.848   2.897 -0.0959  1.1007  0.6275
  212MOL0     C27863  11.887   6.790   2.770  0.1275 -0.0752  1.1472
  212MOL0     C27864  11.942   6.901   2.685  0.0659  0.1125 -0.1512
  212MOL0     C27865  11.978   6.863   2.537  0.3570 -0.8923 -0.9823
  212MOL0     C27866  12.065   6.747   2.500 -0.3825  0.2618  0.2299
  212MOL0     C27867  12.191   6.720   2.585 -0.1571 -0.3194 -0.0787
  212MOL0     C27868  12.297   6.829   2.560 -0.1900 -0.0462  0.4357
  212MOL0     N27869  12.293   6.935   2.667  0.0184 -0.3977  0.1427
  212MOL0     C27870  12.260   7.067   2.638 -0.3304  0.2940  0.0865
  212MOL0     C27871  12.257   7.126   2.755 -1.0744 -0.6631 -1.5385
  212MOL0     C27872  12.229   7.268   2.789 -0.1665 -0.7437  0.3728
  212MOL0     C27873  12.082   7.292   2.785 -0.5105  0.0143 -0.4002
  212MOL0     C27874  12.026   7.305   2.638 -0.6908  0.3415 -0.3617
  212MOL0     C27875  11.888   7.360   2.641  0.4769 -0.1045  0.2061
  212MOL0     O27876  11.884   7.489   2.723 -0.3730 -0.2825  0.1624
  212MOL0     C27877  11.770   7.569   2.733 -0.1817  0.1892 -0.4824
  212MOL0     C27878  11.654   7.542   2.659  0.8406 -0.3722  0.3742
  212MOL0     C27879  11.538   7.624   2.678  0.3625 -0.5284  1.0232
  212MOL0     C27880  11.530   7.716   2.786 -0.0938 -0.4046 -0.5023
  212MOL0     C27881  11.409   7.793   2.808  0.3002 -0.8206 -1.0883
  212MOL0     O27882  11.309   7.776   2.710 -0.1537  0.2062  0.4600
  212MOL0     C27883  11.199   7.862   2.721 -0.4072 -0.4742 -0.4813
  212MOL0     C27884  11.098   7.808   2.785  0.4184  0.5381 -0.7554
  212MOL0     C27885  10.984   7.894   2.814 -0.5245  0.6915 -1.0290
  212MOL0     C27886  10.974   8.024   2.762 -0.9858 -1.3278 -0.8882
  212MOL0     O27887  10.860   8.092   2.790 -0.6218 -0.0247  0.5071
  212MOL0     C27888  10.882   8.238   2.801 -0.0007 -0.0675 -0.1454
  212MOL0     C27889  10.842   8.323   2.687 -0.5581 -0.5349  0.5092
  212MOL0     C27890  10.687   8.318   2.662  0.7325  0.7905 -1.1296
  212MOL0     C27891  10.649   8.426   2.565 -0.1167  1.0388  0.4298
  212MOL0     C27892  10.499   8.422   2.534 -0.1166  1.0920 -1.2579
  212MOL0     C27893  10.460   8.492   2.408  0.3158 -0.3453 -0.2312
  212MOL0     C27894  10.455   8.393   2.291 -1.1240 -0.4967 -1.3122
  212MOL0     C27895  10.432   8.459   2.158  0.2771 -0.6589  0.4410
  212MOL0    Cl27896  10.427   8.323   2.043 -0.7560 -0.7759 -0.4024
  212MOL0     C27897  11.090   8.073   2.703  0.9742 -1.0344 -0.3517
  212MOL0     C27898  11.205   7.999   2.693 -0.9677 -0.2773  0.7557
  212MOL0     O27899  11.412   7.863   2.908  0.4513  0.2276  0.7865
  212MOL0     C27900  11.656   7.735   2.852 -0.6489  0.0114  0.6346
  212MOL0     C27901  11.774   7.668   2.825  0.5000 -0.3690  0.7833
  212MOL0     N27902  12.289   7.036   2.848 -0.4845 -0.1713 -1.1802
  212MOL0     N27903  12.323   6.925   2.798  0.0331  0.7178  0.9854
  212MOL0     C27904  11.518   6.563   2.868  0.9026  1.1692 -1.2694
  212MOL0     C27905  11.380   6.583   2.844 -0.0162 -0.2156 -0.8658
  212MOL0     C27906  10.980   6.708   2.754  0.3904  0.0743 -0.7408
  212MOL0     C27907  10.907   6.769   2.648  0.2689 -0.1318  0.2814
  212MOL0     C27908  10.770   6.757   2.632  0.5418  0.9803 -0.2149
  212MOL0     C27909  10.700   6.690   2.737  0.6590  0.7031 -0.0896
  212MOL0     O27910  10.565   6.667   2.726 -0.2583  0.0665  0.0614
  212MOL0     C27911  10.486   6.718   2.623 -0.8731 -0.0729 -0.6449
  212MOL0     C27912  10.449   6.862   2.660  0.0025  0.2694 -0.1343
  212MOL0     C27913  10.334   6.918   2.592  0.1632 -0.0281  0.5967
  212MOL0     C27914  10.246   7.017   2.669 -0.4575 -0.4004 -0.1575
  212MOL0     C27915  10.314   7.144   2.656  0.3697  0.1833 -0.4293
  212MOL0     C27916  10.385   7.242   2.638 -0.0057 -0.6104  0.4427
  212MOL0     C27917  10.764   6.645   2.856  0.0909  0.2285 -0.4550
  212MOL0     C27918  10.906   6.653   2.861 -1.0504 -1.4557  0.2229
  212MOL0     H27919  11.348   6.882   3.019  1.8282  0.7811 -0.4044
  212MOL0     H27920  11.582   6.847   3.051  0.0746  1.5409 -0.2644
  212MOL0     H27921  11.898   6.680   3.019 -0.0009  1.6296  0.6631
  212MOL0     H27922  11.775   6.772   3.096  3.8915 -1.5400  1.4964
  212MOL0     H27923  11.893   6.910   2.946 -0.1355 -0.2652  2.4739
  212MOL0     H27924  11.730   6.909   2.870  1.0378  2.2115 -0.6971
  212MOL0     H27925  11.819   6.730   2.708 -1.1877  2.3429  0.1012
  212MOL0     H27926  11.969   6.734   2.816 -0.3503 -1.7413  0.0668
  212MOL0     H27927  11.872   6.986   2.682  0.2912  0.3566  1.0074
  212MOL0     H27928  12.035   6.938   2.728  1.4370 -1.9208 -1.2154
  212MOL0     H27929  12.015   6.956   2.491  0.5308 -0.5146 -0.1025
  212MOL0     H27930  11.879   6.849   2.493 -0.2950  1.4092 -0.3779
  212MOL0     H27931  12.098   6.762   2.397  0.0822 -1.7087  0.0598
  212MOL0     H27932  12.006   6.655   2.501  3.8436 -2.7372  1.6080
  212MOL0     H27933  12.172   6.700   2.691 -3.1153  3.3760  0.3099
  212MOL0     H27934  12.237   6.632   2.540  0.9518  0.6297 -0.8462
  212MOL0     H27935  12.268   6.881   2.468 -1.3797  1.7375  1.7577
  212MOL0     H27936  12.393   6.778   2.548 -0.9127 -2.0576  2.4031
  212MOL0     H27937  12.249   7.116   2.542  4.2155 -0.6308 -1.1399
  212MOL0     H27938  12.289   7.329   2.721  0.7406 -1.8192  0.1993
  212MOL0     H27939  12.263   7.305   2.886  2.0079 -2.7545  0.4551
  212MOL0     H27940  12.076   7.385   2.841  0.5345 -1.5788  2.5901
  212MOL0     H27941  12.022   7.215   2.834  0.2904  0.2435  0.9887
  212MOL0     H27942  12.096   7.369   2.582 -1.3491  1.2332 -0.1927
  212MOL0     H27943  12.036   7.203   2.602  0.1502 -0.0311  0.8334
  212MOL0     H27944  11.824   7.286   2.691 -1.9995  0.8606 -1.3660
  212MOL0     H27945  11.853   7.363   2.538  2.9611 -0.2267 -0.7042
  212MOL0     H27946  11.638   7.462   2.586  1.5441  0.3782 -0.6367
  212MOL0     H27947  11.447   7.607   2.621 -1.5182  4.0370  2.1569
  212MOL0     H27948  11.114   7.710   2.827  0.7934  0.8722 -0.1047
  212MOL0     H27949  10.890   7.856   2.854 -1.2568  2.5385 -0.9150
  212MOL0     H27950  10.983   8.270   2.829  0.8757 -0.1538 -2.9318
  212MOL0     H27951  10.828   8.275   2.889  1.7953  0.2938  0.8507
  212MOL0     H27952  10.886   8.294   2.591 -2.2687  1.1927 -0.8807
  212MOL0     H27953  10.869   8.427   2.705  2.9617 -0.9913 -1.1638
  212MOL0     H27954  10.626   8.322   2.752 -0.3403 -0.5313 -1.7602
  212MOL0     H27955  10.657   8.218   2.629  0.7807 -0.4087  2.0786
  212MOL0     H27956  10.670   8.526   2.604  0.2583  1.6864 -1.3515
  212MOL0     H27957  10.703   8.415   2.471 -1.4655 -2.9611 -0.1031
  212MOL0     H27958  10.446   8.467   2.618  0.2649 -0.4330 -0.1601
  212MOL0     H27959  10.476   8.315   2.529  2.7248  0.3879 -0.7835
  212MOL0     H27960  10.516   8.581   2.379  2.1485 -1.4416 -0.2176
  212MOL0     H27961  10.357   8.524   2.426  0.0492 -0.2549 -1.7826
  212MOL0     H27962  10.542   8.326   2.285 -1.0531 -0.9286  2.3081
  212MOL0     H27963  10.383   8.312   2.305  1.3515 -2.5084  0.9465
  212MOL0     H27964  10.513   8.523   2.120  1.8659 -3.1398 -0.6701
  212MOL0     H27965  10.346   8.524   2.145  0.4848 -0.9292 -3.7703
  212MOL0     H27966  11.100   8.178   2.681 -0.6677 -0.3892  1.7298
  212MOL0     H27967  11.292   8.045   2.647 -2.6563  3.1579  0.7080
  212MOL0     H27968  11.653   7.817   2.922 -0.8610  2.3208 -1.9308
  212MOL0     H27969  11.869   7.684   2.875  1.0106  1.3205 -0.6357
  212MOL0     H27970  11.572   6.479   2.823  1.9510  1.4675 -0.6015
  212MOL0     H27971  11.324   6.498   2.808  0.0870 -1.3010  1.3940
  212MOL0     H27972  10.954   6.844   2.585 -0.6666  0.6362  0.4639
  212MOL0     H27973  10.721   6.802   2.547  0.8687  1.0357 -0.3733
  212MOL0     H27974  10.403   6.646   2.629 -1.2141  0.1699 -2.1106
  212MOL0     H27975  10.541   6.707   2.529  1.7512  1.3733  0.6172
  212MOL0     H27976  10.436   6.871   2.768  0.3107  2.1343 -0.2269
  212MOL0     H27977  10.529   6.932   2.636 -0.3053  0.1311 -1.7099
  212MOL0     H27978  10.264   6.839   2.562 -1.5061  1.8014 -0.6124
  212MOL0     H27979  10.368   6.969   2.501 -0.4427 -2.2885 -0.9936
  212MOL0     H27980  10.143   7.019   2.631 -0.7302 -1.2463  0.5034
  212MOL0     H27981  10.238   6.985   2.774 -0.3400  0.6606  0.1878
  212MOL0     H27982  10.454   7.323   2.628 -0.3080 -0.4190 -0.1877
  212MOL0     H27983  10.704   6.602   2.935 -0.0418 -1.4328 -1.4218
  212MOL0     H27984  10.962   6.633   2.952  1.7831  1.4488 -0.7263
  213MOL0     O27985   3.937   7.997   9.844 -0.0492  0.1379 -0.2637
  213MOL0     C27986   4.055   8.023   9.819  1.4430 -0.2478  0.7958
  213MOL0     O27987   4.095   8.139   9.748  0.3375  0.5867  1.0827
  213MOL0     C27988   4.004   8.225   9.717  0.3976  1.0735  0.3519
  213MOL0     C27989   3.926   8.212   9.598  0.7286 -0.7552 -0.2670
  213MOL0     C27990   3.833   8.305   9.566 -0.0277 -0.5078  0.0591
  213MOL0     C27991   3.806   8.420   9.651  0.0932 -0.0121 -0.2792
  213MOL0     O27992   3.707   8.522   9.632 -0.4346  0.3674  0.2565
  213MOL0     C27993   3.598   8.489   9.552 -0.1340 -0.2144  0.5568
  213MOL0     C27994   3.496   8.599   9.560 -0.0581 -0.0429  0.1054
  213MOL0     C27995   3.359   8.553   9.489 -0.6394 -0.0956  0.0827
  213MOL0     C27996   3.259   8.671   9.489 -0.3681 -0.2373  0.0779
  213MOL0     C27997   3.176   8.690   9.358  0.2525  0.5017  0.5300
  213MOL0     C27998   3.076   8.809   9.349 -1.1393 -1.0001  0.6837
  213MOL0     C27999   3.028   8.835   9.204 -0.0706  0.1115  0.1057
  213MOL0     C28000   2.924   8.947   9.208 -0.8228 -0.1209 -0.0509
  213MOL0     N28001   2.890   9.007   9.072 -0.3404  0.9591 -1.0619
  213MOL0     C28002   2.984   9.056   8.988 -0.8484 -0.2743 -0.1653
  213MOL0     C28003   2.925   9.064   8.873  0.2062 -0.3597 -1.1580
  213MOL0     C28004   2.999   9.123   8.762  0.3770  0.0944  0.4145
  213MOL0     C28005   2.961   9.269   8.731 -0.3045  0.3721 -0.5200
  213MOL0     C28006   3.076   9.363   8.686  0.0238  0.0174  0.1380
  213MOL0     C28007   3.179   9.370   8.804 -0.8599  0.5779 -0.2087
  213MOL0     O28008   3.288   9.281   8.771 -0.6429  0.0730  0.2244
  213MOL0     C28009   3.403   9.293   8.850 -0.0893  0.3031 -1.4262
  213MOL0     C28010   3.528   9.264   8.788  0.5348 -0.0639 -0.0969
  213MOL0     C28011   3.641   9.272   8.868 -0.2269 -0.6550  0.2670
  213MOL0     C28012   3.649   9.315   8.999 -1.4344  0.1441  0.2565
  213MOL0     C28013   3.778   9.314   9.076 -0.6255  0.1356 -0.6341
  213MOL0     O28014   3.881   9.283   8.995 -0.5733  0.6773  0.3491
  213MOL0     C28015   4.009   9.256   9.038  0.3940 -0.2314 -0.2208
  213MOL0     C28016   4.115   9.291   8.956 -0.2389  0.5852 -0.3448
  213MOL0     C28017   4.245   9.277   8.994  0.2324  1.0788  1.0066
  213MOL0     C28018   4.268   9.226   9.123 -0.9764  0.1389  0.2268
  213MOL0     O28019   4.405   9.205   9.140  0.7454  0.1082 -0.8512
  213MOL0     C28020   4.447   9.168   9.276 -0.4045  0.0427 -0.3688
  213MOL0     C28021   4.467   9.014   9.295  0.6106 -0.1156  0.3061
  213MOL0     C28022   4.433   8.951   9.434 -0.0283 -0.1560 -0.5694
  213MOL0     C28023   4.502   9.001   9.562  0.1391  0.2103  0.3253
  213MOL0     C28024   4.448   8.924   9.680 -0.7332 -0.5555  0.7480
  213MOL0     C28025   4.522   8.950   9.804 -0.5372 -0.5957 -0.6923
  213MOL0     C28026   4.668   8.907   9.790  0.7758 -0.2334 -1.1306
  213MOL0     C28027   4.740   8.933   9.917 -0.6453  0.1985 -0.6815
  213MOL0    Cl28028   4.921   8.953   9.895 -0.0132 -0.6918  0.1855
  213MOL0     C28029   4.162   9.185   9.201  0.7869  0.5814  1.0932
  213MOL0     C28030   4.026   9.201   9.159 -0.1219  0.1910  0.1031
  213MOL0     O28031   3.780   9.330   9.194  0.6648  0.3069 -0.2092
  213MOL0     C28032   3.528   9.345   9.061 -0.3710 -0.0726 -0.0445
  213MOL0     C28033   3.411   9.335   8.987 -0.2591  0.0362  0.4061
  213MOL0     N28034   2.791   9.029   8.878  0.1045  0.3764 -0.6294
  213MOL0     N28035   2.774   8.982   8.999 -0.3094  0.3654 -0.2771
  213MOL0     C28036   3.891   8.433   9.762  0.1831 -0.1833  0.4658
  213MOL0     C28037   3.983   8.335   9.799 -0.0327 -0.7792  0.5359
  213MOL0     C28038   4.158   7.927   9.854 -0.3317  0.0587  0.5408
  213MOL0     C28039   4.288   7.955   9.806 -0.4141  0.7133  0.4838
  213MOL0     C28040   4.391   7.867   9.852 -0.2551 -0.5543  0.4539
  213MOL0     C28041   4.362   7.764   9.951  0.4167 -0.6241 -0.2344
  213MOL0     O28042   4.459   7.689  10.014 -0.4570 -0.2099  0.7452
  213MOL0     C28043   4.439   7.549  10.033  0.3344 -0.4232  0.2734
  213MOL0     C28044   4.455   7.499  10.184 -0.1790 -0.1136  0.8534
  213MOL0     C28045   4.587   7.532  10.245 -0.2659 -0.9476 -0.5769
  213MOL0     C28046   4.713   7.454  10.208 -0.8211 -0.4812 -0.3429
  213MOL0     C28047   4.827   7.497  10.290  0.3348  0.0177  0.7146
  213MOL0     C28048   4.915   7.535  10.363 -0.0659 -0.3013  0.3035
  213MOL0     C28049   4.234   7.749   9.994  0.1388  0.0086 -0.3593
  213MOL0     C28050   4.125   7.825   9.950  0.2255 -0.0231 -0.8039
  213MOL0     H28051   3.951   8.128   9.534 -1.5962 -1.1076 -0.7675
  213MOL0     H28052   3.786   8.298   9.468  1.8039  0.8680 -0.9939
  213MOL0     H28053   3.554   8.398   9.596 -2.3962  0.0975 -0.9087
  213MOL0     H28054   3.626   8.458   9.451 -0.0483 -0.0136  0.5204
  213MOL0     H28055   3.546   8.681   9.506  0.3035 -0.5974 -0.4192
  213MOL0     H28056   3.474   8.625   9.663  0.9442  0.3667  0.2324
  213MOL0     H28057   3.323   8.459   9.533 -0.2839 -2.1056 -3.4694
  213MOL0     H28058   3.385   8.538   9.383  1.2019  1.3997  0.2703
  213MOL0     H28059   3.196   8.652   9.576 -0.7499 -0.1773 -0.1803
  213MOL0     H28060   3.318   8.763   9.499  4.0897 -2.7670 -0.4828
  213MOL0     H28061   3.122   8.597   9.337  0.9518 -0.0418  1.1145
  213MOL0     H28062   3.250   8.703   9.279 -0.8515  1.5858 -0.3667
  213MOL0     H28063   3.131   8.890   9.399  1.2910 -2.5019  0.6373
  213MOL0     H28064   2.997   8.793   9.422  1.9625  0.6311  4.8298
  213MOL0     H28065   3.115   8.872   9.150 -0.0608 -0.4154 -0.2425
  213MOL0     H28066   2.995   8.746   9.150  2.0813 -0.2161 -0.7687
  213MOL0     H28067   2.965   9.030   9.266 -0.5521  0.2968 -0.8189
  213MOL0     H28068   2.834   8.913   9.261  1.7053 -3.1790  2.6969
  213MOL0     H28069   3.088   9.078   9.011 -1.3711  3.4790 -0.8060
  213MOL0     H28070   2.982   9.074   8.666  5.3415  0.3627 -0.9039
  213MOL0     H28071   3.106   9.114   8.784  0.5426 -1.6939 -0.8437
  213MOL0     H28072   2.918   9.312   8.822 -1.0886  0.1160 -0.7600
  213MOL0     H28073   2.882   9.269   8.654  0.7797 -0.6080 -1.6849
  213MOL0     H28074   3.117   9.327   8.591  2.1875  3.8268 -0.5773
  213MOL0     H28075   3.041   9.463   8.663 -0.9570  0.2807  2.5153
  213MOL0     H28076   3.136   9.343   8.901 -0.2553 -1.5462 -0.4771
  213MOL0     H28077   3.220   9.471   8.815 -0.6954  0.2374  3.3717
  213MOL0     H28078   3.530   9.232   8.684  2.1491 -1.6228  0.3749
  213MOL0     H28079   3.729   9.245   8.811 -1.9257 -0.8660 -2.4595
  213MOL0     H28080   4.096   9.355   8.870  0.1404 -0.4709 -1.2392
  213MOL0     H28081   4.328   9.303   8.930  1.7624  0.4385  2.6141
  213MOL0     H28082   4.375   9.196   9.353  2.2678  2.0394  1.6268
  213MOL0     H28083   4.531   9.227   9.314 -0.6457  1.3290 -1.7279
  213MOL0     H28084   4.568   9.004   9.254 -0.2243  4.8998 -4.0489
  213MOL0     H28085   4.400   8.965   9.224 -0.6946 -1.1754  2.1669
  213MOL0     H28086   4.446   8.844   9.416  1.2681  0.4003 -3.5019
  213MOL0     H28087   4.328   8.973   9.456 -0.2014 -1.0649 -0.4486
  213MOL0     H28088   4.609   8.990   9.538 -0.2285 -1.4261 -0.7258
  213MOL0     H28089   4.481   9.107   9.580  0.4620 -0.2160  4.0446
  213MOL0     H28090   4.454   8.815   9.669  3.3779 -0.3256 -1.2201
  213MOL0     H28091   4.343   8.951   9.694 -0.9352 -1.1681  0.4648
  213MOL0     H28092   4.472   8.907   9.891 -0.6952  2.1736  0.7133
  213MOL0     H28093   4.523   9.058   9.820  2.7814 -0.7349  1.0617
  213MOL0     H28094   4.680   8.805   9.754  0.4872 -0.3429 -0.9121
  213MOL0     H28095   4.709   8.978   9.717  1.4637 -1.9204 -2.4559
  213MOL0     H28096   4.712   8.843   9.972 -3.0568  0.7864 -0.8664
  213MOL0     H28097   4.708   9.025   9.966  0.2190  0.4255 -0.5321
  213MOL0     H28098   4.171   9.123   9.290 -2.5536 -1.1106  0.4345
  213MOL0     H28099   3.939   9.161   9.210 -0.1842 -0.2033 -0.3020
  213MOL0     H28100   3.520   9.375   9.165  1.0302 -2.1027  0.7146
  213MOL0     H28101   3.324   9.381   9.033  0.7472  1.5373  0.9195
  213MOL0     H28102   3.887   8.524   9.821 -1.9846 -0.6686  1.1742
  213MOL0     H28103   4.041   8.347   9.890 -1.7378  2.4651  1.3373
  213MOL0     H28104   4.316   8.028   9.731  0.6471 -0.1030  0.0527
  213MOL0     H28105   4.481   7.894   9.799  0.7973  2.8553  3.5827
  213MOL0     H28106   4.510   7.501   9.965 -1.8909 -1.0786 -1.7221
  213MOL0     H28107   4.340   7.514  10.002 -0.0053  1.0785 -0.3925
  213MOL0     H28108   4.375   7.552  10.236 -1.7940 -0.4187 -1.2017
  213MOL0     H28109   4.461   7.390  10.180  0.8516 -0.0950 -3.6802
  213MOL0     H28110   4.577   7.502  10.350  0.5111 -1.9896 -0.7811
  213MOL0     H28111   4.608   7.640  10.245 -0.2764 -0.9162  0.9775
  213MOL0     H28112   4.696   7.348  10.225 -2.6192 -0.2028 -0.2961
  213MOL0     H28113   4.743   7.481  10.105 -2.0220 -2.6911 -1.3255
  213MOL0     H28114   4.992   7.571  10.429 -1.6542  1.3504  1.3269
  213MOL0     H28115   4.212   7.669  10.064 -1.2609 -1.1347 -2.0265
  213MOL0     H28116   4.027   7.820   9.995  0.7448 -1.5936  0.2341
  214MOL0     O28117   1.330   2.049   2.416 -0.0390 -0.6584  0.2467
  214MOL0     C28118   1.356   1.983   2.514 -0.5502 -0.0069 -0.3451
  214MOL0     O28119   1.266   1.937   2.606  0.0007 -0.3972  0.3685
  214MOL0     C28120   1.134   1.945   2.580  0.1222  0.0081 -0.4055
  214MOL0     C28121   1.074   2.064   2.522 -1.0406 -0.1991 -0.1449
  214MOL0     C28122   0.936   2.071   2.512 -0.9480  1.0339 -0.0058
  214MOL0     C28123   0.853   1.965   2.562  0.3378  0.2983 -1.1370
  214MOL0     O28124   0.722   1.965   2.562  0.1777 -0.0423  0.7975
  214MOL0     C28125   0.646   2.082   2.603  0.7634 -0.6647  0.9813
  214MOL0     C28126   0.504   2.048   2.639 -0.1470  0.4964  0.0320
  214MOL0     C28127   0.403   2.165   2.619 -0.9007 -0.4745 -0.2335
  214MOL0     C28128   0.272   2.137   2.684  0.0997  0.2764  0.1573
  214MOL0     C28129   0.167   2.256   2.643 -0.4328  0.2573 -0.2066
  214MOL0     C28130   0.029   2.223   2.682 -0.1720  0.2443 -0.7419
  214MOL0     C28131  -0.063   2.337   2.642 -0.1991 -0.0339 -0.7456
  214MOL0     C28132  -0.207   2.302   2.694 -0.4616  0.4515  0.1387
  214MOL0     N28133  -0.301   2.412   2.691 -0.7721 -0.2637  0.8061
  214MOL0     C28134  -0.323   2.499   2.592  0.3393 -0.8148 -1.1563
  214MOL0     C28135  -0.410   2.590   2.640  0.7661 -0.8472 -0.7557
  214MOL0     C28136  -0.465   2.716   2.566  0.4767  1.5565 -0.5866
  214MOL0     C28137  -0.367   2.827   2.576 -0.2419 -0.1483  0.8146
  214MOL0     C28138  -0.253   2.797   2.478 -0.4515  0.0298  0.3874
  214MOL0     C28139  -0.152   2.908   2.480 -1.2075  0.1431  0.1056
  214MOL0     O28140  -0.110   2.925   2.616  0.9325 -0.6963  0.6521
  214MOL0     C28141   0.004   3.000   2.624  0.6566  0.0620  0.8047
  214MOL0     C28142   0.089   2.958   2.729 -0.3110  0.1994  0.0904
  214MOL0     C28143   0.208   3.025   2.750 -0.0407  0.0136  0.5506
  214MOL0     C28144   0.259   3.115   2.654 -0.2785  0.1507 -1.3859
  214MOL0     C28145   0.384   3.201   2.675  0.2583 -0.4165 -0.7716
  214MOL0     O28146   0.476   3.152   2.767  0.2384  0.4966 -0.0122
  214MOL0     C28147   0.571   3.242   2.810 -0.3351  0.0411 -0.4689
  214MOL0     C28148   0.526   3.347   2.884 -0.5786  0.3614  1.1823
  214MOL0     C28149   0.620   3.443   2.927 -0.4482  0.2701  0.7622
  214MOL0     C28150   0.757   3.416   2.903 -0.6880  0.0251  0.0937
  214MOL0     O28151   0.848   3.498   2.960 -0.4385 -0.7132 -0.2369
  214MOL0     C28152   0.962   3.451   3.037  0.2676  0.2024 -0.0793
  214MOL0     C28153   1.093   3.526   3.024  0.5195  0.0455 -0.8938
  214MOL0     C28154   1.204   3.447   3.107  1.2895  0.4158 -0.2365
  214MOL0     C28155   1.329   3.538   3.123  1.2141 -0.2506  0.3771
  214MOL0     C28156   1.448   3.443   3.140 -1.8732 -0.1544 -0.7540
  214MOL0     C28157   1.584   3.519   3.172  0.7271  1.1036 -0.3712
  214MOL0     C28158   1.704   3.419   3.179 -0.6485 -0.1137 -0.5239
  214MOL0     C28159   1.830   3.497   3.168 -0.2579  0.6430  0.7375
  214MOL0    Cl28160   1.867   3.604   3.307 -0.1562  0.2499  0.0510
  214MOL0     C28161   0.799   3.311   2.829 -0.2387  0.8484 -1.0278
  214MOL0     C28162   0.701   3.222   2.780 -0.2899  0.4784 -0.8358
  214MOL0     O28163   0.400   3.299   2.610 -0.4242 -1.0514  0.6436
  214MOL0     C28164   0.174   3.155   2.550 -0.0614  0.5855 -0.6041
  214MOL0     C28165   0.044   3.101   2.534 -0.6355  0.7852  0.2024
  214MOL0     N28166  -0.437   2.557   2.778 -0.0158  0.5639 -0.5868
  214MOL0     N28167  -0.374   2.453   2.794  0.2573  0.2507 -1.2514
  214MOL0     C28168   0.911   1.859   2.623  0.7179  0.1372  0.2066
  214MOL0     C28169   1.046   1.843   2.620 -0.2672 -0.4437  0.4567
  214MOL0     C28170   1.503   1.948   2.529  0.0623  0.8017 -0.5078
  214MOL0     C28171   1.591   2.006   2.440 -0.6093 -0.3106  0.2404
  214MOL0     C28172   1.725   1.978   2.451  0.4154  0.4139  0.1192
  214MOL0     C28173   1.772   1.877   2.539 -0.1629  0.0038  0.6452
  214MOL0     O28174   1.908   1.845   2.537  0.1618 -0.1264 -0.1581
  214MOL0     C28175   1.962   1.800   2.665  0.3900  0.0177  0.4991
  214MOL0     C28176   2.099   1.852   2.669  0.0114  0.4284  0.1775
  214MOL0     C28177   2.174   1.794   2.788  0.1532  0.1348 -0.5114
  214MOL0     C28178   2.187   1.641   2.809  0.0664 -0.4023  0.0471
  214MOL0     C28179   2.249   1.570   2.692  0.1184 -0.2061 -0.4154
  214MOL0     C28180   2.299   1.513   2.597 -0.2664 -0.1650 -0.2070
  214MOL0     C28181   1.682   1.820   2.625 -1.2375 -0.7587 -0.8305
  214MOL0     C28182   1.547   1.852   2.621  0.2190  0.0919 -0.1127
  214MOL0     H28183   1.131   2.154   2.503  0.6555 -1.7030 -3.0569
  214MOL0     H28184   0.908   2.171   2.483 -1.1366  1.3370  1.1746
  214MOL0     H28185   0.627   2.148   2.518  1.5853  0.7016  1.8177
  214MOL0     H28186   0.687   2.152   2.676 -1.8205 -0.1912  2.0914
  214MOL0     H28187   0.512   2.023   2.745  3.6853  0.9743 -0.0194
  214MOL0     H28188   0.468   1.963   2.580 -1.7504  1.6336 -0.7245
  214MOL0     H28189   0.391   2.175   2.511  1.8481 -0.6106 -0.6320
  214MOL0     H28190   0.451   2.259   2.648 -0.5964 -0.1810 -1.5904
  214MOL0     H28191   0.231   2.044   2.644 -0.8100 -0.1505  1.9845
  214MOL0     H28192   0.279   2.132   2.793 -0.9092  0.6687  0.2565
  214MOL0     H28193   0.177   2.270   2.535 -2.4182 -1.4282 -0.6750
  214MOL0     H28194   0.202   2.342   2.699 -0.4699 -0.0287  0.2641
  214MOL0     H28195   0.021   2.197   2.789 -1.1011 -3.7634 -1.5916
  214MOL0     H28196   0.006   2.131   2.628 -0.8131 -0.1451  0.1546
  214MOL0     H28197  -0.037   2.429   2.693 -3.1556  0.2881  0.4104
  214MOL0     H28198  -0.060   2.352   2.534  0.7978 -1.7523 -0.9980
  214MOL0     H28199  -0.197   2.271   2.798  1.8202 -3.2257 -0.9849
  214MOL0     H28200  -0.247   2.211   2.647 -2.5179  2.4182 -2.2024
  214MOL0     H28201  -0.286   2.494   2.490  1.2644 -0.3750 -0.8542
  214MOL0     H28202  -0.561   2.742   2.611 -0.4589 -0.7195 -1.1096
  214MOL0     H28203  -0.498   2.693   2.465  0.5297  4.1115 -1.2452
  214MOL0     H28204  -0.325   2.827   2.678  3.4050 -1.9902 -0.5055
  214MOL0     H28205  -0.408   2.926   2.556  0.2673 -0.2880 -1.0085
  214MOL0     H28206  -0.199   2.706   2.506  1.0592  0.3077 -1.4555
  214MOL0     H28207  -0.284   2.795   2.373 -0.0208  1.4541  0.2119
  214MOL0     H28208  -0.201   2.992   2.430 -1.3757 -0.2888 -0.4676
  214MOL0     H28209  -0.066   2.870   2.423 -0.3932  2.3991 -0.2573
  214MOL0     H28210   0.054   2.877   2.793  0.0671  0.1212  0.1990
  214MOL0     H28211   0.275   2.998   2.832  1.4528  1.5351 -0.0982
  214MOL0     H28212   0.419   3.352   2.903 -0.4892  1.1579  1.5289
  214MOL0     H28213   0.583   3.538   2.966 -1.3290  1.7798 -3.2631
  214MOL0     H28214   0.992   3.348   3.015 -2.4778 -0.1381 -2.8371
  214MOL0     H28215   0.923   3.450   3.139  0.7219 -1.8524  0.1151
  214MOL0     H28216   1.074   3.627   3.060 -3.9002 -1.3217  1.2532
  214MOL0     H28217   1.132   3.541   2.923  1.1436 -2.0001 -1.0141
  214MOL0     H28218   1.230   3.361   3.044  1.4030  1.5795 -1.8557
  214MOL0     H28219   1.161   3.415   3.202 -0.2094  0.2417 -0.9458
  214MOL0     H28220   1.339   3.592   3.028 -1.3108  1.8954  1.1984
  214MOL0     H28221   1.312   3.615   3.199  3.8363  1.6292 -0.8029
  214MOL0     H28222   1.470   3.399   3.042  1.3211  0.1976 -0.3122
  214MOL0     H28223   1.424   3.362   3.209 -2.0246  0.3009 -0.2623
  214MOL0     H28224   1.567   3.581   3.260 -2.3642 -0.5341  0.3410
  214MOL0     H28225   1.603   3.587   3.089 -1.8674 -0.6590 -2.5976
  214MOL0     H28226   1.707   3.372   3.278  0.1011  1.5467  0.2896
  214MOL0     H28227   1.700   3.341   3.103 -0.0533  0.7362 -1.4393
  214MOL0     H28228   1.838   3.547   3.070  1.3603 -1.7738 -0.4774
  214MOL0     H28229   1.912   3.424   3.168 -2.8680 -2.4924  1.0327
  214MOL0     H28230   0.900   3.303   2.790 -0.1441  2.1549 -1.1093
  214MOL0     H28231   0.722   3.130   2.726  3.2402 -1.6287  3.4652
  214MOL0     H28232   0.206   3.227   2.475 -4.1013  2.8116 -0.4915
  214MOL0     H28233  -0.020   3.132   2.451  0.2844  2.8439  0.2109
  214MOL0     H28234   0.836   1.787   2.656 -0.1844  0.9651 -0.0055
  214MOL0     H28235   1.098   1.757   2.662 -0.0016  0.5504  2.2901
  214MOL0     H28236   1.560   2.096   2.388 -0.7734 -1.1881 -1.2375
  214MOL0     H28237   1.803   2.036   2.402 -0.1907  0.5523 -0.6916
  214MOL0     H28238   1.938   1.693   2.665 -4.0007  0.7875  0.2247
  214MOL0     H28239   1.910   1.841   2.752 -1.6315  0.9354 -1.0503
  214MOL0     H28240   2.153   1.836   2.576 -0.0951 -1.6142  0.4266
  214MOL0     H28241   2.097   1.962   2.671 -0.9214  0.4226  0.5441
  214MOL0     H28242   2.134   1.838   2.879  1.9802  0.4601  0.1725
  214MOL0     H28243   2.273   1.840   2.774 -1.6454  3.8434 -2.8154
  214MOL0     H28244   2.251   1.637   2.898 -0.6992  1.2554  0.7128
  214MOL0     H28245   2.089   1.595   2.826 -1.1105  2.2405  0.9690
  214MOL0     H28246   2.343   1.462   2.514  0.3525  1.5809 -1.0229
  214MOL0     H28247   1.714   1.742   2.694 -0.9243 -0.7618 -0.9802
  214MOL0     H28248   1.471   1.810   2.685 -1.8746 -1.8392 -3.5419
  215MOL0     O28249   3.466   2.008   7.348  0.3086  0.0924  0.1122
  215MOL0     C28250   3.590   2.000   7.356 -0.3559 -0.1193  0.5031
  215MOL0     O28251   3.670   2.094   7.395 -0.1971 -1.4779  0.3549
  215MOL0     C28252   3.620   2.218   7.419  1.2326 -0.1172 -0.0205
  215MOL0     C28253   3.628   2.275   7.548  0.1071  0.7662  0.2337
  215MOL0     C28254   3.577   2.398   7.577  0.0437  0.2349  0.1230
  215MOL0     C28255   3.523   2.478   7.469  0.5760  0.0643 -0.6574
  215MOL0     O28256   3.456   2.593   7.501  0.4766 -0.2630 -0.1093
  215MOL0     C28257   3.455   2.692   7.392 -0.3438 -0.0957  0.3954
  215MOL0     C28258   3.381   2.808   7.444  0.9842 -0.5741  0.3105
  215MOL0     C28259   3.387   2.918   7.327 -0.0084  1.2370 -0.7865
  215MOL0     C28260   3.293   3.036   7.364  0.1840  0.1797  0.1586
  215MOL0     C28261   3.311   3.156   7.272  0.5073 -0.1315  0.7946
  215MOL0     C28262   3.235   3.283   7.313 -0.1508  0.2418  0.3523
  215MOL0     C28263   3.227   3.383   7.197 -0.5370  0.3741 -0.2998
  215MOL0     C28264   3.362   3.432   7.158 -0.1303 -0.9062  0.3452
  215MOL0     N28265   3.378   3.564   7.101  0.0977  1.4346  0.1661
  215MOL0     C28266   3.431   3.589   6.975 -0.7758  0.1951 -0.1782
  215MOL0     C28267   3.469   3.716   6.976  0.2993 -0.5338  0.3110
  215MOL0     C28268   3.535   3.787   6.854  0.8048 -1.0264 -0.0680
  215MOL0     C28269   3.483   3.941   6.843  0.4290  0.2594 -0.1666
  215MOL0     C28270   3.361   3.967   6.741  0.3944  0.7434  0.8719
  215MOL0     C28271   3.415   3.948   6.594 -0.4481  0.5222 -0.1627
  215MOL0     O28272   3.535   4.026   6.579 -0.7853  0.4100 -0.6756
  215MOL0     C28273   3.633   3.996   6.490 -0.1811 -0.3756  0.4940
  215MOL0     C28274   3.763   4.051   6.510 -0.9747 -0.0902  0.3803
  215MOL0     C28275   3.867   4.028   6.420 -0.4911  0.8508 -0.3764
  215MOL0     C28276   3.841   3.940   6.299  0.2430 -0.8766 -0.2032
  215MOL0     C28277   3.946   3.922   6.195  0.6104 -0.8442 -0.2941
  215MOL0     O28278   4.042   4.009   6.203 -0.1313  0.1100  0.3762
  215MOL0     C28279   4.135   4.001   6.098  0.6693  0.3655 -0.7727
  215MOL0     C28280   4.257   3.941   6.135  0.1646  1.3876 -0.6297
  215MOL0     C28281   4.355   3.925   6.035  0.5615  0.7397  0.2927
  215MOL0     C28282   4.327   3.971   5.900  0.3727  0.0521 -0.7273
  215MOL0     O28283   4.416   3.945   5.801 -0.5990  0.3871 -0.7984
  215MOL0     C28284   4.437   3.808   5.767 -0.3841  0.4422 -0.6150
  215MOL0     C28285   4.523   3.805   5.649  0.9355 -0.4080  0.2117
  215MOL0     C28286   4.666   3.848   5.669  0.4976 -0.5063 -0.2110
  215MOL0     C28287   4.741   3.745   5.745 -0.3171 -0.2460 -0.0242
  215MOL0     C28288   4.893   3.778   5.750  0.3152  0.5553 -0.7115
  215MOL0     C28289   4.992   3.672   5.809 -0.1050  0.5143  0.1515
  215MOL0     C28290   5.134   3.733   5.845 -0.0225 -0.0310 -0.3917
  215MOL0     C28291   5.201   3.808   5.726  0.2233  0.1288  0.3245
  215MOL0    Cl28292   5.204   3.711   5.576 -0.2901  0.0893 -0.1789
  215MOL0     C28293   4.196   4.015   5.864  0.7209  0.0105  0.0552
  215MOL0     C28294   4.102   4.025   5.964  0.2129 -0.9751  1.0564
  215MOL0     O28295   3.927   3.831   6.110 -0.1001  0.2238 -0.3457
  215MOL0     C28296   3.714   3.883   6.283 -0.4729  1.6193 -0.5164
  215MOL0     C28297   3.616   3.919   6.373 -0.3261  0.0745 -1.1336
  215MOL0     N28298   3.443   3.765   7.103  0.4485  0.1121 -0.6268
  215MOL0     N28299   3.396   3.677   7.179  0.4731  0.6548  0.3684
  215MOL0     C28300   3.524   2.429   7.341 -0.2317 -0.5127 -0.1995
  215MOL0     C28301   3.570   2.302   7.316  0.4165 -0.2530  0.1450
  215MOL0     C28302   3.646   1.872   7.313 -0.1924  0.4848  0.2970
  215MOL0     C28303   3.570   1.749   7.296 -1.3320 -0.5950 -0.1742
  215MOL0     C28304   3.624   1.631   7.237  0.6418  0.6454 -0.1083
  215MOL0     C28305   3.756   1.630   7.210  0.1049  0.5430  0.2809
  215MOL0     O28306   3.793   1.516   7.141 -0.4753 -0.4524  0.0583
  215MOL0     C28307   3.928   1.488   7.144 -0.4966  0.3205 -0.0658
  215MOL0     C28308   3.962   1.341   7.095 -0.3378 -0.3918  0.4061
  215MOL0     C28309   4.008   1.331   6.951 -0.3094  0.4509 -0.6702
  215MOL0     C28310   4.040   1.185   6.905 -1.1568 -0.7143 -0.1635
  215MOL0     C28311   3.923   1.105   6.867  0.1024  1.0346 -0.1540
  215MOL0     C28312   3.816   1.055   6.821  0.1223 -0.1135  0.1924
  215MOL0     C28313   3.835   1.747   7.224  0.1932  0.1074  1.0434
  215MOL0     C28314   3.779   1.862   7.270  0.6777 -0.3288  0.1306
  215MOL0     H28315   3.679   2.212   7.621  1.0856  0.5311 -0.6199
  215MOL0     H28316   3.585   2.452   7.671  3.2773  1.3283 -0.6639
  215MOL0     H28317   3.401   2.654   7.305  1.7266  0.0133 -1.0273
  215MOL0     H28318   3.561   2.717   7.374  1.5776 -5.5351  2.2542
  215MOL0     H28319   3.420   2.841   7.540 -1.2272 -1.1269  1.4646
  215MOL0     H28320   3.278   2.772   7.447  1.2014 -1.7314 -2.3866
  215MOL0     H28321   3.357   2.880   7.229 -3.0237  1.8863 -0.2088
  215MOL0     H28322   3.490   2.956   7.327 -0.1660  1.7590 -2.6795
  215MOL0     H28323   3.187   3.009   7.362 -0.1380  1.4152 -0.4134
  215MOL0     H28324   3.312   3.061   7.468  0.4692  0.8306 -0.0437
  215MOL0     H28325   3.283   3.126   7.171 -1.6123 -6.2723  2.7501
  215MOL0     H28326   3.411   3.198   7.280 -0.0468  0.9241  3.2228
  215MOL0     H28327   3.298   3.316   7.395  2.3398 -0.0716 -1.3213
  215MOL0     H28328   3.134   3.265   7.352  1.1505 -0.4686  3.6909
  215MOL0     H28329   3.167   3.333   7.121 -2.5760 -2.7459  3.0456
  215MOL0     H28330   3.162   3.466   7.223  0.8584  0.6368  2.8174
  215MOL0     H28331   3.417   3.354   7.105 -0.8100 -2.5656  1.9878
  215MOL0     H28332   3.414   3.441   7.254 -0.1685  2.4390  0.1697
  215MOL0     H28333   3.443   3.523   6.890  3.9163  1.1054 -0.4513
  215MOL0     H28334   3.512   3.748   6.754  1.0380  0.7771 -0.8496
  215MOL0     H28335   3.643   3.776   6.866  0.4281 -2.5548  2.6295
  215MOL0     H28336   3.568   4.002   6.810 -1.6040  3.3727 -0.1073
  215MOL0     H28337   3.467   3.983   6.943  2.0056 -0.1566  0.2842
  215MOL0     H28338   3.289   3.888   6.762  2.2148 -1.8556 -1.8272
  215MOL0     H28339   3.303   4.059   6.751 -2.2052 -0.7978  0.8586
  215MOL0     H28340   3.332   3.969   6.525 -1.1789 -0.5827  0.3372
  215MOL0     H28341   3.435   3.841   6.576  2.5105  1.0852 -0.6926
  215MOL0     H28342   3.785   4.112   6.598  1.1970 -0.6761  0.2932
  215MOL0     H28343   3.963   4.074   6.440  0.0152 -0.6028  0.6997
  215MOL0     H28344   4.298   3.925   6.235  2.3687  0.7951 -1.5655
  215MOL0     H28345   4.450   3.885   6.067 -0.0726 -0.3706  0.8841
  215MOL0     H28346   4.345   3.752   5.747  0.1797 -0.7924  0.0835
  215MOL0     H28347   4.494   3.759   5.847 -1.0108  0.1132 -0.3643
  215MOL0     H28348   4.475   3.868   5.574 -0.0846 -2.3388 -0.8651
  215MOL0     H28349   4.512   3.707   5.601 -3.4148 -0.4908  0.9459
  215MOL0     H28350   4.679   3.947   5.712  0.1414 -1.4934  2.3500
  215MOL0     H28351   4.714   3.857   5.571  0.3915 -1.2754 -0.3385
  215MOL0     H28352   4.698   3.750   5.846 -0.3816  0.0065 -0.0624
  215MOL0     H28353   4.731   3.644   5.704 -0.5054 -0.3173  0.1941
  215MOL0     H28354   4.898   3.867   5.814  1.2636 -0.7185  1.0931
  215MOL0     H28355   4.941   3.807   5.657  4.5169 -0.6583  0.8324
  215MOL0     H28356   4.996   3.588   5.739 -3.0382 -0.2354  0.7580
  215MOL0     H28357   4.957   3.623   5.900 -0.7716 -1.0571 -0.9124
  215MOL0     H28358   5.116   3.812   5.918 -0.3353 -0.7940  0.3680
  215MOL0     H28359   5.205   3.658   5.881 -0.7508 -0.0031  1.1447
  215MOL0     H28360   5.307   3.827   5.747 -0.0581  0.4155  1.5335
  215MOL0     H28361   5.150   3.904   5.718 -3.1834 -1.4438  1.3636
  215MOL0     H28362   4.179   4.055   5.765  0.6008  3.2884  1.3019
  215MOL0     H28363   4.006   4.075   5.950  0.9506 -0.0305 -1.1394
  215MOL0     H28364   3.686   3.827   6.194 -0.6529  1.5984 -0.4458
  215MOL0     H28365   3.525   3.860   6.372 -0.1104 -0.5173  2.0276
  215MOL0     H28366   3.477   2.475   7.254  1.1397  0.6375 -0.3710
  215MOL0     H28367   3.566   2.283   7.209 -1.4296  2.5337 -0.3620
  215MOL0     H28368   3.464   1.757   7.317 -1.1387  1.4086  0.2722
  215MOL0     H28369   3.557   1.550   7.210  0.6236  1.0416 -1.2897
  215MOL0     H28370   3.980   1.494   7.240  1.8407 -1.5700 -1.1097
  215MOL0     H28371   3.982   1.562   7.085 -0.7514  0.8815  0.3907
  215MOL0     H28372   4.045   1.299   7.152 -1.0423 -0.7274  1.2203
  215MOL0     H28373   3.874   1.280   7.118  1.0793 -2.6149  0.1622
  215MOL0     H28374   4.096   1.395   6.943 -1.3799  2.5450  2.5005
  215MOL0     H28375   3.938   1.378   6.881 -0.1195  3.7169  1.1542
  215MOL0     H28376   4.108   1.192   6.819 -3.3585 -0.0592 -1.9638
  215MOL0     H28377   4.092   1.131   6.984 -0.1435 -1.3609 -1.2412
  215MOL0     H28378   3.741   1.000   6.768  2.3411 -2.7183 -0.4888
  215MOL0     H28379   3.942   1.746   7.203 -0.3287  2.2926 -2.3876
  215MOL0     H28380   3.854   1.940   7.278 -1.0354  1.3686  0.3275
  216MOL0     O28381   7.643  10.770   2.167  0.9915 -1.0481 -0.0992
  216MOL0     C28382   7.579  10.696   2.096  0.2196  0.0201 -0.1477
  216MOL0     O28383   7.559  10.557   2.120 -0.3369  0.3402 -0.0571
  216MOL0     C28384   7.601  10.492   2.228  0.0709  0.1106 -1.8265
  216MOL0     C28385   7.599  10.356   2.225  0.1484  0.4101  0.4516
  216MOL0     C28386   7.645  10.278   2.332 -0.1324  0.1964  0.1103
  216MOL0     C28387   7.699  10.337   2.442 -0.8281  0.1367 -0.3693
  216MOL0     O28388   7.761  10.255   2.536  0.3303 -0.5916  0.1197
  216MOL0     C28389   7.764  10.286   2.675 -0.2189 -0.5824 -1.1040
  216MOL0     C28390   7.867  10.194   2.763 -0.0039  0.1152  0.0025
  216MOL0     C28391   7.830  10.044   2.759  0.2408 -0.3095  0.2053
  216MOL0     C28392   7.688  10.024   2.823 -0.0530  0.0380  0.0910
  216MOL0     C28393   7.650   9.884   2.828 -0.1963 -0.3351  0.0124
  216MOL0     C28394   7.516   9.859   2.904 -0.7550  0.5623 -0.0116
  216MOL0     C28395   7.476   9.712   2.910  0.0197 -0.6106  0.6712
  216MOL0     C28396   7.325   9.711   2.948  0.1145 -0.1951  0.3608
  216MOL0     N28397   7.270   9.580   2.960 -1.0009 -0.1368  0.1569
  216MOL0     C28398   7.318   9.477   3.036  0.7310  0.6337 -0.8614
  216MOL0     C28399   7.222   9.378   3.006 -0.6642 -0.6137  0.3518
  216MOL0     C28400   7.249   9.241   3.057 -0.4754  0.2838 -0.2555
  216MOL0     C28401   7.329   9.146   2.962 -0.2978 -1.0370 -0.0262
  216MOL0     C28402   7.478   9.160   2.993  0.1793 -0.9682  0.7832
  216MOL0     C28403   7.564   9.084   2.891 -0.3252 -0.6420  0.1981
  216MOL0     O28404   7.693   9.141   2.910 -0.9620  0.0332 -0.5002
  216MOL0     C28405   7.745   9.241   2.831  0.2072  0.2567 -0.4378
  216MOL0     C28406   7.663   9.328   2.759  0.3254 -0.3669  0.9758
  216MOL0     C28407   7.713   9.438   2.692 -0.2998  0.9959 -0.2484
  216MOL0     C28408   7.853   9.457   2.698  0.4535 -0.1420  0.1711
  216MOL0     C28409   7.915   9.579   2.641 -0.3945  0.6932 -1.2501
  216MOL0     O28410   8.050   9.571   2.646  0.6707  0.4546 -0.0670
  216MOL0     C28411   8.112   9.676   2.599  0.8262 -0.0908  0.9290
  216MOL0     C28412   8.107   9.800   2.659  0.1468 -0.3218 -0.4714
  216MOL0     C28413   8.169   9.903   2.594  0.3110 -0.0922  0.4388
  216MOL0     C28414   8.227   9.880   2.466  0.1109 -0.1390  0.7374
  216MOL0     O28415   8.293   9.990   2.409 -0.0633  0.4141 -0.5729
  216MOL0     C28416   8.324   9.992   2.271  0.4526 -0.9044  0.5502
  216MOL0     C28417   8.374  10.136   2.228  0.1426  0.7008 -0.0803
  216MOL0     C28418   8.423  10.124   2.083  0.1333 -0.0331  0.1796
  216MOL0     C28419   8.420  10.257   2.007 -0.3743 -0.2227  0.6805
  216MOL0     C28420   8.533  10.352   2.057  0.4590  1.0008  0.3767
  216MOL0     C28421   8.534  10.490   2.000  0.7192 -0.2129  0.9601
  216MOL0     C28422   8.629  10.589   2.079 -0.0395 -0.5551  1.3619
  216MOL0     C28423   8.637  10.728   2.014  0.5464 -0.1020 -0.3295
  216MOL0    Cl28424   8.517  10.832   2.097 -0.4027 -0.3227  0.0166
  216MOL0     C28425   8.228   9.762   2.398 -0.4598 -0.1573 -0.6791
  216MOL0     C28426   8.186   9.653   2.474 -0.0022  0.6310 -0.5964
  216MOL0     O28427   7.846   9.676   2.609 -0.6307  0.4146 -0.2552
  216MOL0     C28428   7.933   9.374   2.779 -0.2226 -0.7869 -0.2550
  216MOL0     C28429   7.878   9.269   2.849  0.3407  0.3549 -0.6923
  216MOL0     N28430   7.125   9.423   2.926 -0.7464 -0.5229 -0.2724
  216MOL0     N28431   7.144   9.549   2.911 -0.2220 -0.0598  0.0759
  216MOL0     C28432   7.704  10.478   2.452  0.5127  0.4383  0.3022
  216MOL0     C28433   7.653  10.553   2.352 -1.2512  0.2623  0.5809
  216MOL0     C28434   7.511  10.741   1.971  0.2742 -0.0829 -0.3624
  216MOL0     C28435   7.382  10.679   1.940 -0.0861 -0.3603  0.0106
  216MOL0     C28436   7.333  10.690   1.811 -0.2712  0.1389  0.2990
  216MOL0     C28437   7.404  10.779   1.717 -0.2943  0.0108  0.7780
  216MOL0     O28438   7.360  10.780   1.583 -0.2318  0.1941  0.2587
  216MOL0     C28439   7.394  10.900   1.507  1.1393  0.6473 -0.3038
  216MOL0     C28440   7.335  10.879   1.366  0.8723  0.5039  0.8521
  216MOL0     C28441   7.410  10.764   1.282 -0.6232 -0.3266 -0.1937
  216MOL0     C28442   7.329  10.639   1.268 -0.4997 -0.3741  1.1452
  216MOL0     C28443   7.398  10.551   1.165 -0.0943 -0.9677 -0.4858
  216MOL0     C28444   7.449  10.475   1.091  0.4784  0.5847 -1.3249
  216MOL0     C28445   7.519  10.850   1.754 -0.1738  0.7420 -0.5644
  216MOL0     C28446   7.583  10.819   1.876  0.4070  0.8562 -0.6195
  216MOL0     H28447   7.559  10.307   2.136  0.7256  0.6811  0.0428
  216MOL0     H28448   7.622  10.172   2.331  0.8199 -0.0176 -0.3207
  216MOL0     H28449   7.661  10.272   2.710 -1.2608  3.9718 -1.7706
  216MOL0     H28450   7.790  10.388   2.704 -1.8717 -0.1148 -1.1421
  216MOL0     H28451   7.883  10.225   2.867  3.1957 -1.5839  0.1497
  216MOL0     H28452   7.967  10.207   2.720  0.0381  1.3525  0.4272
  216MOL0     H28453   7.904   9.993   2.821  2.2232  3.7768  1.5538
  216MOL0     H28454   7.831  10.005   2.657 -1.6621  3.4149 -1.4134
  216MOL0     H28455   7.695  10.064   2.925 -0.6577 -1.3233  0.6940
  216MOL0     H28456   7.617  10.073   2.757  0.5202 -2.3690 -2.5249
  216MOL0     H28457   7.731   9.824   2.870 -0.2501  0.3772  1.1641
  216MOL0     H28458   7.657   9.850   2.724  2.3075  2.3953 -0.8927
  216MOL0     H28459   7.437   9.918   2.857 -0.9938 -1.3860 -2.2045
  216MOL0     H28460   7.531   9.893   3.008 -0.4369 -0.3867  0.2613
  216MOL0     H28461   7.494   9.684   2.806 -1.3081  0.8468  0.0114
  216MOL0     H28462   7.537   9.658   2.983 -0.9340  0.8614  2.6400
  216MOL0     H28463   7.261   9.770   2.881 -1.0440 -0.6342  1.0572
  216MOL0     H28464   7.316   9.744   3.052 -2.5279 -1.7395  0.7102
  216MOL0     H28465   7.408   9.485   3.097  1.2290  0.1282 -1.5235
  216MOL0     H28466   7.153   9.196   3.086  0.7156 -1.5453  1.1119
  216MOL0     H28467   7.296   9.250   3.156 -0.6266 -2.0358  0.0788
  216MOL0     H28468   7.300   9.179   2.862  1.1500 -0.3685 -0.2500
  216MOL0     H28469   7.297   9.043   2.977  2.8888 -2.2043 -0.3639
  216MOL0     H28470   7.501   9.267   2.998 -0.3690 -0.9021  2.4362
  216MOL0     H28471   7.497   9.111   3.088  2.3658 -0.0618  0.8729
  216MOL0     H28472   7.523   9.103   2.791 -0.5120 -1.4130  0.1223
  216MOL0     H28473   7.573   8.977   2.911 -0.8706 -1.0232 -1.3822
  216MOL0     H28474   7.556   9.320   2.749  0.1235  1.8850  0.8690
  216MOL0     H28475   7.647   9.505   2.637 -0.9838 -0.7401 -1.6355
  216MOL0     H28476   8.068   9.811   2.760 -0.5494  1.3009 -0.8970
  216MOL0     H28477   8.168  10.005   2.631 -2.4369  0.5273 -0.9936
  216MOL0     H28478   8.235   9.968   2.213  1.5728 -1.8551 -0.8270
  216MOL0     H28479   8.395   9.921   2.229 -0.5637 -1.3492 -0.4551
  216MOL0     H28480   8.460  10.156   2.292  2.1756 -0.2423 -2.3456
  216MOL0     H28481   8.293  10.205   2.251 -0.6658 -0.2376 -0.0516
  216MOL0     H28482   8.352  10.059   2.030 -1.8104  1.6085  0.6462
  216MOL0     H28483   8.518  10.070   2.079 -0.9052 -1.8778 -2.6126
  216MOL0     H28484   8.433  10.237   1.900 -3.3621 -0.2530  0.2517
  216MOL0     H28485   8.327  10.313   2.016  0.5054  1.4436 -0.1398
  216MOL0     H28486   8.631  10.308   2.035  0.1304  1.4602 -2.3202
  216MOL0     H28487   8.521  10.364   2.166  3.3163 -2.9570  1.3705
  216MOL0     H28488   8.434  10.533   2.001  1.4243  1.6596 -1.0862
  216MOL0     H28489   8.570  10.484   1.897  2.1588  2.7395  1.1737
  216MOL0     H28490   8.602  10.593   2.185 -0.0411 -0.1881  1.3490
  216MOL0     H28491   8.730  10.549   2.068 -0.1632 -0.3695 -1.0471
  216MOL0     H28492   8.617  10.727   1.906 -2.1361  3.0306 -0.0349
  216MOL0     H28493   8.733  10.779   2.026  0.9698 -1.4196  2.5227
  216MOL0     H28494   8.278   9.734   2.305 -0.1565 -3.0609  0.2518
  216MOL0     H28495   8.190   9.552   2.435  1.5051 -0.1400  1.3953
  216MOL0     H28496   8.040   9.392   2.785 -0.1001 -1.8783  1.4093
  216MOL0     H28497   7.940   9.206   2.912 -1.6599  0.0614  1.1284
  216MOL0     H28498   7.747  10.539   2.531 -1.8924  0.6066  1.5669
  216MOL0     H28499   7.680  10.659   2.354  0.5048  0.1443 -4.4110
  216MOL0     H28500   7.343  10.608   2.012  0.6817  1.1268  1.9954
  216MOL0     H28501   7.246  10.637   1.775  1.7923 -4.0447  0.9146
  216MOL0     H28502   7.502  10.910   1.515  1.0396  1.2999  0.3262
  216MOL0     H28503   7.360  10.995   1.550  1.1230 -0.6994  2.9632
  216MOL0     H28504   7.233  10.843   1.378  0.9422 -0.5428 -1.2889
  216MOL0     H28505   7.339  10.979   1.322 -1.1125  1.2452  2.2116
  216MOL0     H28506   7.502  10.740   1.336 -0.0967 -3.8652 -2.3498
  216MOL0     H28507   7.434  10.803   1.183 -0.8467  0.5699  0.0960
  216MOL0     H28508   7.336  10.593   1.367  1.0346 -3.5624 -0.2917
  216MOL0     H28509   7.227  10.663   1.234  0.9899  0.9652 -2.9603
  216MOL0     H28510   7.493  10.403   1.025 -2.5091  0.0127 -2.8604
  216MOL0     H28511   7.592  10.904   1.695 -1.6811  0.9335 -2.3389
  216MOL0     H28512   7.686  10.851   1.890  1.8480 -4.0626  4.0265
  217MOL0     O28513   9.948   1.887   6.205  0.0001 -0.2485  0.1442
  217MOL0     C28514   9.992   1.978   6.136  0.0161 -0.2905  0.9971
  217MOL0     O28515   9.918   2.059   6.053  0.7313 -0.2608  0.4119
  217MOL0     C28516   9.783   2.041   6.058 -1.5690 -0.8283 -0.7484
  217MOL0     C28517   9.703   2.142   6.113 -0.1363 -0.7746 -0.1432
  217MOL0     C28518   9.570   2.154   6.081 -0.2653 -0.5870 -0.6242
  217MOL0     C28519   9.514   2.055   6.000 -0.1941  0.5653  0.3984
  217MOL0     O28520   9.382   2.057   5.974 -0.7752  0.3867  0.3187
  217MOL0     C28521   9.325   2.189   5.955 -0.7172  0.6622 -0.7331
  217MOL0     C28522   9.329   2.233   5.814 -0.4613  0.5156 -0.7869
  217MOL0     C28523   9.209   2.188   5.736 -0.4738  0.1872  0.2856
  217MOL0     C28524   9.232   2.242   5.596 -0.2775 -1.2456 -0.6262
  217MOL0     C28525   9.111   2.221   5.501  0.0624  0.1592  0.2419
  217MOL0     C28526   9.080   2.079   5.478  0.2205  0.1745 -0.5656
  217MOL0     C28527   8.971   2.059   5.374  0.0637 -1.4771  0.3307
  217MOL0     C28528   8.837   2.092   5.443  0.9919 -1.0565  0.1271
  217MOL0     N28529   8.721   2.077   5.354 -1.1003  0.4265  0.0512
  217MOL0     C28530   8.685   1.960   5.285  0.2324 -0.1418 -0.3674
  217MOL0     C28531   8.592   2.001   5.195 -0.0211 -0.9431  0.1794
  217MOL0     C28532   8.508   1.909   5.107 -0.6218  0.3826 -0.4483
  217MOL0     C28533   8.397   1.832   5.191  0.6840  0.4509 -0.9193
  217MOL0     C28534   8.338   1.721   5.108  0.2163  0.6761  0.4639
  217MOL0     C28535   8.184   1.736   5.077  0.6246  1.5007 -0.2861
  217MOL0     O28536   8.105   1.761   5.199 -0.0682  0.0067 -0.1058
  217MOL0     C28537   7.968   1.800   5.185 -0.0714  0.0061  0.0027
  217MOL0     C28538   7.874   1.762   5.076 -0.5329  0.5279  0.1900
  217MOL0     C28539   7.738   1.803   5.075  0.2470  0.9925  1.0031
  217MOL0     C28540   7.681   1.875   5.180 -0.5723  0.6736  0.6727
  217MOL0     C28541   7.547   1.935   5.166 -0.0942  0.3316 -0.3148
  217MOL0     O28542   7.529   2.054   5.228 -0.1443  0.3604  0.0298
  217MOL0     C28543   7.416   2.120   5.205 -0.2791 -0.1471  1.3465
  217MOL0     C28544   7.292   2.064   5.248 -0.6854  0.1426  0.1554
  217MOL0     C28545   7.169   2.137   5.213  0.5487 -0.0028 -0.0714
  217MOL0     C28546   7.173   2.259   5.143 -0.3326 -1.5083 -0.3199
  217MOL0     O28547   7.053   2.317   5.114  0.2708 -0.2085  0.1629
  217MOL0     C28548   7.054   2.449   5.059 -0.1464 -0.0696  0.5451
  217MOL0     C28549   6.906   2.484   5.039  1.1371 -0.2727  0.5060
  217MOL0     C28550   6.802   2.454   5.152  0.6087  0.3637  0.5083
  217MOL0     C28551   6.666   2.449   5.081  0.2110 -0.5788 -0.2605
  217MOL0     C28552   6.605   2.594   5.080 -0.1383  1.0644 -0.1440
  217MOL0     C28553   6.528   2.627   4.955  0.2442  0.9067  0.2535
  217MOL0     C28554   6.382   2.593   4.959  0.1513 -0.6151  0.0863
  217MOL0     C28555   6.362   2.445   4.966  0.0507  0.0534 -0.0106
  217MOL0    Cl28556   6.198   2.377   4.923 -0.2485  0.1745  0.1899
  217MOL0     C28557   7.297   2.307   5.098  0.6409  0.1621 -0.6687
  217MOL0     C28558   7.422   2.246   5.132 -0.2002 -0.1500 -0.3218
  217MOL0     O28559   7.466   1.879   5.097 -0.0070 -0.3265  0.7086
  217MOL0     C28560   7.769   1.909   5.285  0.6685  0.3088  0.0961
  217MOL0     C28561   7.900   1.863   5.293 -0.5070  0.9910 -0.2772
  217MOL0     N28562   8.568   2.132   5.213  0.1812 -0.6414 -0.4692
  217MOL0     N28563   8.643   2.174   5.310  0.0856  0.1977 -0.0873
  217MOL0     C28564   9.584   1.946   5.955 -0.5036 -0.0647  0.4118
  217MOL0     C28565   9.719   1.943   5.983 -0.4790 -0.2017  0.0559
  217MOL0     C28566  10.141   1.989   6.132 -0.5283  0.4430 -0.3830
  217MOL0     C28567  10.233   1.897   6.179  0.3226 -0.4116 -0.1164
  217MOL0     C28568  10.370   1.917   6.167  0.6227  1.1063 -0.4284
  217MOL0     C28569  10.418   2.030   6.106 -0.7334 -0.0030 -0.2165
  217MOL0     O28570  10.552   2.077   6.103 -0.3139 -0.7881  0.3710
  217MOL0     C28571  10.653   1.990   6.153 -0.4345  0.6566  0.7580
  217MOL0     C28572  10.697   1.882   6.047 -0.4232  0.7621 -1.1393
  217MOL0     C28573  10.761   1.963   5.928  0.7171 -0.4922 -0.4269
  217MOL0     C28574  10.821   1.881   5.815  0.2269  0.4522 -0.4731
  217MOL0     C28575  10.834   1.952   5.681  0.4420  1.4542 -0.1706
  217MOL0     C28576  10.871   2.009   5.585  0.3979  0.0433  0.5494
  217MOL0     C28577  10.329   2.128   6.054  0.3885 -0.2774  0.8518
  217MOL0     C28578  10.191   2.104   6.063  0.3898 -0.8551  0.4027
  217MOL0     H28579   9.749   2.209   6.184 -2.5481  0.2176  0.6085
  217MOL0     H28580   9.508   2.225   6.135  0.7388  0.9589 -1.4351
  217MOL0     H28581   9.367   2.266   6.021 -3.2713  1.0249  0.6009
  217MOL0     H28582   9.221   2.172   5.983 -0.5471 -0.9162 -0.9663
  217MOL0     H28583   9.422   2.206   5.763 -0.7842 -5.0554  0.8706
  217MOL0     H28584   9.328   2.342   5.816 -0.6326  0.5023 -0.2203
  217MOL0     H28585   9.120   2.229   5.785 -1.0846 -1.6082  0.7421
  217MOL0     H28586   9.195   2.080   5.728  0.3581  0.1798 -1.3160
  217MOL0     H28587   9.257   2.348   5.614  1.6248 -2.1570  3.3790
  217MOL0     H28588   9.317   2.186   5.557 -1.3869 -2.7299 -0.9861
  217MOL0     H28589   9.130   2.260   5.400 -1.3451 -2.1908 -1.0182
  217MOL0     H28590   9.032   2.286   5.541 -0.2739  1.0089 -1.6661
  217MOL0     H28591   9.058   2.028   5.572  0.9062  0.0125 -0.4854
  217MOL0     H28592   9.169   2.033   5.435  2.2301  4.5308 -1.6512
  217MOL0     H28593   8.989   2.124   5.287  0.7002 -0.5985  1.1080
  217MOL0     H28594   8.978   1.954   5.344  0.7856 -0.5217 -3.4458
  217MOL0     H28595   8.841   2.191   5.489 -0.5180 -1.6978  1.7606
  217MOL0     H28596   8.833   2.023   5.528  0.0729 -0.4222  0.6207
  217MOL0     H28597   8.706   1.857   5.312 -1.7312  0.1309  2.5736
  217MOL0     H28598   8.582   1.850   5.051  1.6635  2.4191  0.2311
  217MOL0     H28599   8.463   1.967   5.025  0.3134  0.4856 -0.9059
  217MOL0     H28600   8.321   1.898   5.233  0.4503  2.3188 -3.9775
  217MOL0     H28601   8.464   1.776   5.257 -0.8807  0.9988  1.2517
  217MOL0     H28602   8.400   1.706   5.018  0.1754  4.1744 -0.2977
  217MOL0     H28603   8.358   1.628   5.161  1.3269  0.0346 -0.9844
  217MOL0     H28604   8.145   1.647   5.027 -1.7499  1.5713  1.2890
  217MOL0     H28605   8.174   1.808   4.996  1.6966  1.6494 -0.2975
  217MOL0     H28606   7.910   1.710   4.988 -5.2508  1.5814 -2.7058
  217MOL0     H28607   7.675   1.762   4.997  2.0788  0.0427 -0.0476
  217MOL0     H28608   7.289   1.969   5.300  4.9532  0.5718  1.8505
  217MOL0     H28609   7.074   2.088   5.228  1.6621 -2.6018 -0.9349
  217MOL0     H28610   7.108   2.445   4.964  0.4203  1.9811  0.7397
  217MOL0     H28611   7.098   2.528   5.119  2.2799 -2.5954  2.3058
  217MOL0     H28612   6.867   2.440   4.947  1.5068  1.5396 -0.5766
  217MOL0     H28613   6.899   2.590   5.011 -1.9628 -0.9175 -1.5977
  217MOL0     H28614   6.791   2.530   5.231 -0.1831 -0.7323  1.4860
  217MOL0     H28615   6.824   2.358   5.198 -0.8817  0.3412  1.2344
  217MOL0     H28616   6.673   2.402   4.983  6.5154  0.8954 -0.9642
  217MOL0     H28617   6.600   2.388   5.144  0.5040 -0.9683 -0.3285
  217MOL0     H28618   6.693   2.659   5.066  0.2290  0.8220  0.9136
  217MOL0     H28619   6.561   2.621   5.177  1.0060  3.1156 -0.1406
  217MOL0     H28620   6.576   2.574   4.873  0.0016  1.1173 -0.0246
  217MOL0     H28621   6.538   2.734   4.935 -1.2672  0.4319 -4.0729
  217MOL0     H28622   6.334   2.644   5.043 -1.5288 -1.7830 -0.0958
  217MOL0     H28623   6.330   2.627   4.869  0.4036 -0.8503 -0.1500
  217MOL0     H28624   6.372   2.417   5.071  1.7939  1.2186  0.1733
  217MOL0     H28625   6.429   2.389   4.901 -1.4888 -1.1139 -0.6439
  217MOL0     H28626   7.308   2.405   5.054  0.1841  0.0893 -0.9472
  217MOL0     H28627   7.515   2.291   5.098 -2.3842  3.4768 -2.0997
  217MOL0     H28628   7.742   1.977   5.365 -1.3838 -0.6915  0.3184
  217MOL0     H28629   7.963   1.908   5.369  0.8523  1.9576 -1.9042
  217MOL0     H28630   9.532   1.877   5.889  3.1321 -0.7347 -2.0800
  217MOL0     H28631   9.769   1.862   5.930 -1.8163 -0.4801 -0.8290
  217MOL0     H28632  10.196   1.812   6.234 -1.2402  1.5187  1.9808
  217MOL0     H28633  10.436   1.835   6.190  1.0741  0.3197 -4.0007
  217MOL0     H28634  10.624   1.946   6.248 -0.3332 -1.3954 -0.1070
  217MOL0     H28635  10.743   2.047   6.176 -0.0603 -1.1866  4.5098
  217MOL0     H28636  10.769   1.809   6.085  1.0058  1.6091 -2.1505
  217MOL0     H28637  10.614   1.818   6.013 -0.9616  0.2604  0.9683
  217MOL0     H28638  10.831   2.036   5.970 -0.4541  0.8041 -0.6783
  217MOL0     H28639  10.672   2.012   5.888 -0.8291  0.3046  3.5758
  217MOL0     H28640  10.913   1.836   5.854 -1.6605 -0.5815  3.1394
  217MOL0     H28641  10.751   1.799   5.798 -1.2682  1.4698  0.5469
  217MOL0     H28642  10.918   2.071   5.511 -0.4750  0.1852  0.1061
  217MOL0     H28643  10.368   2.217   6.005  1.2835 -1.6331 -1.0182
  217MOL0     H28644  10.127   2.178   6.016  0.4863 -1.1553 -0.2126
  218MOL0     O28645   3.521   9.697  11.034 -0.5629  0.1747  0.2651
  218MOL0     C28646   3.421   9.702  10.956  0.4801  0.5203 -0.7510
  218MOL0     O28647   3.337   9.809  10.941 -0.7022 -0.0772  0.0483
  218MOL0     C28648   3.343   9.917  11.019 -0.0078 -0.7075 -0.9099
  218MOL0     C28649   3.235   9.949  11.101 -1.0152  0.6867  0.1683
  218MOL0     C28650   3.243  10.063  11.175  0.4128  0.1164  0.5532
  218MOL0     C28651   3.354  10.141  11.174  0.0539  0.4935 -0.2517
  218MOL0     O28652   3.349  10.272  11.226 -0.9977  0.0268  0.4752
  218MOL0     C28653   3.426  10.305  11.340 -0.0927  0.4008  0.7230
  218MOL0     C28654   3.406  10.226  11.467  0.7483 -0.0761 -0.3896
  218MOL0     C28655   3.523  10.263  11.549  0.7183 -0.7051 -0.5401
  218MOL0     C28656   3.495  10.238  11.691 -0.6723  0.2464  0.3055
  218MOL0     C28657   3.458  10.361  11.766 -0.1230  0.1780 -0.0632
  218MOL0     C28658   3.453  10.344  11.916  0.4301 -0.2975  0.0770
  218MOL0     C28659   3.397  10.470  11.980  0.0466 -0.9949 -0.2314
  218MOL0     C28660   3.397  10.451  12.133  0.3530  0.4501  0.1755
  218MOL0     N28661   3.535  10.437  12.190  0.1548  0.2730  0.1815
  218MOL0     C28662   3.570  10.354  12.288 -0.1395  0.5327  0.3998
  218MOL0     C28663   3.698  10.386  12.328 -0.2610  0.9319 -0.1326
  218MOL0     C28664   3.773  10.308  12.435 -0.0597 -0.1770  1.4723
  218MOL0     C28665   3.818  10.404  12.539  0.7163  0.6585  0.4715
  218MOL0     C28666   3.697  10.422  12.635  0.7846 -0.0946 -0.9078
  218MOL0     C28667   3.696  10.319  12.766  0.3999 -0.1289  0.2090
  218MOL0     O28668   3.587  10.345  12.850 -0.0291 -0.2152 -0.0102
  218MOL0     C28669   3.455  10.319  12.813  0.0993  0.0755  0.4036
  218MOL0     C28670   3.360  10.404  12.866  0.2174  0.2618  0.9834
  218MOL0     C28671   3.223  10.396  12.815 -0.5537  0.3220 -1.0785
  218MOL0     C28672   3.179  10.298  12.729 -0.5508  0.1627 -0.6579
  218MOL0     C28673   3.027  10.284  12.702 -0.7633 -0.2883  0.3738
  218MOL0     O28674   2.988  10.165  12.646 -0.2485 -0.3507 -0.3043
  218MOL0     C28675   2.856  10.123  12.640 -0.6992 -0.6249 -0.2261
  218MOL0     C28676   2.736  10.186  12.687  0.3491  0.4217  0.5341
  218MOL0     C28677   2.608  10.133  12.668  0.1005 -0.8148  0.0735
  218MOL0     C28678   2.598  10.011  12.589  0.4487  0.5396  0.1089
  218MOL0     O28679   2.473   9.957  12.557 -0.5462  0.3085 -0.5091
  218MOL0     C28680   2.455   9.839  12.479 -0.2748 -0.2164 -0.3913
  218MOL0     C28681   2.313   9.791  12.515  0.6394 -0.1807  0.3723
  218MOL0     C28682   2.244   9.693  12.407  0.3621  1.2675  0.0010
  218MOL0     C28683   2.129   9.604  12.462  0.4014 -1.0941  0.0776
  218MOL0     C28684   2.044   9.547  12.335 -0.0102  0.1065 -0.3352
  218MOL0     C28685   1.915   9.478  12.381  0.3040  0.2148 -0.7808
  218MOL0     C28686   1.930   9.340  12.433 -0.4294 -0.1131 -0.3279
  218MOL0     C28687   1.803   9.275  12.465 -0.2372  0.4812 -0.2785
  218MOL0    Cl28688   1.723   9.352  12.604 -0.8506  0.3210 -0.5858
  218MOL0     C28689   2.713   9.961  12.532  0.3280 -0.5759 -2.1887
  218MOL0     C28690   2.831  10.016  12.568  0.2459  0.0281  0.2349
  218MOL0     O28691   2.952  10.378  12.730 -0.5143 -0.1640 -0.1607
  218MOL0     C28692   3.277  10.208  12.681  1.0145 -0.2797 -0.3115
  218MOL0     C28693   3.417  10.227  12.716  0.7013 -0.2876  0.1260
  218MOL0     N28694   3.726  10.504  12.262  0.7818 -0.0709 -0.1937
  218MOL0     N28695   3.626  10.533  12.184 -0.2178 -0.4267  0.4511
  218MOL0     C28696   3.462  10.110  11.102  0.9843  0.1102 -0.5634
  218MOL0     C28697   3.456   9.997  11.023 -0.6890 -0.9219 -0.0837
  218MOL0     C28698   3.389   9.588  10.872  0.8627  1.1554  0.3586
  218MOL0     C28699   3.492   9.501  10.841  0.8891 -0.0734 -0.1281
  218MOL0     C28700   3.460   9.390  10.758  0.0189 -0.0987  0.1157
  218MOL0     C28701   3.328   9.382  10.694  0.6672  0.0883 -0.7124
  218MOL0     O28702   3.293   9.283  10.603 -0.0530  0.7530 -0.1313
  218MOL0     C28703   3.378   9.169  10.577 -0.3555  0.8384 -0.0122
  218MOL0     C28704   3.459   9.197  10.453  0.0513 -0.5789  0.4540
  218MOL0     C28705   3.539   9.332  10.437 -0.6371  0.4906  0.3374
  218MOL0     C28706   3.609   9.356  10.309  0.1321 -0.5573 -0.0822
  218MOL0     C28707   3.726   9.272  10.299 -0.0597 -0.4472 -0.2916
  218MOL0     C28708   3.814   9.199  10.274 -0.9888 -0.0532 -0.8323
  218MOL0     C28709   3.235   9.483  10.720  0.0057  0.6367 -0.3139
  218MOL0     C28710   3.266   9.575  10.811 -0.0187 -0.1220  0.3829
  218MOL0     H28711   3.144   9.893  11.081 -0.1459 -0.1807 -1.5276
  218MOL0     H28712   3.155  10.083  11.235 -2.5007 -0.1575 -3.2524
  218MOL0     H28713   3.412  10.410  11.366  1.4754  0.8146  0.0169
  218MOL0     H28714   3.530  10.294  11.307 -0.6848  1.3973 -1.7387
  218MOL0     H28715   3.382  10.120  11.454 -1.8955  0.4346 -0.1403
  218MOL0     H28716   3.318  10.265  11.519  1.2317 -2.1987  2.2287
  218MOL0     H28717   3.549  10.367  11.527  0.5870 -0.9252 -1.8058
  218MOL0     H28718   3.612  10.205  11.524  1.8501  0.7805 -0.1147
  218MOL0     H28719   3.422  10.157  11.702 -2.0307  0.6250 -3.9911
  218MOL0     H28720   3.590  10.198  11.726 -0.0377  1.3465 -0.0966
  218MOL0     H28721   3.365  10.404  11.729  0.4177  1.0503 -0.4263
  218MOL0     H28722   3.536  10.432  11.738  0.6132 -1.6560 -3.1432
  218MOL0     H28723   3.553  10.331  11.960  0.7947 -0.8414 -0.8805
  218MOL0     H28724   3.386  10.262  11.939  2.3936 -2.6525 -2.0404
  218MOL0     H28725   3.454  10.559  11.949  0.3673 -2.1432 -3.2742
  218MOL0     H28726   3.294  10.480  11.944  1.0314 -1.3235 -3.4403
  218MOL0     H28727   3.345  10.358  12.156  1.1835  0.1922  1.0784
  218MOL0     H28728   3.342  10.539  12.167 -0.9300  0.0546 -0.7930
  218MOL0     H28729   3.503  10.281  12.334  1.4789 -0.2292  1.6267
  218MOL0     H28730   3.859  10.265  12.383  1.3525  4.4931 -0.5551
  218MOL0     H28731   3.708  10.226  12.468 -2.6266  0.8818 -0.6200
  218MOL0     H28732   3.841  10.499  12.490  0.9889  1.4256  2.0042
  218MOL0     H28733   3.904  10.376  12.601 -1.2645  0.3811  3.3243
  218MOL0     H28734   3.690  10.522  12.679  2.6303  0.0737 -0.9136
  218MOL0     H28735   3.601  10.412  12.584  1.4312  0.7320 -2.3732
  218MOL0     H28736   3.788  10.323  12.825  0.1783 -0.8748  0.6105
  218MOL0     H28737   3.701  10.217  12.727  1.6721  0.4968 -1.3684
  218MOL0     H28738   3.389  10.487  12.929 -1.4031  1.4710  0.2240
  218MOL0     H28739   3.158  10.474  12.853 -1.2919 -0.4396 -0.7418
  218MOL0     H28740   2.730  10.284  12.732  0.8213  0.3792  0.6949
  218MOL0     H28741   2.520  10.176  12.716 -0.7117 -1.2752 -0.9574
  218MOL0     H28742   2.530   9.767  12.511  1.7664  2.4771  1.2572
  218MOL0     H28743   2.466   9.848  12.370  2.3637 -1.1258 -0.2766
  218MOL0     H28744   2.241   9.869  12.539 -1.5513 -1.7703 -0.6340
  218MOL0     H28745   2.323   9.740  12.611 -0.0433  2.6964  2.0597
  218MOL0     H28746   2.322   9.631  12.363  0.7294  0.8388  1.2389
  218MOL0     H28747   2.198   9.768  12.341 -1.3661  0.7110  0.4988
  218MOL0     H28748   2.170   9.513  12.508 -1.2754 -2.0111 -0.1726
  218MOL0     H28749   2.066   9.656  12.534 -0.6917  0.1531 -1.7040
  218MOL0     H28750   2.100   9.472  12.279 -0.1178  0.0671 -0.3893
  218MOL0     H28751   2.006   9.635  12.281  0.7173  1.0270  0.6280
  218MOL0     H28752   1.849   9.473  12.294 -2.2969 -0.4238  1.1091
  218MOL0     H28753   1.867   9.540  12.457  1.1175  0.6906 -0.6394
  218MOL0     H28754   1.991   9.280  12.366 -2.0836 -0.6465 -1.3996
  218MOL0     H28755   1.992   9.341  12.523  1.4022  1.5415 -1.5226
  218MOL0     H28756   1.817   9.169  12.489 -0.3967  0.6353  0.5300
  218MOL0     H28757   1.749   9.274  12.370  0.3480 -5.5948 -0.9318
  218MOL0     H28758   2.718   9.874  12.468  3.7171 -0.5568 -2.1147
  218MOL0     H28759   2.922   9.970  12.531 -0.1956 -1.2888  0.7243
  218MOL0     H28760   3.249  10.147  12.595 -0.0920 -0.8104  0.4044
  218MOL0     H28761   3.480  10.164  12.654  0.8587  1.7390 -1.9207
  218MOL0     H28762   3.552  10.171  11.104  1.1366 -0.1242 -0.0446
  218MOL0     H28763   3.543   9.972  10.963 -0.2873 -3.7598  1.4983
  218MOL0     H28764   3.589   9.520  10.888  0.5457  0.6754  0.2985
  218MOL0     H28765   3.551   9.336  10.735  2.0087  2.4516  1.3544
  218MOL0     H28766   3.316   9.080  10.563 -0.3815  0.8607 -0.0364
  218MOL0     H28767   3.443   9.143  10.662 -0.3337  0.1095 -0.2401
  218MOL0     H28768   3.530   9.115  10.445  0.2411 -0.3901  0.1736
  218MOL0     H28769   3.388   9.196  10.369  0.8963 -0.9839 -0.2640
  218MOL0     H28770   3.609   9.348  10.520 -1.7911 -1.4592  1.7737
  218MOL0     H28771   3.452   9.398  10.445 -2.3998 -1.9115  2.3099
  218MOL0     H28772   3.537   9.337  10.230  1.0387  0.6314 -1.2455
  218MOL0     H28773   3.639   9.461  10.302 -0.5068 -0.1603  2.1926
  218MOL0     H28774   3.881   9.115  10.267 -0.9634 -0.2077  0.8720
  218MOL0     H28775   3.135   9.483  10.679 -1.0964 -0.7426  2.1319
  218MOL0     H28776   3.198   9.658  10.822 -0.8223 -0.6004 -0.7536
  219MOL0     O28777   1.190   7.476   2.038 -0.4797 -0.3341 -0.7234
  219MOL0     C28778   1.310   7.503   2.066  0.9339  0.1161  1.2090
  219MOL0     O28779   1.358   7.629   2.069 -0.7859  0.8297 -1.1010
  219MOL0     C28780   1.287   7.728   2.016 -0.1564  0.3314 -0.3725
  219MOL0     C28781   1.352   7.805   1.915  0.6922 -0.2499  0.7263
  219MOL0     C28782   1.285   7.918   1.863 -0.0385  0.5844  0.3465
  219MOL0     C28783   1.153   7.937   1.892  0.3718 -0.1694  0.0424
  219MOL0     O28784   1.073   8.037   1.831  1.1512  0.7002 -0.0253
  219MOL0     C28785   1.143   8.131   1.749 -0.4808  0.3436 -0.1234
  219MOL0     C28786   1.041   8.242   1.723  0.8402  0.2426  0.1556
  219MOL0     C28787   0.903   8.204   1.667 -0.3349 -0.4817  0.3063
  219MOL0     C28788   0.800   8.324   1.661  0.6173  0.0462 -1.1065
  219MOL0     C28789   0.683   8.296   1.568  0.2550  0.5371  0.6105
  219MOL0     C28790   0.572   8.407   1.548 -0.4014 -0.4618  0.2657
  219MOL0     C28791   0.501   8.430   1.678  0.2934  0.7089  0.6463
  219MOL0     C28792   0.377   8.502   1.652  0.6896 -0.7919  0.3395
  219MOL0     N28793   0.298   8.515   1.780  0.1981 -0.2901  0.4913
  219MOL0     C28794   0.242   8.405   1.842  0.2578 -0.2902 -0.8805
  219MOL0     C28795   0.240   8.440   1.976  0.2888  0.0595 -0.1974
  219MOL0     C28796   0.207   8.349   2.092 -0.6557  0.6879  0.5406
  219MOL0     C28797   0.329   8.268   2.147  0.3489  0.4154  0.4783
  219MOL0     C28798   0.459   8.358   2.177 -0.0322  0.4125  0.7218
  219MOL0     C28799   0.435   8.461   2.296  0.4324  0.4231  0.3872
  219MOL0     O28800   0.564   8.517   2.330 -0.3970 -0.3634 -0.5113
  219MOL0     C28801   0.639   8.454   2.425  0.6276 -0.1334 -0.1247
  219MOL0     C28802   0.634   8.315   2.440 -0.8001  0.4365 -0.1380
  219MOL0     C28803   0.723   8.260   2.535  1.0525 -0.1732 -0.0610
  219MOL0     C28804   0.821   8.328   2.601  0.6011  0.2607 -0.9605
  219MOL0     C28805   0.915   8.268   2.695 -0.2362 -0.8628 -0.0116
  219MOL0     O28806   1.009   8.353   2.749  0.8190  0.1247 -0.9824
  219MOL0     C28807   1.088   8.329   2.864 -0.4507  0.0449  0.1483
  219MOL0     C28808   1.215   8.387   2.870 -0.1625  1.0562 -0.4318
  219MOL0     C28809   1.293   8.369   2.987  0.4409 -0.3455 -0.0047
  219MOL0     C28810   1.244   8.290   3.095 -0.2968 -0.5334  0.5730
  219MOL0     O28811   1.305   8.299   3.216 -1.2667  0.4335 -0.7675
  219MOL0     C28812   1.343   8.182   3.276  0.1410  0.6444  0.1226
  219MOL0     C28813   1.485   8.202   3.348 -0.3491  0.1934 -0.5979
  219MOL0     C28814   1.536   8.075   3.420  0.0978  0.8958  0.4916
  219MOL0     C28815   1.435   8.005   3.505 -0.1165  0.4503 -0.7342
  219MOL0     C28816   1.379   8.089   3.622  0.0508 -0.9503  0.3342
  219MOL0     C28817   1.393   8.017   3.759 -0.2214 -0.1337  0.2206
  219MOL0     C28818   1.540   8.046   3.806  0.0565  0.4009  0.6896
  219MOL0     C28819   1.554   8.034   3.960  0.1501 -0.5501  0.0223
  219MOL0    Cl28820   1.534   7.877   4.039  0.0086  0.3991  0.3408
  219MOL0     C28821   1.121   8.231   3.089 -0.8897  0.1514 -0.2079
  219MOL0     C28822   1.042   8.250   2.971  0.2266 -0.8864  0.2200
  219MOL0     O28823   0.904   8.151   2.708  0.3679 -0.4384 -0.0397
  219MOL0     C28824   0.821   8.470   2.582  0.7355  0.2315  0.3973
  219MOL0     C28825   0.733   8.531   2.488  0.1747 -0.2857 -0.1731
  219MOL0     N28826   0.270   8.578   1.986  0.0084  0.0834  1.6150
  219MOL0     N28827   0.310   8.621   1.867  0.7063  0.3396 -0.4573
  219MOL0     C28828   1.084   7.852   1.979  0.2286 -0.6918  0.4813
  219MOL0     C28829   1.149   7.746   2.049  0.1199 -0.4464  1.2547
  219MOL0     C28830   1.398   7.384   2.086 -0.1462 -0.4326  0.1313
  219MOL0     C28831   1.345   7.259   2.113 -0.8443 -0.3943 -0.2272
  219MOL0     C28832   1.425   7.148   2.134 -0.5870  0.0139 -0.3169
  219MOL0     C28833   1.560   7.156   2.156  0.2500  0.2094 -0.7704
  219MOL0     O28834   1.633   7.048   2.217 -0.0753 -0.4797 -0.3169
  219MOL0     C28835   1.773   7.040   2.209  0.0639  0.5661 -0.2432
  219MOL0     C28836   1.821   6.898   2.175  0.4145 -0.2705 -1.0043
  219MOL0     C28837   1.854   6.807   2.301  0.1377  0.0604  0.2998
  219MOL0     C28838   1.978   6.838   2.383 -0.0721 -0.4881 -0.3740
  219MOL0     C28839   2.101   6.825   2.309  0.5799  0.8332 -0.0351
  219MOL0     C28840   2.192   6.827   2.232 -0.2108  0.4455 -0.3801
  219MOL0     C28841   1.615   7.281   2.120 -0.1442  0.0374 -0.0612
  219MOL0     C28842   1.539   7.387   2.085 -0.2058  0.4886 -1.0572
  219MOL0     H28843   1.454   7.785   1.887  1.3854  0.4473  2.5659
  219MOL0     H28844   1.344   7.984   1.800 -0.5987  0.1620 -0.6331
  219MOL0     H28845   1.196   8.092   1.661  2.8100 -1.2171  2.3598
  219MOL0     H28846   1.218   8.182   1.810  0.3010 -0.1168 -0.6779
  219MOL0     H28847   1.093   8.304   1.650  0.3643 -2.2065 -2.4493
  219MOL0     H28848   1.019   8.296   1.816 -1.8780 -2.7772  1.4505
  219MOL0     H28849   0.869   8.127   1.737  0.6828  0.6454  2.0897
  219MOL0     H28850   0.906   8.168   1.563  0.2298  1.3137 -0.3342
  219MOL0     H28851   0.761   8.336   1.763 -2.9939 -0.7457 -2.2342
  219MOL0     H28852   0.850   8.409   1.613  0.6929  1.8573  1.9215
  219MOL0     H28853   0.629   8.209   1.606 -0.2835  0.5593 -0.0875
  219MOL0     H28854   0.719   8.282   1.466 -2.0878 -2.5126  0.0500
  219MOL0     H28855   0.503   8.377   1.469 -1.2882  2.1325 -0.0465
  219MOL0     H28856   0.608   8.501   1.506 -1.5705  0.3017  0.9360
  219MOL0     H28857   0.493   8.329   1.719  1.8899 -1.0741 -2.9873
  219MOL0     H28858   0.554   8.493   1.750 -3.9902 -0.6645  5.6303
  219MOL0     H28859   0.325   8.438   1.580 -0.2179  1.2862 -0.9243
  219MOL0     H28860   0.386   8.598   1.601 -0.6447 -0.7891  0.0762
  219MOL0     H28861   0.233   8.300   1.813  0.2368 -0.2299 -1.0929
  219MOL0     H28862   0.135   8.276   2.054 -1.3844  2.8646 -2.6033
  219MOL0     H28863   0.154   8.402   2.172 -2.0952  1.3522 -0.7872
  219MOL0     H28864   0.373   8.196   2.077 -1.3867 -1.2991  1.0883
  219MOL0     H28865   0.294   8.218   2.237 -3.6323  0.3959 -0.8929
  219MOL0     H28866   0.550   8.299   2.191 -0.1333  0.3624  1.2077
  219MOL0     H28867   0.481   8.410   2.084  0.3277  2.0249  1.6584
  219MOL0     H28868   0.369   8.415   2.370 -2.3712  2.4408 -0.6817
  219MOL0     H28869   0.365   8.539   2.264 -0.3203  0.0713  1.1273
  219MOL0     H28870   0.561   8.249   2.393  1.9909 -1.4758 -2.1421
  219MOL0     H28871   0.707   8.160   2.574  2.0631  0.0719  1.0377
  219MOL0     H28872   1.250   8.442   2.783  0.6424  2.0102  0.4660
  219MOL0     H28873   1.385   8.423   3.005  0.4319  0.2459 -1.5864
  219MOL0     H28874   1.367   8.113   3.195 -1.7660  0.8494 -0.6459
  219MOL0     H28875   1.260   8.131   3.326 -1.0173 -3.2217 -4.9762
  219MOL0     H28876   1.475   8.285   3.419 -1.2678  0.4344 -0.9953
  219MOL0     H28877   1.562   8.229   3.275  0.2378  0.5701  0.1554
  219MOL0     H28878   1.620   8.107   3.482  0.4070  0.4593  0.3083
  219MOL0     H28879   1.576   7.994   3.357 -1.5187  0.6718 -0.2961
  219MOL0     H28880   1.349   7.972   3.447  0.1699 -3.4215  0.7556
  219MOL0     H28881   1.490   7.921   3.547  1.6405  0.6685 -2.4714
  219MOL0     H28882   1.274   8.113   3.601  0.0293 -1.0416  0.3397
  219MOL0     H28883   1.428   8.186   3.634 -1.2781 -0.1766 -0.2775
  219MOL0     H28884   1.381   7.909   3.751 -0.0029 -0.1643  0.2823
  219MOL0     H28885   1.318   8.053   3.831 -0.1307 -0.5959  0.5490
  219MOL0     H28886   1.612   7.974   3.763 -3.8955 -3.0590 -0.8807
  219MOL0     H28887   1.571   8.148   3.780 -1.2254  0.3752 -1.1639
  219MOL0     H28888   1.481   8.100   4.007  0.5802  1.8976 -2.5119
  219MOL0     H28889   1.653   8.067   3.992  0.1237 -0.0164 -0.4339
  219MOL0     H28890   1.089   8.176   3.176 -0.4561 -1.5439 -1.0813
  219MOL0     H28891   0.936   8.228   2.971 -0.4806  2.0401 -1.4031
  219MOL0     H28892   0.890   8.540   2.628  0.5663  1.9719 -1.7806
  219MOL0     H28893   0.754   8.634   2.461  1.3841 -0.7611 -1.1252
  219MOL0     H28894   0.976   7.862   1.988  0.0268 -0.5810 -1.5352
  219MOL0     H28895   1.086   7.688   2.116 -0.4366 -1.3872 -0.0304
  219MOL0     H28896   1.237   7.248   2.113 -1.0038  0.5467 -2.7334
  219MOL0     H28897   1.371   7.057   2.157 -0.2140 -0.5033 -1.3894
  219MOL0     H28898   1.830   7.073   2.296  1.2594 -1.8756  0.0070
  219MOL0     H28899   1.820   7.104   2.133 -0.6693  0.4457 -0.8045
  219MOL0     H28900   1.742   6.845   2.122 -2.3955  3.8600 -1.4610
  219MOL0     H28901   1.905   6.897   2.105  0.3935  1.0236 -1.0762
  219MOL0     H28902   1.863   6.703   2.268  1.1137 -0.3523  1.7760
  219MOL0     H28903   1.768   6.808   2.368  1.1065 -1.4567  1.6450
  219MOL0     H28904   1.996   6.932   2.437  2.0299 -2.3035  2.4185
  219MOL0     H28905   1.989   6.755   2.454 -3.1628 -0.7050 -0.0370
  219MOL0     H28906   2.264   6.836   2.153 -0.8523  0.8003 -0.9364
  219MOL0     H28907   1.722   7.296   2.121 -0.1978  0.6942 -1.6348
  219MOL0     H28908   1.591   7.482   2.079 -0.0022  0.4862  0.4654
  220MOL0     O28909  10.526   8.775   4.760 -0.1944  0.9438 -0.3999
  220MOL0     C28910  10.441   8.819   4.828 -0.2089 -0.7611  0.5449
  220MOL0     O28911  10.426   8.954   4.859 -0.1184 -0.2026 -0.2100
  220MOL0     C28912  10.509   9.040   4.804  0.3032 -0.1990 -0.0993
  220MOL0     C28913  10.457   9.141   4.725  0.0039 -0.6956  1.0999
  220MOL0     C28914  10.540   9.255   4.694 -0.0227 -0.4465 -0.4093
  220MOL0     C28915  10.660   9.260   4.749  0.0751  0.3935 -0.1639
  220MOL0     O28916  10.733   9.367   4.717  0.0509  0.2473  0.7508
  220MOL0     C28917  10.840   9.353   4.620 -0.4338  0.7466 -0.6112
  220MOL0     C28918  10.954   9.454   4.651 -0.0267  0.0884 -0.1040
  220MOL0     C28919  11.039   9.481   4.527  0.1226 -0.9418 -0.0203
  220MOL0     C28920  11.092   9.619   4.519 -0.3202  0.0332  0.3100
  220MOL0     C28921  11.173   9.667   4.637  0.5941 -0.2463  1.3362
  220MOL0     C28922  11.200   9.817   4.628  0.4460 -0.0520  0.4688
  220MOL0     C28923  11.321   9.864   4.541 -0.4320 -0.4845  0.3451
  220MOL0     C28924  11.448   9.782   4.564 -0.6380  0.0229  0.5519
  220MOL0     N28925  11.570   9.857   4.516 -0.4784  0.5224  0.3176
  220MOL0     C28926  11.692   9.828   4.569  0.2541  1.1422  0.7949
  220MOL0     C28927  11.780   9.915   4.513 -0.8472  0.4056  0.0852
  220MOL0     C28928  11.927   9.940   4.530  0.0356  0.1454 -0.6474
  220MOL0     C28929  12.008   9.871   4.419 -0.3490 -0.0691 -0.3979
  220MOL0     C28930  11.998   9.720   4.420  0.4922  0.7503 -1.0456
  220MOL0     C28931  12.101   9.648   4.514  0.2090 -0.2039 -0.7583
  220MOL0     O28932  12.060   9.670   4.657 -0.5505  0.2648  0.0156
  220MOL0     C28933  11.943   9.618   4.711  0.2201 -0.0859 -0.0551
  220MOL0     C28934  11.907   9.670   4.833  0.3250 -0.4215  0.5159
  220MOL0     C28935  11.783   9.641   4.886 -0.1872  1.1244 -0.3959
  220MOL0     C28936  11.702   9.539   4.825 -0.9597  0.0071 -1.1749
  220MOL0     C28937  11.573   9.510   4.884  0.1891  0.4598  0.9518
  220MOL0     O28938  11.546   9.568   5.002  0.5346  0.0175  0.2486
  220MOL0     C28939  11.426   9.531   5.057  1.5367 -0.3200 -0.3225
  220MOL0     C28940  11.305   9.591   5.008  0.0930 -0.1499 -0.5170
  220MOL0     C28941  11.188   9.565   5.073  0.7819  0.2205  0.4936
  220MOL0     C28942  11.183   9.485   5.193  0.0522  0.2355  0.5898
  220MOL0     O28943  11.070   9.440   5.249  0.5657  0.3183  0.0180
  220MOL0     C28944  11.035   9.305   5.202  0.1902  0.1630 -0.0317
  220MOL0     C28945  10.906   9.324   5.125  0.0610  0.2211 -0.7875
  220MOL0     C28946  10.808   9.406   5.206 -0.5828 -1.0034  0.4620
  220MOL0     C28947  10.667   9.392   5.142 -0.4818  0.6271 -0.0779
  220MOL0     C28948  10.599   9.264   5.206 -0.0195 -0.9062  0.6276
  220MOL0     C28949  10.461   9.235   5.131  0.5042 -0.8622  0.4685
  220MOL0     C28950  10.399   9.093   5.154  0.2229 -0.6948  0.1754
  220MOL0     C28951  10.372   9.072   5.300 -0.3908  0.4662 -0.2065
  220MOL0    Cl28952  10.258   9.194   5.360 -0.3294  0.1395 -0.3198
  220MOL0     C28953  11.299   9.432   5.239 -0.1136  0.4339 -0.5066
  220MOL0     C28954  11.414   9.455   5.170  0.2147  0.9396 -0.2332
  220MOL0     O28955  11.500   9.430   4.824  0.2773 -0.7361 -0.6612
  220MOL0     C28956  11.749   9.464   4.713 -0.3115 -0.4967 -0.5895
  220MOL0     C28957  11.867   9.512   4.658  0.1105 -0.9226  0.7899
  220MOL0     N28958  11.701   9.997   4.432  0.1529 -0.8087  0.4525
  220MOL0     N28959  11.585   9.953   4.429  0.6391 -0.0679  0.3660
  220MOL0     C28960  10.725   9.158   4.824  0.7388  0.5512  0.7098
  220MOL0     C28961  10.642   9.042   4.849 -0.6407 -0.7237 -0.6318
  220MOL0     C28962  10.352   8.720   4.906 -0.5695 -0.1145  0.2413
  220MOL0     C28963  10.346   8.581   4.871  0.1871 -0.2349 -0.2657
  220MOL0     C28964  10.263   8.490   4.934  0.0385  0.1887  0.1875
  220MOL0     C28965  10.195   8.530   5.047  0.7831  0.0309  0.4866
  220MOL0     O28966  10.121   8.432   5.097 -0.3662  0.3374  0.9268
  220MOL0     C28967  10.029   8.470   5.197 -0.4931  0.3731 -0.1260
  220MOL0     C28968   9.962   8.350   5.258 -0.5063 -0.3523  1.2910
  220MOL0     C28969   9.869   8.405   5.372  0.4493  0.1791  0.3840
  220MOL0     C28970   9.825   8.277   5.441 -0.2245 -0.0434 -1.1459
  220MOL0     C28971   9.760   8.308   5.568 -0.7335 -0.1523  0.9955
  220MOL0     C28972   9.704   8.320   5.676 -0.1041 -0.4330 -0.0802
  220MOL0     C28973  10.201   8.666   5.093 -1.0526 -1.3076 -0.4949
  220MOL0     C28974  10.278   8.756   5.019  1.1030  0.2757  0.1167
  220MOL0     H28975  10.351   9.140   4.699 -0.0031  1.0691  0.9341
  220MOL0     H28976  10.507   9.351   4.655  1.7439  0.6678  0.6490
  220MOL0     H28977  10.801   9.372   4.520  0.0216  3.1995 -0.3934
  220MOL0     H28978  10.879   9.251   4.619  0.9054  1.2291 -0.2992
  220MOL0     H28979  11.016   9.413   4.731  0.9427 -0.8317 -1.2802
  220MOL0     H28980  10.909   9.550   4.678 -1.2563 -0.6393  0.4852
  220MOL0     H28981  10.988   9.461   4.432 -0.5532  2.1561 -0.4164
  220MOL0     H28982  11.114   9.403   4.537 -1.0593 -2.1867 -0.4136
  220MOL0     H28983  11.152   9.631   4.428 -1.3325  0.8123 -0.2675
  220MOL0     H28984  11.000   9.678   4.508  0.0102  0.5764  0.3885
  220MOL0     H28985  11.265   9.609   4.643  2.4225  2.2292 -0.7015
  220MOL0     H28986  11.114   9.647   4.727 -2.5553 -0.2014 -0.5490
  220MOL0     H28987  11.229   9.840   4.731  0.6959  0.0218  0.3819
  220MOL0     H28988  11.108   9.874   4.611 -0.5816 -1.4936  1.0044
  220MOL0     H28989  11.295   9.863   4.435  0.3455  0.7983  0.1335
  220MOL0     H28990  11.329   9.969   4.570 -2.8633 -0.8510  2.8318
  220MOL0     H28991  11.443   9.691   4.503  0.0168  1.3393 -1.5649
  220MOL0     H28992  11.471   9.757   4.667 -0.3084  0.7312  0.6578
  220MOL0     H28993  11.718   9.748   4.638  3.7952 -2.1176 -3.7142
  220MOL0     H28994  11.949   9.907   4.632  1.3439  1.4892 -0.4693
  220MOL0     H28995  11.946  10.047   4.519 -1.0684  0.5313  0.8015
  220MOL0     H28996  12.115   9.888   4.433 -0.1538 -1.7449  0.4024
  220MOL0     H28997  11.974   9.911   4.323 -0.9956 -1.8551 -0.9611
  220MOL0     H28998  11.897   9.686   4.444  1.8253 -2.1769  0.9429
  220MOL0     H28999  12.029   9.686   4.321  2.0509 -0.5091 -0.1718
  220MOL0     H29000  12.203   9.686   4.509  0.5220 -1.1155 -1.3211
  220MOL0     H29001  12.115   9.543   4.488  3.7151 -0.9031  2.9528
  220MOL0     H29002  11.976   9.739   4.880 -0.0659 -0.0502  0.5597
  220MOL0     H29003  11.749   9.679   4.982 -1.3812 -0.8941  0.0520
  220MOL0     H29004  11.315   9.655   4.921  1.3767  1.3747  0.6820
  220MOL0     H29005  11.096   9.611   5.036  2.2151  4.4553  1.5833
  220MOL0     H29006  11.014   9.235   5.284 -0.9630  1.0014  0.4209
  220MOL0     H29007  11.112   9.254   5.144 -0.5947  1.8958 -2.8223
  220MOL0     H29008  10.871   9.227   5.088  0.3270  0.3291 -1.3324
  220MOL0     H29009  10.933   9.380   5.035  3.8681 -0.0438 -0.0116
  220MOL0     H29010  10.841   9.510   5.196 -0.1854 -1.2672 -1.4485
  220MOL0     H29011  10.802   9.382   5.312 -1.6336  0.8847  0.8939
  220MOL0     H29012  10.620   9.486   5.174 -2.4923 -0.5939  0.7948
  220MOL0     H29013  10.656   9.368   5.036 -2.0907 -1.2045  0.4392
  220MOL0     H29014  10.584   9.289   5.311 -0.6173  3.0853 -0.2467
  220MOL0     H29015  10.677   9.188   5.206  0.4247 -0.4801 -0.4964
  220MOL0     H29016  10.489   9.232   5.025 -1.3288  0.4173 -0.0909
  220MOL0     H29017  10.390   9.318   5.136 -1.2174 -1.7682 -4.0477
  220MOL0     H29018  10.298   9.094   5.113 -1.2696  0.1827  3.5162
  220MOL0     H29019  10.464   9.012   5.121  2.1463 -0.0758  2.1710
  220MOL0     H29020  10.466   9.067   5.355  1.6202 -2.2126 -3.5077
  220MOL0     H29021  10.331   8.972   5.322  2.5281 -0.1138  3.5927
  220MOL0     H29022  11.315   9.387   5.337  1.8313  2.5943  0.2594
  220MOL0     H29023  11.499   9.413   5.223  0.1555 -2.9489 -2.7931
  220MOL0     H29024  11.694   9.384   4.664  1.7452 -3.0587  1.0728
  220MOL0     H29025  11.894   9.470   4.561  2.0956 -0.7553  1.2107
  220MOL0     H29026  10.823   9.173   4.867  2.4721  1.4991 -3.1646
  220MOL0     H29027  10.662   8.960   4.918 -0.6190 -0.4873 -0.3583
  220MOL0     H29028  10.399   8.549   4.782  0.9328 -1.0327  0.4503
  220MOL0     H29029  10.250   8.394   4.885  0.8629  0.2150 -0.0916
  220MOL0     H29030   9.957   8.547   5.167 -0.7942  0.3505  0.5332
  220MOL0     H29031  10.083   8.513   5.282 -0.5890  0.7518 -0.2570
  220MOL0     H29032   9.917   8.303   5.170 -1.7122  1.9851  0.5831
  220MOL0     H29033  10.036   8.283   5.303 -0.3464 -1.8812 -1.0822
  220MOL0     H29034   9.780   8.457   5.335  2.6989  3.0790 -1.4146
  220MOL0     H29035   9.913   8.481   5.436 -1.3221  0.6768  1.0858
  220MOL0     H29036   9.756   8.213   5.385 -0.5371 -0.8555  0.1284
  220MOL0     H29037   9.908   8.210   5.465 -1.3366 -0.7877  0.7784
  220MOL0     H29038   9.663   8.324   5.775 -1.1593 -0.8375 -0.4910
  220MOL0     H29039  10.141   8.703   5.175  0.3030  3.7267 -1.3892
  220MOL0     H29040  10.291   8.861   5.044  2.7050  0.1053  0.0915
  221MOL0     O29041   5.054   8.349   3.421 -0.9640  0.2165 -0.1148
  221MOL0     C29042   5.079   8.388   3.531  0.1475  0.4109  0.1615
  221MOL0     O29043   4.994   8.392   3.631  0.5784  0.0689 -0.3537
  221MOL0     C29044   4.864   8.351   3.617  0.5730  0.7641 -0.5717
  221MOL0     C29045   4.786   8.313   3.506 -0.1434  1.1386  0.1252
  221MOL0     C29046   4.663   8.240   3.538 -0.8459  0.9148  0.8849
  221MOL0     C29047   4.613   8.225   3.666 -0.7786  0.8778 -0.5471
  221MOL0     O29048   4.505   8.149   3.702  0.0447 -0.1893  0.0433
  221MOL0     C29049   4.502   8.018   3.651 -0.1445  0.4076  0.1760
  221MOL0     C29050   4.366   7.949   3.652  0.4582 -0.3093 -0.0251
  221MOL0     C29051   4.268   8.021   3.567  0.3290  0.3604 -0.1885
  221MOL0     C29052   4.296   8.000   3.417  0.1375  0.2507 -0.3701
  221MOL0     C29053   4.168   8.054   3.355  0.6425  0.2305  0.6294
  221MOL0     C29054   4.172   8.039   3.199  0.4584 -0.6817 -0.4983
  221MOL0     C29055   4.263   8.143   3.124 -0.2912  0.2249 -0.5412
  221MOL0     C29056   4.302   8.087   2.983 -0.4855  0.0115 -0.1415
  221MOL0     N29057   4.178   8.085   2.896  0.2160 -0.0474  0.8598
  221MOL0     C29058   4.149   8.184   2.798  0.3057 -0.6105  0.3371
  221MOL0     C29059   4.042   8.135   2.727 -0.4413  0.3770  0.4004
  221MOL0     C29060   3.989   8.201   2.605 -0.5652  0.3768  0.5729
  221MOL0     C29061   4.057   8.174   2.466 -0.3216  0.0967 -0.0083
  221MOL0     C29062   4.210   8.222   2.460  0.3238  0.4682 -0.4118
  221MOL0     C29063   4.272   8.236   2.314  0.1359  0.8544 -0.2551
  221MOL0     O29064   4.274   8.113   2.246  0.3089  0.5421  0.3459
  221MOL0     C29065   4.376   8.027   2.261 -0.7277 -0.0796 -0.6171
  221MOL0     C29066   4.511   8.059   2.270 -1.3372 -1.0531  0.7479
  221MOL0     C29067   4.617   7.967   2.272 -0.2032  0.2196  0.0792
  221MOL0     C29068   4.575   7.832   2.286 -0.3198  0.4473 -0.4793
  221MOL0     C29069   4.681   7.731   2.315 -0.4691 -1.0746 -0.9327
  221MOL0     O29070   4.792   7.783   2.384  0.0442  0.5535  0.2973
  221MOL0     C29071   4.896   7.698   2.420  0.7979 -0.0738  0.3179
  221MOL0     C29072   4.869   7.574   2.483  0.6667 -0.1980  0.2321
  221MOL0     C29073   4.974   7.507   2.555  0.4746 -0.3006  0.5001
  221MOL0     C29074   5.105   7.558   2.556  0.0489 -0.6618 -0.3646
  221MOL0     O29075   5.216   7.486   2.608 -0.2263  0.2131  0.4415
  221MOL0     C29076   5.299   7.398   2.526 -0.4556 -0.2707  0.6140
  221MOL0     C29077   5.448   7.400   2.559  1.0119  0.0168 -0.5363
  221MOL0     C29078   5.526   7.315   2.463 -0.1558  0.7536 -0.7816
  221MOL0     C29079   5.676   7.308   2.493  0.2763  0.1289 -0.0904
  221MOL0     C29080   5.753   7.259   2.370 -0.7552 -0.0206  0.4372
  221MOL0     C29081   5.895   7.223   2.397  0.2529 -0.6778  0.5698
  221MOL0     C29082   5.971   7.169   2.266  0.4146  0.0513 -0.1956
  221MOL0     C29083   6.060   7.054   2.300  1.1827  0.1943 -0.4153
  221MOL0    Cl29084   5.964   6.911   2.364 -0.0551 -0.5554 -0.0144
  221MOL0     C29085   5.130   7.679   2.479  0.7260 -0.4248  0.2892
  221MOL0     C29086   5.018   7.746   2.422 -0.2200  0.5517  0.4727
  221MOL0     O29087   4.663   7.611   2.303  0.0551 -0.6322 -0.2530
  221MOL0     C29088   4.446   7.792   2.291  0.3538  0.3750 -0.1827
  221MOL0     C29089   4.341   7.897   2.286 -0.6617 -0.1189  0.4649
  221MOL0     N29090   4.006   8.019   2.789 -0.2003 -0.8334 -0.0266
  221MOL0     N29091   4.085   7.990   2.887 -0.6351 -0.3070  0.1707
  221MOL0     C29092   4.674   8.287   3.770  0.5980 -0.4497  0.1993
  221MOL0     C29093   4.798   8.340   3.741  0.3816  0.3832 -0.8999
  221MOL0     C29094   5.214   8.436   3.548 -1.3238 -0.4387 -0.9202
  221MOL0     C29095   5.319   8.366   3.478  0.0532 -0.8361 -0.9005
  221MOL0     C29096   5.456   8.407   3.506 -0.4833 -0.0433 -0.6003
  221MOL0     C29097   5.487   8.525   3.582  0.9335 -0.1158  0.3091
  221MOL0     O29098   5.620   8.564   3.578 -0.4818 -0.8946  1.2961
  221MOL0     C29099   5.658   8.679   3.652  0.2769 -0.0747 -0.4208
  221MOL0     C29100   5.813   8.680   3.656 -0.5284  0.3501  0.9409
  221MOL0     C29101   5.865   8.823   3.665  0.6015  0.3650 -0.4108
  221MOL0     C29102   6.017   8.844   3.647  0.5468 -0.0586  0.0825
  221MOL0     C29103   6.063   8.953   3.733  0.1661  0.3018 -0.2052
  221MOL0     C29104   6.110   9.044   3.799  0.0846 -0.4107 -0.4267
  221MOL0     C29105   5.386   8.597   3.644  0.1933 -0.0940  0.6971
  221MOL0     C29106   5.257   8.547   3.628 -0.7172  0.2292  0.0006
  221MOL0     H29107   4.828   8.336   3.408  1.3311  0.9200  0.6721
  221MOL0     H29108   4.607   8.209   3.450 -1.6170 -2.4652  2.4085
  221MOL0     H29109   4.566   7.951   3.710  0.6862 -0.1521 -1.3298
  221MOL0     H29110   4.529   8.015   3.545  1.0177  0.8060  0.4394
  221MOL0     H29111   4.323   7.957   3.752 -1.7772  0.9213 -1.0216
  221MOL0     H29112   4.374   7.843   3.625 -0.8024 -0.1552 -1.1173
  221MOL0     H29113   4.250   8.123   3.601  1.2436  1.2533 -2.1981
  221MOL0     H29114   4.171   7.982   3.598 -1.3804  4.0835 -0.3886
  221MOL0     H29115   4.377   8.060   3.375  1.2146 -2.3467 -2.1904
  221MOL0     H29116   4.320   7.897   3.391 -1.2826  0.0035 -0.8135
  221MOL0     H29117   4.154   8.159   3.384 -1.5739  0.0093  0.5218
  221MOL0     H29118   4.087   7.993   3.396 -0.3892  1.8108  1.0589
  221MOL0     H29119   4.069   8.050   3.164  0.4134  0.9876  0.0543
  221MOL0     H29120   4.200   7.934   3.184 -1.3981 -1.9457  3.5590
  221MOL0     H29121   4.200   8.231   3.119 -0.2173  0.3411  0.3800
  221MOL0     H29122   4.357   8.154   3.179 -0.9522 -0.6045  0.8241
  221MOL0     H29123   4.338   7.985   3.002 -0.0184  0.5359  2.0746
  221MOL0     H29124   4.387   8.142   2.944 -1.6528  2.1935  0.2170
  221MOL0     H29125   4.210   8.272   2.779  0.9777 -1.1532 -0.0528
  221MOL0     H29126   3.982   8.310   2.615 -1.5596  0.2913  0.8726
  221MOL0     H29127   3.891   8.159   2.583  1.0583 -1.7557 -3.5957
  221MOL0     H29128   4.009   8.243   2.395 -1.9584 -1.3524 -0.3851
  221MOL0     H29129   4.053   8.070   2.434 -0.3485  0.7764 -2.3922
  221MOL0     H29130   4.217   8.321   2.506 -1.4255 -0.6670  2.5366
  221MOL0     H29131   4.266   8.153   2.522 -3.5723 -2.2241  0.4765
  221MOL0     H29132   4.371   8.283   2.313  0.8940 -0.4743  2.4708
  221MOL0     H29133   4.204   8.297   2.253 -0.6884  0.9316  0.7241
  221MOL0     H29134   4.535   8.164   2.258  0.2084 -1.7089 -3.5115
  221MOL0     H29135   4.723   7.983   2.259 -0.2287 -0.1743 -0.6842
  221MOL0     H29136   4.774   7.522   2.489  1.2245 -1.2070  0.3867
  221MOL0     H29137   4.974   7.410   2.604 -3.0031 -0.6059  0.1308
  221MOL0     H29138   5.288   7.431   2.422 -1.7877  3.0567  1.6734
  221MOL0     H29139   5.262   7.296   2.545 -2.2871 -0.0880 -1.5498
  221MOL0     H29140   5.474   7.375   2.662  4.0797  0.5026 -1.1122
  221MOL0     H29141   5.485   7.501   2.540 -1.8059  1.1775 -0.4220
  221MOL0     H29142   5.506   7.361   2.366  1.9214  2.9622 -0.2361
  221MOL0     H29143   5.490   7.212   2.451 -0.1199  0.7509 -0.8637
  221MOL0     H29144   5.718   7.405   2.520  0.3154  1.4425 -4.2326
  221MOL0     H29145   5.697   7.236   2.573 -1.9040  0.6352  1.0074
  221MOL0     H29146   5.757   7.344   2.302  0.8200  1.6983  2.5275
  221MOL0     H29147   5.720   7.165   2.325  1.6583  0.4352 -2.6322
  221MOL0     H29148   5.903   7.140   2.467  1.9066  1.5822  3.2709
  221MOL0     H29149   5.943   7.312   2.441  3.4827 -2.0559  0.1557
  221MOL0     H29150   5.900   7.147   2.186  1.0993  1.5246 -1.2546
  221MOL0     H29151   6.031   7.251   2.226  1.2763 -0.7615 -0.5942
  221MOL0     H29152   6.129   7.101   2.371  0.0997  1.4495 -0.1534
  221MOL0     H29153   6.111   7.021   2.209  3.5235 -1.5318  1.4005
  221MOL0     H29154   5.230   7.720   2.468 -0.3512  2.0731 -1.0037
  221MOL0     H29155   5.029   7.849   2.392 -1.6013  1.9556  4.1715
  221MOL0     H29156   4.413   7.692   2.320 -1.1815  1.0134  0.3923
  221MOL0     H29157   4.238   7.863   2.285  0.0883 -2.5889 -0.6367
  221MOL0     H29158   4.636   8.271   3.870  0.8406  4.3780  1.3212
  221MOL0     H29159   4.853   8.384   3.823 -1.5200 -1.7864  1.7336
  221MOL0     H29160   5.302   8.284   3.409  3.4332 -1.6273 -0.9821
  221MOL0     H29161   5.539   8.353   3.461 -0.2884 -1.1146  0.9228
  221MOL0     H29162   5.621   8.669   3.755 -1.8259 -3.9491 -1.3481
  221MOL0     H29163   5.608   8.759   3.598  1.0225  0.4643 -0.3294
  221MOL0     H29164   5.848   8.603   3.725 -1.7686 -2.1175 -0.9973
  221MOL0     H29165   5.856   8.631   3.568  0.6776 -1.3186  2.3819
  221MOL0     H29166   5.816   8.868   3.752 -1.3583 -1.0408 -0.7053
  221MOL0     H29167   5.819   8.872   3.579  1.9496  0.4026 -1.1254
  221MOL0     H29168   6.088   8.768   3.680  3.6987  2.8070  0.4812
  221MOL0     H29169   6.045   8.867   3.544  2.5056  0.6557  0.7383
  221MOL0     H29170   6.147   9.136   3.840 -0.8217 -0.9024  1.5811
  221MOL0     H29171   5.403   8.694   3.689  0.8609  0.1664 -0.0908
  221MOL0     H29172   5.184   8.607   3.681 -2.2724 -1.6145  0.0576
  222MOL0     O29173   8.524   6.874   2.859  0.4977 -0.3994  0.3800
  222MOL0     C29174   8.636   6.849   2.830 -0.3463  0.1739  0.2209
  222MOL0     O29175   8.747   6.871   2.909  0.3916 -1.0981  0.4292
  222MOL0     C29176   8.715   6.919   3.035  0.1423  0.3165 -0.0475
  222MOL0     C29177   8.762   7.050   3.058 -0.5169 -0.4816  0.3419
  222MOL0     C29178   8.751   7.110   3.190  0.1184 -0.1241 -0.6291
  222MOL0     C29179   8.698   7.041   3.296  0.1742 -0.6061 -0.5143
  222MOL0     O29180   8.705   7.102   3.414  0.2409  1.4347 -0.2175
  222MOL0     C29181   8.739   7.021   3.527  0.2266  0.5972  0.3490
  222MOL0     C29182   8.790   7.118   3.626  0.4885 -0.7579 -0.2223
  222MOL0     C29183   8.815   7.054   3.763 -0.5130  0.4666  0.7882
  222MOL0     C29184   8.839   7.167   3.868  0.9261  0.5995  0.0506
  222MOL0     C29185   8.980   7.226   3.868 -0.6414  0.0696  0.1946
  222MOL0     C29186   9.002   7.283   4.009  0.0634 -0.1266  0.3899
  222MOL0     C29187   9.128   7.374   4.017  0.3544  0.7301 -0.0799
  222MOL0     C29188   9.181   7.391   4.159  0.5445 -0.3530 -0.3582
  222MOL0     N29189   9.310   7.457   4.159 -0.0117  0.0071 -0.8579
  222MOL0     C29190   9.426   7.402   4.116 -0.7892 -0.3127  0.0090
  222MOL0     C29191   9.506   7.518   4.102  0.0772 -0.0502 -0.6940
  222MOL0     C29192   9.634   7.518   4.042 -0.0693  0.0252  0.3118
  222MOL0     C29193   9.755   7.596   4.101  0.2095  0.7832 -1.3270
  222MOL0     C29194   9.744   7.747   4.137  0.2379 -0.4419 -0.5706
  222MOL0     C29195   9.882   7.811   4.133 -0.7140 -0.6001 -0.1355
  222MOL0     O29196   9.873   7.942   4.199  0.5754  0.0284 -0.0461
  222MOL0     C29197   9.970   7.990   4.274  1.2037  0.0300  0.4105
  222MOL0     C29198   9.964   8.002   4.415 -0.0901  0.5250  0.2068
  222MOL0     C29199  10.057   8.080   4.489  0.5032 -0.6195  0.8052
  222MOL0     C29200  10.185   8.101   4.423 -0.0330 -0.4352 -0.4919
  222MOL0     C29201  10.294   8.164   4.498  0.8409 -0.4312 -0.5546
  222MOL0     O29202  10.411   8.175   4.418  0.6064  0.9834 -0.2796
  222MOL0     C29203  10.514   8.239   4.484  0.3179  0.6384  0.1097
  222MOL0     C29204  10.504   8.378   4.498  0.0674  0.3738  0.3377
  222MOL0     C29205  10.594   8.445   4.574  0.2800 -0.4430 -0.9983
  222MOL0     C29206  10.712   8.386   4.610  0.0463  0.1360  0.5064
  222MOL0     O29207  10.814   8.439   4.680 -0.1720  0.1315  0.2657
  222MOL0     C29208  10.837   8.585   4.698 -0.3629  0.9579  0.0808
  222MOL0     C29209  10.885   8.627   4.563  0.7305  0.3176 -0.9149
  222MOL0     C29210  10.925   8.777   4.553  0.6568 -0.2291  0.5683
  222MOL0     C29211  10.801   8.881   4.578 -0.3125  1.1299  0.1863
  222MOL0     C29212  10.699   8.882   4.458 -0.1685 -0.4180  0.0480
  222MOL0     C29213  10.757   8.934   4.331  0.3818 -0.6190 -0.8682
  222MOL0     C29214  10.781   9.089   4.325  0.0505 -0.1249  0.3049
  222MOL0     C29215  10.835   9.131   4.194  0.7741 -1.2303  1.5762
  222MOL0    Cl29216  10.876   9.307   4.186  0.4310 -0.1823  0.3446
  222MOL0     C29217  10.731   8.248   4.573 -0.0469 -0.1346  0.1532
  222MOL0     C29218  10.628   8.172   4.519 -0.5254  0.3594  0.6834
  222MOL0     O29219  10.284   8.205   4.614 -0.0927 -0.2689 -0.0144
  222MOL0     C29220  10.198   8.078   4.288  0.3378 -0.7548 -0.1643
  222MOL0     C29221  10.089   8.024   4.216 -0.0434  0.2300 -0.0940
  222MOL0     N29222   9.439   7.632   4.149  0.4601  0.9045  0.1053
  222MOL0     N29223   9.323   7.590   4.188  0.2032 -0.4537  0.3291
  222MOL0     C29224   8.636   6.916   3.266 -0.0102 -0.0198 -0.1455
  222MOL0     C29225   8.643   6.853   3.137  0.2334 -0.4665  0.7960
  222MOL0     C29226   8.658   6.789   2.698 -0.2988  0.1818  0.0576
  222MOL0     C29227   8.794   6.761   2.656  0.5818  0.2285  0.0539
  222MOL0     C29228   8.816   6.706   2.531  0.5654  0.3347  0.5650
  222MOL0     C29229   8.708   6.668   2.446 -1.0418 -0.8103  0.6352
  222MOL0     O29230   8.725   6.615   2.319  0.1640 -0.6785  0.1084
  222MOL0     C29231   8.854   6.566   2.287 -0.3374 -0.2256  0.1083
  222MOL0     C29232   8.859   6.507   2.142 -0.1218  0.1574  1.1717
  222MOL0     C29233   8.979   6.407   2.143  0.1865  0.1089  0.3224
  222MOL0     C29234   9.008   6.336   2.015 -0.0635 -0.6991  0.0163
  222MOL0     C29235   9.021   6.417   1.898  1.1776  0.0008 -0.5838
  222MOL0     C29236   9.023   6.485   1.804 -0.4213  0.0295 -0.1743
  222MOL0     C29237   8.579   6.691   2.490 -0.0655  0.0823 -0.8073
  222MOL0     C29238   8.556   6.755   2.611  0.4327  0.1393 -0.7019
  222MOL0     H29239   8.821   7.110   2.990  0.4987 -0.4121  1.2569
  222MOL0     H29240   8.815   7.197   3.195  1.7599 -1.2920 -0.4382
  222MOL0     H29241   8.801   6.934   3.505 -1.0753 -0.4933  0.8100
  222MOL0     H29242   8.643   6.988   3.570  0.0532  1.4538  0.6409
  222MOL0     H29243   8.715   7.195   3.645  1.1428 -0.0040 -0.6466
  222MOL0     H29244   8.883   7.162   3.589 -1.0157  0.4520 -2.9581
  222MOL0     H29245   8.895   6.979   3.760 -0.9969 -0.3654  4.4794
  222MOL0     H29246   8.716   7.010   3.775 -1.2282  0.3656 -3.5900
  222MOL0     H29247   8.762   7.240   3.843 -0.1081 -0.9390 -1.5802
  222MOL0     H29248   8.822   7.131   3.970 -3.0448 -0.4868 -0.8113
  222MOL0     H29249   8.998   7.295   3.785  2.2237 -0.7012  0.0689
  222MOL0     H29250   9.058   7.150   3.855 -1.1865 -0.1257 -2.8083
  222MOL0     H29251   8.998   7.203   4.084  0.0090  0.6766  1.2628
  222MOL0     H29252   8.914   7.344   4.034  0.7184  0.0923  2.4059
  222MOL0     H29253   9.206   7.326   3.958  0.7692 -0.6969  1.5398
  222MOL0     H29254   9.093   7.465   3.967  1.9661  0.8551 -1.0496
  222MOL0     H29255   9.193   7.289   4.197 -1.0852 -1.3345 -2.2362
  222MOL0     H29256   9.111   7.445   4.223  0.7962  1.0349 -1.2066
  222MOL0     H29257   9.442   7.301   4.079 -2.4484 -0.6640  0.1867
  222MOL0     H29258   9.628   7.552   3.938  2.5829  1.9298  0.6965
  222MOL0     H29259   9.653   7.411   4.033 -0.3725  0.0507 -0.7653
  222MOL0     H29260   9.837   7.577   4.031  1.2707  1.9935 -0.4636
  222MOL0     H29261   9.791   7.552   4.195 -0.1746  0.5789 -1.2749
  222MOL0     H29262   9.678   7.807   4.074  1.7175 -0.5824 -2.3641
  222MOL0     H29263   9.719   7.766   4.242  1.1501 -0.5230 -0.3318
  222MOL0     H29264   9.909   7.818   4.027 -2.1622 -1.0073 -0.5564
  222MOL0     H29265   9.955   7.750   4.187  1.4095  2.2329  0.4070
  222MOL0     H29266   9.884   7.958   4.474 -0.8680  2.4259  0.6315
  222MOL0     H29267  10.030   8.115   4.588  0.4789  2.9478 -0.3230
  222MOL0     H29268  10.411   8.419   4.461 -0.3148 -2.0983 -1.7299
  222MOL0     H29269  10.575   8.550   4.594  0.0918 -0.5187 -0.7745
  222MOL0     H29270  10.921   8.593   4.767 -0.0894  2.5471 -0.3898
  222MOL0     H29271  10.740   8.629   4.723 -1.4965 -0.5789 -1.3440
  222MOL0     H29272  10.798   8.611   4.498  0.4939  0.2262 -0.5810
  222MOL0     H29273  10.963   8.555   4.534 -0.9236 -1.8832 -0.1982
  222MOL0     H29274  10.962   8.796   4.452  0.7607 -2.1943  0.2066
  222MOL0     H29275  11.004   8.805   4.623  0.8090  1.4826 -0.2313
  222MOL0     H29276  10.754   8.856   4.673 -1.1839  1.7903 -0.0477
  222MOL0     H29277  10.838   8.984   4.581  0.8045  0.7273  0.4204
  222MOL0     H29278  10.609   8.941   4.479 -0.1825 -0.9658  1.6810
  222MOL0     H29279  10.653   8.785   4.437 -0.0056 -0.1838 -1.4656
  222MOL0     H29280  10.677   8.903   4.263  0.2587 -0.3173 -0.8604
  222MOL0     H29281  10.845   8.875   4.303  0.1028 -0.8084 -1.3577
  222MOL0     H29282  10.687   9.136   4.355  0.3537 -0.0154  1.1120
  222MOL0     H29283  10.870   9.109   4.386 -0.6875 -1.5486  1.9208
  222MOL0     H29284  10.768   9.097   4.114 -0.2191 -0.2108  1.9517
  222MOL0     H29285  10.929   9.080   4.170  0.4381 -1.1954  0.0426
  222MOL0     H29286  10.829   8.205   4.593  0.2112 -0.3173 -1.3678
  222MOL0     H29287  10.648   8.068   4.496  2.8385  1.7111 -4.3091
  222MOL0     H29288  10.277   8.125   4.231  0.1667 -0.4759 -0.1713
  222MOL0     H29289  10.113   7.994   4.115 -0.1685  2.7161 -0.9255
  222MOL0     H29290   8.581   6.875   3.350 -2.2286  0.8247 -1.1053
  222MOL0     H29291   8.591   6.764   3.103  1.6987 -0.2773 -2.3539
  222MOL0     H29292   8.875   6.773   2.727  0.4299  1.9602 -0.0183
  222MOL0     H29293   8.919   6.688   2.504  0.5310 -1.0444  1.2532
  222MOL0     H29294   8.893   6.501   2.366  1.7446  1.6952  0.7622
  222MOL0     H29295   8.919   6.654   2.284  0.2573 -0.6127 -3.6802
  222MOL0     H29296   8.763   6.463   2.115 -0.6787  1.4673  0.9312
  222MOL0     H29297   8.879   6.592   2.075 -2.0837  0.4109  0.8552
  222MOL0     H29298   8.953   6.328   2.215 -0.0625  0.1195  0.2480
  222MOL0     H29299   9.070   6.446   2.188 -0.9129  1.0270  1.8535
  222MOL0     H29300   9.101   6.281   2.029  1.2729  0.9852 -1.7965
  222MOL0     H29301   8.931   6.260   1.993 -0.4317 -1.6944  3.9576
  222MOL0     H29302   9.010   6.548   1.718  0.3257  1.1246  0.4866
  222MOL0     H29303   8.498   6.673   2.421 -0.5890 -1.4336  0.1694
  222MOL0     H29304   8.454   6.761   2.650  1.4151 -2.8006  2.9305
  223MOL0     O29305  11.135   7.108   8.382  0.2536 -0.4839  0.5704
  223MOL0     C29306  11.148   7.228   8.369  0.6603  0.0459 -0.1566
  223MOL0     O29307  11.209   7.307   8.453  0.3883 -0.5776  0.1291
  223MOL0     C29308  11.285   7.264   8.562 -0.3503  1.0922  0.6700
  223MOL0     C29309  11.397   7.336   8.577 -0.6676  0.1879 -0.5254
  223MOL0     C29310  11.490   7.309   8.681  0.5528  0.5901 -0.4393
  223MOL0     C29311  11.463   7.213   8.782 -0.5402  0.0549  1.2367
  223MOL0     O29312  11.546   7.184   8.888  0.9432 -0.8411 -0.6048
  223MOL0     C29313  11.684   7.213   8.885 -0.8271  0.6496 -0.3957
  223MOL0     C29314  11.722   7.345   8.953 -0.9629  0.7835 -0.0732
  223MOL0     C29315  11.869   7.367   8.958  0.4171  0.5917 -0.1598
  223MOL0     C29316  11.900   7.495   9.044  0.0682  0.1781 -0.0200
  223MOL0     C29317  12.047   7.519   9.070  0.4714 -0.3240  0.5510
  223MOL0     C29318  12.079   7.654   9.129  0.2147 -0.1876 -0.7324
  223MOL0     C29319  12.228   7.694   9.126 -0.3244 -0.4906 -0.8139
  223MOL0     C29320  12.261   7.842   9.180 -0.2239  0.2841  1.1095
  223MOL0     N29321  12.309   7.831   9.321  0.2673 -0.0118  0.2669
  223MOL0     C29322  12.232   7.809   9.435  0.0901 -0.3940 -0.5695
  223MOL0     C29323  12.324   7.782   9.533 -0.2654  0.1881 -0.3042
  223MOL0     C29324  12.283   7.725   9.662 -0.4746  0.0303 -0.7915
  223MOL0     C29325  12.168   7.797   9.731 -0.2712 -0.8122 -0.2393
  223MOL0     C29326  12.198   7.957   9.743 -0.6150  0.3886  0.3983
  223MOL0     C29327  12.307   8.004   9.850  0.5262 -0.6021 -0.8706
  223MOL0     O29328  12.341   8.139   9.809  1.0998  0.1154 -0.1806
  223MOL0     C29329  12.469   8.167   9.821 -0.2316 -0.7775  0.2362
  223MOL0     C29330  12.538   8.133   9.934  0.3028 -0.4657  0.0024
  223MOL0     C29331  12.673   8.169   9.958  0.1671  0.5337  0.2829
  223MOL0     C29332  12.734   8.234   9.846 -0.2811 -0.1752 -0.0520
  223MOL0     C29333  12.879   8.273   9.852  0.2101  0.5956  0.1462
  223MOL0     O29334  12.949   8.227   9.961  0.2197 -0.0958 -0.1289
  223MOL0     C29335  13.082   8.240   9.952 -0.5809  0.2006  0.1406
  223MOL0     C29336  13.163   8.126   9.914 -0.2403  0.1363  0.2115
  223MOL0     C29337  13.296   8.143   9.899  0.0423 -0.4402 -0.7715
  223MOL0     C29338  13.358   8.266   9.910 -0.4987 -0.1270  1.2110
  223MOL0     O29339  13.491   8.275   9.881 -0.2242  0.0627 -0.7273
  223MOL0     C29340  13.562   8.390   9.938  0.0245 -0.8570 -0.2774
  223MOL0     C29341  13.718   8.388   9.923 -0.2386  0.0534 -0.2115
  223MOL0     C29342  13.750   8.392   9.776 -0.4446  0.2251  0.8813
  223MOL0     C29343  13.891   8.449   9.744  0.1413  0.1513  0.9648
  223MOL0     C29344  13.911   8.450   9.592 -0.4243 -0.5041 -0.2114
  223MOL0     C29345  13.932   8.307   9.537  0.3600  0.0576 -0.7795
  223MOL0     C29346  14.030   8.316   9.421 -0.1646 -0.2003 -0.5884
  223MOL0     C29347  14.058   8.185   9.336 -0.7148  0.0809 -0.7789
  223MOL0    Cl29348  13.911   8.115   9.275  0.4305 -0.1927  0.0228
  223MOL0     C29349  13.279   8.381   9.955 -0.2017  0.7572 -0.3821
  223MOL0     C29350  13.139   8.364   9.971  0.6026  0.9374 -0.4912
  223MOL0     O29351  12.930   8.355   9.774  0.4270 -0.5135 -0.1860
  223MOL0     C29352  12.667   8.264   9.735  0.2936 -0.1622  0.5739
  223MOL0     C29353  12.535   8.248   9.730 -0.2781  0.0356  0.7347
  223MOL0     N29354  12.450   7.779   9.477  0.4355 -0.0242  0.3699
  223MOL0     N29355  12.437   7.805   9.354 -0.6255  0.5407 -0.0637
  223MOL0     C29356  11.350   7.125   8.749 -0.7539 -0.2118  0.7631
  223MOL0     C29357  11.263   7.147   8.645 -0.2527 -0.7068  0.0494
  223MOL0     C29358  11.092   7.281   8.247  0.3990 -0.2810  0.1570
  223MOL0     C29359  11.055   7.190   8.145 -0.1565 -0.1433  0.4691
  223MOL0     C29360  11.023   7.231   8.018 -0.5643 -0.1226 -0.0190
  223MOL0     C29361  11.019   7.371   7.987 -0.2441  0.4849 -0.6805
  223MOL0     O29362  10.979   7.398   7.861  0.2141 -0.5714  0.2096
  223MOL0     C29363  10.960   7.532   7.821  0.9033  0.2567  0.4739
  223MOL0     C29364  10.922   7.524   7.680 -0.0066  0.3442 -0.3812
  223MOL0     C29365  10.800   7.427   7.643 -1.0421  0.1653 -0.2298
  223MOL0     C29366  10.747   7.424   7.506 -0.9076  0.3276 -1.4108
  223MOL0     C29367  10.678   7.551   7.472 -0.3310 -0.3080 -0.2803
  223MOL0     C29368  10.630   7.663   7.465  0.5363  0.5119  0.5237
  223MOL0     C29369  11.037   7.465   8.101  0.1843  0.4396  0.3630
  223MOL0     C29370  11.082   7.420   8.226 -0.6398 -0.4544  0.8113
  223MOL0     H29371  11.414   7.407   8.497 -2.6173  2.5203  0.9784
  223MOL0     H29372  11.585   7.361   8.670  0.7336  0.9097  2.0447
  223MOL0     H29373  11.717   7.210   8.781  1.0686 -0.0353  0.1697
  223MOL0     H29374  11.742   7.141   8.945  0.0690  3.7421  2.8029
  223MOL0     H29375  11.680   7.339   9.054 -0.5127 -0.1913  0.0761
  223MOL0     H29376  11.671   7.428   8.905 -2.9672  0.0370  0.6435
  223MOL0     H29377  11.904   7.391   8.858 -0.4545  1.1403 -0.3467
  223MOL0     H29378  11.923   7.276   8.987 -1.8762 -0.6145  0.6526
  223MOL0     H29379  11.866   7.589   8.999  2.1021  1.0881  0.2206
  223MOL0     H29380  11.838   7.482   9.134  1.7482  1.0683  1.3169
  223MOL0     H29381  12.085   7.507   8.968 -0.8502 -1.2209  0.1354
  223MOL0     H29382  12.093   7.442   9.131  1.9414  1.1459  1.3734
  223MOL0     H29383  12.037   7.653   9.230 -3.1176  1.8705 -1.8963
  223MOL0     H29384  12.018   7.733   9.082  0.9495  1.5431  1.0629
  223MOL0     H29385  12.291   7.630   9.188  0.4679  1.1386  0.1233
  223MOL0     H29386  12.255   7.677   9.021  0.9798  0.0216 -0.5808
  223MOL0     H29387  12.176   7.911   9.184 -0.4889  0.1895 -1.3166
  223MOL0     H29388  12.343   7.874   9.116  0.2815 -0.3087  1.4493
  223MOL0     H29389  12.124   7.807   9.438 -0.0009  1.9064 -0.5625
  223MOL0     H29390  12.366   7.722   9.733 -2.0350 -1.9203  1.0519
  223MOL0     H29391  12.245   7.623   9.658 -0.3769  0.0160 -1.4752
  223MOL0     H29392  12.155   7.752   9.830 -0.6010  1.2337  0.7087
  223MOL0     H29393  12.071   7.779   9.685 -2.0740  0.6199  2.6590
  223MOL0     H29394  12.220   7.991   9.642  1.0144 -0.1121  0.5587
  223MOL0     H29395  12.105   8.009   9.767  0.1253  1.4124  1.1154
  223MOL0     H29396  12.394   7.938   9.837 -1.4323 -3.7307  0.6818
  223MOL0     H29397  12.266   7.993   9.950  2.9813  0.3681  0.3352
  223MOL0     H29398  12.484   8.065  10.000 -2.4927 -1.3203 -2.8683
  223MOL0     H29399  12.736   8.132  10.039  1.6300 -3.2820 -2.3234
  223MOL0     H29400  13.127   8.025   9.903  0.2031  0.0550 -0.5014
  223MOL0     H29401  13.347   8.062   9.849 -0.9636 -1.2157 -0.5957
  223MOL0     H29402  13.545   8.411  10.044 -2.5742 -0.7856 -0.6455
  223MOL0     H29403  13.532   8.482   9.887 -0.1909 -0.9581 -0.3332
  223MOL0     H29404  13.760   8.290   9.950 -1.1124  0.2690  2.1670
  223MOL0     H29405  13.750   8.476   9.980 -1.5844  1.6088 -1.7598
  223MOL0     H29406  13.677   8.454   9.724 -0.0997  0.1955  0.3532
  223MOL0     H29407  13.749   8.292   9.731 -0.9191  0.7657 -0.3701
  223MOL0     H29408  13.899   8.546   9.793 -2.7406  0.6220  0.6806
  223MOL0     H29409  13.974   8.383   9.770 -0.2576 -0.7154  0.1252
  223MOL0     H29410  13.999   8.512   9.568 -0.9695 -0.4316 -2.2548
  223MOL0     H29411  13.830   8.491   9.531  0.8611 -0.5254 -2.0389
  223MOL0     H29412  13.831   8.271   9.513  0.3840 -0.3371 -0.2941
  223MOL0     H29413  13.981   8.235   9.602 -0.1461  0.5874  0.2065
  223MOL0     H29414  13.996   8.394   9.352  1.6091  2.4360  1.3270
  223MOL0     H29415  14.127   8.337   9.466  0.9770 -0.5851 -2.7560
  223MOL0     H29416  14.110   8.110   9.396 -1.5893  0.5328  0.5766
  223MOL0     H29417  14.125   8.215   9.254 -1.2402  0.4538 -1.0823
  223MOL0     H29418  13.317   8.481   9.975 -0.0077  0.6341 -0.1199
  223MOL0     H29419  13.074   8.446  10.000  0.9726  1.8446 -2.1280
  223MOL0     H29420  12.701   8.336   9.662 -2.2788  0.0813 -0.4721
  223MOL0     H29421  12.491   8.288   9.640  2.8453  1.2490 -0.4088
  223MOL0     H29422  11.330   7.042   8.816  0.7301 -0.1620  1.3129
  223MOL0     H29423  11.174   7.088   8.625 -1.0788  0.9368 -1.4273
  223MOL0     H29424  11.064   7.082   8.153 -1.6650 -0.1508  3.5190
  223MOL0     H29425  10.988   7.157   7.947 -2.4619 -0.3941  1.1317
  223MOL0     H29426  11.052   7.589   7.831  2.0970 -0.7646 -3.1575
  223MOL0     H29427  10.871   7.566   7.874 -0.7865 -1.7439 -0.8755
  223MOL0     H29428  10.890   7.629   7.671  1.3366  0.8490  0.4492
  223MOL0     H29429  11.000   7.502   7.606 -0.6834 -0.0477 -0.9848
  223MOL0     H29430  10.724   7.453   7.716  1.8489  1.7539  2.4572
  223MOL0     H29431  10.832   7.325   7.667  3.8195  1.5329  0.1626
  223MOL0     H29432  10.828   7.399   7.437 -1.3747  1.3371 -2.3639
  223MOL0     H29433  10.675   7.342   7.505 -0.7602  0.1169  0.9542
  223MOL0     H29434  10.588   7.762   7.458  1.7495  0.9383 -1.6152
  223MOL0     H29435  11.035   7.570   8.075 -0.7590  0.3637  0.1025
  223MOL0     H29436  11.110   7.488   8.306  5.9312 -0.1572 -1.1621
  224MOL0     O29437   0.617   4.654   0.072 -0.4088  0.9396  0.1980
  224MOL0     C29438   0.688   4.577   0.143  0.4792 -0.4955  0.9897
  224MOL0     O29439   0.802   4.612   0.195 -0.4099  0.5395 -0.8323
  224MOL0     C29440   0.851   4.737   0.157 -0.7856  0.3751 -0.1831
  224MOL0     C29441   0.945   4.736   0.045  0.1480 -0.1806 -0.1612
  224MOL0     C29442   1.004   4.853  -0.004  0.1523 -0.1634 -0.1917
  224MOL0     C29443   0.985   4.975   0.061 -0.9455  0.0218 -0.7113
  224MOL0     O29444   1.040   5.087   0.006 -0.4113 -0.1134  0.5441
  224MOL0     C29445   1.054   5.200   0.093 -0.1463  0.2922  0.1777
  224MOL0     C29446   1.144   5.300   0.022  0.4564  0.5901 -0.4135
  224MOL0     C29447   1.296   5.256   0.029  0.5183 -0.3385  0.0332
  224MOL0     C29448   1.372   5.323  -0.087  0.2984  0.0624  0.4712
  224MOL0     C29449   1.358   5.475  -0.091  0.4033 -0.2381  0.0146
  224MOL0     C29450   1.418   5.540   0.038  0.5708 -0.6254  0.4827
  224MOL0     C29451   1.566   5.527   0.031 -0.2342 -0.6223  0.0941
  224MOL0     C29452   1.650   5.630   0.124 -0.3609  0.4363 -0.1265
  224MOL0     N29453   1.788   5.577   0.143 -0.3292  0.2511 -0.9561
  224MOL0     C29454   1.907   5.614   0.081  1.1037  0.3360 -0.9611
  224MOL0     C29455   2.009   5.558   0.154  0.6962  0.7232 -0.2919
  224MOL0     C29456   2.158   5.581   0.129  0.0723  0.0359 -0.4603
  224MOL0     C29457   2.228   5.497   0.018 -0.1947 -0.3154 -0.2205
  224MOL0     C29458   2.365   5.568  -0.006  0.6401 -0.7639 -0.4520
  224MOL0     C29459   2.440   5.482  -0.099 -0.1294 -0.4278  0.1803
  224MOL0     O29460   2.580   5.498  -0.085  0.2568  0.3677 -0.1711
  224MOL0     C29461   2.637   5.610  -0.132 -0.3993 -0.6798  1.1312
  224MOL0     C29462   2.573   5.713  -0.212  1.0313  0.5123  0.3035
  224MOL0     C29463   2.641   5.822  -0.267  1.1718  0.0665  1.2308
  224MOL0     C29464   2.775   5.834  -0.242 -0.1682  0.8905 -0.4439
  224MOL0     C29465   2.853   5.936  -0.317 -0.5588  0.0852  0.4097
  224MOL0     O29466   2.988   5.912  -0.335 -0.1502  0.4897  0.6080
  224MOL0     C29467   3.072   5.994  -0.395 -0.3929  0.3466 -1.4070
  224MOL0     C29468   3.075   6.133  -0.358  0.1934  0.3796 -0.2818
  224MOL0     C29469   3.163   6.219  -0.423 -0.2405 -0.1112 -0.0899
  224MOL0     C29470   3.247   6.177  -0.522 -0.6594 -1.4214  0.9233
  224MOL0     O29471   3.320   6.272  -0.588 -0.6374 -0.1864 -0.3805
  224MOL0     C29472   3.369   6.250  -0.718  0.4056 -0.1145 -0.1608
  224MOL0     C29473   3.399   6.388  -0.786  1.5891 -0.6019 -0.0651
  224MOL0     C29474   3.273   6.479  -0.798  0.1523  0.3872  0.1237
  224MOL0     C29475   3.321   6.614  -0.848  0.2388 -0.4599  0.2641
  224MOL0     C29476   3.243   6.688  -0.955  0.3173  0.2890 -0.6238
  224MOL0     C29477   3.304   6.822  -0.994 -0.1947 -0.7975 -0.6944
  224MOL0     C29478   3.214   6.903  -1.085  0.1003 -0.5969 -0.2737
  224MOL0     C29479   3.282   7.041  -1.111 -0.1123  0.3466  0.4368
  224MOL0    Cl29480   3.435   7.000  -1.199 -0.3830  0.1991  0.1573
  224MOL0     C29481   3.255   6.035  -0.553  0.4574 -0.1391  1.3147
  224MOL0     C29482   3.168   5.947  -0.487 -0.4617 -0.0282  0.4687
  224MOL0     O29483   2.796   6.034  -0.351  0.4571 -0.3055  0.1207
  224MOL0     C29484   2.841   5.738  -0.155  0.4436 -0.4138  0.5251
  224MOL0     C29485   2.771   5.623  -0.105  0.1270 -0.6564 -0.2648
  224MOL0     N29486   1.956   5.480   0.249 -0.1285 -0.1985  1.1599
  224MOL0     N29487   1.826   5.499   0.245  0.0726  0.2535 -0.4209
  224MOL0     C29488   0.886   4.983   0.169  0.2688  0.7425  0.6883
  224MOL0     C29489   0.818   4.869   0.209  0.3019 -0.9688  0.1428
  224MOL0     C29490   0.635   4.440   0.167  0.6687 -0.3580  1.4770
  224MOL0     C29491   0.712   4.340   0.233  0.6806 -0.0599 -1.2534
  224MOL0     C29492   0.651   4.206   0.254 -0.6456  0.0851 -0.1970
  224MOL0     C29493   0.517   4.190   0.228  0.1386 -0.1794  0.3804
  224MOL0     O29494   0.440   4.077   0.247 -0.1198  0.5630  0.5892
  224MOL0     C29495   0.498   3.965   0.305  0.0570  0.2931 -1.0623
  224MOL0     C29496   0.527   3.971   0.457  0.9856  0.1158 -0.7547
  224MOL0     C29497   0.596   3.844   0.497 -0.5085  0.9246  0.6518
  224MOL0     C29498   0.604   3.816   0.648  0.8796 -0.6424  0.6391
  224MOL0     C29499   0.482   3.764   0.710  0.9862  1.4824 -0.1769
  224MOL0     C29500   0.379   3.708   0.760 -0.1099 -0.8991  0.3538
  224MOL0     C29501   0.446   4.291   0.167  0.4131  0.2990 -0.3351
  224MOL0     C29502   0.496   4.420   0.139  1.0803 -0.2737  0.3682
  224MOL0     H29503   0.988   4.639   0.023  1.1683  0.5990 -1.8696
  224MOL0     H29504   1.072   4.851  -0.088  1.4706 -2.1335  0.8473
  224MOL0     H29505   1.086   5.170   0.193 -0.7364  0.8623  0.5435
  224MOL0     H29506   0.956   5.247   0.109 -0.5428 -0.5487  0.2818
  224MOL0     H29507   1.115   5.399   0.057 -0.5444  1.5104 -3.4668
  224MOL0     H29508   1.110   5.300  -0.082 -1.2710 -2.5145  0.0060
  224MOL0     H29509   1.311   5.152   0.001 -1.5088 -0.5700 -0.3484
  224MOL0     H29510   1.333   5.276   0.130 -0.3355  1.5615  0.0256
  224MOL0     H29511   1.478   5.298  -0.087  0.3699  0.0764  3.1243
  224MOL0     H29512   1.332   5.283  -0.181  1.8743  1.5142 -0.8732
  224MOL0     H29513   1.253   5.507  -0.099  0.1712 -0.5726  1.4084
  224MOL0     H29514   1.393   5.519  -0.185 -1.0823  1.2268  0.0851
  224MOL0     H29515   1.377   5.502   0.132 -2.2237  0.9338  0.0160
  224MOL0     H29516   1.390   5.645   0.048 -2.1776 -1.4593  2.8843
  224MOL0     H29517   1.600   5.430   0.068  0.9744  0.7648  2.8982
  224MOL0     H29518   1.609   5.536  -0.070  2.2667  2.8710  1.2569
  224MOL0     H29519   1.603   5.628   0.223 -1.4990  1.7023 -0.6194
  224MOL0     H29520   1.646   5.735   0.093  0.2476  0.5454  0.1348
  224MOL0     H29521   1.920   5.674  -0.009 -0.0327  0.6209 -0.9452
  224MOL0     H29522   2.205   5.545   0.221 -0.1650  0.1273 -0.3027
  224MOL0     H29523   2.168   5.688   0.109 -1.5615  0.2521 -0.2439
  224MOL0     H29524   2.163   5.491  -0.069  0.0233  1.5285 -0.5662
  224MOL0     H29525   2.244   5.397   0.059 -0.6573 -1.1482 -2.0036
  224MOL0     H29526   2.350   5.666  -0.053 -1.6619 -1.0785 -0.4949
  224MOL0     H29527   2.421   5.587   0.086  0.3013 -0.9620 -0.2016
  224MOL0     H29528   2.395   5.488  -0.198 -2.8112  0.7701  1.3827
  224MOL0     H29529   2.419   5.381  -0.064 -0.6999 -1.0179 -1.7700
  224MOL0     H29530   2.467   5.702  -0.232  1.5034 -0.8294 -1.7830
  224MOL0     H29531   2.589   5.890  -0.334  3.8380 -0.9313 -2.1382
  224MOL0     H29532   3.014   6.167  -0.276  1.4200  1.4001  0.2471
  224MOL0     H29533   3.172   6.322  -0.392  4.0455 -0.5660  0.8016
  224MOL0     H29534   3.301   6.194  -0.783  2.1392  1.4667 -3.6492
  224MOL0     H29535   3.466   6.200  -0.714  1.5032  1.9436  0.0811
  224MOL0     H29536   3.426   6.355  -0.887  0.8282 -1.5686  0.0260
  224MOL0     H29537   3.484   6.434  -0.736  3.4375 -1.1972 -2.4363
  224MOL0     H29538   3.221   6.502  -0.704  0.8023  0.7556  0.3997
  224MOL0     H29539   3.199   6.442  -0.870  1.0978  2.2956 -1.9316
  224MOL0     H29540   3.325   6.685  -0.765 -1.9290 -1.3860  1.2485
  224MOL0     H29541   3.425   6.617  -0.881  0.3493 -2.3299  0.3553
  224MOL0     H29542   3.145   6.702  -0.908  0.7612 -2.3789  1.3582
  224MOL0     H29543   3.230   6.627  -1.045 -0.5740 -1.1406  0.4223
  224MOL0     H29544   3.406   6.796  -1.021 -0.2090 -0.9898 -0.5653
  224MOL0     H29545   3.319   6.883  -0.904  0.0933 -2.6184  0.5325
  224MOL0     H29546   3.203   6.855  -1.182 -2.5226 -2.6053  0.8622
  224MOL0     H29547   3.115   6.909  -1.039  0.0532 -1.4846 -0.2350
  224MOL0     H29548   3.307   7.102  -1.024  1.8563  1.1376 -0.6221
  224MOL0     H29549   3.219   7.101  -1.177 -1.4457 -0.8189  0.5960
  224MOL0     H29550   3.320   5.996  -0.631 -0.3900 -0.5573  0.8055
  224MOL0     H29551   3.181   5.841  -0.501  1.0258  0.4993 -3.5583
  224MOL0     H29552   2.944   5.768  -0.141 -0.4359  3.4030  0.0249
  224MOL0     H29553   2.825   5.559  -0.036  2.8430  3.8691  2.3724
  224MOL0     H29554   0.868   5.073   0.227 -1.7622  1.7832 -1.3850
  224MOL0     H29555   0.753   4.865   0.296  0.1064  0.7312  0.1165
  224MOL0     H29556   0.819   4.359   0.240  0.8129 -0.9166 -0.7963
  224MOL0     H29557   0.710   4.126   0.298 -0.1300  0.6683  0.1907
  224MOL0     H29558   0.588   3.941   0.247  1.5838  3.4987 -0.2596
  224MOL0     H29559   0.415   3.894   0.295 -0.4213  0.8548 -1.1201
  224MOL0     H29560   0.586   4.057   0.490  2.3539 -1.6428  1.5811
  224MOL0     H29561   0.428   3.967   0.503  0.8868 -1.0924 -1.0518
  224MOL0     H29562   0.696   3.852   0.454 -1.8942  1.9394 -2.7213
  224MOL0     H29563   0.552   3.758   0.445 -0.2138  2.0037 -1.5174
  224MOL0     H29564   0.678   3.736   0.661  0.4451 -0.9512  1.2417
  224MOL0     H29565   0.647   3.903   0.698 -1.5011  1.9545 -1.5689
  224MOL0     H29566   0.298   3.676   0.822 -1.1870  2.1679  0.6683
  224MOL0     H29567   0.343   4.265   0.147 -0.3116  2.2731  0.5855
  224MOL0     H29568   0.433   4.489   0.084  0.1272 -1.5324 -0.1618
  225MOL0     O29569   7.490   8.204   0.323  0.0525  0.3332 -0.1091
  225MOL0     C29570   7.614   8.195   0.289  0.9287 -0.2830 -0.7436
  225MOL0     O29571   7.670   8.084   0.225 -0.8013  0.3804  0.2130
  225MOL0     C29572   7.591   7.990   0.167  0.4547  0.5176  0.8420
  225MOL0     C29573   7.540   8.003   0.043 -0.1115 -0.0566  0.5126
  225MOL0     C29574   7.465   7.899  -0.010 -0.5251  0.0959  0.7401
  225MOL0     C29575   7.431   7.786   0.062  0.5108 -0.0765  0.2756
  225MOL0     O29576   7.342   7.701   0.006 -0.2540 -0.4370 -0.9108
  225MOL0     C29577   7.383   7.567  -0.004 -1.3544  0.7682 -0.0567
  225MOL0     C29578   7.492   7.552  -0.115  0.3176 -0.9449  0.3876
  225MOL0     C29579   7.446   7.572  -0.261 -1.1478 -0.1052  0.0858
  225MOL0     C29580   7.364   7.451  -0.309  0.2963  0.2754  0.2158
  225MOL0     C29581   7.288   7.491  -0.431 -0.9680 -0.0751  0.2062
  225MOL0     C29582   7.188   7.373  -0.457 -0.9642  0.4590  0.8314
  225MOL0     C29583   7.073   7.414  -0.557 -0.1079 -0.4688 -0.4047
  225MOL0     C29584   7.123   7.450  -0.694 -0.6805  1.1439 -0.1649
  225MOL0     N29585   7.136   7.323  -0.770 -0.2216  0.4659  1.0293
  225MOL0     C29586   7.241   7.238  -0.786  0.2427 -0.2313  0.2933
  225MOL0     C29587   7.184   7.137  -0.855  0.4063 -0.2341  0.1364
  225MOL0     C29588   7.262   7.020  -0.899 -1.1550  0.6254 -0.4711
  225MOL0     C29589   7.298   6.917  -0.789  0.4072  0.9564  0.8589
  225MOL0     C29590   7.166   6.867  -0.728  0.2248 -0.0189 -0.2055
  225MOL0     C29591   7.064   6.793  -0.812  0.0753  0.6427 -0.4814
  225MOL0     O29592   7.141   6.731  -0.912  0.3283 -0.4246 -0.0566
  225MOL0     C29593   7.086   6.646  -1.016 -0.4241 -1.2424  0.7124
  225MOL0     C29594   6.957   6.662  -1.063  0.2111 -0.7500 -0.5014
  225MOL0     C29595   6.915   6.592  -1.171 -0.1409  0.8477 -0.2161
  225MOL0     C29596   6.997   6.496  -1.234 -0.0004 -0.0357 -0.1271
  225MOL0     C29597   6.948   6.409  -1.339  0.6461  0.0325  0.7114
  225MOL0     O29598   7.035   6.316  -1.400  0.0052  0.2695 -0.1196
  225MOL0     C29599   6.977   6.237  -1.498 -0.3181  0.4533 -0.3418
  225MOL0     C29600   7.013   6.265  -1.636 -0.1139  0.6641  0.3056
  225MOL0     C29601   6.969   6.179  -1.738 -0.7870  0.1588  0.6785
  225MOL0     C29602   6.911   6.053  -1.705 -0.5324 -0.8830  0.4480
  225MOL0     O29603   6.901   5.963  -1.815 -0.3419 -0.1439 -0.7836
  225MOL0     C29604   6.955   5.834  -1.797  0.3135  0.3008 -0.5603
  225MOL0     C29605   7.108   5.841  -1.762  0.1746  0.5767  0.0727
  225MOL0     C29606   7.204   5.914  -1.852 -0.8155 -0.8583  0.3689
  225MOL0     C29607   7.351   5.945  -1.783  0.9355 -0.8201 -0.4252
  225MOL0     C29608   7.442   5.823  -1.761  0.2863  0.0222  0.7357
  225MOL0     C29609   7.583   5.841  -1.716  0.3851  0.0794 -0.1192
  225MOL0     C29610   7.672   5.720  -1.675 -0.5107 -0.0523 -1.0716
  225MOL0     C29611   7.821   5.758  -1.658  0.0038  0.1506  0.4038
  225MOL0    Cl29612   7.849   5.883  -1.534  0.4558  0.1678 -0.1448
  225MOL0     C29613   6.879   6.023  -1.568 -0.9636  0.7060  0.2446
  225MOL0     C29614   6.907   6.118  -1.467 -0.2113 -0.2210  0.6565
  225MOL0     O29615   6.826   6.425  -1.372 -0.6311 -0.2834 -0.5176
  225MOL0     C29616   7.133   6.491  -1.197  0.3629 -0.0263 -0.2820
  225MOL0     C29617   7.169   6.558  -1.083 -0.0786 -0.1291  0.3001
  225MOL0     N29618   7.049   7.156  -0.877 -0.7867 -0.6441  0.3921
  225MOL0     N29619   7.020   7.274  -0.836 -0.0595 -0.4663 -0.5483
  225MOL0     C29620   7.489   7.770   0.183 -0.0240 -0.0717  0.3107
  225MOL0     C29621   7.572   7.865   0.236  0.9437 -0.2407  0.2009
  225MOL0     C29622   7.709   8.305   0.319 -0.1817 -0.9046 -0.1304
  225MOL0     C29623   7.671   8.403   0.413 -0.7448 -0.3105 -0.3071
  225MOL0     C29624   7.753   8.509   0.447 -0.9499 -0.7071  0.6154
  225MOL0     C29625   7.882   8.526   0.394 -0.2917 -0.4211  0.2107
  225MOL0     O29626   7.964   8.631   0.424  0.2496  0.4801  0.2303
  225MOL0     C29627   8.081   8.604   0.499  0.5251 -0.0359  0.8933
  225MOL0     C29628   8.108   8.708   0.602 -0.3696 -0.5876  0.5844
  225MOL0     C29629   8.025   8.682   0.726  0.3137 -0.4350  0.8209
  225MOL0     C29630   8.057   8.792   0.827  0.0207 -0.1573 -0.5684
  225MOL0     C29631   8.196   8.799   0.859  0.8322  0.2245 -0.4431
  225MOL0     C29632   8.314   8.801   0.883 -0.2294  0.5109  0.3447
  225MOL0     C29633   7.921   8.418   0.302 -1.4803 -0.4446  0.0213
  225MOL0     C29634   7.835   8.325   0.259  0.8586  1.0875  0.1427
  225MOL0     H29635   7.571   8.095  -0.005 -0.4084  0.1079  0.6368
  225MOL0     H29636   7.418   7.897  -0.108  0.3211  0.3536  0.3229
  225MOL0     H29637   7.297   7.507  -0.036 -0.1539 -0.2397 -1.5267
  225MOL0     H29638   7.428   7.511   0.079  2.4256 -0.2083 -2.5100
  225MOL0     H29639   7.532   7.451  -0.105 -2.7027 -2.4406 -1.2344
  225MOL0     H29640   7.568   7.629  -0.099 -0.0351 -0.7320  1.0667
  225MOL0     H29641   7.526   7.594  -0.332 -2.6846  2.3638 -1.0266
  225MOL0     H29642   7.380   7.659  -0.266 -0.0567  0.7193 -0.1248
  225MOL0     H29643   7.430   7.364  -0.318 -2.8593 -2.2576 -0.2030
  225MOL0     H29644   7.292   7.426  -0.230 -2.0519 -0.8184 -2.1341
  225MOL0     H29645   7.364   7.497  -0.510 -2.1338  1.8184 -0.8660
  225MOL0     H29646   7.237   7.587  -0.436 -2.1331 -0.7231 -2.0223
  225MOL0     H29647   7.143   7.332  -0.366 -0.9664 -3.0249 -0.5731
  225MOL0     H29648   7.240   7.282  -0.490 -0.8610  0.9207 -0.3305
  225MOL0     H29649   6.993   7.339  -0.558 -2.0376  1.4390 -2.6563
  225MOL0     H29650   7.033   7.512  -0.529 -0.4900 -0.6280 -0.3883
  225MOL0     H29651   7.223   7.494  -0.690  0.6692 -1.7860  2.4882
  225MOL0     H29652   7.053   7.527  -0.728 -1.3672  2.3657  3.6039
  225MOL0     H29653   7.342   7.241  -0.748  1.4946  1.6249 -2.7671
  225MOL0     H29654   7.355   7.062  -0.937 -0.1154  0.1940  1.4685
  225MOL0     H29655   7.209   6.968  -0.980  0.8034 -2.6590  0.1536
  225MOL0     H29656   7.361   6.966  -0.715 -1.1171  1.3588  1.9232
  225MOL0     H29657   7.356   6.831  -0.824 -1.2118  0.4509 -0.8047
  225MOL0     H29658   7.193   6.798  -0.647 -1.1487 -0.6680 -0.2726
  225MOL0     H29659   7.120   6.952  -0.677 -1.4442 -0.5323 -0.7855
  225MOL0     H29660   6.984   6.848  -0.863 -2.1904 -1.7343  0.2559
  225MOL0     H29661   7.011   6.719  -0.751  0.4812 -2.6335 -3.7140
  225MOL0     H29662   6.899   6.737  -1.009  1.5860  2.1278 -2.7326
  225MOL0     H29663   6.812   6.594  -1.204  0.5039 -0.9091 -2.5725
  225MOL0     H29664   7.068   6.358  -1.649  0.5463  0.1797 -0.4472
  225MOL0     H29665   6.980   6.224  -1.837 -1.1653  1.7339  1.3177
  225MOL0     H29666   6.946   5.771  -1.885 -1.0127  1.1166 -1.0488
  225MOL0     H29667   6.908   5.785  -1.711  1.5962 -0.9524 -0.5511
  225MOL0     H29668   7.141   5.743  -1.725 -2.2036  0.0216  0.8881
  225MOL0     H29669   7.103   5.904  -1.672 -2.5641 -1.5565  1.5805
  225MOL0     H29670   7.156   6.003  -1.894 -0.1169 -1.0090 -0.7996
  225MOL0     H29671   7.221   5.852  -1.941  1.1264 -1.2600  0.9686
  225MOL0     H29672   7.401   6.030  -1.830  1.1691 -1.2880 -1.0383
  225MOL0     H29673   7.315   5.968  -1.682  3.6177 -3.1376  1.1979
  225MOL0     H29674   7.432   5.764  -1.853 -0.8733  0.9730  0.2108
  225MOL0     H29675   7.389   5.762  -1.687 -0.3163  2.1642  2.1388
  225MOL0     H29676   7.586   5.899  -1.623  1.2318 -2.5976  1.6490
  225MOL0     H29677   7.631   5.897  -1.797  0.8540  2.1030  1.4579
  225MOL0     H29678   7.633   5.680  -1.581  0.7180  1.9930  0.3908
  225MOL0     H29679   7.658   5.634  -1.741  1.5616 -0.8465 -0.5526
  225MOL0     H29680   7.864   5.805  -1.747  2.9785 -0.7130  1.2758
  225MOL0     H29681   7.864   5.658  -1.645  0.0123  0.1443  0.3283
  225MOL0     H29682   6.835   5.930  -1.536 -1.7687  1.2493  0.7626
  225MOL0     H29683   6.889   6.085  -1.365 -0.0816  0.6638  0.9749
  225MOL0     H29684   7.205   6.418  -1.234  2.7358  1.1689  1.6791
  225MOL0     H29685   7.268   6.555  -1.038  0.3640  0.4682 -0.6122
  225MOL0     H29686   7.465   7.684   0.244 -0.8721 -0.0754 -0.0013
  225MOL0     H29687   7.613   7.846   0.335  1.4806 -1.1372 -0.1791
  225MOL0     H29688   7.576   8.395   0.465 -2.0388  3.3975 -1.7116
  225MOL0     H29689   7.731   8.583   0.524 -1.3204  1.1362 -1.1909
  225MOL0     H29690   8.162   8.606   0.425  0.8124  1.4634  1.2170
  225MOL0     H29691   8.091   8.503   0.540  4.5952 -1.0591 -1.9624
  225MOL0     H29692   8.217   8.704   0.613 -0.0569  1.4438 -1.0507
  225MOL0     H29693   8.097   8.805   0.551  0.5493 -0.7454  0.0595
  225MOL0     H29694   8.039   8.581   0.768 -0.7786 -0.7087  0.5416
  225MOL0     H29695   7.920   8.691   0.698  0.6653  2.6377  0.2166
  225MOL0     H29696   8.017   8.887   0.790 -0.4650 -0.6049 -1.2278
  225MOL0     H29697   7.998   8.780   0.919 -1.0287  1.3788 -0.9913
  225MOL0     H29698   8.418   8.808   0.909 -0.0957  1.7189 -0.4282
  225MOL0     H29699   8.025   8.417   0.270 -0.7057  1.6529  2.1461
  225MOL0     H29700   7.857   8.271   0.167 -3.0760 -0.8313  0.0991
  226MOL0     O29701   4.877   5.645   3.689 -0.1204 -0.4929 -0.0041
  226MOL0     C29702   4.834   5.682   3.581 -0.8427  0.1836 -1.2746
  226MOL0     O29703   4.754   5.611   3.509  0.0023  1.0368  0.2474
  226MOL0     C29704   4.713   5.490   3.563  0.3024  0.7525 -0.4425
  226MOL0     C29705   4.785   5.369   3.533 -0.4779 -1.1140  0.4946
  226MOL0     C29706   4.741   5.247   3.585  0.6164  0.2605 -0.4931
  226MOL0     C29707   4.620   5.241   3.666  0.3618  0.6421 -0.3066
  226MOL0     O29708   4.581   5.121   3.723  0.4881 -0.7194 -0.4225
  226MOL0     C29709   4.679   5.043   3.786  0.9866 -0.3741  0.3343
  226MOL0     C29710   4.600   4.946   3.879  0.0332 -0.1413  0.3289
  226MOL0     C29711   4.476   5.004   3.943  0.4031  0.0036  0.3020
  226MOL0     C29712   4.407   4.912   4.039  0.0501  0.3058  0.2424
  226MOL0     C29713   4.260   4.950   4.079 -0.8457 -0.6987  0.0601
  226MOL0     C29714   4.214   4.831   4.154 -0.3546 -0.3554 -0.3317
  226MOL0     C29715   4.067   4.831   4.204 -0.2911  0.4264 -0.6021
  226MOL0     C29716   4.010   4.690   4.226  0.8740 -0.6717  0.0002
  226MOL0     N29717   3.869   4.679   4.215 -0.0017  0.0679 -1.0600
  226MOL0     C29718   3.779   4.680   4.320 -0.1514  0.1745 -0.1908
  226MOL0     C29719   3.667   4.651   4.263  0.2807  0.0137 -0.7119
  226MOL0     C29720   3.541   4.647   4.340 -1.0352  0.5137 -0.1324
  226MOL0     C29721   3.466   4.509   4.301 -0.0025 -0.6979 -0.5634
  226MOL0     C29722   3.546   4.377   4.318 -0.2661 -0.3901  0.6667
  226MOL0     C29723   3.618   4.362   4.453  0.3104 -0.3116 -0.6925
  226MOL0     O29724   3.684   4.245   4.463  0.2338 -0.0711  0.4487
  226MOL0     C29725   3.810   4.232   4.407 -0.9880 -0.7428  0.0227
  226MOL0     C29726   3.882   4.336   4.338  0.5160 -0.3942 -0.2145
  226MOL0     C29727   4.011   4.318   4.293  0.5275  0.1403 -0.3728
  226MOL0     C29728   4.090   4.205   4.325  0.1139 -0.2674 -0.4462
  226MOL0     C29729   4.230   4.188   4.275  0.8574 -0.8764  0.7332
  226MOL0     O29730   4.285   4.287   4.196  0.0681  0.0221 -0.5073
  226MOL0     C29731   4.404   4.251   4.136 -0.4164 -0.2154  0.4267
  226MOL0     C29732   4.511   4.340   4.149  0.1804 -0.3741  0.4604
  226MOL0     C29733   4.635   4.307   4.095 -0.2809 -0.8200 -0.3026
  226MOL0     C29734   4.646   4.194   4.015  0.0783 -0.4418  0.3775
  226MOL0     O29735   4.762   4.172   3.942  0.5717  0.1006  0.1620
  226MOL0     C29736   4.875   4.117   4.003  0.0338  0.9656  0.5987
  226MOL0     C29737   4.907   3.981   3.923  0.1735  0.2961 -0.1479
  226MOL0     C29738   4.992   3.993   3.801 -0.5280  0.4970  0.6295
  226MOL0     C29739   5.138   4.017   3.828 -0.8167 -0.4267  0.2083
  226MOL0     C29740   5.223   4.054   3.704  0.2721  0.1971  0.4252
  226MOL0     C29741   5.374   4.067   3.746  0.0743 -0.2494 -0.5137
  226MOL0     C29742   5.468   4.108   3.630  0.4261  0.3526  0.0338
  226MOL0     C29743   5.615   4.103   3.668  0.3906 -0.6639  0.3253
  226MOL0    Cl29744   5.643   4.227   3.805 -0.4271  0.2376  0.1666
  226MOL0     C29745   4.539   4.104   4.003 -0.4248 -0.3829  0.0813
  226MOL0     C29746   4.416   4.137   4.056  0.3617 -0.5692 -0.1493
  226MOL0     O29747   4.291   4.088   4.319  0.5368 -0.2083  0.6294
  226MOL0     C29748   4.018   4.102   4.399  0.2705  0.4573  1.1273
  226MOL0     C29749   3.884   4.121   4.437  0.0580 -0.1947  0.6037
  226MOL0     N29750   3.684   4.625   4.134 -0.2766 -0.2544  0.0175
  226MOL0     N29751   3.809   4.654   4.102  0.0260 -0.1190 -0.3368
  226MOL0     C29752   4.549   5.360   3.692  0.7310  0.0296  1.1006
  226MOL0     C29753   4.592   5.483   3.642  0.6099 -0.2907 -0.4950
  226MOL0     C29754   4.874   5.815   3.527 -0.2647  0.6307 -0.6375
  226MOL0     C29755   4.972   5.887   3.596 -0.1525  0.0261 -1.0498
  226MOL0     C29756   4.995   6.014   3.549  0.4389 -0.4566  0.5528
  226MOL0     C29757   4.913   6.074   3.447  0.4370  0.3107  0.0767
  226MOL0     O29758   4.935   6.202   3.406  0.3834  0.5288  0.4548
  226MOL0     C29759   5.004   6.214   3.283 -0.2506  0.1253  0.4947
  226MOL0     C29760   5.153   6.172   3.274  0.2014 -0.2810 -0.3609
  226MOL0     C29761   5.198   6.105   3.138 -0.9735  0.2299  0.5063
  226MOL0     C29762   5.195   6.212   3.028 -1.0179  1.2363 -0.1957
  226MOL0     C29763   5.234   6.153   2.898 -0.2759  0.4012 -0.9947
  226MOL0     C29764   5.268   6.096   2.795  0.2540 -0.7117  0.3548
  226MOL0     C29765   4.811   5.997   3.382 -0.9175 -0.0290  0.5636
  226MOL0     C29766   4.796   5.869   3.422  0.2054  1.0631 -0.6357
  226MOL0     H29767   4.873   5.376   3.470  0.7881  1.8834  2.3947
  226MOL0     H29768   4.799   5.159   3.558  2.3530  0.9531  0.7928
  226MOL0     H29769   4.751   5.106   3.839  1.6094  0.0527 -0.9962
  226MOL0     H29770   4.737   4.987   3.713 -1.9426 -1.7669 -1.0935
  226MOL0     H29771   4.662   4.899   3.956 -1.1452 -1.9996  0.2129
  226MOL0     H29772   4.566   4.861   3.819  1.9028 -0.0833 -0.9123
  226MOL0     H29773   4.413   5.049   3.866  2.8727  3.7466  0.1906
  226MOL0     H29774   4.509   5.093   3.996  0.2050  1.2892 -1.6280
  226MOL0     H29775   4.402   4.813   3.993 -0.7239 -0.3711  1.7125
  226MOL0     H29776   4.469   4.898   4.128 -0.8665  1.2460  1.0566
  226MOL0     H29777   4.217   4.962   3.979 -3.1820 -3.4979  0.5988
  226MOL0     H29778   4.255   5.042   4.137 -2.2008 -0.3803 -0.5254
  226MOL0     H29779   4.281   4.818   4.240  1.1252  0.9523 -1.2184
  226MOL0     H29780   4.223   4.748   4.084  0.2048 -0.4546 -0.1511
  226MOL0     H29781   4.069   4.875   4.304  2.0037 -3.0234  1.0934
  226MOL0     H29782   4.005   4.889   4.136 -0.4878 -0.4472 -1.1771
  226MOL0     H29783   4.043   4.660   4.326  1.3787 -0.9630 -0.2494
  226MOL0     H29784   4.056   4.625   4.151  4.0904  0.4391  0.8322
  226MOL0     H29785   3.804   4.683   4.425  1.3313  1.3096 -0.5461
  226MOL0     H29786   3.470   4.727   4.318  0.7120  1.8262 -1.3004
  226MOL0     H29787   3.559   4.655   4.448  1.2831  0.1218 -0.4393
  226MOL0     H29788   3.430   4.511   4.198  5.0706  1.9739 -2.6867
  226MOL0     H29789   3.382   4.516   4.371  1.2947  1.3128  0.9274
  226MOL0     H29790   3.475   4.295   4.302 -0.9279  0.8462 -4.5233
  226MOL0     H29791   3.611   4.366   4.231 -1.9649 -3.8448 -0.3675
  226MOL0     H29792   3.541   4.375   4.530  0.4962 -0.7421 -0.4304
  226MOL0     H29793   3.694   4.439   4.466  1.6031 -1.9704  2.6227
  226MOL0     H29794   3.831   4.423   4.299  1.5709  0.8678  1.1226
  226MOL0     H29795   4.050   4.395   4.227  0.3355  0.0414 -0.6017
  226MOL0     H29796   4.491   4.423   4.216 -0.6654 -1.3201  1.4007
  226MOL0     H29797   4.714   4.381   4.104 -0.8950 -0.1517 -0.3762
  226MOL0     H29798   4.858   4.102   4.110 -0.8520  1.0788  0.4799
  226MOL0     H29799   4.953   4.192   3.987 -0.0996  0.8869 -0.5615
  226MOL0     H29800   4.809   3.941   3.896  0.2701 -0.1149  0.0905
  226MOL0     H29801   4.945   3.918   4.004  0.1012 -0.5326 -0.7391
  226MOL0     H29802   4.955   4.083   3.752  0.7957  2.3583  2.8857
  226MOL0     H29803   4.967   3.909   3.734  2.0921  0.9292 -1.0401
  226MOL0     H29804   5.137   4.095   3.904  0.9895 -0.7821  0.6436
  226MOL0     H29805   5.188   3.927   3.867 -0.6329 -1.0187 -1.3219
  226MOL0     H29806   5.175   4.147   3.672 -1.2971 -0.7678 -0.1450
  226MOL0     H29807   5.217   3.980   3.624  0.6917  1.0514 -0.4202
  226MOL0     H29808   5.409   3.976   3.794  4.6452  1.7682  0.5184
  226MOL0     H29809   5.382   4.145   3.823 -0.6105 -0.2259 -0.4619
  226MOL0     H29810   5.456   4.038   3.546 -2.8377 -0.1978  0.8529
  226MOL0     H29811   5.438   4.206   3.593 -2.9938 -0.4221  0.4601
  226MOL0     H29812   5.673   4.115   3.576 -2.7947 -0.5949 -1.8499
  226MOL0     H29813   5.657   4.010   3.706  0.9135 -0.7782 -0.4992
  226MOL0     H29814   4.558   4.022   3.934  1.3341 -1.6339  1.9403
  226MOL0     H29815   4.338   4.062   4.044  2.1831 -2.4059 -1.1847
  226MOL0     H29816   4.066   4.006   4.413  0.6361  0.5454  0.4833
  226MOL0     H29817   3.826   4.048   4.493 -0.5859 -0.1852 -0.0320
  226MOL0     H29818   4.450   5.360   3.737  0.2786 -1.5612  0.2134
  226MOL0     H29819   4.534   5.573   3.658  0.2204 -0.1991 -2.2046
  226MOL0     H29820   5.028   5.839   3.676  1.4704  2.2610 -0.7258
  226MOL0     H29821   5.064   6.080   3.601  0.1460 -1.3673  2.1849
  226MOL0     H29822   5.002   6.321   3.261 -0.6722  0.5059  2.2131
  226MOL0     H29823   4.955   6.154   3.206 -0.0613 -0.1343  0.5740
  226MOL0     H29824   5.214   6.261   3.294 -0.0834  0.1738 -1.4428
  226MOL0     H29825   5.171   6.107   3.360  1.0135  0.0481 -0.2628
  226MOL0     H29826   5.122   6.031   3.109 -0.9074  1.0835 -2.1066
  226MOL0     H29827   5.292   6.051   3.132 -2.5970 -2.6744 -0.6786
  226MOL0     H29828   5.089   6.239   3.028 -1.2234  0.5911  1.5896
  226MOL0     H29829   5.253   6.303   3.050 -0.5270  0.6357  1.1150
  226MOL0     H29830   5.301   6.054   2.702  1.5912  0.4003  0.2827
  226MOL0     H29831   4.747   6.033   3.302 -1.1738 -0.6004  0.5032
  226MOL0     H29832   4.720   5.812   3.370  1.4927 -1.1804 -0.2011
  227MOL0     O29833   7.337   2.672   5.082  0.0092 -0.6056  0.0015
  227MOL0     C29834   7.411   2.753   5.144  0.1577 -0.3221  0.6927
  227MOL0     O29835   7.380   2.849   5.233  0.0332 -0.4771 -0.2761
  227MOL0     C29836   7.250   2.865   5.267 -0.2506 -0.7020  0.0564
  227MOL0     C29837   7.178   2.984   5.238  0.1469 -0.3737  0.3986
  227MOL0     C29838   7.051   3.011   5.297 -0.3078 -0.2864  0.4051
  227MOL0     C29839   6.991   2.911   5.379  0.8753  0.0119 -0.8342
  227MOL0     O29840   6.866   2.945   5.413  0.1771 -0.9141 -0.1155
  227MOL0     C29841   6.778   2.867   5.487 -0.2553  0.3036 -0.2142
  227MOL0     C29842   6.655   2.949   5.522 -0.3292 -0.4895  1.2098
  227MOL0     C29843   6.561   2.981   5.400 -0.1877  0.0036 -0.0846
  227MOL0     C29844   6.427   3.051   5.465 -0.1191  0.5945  0.2692
  227MOL0     C29845   6.302   2.983   5.419  0.4287 -0.5221  0.6942
  227MOL0     C29846   6.199   3.013   5.526 -0.2714  0.2590  0.6625
  227MOL0     C29847   6.069   2.944   5.471  0.0693  0.1411 -0.5585
  227MOL0     C29848   5.945   2.972   5.557 -0.0548 -0.2933  0.1198
  227MOL0     N29849   5.829   2.892   5.519  0.0718  0.1274 -0.5980
  227MOL0     C29850   5.760   2.809   5.596  0.6831  0.7538  0.7738
  227MOL0     C29851   5.663   2.755   5.517  0.5403  0.0426  0.9047
  227MOL0     C29852   5.556   2.667   5.571  0.8119  0.0114  0.4586
  227MOL0     C29853   5.412   2.727   5.553 -0.9229  0.4312 -0.4437
  227MOL0     C29854   5.315   2.657   5.642  0.1845  0.1235 -0.0183
  227MOL0     C29855   5.175   2.693   5.598  0.0009  0.6210 -0.0700
  227MOL0     O29856   5.074   2.606   5.656 -0.7612  0.0582  0.5589
  227MOL0     C29857   4.944   2.668   5.673 -0.4466  0.1336  0.5521
  227MOL0     C29858   4.892   2.771   5.590 -0.6111  1.0390 -0.3007
  227MOL0     C29859   4.767   2.817   5.613 -0.4386 -0.9478 -0.2916
  227MOL0     C29860   4.684   2.766   5.713 -0.4545  0.0143  0.3273
  227MOL0     C29861   4.553   2.826   5.739 -0.5447 -0.1345  0.1006
  227MOL0     O29862   4.520   2.940   5.653  0.6500 -0.5352 -0.0825
  227MOL0     C29863   4.382   2.967   5.655  0.4422  0.0547 -0.1533
  227MOL0     C29864   4.314   2.964   5.537 -0.3813  0.1166  0.1235
  227MOL0     C29865   4.176   2.987   5.515 -0.6862 -0.4432 -0.1960
  227MOL0     C29866   4.101   3.022   5.631  0.6219 -0.0876  0.4361
  227MOL0     O29867   3.963   3.025   5.614  0.1270  0.0059  0.0381
  227MOL0     C29868   3.893   2.994   5.488 -1.0950  0.7205 -0.5223
  227MOL0     C29869   3.756   3.020   5.523  0.0537  0.7149  0.7387
  227MOL0     C29870   3.659   3.044   5.406  0.5515  0.3181 -0.2858
  227MOL0     C29871   3.514   3.033   5.433 -0.1808  0.3656  0.4919
  227MOL0     C29872   3.476   2.887   5.457 -0.5502 -0.6574 -0.0541
  227MOL0     C29873   3.332   2.842   5.418  0.1571  0.1079  0.2862
  227MOL0     C29874   3.225   2.952   5.449 -0.1559  1.0687  0.2526
  227MOL0     C29875   3.090   2.895   5.479 -0.1947 -0.0030  0.3123
  227MOL0    Cl29876   3.101   2.808   5.641  0.5413 -1.1781  0.0730
  227MOL0     C29877   4.156   3.038   5.755 -0.6081 -0.2055 -0.6520
  227MOL0     C29878   4.306   3.015   5.769  0.5059 -0.5079  0.7684
  227MOL0     O29879   4.475   2.763   5.812 -0.3145  0.2016  0.1347
  227MOL0     C29880   4.727   2.655   5.776  0.3696 -0.0722 -0.5077
  227MOL0     C29881   4.856   2.596   5.760 -0.0853  1.0533  0.6978
  227MOL0     N29882   5.686   2.802   5.388  0.5266  0.5101 -0.4570
  227MOL0     N29883   5.784   2.884   5.383  0.1371 -0.4162 -0.2584
  227MOL0     C29884   7.055   2.787   5.383  0.3209  0.0152  0.2830
  227MOL0     C29885   7.180   2.765   5.334 -0.3434  0.2177  0.2140
  227MOL0     C29886   7.558   2.753   5.118 -0.1747 -1.3687  0.3225
  227MOL0     C29887   7.608   2.702   4.999 -0.2296 -0.3246  0.2832
  227MOL0     C29888   7.747   2.715   4.959  0.4512  0.5588 -0.1527
  227MOL0     C29889   7.835   2.762   5.058 -0.7951  0.7740 -0.3726
  227MOL0     O29890   7.970   2.748   5.029 -0.5740 -0.1399  0.2883
  227MOL0     C29891   8.078   2.824   5.106 -0.3280  0.0354 -0.0070
  227MOL0     C29892   8.219   2.783   5.051  0.0263  0.2657  0.9698
  227MOL0     C29893   8.249   2.630   5.045  0.5738 -0.4209 -0.0415
  227MOL0     C29894   8.401   2.605   5.021  0.1068 -0.3855  0.8977
  227MOL0     C29895   8.487   2.606   5.137 -0.0718  0.3802 -0.2393
  227MOL0     C29896   8.563   2.578   5.240 -0.4355 -0.0913 -0.5039
  227MOL0     C29897   7.781   2.829   5.168 -0.0043 -0.0411 -0.4263
  227MOL0     C29898   7.647   2.816   5.212 -0.3535 -0.1652  0.1323
  227MOL0     H29899   7.222   3.067   5.183 -0.3433 -0.0920  0.4241
  227MOL0     H29900   7.005   3.110   5.294  1.1202  0.6390  3.7297
  227MOL0     H29901   6.835   2.830   5.573  1.0007  0.8106 -0.8060
  227MOL0     H29902   6.748   2.782   5.425  2.0299 -0.3796 -0.4660
  227MOL0     H29903   6.695   3.043   5.561  2.3381 -1.5110  1.0798
  227MOL0     H29904   6.593   2.898   5.596 -1.4463 -2.1045 -0.7325
  227MOL0     H29905   6.532   2.894   5.342 -0.8755 -0.0740  0.3569
  227MOL0     H29906   6.627   3.045   5.342  1.0300  2.4920  3.6563
  227MOL0     H29907   6.428   3.055   5.574 -2.5350  0.1971  0.3444
  227MOL0     H29908   6.429   3.155   5.431  1.6038  0.7625  0.7763
  227MOL0     H29909   6.322   2.875   5.418 -2.0851 -1.1236  2.9494
  227MOL0     H29910   6.284   3.016   5.317 -2.3002  0.8671  1.5226
  227MOL0     H29911   6.194   3.121   5.538  1.1675  0.6086 -1.4877
  227MOL0     H29912   6.219   2.972   5.626  3.0174  1.5707  0.6470
  227MOL0     H29913   6.062   2.985   5.370  2.2225 -1.3573 -1.3986
  227MOL0     H29914   6.088   2.836   5.474  3.3601  0.4673 -2.9870
  227MOL0     H29915   5.912   3.077   5.553  1.7240  0.2566 -2.3685
  227MOL0     H29916   5.976   2.952   5.660  0.6187  2.6261  0.5725
  227MOL0     H29917   5.778   2.793   5.702  1.5034 -2.6169  0.2343
  227MOL0     H29918   5.569   2.646   5.677 -0.4613 -0.5528  0.5273
  227MOL0     H29919   5.561   2.568   5.524  3.1246 -0.7745  2.1786
  227MOL0     H29920   5.384   2.737   5.448  0.5574 -0.3794 -0.9428
  227MOL0     H29921   5.431   2.830   5.584  3.6748  0.3463 -2.2556
  227MOL0     H29922   5.314   2.549   5.625 -0.1954  0.3878 -1.8195
  227MOL0     H29923   5.337   2.682   5.747  3.3061  1.3599 -0.8500
  227MOL0     H29924   5.160   2.688   5.489 -1.7205  0.7243  0.1366
  227MOL0     H29925   5.161   2.796   5.632 -2.7398  0.3999 -0.2741
  227MOL0     H29926   4.952   2.820   5.513  2.5274 -0.6947  0.8648
  227MOL0     H29927   4.738   2.897   5.547 -1.3360  0.6071  1.8742
  227MOL0     H29928   4.370   2.936   5.449  1.5382  4.9956 -0.5625
  227MOL0     H29929   4.143   3.003   5.413 -0.1221 -0.4150 -0.3725
  227MOL0     H29930   3.913   2.893   5.451  1.3865  0.8470  0.2852
  227MOL0     H29931   3.942   3.064   5.420  3.2787  1.2338  2.6561
  227MOL0     H29932   3.760   3.107   5.589  3.8538  1.6004 -0.4384
  227MOL0     H29933   3.722   2.930   5.574  3.2698 -0.7160  0.5881
  227MOL0     H29934   3.689   2.980   5.324 -0.3931  1.3170 -1.4506
  227MOL0     H29935   3.683   3.144   5.369  0.1689  0.7652  0.6249
  227MOL0     H29936   3.501   3.097   5.521 -2.1025 -0.3928  0.8048
  227MOL0     H29937   3.463   3.073   5.346  0.2342  1.0053  0.5370
  227MOL0     H29938   3.470   2.877   5.565 -1.8168  0.2588 -0.0163
  227MOL0     H29939   3.547   2.813   5.418  0.7061 -0.5682  1.9285
  227MOL0     H29940   3.288   2.761   5.476  0.6759  0.2055  0.8249
  227MOL0     H29941   3.328   2.821   5.311 -0.9534  0.0871  0.3197
  227MOL0     H29942   3.257   2.995   5.545  2.4318 -1.2652  0.5718
  227MOL0     H29943   3.227   3.037   5.380  0.0053  1.5729  0.8589
  227MOL0     H29944   3.060   2.815   5.411  0.4989  0.7611 -0.9394
  227MOL0     H29945   3.016   2.974   5.466  2.6722  3.5152  3.2865
  227MOL0     H29946   4.095   3.065   5.841 -2.4577 -0.9107 -1.6897
  227MOL0     H29947   4.333   3.039   5.871  0.2902 -1.2248  1.0043
  227MOL0     H29948   4.671   2.622   5.862  1.7705 -2.0046 -0.2508
  227MOL0     H29949   4.900   2.517   5.820 -0.5778  0.0433 -0.2233
  227MOL0     H29950   7.010   2.713   5.448  1.3131  1.8136  3.1990
  227MOL0     H29951   7.232   2.675   5.364  4.7295  2.6995 -0.0030
  227MOL0     H29952   7.549   2.654   4.921  1.9572  1.0770 -2.4120
  227MOL0     H29953   7.780   2.669   4.867  0.0268  1.2189 -0.6393
  227MOL0     H29954   8.087   2.800   5.213  0.4846  2.2123  0.4714
  227MOL0     H29955   8.063   2.932   5.095 -1.4498 -0.3349 -2.6482
  227MOL0     H29956   8.224   2.833   4.953  2.8621 -3.1004 -0.8170
  227MOL0     H29957   8.294   2.835   5.111 -0.3219  0.2042  1.4696
  227MOL0     H29958   8.189   2.579   4.968 -0.2586  0.2044  0.1747
  227MOL0     H29959   8.213   2.573   5.131  1.0905 -1.0768 -0.2540
  227MOL0     H29960   8.401   2.506   4.975 -3.2476  0.2835 -0.9223
  227MOL0     H29961   8.433   2.679   4.947  0.6453 -3.3579 -2.0215
  227MOL0     H29962   8.626   2.565   5.326  1.4002  2.2795 -1.3855
  227MOL0     H29963   7.851   2.856   5.246 -1.8730  1.5794  0.7738
  227MOL0     H29964   7.611   2.852   5.307 -2.2477 -2.3987  0.3385
  228MOL0     O29965   9.553   1.001  10.959  0.0834 -0.1978  0.8420
  228MOL0     C29966   9.491   1.086  11.025 -0.3591 -0.0401  0.5251
  228MOL0     O29967   9.545   1.196  11.088 -0.1286  0.6668  0.1047
  228MOL0     C29968   9.672   1.229  11.079 -0.6670  0.8809  0.2644
  228MOL0     C29969   9.735   1.266  10.962  0.1841 -1.1562  0.0850
  228MOL0     C29970   9.873   1.311  10.962 -0.2208 -0.4264  0.9789
  228MOL0     C29971   9.946   1.300  11.073 -0.0032  0.3525  0.1233
  228MOL0     O29972  10.074   1.356  11.076  0.8818  1.1572 -0.7531
  228MOL0     C29973  10.155   1.359  11.198 -0.0823 -0.0182  0.0499
  228MOL0     C29974  10.252   1.467  11.178  0.1890 -0.1279 -0.7726
  228MOL0     C29975  10.362   1.488  11.299  0.6613 -0.6580 -0.0701
  228MOL0     C29976  10.444   1.604  11.246  0.2614 -0.7934 -0.2258
  228MOL0     C29977  10.567   1.635  11.333  0.3174  0.4321  0.0443
  228MOL0     C29978  10.531   1.694  11.464  0.3280  0.6173  0.1684
  228MOL0     C29979  10.650   1.741  11.549 -0.0459  0.2105  0.7343
  228MOL0     C29980  10.724   1.634  11.626 -0.2568  0.1823  0.3128
  228MOL0     N29981  10.672   1.628  11.770  0.0454 -0.0574  0.2694
  228MOL0     C29982  10.551   1.682  11.815  0.2248 -0.6033 -1.2709
  228MOL0     C29983  10.545   1.665  11.948  0.3770 -0.0246  0.0080
  228MOL0     C29984  10.435   1.712  12.043 -0.9580  1.1650  0.3694
  228MOL0     C29985  10.329   1.599  12.071 -0.8451 -0.0753 -0.8054
  228MOL0     C29986  10.259   1.572  11.944  0.7127  0.1221  0.3106
  228MOL0     C29987  10.134   1.502  11.984  0.0028  0.2396 -1.5753
  228MOL0     O29988  10.057   1.585  12.077  0.1385 -0.4513 -0.1613
  228MOL0     C29989   9.957   1.652  12.009  0.0822 -0.5173  0.6002
  228MOL0     C29990   9.978   1.772  11.932 -0.1452 -0.4085 -0.8729
  228MOL0     C29991   9.862   1.838  11.877 -0.3230  0.3782 -0.3403
  228MOL0     C29992   9.741   1.771  11.863 -0.0793 -0.7877  0.2654
  228MOL0     C29993   9.629   1.830  11.783 -0.2827 -0.6603  0.1843
  228MOL0     O29994   9.533   1.736  11.752  0.3045 -0.5380 -0.5000
  228MOL0     C29995   9.409   1.782  11.721 -0.4331 -0.8855 -0.7383
  228MOL0     C29996   9.381   1.830  11.593 -0.9243  0.7380 -0.3459
  228MOL0     C29997   9.251   1.853  11.557 -0.9781 -0.3393 -0.3816
  228MOL0     C29998   9.149   1.844  11.646  0.1022  0.1776 -0.3446
  228MOL0     O29999   9.020   1.862  11.596  0.1248  0.2216 -0.1676
  228MOL0     C30000   8.904   1.821  11.668  0.5301  0.0779 -1.2450
  228MOL0     C30001   8.782   1.887  11.611 -0.4619 -0.2393  0.5520
  228MOL0     C30002   8.750   2.019  11.681  0.4159 -0.1989 -0.5111
  228MOL0     C30003   8.659   2.099  11.602 -0.3183  1.4257 -0.0809
  228MOL0     C30004   8.610   2.215  11.669  0.5665  0.6794  1.0919
  228MOL0     C30005   8.477   2.181  11.741 -0.0838 -0.1615 -0.9038
  228MOL0     C30006   8.412   2.298  11.804  0.1892  1.2644 -0.4612
  228MOL0     C30007   8.268   2.270  11.870  0.3043  0.3960  0.4959
  228MOL0    Cl30008   8.157   2.280  11.738 -0.0421 -0.2805 -0.4588
  228MOL0     C30009   9.179   1.808  11.776  0.9848 -0.6338  0.4197
  228MOL0     C30010   9.307   1.763  11.812 -0.7643 -0.0946  0.2596
  228MOL0     O30011   9.628   1.945  11.739 -0.8098  0.1243 -0.4167
  228MOL0     C30012   9.718   1.654  11.936 -0.6258 -0.7228 -0.0040
  228MOL0     C30013   9.825   1.599  12.006  0.6443 -0.4772 -0.2034
  228MOL0     N30014  10.669   1.616  11.986  0.4795 -0.1799 -0.4672
  228MOL0     N30015  10.743   1.594  11.883 -0.4222 -0.2032  0.4531
  228MOL0     C30016   9.889   1.250  11.188  0.0956  0.2854  0.5439
  228MOL0     C30017   9.757   1.213  11.189 -0.4159 -0.3767  0.4137
  228MOL0     C30018   9.341   1.056  11.035  0.5068  0.5315  0.3801
  228MOL0     C30019   9.275   0.955  10.965  0.6803 -0.1387  0.2229
  228MOL0     C30020   9.136   0.942  10.961 -0.3647  0.2254 -0.5637
  228MOL0     C30021   9.053   1.038  11.017 -0.0455 -0.1844  0.8887
  228MOL0     O30022   8.914   1.035  11.007  0.3388 -0.3720  0.2037
  228MOL0     C30023   8.854   0.917  10.951  0.4878 -1.0507 -0.6676
  228MOL0     C30024   8.708   0.898  10.974  0.8796  0.0076 -0.3406
  228MOL0     C30025   8.616   0.842  10.862 -0.2065 -0.5496 -0.5564
  228MOL0     C30026   8.593   0.693  10.867 -0.2191  0.3869 -0.6021
  228MOL0     C30027   8.713   0.627  10.828 -0.1802  0.2729 -0.6090
  228MOL0     C30028   8.807   0.561  10.790  0.1718  0.6983  0.6497
  228MOL0     C30029   9.119   1.141  11.076  0.9072 -0.5181 -0.0715
  228MOL0     C30030   9.256   1.155  11.090  0.4916 -0.1737  0.1903
  228MOL0     H30031   9.683   1.264  10.867  1.3330  1.0658 -0.6566
  228MOL0     H30032   9.907   1.350  10.866 -3.0890 -2.8641 -1.2180
  228MOL0     H30033  10.212   1.266  11.207 -0.4884 -0.3020 -0.3031
  228MOL0     H30034  10.099   1.374  11.291 -2.8102 -2.6269 -1.0204
  228MOL0     H30035  10.209   1.567  11.162  0.2782 -0.4359 -3.2617
  228MOL0     H30036  10.297   1.433  11.085 -1.7874 -2.2556 -1.0191
  228MOL0     H30037  10.420   1.396  11.314  0.8005 -0.1337  3.2244
  228MOL0     H30038  10.319   1.506  11.397  0.5634 -0.9137 -0.0640
  228MOL0     H30039  10.473   1.577  11.144 -2.1965  1.2848 -1.5937
  228MOL0     H30040  10.372   1.686  11.249 -2.4793 -3.0538  3.0301
  228MOL0     H30041  10.625   1.713  11.283 -0.7248  3.2188  2.9031
  228MOL0     H30042  10.640   1.554  11.343  1.7178  1.7927  1.3609
  228MOL0     H30043  10.475   1.621  11.522 -0.3761  0.9981 -0.0162
  228MOL0     H30044  10.468   1.782  11.444  2.1132  2.3343  1.6187
  228MOL0     H30045  10.716   1.787  11.475  0.8014 -1.0348  0.6674
  228MOL0     H30046  10.624   1.825  11.614  0.0435  0.3730  0.5611
  228MOL0     H30047  10.833   1.644  11.626 -0.3166  2.4194  3.4561
  228MOL0     H30048  10.696   1.536  11.586 -2.2686  0.6797  0.4212
  228MOL0     H30049  10.469   1.723  11.756 -0.0577 -0.3534 -0.7081
  228MOL0     H30050  10.379   1.788  11.987 -3.5157  0.9782  2.4591
  228MOL0     H30051  10.473   1.761  12.133 -0.9218 -1.2041  1.7209
  228MOL0     H30052  10.273   1.639  12.156  3.3744 -0.3731  2.4656
  228MOL0     H30053  10.387   1.509  12.095 -2.7210 -1.4780 -1.3713
  228MOL0     H30054  10.241   1.649  11.869  1.3907  0.4940  0.5260
  228MOL0     H30055  10.315   1.497  11.887 -0.2537  1.0499 -1.9994
  228MOL0     H30056  10.172   1.411  12.032  2.6860  2.8367  1.7929
  228MOL0     H30057  10.070   1.479  11.899 -3.2363 -0.5932  0.8634
  228MOL0     H30058  10.077   1.816  11.937 -0.1826  0.1465 -3.4326
  228MOL0     H30059   9.882   1.926  11.817  3.6424 -2.1663 -3.2800
  228MOL0     H30060   9.455   1.852  11.516 -1.8281  1.6508 -0.9799
  228MOL0     H30061   9.225   1.891  11.459  0.6425 -1.0927 -1.1338
  228MOL0     H30062   8.922   1.853  11.771  1.8448 -0.4673 -1.2852
  228MOL0     H30063   8.891   1.713  11.656  3.2282 -0.5424  0.6004
  228MOL0     H30064   8.695   1.821  11.616 -1.9415  1.1309 -3.2504
  228MOL0     H30065   8.810   1.910  11.507  0.1254 -0.7646  0.5856
  228MOL0     H30066   8.846   2.071  11.684 -0.4633  1.8929 -3.5983
  228MOL0     H30067   8.718   2.000  11.784  3.3476  1.2696  0.7590
  228MOL0     H30068   8.720   2.131  11.517  0.5751 -2.2303 -0.9509
  228MOL0     H30069   8.586   2.031  11.559  1.3303  0.2452 -1.1606
  228MOL0     H30070   8.599   2.291  11.591  2.0710 -0.3741 -0.2030
  228MOL0     H30071   8.686   2.250  11.740  0.9718  0.2655  0.8650
  228MOL0     H30072   8.490   2.101  11.814 -2.4158 -1.1376 -1.4615
  228MOL0     H30073   8.399   2.143  11.674 -1.4865 -2.6323  1.8484
  228MOL0     H30074   8.480   2.343  11.878  0.1067  1.6537 -0.6213
  228MOL0     H30075   8.396   2.369  11.723  3.8435  2.7297 -0.0880
  228MOL0     H30076   8.240   2.348  11.940 -0.1358  3.4927 -2.8397
  228MOL0     H30077   8.260   2.172  11.919  2.3194 -0.6376 -1.0516
  228MOL0     H30078   9.097   1.806  11.847  1.4351 -0.3512  0.9555
  228MOL0     H30079   9.337   1.715  11.905  1.2688 -0.8500 -0.7230
  228MOL0     H30080   9.618   1.611  11.935 -0.7793 -0.4012  0.6978
  228MOL0     H30081   9.817   1.502  12.053  0.4555  0.6259  2.1869
  228MOL0     H30082   9.936   1.245  11.286 -0.3447 -0.3288  0.7336
  228MOL0     H30083   9.726   1.203  11.292  4.5596 -2.8203  1.9774
  228MOL0     H30084   9.321   0.880  10.902 -2.1940 -0.2634 -1.8913
  228MOL0     H30085   9.089   0.857  10.914 -4.2667  0.5584  2.2958
  228MOL0     H30086   8.906   0.833  10.996 -2.4661 -1.2209  2.8978
  228MOL0     H30087   8.877   0.912  10.844  2.2223  1.1552 -0.4701
  228MOL0     H30088   8.694   0.835  11.062  1.5354  1.2361  0.6886
  228MOL0     H30089   8.670   0.994  11.011  0.5164 -0.0810 -0.4844
  228MOL0     H30090   8.669   0.856  10.767 -1.4834  2.2981 -0.9396
  228MOL0     H30091   8.522   0.898  10.864  0.8399  1.5707  4.3186
  228MOL0     H30092   8.552   0.657  10.961  3.5882 -1.0438  0.6953
  228MOL0     H30093   8.514   0.666  10.797 -2.1966  0.1845  1.6162
  228MOL0     H30094   8.893   0.512  10.749  0.2152  0.4767  1.0024
  228MOL0     H30095   9.049   1.219  11.105  2.3642  0.6806  0.3577
  228MOL0     H30096   9.294   1.238  11.148  0.9693 -0.7017  0.6465
  229MOL0     O30097   5.668   3.126   1.823 -0.8334  0.4838 -0.1828
  229MOL0     C30098   5.790   3.118   1.844 -0.3149  0.1197  0.3268
  229MOL0     O30099   5.863   3.213   1.905 -0.5089 -0.2918  0.3589
  229MOL0     C30100   5.813   3.343   1.904  0.6394 -0.2159  0.6643
  229MOL0     C30101   5.901   3.439   1.890  0.2544  0.0640 -0.8845
  229MOL0     C30102   5.872   3.579   1.886 -0.2681 -0.1502 -0.3718
  229MOL0     C30103   5.734   3.619   1.892 -0.7544  1.1483 -0.3114
  229MOL0     O30104   5.703   3.749   1.881 -0.2545  0.3277  0.1844
  229MOL0     C30105   5.597   3.782   1.795 -0.5518  0.6269 -0.2149
  229MOL0     C30106   5.501   3.869   1.870 -0.0713  0.3120  0.7718
  229MOL0     C30107   5.369   3.880   1.784  0.0147 -0.7130  0.6910
  229MOL0     C30108   5.287   3.756   1.772  0.2972  0.3256 -0.0569
  229MOL0     C30109   5.140   3.785   1.794  0.3911  0.1084  0.5399
  229MOL0     C30110   5.046   3.679   1.760 -0.6477  0.7805  1.0360
  229MOL0     C30111   4.900   3.723   1.762 -1.3170  0.5890 -0.3878
  229MOL0     C30112   4.862   3.782   1.630 -0.6657 -0.8455 -0.2194
  229MOL0     N30113   4.719   3.804   1.633  0.0329 -0.2842 -0.0934
  229MOL0     C30114   4.631   3.710   1.617 -0.4329  0.2893  0.3023
  229MOL0     C30115   4.517   3.781   1.642  0.8274  0.1027 -0.8820
  229MOL0     C30116   4.382   3.717   1.632 -0.2596 -0.5574 -0.4459
  229MOL0     C30117   4.260   3.813   1.634 -0.8373  1.1201 -0.2575
  229MOL0     C30118   4.225   3.846   1.780 -0.2176  0.8099  0.6375
  229MOL0     C30119   4.090   3.905   1.806  0.3925 -0.2615  1.0665
  229MOL0     O30120   4.074   3.890   1.944  1.3356 -0.2903  0.8044
  229MOL0     C30121   4.133   3.973   2.039 -0.7573 -0.0581  0.4074
  229MOL0     C30122   4.147   3.924   2.171  0.4843  0.0629  0.6103
  229MOL0     C30123   4.209   4.006   2.264  0.4696 -0.1982  0.2160
  229MOL0     C30124   4.239   4.140   2.245 -0.3549  0.3801 -0.1781
  229MOL0     C30125   4.293   4.221   2.357 -0.4899 -0.2461 -0.9876
  229MOL0     O30126   4.376   4.330   2.329  0.3993  0.4794  0.6230
  229MOL0     C30127   4.415   4.402   2.444 -0.2514  0.5296  0.2141
  229MOL0     C30128   4.375   4.538   2.471  1.2464  1.1773 -0.3743
  229MOL0     C30129   4.432   4.599   2.582 -0.4091 -0.8259  0.5448
  229MOL0     C30130   4.525   4.548   2.663  0.0373 -0.2567  0.5557
  229MOL0     O30131   4.591   4.604   2.767  0.1092 -0.5567  0.9135
  229MOL0     C30132   4.717   4.661   2.731 -0.1089 -0.7864 -0.8422
  229MOL0     C30133   4.813   4.683   2.854  0.2945 -0.6150  0.2393
  229MOL0     C30134   4.884   4.554   2.896 -0.1219  0.1444  0.1399
  229MOL0     C30135   4.987   4.568   3.010  0.4062  0.0963 -0.5329
  229MOL0     C30136   5.075   4.439   3.016  0.3625  0.0961  0.4925
  229MOL0     C30137   5.140   4.410   3.149 -0.9653  0.3607  0.4288
  229MOL0     C30138   5.243   4.511   3.199 -0.0479  0.2605  0.8549
  229MOL0     C30139   5.375   4.494   3.107 -0.2153  0.2606  0.6625
  229MOL0    Cl30140   5.510   4.513   3.209 -0.2542 -0.0415  0.0844
  229MOL0     C30141   4.572   4.418   2.636 -0.1845 -0.5774  1.2758
  229MOL0     C30142   4.514   4.343   2.529  0.7920  0.3411  0.4952
  229MOL0     O30143   4.254   4.187   2.471 -0.2609  0.6297  0.0131
  229MOL0     C30144   4.219   4.195   2.117  0.3188  0.5092  0.5067
  229MOL0     C30145   4.169   4.106   2.016  0.1439  0.3697 -0.1650
  229MOL0     N30146   4.535   3.914   1.661 -0.9126 -0.6500  0.5643
  229MOL0     N30147   4.667   3.926   1.650 -0.5677  0.3717  0.2796
  229MOL0     C30148   5.643   3.518   1.916  0.6563  0.3345  0.0620
  229MOL0     C30149   5.679   3.384   1.923  0.1858  0.6863 -0.3783
  229MOL0     C30150   5.871   3.004   1.793 -0.2461 -0.4277  0.0948
  229MOL0     C30151   5.809   2.889   1.758  0.3882 -0.6928  0.7088
  229MOL0     C30152   5.875   2.772   1.725  0.1049  0.3457  0.0281
  229MOL0     C30153   6.016   2.765   1.721  0.9333  0.1341  0.2667
  229MOL0     O30154   6.088   2.651   1.688  0.3497  0.5590  0.4935
  229MOL0     C30155   6.159   2.665   1.568  0.3007 -0.2564  0.0167
  229MOL0     C30156   6.142   2.548   1.470  0.1526  0.1498 -0.7469
  229MOL0     C30157   5.993   2.524   1.430 -0.2088 -1.1531 -0.1106
  229MOL0     C30158   5.922   2.648   1.361 -0.1247  0.9580 -0.5668
  229MOL0     C30159   5.966   2.643   1.223 -0.1503 -0.2917  0.4784
  229MOL0     C30160   6.006   2.631   1.107  0.1432 -0.7422 -0.8377
  229MOL0     C30161   6.082   2.879   1.766 -0.4035 -0.4204 -0.2285
  229MOL0     C30162   6.013   3.001   1.810 -1.3135  0.5284 -0.3699
  229MOL0     H30163   6.006   3.412   1.894  0.0589 -0.5584  0.8275
  229MOL0     H30164   5.951   3.649   1.860 -3.0752  3.0862 -0.9491
  229MOL0     H30165   5.555   3.692   1.750  2.9355 -2.2740  1.8421
  229MOL0     H30166   5.629   3.842   1.709  0.0041  0.0358 -0.4287
  229MOL0     H30167   5.539   3.971   1.876  2.0109 -0.3020 -0.6249
  229MOL0     H30168   5.488   3.849   1.977 -2.2822 -1.4019  0.2515
  229MOL0     H30169   5.405   3.911   1.685 -0.0030 -1.2261  0.5231
  229MOL0     H30170   5.307   3.964   1.817  2.0505  0.4309  1.7446
  229MOL0     H30171   5.296   3.721   1.669 -0.4412  5.3885 -2.0889
  229MOL0     H30172   5.332   3.682   1.839  1.1242  2.0909  1.4139
  229MOL0     H30173   5.118   3.865   1.722 -2.0987 -2.0472 -1.2997
  229MOL0     H30174   5.131   3.804   1.901  3.4517  0.7162  0.7797
  229MOL0     H30175   5.081   3.604   1.832 -1.6440  0.3769  1.1069
  229MOL0     H30176   5.070   3.648   1.658 -1.6868 -2.2016  1.5926
  229MOL0     H30177   4.851   3.630   1.791  2.9201 -2.9031 -3.0460
  229MOL0     H30178   4.871   3.800   1.834  1.5141  1.5884 -0.1690
  229MOL0     H30179   4.892   3.728   1.540 -4.0182 -2.4392 -0.5543
  229MOL0     H30180   4.905   3.881   1.612 -0.1718 -1.1592 -0.7891
  229MOL0     H30181   4.631   3.604   1.596  1.9544  0.6497 -2.0738
  229MOL0     H30182   4.378   3.646   1.716  0.8795 -1.6728 -1.2870
  229MOL0     H30183   4.388   3.664   1.536 -0.1761  3.6736 -3.0129
  229MOL0     H30184   4.180   3.745   1.601  0.6351 -1.9258  1.9330
  229MOL0     H30185   4.269   3.900   1.569  0.6759  0.4853 -0.9346
  229MOL0     H30186   4.228   3.752   1.836 -0.3181  1.1839  1.2770
  229MOL0     H30187   4.297   3.913   1.827 -0.0438 -0.7020  2.6670
  229MOL0     H30188   4.020   3.840   1.752  2.3809  1.3260 -3.9741
  229MOL0     H30189   4.084   4.011   1.780  2.2920 -0.3867 -0.0328
  229MOL0     H30190   4.098   3.833   2.203  1.5579 -0.2581  1.4270
  229MOL0     H30191   4.212   3.966   2.365 -3.9865  1.1805  1.1413
  229MOL0     H30192   4.310   4.593   2.404  0.4161  0.5865 -0.0734
  229MOL0     H30193   4.408   4.705   2.586  2.1890 -0.0581 -1.5976
  229MOL0     H30194   4.685   4.749   2.674 -3.2008 -1.9342 -1.0584
  229MOL0     H30195   4.766   4.595   2.659  0.0835 -2.8303  1.0428
  229MOL0     H30196   4.744   4.698   2.938  0.7543 -2.2993  0.9447
  229MOL0     H30197   4.881   4.768   2.843 -2.5735  2.1447  1.7927
  229MOL0     H30198   4.935   4.516   2.807 -2.7392 -1.6309 -0.7230
  229MOL0     H30199   4.810   4.478   2.922 -1.9822  1.8051 -0.1184
  229MOL0     H30200   5.042   4.661   2.989  2.2440 -1.2687 -2.2454
  229MOL0     H30201   4.931   4.564   3.104 -1.0408  2.8670 -1.1642
  229MOL0     H30202   5.145   4.445   2.931 -2.7221  2.1208 -2.1490
  229MOL0     H30203   5.001   4.360   3.001 -0.8311  1.4134 -0.7960
  229MOL0     H30204   5.180   4.309   3.148 -1.8257  0.0122 -0.6140
  229MOL0     H30205   5.059   4.408   3.222 -1.2727  1.0709  0.1235
  229MOL0     H30206   5.203   4.613   3.198 -1.1747 -0.1179  2.5606
  229MOL0     H30207   5.265   4.482   3.303 -0.0645  1.1412  1.1124
  229MOL0     H30208   5.384   4.575   3.034 -1.3999 -1.2526 -1.2660
  229MOL0     H30209   5.378   4.398   3.055  0.7049  0.0530  1.0845
  229MOL0     H30210   4.649   4.380   2.702  1.1869 -1.6823 -0.8645
  229MOL0     H30211   4.560   4.246   2.515  2.3061  1.1759 -0.5711
  229MOL0     H30212   4.259   4.294   2.097 -1.2797  0.7707 -1.6820
  229MOL0     H30213   4.167   4.149   1.917  0.1816  0.3045 -0.1937
  229MOL0     H30214   5.536   3.536   1.909  1.0579  2.4534 -2.8002
  229MOL0     H30215   5.601   3.311   1.943 -0.1451  1.6620  2.3600
  229MOL0     H30216   5.703   2.870   1.771 -0.0051  1.5898  1.3688
  229MOL0     H30217   5.814   2.685   1.703  0.3122  0.7956 -2.6395
  229MOL0     H30218   6.264   2.673   1.600 -0.2472  0.7700  1.7425
  229MOL0     H30219   6.125   2.761   1.528  0.0673  0.1203  1.0770
  229MOL0     H30220   6.212   2.565   1.387  2.8738 -1.6892  0.9830
  229MOL0     H30221   6.180   2.462   1.525 -0.7600  1.3481  1.9006
  229MOL0     H30222   5.944   2.522   1.527  2.7705  2.8387  1.7824
  229MOL0     H30223   5.974   2.428   1.382 -1.2092 -0.3025 -1.4965
  229MOL0     H30224   5.815   2.624   1.366  0.5875 -2.6212  0.5093
  229MOL0     H30225   5.937   2.741   1.416  1.0916 -0.3269  1.4167
  229MOL0     H30226   6.028   2.612   1.004  0.2980 -2.0465 -0.5890
  229MOL0     H30227   6.190   2.876   1.776 -0.6167 -1.0712  3.3851
  229MOL0     H30228   6.061   3.085   1.858  0.7635 -0.1612 -1.1380
  230MOL0     O30229   8.664   8.880   4.395 -0.7991  0.3283  0.0463
  230MOL0     C30230   8.686   8.975   4.312 -0.3716  0.5954  1.1480
  230MOL0     O30231   8.751   8.957   4.187  0.5008 -0.1868 -0.4788
  230MOL0     C30232   8.796   8.826   4.159  0.0608 -0.3141  0.0101
  230MOL0     C30233   8.722   8.732   4.085 -0.4918 -0.4277  0.3818
  230MOL0     C30234   8.779   8.605   4.062  0.1222 -0.1611 -0.5865
  230MOL0     C30235   8.891   8.556   4.114  0.6509 -0.9044  0.3413
  230MOL0     O30236   8.938   8.439   4.071  0.0663  0.5992 -0.2892
  230MOL0     C30237   9.077   8.427   4.033 -0.0131 -0.0730  1.4618
  230MOL0     C30238   9.080   8.296   3.951  0.3856  0.7337  0.0877
  230MOL0     C30239   9.087   8.175   4.038  0.4317  0.3445 -0.0715
  230MOL0     C30240   9.222   8.157   4.105 -0.0201 -0.1512  1.5243
  230MOL0     C30241   9.221   8.035   4.196 -0.0573 -0.2344  0.6150
  230MOL0     C30242   9.369   7.984   4.230  0.4143  0.5544  0.6883
  230MOL0     C30243   9.414   8.046   4.357 -0.7479 -1.3408 -0.3692
  230MOL0     C30244   9.536   7.962   4.391 -0.6051 -0.5201 -0.5275
  230MOL0     N30245   9.552   7.944   4.537  0.0428 -0.1337 -0.2387
  230MOL0     C30246   9.546   7.819   4.603 -0.5051 -1.6112  0.2400
  230MOL0     C30247   9.634   7.841   4.704  0.6805  0.3900  0.2008
  230MOL0     C30248   9.693   7.742   4.803 -1.0224  0.6089 -0.1651
  230MOL0     C30249   9.837   7.676   4.770 -0.5191 -0.0978 -1.4260
  230MOL0     C30250   9.943   7.713   4.878 -0.0097 -0.3128  0.0444
  230MOL0     C30251  10.083   7.663   4.840 -0.1515 -0.5825  0.6377
  230MOL0     O30252  10.153   7.755   4.757  0.2197 -0.2487  1.0133
  230MOL0     C30253  10.291   7.744   4.744 -0.3283  0.3921 -0.3827
  230MOL0     C30254  10.357   7.624   4.750 -0.9185 -0.2741 -0.2160
  230MOL0     C30255  10.498   7.624   4.727 -0.5864 -0.3131 -0.7993
  230MOL0     C30256  10.560   7.740   4.668  0.1587  0.6172  0.8029
  230MOL0     C30257  10.700   7.730   4.629  0.3496  0.0501 -1.3143
  230MOL0     O30258  10.766   7.843   4.611 -0.4753 -0.6868  0.0286
  230MOL0     C30259  10.894   7.858   4.556 -0.3779  0.4259 -0.0738
  230MOL0     C30260  10.942   7.771   4.447 -0.0858  0.3941  0.7726
  230MOL0     C30261  11.081   7.779   4.402  0.8251  0.7561 -0.5008
  230MOL0     C30262  11.161   7.873   4.458 -1.4955  0.3137  0.3569
  230MOL0     O30263  11.289   7.877   4.398  0.0266  0.2265 -0.4683
  230MOL0     C30264  11.393   7.919   4.478 -0.3865  0.4574 -0.4650
  230MOL0     C30265  11.479   8.016   4.401 -0.6561  0.3811 -0.7896
  230MOL0     C30266  11.563   8.098   4.493  0.4714  0.4005 -1.5063
  230MOL0     C30267  11.642   8.206   4.420  0.1468 -0.1180 -1.6463
  230MOL0     C30268  11.679   8.317   4.520 -0.0035  0.4962  0.3769
  230MOL0     C30269  11.760   8.441   4.464 -0.0197 -1.4785  0.5989
  230MOL0     C30270  11.778   8.560   4.562 -0.3373 -0.0997  0.6272
  230MOL0     C30271  11.858   8.680   4.504 -0.4995 -0.0908  0.2203
  230MOL0    Cl30272  11.782   8.759   4.363  0.1075  0.0473  0.3057
  230MOL0     C30273  11.111   7.960   4.554  0.1719  0.0693 -0.2862
  230MOL0     C30274  10.982   7.949   4.609  1.3728 -0.9302  0.5301
  230MOL0     O30275  10.750   7.620   4.620 -0.7157  0.2627 -0.1377
  230MOL0     C30276  10.492   7.856   4.671  0.4487 -0.3054  0.6123
  230MOL0     C30277  10.361   7.857   4.710  0.5289 -0.2858 -0.5114
  230MOL0     N30278   9.667   7.973   4.715 -1.0760 -0.3634  0.3137
  230MOL0     N30279   9.619   8.038   4.614  0.4138 -0.0922 -0.2094
  230MOL0     C30280   8.970   8.653   4.174  0.0009 -0.1460 -1.5334
  230MOL0     C30281   8.921   8.785   4.206 -0.4189  0.0503  1.4447
  230MOL0     C30282   8.661   9.114   4.349 -0.5629 -0.5423 -0.3626
  230MOL0     C30283   8.678   9.232   4.267 -0.3891  0.7026 -0.3018
  230MOL0     C30284   8.655   9.366   4.314 -0.4900  0.1258 -0.0311
  230MOL0     C30285   8.594   9.388   4.440 -0.2293  0.2777 -0.2356
  230MOL0     O30286   8.575   9.517   4.477 -0.1420  0.5098  0.8447
  230MOL0     C30287   8.561   9.551   4.614  0.2377 -0.5342 -0.8195
  230MOL0     C30288   8.707   9.567   4.671  0.4598 -0.7129  0.2454
  230MOL0     C30289   8.696   9.615   4.820 -0.4526 -0.3687  0.3400
  230MOL0     C30290   8.837   9.616   4.897 -0.1959 -0.8135  0.2024
  230MOL0     C30291   8.909   9.490   4.871 -0.0913 -0.1972  0.4196
  230MOL0     C30292   8.970   9.384   4.864  0.5496 -0.1239  0.0684
  230MOL0     C30293   8.566   9.272   4.516  0.1131  0.6515 -0.6034
  230MOL0     C30294   8.607   9.146   4.473 -0.3197 -0.6163 -1.0318
  230MOL0     H30295   8.631   8.776   4.045 -0.8181 -1.0242  0.4564
  230MOL0     H30296   8.737   8.536   3.989 -3.2125 -0.3787  1.3432
  230MOL0     H30297   9.147   8.418   4.117  2.4307  2.0804 -0.1760
  230MOL0     H30298   9.118   8.511   3.975  3.1080 -1.0072  2.1096
  230MOL0     H30299   9.164   8.295   3.881  2.6820  0.9602  2.6644
  230MOL0     H30300   8.996   8.305   3.882 -0.5765  2.8713  1.4306
  230MOL0     H30301   9.065   8.080   3.987  3.5981 -0.7846  0.4512
  230MOL0     H30302   9.010   8.185   4.114 -0.6063 -3.8169 -0.3090
  230MOL0     H30303   9.291   8.134   4.023 -1.9648  0.3882 -0.3634
  230MOL0     H30304   9.248   8.244   4.167 -0.6149  2.1279 -1.1986
  230MOL0     H30305   9.178   7.952   4.139  1.6759 -1.2887  0.7914
  230MOL0     H30306   9.167   8.039   4.292  1.0802  0.0380  1.2631
  230MOL0     H30307   9.426   8.014   4.141  1.6754  0.4454  1.4375
  230MOL0     H30308   9.360   7.875   4.234 -2.5762  0.5288 -2.0803
  230MOL0     H30309   9.421   8.155   4.364 -1.1587 -1.2345 -1.4543
  230MOL0     H30310   9.336   8.017   4.428 -1.5067 -2.6167 -1.6786
  230MOL0     H30311   9.629   8.005   4.351  0.3197 -3.2791 -1.6055
  230MOL0     H30312   9.533   7.863   4.344 -2.1285  0.0866 -1.7803
  230MOL0     H30313   9.497   7.729   4.569  1.0994 -1.2107 -3.6261
  230MOL0     H30314   9.623   7.660   4.822  0.5656 -0.2359  2.5795
  230MOL0     H30315   9.710   7.787   4.901  3.3483  0.1133 -0.5024
  230MOL0     H30316   9.853   7.714   4.668 -4.3709  1.0814 -1.7394
  230MOL0     H30317   9.834   7.566   4.771 -0.9651 -0.1043 -2.3461
  230MOL0     H30318   9.956   7.821   4.889 -1.8728  0.1451 -1.5841
  230MOL0     H30319   9.909   7.659   4.967 -0.2423  0.8210  0.6523
  230MOL0     H30320  10.069   7.564   4.796  0.4667  0.0222 -0.9941
  230MOL0     H30321  10.137   7.642   4.933  1.6104  0.9582  0.0128
  230MOL0     H30322  10.305   7.536   4.787  0.2973 -0.9689 -0.1081
  230MOL0     H30323  10.553   7.531   4.742 -1.2379 -0.2054  3.4630
  230MOL0     H30324  10.885   7.694   4.395  1.0771  0.9730 -1.4854
  230MOL0     H30325  11.123   7.723   4.320 -0.7231 -0.7226 -0.3519
  230MOL0     H30326  11.459   7.841   4.516  1.6306  2.3169  0.0597
  230MOL0     H30327  11.361   7.963   4.573  3.4416 -2.3187  2.4274
  230MOL0     H30328  11.416   8.086   4.345 -3.6628 -2.3557 -1.1250
  230MOL0     H30329  11.527   7.968   4.315 -1.3073 -0.0615 -0.9139
  230MOL0     H30330  11.631   8.034   4.549 -0.8433  0.1223 -0.1617
  230MOL0     H30331  11.500   8.138   4.574 -0.1379 -2.0621 -0.6948
  230MOL0     H30332  11.728   8.153   4.378 -0.0822 -2.3741  0.4917
  230MOL0     H30333  11.584   8.255   4.341 -0.1780 -0.8593 -1.8799
  230MOL0     H30334  11.731   8.264   4.601  2.0235  0.7866 -0.6708
  230MOL0     H30335  11.592   8.366   4.563 -0.2054 -0.3142  0.9101
  230MOL0     H30336  11.709   8.476   4.373  2.8083  1.4473 -0.0760
  230MOL0     H30337  11.860   8.413   4.429 -0.3595 -1.6969 -0.2320
  230MOL0     H30338  11.680   8.595   4.597 -0.8833  0.0551 -0.9605
  230MOL0     H30339  11.834   8.519   4.646  0.8439 -0.1184 -0.1375
  230MOL0     H30340  11.958   8.635   4.494 -1.7800 -4.2739  3.0590
  230MOL0     H30341  11.867   8.751   4.587 -0.2625  0.6980 -0.4709
  230MOL0     H30342  11.176   8.031   4.605 -0.6378  0.1145  0.7086
  230MOL0     H30343  10.955   8.014   4.692 -0.6744 -1.7917  0.6183
  230MOL0     H30344  10.522   7.955   4.638 -0.3064 -0.0574  0.6501
  230MOL0     H30345  10.306   7.949   4.697  0.3009 -0.4722 -0.8517
  230MOL0     H30346   9.066   8.615   4.208 -1.1551 -1.5579  0.3818
  230MOL0     H30347   8.966   8.860   4.270  0.6604 -1.6613  2.7947
  230MOL0     H30348   8.715   9.222   4.166 -0.8628 -3.7996 -0.2653
  230MOL0     H30349   8.679   9.447   4.245 -4.7642  2.1337  0.4525
  230MOL0     H30350   8.496   9.477   4.661  1.0510 -1.3080 -0.8779
  230MOL0     H30351   8.496   9.638   4.611  0.3382 -0.4406 -0.3178
  230MOL0     H30352   8.755   9.469   4.671  1.8199 -0.1115 -1.7613
  230MOL0     H30353   8.761   9.649   4.623 -2.4484  1.6935  0.7651
  230MOL0     H30354   8.631   9.540   4.867 -0.0396 -2.0575 -1.6014
  230MOL0     H30355   8.662   9.718   4.823 -1.2906 -0.6683  1.6571
  230MOL0     H30356   8.899   9.700   4.866  1.8491 -0.9781  3.3897
  230MOL0     H30357   8.826   9.631   5.005 -1.2766  0.1765 -0.0205
  230MOL0     H30358   9.016   9.289   4.849 -2.2431 -2.0233  2.6074
  230MOL0     H30359   8.530   9.283   4.618 -0.7800 -2.3596 -0.4805
  230MOL0     H30360   8.580   9.056   4.527 -2.0860 -0.4344 -1.5265
  231MOL0     O30361  10.756   7.079   8.966  0.5114 -0.6395  0.0191
  231MOL0     C30362  10.806   7.150   8.880 -2.0033 -0.4039  0.1299
  231MOL0     O30363  10.924   7.224   8.902 -0.3857 -0.4650  0.6217
  231MOL0     C30364  10.996   7.195   9.012  0.2810  0.4805  0.2570
  231MOL0     C30365  11.059   7.071   9.026  0.5587  0.4412  0.1595
  231MOL0     C30366  11.104   7.026   9.150 -0.4216 -0.4156 -0.7249
  231MOL0     C30367  11.113   7.119   9.258 -0.7358 -0.0870  0.0466
  231MOL0     O30368  11.173   7.070   9.367  0.0268  0.1802 -0.0925
  231MOL0     C30369  11.146   7.126   9.497 -0.4360 -0.5111  0.1790
  231MOL0     C30370  11.192   7.017   9.590 -0.3830 -0.8210  0.4175
  231MOL0     C30371  11.162   7.048   9.733  0.0546  0.8997 -0.6468
  231MOL0     C30372  11.185   6.926   9.813  0.5650  0.9784 -0.8510
  231MOL0     C30373  11.163   6.965   9.962 -1.0338 -0.1025 -0.2758
  231MOL0     C30374  11.199   6.862  10.071 -0.4705 -1.2358 -0.8748
  231MOL0     C30375  11.179   6.905  10.216 -0.5654 -0.7321 -0.0845
  231MOL0     C30376  11.242   6.803  10.307 -0.0463  0.9370 -0.6090
  231MOL0     N30377  11.201   6.658  10.296 -0.2169  0.3716 -0.2315
  231MOL0     C30378  11.099   6.600  10.365  0.6416 -1.0096 -0.3894
  231MOL0     C30379  11.123   6.460  10.354  0.2145  0.1433  0.3916
  231MOL0     C30380  11.033   6.359  10.420  0.6541 -0.4393 -0.4283
  231MOL0     C30381  11.042   6.383  10.581  0.2222 -0.2296  0.9255
  231MOL0     C30382  11.133   6.282  10.643 -0.4803  0.5102  0.5159
  231MOL0     C30383  11.118   6.287  10.796 -0.6919  0.1620 -0.0974
  231MOL0     O30384  11.168   6.164  10.844  0.4389  0.0434  0.3131
  231MOL0     C30385  11.176   6.134  10.979 -0.1975 -0.5540  0.1102
  231MOL0     C30386  11.226   6.012  11.021  0.4525  0.4457 -0.5907
  231MOL0     C30387  11.258   5.988  11.159 -0.0108 -0.1342 -0.2082
  231MOL0     C30388  11.258   6.098  11.249  0.0464  0.4837  0.0217
  231MOL0     C30389  11.296   6.084  11.397 -0.6361 -0.9736  0.0751
  231MOL0     O30390  11.278   5.961  11.450  0.3609 -0.8172 -0.5642
  231MOL0     C30391  11.341   5.943  11.574  0.2617  0.1721  0.3102
  231MOL0     C30392  11.456   5.874  11.584  0.1524  0.0975  0.1776
  231MOL0     C30393  11.513   5.843  11.707  1.2457  0.8094 -1.0051
  231MOL0     C30394  11.451   5.891  11.823  0.1421  0.2968 -0.2480
  231MOL0     O30395  11.479   5.859  11.957 -0.7143 -0.1996  0.8138
  231MOL0     C30396  11.623   5.849  11.969  0.4589  0.6091 -0.5990
  231MOL0     C30397  11.674   5.903  12.100 -0.8354  0.3464 -0.1080
  231MOL0     C30398  11.635   5.817  12.214  0.8035  0.3368  0.5642
  231MOL0     C30399  11.680   5.864  12.349  0.3449  0.3062  0.1330
  231MOL0     C30400  11.626   5.782  12.465 -0.4985  0.3342  0.1839
  231MOL0     C30401  11.700   5.655  12.478 -0.1207  0.4493  0.7272
  231MOL0     C30402  11.705   5.609  12.623 -0.4514  0.7689 -0.0311
  231MOL0     C30403  11.813   5.500  12.622 -0.1414  0.2589  0.1802
  231MOL0    Cl30404  11.753   5.350  12.535 -0.2242 -0.1029  0.2256
  231MOL0     C30405  11.336   5.957  11.812 -1.0917  0.0251  0.0973
  231MOL0     C30406  11.276   5.993  11.688 -0.2272 -0.6980  0.2191
  231MOL0     O30407  11.342   6.174  11.461 -0.0081 -0.6690 -0.3286
  231MOL0     C30408  11.211   6.219  11.206 -0.3765 -0.0645 -0.0773
  231MOL0     C30409  11.170   6.237  11.070  0.1887 -0.5534 -0.3765
  231MOL0     N30410  11.238   6.436  10.281  0.6474 -0.1497  0.6803
  231MOL0     N30411  11.284   6.555  10.252 -0.6189  1.3416 -0.4803
  231MOL0     C30412  11.063   7.251   9.245  0.4139  0.7949 -0.0939
  231MOL0     C30413  11.000   7.288   9.127  0.3499 -0.3457 -0.0010
  231MOL0     C30414  10.743   7.162   8.747 -1.1994  0.1733  0.1030
  231MOL0     C30415  10.802   7.240   8.637  0.1139  0.5025  0.3733
  231MOL0     C30416  10.733   7.248   8.512 -0.6634  0.0763  0.3912
  231MOL0     C30417  10.603   7.193   8.491  0.7550  0.9545  0.3358
  231MOL0     O30418  10.535   7.202   8.363  0.4116  0.1703 -0.9609
  231MOL0     C30419  10.591   7.293   8.273  0.5802 -0.3090 -1.1471
  231MOL0     C30420  10.499   7.330   8.158  0.7228  0.3647 -0.5081
  231MOL0     C30421  10.554   7.450   8.074 -0.6302 -0.3716  0.1258
  231MOL0     C30422  10.465   7.492   7.956  0.7518 -0.1397 -0.0183
  231MOL0     C30423  10.526   7.600   7.866 -1.2292  0.5912  0.4734
  231MOL0     C30424  10.575   7.683   7.795  0.4805 -0.1035  1.0482
  231MOL0     C30425  10.546   7.122   8.599 -0.3558  0.0034 -0.2109
  231MOL0     C30426  10.617   7.095   8.715  0.1388 -0.6458  0.4442
  231MOL0     H30427  11.064   7.005   8.940  0.8094  0.5860  0.0603
  231MOL0     H30428  11.141   6.924   9.154 -0.5355 -0.4855 -1.2877
  231MOL0     H30429  11.038   7.134   9.515 -0.5753 -1.6267 -0.0712
  231MOL0     H30430  11.197   7.218   9.526  0.1789 -0.9151  0.4128
  231MOL0     H30431  11.294   6.981   9.571 -0.2385 -0.0446 -0.3206
  231MOL0     H30432  11.123   6.936   9.567 -1.3586 -0.5573  2.2266
  231MOL0     H30433  11.055   7.068   9.742  0.3574  2.0117  0.6997
  231MOL0     H30434  11.215   7.135   9.774  0.0315  0.6543 -0.0988
  231MOL0     H30435  11.115   6.850   9.778  0.2309  1.8765 -2.2269
  231MOL0     H30436  11.289   6.897   9.795  1.3527  2.1066  1.4727
  231MOL0     H30437  11.063   7.005   9.979  0.0514  2.2214  1.0486
  231MOL0     H30438  11.226   7.048   9.995 -3.0013  0.1229  3.4478
  231MOL0     H30439  11.307   6.845  10.069 -0.3021 -0.1526 -1.3557
  231MOL0     H30440  11.134   6.774  10.065  0.1417 -1.9999  2.1692
  231MOL0     H30441  11.234   6.998  10.238  0.7294 -1.4918 -0.0036
  231MOL0     H30442  11.073   6.927  10.235 -0.5494 -0.2188 -0.5664
  231MOL0     H30443  11.231   6.837  10.410  0.8497 -2.1524  0.6322
  231MOL0     H30444  11.350   6.811  10.302  0.3399  0.6367  3.6975
  231MOL0     H30445  11.024   6.647  10.428  0.3432 -3.0019  0.8210
  231MOL0     H30446  11.042   6.256  10.385  0.8819 -0.7576  0.5384
  231MOL0     H30447  10.930   6.387  10.397  0.3522  0.0052  1.3524
  231MOL0     H30448  10.944   6.378  10.631 -0.2048 -0.3405  0.0887
  231MOL0     H30449  11.076   6.486  10.592  0.0906 -0.0039 -0.6162
  231MOL0     H30450  11.100   6.187  10.601 -0.1007  0.4534  0.3391
  231MOL0     H30451  11.230   6.308  10.600 -1.8588  0.4758 -2.9180
  231MOL0     H30452  11.012   6.289  10.824 -0.6675 -3.1612  0.6669
  231MOL0     H30453  11.166   6.381  10.826 -1.8067  1.5659 -2.4256
  231MOL0     H30454  11.231   5.922  10.960  0.8320 -0.6429  0.9700
  231MOL0     H30455  11.295   5.894  11.198 -0.3246  1.5351  4.9326
  231MOL0     H30456  11.481   5.829  11.488 -1.0278  0.7888 -0.4704
  231MOL0     H30457  11.605   5.785  11.708  0.2521 -1.0838  3.3296
  231MOL0     H30458  11.672   5.922  11.905  0.0503  0.3414 -1.2224
  231MOL0     H30459  11.667   5.750  11.960 -1.4081 -0.2902 -0.4836
  231MOL0     H30460  11.635   6.004  12.114  2.8253  1.5688  2.8397
  231MOL0     H30461  11.781   5.919  12.090 -0.2629 -1.2624  2.4477
  231MOL0     H30462  11.673   5.716  12.201  0.0845  0.2532 -1.0458
  231MOL0     H30463  11.527   5.804  12.212  1.0360 -1.7504  0.1782
  231MOL0     H30464  11.789   5.867  12.341  0.3376 -1.7191 -1.7110
  231MOL0     H30465  11.649   5.967  12.367 -1.2906 -0.0567 -0.4690
  231MOL0     H30466  11.518   5.779  12.450 -0.6266 -1.5463  1.1916
  231MOL0     H30467  11.640   5.834  12.560 -1.4170  3.3910 -1.2162
  231MOL0     H30468  11.797   5.662  12.429  0.3929 -1.8672  1.2890
  231MOL0     H30469  11.641   5.589  12.415 -3.7158  2.9386  1.1545
  231MOL0     H30470  11.747   5.686  12.688  1.8905 -0.9286  0.6179
  231MOL0     H30471  11.611   5.576  12.668 -1.2627  3.6429  0.5556
  231MOL0     H30472  11.848   5.477  12.723 -2.0741  2.7218  1.4971
  231MOL0     H30473  11.898   5.542  12.566 -0.0713 -1.1892 -0.8649
  231MOL0     H30474  11.304   5.991  11.910 -1.7970 -0.9155  0.2069
  231MOL0     H30475  11.177   6.037  11.675  0.4329  0.7544 -0.0982
  231MOL0     H30476  11.200   6.294  11.285  0.2425 -0.4444  0.3818
  231MOL0     H30477  11.146   6.339  11.042  3.0877  0.2009 -0.4563
  231MOL0     H30478  11.073   7.322   9.327  1.1066 -0.1466  0.6598
  231MOL0     H30479  10.958   7.388   9.120  4.0550  1.4336  0.8539
  231MOL0     H30480  10.901   7.285   8.643  0.6283 -0.2419 -1.5435
  231MOL0     H30481  10.791   7.296   8.435  4.5378 -3.7467  1.3638
  231MOL0     H30482  10.670   7.240   8.219  0.8870 -0.2518 -0.7569
  231MOL0     H30483  10.630   7.379   8.328 -0.0072 -1.7662  1.7187
  231MOL0     H30484  10.482   7.241   8.097 -4.3339  0.5754  0.1430
  231MOL0     H30485  10.399   7.344   8.201  1.5276  1.6502  1.0621
  231MOL0     H30486  10.654   7.427   8.036  0.1637  1.5846  0.9084
  231MOL0     H30487  10.571   7.532   8.144 -0.8174  0.7207 -1.0666
  231MOL0     H30488  10.454   7.405   7.891  2.3252 -1.3988  1.3198
  231MOL0     H30489  10.368   7.530   7.990  0.4919  0.7455 -1.6412
  231MOL0     H30490  10.592   7.753   7.715 -1.7856  0.2473  0.8160
  231MOL0     H30491  10.446   7.081   8.589 -0.2925 -0.1983 -0.0284
  231MOL0     H30492  10.561   7.036   8.786  1.1422 -0.8231  1.1086
  232MOL0     O30493   1.683   2.606   5.750  0.1705  0.8304  0.0642
  232MOL0     C30494   1.691   2.693   5.832 -0.4222 -0.2805 -0.0984
  232MOL0     O30495   1.789   2.691   5.934 -0.2676  0.5881  0.2141
  232MOL0     C30496   1.880   2.587   5.933  0.6417 -0.6750 -0.3410
  232MOL0     C30497   2.008   2.614   5.892  0.6270 -0.0681  0.1568
  232MOL0     C30498   2.103   2.512   5.896  0.3165  0.5357  0.0572
  232MOL0     C30499   2.060   2.377   5.931 -0.6662 -0.5092  0.4376
  232MOL0     O30500   2.138   2.268   5.935 -0.2208  0.9999  0.0931
  232MOL0     C30501   2.287   2.290   5.936 -0.1433  0.4810 -0.0815
  232MOL0     C30502   2.364   2.173   5.996 -0.1372  0.2109 -0.0161
  232MOL0     C30503   2.326   2.036   5.935  0.2529 -0.6897  0.0825
  232MOL0     C30504   2.437   1.932   5.975  0.2840  0.3038 -0.4387
  232MOL0     C30505   2.556   1.911   5.866  1.4410 -0.1150 -0.4800
  232MOL0     C30506   2.665   1.813   5.907  0.0688  0.5357 -0.6734
  232MOL0     C30507   2.740   1.767   5.778 -0.3977 -0.0246  0.1813
  232MOL0     C30508   2.847   1.661   5.807  0.5057 -0.1285  0.5687
  232MOL0     N30509   2.792   1.536   5.863  0.2492 -0.3903  0.4465
  232MOL0     C30510   2.662   1.483   5.843  0.9458 -0.7773  0.1953
  232MOL0     C30511   2.674   1.364   5.911  1.0099  0.1658  0.7765
  232MOL0     C30512   2.551   1.280   5.938 -0.1761 -0.3624  0.5125
  232MOL0     C30513   2.511   1.286   6.083 -0.3858  0.6785 -0.6753
  232MOL0     C30514   2.472   1.427   6.136 -0.0717  0.1161 -0.5544
  232MOL0     C30515   2.431   1.415   6.286  0.0592 -0.2080 -0.3864
  232MOL0     O30516   2.292   1.437   6.309  0.4312  0.2773 -0.4636
  232MOL0     C30517   2.240   1.564   6.309  0.2082  0.8166 -0.8099
  232MOL0     C30518   2.274   1.661   6.405 -0.5832  0.2228 -0.3822
  232MOL0     C30519   2.211   1.788   6.397 -0.0708 -0.0980 -0.1104
  232MOL0     C30520   2.113   1.820   6.296  0.4266 -1.0816  0.1521
  232MOL0     C30521   2.058   1.955   6.288 -0.2958 -0.0700 -0.6418
  232MOL0     O30522   2.111   2.043   6.383  0.0714  0.0174  0.2491
  232MOL0     C30523   2.060   2.172   6.385  0.5215 -0.4944 -0.9825
  232MOL0     C30524   1.978   2.214   6.491 -0.4165 -1.1152  0.1532
  232MOL0     C30525   1.929   2.347   6.494 -0.2849  0.6092  0.6600
  232MOL0     C30526   1.981   2.447   6.401  0.9806 -0.0929  0.9508
  232MOL0     O30527   1.935   2.573   6.415 -0.1089 -0.0572 -0.7616
  232MOL0     C30528   2.037   2.676   6.425  0.5075 -0.4744 -0.3326
  232MOL0     C30529   1.983   2.779   6.528 -0.5649  0.4484 -0.8208
  232MOL0     C30530   2.084   2.904   6.523  0.0144 -0.0459  0.0919
  232MOL0     C30531   2.039   3.000   6.640 -0.0865 -0.2823  0.5208
  232MOL0     C30532   1.907   3.085   6.628 -0.1452 -0.2561  1.3008
  232MOL0     C30533   1.908   3.178   6.512 -0.5645  0.0108  0.6599
  232MOL0     C30534   1.818   3.306   6.528  0.4668  0.0133  0.0648
  232MOL0     C30535   1.826   3.412   6.426 -0.1101 -0.1568  0.7599
  232MOL0    Cl30536   1.802   3.333   6.260  0.1572  0.0410 -0.5357
  232MOL0     C30537   2.072   2.403   6.299 -0.0334  0.9657 -0.6415
  232MOL0     C30538   2.102   2.267   6.294 -0.5641 -0.8402  0.5161
  232MOL0     O30539   1.977   1.986   6.205 -0.9056 -0.2135  0.4103
  232MOL0     C30540   2.067   1.721   6.212 -0.2231  0.4369 -0.3189
  232MOL0     C30541   2.142   1.601   6.206 -0.1611  0.2689 -0.1507
  232MOL0     N30542   2.793   1.360   5.976 -0.2236 -0.4425 -0.0598
  232MOL0     N30543   2.865   1.462   5.946  0.6737  0.4932  0.0248
  232MOL0     C30544   1.933   2.365   5.975 -0.1850  0.2195 -0.4041
  232MOL0     C30545   1.839   2.462   5.980 -0.5284 -0.3489 -0.3450
  232MOL0     C30546   1.574   2.787   5.842  0.1282 -1.0181  0.3647
  232MOL0     C30547   1.467   2.792   5.737  0.0357 -0.7235  0.4009
  232MOL0     C30548   1.369   2.888   5.745 -1.3600 -0.0963  0.5939
  232MOL0     C30549   1.382   2.987   5.841  0.3176  0.5053 -0.2401
  232MOL0     O30550   1.302   3.104   5.841  0.0486  0.5131 -0.0635
  232MOL0     C30551   1.247   3.149   5.722 -0.6831 -0.4392  0.5414
  232MOL0     C30552   1.233   3.293   5.713  0.5695 -0.1046 -0.2772
  232MOL0     C30553   1.195   3.333   5.571 -0.3004 -0.1748  0.1179
  232MOL0     C30554   1.066   3.278   5.525  0.4414 -1.0360  0.5772
  232MOL0     C30555   1.072   3.150   5.457  1.1662  0.8745  0.5019
  232MOL0     C30556   1.085   3.042   5.404  0.1340 -0.3084 -0.1762
  232MOL0     C30557   1.476   2.984   5.940 -0.1985  0.1320  0.3611
  232MOL0     C30558   1.570   2.882   5.943 -0.2615  0.0788 -0.3276
  232MOL0     H30559   2.031   2.713   5.856 -3.2939  0.3626 -1.6061
  232MOL0     H30560   2.203   2.533   5.860 -0.0096  1.4624 -0.3408
  232MOL0     H30561   2.320   2.384   5.981  1.8391  0.1642 -0.7773
  232MOL0     H30562   2.326   2.296   5.834  0.7893  0.0919  0.2460
  232MOL0     H30563   2.357   2.183   6.105 -1.3306  0.0365 -0.0638
  232MOL0     H30564   2.472   2.176   5.977 -0.1813 -3.0676 -1.3151
  232MOL0     H30565   2.314   2.042   5.827  2.1996  0.1089 -0.1423
  232MOL0     H30566   2.226   2.009   5.970  0.1663  0.1965  0.5455
  232MOL0     H30567   2.474   1.972   6.070 -0.9760  1.8113 -0.5416
  232MOL0     H30568   2.390   1.834   5.991 -0.3088  0.5239 -0.8022
  232MOL0     H30569   2.603   2.008   5.852 -0.0795  0.3577 -3.0195
  232MOL0     H30570   2.499   1.886   5.776  0.3012  1.7088 -0.3154
  232MOL0     H30571   2.615   1.735   5.966  0.9863  0.8841  0.5997
  232MOL0     H30572   2.739   1.860   5.972  2.9157 -1.8933 -1.8995
  232MOL0     H30573   2.663   1.734   5.707 -0.6996 -0.0582  0.5185
  232MOL0     H30574   2.797   1.850   5.734 -0.3136 -1.6878 -3.1288
  232MOL0     H30575   2.937   1.698   5.857  1.4530 -2.1387  0.4628
  232MOL0     H30576   2.877   1.634   5.705  2.8045 -0.2647  1.2358
  232MOL0     H30577   2.568   1.518   5.801 -1.3107 -4.9446  1.2359
  232MOL0     H30578   2.579   1.178   5.912  2.1529 -0.0906  1.7056
  232MOL0     H30579   2.468   1.329   5.886 -0.5977 -1.1172  0.4694
  232MOL0     H30580   2.601   1.251   6.134 -0.1712  0.7012 -1.0335
  232MOL0     H30581   2.429   1.216   6.097  1.0890 -1.3335 -1.6548
  232MOL0     H30582   2.558   1.492   6.123 -1.0077  1.1683 -1.7683
  232MOL0     H30583   2.394   1.474   6.074 -0.3742 -3.7725 -3.5430
  232MOL0     H30584   2.479   1.484   6.356 -2.2783  1.3529 -0.1754
  232MOL0     H30585   2.452   1.313   6.320  1.3043  0.3046  0.4412
  232MOL0     H30586   2.348   1.640   6.482  2.6642  0.8015 -3.1481
  232MOL0     H30587   2.240   1.861   6.472  0.4340 -0.3049 -0.1040
  232MOL0     H30588   1.935   2.145   6.563  1.3343  0.0140  2.4172
  232MOL0     H30589   1.860   2.376   6.572  0.4930  1.5553  1.0229
  232MOL0     H30590   2.051   2.731   6.332 -1.2080  2.6480  1.1029
  232MOL0     H30591   2.127   2.633   6.471 -0.1461 -0.2837  1.1727
  232MOL0     H30592   1.966   2.728   6.622 -1.9425 -0.0686 -1.3229
  232MOL0     H30593   1.886   2.824   6.503 -0.8109 -0.9041 -2.4782
  232MOL0     H30594   2.062   2.949   6.426 -1.1034  0.1155  0.3969
  232MOL0     H30595   2.190   2.878   6.524 -0.3844 -1.8341  1.4117
  232MOL0     H30596   2.023   2.939   6.729 -1.4662 -0.7150 -0.0140
  232MOL0     H30597   2.123   3.070   6.654  0.7706 -1.2281  0.2070
  232MOL0     H30598   1.896   3.148   6.716 -0.4300  1.0179  0.3710
  232MOL0     H30599   1.825   3.012   6.623  1.8956 -2.6532  0.8486
  232MOL0     H30600   1.862   3.122   6.430 -0.4800  0.3155  0.4028
  232MOL0     H30601   2.012   3.205   6.489  0.5182 -2.8640  1.7480
  232MOL0     H30602   1.718   3.263   6.519  1.0028 -1.1811 -0.2867
  232MOL0     H30603   1.835   3.346   6.629 -1.0486  0.1358  0.2879
  232MOL0     H30604   1.918   3.471   6.434 -0.8372  0.7792  2.9908
  232MOL0     H30605   1.751   3.489   6.447 -0.1105  0.9353 -2.6928
  232MOL0     H30606   2.134   2.472   6.242 -1.7103  0.1269 -3.7475
  232MOL0     H30607   2.178   2.239   6.221  1.6369  2.4402  1.2889
  232MOL0     H30608   1.998   1.736   6.130 -1.7882 -1.2526  0.6202
  232MOL0     H30609   2.124   1.517   6.139 -2.3074 -0.0529  0.7406
  232MOL0     H30610   1.902   2.265   6.002  0.0846  0.4128  0.6584
  232MOL0     H30611   1.742   2.446   6.026 -0.6970  1.0026 -0.2104
  232MOL0     H30612   1.472   2.719   5.656  4.9080 -0.1764 -0.1390
  232MOL0     H30613   1.289   2.898   5.672 -2.1183 -0.0015  1.4253
  232MOL0     H30614   1.152   3.098   5.703 -0.5306 -0.0444 -1.5694
  232MOL0     H30615   1.314   3.132   5.637 -0.7619  0.9475  0.1762
  232MOL0     H30616   1.159   3.324   5.787  1.6197 -0.3681  0.9053
  232MOL0     H30617   1.327   3.337   5.748 -0.4477  1.2283  0.8893
  232MOL0     H30618   1.283   3.323   5.507  2.3439  3.7731  2.7170
  232MOL0     H30619   1.178   3.441   5.570 -1.6594 -0.3672 -1.0061
  232MOL0     H30620   0.998   3.274   5.611  1.0873 -3.1305  1.0430
  232MOL0     H30621   1.028   3.336   5.440  1.9318 -2.7551 -1.3664
  232MOL0     H30622   1.102   2.954   5.346 -0.8576 -1.5896  1.3955
  232MOL0     H30623   1.476   3.069   6.009  1.1334  3.7111 -3.6150
  232MOL0     H30624   1.648   2.872   6.018 -2.5103 -1.7830  1.9480
  233MOL0     O30625   1.859   0.676   5.177  0.9203 -0.4197 -0.4529
  233MOL0     C30626   1.823   0.629   5.283 -0.0398  0.0852  0.3138
  233MOL0     O30627   1.878   0.517   5.342  0.3642  0.6345  0.1174
  233MOL0     C30628   1.991   0.466   5.290 -0.5295 -0.1013 -0.8396
  233MOL0     C30629   1.999   0.368   5.191 -0.1236 -1.3368 -1.0872
  233MOL0     C30630   2.122   0.309   5.161  0.2304 -0.1131 -0.0451
  233MOL0     C30631   2.243   0.348   5.202 -0.0313 -0.3565  0.3380
  233MOL0     O30632   2.364   0.299   5.158 -0.4162  0.5142  0.4455
  233MOL0     C30633   2.401   0.352   5.036  0.1117 -0.2609  0.9512
  233MOL0     C30634   2.378   0.241   4.929 -1.2179  0.4742  0.2286
  233MOL0     C30635   2.427   0.267   4.782 -0.0957  0.3870 -0.0625
  233MOL0     C30636   2.374   0.155   4.694  0.4615 -0.1062  0.1786
  233MOL0     C30637   2.417   0.176   4.543 -1.0160 -0.4583  0.1077
  233MOL0     C30638   2.379   0.309   4.467  0.2515 -0.3030  0.2464
  233MOL0     C30639   2.457   0.320   4.333  0.6817 -0.4437  0.1223
  233MOL0     C30640   2.404   0.433   4.251  1.2145 -0.1018 -0.0236
  233MOL0     N30641   2.274   0.421   4.185  0.5357  0.1569 -0.9983
  233MOL0     C30642   2.255   0.375   4.061  0.2547  0.1238  0.2936
  233MOL0     C30643   2.117   0.382   4.042 -0.0692 -0.7591 -0.3712
  233MOL0     C30644   2.041   0.342   3.916 -0.4545  0.4639 -0.6151
  233MOL0     C30645   1.970   0.209   3.942 -0.8512 -0.4373  0.4632
  233MOL0     C30646   1.836   0.227   4.015  0.6630 -0.0152 -1.0582
  233MOL0     C30647   1.728   0.265   3.909 -0.4942 -0.3053  0.3538
  233MOL0     O30648   1.618   0.334   3.977  0.4417  0.6060 -0.4017
  233MOL0     C30649   1.502   0.361   3.909  0.0895 -1.0001 -0.6513
  233MOL0     C30650   1.405   0.425   3.991 -0.0328 -0.6081  0.6882
  233MOL0     C30651   1.273   0.431   3.945 -0.7202 -0.2281  0.2270
  233MOL0     C30652   1.244   0.377   3.818  1.0023  0.0398  0.0170
  233MOL0     C30653   1.104   0.374   3.769 -1.1230 -0.0449 -0.0489
  233MOL0     O30654   1.010   0.373   3.864 -1.0049 -0.8441  0.1161
  233MOL0     C30655   0.872   0.367   3.864 -0.2180 -0.9321 -0.1124
  233MOL0     C30656   0.814   0.421   3.973  0.2207 -0.5679 -0.0344
  233MOL0     C30657   0.677   0.417   3.985  0.4213  0.0262 -0.4345
  233MOL0     C30658   0.595   0.386   3.877  0.1859  0.3550  1.2723
  233MOL0     O30659   0.457   0.383   3.893  0.3690 -0.2747  1.1394
  233MOL0     C30660   0.409   0.501   3.956  1.2396  0.1467 -0.4235
  233MOL0     C30661   0.273   0.529   3.901 -0.4614  0.2328 -0.0094
  233MOL0     C30662   0.161   0.438   3.952  0.3326 -1.2437 -0.7214
  233MOL0     C30663   0.171   0.291   3.942  0.2031  0.2947 -0.1188
  233MOL0     C30664   0.023   0.238   3.964  0.5796  0.8594 -0.0058
  233MOL0     C30665   0.024   0.085   3.936  0.7272 -0.4925 -0.5208
  233MOL0     C30666  -0.116   0.027   3.942 -0.6388  0.6385  0.1189
  233MOL0     C30667  -0.186   0.044   4.078  0.6997 -0.4005  1.0037
  233MOL0    Cl30668  -0.334  -0.047   4.096 -0.1854  0.4341  0.4217
  233MOL0     C30669   0.656   0.329   3.759 -0.4121  0.1734 -0.6335
  233MOL0     C30670   0.792   0.325   3.756  0.0586 -0.6214  0.5274
  233MOL0     O30671   1.087   0.349   3.653  0.3086  0.6790  0.3072
  233MOL0     C30672   1.346   0.329   3.732 -0.1950 -0.4013  0.4118
  233MOL0     C30673   1.475   0.326   3.778 -0.3713  0.6874  0.1105
  233MOL0     N30674   2.056   0.437   4.155  0.8747  0.3848 -0.2135
  233MOL0     N30675   2.146   0.460   4.244  0.5452  0.7918 -0.1813
  233MOL0     C30676   2.243   0.456   5.295  0.2573  0.5106  0.2961
  233MOL0     C30677   2.122   0.508   5.346  0.5882 -0.4828 -1.0221
  233MOL0     C30678   1.699   0.683   5.329  0.4685  0.9669 -0.3114
  233MOL0     C30679   1.661   0.650   5.459  0.2172 -0.1225  0.1122
  233MOL0     C30680   1.544   0.690   5.517  0.0405  0.2051  0.1477
  233MOL0     C30681   1.445   0.767   5.438  0.1484 -0.5943  0.0675
  233MOL0     O30682   1.331   0.821   5.479  0.2916 -0.8303 -0.2278
  233MOL0     C30683   1.254   0.744   5.578  0.2975 -0.6493  0.0527
  233MOL0     C30684   1.132   0.823   5.618  0.1367 -0.0314  0.1862
  233MOL0     C30685   1.053   0.878   5.504  0.7167  0.5137 -0.0179
  233MOL0     C30686   1.085   1.023   5.468 -0.1083  0.1893  0.9111
  233MOL0     C30687   1.005   1.055   5.357  0.8088  0.1255  0.6497
  233MOL0     C30688   0.940   1.064   5.260 -0.0330  0.1230  0.3407
  233MOL0     C30689   1.477   0.793   5.310 -0.5042  0.9385 -0.2090
  233MOL0     C30690   1.601   0.753   5.253  0.0887 -0.1148  0.0483
  233MOL0     H30691   1.911   0.333   5.139 -0.3521 -0.0281 -1.6249
  233MOL0     H30692   2.114   0.220   5.099 -4.1322 -2.1551  2.8708
  233MOL0     H30693   2.510   0.359   5.037  0.1863 -1.2327  0.6634
  233MOL0     H30694   2.354   0.448   5.011 -2.7396 -1.2736  1.9747
  233MOL0     H30695   2.272   0.221   4.915 -0.6919 -4.1600  1.2099
  233MOL0     H30696   2.426   0.153   4.974 -0.6762  1.4407  1.6199
  233MOL0     H30697   2.535   0.280   4.769  0.5952 -1.8085  2.4456
  233MOL0     H30698   2.376   0.358   4.749  0.4020  0.7130  0.0514
  233MOL0     H30699   2.415   0.061   4.733 -1.8549 -2.3507 -2.3371
  233MOL0     H30700   2.265   0.153   4.703  0.2134  1.6723 -1.8468
  233MOL0     H30701   2.366   0.095   4.489 -2.6060  0.4001  0.2613
  233MOL0     H30702   2.523   0.152   4.531 -1.5809 -2.1900 -2.3507
  233MOL0     H30703   2.423   0.398   4.512 -2.3202  1.5518 -0.6622
  233MOL0     H30704   2.272   0.328   4.458  0.1902  1.7561  3.7055
  233MOL0     H30705   2.564   0.338   4.345  1.4391  0.4504 -5.2756
  233MOL0     H30706   2.461   0.229   4.272  2.7581 -0.0865 -0.3363
  233MOL0     H30707   2.480   0.448   4.174  1.2352  0.5442  0.1148
  233MOL0     H30708   2.408   0.524   4.312  0.6155  0.3618 -0.6638
  233MOL0     H30709   2.326   0.349   3.983  0.1513 -2.4542  0.9490
  233MOL0     H30710   2.115   0.324   3.839 -0.3556 -1.2720 -0.1482
  233MOL0     H30711   1.973   0.418   3.876  1.9360  4.1666  1.6517
  233MOL0     H30712   2.023   0.125   3.987 -0.3088 -0.4455 -0.1834
  233MOL0     H30713   1.955   0.180   3.837  1.6053  1.1916 -0.4235
  233MOL0     H30714   1.819   0.139   4.078  1.1143 -0.9596 -2.2083
  233MOL0     H30715   1.863   0.310   4.080  0.9455  1.4251 -2.9306
  233MOL0     H30716   1.687   0.173   3.866  2.3286 -2.5610  2.0756
  233MOL0     H30717   1.772   0.334   3.837  0.6919  1.8956  3.0317
  233MOL0     H30718   1.421   0.460   4.092  1.9669  1.7850 -0.3639
  233MOL0     H30719   1.193   0.464   4.010  0.3495  1.5757  0.7023
  233MOL0     H30720   0.878   0.470   4.046 -0.2999 -0.0618  0.0892
  233MOL0     H30721   0.631   0.449   4.078 -0.0233 -1.8387  0.0411
  233MOL0     H30722   0.474   0.585   3.930  1.2105 -1.1123 -5.7017
  233MOL0     H30723   0.407   0.489   4.065 -0.1217  2.9655 -0.0404
  233MOL0     H30724   0.285   0.514   3.794 -1.1740 -0.0408 -0.0612
  233MOL0     H30725   0.253   0.633   3.927 -2.2967  0.1539 -0.9500
  233MOL0     H30726   0.076   0.470   3.891 -0.7664 -0.3191  1.1876
  233MOL0     H30727   0.126   0.456   4.055  2.6535  1.0243 -0.2251
  233MOL0     H30728   0.213   0.260   3.845 -0.9186  0.2522 -0.6081
  233MOL0     H30729   0.240   0.262   4.022  0.3198 -0.1826 -0.3870
  233MOL0     H30730  -0.044   0.284   3.891 -0.0854  2.0891  1.3224
  233MOL0     H30731  -0.015   0.267   4.063 -0.5289 -2.0598  0.5422
  233MOL0     H30732   0.089   0.026   4.001  0.5623 -0.9959 -0.8041
  233MOL0     H30733   0.054   0.086   3.831 -2.3650  2.2193 -1.5650
  233MOL0     H30734  -0.168   0.069   3.855  1.6349  1.9014 -0.7161
  233MOL0     H30735  -0.099  -0.078   3.915  0.6093  1.0840 -0.9309
  233MOL0     H30736  -0.212   0.148   4.097  1.8075 -0.0706  0.8330
  233MOL0     H30737  -0.111   0.012   4.151 -1.1915 -4.9889  1.2846
  233MOL0     H30738   0.597   0.295   3.674  0.0045 -0.8882 -0.5174
  233MOL0     H30739   0.844   0.290   3.667  2.3443  2.1456  0.6296
  233MOL0     H30740   1.332   0.275   3.638 -0.3527 -1.4483  1.0193
  233MOL0     H30741   1.551   0.282   3.715 -0.6400  0.4889 -0.0787
  233MOL0     H30742   2.339   0.501   5.317 -0.0867  0.6890  1.5027
  233MOL0     H30743   2.144   0.575   5.429  2.0419  0.6299 -2.2276
  233MOL0     H30744   1.735   0.600   5.521 -0.2884 -2.1309 -0.8454
  233MOL0     H30745   1.514   0.650   5.614  0.2882  2.5882  1.2658
  233MOL0     H30746   1.323   0.720   5.660  0.0638  2.4462  1.3205
  233MOL0     H30747   1.220   0.653   5.529 -3.2314  2.1378 -3.2807
  233MOL0     H30748   1.075   0.757   5.684 -1.7056 -0.0587 -1.3408
  233MOL0     H30749   1.171   0.900   5.685 -3.0309 -0.1690  2.4079
  233MOL0     H30750   0.947   0.859   5.524  0.7661  2.5883  2.9188
  233MOL0     H30751   1.064   0.823   5.410  0.4257  0.7539 -0.1940
  233MOL0     H30752   1.070   1.093   5.550  3.9757  1.8125  0.4926
  233MOL0     H30753   1.186   1.023   5.426 -0.4165 -2.3222 -0.0552
  233MOL0     H30754   0.871   1.052   5.179 -2.0716 -2.3131  2.2467
  233MOL0     H30755   1.410   0.850   5.246 -1.2445  0.3896  0.0561
  233MOL0     H30756   1.620   0.790   5.153 -0.2507  2.1291  0.7395
  234MOL0     O30757   9.288   7.294   8.249  0.6871  0.3984  0.2069
  234MOL0     C30758   9.197   7.369   8.291 -0.0512 -1.2413 -0.0076
  234MOL0     O30759   9.162   7.389   8.427 -0.4687 -0.9888  0.6441
  234MOL0     C30760   9.190   7.291   8.523 -0.3229 -0.8584 -0.6128
  234MOL0     C30761   9.206   7.154   8.500 -0.3004  0.3627  0.7775
  234MOL0     C30762   9.219   7.059   8.614 -0.2140 -0.3758  0.4579
  234MOL0     C30763   9.203   7.108   8.747  0.5080 -0.4951  0.3649
  234MOL0     O30764   9.217   7.040   8.867  0.0050  0.0931 -0.0367
  234MOL0     C30765   9.247   6.897   8.848 -0.0074  0.5526  0.0842
  234MOL0     C30766   9.275   6.830   8.983 -0.3038 -0.6720  0.0988
  234MOL0     C30767   9.149   6.781   9.050 -0.6649 -0.3068 -0.2224
  234MOL0     C30768   9.158   6.687   9.170 -1.5602  0.5229 -0.7192
  234MOL0     C30769   9.216   6.759   9.295 -0.4624 -0.6145  0.1382
  234MOL0     C30770   9.377   6.779   9.298  0.1307  0.6498  0.1766
  234MOL0     C30771   9.438   6.802   9.435 -0.3920 -0.3669 -0.1564
  234MOL0     C30772   9.405   6.940   9.498 -0.5640  0.5609 -0.7006
  234MOL0     N30773   9.464   6.953   9.629  0.4841 -0.3720  0.3010
  234MOL0     C30774   9.421   6.919   9.760 -0.4075 -0.3547  0.1036
  234MOL0     C30775   9.523   6.952   9.836 -0.5701 -0.2421 -0.7739
  234MOL0     C30776   9.519   6.944   9.986  0.0681 -0.4491  0.4009
  234MOL0     C30777   9.569   7.076  10.054  0.3050  0.5847 -0.0083
  234MOL0     C30778   9.486   7.203  10.012 -0.1694 -0.3190  1.0365
  234MOL0     C30779   9.341   7.203  10.071 -0.1870  1.2422  0.0222
  234MOL0     O30780   9.339   7.232  10.215  0.0593 -0.4490  0.6600
  234MOL0     C30781   9.217   7.237  10.260  1.0942  0.1232  1.1412
  234MOL0     C30782   9.091   7.202  10.203 -0.5117 -1.0716 -0.5229
  234MOL0     C30783   8.971   7.218  10.284 -0.5440  0.5668  0.0051
  234MOL0     C30784   8.970   7.272  10.414 -1.3010  0.9093 -0.3606
  234MOL0     C30785   8.851   7.295  10.493  0.0386 -0.0993  0.2604
  234MOL0     O30786   8.853   7.376  10.597 -0.6034 -0.0727 -0.9299
  234MOL0     C30787   8.756   7.391  10.694 -0.1937  0.4588  0.2860
  234MOL0     C30788   8.740   7.524  10.741  0.9498  1.2473  0.0807
  234MOL0     C30789   8.651   7.544  10.850  0.2979  0.2711 -0.3099
  234MOL0     C30790   8.579   7.442  10.909 -0.9615 -0.7543  0.6521
  234MOL0     O30791   8.523   7.462  11.035  0.6778  0.6069  0.5717
  234MOL0     C30792   8.503   7.574  11.118  0.3442 -0.5053 -0.0391
  234MOL0     C30793   8.423   7.543  11.253 -0.2206  0.7380 -0.2100
  234MOL0     C30794   8.486   7.426  11.334  0.6335  0.3101 -0.0931
  234MOL0     C30795   8.616   7.474  11.416  1.3378 -0.1114  1.0310
  234MOL0     C30796   8.721   7.369  11.451  0.2922  0.7170 -0.3135
  234MOL0     C30797   8.646   7.264  11.529  0.2263 -0.0523 -0.6492
  234MOL0     C30798   8.590   7.325  11.656  0.4422  0.4694  0.3627
  234MOL0     C30799   8.523   7.218  11.743 -0.0323 -0.1226  0.3360
  234MOL0    Cl30800   8.594   7.054  11.778 -0.3236  0.4387 -0.3124
  234MOL0     C30801   8.605   7.309  10.861 -0.1447 -0.1592 -0.4017
  234MOL0     C30802   8.689   7.282  10.759  0.1875 -0.4248  0.5464
  234MOL0     O30803   8.751   7.243  10.448 -0.0136  0.5890 -1.2935
  234MOL0     C30804   9.099   7.291  10.470 -0.8336  0.1623 -0.3924
  234MOL0     C30805   9.215   7.274  10.393  0.4041  0.0088  0.1428
  234MOL0     N30806   9.630   7.002   9.762  0.2822  0.4466 -0.5146
  234MOL0     N30807   9.581   7.020   9.648 -0.2017  0.2700 -0.0209
  234MOL0     C30808   9.213   7.251   8.761 -0.3678  0.1637  0.0767
  234MOL0     C30809   9.195   7.342   8.656 -0.0796  0.2540  0.2367
  234MOL0     C30810   9.144   7.461   8.188 -0.4119  0.3246  0.1436
  234MOL0     C30811   9.026   7.548   8.213 -0.8058  1.2048  0.6336
  234MOL0     C30812   8.989   7.638   8.113  0.7716  0.0106  1.1866
  234MOL0     C30813   9.042   7.632   7.982 -0.1666  0.2035 -0.3727
  234MOL0     O30814   9.011   7.704   7.874  0.1922 -0.3605 -0.0791
  234MOL0     C30815   8.909   7.802   7.877  0.3040  0.5143 -0.0630
  234MOL0     C30816   8.777   7.735   7.877 -0.5344 -0.3155  0.3974
  234MOL0     C30817   8.684   7.809   7.968 -0.2679 -0.0730 -0.5568
  234MOL0     C30818   8.536   7.766   8.005 -0.3083 -0.0381 -0.4191
  234MOL0     C30819   8.527   7.622   8.016  0.5158  0.6403 -0.6676
  234MOL0     C30820   8.527   7.500   8.018 -0.5100  0.2495  0.8637
  234MOL0     C30821   9.161   7.555   7.965  0.2370  0.5826 -0.7044
  234MOL0     C30822   9.207   7.468   8.069  0.4146 -0.5967  0.4946
  234MOL0     H30823   9.210   7.126   8.395  2.9567  1.7247  0.4115
  234MOL0     H30824   9.221   6.955   8.585 -1.4558  0.2757 -2.3562
  234MOL0     H30825   9.346   6.897   8.802 -0.0649 -1.2416 -0.1091
  234MOL0     H30826   9.171   6.845   8.790  0.5793 -2.1101  1.5304
  234MOL0     H30827   9.317   6.905   9.050  0.2441 -1.3580  0.5465
  234MOL0     H30828   9.340   6.743   8.967 -1.1584 -1.4104  0.5158
  234MOL0     H30829   9.089   6.743   8.966 -1.5595 -2.2223  1.1946
  234MOL0     H30830   9.093   6.872   9.074 -1.2871 -0.7680  0.1181
  234MOL0     H30831   9.060   6.648   9.200 -1.8335  1.8551  0.2624
  234MOL0     H30832   9.210   6.594   9.149 -1.1147 -0.2561  3.0372
  234MOL0     H30833   9.180   6.700   9.379 -0.7866  1.1566  1.3044
  234MOL0     H30834   9.178   6.859   9.317 -0.2184 -1.2645  4.4518
  234MOL0     H30835   9.408   6.862   9.234  3.9504 -0.6364  0.1271
  234MOL0     H30836   9.420   6.690   9.252  0.4517  0.4812  0.7892
  234MOL0     H30837   9.424   6.720   9.505 -0.1988 -0.6155 -0.4077
  234MOL0     H30838   9.546   6.791   9.421 -0.6407 -3.6126 -0.2480
  234MOL0     H30839   9.296   6.947   9.494 -0.8981 -3.0010 -3.7529
  234MOL0     H30840   9.434   7.019   9.428  3.2696 -1.2796 -1.4973
  234MOL0     H30841   9.337   6.858   9.790 -1.7830  1.5923  0.3796
  234MOL0     H30842   9.577   6.856  10.015  1.0048 -0.2410 -0.7972
  234MOL0     H30843   9.414   6.925  10.011 -0.3974  0.0492 -1.0944
  234MOL0     H30844   9.676   7.085  10.033  0.6111 -0.6776  0.9248
  234MOL0     H30845   9.565   7.054  10.161  7.5719 -4.2454  0.0022
  234MOL0     H30846   9.528   7.293  10.057 -0.1467  0.2696 -0.1260
  234MOL0     H30847   9.469   7.219   9.905 -0.3267  4.1512  1.5177
  234MOL0     H30848   9.299   7.105  10.044 -1.6002  1.1112  2.4458
  234MOL0     H30849   9.285   7.282  10.021 -3.3976 -0.4469  0.6823
  234MOL0     H30850   9.079   7.168  10.100 -0.9670 -0.4831 -0.6681
  234MOL0     H30851   8.875   7.196  10.239 -0.7544 -2.4613  1.6739
  234MOL0     H30852   8.786   7.605  10.685  0.6022 -0.3320 -2.7013
  234MOL0     H30853   8.637   7.644  10.891 -0.9203 -0.5015  1.2601
  234MOL0     H30854   8.455   7.657  11.067  3.3021  1.7207  0.4936
  234MOL0     H30855   8.608   7.604  11.127  1.4717 -1.7922 -5.6226
  234MOL0     H30856   8.320   7.525  11.222 -0.1443  2.6761 -1.7390
  234MOL0     H30857   8.428   7.625  11.325  0.6020  0.3383  0.2111
  234MOL0     H30858   8.510   7.346  11.263  2.0946  0.1521  0.5491
  234MOL0     H30859   8.403   7.397  11.399  0.1142  1.9482  0.0326
  234MOL0     H30860   8.665   7.548  11.352  0.2363 -0.7034 -0.5653
  234MOL0     H30861   8.577   7.538  11.496  1.2528  3.4152 -1.5978
  234MOL0     H30862   8.814   7.404  11.498  0.1173  0.6939  0.0550
  234MOL0     H30863   8.767   7.331  11.360 -0.6739 -1.2894 -0.0357
  234MOL0     H30864   8.701   7.171  11.546 -1.5614 -0.8710  1.1402
  234MOL0     H30865   8.565   7.216  11.472 -1.3143  0.3664  1.1007
  234MOL0     H30866   8.667   7.375  11.714  0.4335  0.9487 -0.0326
  234MOL0     H30867   8.505   7.389  11.629 -0.2805 -0.0847  1.2693
  234MOL0     H30868   8.431   7.197  11.688 -0.0706  0.0486  0.3341
  234MOL0     H30869   8.506   7.274  11.836  0.8937  2.3904 -0.9182
  234MOL0     H30870   8.573   7.221  10.917 -0.5041  0.1194 -0.1632
  234MOL0     H30871   8.722   7.180  10.741  0.1051 -0.8911  2.7600
  234MOL0     H30872   9.113   7.317  10.574  1.1663 -1.3576 -0.2115
  234MOL0     H30873   9.306   7.301  10.445 -0.4138 -1.1908  2.3418
  234MOL0     H30874   9.233   7.287   8.861  0.4457 -0.1204  0.0290
  234MOL0     H30875   9.179   7.449   8.662 -1.1209  0.0464  3.4276
  234MOL0     H30876   8.965   7.544   8.302 -1.4045 -1.6603  0.1907
  234MOL0     H30877   8.897   7.692   8.135 -0.5271 -2.4956  2.4863
  234MOL0     H30878   8.909   7.854   7.780 -2.1228  0.5537 -0.1148
  234MOL0     H30879   8.926   7.871   7.959  1.6692  2.4973 -1.9051
  234MOL0     H30880   8.746   7.745   7.772  1.7167  0.3747 -0.2707
  234MOL0     H30881   8.791   7.629   7.899 -1.9496 -1.0380 -1.8698
  234MOL0     H30882   8.662   7.913   7.942 -1.1107 -0.0402  0.2113
  234MOL0     H30883   8.722   7.804   8.070 -1.3136 -3.7705 -0.1854
  234MOL0     H30884   8.488   7.823   8.085  1.9488  1.1964  0.1496
  234MOL0     H30885   8.474   7.795   7.920 -2.5337 -1.2420  0.6957
  234MOL0     H30886   8.521   7.393   8.012  0.6487  0.2344 -0.3053
  234MOL0     H30887   9.212   7.545   7.869 -0.8795  1.8494 -1.4576
  234MOL0     H30888   9.291   7.408   8.037 -0.9054 -2.4343  0.3194
  235MOL0     O30889   4.346   4.186   8.839 -0.7597 -0.0437 -1.0557
  235MOL0     C30890   4.347   4.293   8.784 -0.1597 -0.3489 -0.3850
  235MOL0     O30891   4.359   4.422   8.836 -0.1124  0.1967  0.1699
  235MOL0     C30892   4.316   4.432   8.968  0.4816  0.1122 -0.2577
  235MOL0     C30893   4.186   4.465   9.002 -0.0300  0.2899 -0.6871
  235MOL0     C30894   4.146   4.465   9.137  1.3483 -0.0429  0.4970
  235MOL0     C30895   4.240   4.443   9.241 -0.1024 -0.0367 -0.4948
  235MOL0     O30896   4.193   4.457   9.369  0.0481  1.1765  0.4372
  235MOL0     C30897   4.298   4.499   9.464 -0.4650 -1.0140 -0.8040
  235MOL0     C30898   4.252   4.612   9.560  0.0444  0.2974 -0.7396
  235MOL0     C30899   4.356   4.675   9.665 -0.5811 -0.4341  0.5730
  235MOL0     C30900   4.387   4.580   9.782 -0.6784 -0.2734 -0.6295
  235MOL0     C30901   4.485   4.661   9.869 -0.1238 -0.4177 -0.3291
  235MOL0     C30902   4.422   4.704  10.000 -0.5977 -1.0849 -0.0155
  235MOL0     C30903   4.531   4.749  10.105  0.0302  1.0659 -0.8434
  235MOL0     C30904   4.489   4.761  10.252  0.6045 -0.2568  0.0310
  235MOL0     N30905   4.421   4.891  10.265  0.3483  0.5145 -0.0977
  235MOL0     C30906   4.290   4.910  10.245  0.5247  0.2552 -0.3663
  235MOL0     C30907   4.267   5.043  10.242  0.5520  1.2098 -0.6160
  235MOL0     C30908   4.140   5.110  10.213 -0.5742  0.1407  1.1285
  235MOL0     C30909   4.048   5.126  10.326 -0.1771 -0.3213 -0.0683
  235MOL0     C30910   4.091   5.234  10.417 -0.5763 -1.2229  0.4344
  235MOL0     C30911   3.988   5.246  10.522 -0.0570 -1.0015  0.3982
  235MOL0     O30912   4.047   5.330  10.620 -0.2292  0.1422 -0.8311
  235MOL0     C30913   3.971   5.361  10.740 -0.8764  0.0332 -0.1192
  235MOL0     C30914   4.042   5.437  10.832  0.2161 -0.6626  0.6624
  235MOL0     C30915   3.984   5.478  10.954  0.1382 -0.5528  0.4842
  235MOL0     C30916   3.852   5.433  10.987 -0.0452  0.5628  0.1266
  235MOL0     C30917   3.801   5.462  11.120  0.0874 -0.3587  0.4504
  235MOL0     O30918   3.690   5.402  11.153 -0.5137 -0.3705  0.3333
  235MOL0     C30919   3.624   5.428  11.265 -0.4284 -0.0056 -0.2460
  235MOL0     C30920   3.624   5.547  11.342 -0.3506 -0.3228 -0.0148
  235MOL0     C30921   3.533   5.568  11.449 -0.4275  0.1422  0.3420
  235MOL0     C30922   3.439   5.472  11.480 -0.7443  0.4591 -0.7239
  235MOL0     O30923   3.357   5.502  11.580  0.5515 -0.5268 -0.0773
  235MOL0     C30924   3.249   5.414  11.608  0.2664 -0.1417 -0.8074
  235MOL0     C30925   3.156   5.464  11.720  0.6667  0.2497  0.3394
  235MOL0     C30926   3.084   5.598  11.689  0.1212  0.4577 -0.2534
  235MOL0     C30927   2.968   5.627  11.790 -0.1399  0.5504 -0.3550
  235MOL0     C30928   2.853   5.732  11.763 -0.1140 -0.0721 -0.3608
  235MOL0     C30929   2.795   5.783  11.895  0.3241 -0.3501  0.0398
  235MOL0     C30930   2.704   5.907  11.866 -0.4951  0.3429 -0.7283
  235MOL0     C30931   2.673   6.006  11.986  0.2089  0.4904 -1.0116
  235MOL0    Cl30932   2.555   5.934  12.110 -0.1166  0.0097  0.2369
  235MOL0     C30933   3.446   5.350  11.409 -0.3955 -0.3472 -0.3454
  235MOL0     C30934   3.538   5.328  11.309 -0.2014 -0.1444  0.5998
  235MOL0     O30935   3.881   5.522  11.195 -0.3510 -0.9243 -0.3848
  235MOL0     C30936   3.786   5.360  10.889 -0.0046  0.4455 -0.0461
  235MOL0     C30937   3.843   5.322  10.769  0.3067 -0.0889  0.6837
  235MOL0     N30938   4.395   5.109  10.252  0.0602 -0.0201 -0.4599
  235MOL0     N30939   4.480   5.013  10.271 -0.5090 -0.2204  0.2177
  235MOL0     C30940   4.375   4.405   9.208  0.7458  0.3187  0.4341
  235MOL0     C30941   4.409   4.403   9.071 -0.5033 -0.1513 -0.3439
  235MOL0     C30942   4.315   4.280   8.636  0.7084  0.5266 -0.3035
  235MOL0     C30943   4.274   4.395   8.573 -0.2139  0.1649  0.2336
  235MOL0     C30944   4.240   4.390   8.439 -1.1037  0.3958 -0.4185
  235MOL0     C30945   4.222   4.266   8.374 -0.5786  0.7999  0.8071
  235MOL0     O30946   4.163   4.272   8.244  0.5228 -0.3275 -0.3712
  235MOL0     C30947   4.099   4.157   8.195 -0.4653 -0.6004  0.0838
  235MOL0     C30948   4.028   4.191   8.063 -0.3634  0.0047  0.5043
  235MOL0     C30949   3.912   4.278   8.060  1.2228  0.2745  0.1151
  235MOL0     C30950   3.837   4.309   7.930  0.6961  0.5858  0.5142
  235MOL0     C30951   3.922   4.391   7.835  0.3078 -0.1761  0.5289
  235MOL0     C30952   4.021   4.453   7.782  0.7530 -0.0985 -1.1058
  235MOL0     C30953   4.257   4.148   8.435  0.0681 -0.4596  0.1605
  235MOL0     C30954   4.307   4.154   8.569  0.4879 -0.2108 -0.2568
  235MOL0     H30955   4.119   4.489   8.921 -0.9177  0.6879  0.1431
  235MOL0     H30956   4.044   4.492   9.161  1.2033 -0.4417  0.3270
  235MOL0     H30957   4.393   4.532   9.420 -1.3324 -1.5368 -3.2536
  235MOL0     H30958   4.332   4.414   9.523  4.0703  1.9315  1.3463
  235MOL0     H30959   4.167   4.577   9.619  0.0328  1.1644 -0.2194
  235MOL0     H30960   4.215   4.699   9.506  1.4961 -0.6938 -3.4968
  235MOL0     H30961   4.341   4.776   9.704  3.4102 -0.0578  1.5748
  235MOL0     H30962   4.443   4.689   9.600 -2.1364 -1.5755 -1.9223
  235MOL0     H30963   4.297   4.547   9.835 -0.4904 -4.1306 -2.4156
  235MOL0     H30964   4.413   4.485   9.736 -2.4145 -0.6292 -0.9446
  235MOL0     H30965   4.523   4.748   9.816  1.2311 -0.0130  1.2182
  235MOL0     H30966   4.572   4.598   9.891 -0.5094 -0.6638  0.5451
  235MOL0     H30967   4.371   4.622  10.052 -0.2853  0.5870  3.2004
  235MOL0     H30968   4.347   4.782   9.980  0.6940  0.6436  1.5619
  235MOL0     H30969   4.616   4.681  10.097 -0.5471  0.4704 -2.0754
  235MOL0     H30970   4.580   4.844  10.080  3.2646 -0.4306 -0.7144
  235MOL0     H30971   4.580   4.775  10.312  1.7048  1.1081 -1.8320
  235MOL0     H30972   4.417   4.685  10.282 -2.2481  2.3965  0.4274
  235MOL0     H30973   4.222   4.827  10.229  0.0049  0.5745  0.1112
  235MOL0     H30974   4.089   5.051  10.137 -1.5429  1.2590  0.8789
  235MOL0     H30975   4.152   5.201  10.153 -4.2643 -2.4441 -4.2990
  235MOL0     H30976   4.047   5.030  10.377 -2.4695  0.3640  1.3266
  235MOL0     H30977   3.943   5.149  10.302 -0.4323  0.1773  1.4336
  235MOL0     H30978   4.192   5.225  10.459 -0.7785  1.9821  1.9036
  235MOL0     H30979   4.083   5.332  10.371  0.2959  0.3929  3.4369
  235MOL0     H30980   3.970   5.152  10.575 -1.4401 -0.8303  0.2821
  235MOL0     H30981   3.898   5.287  10.475 -1.5235 -2.4989  1.7696
  235MOL0     H30982   4.145   5.469  10.817 -0.1586  1.7788  2.6836
  235MOL0     H30983   4.050   5.544  11.009  1.4542 -1.2286 -0.2262
  235MOL0     H30984   3.692   5.627  11.315 -1.9421  1.1267  0.1430
  235MOL0     H30985   3.530   5.668  11.490  0.3745 -0.2547  1.3934
  235MOL0     H30986   3.297   5.316  11.616 -1.0748 -0.7944 -0.4818
  235MOL0     H30987   3.186   5.395  11.521 -0.9053 -2.6267  0.4852
  235MOL0     H30988   3.218   5.471  11.809  0.4270  0.6758  0.4726
  235MOL0     H30989   3.089   5.379  11.734  0.6154 -0.6372 -3.8094
  235MOL0     H30990   3.039   5.592  11.589 -2.5023 -2.3553  0.9274
  235MOL0     H30991   3.161   5.676  11.684 -0.9864  1.5044 -3.1987
  235MOL0     H30992   2.920   5.529  11.796  2.0644 -0.5628  0.0640
  235MOL0     H30993   3.011   5.636  11.890  0.6730  0.2053 -0.6635
  235MOL0     H30994   2.776   5.694  11.696  0.0773 -2.1264  0.5297
  235MOL0     H30995   2.899   5.811  11.703  0.1646  1.5775  1.8929
  235MOL0     H30996   2.882   5.804  11.957  1.6051 -0.1291 -1.7312
  235MOL0     H30997   2.727   5.710  11.941  2.2842 -2.6955 -0.5622
  235MOL0     H30998   2.752   5.980  11.800 -0.7397  1.2400  0.0589
  235MOL0     H30999   2.604   5.878  11.832 -1.5735  2.4014  0.4806
  235MOL0     H31000   2.619   6.090  11.941  1.3494  0.8570 -1.7220
  235MOL0     H31001   2.765   6.046  12.028  1.7457 -1.2239 -2.5542
  235MOL0     H31002   3.374   5.273  11.436  0.2382  0.1162  3.0885
  235MOL0     H31003   3.526   5.235  11.254 -1.2813 -0.0377  0.6255
  235MOL0     H31004   3.683   5.329  10.904 -0.8470 -0.0193 -5.0731
  235MOL0     H31005   3.785   5.273  10.691 -0.3575  0.5220  0.7889
  235MOL0     H31006   4.453   4.370   9.275 -0.3996  1.8503  2.7278
  235MOL0     H31007   4.511   4.382   9.037  0.1909 -0.4424  1.7909
  235MOL0     H31008   4.266   4.492   8.620 -0.7422  0.9485 -1.4018
  235MOL0     H31009   4.210   4.478   8.382  2.8428 -0.5674 -4.4830
  235MOL0     H31010   4.041   4.107   8.273  0.7926  0.9860  2.1560
  235MOL0     H31011   4.172   4.080   8.169 -0.4292 -0.4186 -0.3584
  235MOL0     H31012   4.108   4.230   8.000 -1.0422 -2.4013 -2.0273
  235MOL0     H31013   3.998   4.106   8.001  1.2464  1.1200 -1.9712
  235MOL0     H31014   3.934   4.371   8.113  2.1099 -0.7290  1.5836
  235MOL0     H31015   3.847   4.210   8.116 -0.9746  0.5636 -1.9183
  235MOL0     H31016   3.782   4.224   7.888  1.3496  0.1685  0.4956
  235MOL0     H31017   3.766   4.387   7.962  0.9236  1.6578 -1.3990
  235MOL0     H31018   4.109   4.506   7.752  0.6675  2.8179  3.1151
  235MOL0     H31019   4.251   4.054   8.382 -2.0756 -0.2462 -0.0544
  235MOL0     H31020   4.335   4.057   8.610 -0.4172 -0.7988 -0.9805
  236MOL0     O31021   8.620   8.297   9.951  0.0447  0.0316  0.1744
  236MOL0     C31022   8.589   8.180   9.950 -0.8189  0.4128  0.0546
  236MOL0     O31023   8.579   8.100  10.067  0.7081 -0.2596  0.1891
  236MOL0     C31024   8.607   8.158  10.191 -0.1213 -0.2494 -0.6448
  236MOL0     C31025   8.701   8.109  10.288 -0.7486  0.3253 -0.2515
  236MOL0     C31026   8.713   8.175  10.417  0.5170  0.7090  0.7374
  236MOL0     C31027   8.635   8.283  10.448  1.0045 -0.5071 -0.1975
  236MOL0     O31028   8.658   8.362  10.553 -0.4095  0.2050 -0.0673
  236MOL0     C31029   8.712   8.303  10.661 -0.5744 -0.1890  0.4340
  236MOL0     C31030   8.667   8.382  10.780  0.2111  0.2374 -0.1675
  236MOL0     C31031   8.517   8.387  10.808  0.1342  0.6611  0.7747
  236MOL0     C31032   8.475   8.505  10.904 -0.7267  0.0051 -0.0799
  236MOL0     C31033   8.514   8.465  11.046 -0.5881  0.3994 -1.4693
  236MOL0     C31034   8.455   8.571  11.141 -0.5617  0.1176  0.5116
  236MOL0     C31035   8.459   8.535  11.285  0.2220  0.9498 -1.3189
  236MOL0     C31036   8.456   8.656  11.375  0.3676 -0.1719  0.3248
  236MOL0     N31037   8.432   8.613  11.513 -0.3972  0.0901  0.6526
  236MOL0     C31038   8.529   8.558  11.604 -0.4524  0.5349  1.0858
  236MOL0     C31039   8.451   8.503  11.697  0.5417 -0.1394 -0.6619
  236MOL0     C31040   8.502   8.438  11.826 -0.5433  0.3618 -0.2586
  236MOL0     C31041   8.612   8.522  11.902 -0.0549  0.0013 -0.8652
  236MOL0     C31042   8.545   8.628  11.988 -0.5999 -0.3253  0.5220
  236MOL0     C31043   8.646   8.740  12.036  0.8076 -0.9423 -0.6174
  236MOL0     O31044   8.678   8.816  11.916  0.0449  0.3813 -0.2803
  236MOL0     C31045   8.780   8.909  11.920 -0.0696 -0.4009 -0.4771
  236MOL0     C31046   8.858   8.924  12.035 -0.1595  0.2509  0.0036
  236MOL0     C31047   8.973   9.006  12.036 -0.4775  0.4413  0.6773
  236MOL0     C31048   9.014   9.067  11.915 -0.0646  0.1174  0.1747
  236MOL0     C31049   9.138   9.147  11.920  0.0200  0.1133 -0.1849
  236MOL0     O31050   9.181   9.200  11.796  0.3867 -0.9647  0.1096
  236MOL0     C31051   9.283   9.287  11.799 -0.4322 -0.5098 -0.0381
  236MOL0     C31052   9.252   9.423  11.835  0.6942  0.2301  0.4513
  236MOL0     C31053   9.353   9.525  11.811 -0.0243  0.1213 -0.8453
  236MOL0     C31054   9.480   9.500  11.751  0.3872  0.3792 -0.6183
  236MOL0     O31055   9.584   9.588  11.740 -0.1814 -0.0632 -0.0733
  236MOL0     C31056   9.569   9.716  11.811 -0.2392 -0.2209  0.2027
  236MOL0     C31057   9.701   9.797  11.824  0.1561 -0.2481 -0.0306
  236MOL0     C31058   9.737   9.858  11.688 -1.2099  0.1913 -0.2733
  236MOL0     C31059   9.863   9.937  11.690  0.1758 -0.7923  0.3202
  236MOL0     C31060   9.862  10.034  11.571  0.1579  0.2768  0.6240
  236MOL0     C31061   9.984  10.118  11.570  0.1430  0.4376 -0.0817
  236MOL0     C31062   9.979  10.210  11.443  0.5919 -0.3606 -0.2224
  236MOL0     C31063  10.018  10.150  11.313  0.3940  0.3209 -0.1915
  236MOL0    Cl31064  10.170  10.049  11.330  0.2025  0.3900 -0.0723
  236MOL0     C31065   9.505   9.365  11.715 -0.4065  0.1371  0.3844
  236MOL0     C31066   9.407   9.265  11.732  0.0248  0.1266 -0.1422
  236MOL0     O31067   9.190   9.163  12.031 -0.3006  0.5295  0.9104
  236MOL0     C31068   8.939   9.055  11.796  0.1379 -0.1617 -0.4774
  236MOL0     C31069   8.827   8.969  11.797  0.5557  0.4185 -0.2556
  236MOL0     N31070   8.321   8.536  11.665  0.1959 -0.5506 -0.5034
  236MOL0     N31071   8.311   8.594  11.547 -0.0176  1.0027 -1.0530
  236MOL0     C31072   8.544   8.331  10.355  0.0770 -1.2143 -0.5869
  236MOL0     C31073   8.526   8.264  10.234  0.1505  0.0423  0.4183
  236MOL0     C31074   8.585   8.108   9.824 -0.4641 -0.5077  0.3158
  236MOL0     C31075   8.577   7.965   9.825  0.0805 -0.8129 -0.9357
  236MOL0     C31076   8.564   7.902   9.703 -0.4340  0.0589 -0.0535
  236MOL0     C31077   8.565   7.968   9.573 -0.3469 -0.7160 -0.6880
  236MOL0     O31078   8.554   7.905   9.452  0.5424 -0.2958  0.0148
  236MOL0     C31079   8.560   7.762   9.440 -0.3722 -0.6276  0.6761
  236MOL0     C31080   8.442   7.687   9.475  1.3308 -0.6283 -0.0424
  236MOL0     C31081   8.397   7.584   9.377 -0.0413  0.3603  0.2382
  236MOL0     C31082   8.269   7.520   9.426  0.1221  0.1662 -0.5960
  236MOL0     C31083   8.199   7.421   9.349  0.1472  0.4238  0.9945
  236MOL0     C31084   8.127   7.339   9.291 -0.3050 -0.4667  0.5731
  236MOL0     C31085   8.566   8.106   9.580  0.5609 -0.2563 -0.2672
  236MOL0     C31086   8.575   8.174   9.696 -0.1268  0.2321 -0.6537
  236MOL0     H31087   8.755   8.019  10.261 -0.7438  0.0651  0.5831
  236MOL0     H31088   8.782   8.133  10.489  0.5529 -0.3133  0.1384
  236MOL0     H31089   8.821   8.295  10.661 -0.6369 -3.4377 -1.9283
  236MOL0     H31090   8.683   8.198  10.669  1.5814 -0.7798  1.0793
  236MOL0     H31091   8.698   8.487  10.770 -0.2368  0.1830 -3.2428
  236MOL0     H31092   8.714   8.343  10.870  0.9055  2.5547  0.5367
  236MOL0     H31093   8.476   8.296  10.854  2.2697 -0.7406  0.0187
  236MOL0     H31094   8.456   8.398  10.718 -2.1908  3.2751  2.4924
  236MOL0     H31095   8.515   8.593  10.853 -2.3757 -0.4442 -2.3260
  236MOL0     H31096   8.366   8.502  10.895 -0.5117 -1.1822 -3.1944
  236MOL0     H31097   8.623   8.468  11.057 -0.6048 -1.9125  0.0334
  236MOL0     H31098   8.473   8.368  11.075 -0.9412  0.1166 -2.8419
  236MOL0     H31099   8.351   8.572  11.107 -0.9822 -1.1300  1.6722
  236MOL0     H31100   8.510   8.660  11.110 -0.5002 -1.1397 -3.5897
  236MOL0     H31101   8.375   8.470  11.308  1.2172 -1.0467 -2.9914
  236MOL0     H31102   8.557   8.493  11.310  0.0263  0.7664 -0.8402
  236MOL0     H31103   8.375   8.720  11.338 -0.0360  0.8755  2.7760
  236MOL0     H31104   8.552   8.709  11.369  1.5812 -2.1092  1.6081
  236MOL0     H31105   8.637   8.556  11.597 -0.2801  3.1688  1.6826
  236MOL0     H31106   8.551   8.346  11.793  0.8946 -0.3355  3.3262
  236MOL0     H31107   8.414   8.408  11.884 -0.5297 -0.8530 -0.8585
  236MOL0     H31108   8.681   8.560  11.826  1.0551 -0.9211 -0.3401
  236MOL0     H31109   8.673   8.454  11.961 -0.1190  0.6256 -0.0686
  236MOL0     H31110   8.460   8.683  11.946 -1.2697 -0.8691  1.1470
  236MOL0     H31111   8.513   8.565  12.071  0.3406 -0.4391  0.8159
  236MOL0     H31112   8.729   8.690  12.088  1.3547 -3.5791 -3.6955
  236MOL0     H31113   8.604   8.806  12.112  1.8982 -0.2449 -0.6014
  236MOL0     H31114   8.824   8.878  12.127 -0.1819 -1.8974 -1.0050
  236MOL0     H31115   9.034   9.008  12.125 -0.8180 -1.3900  0.9802
  236MOL0     H31116   9.152   9.446  11.869  0.6634 -0.5229  0.8919
  236MOL0     H31117   9.334   9.626  11.848 -2.6218 -0.6925  0.2667
  236MOL0     H31118   9.553   9.691  11.916  2.2666 -0.0330  0.6948
  236MOL0     H31119   9.491   9.782  11.772 -0.2509  1.0155  2.1853
  236MOL0     H31120   9.777   9.727  11.860  0.1594  0.4401  1.3658
  236MOL0     H31121   9.683   9.873  11.901  0.5882  0.2719 -0.4423
  236MOL0     H31122   9.666   9.928  11.646  1.5887  1.1570 -3.8603
  236MOL0     H31123   9.756   9.778  11.615  1.4496  1.1276 -0.7098
  236MOL0     H31124   9.870   9.999  11.780  2.3950 -0.3626 -0.1106
  236MOL0     H31125   9.953   9.876  11.685  1.4462  1.1115 -2.5629
  236MOL0     H31126   9.783  10.109  11.580  0.5056  0.7100  0.0801
  236MOL0     H31127   9.852   9.979  11.477 -1.7740  2.3260 -0.4674
  236MOL0     H31128  10.078  10.062  11.572  0.5540  1.1246  1.4471
  236MOL0     H31129   9.993  10.191  11.651  1.9121 -0.1058  0.2727
  236MOL0     H31130   9.879  10.255  11.440  0.5639 -0.4698 -1.2292
  236MOL0     H31131  10.040  10.300  11.454 -1.9804  1.7326 -1.8395
  236MOL0     H31132  10.017  10.214  11.224 -0.3227 -1.3591 -1.4422
  236MOL0     H31133   9.927  10.094  11.289  0.7944 -0.2656 -0.3510
  236MOL0     H31134   9.600   9.339  11.670 -1.0857  2.0482 -2.4030
  236MOL0     H31135   9.418   9.162  11.699 -3.8097 -0.5516  0.2957
  236MOL0     H31136   8.973   9.104  11.706 -0.0455  0.6784 -0.1055
  236MOL0     H31137   8.752   8.950  11.721 -0.9739 -1.8031  1.6710
  236MOL0     H31138   8.490   8.423  10.374  3.6388  0.6574  1.6044
  236MOL0     H31139   8.449   8.303  10.168 -1.3681 -3.1420  0.1146
  236MOL0     H31140   8.584   7.907   9.916 -1.1850  1.2916  0.5708
  236MOL0     H31141   8.567   7.794   9.693  0.7351 -0.1477  2.0315
  236MOL0     H31142   8.655   7.730   9.485  1.7447  2.0471 -1.5179
  236MOL0     H31143   8.591   7.743   9.337 -1.4556 -0.1478  0.2481
  236MOL0     H31144   8.463   7.641   9.571  2.7472 -1.5272 -0.7461
  236MOL0     H31145   8.361   7.760   9.481  2.0542  0.1742  0.1800
  236MOL0     H31146   8.467   7.502   9.360  1.0218  1.3675 -0.4117
  236MOL0     H31147   8.386   7.628   9.277  1.4084  2.4147  0.9162
  236MOL0     H31148   8.298   7.463   9.514 -0.1346 -2.7066 -2.2398
  236MOL0     H31149   8.199   7.597   9.461 -0.5387 -1.2226  1.3249
  236MOL0     H31150   8.074   7.262   9.240  1.1307 -0.2202 -1.3899
  236MOL0     H31151   8.550   8.161   9.488 -0.9881 -0.4715 -0.1591
  236MOL0     H31152   8.569   8.282   9.691 -0.4503  0.1780 -1.8264
  237MOL0     O31153  11.208   7.421   3.585  0.4362 -0.2453 -0.2908
  237MOL0     C31154  11.226   7.544   3.602 -0.8678  0.1856  0.0639
  237MOL0     O31155  11.131   7.642   3.582  0.8635 -0.0068 -0.2432
  237MOL0     C31156  11.027   7.629   3.499 -0.1579  0.0444  0.3453
  237MOL0     C31157  10.921   7.716   3.519  0.4863  0.2767 -1.1759
  237MOL0     C31158  10.805   7.707   3.440 -0.3304  0.5114 -0.2649
  237MOL0     C31159  10.797   7.608   3.346  0.1849  0.1205 -0.4637
  237MOL0     O31160  10.690   7.601   3.261 -0.0745 -0.1761  0.2385
  237MOL0     C31161  10.590   7.512   3.313  0.5656 -0.9333  1.0323
  237MOL0     C31162  10.488   7.590   3.396  0.5803  0.1132  0.6421
  237MOL0     C31163  10.413   7.695   3.325  0.9118 -0.4646 -0.0220
  237MOL0     C31164  10.294   7.747   3.414 -0.0702  0.0184 -0.2318
  237MOL0     C31165  10.241   7.882   3.357 -0.4568 -0.5913  0.2812
  237MOL0     C31166  10.187   7.862   3.211  0.0612  1.0728 -0.0572
  237MOL0     C31167  10.068   7.942   3.172 -0.4044 -0.2323 -0.0869
  237MOL0     C31168  10.021   7.928   3.026 -0.3198  0.3301 -0.4526
  237MOL0     N31169   9.919   8.019   2.994 -0.0878 -0.4592  0.5571
  237MOL0     C31170   9.925   8.152   3.002  0.1721  0.2398 -0.1814
  237MOL0     C31171   9.815   8.192   2.938  0.2811  0.0099 -0.5448
  237MOL0     C31172   9.787   8.338   2.904  0.3720 -0.0014 -0.7441
  237MOL0     C31173   9.789   8.414   3.034 -0.3001 -0.5902 -0.2275
  237MOL0     C31174   9.707   8.370   3.162  0.4742 -0.3794  0.0919
  237MOL0     C31175   9.557   8.349   3.137 -0.4902 -0.1191  0.4647
  237MOL0     O31176   9.491   8.464   3.076 -0.2789  0.2865 -0.6761
  237MOL0     C31177   9.359   8.448   3.040 -0.1932  0.9684  0.0891
  237MOL0     C31178   9.347   8.405   2.910  0.5083  0.1675 -0.1267
  237MOL0     C31179   9.217   8.375   2.858 -0.4383 -0.1021  0.0132
  237MOL0     C31180   9.107   8.405   2.935 -0.0762  0.3401 -1.0655
  237MOL0     C31181   8.970   8.399   2.874 -0.0525 -0.7644  0.4123
  237MOL0     O31182   8.863   8.418   2.958 -0.6128  0.2346 -0.5310
  237MOL0     C31183   8.730   8.426   2.930  0.3907  0.7187 -0.2971
  237MOL0     C31184   8.657   8.366   2.815  1.0955 -0.2678 -0.2431
  237MOL0     C31185   8.518   8.382   2.790  0.0687  0.5017  0.2559
  237MOL0     C31186   8.442   8.452   2.879 -0.6251 -0.1481  0.5931
  237MOL0     O31187   8.310   8.465   2.847  0.6735 -0.2562 -0.6783
  237MOL0     C31188   8.233   8.583   2.880  0.3910 -0.4065 -0.7649
  237MOL0     C31189   8.114   8.576   2.790 -0.7169 -0.7747  0.5619
  237MOL0     C31190   8.026   8.693   2.791  0.3100 -0.6099  0.0887
  237MOL0     C31191   7.929   8.696   2.673  1.2609 -0.2000 -0.4596
  237MOL0     C31192   7.993   8.795   2.570 -0.3175 -0.2703  0.1153
  237MOL0     C31193   7.943   8.940   2.585 -0.1021 -0.1949  0.0325
  237MOL0     C31194   7.941   9.031   2.457 -0.6905 -0.8202  0.0171
  237MOL0     C31195   8.065   9.122   2.457  0.0221  0.3311 -0.6209
  237MOL0    Cl31196   8.030   9.261   2.346 -0.5703 -0.3784  0.0228
  237MOL0     C31197   8.506   8.510   2.989 -0.3107  0.0917 -0.5142
  237MOL0     C31198   8.644   8.497   3.008  0.4368 -0.6050  1.0338
  237MOL0     O31199   8.965   8.365   2.754 -0.3905  0.8593  0.3990
  237MOL0     C31200   9.118   8.462   3.066  0.3016 -0.1040  0.3056
  237MOL0     C31201   9.244   8.476   3.119  0.4337 -0.1880 -0.1189
  237MOL0     N31202   9.739   8.091   2.900  0.1205  0.7046  0.0044
  237MOL0     N31203   9.801   7.987   2.934 -0.5299 -0.6185  0.2039
  237MOL0     C31204  10.902   7.529   3.325  1.1002  1.3277  0.0294
  237MOL0     C31205  11.023   7.536   3.393 -0.3890 -0.0300  0.0781
  237MOL0     C31206  11.366   7.576   3.656  1.3818 -1.0047  0.7528
  237MOL0     C31207  11.448   7.472   3.706  0.4861  0.1031 -0.4384
  237MOL0     C31208  11.567   7.514   3.763  0.1207  0.6395 -0.0683
  237MOL0     C31209  11.613   7.642   3.762  0.1343  0.4554 -0.8092
  237MOL0     O31210  11.741   7.651   3.811 -0.0987 -0.1280  0.2643
  237MOL0     C31211  11.813   7.773   3.827 -0.5909 -0.0257 -0.9544
  237MOL0     C31212  11.969   7.747   3.860  0.5468  0.2773  0.4115
  237MOL0     C31213  12.048   7.877   3.856 -0.0766  0.3038 -0.3677
  237MOL0     C31214  12.198   7.855   3.894  0.1874  0.0648  0.3685
  237MOL0     C31215  12.273   7.975   3.850 -1.2023  0.5045  0.4767
  237MOL0     C31216  12.324   8.082   3.815 -0.0171 -0.6139  0.4554
  237MOL0     C31217  11.528   7.743   3.719  0.7514 -0.3762 -1.1356
  237MOL0     C31218  11.403   7.705   3.672  0.4387 -0.2978  0.3512
  237MOL0     H31219  10.908   7.790   3.597 -0.7137  0.0416 -1.1360
  237MOL0     H31220  10.720   7.771   3.464  0.3258  0.3425  2.9129
  237MOL0     H31221  10.632   7.418   3.351  2.9241 -1.3638 -2.1750
  237MOL0     H31222  10.532   7.479   3.226 -0.5854  0.7066  1.1299
  237MOL0     H31223  10.532   7.636   3.485  2.5921  0.5489 -0.4987
  237MOL0     H31224  10.419   7.511   3.424  0.9998  1.0168  4.9644
  237MOL0     H31225  10.386   7.651   3.228  2.9561 -1.4848 -0.1735
  237MOL0     H31226  10.472   7.778   3.285  0.0290  0.7766  1.1583
  237MOL0     H31227  10.231   7.660   3.429 -0.6294  0.6199  1.0130
  237MOL0     H31228  10.323   7.757   3.519 -1.1509 -2.3612  0.3380
  237MOL0     H31229  10.314   7.963   3.348  0.0876 -1.2267 -1.8196
  237MOL0     H31230  10.166   7.917   3.428 -2.3978  1.0865 -2.3888
  237MOL0     H31231  10.160   7.756   3.205  2.6128  0.3386  0.3106
  237MOL0     H31232  10.277   7.880   3.151  4.1551 -0.3841  4.8971
  237MOL0     H31233   9.989   7.916   3.243  0.2220  1.8364  1.4682
  237MOL0     H31234  10.086   8.044   3.207 -0.2805 -0.7250  1.3921
  237MOL0     H31235   9.990   7.824   3.013  1.2047  0.0147 -1.8779
  237MOL0     H31236  10.112   7.937   2.966 -0.5966 -3.4124 -1.6871
  237MOL0     H31237  10.014   8.201   3.040 -0.0681  0.3211  0.2825
  237MOL0     H31238   9.690   8.341   2.854  1.1821 -0.7945 -2.4149
  237MOL0     H31239   9.867   8.370   2.837  1.2266 -1.5392 -0.5102
  237MOL0     H31240   9.747   8.511   3.006 -2.8397 -0.2410  3.9143
  237MOL0     H31241   9.894   8.439   3.053  0.5070 -3.7376  0.1396
  237MOL0     H31242   9.746   8.275   3.199  0.9959 -0.0516  0.3883
  237MOL0     H31243   9.715   8.435   3.250 -1.5110 -0.4702  0.3894
  237MOL0     H31244   9.509   8.324   3.232 -0.6992  1.7466  0.8854
  237MOL0     H31245   9.545   8.272   3.060 -0.5258  0.8103 -0.4761
  237MOL0     H31246   9.430   8.389   2.842 -1.0597 -1.3867 -1.8087
  237MOL0     H31247   9.208   8.344   2.755 -0.7115  1.8006 -0.5849
  237MOL0     H31248   8.717   8.305   2.749  2.7233  0.5575  0.4192
  237MOL0     H31249   8.470   8.344   2.701 -1.0705  0.2933  0.9361
  237MOL0     H31250   8.289   8.677   2.872 -1.2588  0.5413 -1.6401
  237MOL0     H31251   8.195   8.581   2.982 -3.3211  0.7394 -1.9745
  237MOL0     H31252   8.057   8.483   2.798  1.3219 -2.1291  0.0521
  237MOL0     H31253   8.160   8.571   2.690 -1.6187  0.6181  0.0461
  237MOL0     H31254   8.089   8.782   2.797 -1.7720  0.9455 -0.2015
  237MOL0     H31255   7.968   8.687   2.884  0.3721  0.2869  0.1902
  237MOL0     H31256   7.905   8.597   2.635 -1.0977 -0.4056  1.3530
  237MOL0     H31257   7.832   8.734   2.706  3.1217  1.5270  3.7250
  237MOL0     H31258   7.960   8.763   2.471 -5.0978 -1.1198  1.6912
  237MOL0     H31259   8.102   8.787   2.577 -0.5780 -4.0270  3.4432
  237MOL0     H31260   7.986   8.994   2.670 -0.0185 -0.9914  0.5047
  237MOL0     H31261   7.837   8.936   2.609  0.7211  1.3271  4.8452
  237MOL0     H31262   7.945   8.973   2.364  0.3943  1.5008 -1.4827
  237MOL0     H31263   7.857   9.100   2.454  0.1814  0.7679 -7.7784
  237MOL0     H31264   8.154   9.078   2.413 -0.7893  1.1104 -3.1908
  237MOL0     H31265   8.093   9.153   2.559  3.0319 -1.0101 -0.9355
  237MOL0     H31266   8.448   8.568   3.059 -0.3628 -2.3400  1.5767
  237MOL0     H31267   8.675   8.557   3.094  2.0490 -0.3415  0.3010
  237MOL0     H31268   9.025   8.480   3.120 -0.4689 -2.3047 -0.1914
  237MOL0     H31269   9.261   8.502   3.223 -0.3062  0.7407 -0.2147
  237MOL0     H31270  10.887   7.454   3.247 -2.5661  1.0419  0.8362
  237MOL0     H31271  11.114   7.487   3.360  0.4137  0.7550  1.0543
  237MOL0     H31272  11.406   7.374   3.725 -0.5942  0.5478 -0.4453
  237MOL0     H31273  11.632   7.436   3.802  1.0362  2.0216  1.2490
  237MOL0     H31274  11.755   7.829   3.901 -0.6805 -1.1421 -0.1542
  237MOL0     H31275  11.809   7.833   3.736  2.6490  2.0487  0.0871
  237MOL0     H31276  11.975   7.700   3.959 -0.6247  5.0481  3.0412
  237MOL0     H31277  12.008   7.674   3.788 -1.2552  1.1653 -1.5814
  237MOL0     H31278  11.996   7.942   3.927 -2.1852  0.2263 -1.7588
  237MOL0     H31279  12.048   7.910   3.752  4.1519  0.6404 -0.4339
  237MOL0     H31280  12.220   7.833   3.998 -0.1223 -3.5822 -0.2168
  237MOL0     H31281  12.238   7.763   3.852 -0.8652 -0.8483  1.3243
  237MOL0     H31282  12.360   8.177   3.781  2.4948 -1.1317  1.3966
  237MOL0     H31283  11.566   7.843   3.702  2.3748 -0.9080 -0.8143
  237MOL0     H31284  11.347   7.789   3.632  1.6654  0.2930 -0.1801
  238MOL0     O31285   0.153   3.367   0.252 -0.9983 -0.4233 -0.3149
  238MOL0     C31286   0.143   3.303   0.352  1.0529  0.1382  0.2562
  238MOL0     O31287   0.237   3.280   0.447 -0.3027  0.3119  0.7472
  238MOL0     C31288   0.372   3.314   0.447  0.0495  0.1874 -0.2231
  238MOL0     C31289   0.429   3.431   0.412 -0.6039 -0.8801 -0.2615
  238MOL0     C31290   0.566   3.458   0.427 -1.2222 -0.2507  0.0523
  238MOL0     C31291   0.652   3.359   0.484  0.4095  0.2111 -0.7775
  238MOL0     O31292   0.783   3.377   0.507 -0.2143  0.3868 -0.3244
  238MOL0     C31293   0.852   3.467   0.415  0.3635 -0.6577  0.1232
  238MOL0     C31294   1.008   3.466   0.422  0.3787 -0.7348 -0.3650
  238MOL0     C31295   1.064   3.580   0.325  0.8207 -0.4573 -0.4808
  238MOL0     C31296   1.050   3.728   0.377 -0.0984  0.6538  0.0154
  238MOL0     C31297   1.151   3.820   0.322 -0.3803  0.1284 -0.5178
  238MOL0     C31298   1.145   3.961   0.376  0.4000 -0.1377 -0.1284
  238MOL0     C31299   1.018   4.040   0.337 -1.7211 -0.2795  0.2657
  238MOL0     C31300   1.015   4.178   0.407 -0.8547 -0.4925 -0.0903
  238MOL0     N31301   0.932   4.168   0.530  0.1242  0.4409 -0.5621
  238MOL0     C31302   0.968   4.115   0.651  0.3001  1.2490  0.0847
  238MOL0     C31303   0.873   4.144   0.736  0.5922  0.5633 -0.2552
  238MOL0     C31304   0.890   4.120   0.882 -0.7096  0.5779  0.4346
  238MOL0     C31305   0.876   4.248   0.955  0.2910 -0.6453  1.0450
  238MOL0     C31306   0.896   4.245   1.103 -0.0799 -1.0459 -0.3688
  238MOL0     C31307   0.779   4.191   1.183 -0.2908 -0.0243 -0.1773
  238MOL0     O31308   0.812   4.174   1.325 -0.2448  0.3532 -0.3730
  238MOL0     C31309   0.696   4.128   1.386 -0.2277 -1.2439  0.4598
  238MOL0     C31310   0.609   4.211   1.459  0.2674  0.1647 -0.1647
  238MOL0     C31311   0.473   4.170   1.493 -0.7053  0.1224  0.0905
  238MOL0     C31312   0.441   4.039   1.461  0.3041  1.5522 -0.2804
  238MOL0     C31313   0.299   3.992   1.472 -0.0192 -0.5486 -0.1227
  238MOL0     O31314   0.211   4.091   1.511  0.1109 -0.2648 -0.9429
  238MOL0     C31315   0.084   4.053   1.537 -0.2550 -1.1856  0.1048
  238MOL0     C31316   0.033   4.059   1.665 -1.0716 -1.2257  0.2813
  238MOL0     C31317  -0.099   4.027   1.706 -0.6582 -0.2268  0.4377
  238MOL0     C31318  -0.179   3.982   1.605 -0.0186  0.6033  0.5809
  238MOL0     O31319  -0.309   3.935   1.632  0.2217 -0.3417  0.9384
  238MOL0     C31320  -0.369   3.980   1.751 -0.1245  0.3572  0.4552
  238MOL0     C31321  -0.520   3.955   1.750 -0.3919 -0.2057 -0.4160
  238MOL0     C31322  -0.563   3.813   1.729 -1.0633  0.1767  0.6749
  238MOL0     C31323  -0.718   3.799   1.748 -0.5394 -0.3188 -1.2308
  238MOL0     C31324  -0.769   3.672   1.689 -0.2611  0.5957  1.2297
  238MOL0     C31325  -0.906   3.698   1.628  0.2404  0.2212  0.1925
  238MOL0     C31326  -1.016   3.733   1.726 -0.0871  1.4937  0.4719
  238MOL0     C31327  -1.147   3.745   1.643 -0.2331  0.1860  0.0315
  238MOL0    Cl31328  -1.121   3.874   1.520  0.4700  0.4090 -0.0337
  238MOL0     C31329  -0.135   3.967   1.473 -0.7271 -0.5641  0.7233
  238MOL0     C31330  -0.004   4.010   1.434 -0.7007  0.2692  1.0222
  238MOL0     O31331   0.279   3.872   1.461  0.4238  0.2830 -0.0852
  238MOL0     C31332   0.541   3.950   1.412 -0.3173 -0.2545  0.1065
  238MOL0     C31333   0.667   3.996   1.370 -0.3906 -0.3146 -0.3563
  238MOL0     N31334   0.769   4.205   0.665  0.8454  0.4659  0.2153
  238MOL0     N31335   0.809   4.206   0.540 -0.1033  0.1259  0.2560
  238MOL0     C31336   0.592   3.233   0.503  0.8066 -0.5247 -0.1384
  238MOL0     C31337   0.450   3.212   0.495 -0.7608 -0.3816  0.7340
  238MOL0     C31338   0.010   3.248   0.391  0.0367 -0.2402 -0.6245
  238MOL0     C31339   0.008   3.140   0.483  0.2477 -0.5215  0.1160
  238MOL0     C31340  -0.106   3.078   0.503  0.2922  0.0777  0.3413
  238MOL0     C31341  -0.223   3.113   0.441 -0.0943  1.1516  0.4267
  238MOL0     O31342  -0.342   3.050   0.457 -1.4660  0.5602  0.1434
  238MOL0     C31343  -0.353   2.906   0.474  0.4743 -0.6104  0.1945
  238MOL0     C31344  -0.502   2.868   0.457  0.0571 -0.5021  0.0829
  238MOL0     C31345  -0.541   2.864   0.310 -0.3140 -0.5253 -0.0406
  238MOL0     C31346  -0.684   2.860   0.280  0.2349  0.8031  0.5708
  238MOL0     C31347  -0.737   2.978   0.203 -0.6939 -0.2321 -0.7483
  238MOL0     C31348  -0.752   3.079   0.134  0.9225  0.5030  0.0335
  238MOL0     C31349  -0.230   3.227   0.362  0.8595  0.4776  0.1885
  238MOL0     C31350  -0.112   3.297   0.335  0.0232 -0.1359  0.3992
  238MOL0     H31351   0.360   3.499   0.365  1.6014 -0.4173 -3.0536
  238MOL0     H31352   0.589   3.559   0.397 -3.6320  1.1510  2.4808
  238MOL0     H31353   0.833   3.570   0.447  2.5725  0.0413 -0.6130
  238MOL0     H31354   0.816   3.451   0.313 -2.2990  0.2117  0.8669
  238MOL0     H31355   1.043   3.371   0.381  1.4468  0.1445 -1.5234
  238MOL0     H31356   1.045   3.488   0.523  1.6397  0.7475 -1.1060
  238MOL0     H31357   1.012   3.565   0.229 -2.3782  0.6471  0.9191
  238MOL0     H31358   1.170   3.560   0.313  1.4683  0.8934  2.2053
  238MOL0     H31359   0.953   3.774   0.354 -0.7655  0.4307  2.1905
  238MOL0     H31360   1.053   3.733   0.486 -2.7091  3.0228  0.1030
  238MOL0     H31361   1.160   3.820   0.213  4.0320 -0.2330 -0.3431
  238MOL0     H31362   1.244   3.768   0.349 -1.3456 -3.0606 -2.7609
  238MOL0     H31363   1.224   4.028   0.343 -1.4094  2.2179  0.0504
  238MOL0     H31364   1.138   3.962   0.486 -2.9850  2.3966 -0.1900
  238MOL0     H31365   1.012   4.046   0.227 -4.1149 -4.1437 -0.0157
  238MOL0     H31366   0.921   3.998   0.364 -2.0575 -0.7939 -1.5575
  238MOL0     H31367   0.952   4.242   0.345  1.2536 -0.6543 -2.5438
  238MOL0     H31368   1.106   4.234   0.430 -2.1495  2.0062 -0.7882
  238MOL0     H31369   1.064   4.066   0.665 -0.1216  0.8528  1.8753
  238MOL0     H31370   0.990   4.079   0.902 -1.7162 -0.5302  4.0756
  238MOL0     H31371   0.822   4.041   0.916 -0.1458  0.2585  0.8392
  238MOL0     H31372   0.773   4.284   0.940  0.2569 -1.2722 -0.4354
  238MOL0     H31373   0.951   4.321   0.922 -0.7766 -0.5711 -1.4431
  238MOL0     H31374   0.982   4.178   1.107 -1.2794 -2.7426 -1.7306
  238MOL0     H31375   0.911   4.346   1.141  1.0152 -0.9125 -1.0975
  238MOL0     H31376   0.757   4.098   1.131  0.0380  0.1197 -0.5870
  238MOL0     H31377   0.684   4.245   1.174 -0.6116 -0.4192  0.6895
  238MOL0     H31378   0.650   4.311   1.471  1.4379 -0.4507  1.2557
  238MOL0     H31379   0.393   4.236   1.524 -3.3417 -0.9710 -3.6906
  238MOL0     H31380   0.103   4.078   1.746 -0.0352  0.5301 -0.9475
  238MOL0     H31381  -0.123   4.052   1.809  1.3183 -1.8107  1.3414
  238MOL0     H31382  -0.350   4.083   1.783 -0.3605  0.9647 -1.2812
  238MOL0     H31383  -0.332   3.917   1.833  0.1505  0.5219  0.4611
  238MOL0     H31384  -0.580   4.021   1.687 -0.7292 -0.0130  0.1034
  238MOL0     H31385  -0.548   3.961   1.856 -1.9245  0.3018 -0.8364
  238MOL0     H31386  -0.508   3.738   1.787 -2.3037  0.7177  2.6869
  238MOL0     H31387  -0.539   3.787   1.626 -1.5617 -0.3210  0.6763
  238MOL0     H31388  -0.724   3.810   1.857 -0.1329 -0.2990 -1.2078
  238MOL0     H31389  -0.771   3.879   1.697  0.5503  2.3024  1.4008
  238MOL0     H31390  -0.783   3.599   1.769  1.3721 -0.3788  0.6805
  238MOL0     H31391  -0.706   3.628   1.611 -3.7412 -2.5153 -0.1336
  238MOL0     H31392  -0.944   3.609   1.576 -0.0238 -0.2265  1.1366
  238MOL0     H31393  -0.889   3.780   1.557 -2.6189 -0.0037 -0.8887
  238MOL0     H31394  -1.031   3.653   1.799  1.6943  0.5158 -0.1748
  238MOL0     H31395  -0.998   3.829   1.775 -1.1917  1.3412  1.2268
  238MOL0     H31396  -1.226   3.755   1.718  0.8100 -0.1555  1.2214
  238MOL0     H31397  -1.163   3.655   1.583  0.6655 -0.2026  0.3600
  238MOL0     H31398  -0.196   3.922   1.395 -1.0845 -2.3177  1.9603
  238MOL0     H31399   0.033   3.986   1.335  1.9001  1.4910  1.6048
  238MOL0     H31400   0.507   3.848   1.394 -2.2615  0.8101 -3.3039
  238MOL0     H31401   0.740   3.934   1.320 -0.8920 -1.3296  0.1428
  238MOL0     H31402   0.642   3.154   0.557  1.4204  2.3592  4.0140
  238MOL0     H31403   0.401   3.117   0.515 -0.5386 -0.7502 -0.4356
  238MOL0     H31404   0.094   3.119   0.545  0.2498  0.5082  0.4936
  238MOL0     H31405  -0.115   2.985   0.558  1.4526 -2.0622 -2.8134
  238MOL0     H31406  -0.321   2.864   0.570  1.0670  1.1154  0.8120
  238MOL0     H31407  -0.295   2.851   0.400  0.5475  1.3184 -1.2737
  238MOL0     H31408  -0.512   2.767   0.496  0.2103 -1.4563 -2.2184
  238MOL0     H31409  -0.565   2.940   0.511  1.4445  1.3669 -0.6630
  238MOL0     H31410  -0.483   2.782   0.267 -0.7646 -0.9122  0.0776
  238MOL0     H31411  -0.508   2.961   0.271 -1.1318 -0.2647 -0.0972
  238MOL0     H31412  -0.694   2.772   0.216 -0.4244  1.3026 -0.0198
  238MOL0     H31413  -0.755   2.831   0.357 -2.1896  0.3290 -1.7050
  238MOL0     H31414  -0.739   3.172   0.082  1.4580  1.6587  2.1051
  238MOL0     H31415  -0.324   3.263   0.322 -0.0951 -1.0300  1.0033
  238MOL0     H31416  -0.130   3.381   0.269  1.9925  0.9904  1.1931
  239MOL0     O31417   8.609   4.937   5.942 -0.6085 -0.0404 -0.7290
  239MOL0     C31418   8.615   4.820   5.920  0.5745  0.0894 -0.1817
  239MOL0     O31419   8.531   4.718   5.978 -0.3717  0.2757  0.2804
  239MOL0     C31420   8.409   4.758   6.031  0.3244 -0.5320 -0.4150
  239MOL0     C31421   8.376   4.690   6.145  0.2871  0.5029  1.1486
  239MOL0     C31422   8.260   4.726   6.206  0.7254  0.7156 -0.6807
  239MOL0     C31423   8.175   4.835   6.173 -0.4628 -1.1434  0.0362
  239MOL0     O31424   8.076   4.894   6.253 -0.2869  0.4361 -0.7116
  239MOL0     C31425   8.084   4.891   6.400 -0.3890  0.4581  0.5858
  239MOL0     C31426   8.146   5.028   6.445  0.2723  0.9247 -0.3385
  239MOL0     C31427   8.283   5.053   6.386 -0.1012  1.2390  0.1204
  239MOL0     C31428   8.347   5.184   6.442  0.0853 -0.7265 -0.4540
  239MOL0     C31429   8.502   5.174   6.449  0.3975 -0.2718 -0.6972
  239MOL0     C31430   8.569   5.163   6.310  0.1028  0.5674  0.5033
  239MOL0     C31431   8.718   5.185   6.310  0.0151 -0.0332  0.8379
  239MOL0     C31432   8.762   5.164   6.161 -0.4441 -0.4924 -0.0284
  239MOL0     N31433   8.903   5.152   6.142 -0.4757 -0.1928 -0.2549
  239MOL0     C31434   8.971   5.045   6.196 -0.0814  0.6352 -0.2475
  239MOL0     C31435   9.099   5.056   6.164 -1.0976  0.0233  0.3234
  239MOL0     C31436   9.202   4.963   6.215 -0.0158  0.0811 -0.1505
  239MOL0     C31437   9.182   4.823   6.150 -0.2986  0.7644 -0.5301
  239MOL0     C31438   9.249   4.723   6.246 -0.0604 -0.7423  0.1611
  239MOL0     C31439   9.321   4.611   6.167 -0.1190 -0.0391  0.0263
  239MOL0     O31440   9.343   4.497   6.254  1.1082 -0.4195 -1.1318
  239MOL0     C31441   9.465   4.448   6.281 -1.0447 -0.0001 -0.7107
  239MOL0     C31442   9.470   4.348   6.381  0.2162  0.5693 -1.6616
  239MOL0     C31443   9.589   4.297   6.434 -0.2296  0.5007 -0.5016
  239MOL0     C31444   9.714   4.340   6.382 -0.6368 -0.1348  0.1961
  239MOL0     C31445   9.844   4.311   6.449 -0.6507 -0.2750 -0.9467
  239MOL0     O31446   9.841   4.241   6.571 -0.3705  0.5506  0.5121
  239MOL0     C31447   9.959   4.211   6.636  0.1467  0.0967 -0.8503
  239MOL0     C31448  10.034   4.319   6.698  0.2493  0.5218  0.4116
  239MOL0     C31449  10.138   4.287   6.799 -1.0130 -0.4359  1.8925
  239MOL0     C31450  10.142   4.162   6.840  0.2483  0.8897 -0.0108
  239MOL0     O31451  10.237   4.147   6.941 -0.6398 -0.4665 -0.1957
  239MOL0     C31452  10.236   4.044   7.031  0.8424  0.7760  1.3642
  239MOL0     C31453  10.347   4.062   7.128 -0.1502  0.0425  0.5721
  239MOL0     C31454  10.473   3.989   7.082 -0.4946 -0.8044  0.0239
  239MOL0     C31455  10.580   3.980   7.185 -0.5655 -0.0910 -0.1794
  239MOL0     C31456  10.657   4.112   7.217 -0.4510  0.0668  0.5332
  239MOL0     C31457  10.699   4.200   7.093 -0.8907 -0.5339 -0.0446
  239MOL0     C31458  10.808   4.296   7.132  0.3463  0.2648  0.1541
  239MOL0     C31459  10.874   4.359   6.999 -0.4230 -0.0521 -0.1283
  239MOL0    Cl31460  10.980   4.240   6.937 -0.1405  0.5940  0.1965
  239MOL0     C31461  10.068   4.061   6.783 -0.1752 -1.0102  0.1815
  239MOL0     C31462   9.968   4.080   6.687  0.3575 -0.0843  0.1455
  239MOL0     O31463   9.947   4.344   6.392 -0.9323 -0.5008  0.4194
  239MOL0     C31464   9.712   4.421   6.258 -0.1065  0.5938  1.1420
  239MOL0     C31465   9.587   4.471   6.211  0.1916 -0.3744 -0.4970
  239MOL0     N31466   9.118   5.175   6.099 -0.3543 -0.0160  0.2686
  239MOL0     N31467   8.999   5.232   6.084  0.1403 -0.0098 -0.2920
  239MOL0     C31468   8.214   4.895   6.056 -0.7208 -1.0186 -0.2973
  239MOL0     C31469   8.324   4.857   5.982 -0.8210 -0.8763  0.4285
  239MOL0     C31470   8.753   4.784   5.859  0.3580 -0.0713  0.2655
  239MOL0     C31471   8.817   4.864   5.764 -0.4820  0.9340  0.0042
  239MOL0     C31472   8.937   4.823   5.696 -0.0505  0.1374 -0.4659
  239MOL0     C31473   8.992   4.693   5.723 -0.7138  0.3421 -0.0722
  239MOL0     O31474   9.124   4.654   5.698  0.1783 -0.9543 -0.0684
  239MOL0     C31475   9.207   4.726   5.603 -0.1210  1.5888 -0.2363
  239MOL0     C31476   9.176   4.682   5.454  0.0669 -0.7130 -0.4556
  239MOL0     C31477   9.299   4.626   5.386 -0.3885 -0.0092 -0.0583
  239MOL0     C31478   9.276   4.581   5.243  0.7743  0.2608 -0.5276
  239MOL0     C31479   9.235   4.440   5.249  0.1084  0.1249  0.1502
  239MOL0     C31480   9.218   4.321   5.246 -0.2950  0.4585  0.6463
  239MOL0     C31481   8.919   4.612   5.813 -1.1035 -0.5555  0.9177
  239MOL0     C31482   8.803   4.658   5.884 -0.6135 -0.5835  0.0924
  239MOL0     H31483   8.442   4.606   6.165  0.7165 -0.0389 -1.9870
  239MOL0     H31484   8.222   4.655   6.278 -3.9475 -2.2518 -5.3494
  239MOL0     H31485   8.139   4.808   6.444  1.8733  2.8491  2.6533
  239MOL0     H31486   7.993   4.884   6.460  0.8689 -2.3531  2.3631
  239MOL0     H31487   8.160   5.020   6.553  1.0226 -4.2768 -0.5562
  239MOL0     H31488   8.070   5.098   6.407 -1.0929 -1.5360 -2.4743
  239MOL0     H31489   8.285   5.064   6.277  0.5454  3.6204  0.3255
  239MOL0     H31490   8.346   4.967   6.411 -0.7077  1.1433  1.4321
  239MOL0     H31491   8.322   5.269   6.378  3.7081  0.1938 -0.8347
  239MOL0     H31492   8.312   5.214   6.541  0.7487  1.7517 -0.8928
  239MOL0     H31493   8.528   5.092   6.516 -1.8195  1.2026  2.1846
  239MOL0     H31494   8.530   5.267   6.499 -2.0844 -1.2491  2.8757
  239MOL0     H31495   8.523   5.240   6.248 -2.0493  0.9741  2.4797
  239MOL0     H31496   8.556   5.062   6.270  0.0620 -0.5902  3.2596
  239MOL0     H31497   8.746   5.288   6.336  3.8128 -0.1882 -1.7498
  239MOL0     H31498   8.771   5.106   6.364 -1.6522 -0.5376  1.7825
  239MOL0     H31499   8.731   5.257   6.112  2.8486  1.2480  0.8331
  239MOL0     H31500   8.710   5.075   6.127 -2.5835  0.7889 -0.2659
  239MOL0     H31501   8.925   4.972   6.261 -0.5457  1.5814  0.5079
  239MOL0     H31502   9.200   4.959   6.325  0.9169 -1.2709 -0.1593
  239MOL0     H31503   9.304   4.989   6.185  0.7218 -0.5545  1.6425
  239MOL0     H31504   9.227   4.838   6.052  3.4697  0.4002  0.9760
  239MOL0     H31505   9.076   4.800   6.138 -0.5688  0.4201  2.0175
  239MOL0     H31506   9.324   4.773   6.309 -2.6786 -1.1347  3.9697
  239MOL0     H31507   9.176   4.672   6.310 -0.8713 -1.3732 -1.2400
  239MOL0     H31508   9.419   4.638   6.127  0.6177  0.2626  1.9417
  239MOL0     H31509   9.250   4.578   6.090  1.4854 -0.0735 -1.5114
  239MOL0     H31510   9.383   4.291   6.412  3.3054 -3.3895  0.7894
  239MOL0     H31511   9.581   4.224   6.514  0.9290  2.6918  1.7526
  239MOL0     H31512  10.005   4.415   6.658 -1.3246 -0.2930 -0.5367
  239MOL0     H31513  10.221   4.354   6.821  0.2072 -1.1020 -0.3475
  239MOL0     H31514  10.226   3.946   6.984  1.2514  1.1983  0.3669
  239MOL0     H31515  10.136   4.060   7.074 -0.4601 -2.2006 -0.2475
  239MOL0     H31516  10.310   4.015   7.219 -1.0443  1.2251  0.8417
  239MOL0     H31517  10.371   4.168   7.145 -2.4201  0.7815 -0.5242
  239MOL0     H31518  10.516   4.051   7.003 -0.4581  1.8611  2.0084
  239MOL0     H31519  10.458   3.885   7.050  1.9003 -1.2919  0.2985
  239MOL0     H31520  10.557   3.924   7.276  1.7624 -0.4926  0.2287
  239MOL0     H31521  10.665   3.923   7.146  1.4613  0.3568  3.1548
  239MOL0     H31522  10.747   4.075   7.266 -0.9959 -0.8050  0.9054
  239MOL0     H31523  10.608   4.174   7.293 -0.5527 -0.6741  1.0790
  239MOL0     H31524  10.620   4.260   7.046 -0.1582  2.2539  2.0256
  239MOL0     H31525  10.749   4.142   7.015  0.2057  3.7887 -2.8938
  239MOL0     H31526  10.767   4.369   7.202 -1.7957 -0.6017 -0.1158
  239MOL0     H31527  10.880   4.237   7.191 -1.4539 -0.2264  1.9523
  239MOL0     H31528  10.935   4.445   7.030 -0.4736  0.1850 -0.6844
  239MOL0     H31529  10.807   4.393   6.921 -0.0644 -2.3634 -1.5474
  239MOL0     H31530  10.072   3.966   6.835  2.7190 -0.7542  0.5645
  239MOL0     H31531   9.888   4.013   6.655 -2.6158  1.2680  3.9456
  239MOL0     H31532   9.804   4.455   6.211  2.0670 -2.5289  2.7410
  239MOL0     H31533   9.588   4.537   6.125 -2.4098 -0.4389 -0.6544
  239MOL0     H31534   8.156   4.983   6.031 -1.1395 -1.5773 -1.3864
  239MOL0     H31535   8.354   4.912   5.894  0.8570 -2.2565  0.0888
  239MOL0     H31536   8.771   4.961   5.747  1.2153  1.6083 -0.9178
  239MOL0     H31537   8.973   4.896   5.624 -0.6242 -0.9727 -1.9109
  239MOL0     H31538   9.311   4.709   5.632 -0.8024 -1.8773  0.6054
  239MOL0     H31539   9.199   4.835   5.603  1.4369  1.7638  1.9338
  239MOL0     H31540   9.102   4.602   5.457  0.3569 -0.9972 -0.7810
  239MOL0     H31541   9.116   4.764   5.413 -0.6089 -1.8622 -1.8484
  239MOL0     H31542   9.331   4.540   5.446 -1.2600 -0.6051 -0.4290
  239MOL0     H31543   9.377   4.702   5.392 -1.0448  0.5896  1.3857
  239MOL0     H31544   9.207   4.642   5.184  1.9739  3.3366  1.0142
  239MOL0     H31545   9.365   4.595   5.180  1.4980 -2.2309 -0.1784
  239MOL0     H31546   9.199   4.216   5.240 -0.1667  0.2458  3.0793
  239MOL0     H31547   8.964   4.515   5.832  2.3658  0.8221  0.4853
  239MOL0     H31548   8.744   4.596   5.952 -1.2228  1.4647  1.5275
  240MOL0     O31549   7.477   3.830   2.428 -0.1944 -0.4483 -0.4828
  240MOL0     C31550   7.555   3.828   2.333  0.1455  1.3214  0.3941
  240MOL0     O31551   7.545   3.913   2.218  0.4577  0.1626 -0.0157
  240MOL0     C31552   7.457   4.014   2.195  0.8467  0.6743 -0.4840
  240MOL0     C31553   7.325   4.010   2.238  0.2171 -0.3639 -0.1788
  240MOL0     C31554   7.235   4.114   2.222 -0.1723  0.2672  0.6586
  240MOL0     C31555   7.274   4.234   2.162  0.2728  0.1384  0.5537
  240MOL0     O31556   7.191   4.342   2.150  0.1733  0.4432  0.6765
  240MOL0     C31557   7.075   4.359   2.226 -0.9881 -0.0928  0.7007
  240MOL0     C31558   7.023   4.492   2.194 -0.6146 -0.2641  0.8259
  240MOL0     C31559   6.886   4.519   2.244 -0.5797 -0.2190 -0.3006
  240MOL0     C31560   6.814   4.643   2.181  0.4637 -0.4870 -0.1459
  240MOL0     C31561   6.892   4.771   2.190  0.1786 -0.7650  0.0919
  240MOL0     C31562   6.841   4.867   2.081  0.1478 -0.2591 -0.2731
  240MOL0     C31563   6.685   4.880   2.073 -0.3020  0.7167  0.1135
  240MOL0     C31564   6.660   5.011   1.994 -0.0614  0.1391  0.2356
  240MOL0     N31565   6.514   5.043   1.993 -0.2326  0.2482  0.8015
  240MOL0     C31566   6.409   4.977   1.931 -0.3400 -0.8498  0.3949
  240MOL0     C31567   6.297   5.033   1.979  0.0645 -1.0002  0.7874
  240MOL0     C31568   6.153   4.995   1.939  0.0071 -0.2645 -0.0122
  240MOL0     C31569   6.106   4.842   1.940 -0.8514  0.0466 -0.0166
  240MOL0     C31570   6.074   4.786   2.075  0.0657  0.0976 -0.9005
  240MOL0     C31571   6.188   4.723   2.149 -0.0036  0.1287  0.1997
  240MOL0     O31572   6.227   4.610   2.076  0.4669 -0.4183 -0.4440
  240MOL0     C31573   6.319   4.517   2.122 -0.5048 -1.2701  0.1441
  240MOL0     C31574   6.400   4.525   2.241 -0.2250  0.4057  0.1996
  240MOL0     C31575   6.489   4.427   2.276  0.2769  0.0300 -0.2278
  240MOL0     C31576   6.504   4.312   2.203 -0.7738  0.2479  0.5624
  240MOL0     C31577   6.609   4.216   2.240 -0.2534 -0.5706 -1.3591
  240MOL0     O31578   6.642   4.218   2.373 -1.0455  0.2842  0.3894
  240MOL0     C31579   6.722   4.119   2.416 -0.1716 -0.2392 -0.5458
  240MOL0     C31580   6.689   3.981   2.421 -0.2718 -0.3822 -0.1118
  240MOL0     C31581   6.785   3.879   2.425  0.1686 -0.2010 -1.2715
  240MOL0     C31582   6.915   3.918   2.450  0.6181 -0.2835 -0.2606
  240MOL0     O31583   7.019   3.834   2.421  0.2979 -0.2099 -0.2822
  240MOL0     C31584   7.095   3.797   2.540 -0.1674  0.7960 -0.1260
  240MOL0     C31585   7.176   3.672   2.507  0.5841 -0.1670 -0.9272
  240MOL0     C31586   7.272   3.648   2.621  0.7853 -0.4606 -0.3080
  240MOL0     C31587   7.343   3.510   2.609 -0.5168  0.2924 -0.5954
  240MOL0     C31588   7.442   3.502   2.724 -0.3183  0.3981  0.4880
  240MOL0     C31589   7.529   3.371   2.740 -1.2853 -0.7692  0.3437
  240MOL0     C31590   7.610   3.368   2.880  0.1158  0.4935  0.7652
  240MOL0     C31591   7.535   3.328   3.004 -0.5668  0.4773 -0.2690
  240MOL0    Cl31592   7.635   3.300   3.148  0.4621 -0.1864  0.1206
  240MOL0     C31593   6.948   4.061   2.479  0.4386  0.2684 -0.0559
  240MOL0     C31594   6.855   4.162   2.443  0.4336 -0.6212  0.4789
  240MOL0     O31595   6.647   4.134   2.165 -0.1493 -0.6090 -0.4376
  240MOL0     C31596   6.418   4.288   2.092  0.3127  0.7090 -0.2392
  240MOL0     C31597   6.332   4.396   2.057 -0.7697 -0.2778  1.0011
  240MOL0     N31598   6.332   5.117   2.085 -0.6700 -0.9484  0.9875
  240MOL0     N31599   6.464   5.125   2.087  0.3274 -0.1885  0.2362
  240MOL0     C31600   7.409   4.235   2.116  0.1887  0.5167 -0.3724
  240MOL0     C31601   7.494   4.128   2.127 -0.5230 -0.0688 -0.6766
  240MOL0     C31602   7.684   3.750   2.338 -0.2432 -0.0764  0.4117
  240MOL0     C31603   7.770   3.750   2.222 -0.7741  0.2159 -0.1309
  240MOL0     C31604   7.889   3.678   2.230  0.4493 -0.8634  0.0881
  240MOL0     C31605   7.929   3.623   2.351  0.1767 -1.1738 -0.1297
  240MOL0     O31606   8.041   3.548   2.356 -0.1142 -0.0993  0.8172
  240MOL0     C31607   8.112   3.508   2.231 -0.1771 -0.2375 -0.0564
  240MOL0     C31608   8.228   3.603   2.203  0.9832  0.2081 -0.2347
  240MOL0     C31609   8.279   3.583   2.051 -1.0943  0.8915  0.6544
  240MOL0     C31610   8.401   3.681   2.020 -0.1020  0.7459 -0.1766
  240MOL0     C31611   8.515   3.657   2.107  1.3083  0.4277 -0.5814
  240MOL0     C31612   8.597   3.620   2.190 -0.7731  0.2878 -0.0638
  240MOL0     C31613   7.842   3.626   2.472 -0.4823 -0.1338  0.6818
  240MOL0     C31614   7.722   3.687   2.458  0.3780 -0.1702 -0.2988
  240MOL0     H31615   7.287   3.919   2.284 -3.2060  1.2405  0.4299
  240MOL0     H31616   7.132   4.094   2.251  0.2260 -2.2199  0.5650
  240MOL0     H31617   7.101   4.355   2.333 -1.6315 -2.1332  0.8144
  240MOL0     H31618   6.998   4.286   2.202 -1.0677  0.8964 -2.5116
  240MOL0     H31619   7.018   4.511   2.086  0.2121 -2.1461  0.4160
  240MOL0     H31620   7.092   4.558   2.248 -2.0026  0.3076  1.9678
  240MOL0     H31621   6.899   4.525   2.353  1.3668 -2.5264 -0.3222
  240MOL0     H31622   6.821   4.434   2.221  0.6852 -2.2085  2.7141
  240MOL0     H31623   6.796   4.624   2.074 -0.8742 -0.2158  0.0176
  240MOL0     H31624   6.715   4.656   2.225  0.7269  0.9310  0.0737
  240MOL0     H31625   7.000   4.750   2.187  0.2996 -0.0454 -1.5807
  240MOL0     H31626   6.869   4.815   2.287  2.6585 -0.9295  0.8300
  240MOL0     H31627   6.884   4.838   1.985 -1.7804  0.9351 -1.5650
  240MOL0     H31628   6.886   4.962   2.111  0.5623 -1.1501  2.2346
  240MOL0     H31629   6.651   4.798   2.010  0.3227  0.9105 -0.5027
  240MOL0     H31630   6.656   4.882   2.178 -1.1186  1.1611 -0.1160
  240MOL0     H31631   6.701   5.013   1.892 -0.6137 -0.3089  0.0007
  240MOL0     H31632   6.708   5.089   2.054  0.8953  0.3714 -0.7773
  240MOL0     H31633   6.419   4.904   1.851  2.2813  0.7820 -0.9084
  240MOL0     H31634   6.152   5.032   1.836  0.4416 -2.7463 -0.9758
  240MOL0     H31635   6.076   5.047   1.997  1.0006  1.2760 -0.0139
  240MOL0     H31636   6.180   4.781   1.888 -1.9012  0.1675 -1.7236
  240MOL0     H31637   6.016   4.829   1.878  0.4575  0.1932 -2.0552
  240MOL0     H31638   6.015   4.854   2.137  0.6789 -0.8565  0.7816
  240MOL0     H31639   6.010   4.698   2.060  0.7131 -0.9827  2.1262
  240MOL0     H31640   6.156   4.709   2.253 -0.1343  2.4685  0.5357
  240MOL0     H31641   6.266   4.800   2.147 -2.3876  2.8047  1.6143
  240MOL0     H31642   6.388   4.606   2.312  1.6535  1.2772 -0.4134
  240MOL0     H31643   6.555   4.441   2.361  0.5218 -0.8367 -0.2639
  240MOL0     H31644   6.584   3.961   2.402 -0.1696 -2.3965  1.1381
  240MOL0     H31645   6.769   3.776   2.395 -0.2522 -0.1533 -1.2213
  240MOL0     H31646   7.027   3.787   2.625 -1.0478  1.2933 -0.7554
  240MOL0     H31647   7.159   3.881   2.569 -1.7571  1.6956  0.9292
  240MOL0     H31648   7.224   3.678   2.408  0.8875  3.7836 -0.7033
  240MOL0     H31649   7.111   3.584   2.507  1.0034 -0.6047  2.5260
  240MOL0     H31650   7.210   3.643   2.711  1.0343  1.6380  0.0248
  240MOL0     H31651   7.346   3.728   2.620  1.4216 -0.9992 -2.9091
  240MOL0     H31652   7.274   3.425   2.619  1.7439 -1.6456 -0.3984
  240MOL0     H31653   7.396   3.498   2.514  0.8018 -1.2196  0.2742
  240MOL0     H31654   7.393   3.515   2.821  4.2563  0.3727  3.0685
  240MOL0     H31655   7.506   3.590   2.714  0.2900 -0.2365 -1.9855
  240MOL0     H31656   7.599   3.360   2.657 -3.0482 -0.2019 -1.2949
  240MOL0     H31657   7.463   3.284   2.734 -0.3025 -1.4943 -0.4173
  240MOL0     H31658   7.685   3.289   2.873  0.8903  1.2341  0.6366
  240MOL0     H31659   7.656   3.464   2.902 -3.4674  2.5179  0.1839
  240MOL0     H31660   7.468   3.242   2.991  1.3095 -0.8591 -1.6468
  240MOL0     H31661   7.456   3.403   3.012  0.0082  0.9502  1.5367
  240MOL0     H31662   7.045   4.097   2.512 -1.2156  2.8989  2.5331
  240MOL0     H31663   6.875   4.268   2.442  0.5636 -0.6114  1.9594
  240MOL0     H31664   6.436   4.198   2.033  0.0225  0.2660  0.3378
  240MOL0     H31665   6.262   4.377   1.977 -3.2895 -2.2780  3.4790
  240MOL0     H31666   7.449   4.329   2.080  1.0806  1.2501  2.3223
  240MOL0     H31667   7.595   4.142   2.091  0.0819 -2.5752 -0.1304
  240MOL0     H31668   7.741   3.788   2.125  2.9620 -1.0094 -1.9213
  240MOL0     H31669   7.944   3.687   2.137  0.6537 -0.2230  0.2687
  240MOL0     H31670   8.038   3.507   2.151 -0.0878 -1.5460 -0.1502
  240MOL0     H31671   8.145   3.406   2.252  0.2106 -0.1775 -0.3705
  240MOL0     H31672   8.194   3.707   2.202  0.2850 -0.0046 -1.6896
  240MOL0     H31673   8.295   3.595   2.289 -0.6407 -1.5366  0.9391
  240MOL0     H31674   8.194   3.601   1.984 -1.8362 -1.8301  0.7450
  240MOL0     H31675   8.317   3.480   2.041  0.0514  1.2725  0.9959
  240MOL0     H31676   8.426   3.669   1.915  2.0808  1.5455  0.1906
  240MOL0     H31677   8.372   3.782   2.052  0.6309  1.0853 -0.5679
  240MOL0     H31678   8.669   3.584   2.260 -0.8345  3.8411  2.0605
  240MOL0     H31679   7.882   3.570   2.556  1.1426 -0.4873 -0.2875
  240MOL0     H31680   7.665   3.683   2.550  2.1247 -1.5984  0.7909
  241MOL0     O31681   3.092   8.794   3.789 -0.8948  0.7182 -0.0848
  241MOL0     C31682   3.188   8.780   3.874  0.0446 -0.4542  0.2528
  241MOL0     O31683   3.310   8.720   3.852  0.2775  0.6148  0.0450
  241MOL0     C31684   3.360   8.706   3.723  0.3049  0.4106  0.7679
  241MOL0     C31685   3.349   8.807   3.631 -0.7342  0.4734  0.8016
  241MOL0     C31686   3.405   8.802   3.504 -0.0234  0.2029  1.0360
  241MOL0     C31687   3.468   8.672   3.458  1.5426  0.2608  0.2805
  241MOL0     O31688   3.533   8.643   3.339  0.1788  0.3172 -0.5403
  241MOL0     C31689   3.522   8.737   3.234 -0.1398  0.2183  0.2347
  241MOL0     C31690   3.604   8.681   3.118  0.3111  0.6229 -0.2444
  241MOL0     C31691   3.560   8.736   2.985 -0.2349  0.8577  0.3645
  241MOL0     C31692   3.662   8.673   2.884 -0.5873  0.2867  1.0967
  241MOL0     C31693   3.670   8.754   2.754  0.3033  0.0413 -0.1001
  241MOL0     C31694   3.756   8.685   2.647 -1.0238 -0.8606 -0.0665
  241MOL0     C31695   3.767   8.789   2.526  0.1844  0.5162  0.7704
  241MOL0     C31696   3.807   8.719   2.398 -0.0985 -0.2853 -0.8819
  241MOL0     N31697   3.949   8.685   2.395  0.1577 -0.2336  0.9915
  241MOL0     C31698   4.051   8.752   2.324 -0.4257  0.4957 -0.3257
  241MOL0     C31699   4.160   8.671   2.339 -0.0310  0.0376  0.5711
  241MOL0     C31700   4.306   8.707   2.315 -0.2102 -0.1211  0.9398
  241MOL0     C31701   4.328   8.658   2.172 -0.2650  0.2224 -0.0076
  241MOL0     C31702   4.464   8.635   2.120 -0.9980 -0.0318 -0.2150
  241MOL0     C31703   4.555   8.544   2.199  0.4202 -0.2883 -0.3080
  241MOL0     O31704   4.672   8.543   2.119 -0.4238 -0.4550 -0.9395
  241MOL0     C31705   4.768   8.440   2.131 -0.3993  0.3299 -0.0904
  241MOL0     C31706   4.867   8.419   2.029  0.2667  0.3770  0.2874
  241MOL0     C31707   4.969   8.321   2.051 -0.1171  0.0628 -0.2921
  241MOL0     C31708   4.962   8.233   2.158 -0.1145  0.2466  0.5348
  241MOL0     C31709   5.053   8.120   2.159 -0.3312 -0.5485  0.6871
  241MOL0     O31710   5.172   8.118   2.087 -0.4538  0.5055  0.3024
  241MOL0     C31711   5.258   8.014   2.124 -0.3812  0.7863 -0.2833
  241MOL0     C31712   5.273   7.898   2.059  0.1219 -0.4128 -0.8124
  241MOL0     C31713   5.363   7.804   2.098 -0.4788  0.2769  0.3665
  241MOL0     C31714   5.436   7.823   2.216 -0.3528 -0.3940 -0.5753
  241MOL0     O31715   5.526   7.727   2.260 -0.2200  0.6496 -0.3301
  241MOL0     C31716   5.660   7.772   2.250 -0.6842 -0.6339 -0.2781
  241MOL0     C31717   5.750   7.644   2.221  1.1275  0.9413  0.7646
  241MOL0     C31718   5.771   7.614   2.080 -0.3669  0.8569  0.4778
  241MOL0     C31719   5.843   7.478   2.069  0.2832  0.2578 -0.4452
  241MOL0     C31720   5.945   7.476   1.958  0.5706 -0.2063  0.6386
  241MOL0     C31721   6.050   7.360   1.982  0.3509 -0.7545 -0.5075
  241MOL0     C31722   6.144   7.355   1.866  0.1591 -0.0215 -0.4630
  241MOL0     C31723   6.239   7.232   1.871 -0.0959  0.1756  0.4961
  241MOL0    Cl31724   6.156   7.082   1.903  0.3288  0.2408  0.0062
  241MOL0     C31725   5.419   7.940   2.288 -0.6082  0.3582 -0.2307
  241MOL0     C31726   5.336   8.038   2.240  0.4190  0.5220 -0.6398
  241MOL0     O31727   5.031   8.044   2.254 -0.2145  0.0806  0.5345
  241MOL0     C31728   4.864   8.261   2.257  0.1683  0.5146 -0.8094
  241MOL0     C31729   4.765   8.361   2.247  0.2901 -0.9607  0.1873
  241MOL0     N31730   4.124   8.558   2.407  0.1540  0.1298 -1.0334
  241MOL0     N31731   4.002   8.569   2.442 -0.3166 -0.4930 -1.0851
  241MOL0     C31732   3.473   8.567   3.548 -0.1214 -0.0646 -0.2350
  241MOL0     C31733   3.420   8.580   3.679  0.4679  0.2101 -0.4324
  241MOL0     C31734   3.163   8.827   4.013 -0.0765  0.9095 -0.3128
  241MOL0     C31735   3.060   8.919   4.050 -0.4049 -0.7115  1.0883
  241MOL0     C31736   3.040   8.955   4.180 -0.6934 -0.7905  0.6186
  241MOL0     C31737   3.117   8.917   4.290  0.1604 -0.3023 -0.0240
  241MOL0     O31738   3.106   8.966   4.420  0.3765  0.6347 -0.0293
  241MOL0     C31739   2.975   9.031   4.458 -0.6380 -0.0400 -0.9463
  241MOL0     C31740   2.941   8.996   4.597 -0.5805 -0.0360 -0.5034
  241MOL0     C31741   2.938   8.832   4.617 -0.3800  0.2315  0.2097
  241MOL0     C31742   3.070   8.769   4.670  0.3182 -0.8365 -0.7302
  241MOL0     C31743   3.040   8.633   4.704 -0.2065 -0.3429 -0.6782
  241MOL0     C31744   3.027   8.520   4.733 -0.1018 -0.1452 -0.6549
  241MOL0     C31745   3.218   8.827   4.260  1.0211 -0.4910  0.8749
  241MOL0     C31746   3.242   8.785   4.125  0.3977 -0.7768 -0.8657
  241MOL0     H31747   3.308   8.900   3.669 -3.5741 -0.8847  1.3618
  241MOL0     H31748   3.408   8.896   3.450  0.0512 -0.5018 -0.2417
  241MOL0     H31749   3.581   8.827   3.254  3.5796 -1.6358 -1.5587
  241MOL0     H31750   3.416   8.759   3.215  0.5684  1.8482 -2.3667
  241MOL0     H31751   3.597   8.573   3.129  1.1500  0.6068  0.2132
  241MOL0     H31752   3.710   8.706   3.131  0.4059 -0.1408  0.5207
  241MOL0     H31753   3.555   8.845   2.996 -1.1938  1.1983 -2.6329
  241MOL0     H31754   3.463   8.701   2.951 -1.1806  3.3612  0.2768
  241MOL0     H31755   3.762   8.655   2.924  1.4229  1.7585 -2.7252
  241MOL0     H31756   3.606   8.586   2.849 -1.7092  1.2210  0.4901
  241MOL0     H31757   3.720   8.848   2.777  0.2821 -0.5314  2.5867
  241MOL0     H31758   3.567   8.780   2.729  0.1869  0.6693  0.9906
  241MOL0     H31759   3.709   8.593   2.613 -1.2278 -1.0391  0.6907
  241MOL0     H31760   3.856   8.677   2.690 -0.9870 -1.1186 -0.2034
  241MOL0     H31761   3.667   8.829   2.509  0.1219 -0.3221 -0.9838
  241MOL0     H31762   3.826   8.880   2.542 -0.8457  0.9220  2.5728
  241MOL0     H31763   3.795   8.800   2.326  1.8251  1.8834  1.0394
  241MOL0     H31764   3.743   8.632   2.382 -2.1605  1.3939 -2.4028
  241MOL0     H31765   4.048   8.844   2.267 -1.8856 -0.2520 -1.5424
  241MOL0     H31766   4.368   8.656   2.389  2.3620  1.5456  0.0593
  241MOL0     H31767   4.302   8.815   2.331 -1.0186  0.5170 -2.7056
  241MOL0     H31768   4.294   8.746   2.116  1.2288 -0.2414 -1.7408
  241MOL0     H31769   4.257   8.577   2.149  1.2429 -1.6536  1.5952
  241MOL0     H31770   4.443   8.580   2.028 -4.3479 -0.6499  0.7786
  241MOL0     H31771   4.519   8.729   2.106  0.2644 -0.4103  1.7769
  241MOL0     H31772   4.520   8.441   2.211  1.0441 -0.3509  1.1398
  241MOL0     H31773   4.566   8.584   2.300 -1.1071 -1.3183  0.2935
  241MOL0     H31774   4.860   8.475   1.937 -1.3860 -0.5826 -0.2016
  241MOL0     H31775   5.046   8.317   1.974  0.7733  4.6603  0.0533
  241MOL0     H31776   5.213   7.883   1.970  0.0982  0.1116 -0.8854
  241MOL0     H31777   5.361   7.715   2.036 -0.3550  0.9276 -0.5981
  241MOL0     H31778   5.687   7.818   2.346  3.0221 -2.9676  0.0217
  241MOL0     H31779   5.661   7.843   2.167 -3.0578  1.1369  1.0881
  241MOL0     H31780   5.706   7.554   2.264 -1.5131  1.8286  0.1651
  241MOL0     H31781   5.843   7.676   2.267 -0.1943  3.0571  2.1759
  241MOL0     H31782   5.829   7.695   2.035 -0.9357  0.7234 -0.5224
  241MOL0     H31783   5.675   7.605   2.027 -1.4613 -0.9332  2.5907
  241MOL0     H31784   5.892   7.448   2.162 -2.3097  1.0279  1.2645
  241MOL0     H31785   5.764   7.404   2.053 -0.4043  0.3882  1.9805
  241MOL0     H31786   6.002   7.569   1.957 -2.5896  1.9695 -2.5937
  241MOL0     H31787   5.892   7.454   1.865  3.4433 -2.5571 -0.5988
  241MOL0     H31788   5.996   7.265   1.988  4.9713 -3.8121 -2.1294
  241MOL0     H31789   6.101   7.375   2.078 -2.2776  1.5020  0.6812
  241MOL0     H31790   6.077   7.356   1.780 -1.2671  0.0615  0.6093
  241MOL0     H31791   6.203   7.447   1.862 -1.1410  0.9729  1.6675
  241MOL0     H31792   6.322   7.252   1.940 -0.5477  1.5078  0.6898
  241MOL0     H31793   6.298   7.219   1.780  1.4124 -1.1634  1.6115
  241MOL0     H31794   5.483   7.946   2.375  0.0090 -1.6845 -0.4958
  241MOL0     H31795   5.339   8.128   2.299 -3.4577 -1.0330  2.3757
  241MOL0     H31796   4.877   8.205   2.349  1.4374 -0.1438 -1.3653
  241MOL0     H31797   4.697   8.357   2.332 -1.3963  0.3465 -1.0323
  241MOL0     H31798   3.508   8.468   3.520  0.8577 -0.2153  1.4158
  241MOL0     H31799   3.408   8.499   3.749 -2.2691  0.9583  0.1045
  241MOL0     H31800   2.980   8.954   3.986 -0.3468  1.1380  1.9739
  241MOL0     H31801   2.953   9.017   4.197 -1.1260 -1.7188  1.9263
  241MOL0     H31802   2.888   8.994   4.403 -1.0506  0.1431 -0.4223
  241MOL0     H31803   2.985   9.140   4.453 -2.2149  0.3109  1.7651
  241MOL0     H31804   3.007   9.038   4.674 -2.6862 -0.8323  1.8586
  241MOL0     H31805   2.840   9.035   4.613 -0.7917 -0.1815 -1.4526
  241MOL0     H31806   2.919   8.786   4.520  0.5651 -2.0051  1.0253
  241MOL0     H31807   2.849   8.811   4.677 -1.8443 -1.5200 -2.3949
  241MOL0     H31808   3.146   8.780   4.592 -0.4684  1.6490 -1.2563
  241MOL0     H31809   3.107   8.818   4.760  1.3326  1.5700 -2.3432
  241MOL0     H31810   3.004   8.418   4.756 -2.0470  0.7884  1.9553
  241MOL0     H31811   3.275   8.800   4.348  1.8912  1.6730  1.0336
  241MOL0     H31812   3.329   8.722   4.111  1.4663  0.8481 -1.9295
  242MOL0     O31813   1.838   2.480   9.693 -0.0870  0.1125 -0.8969
  242MOL0     C31814   1.903   2.502   9.794  0.3523 -0.5896  0.8075
  242MOL0     O31815   2.033   2.470   9.809  0.4280 -0.0072  0.5377
  242MOL0     C31816   2.113   2.442   9.696  0.6012  0.2414  1.0949
  242MOL0     C31817   2.087   2.450   9.553  0.1967  0.7259 -0.6540
  242MOL0     C31818   2.192   2.424   9.468 -0.2842 -0.1322  0.2607
  242MOL0     C31819   2.320   2.383   9.511 -0.6071 -1.3103 -0.3761
  242MOL0     O31820   2.425   2.363   9.418 -0.1314 -0.0286  0.0651
  242MOL0     C31821   2.517   2.258   9.449  0.4065 -0.1099  0.1537
  242MOL0     C31822   2.646   2.287   9.374  0.1228  0.3587  0.3379
  242MOL0     C31823   2.745   2.168   9.373  0.1278  0.0675  1.0378
  242MOL0     C31824   2.805   2.107   9.499 -0.1133  0.4732  0.6952
  242MOL0     C31825   2.864   2.213   9.592  1.1118  0.4760 -0.1861
  242MOL0     C31826   2.971   2.314   9.540  0.3544  0.3434  0.8054
  242MOL0     C31827   3.086   2.244   9.466  0.0862 -0.7864 -0.3970
  242MOL0     C31828   3.188   2.173   9.555  1.3177 -1.1407 -0.0085
  242MOL0     N31829   3.265   2.261   9.653  0.1414 -0.2966 -0.6573
  242MOL0     C31830   3.380   2.332   9.632 -0.1653  1.0634 -0.8703
  242MOL0     C31831   3.424   2.367   9.757 -0.6397 -0.4382 -0.6947
  242MOL0     C31832   3.556   2.447   9.792  0.2187 -0.0786 -0.4007
  242MOL0     C31833   3.528   2.549   9.904  0.3378  0.4788 -0.1769
  242MOL0     C31834   3.662   2.618   9.949 -0.6003  0.0745  0.1528
  242MOL0     C31835   3.624   2.697  10.079  0.5563 -1.2843  0.4763
  242MOL0     O31836   3.739   2.779  10.123 -0.3308 -1.0987 -0.2436
  242MOL0     C31837   3.822   2.746  10.222 -0.0821  0.0793  0.4100
  242MOL0     C31838   3.828   2.609  10.273  0.0016 -0.4653  0.2314
  242MOL0     C31839   3.885   2.581  10.393  1.2011 -0.4088 -0.6067
  242MOL0     C31840   3.958   2.687  10.459  0.4933 -0.6493 -0.7733
  242MOL0     C31841   4.021   2.664  10.597  0.5450  0.8094  0.3952
  242MOL0     O31842   4.092   2.762  10.656  0.2391  0.4340  0.9867
  242MOL0     C31843   4.158   2.732  10.765 -0.0560  0.5423  0.4082
  242MOL0     C31844   4.120   2.768  10.891 -0.5140  0.8569 -0.8382
  242MOL0     C31845   4.184   2.716  11.008  0.6980 -0.1814  1.1985
  242MOL0     C31846   4.299   2.640  10.998 -0.4806  0.8718 -0.5173
  242MOL0     O31847   4.382   2.627  11.108 -0.5766 -1.1058  0.3851
  242MOL0     C31848   4.434   2.495  11.131 -0.0168 -0.3514  0.4706
  242MOL0     C31849   4.342   2.409  11.212  0.7635  0.6401 -0.5673
  242MOL0     C31850   4.301   2.461  11.349 -0.1740  0.4581 -0.5735
  242MOL0     C31851   4.421   2.437  11.457  1.0889  0.3271  0.6389
  242MOL0     C31852   4.409   2.527  11.581 -0.2861  1.9622 -0.2884
  242MOL0     C31853   4.281   2.509  11.668  0.7773  0.1523  0.0841
  242MOL0     C31854   4.307   2.589  11.800  0.3797  0.3699 -0.4945
  242MOL0     C31855   4.188   2.582  11.905 -0.3639 -0.5839 -0.5753
  242MOL0    Cl31856   4.136   2.748  11.940  0.0772 -0.1680 -0.1154
  242MOL0     C31857   4.347   2.614  10.868  0.6631  0.3363 -0.3513
  242MOL0     C31858   4.281   2.655  10.752  0.9443  0.1618  0.1450
  242MOL0     O31859   3.988   2.554  10.649 -0.4970 -0.0991  0.1466
  242MOL0     C31860   3.978   2.810  10.397 -0.3499  0.3643  0.4296
  242MOL0     C31861   3.913   2.837  10.277 -0.2685 -0.4988 -0.1196
  242MOL0     N31862   3.338   2.320   9.848  0.1492  0.7141  0.1885
  242MOL0     N31863   3.246   2.249   9.787  0.4544  0.0147 -0.8058
  242MOL0     C31864   2.339   2.365   9.652  0.9947  0.0042  0.4950
  242MOL0     C31865   2.238   2.401   9.740 -0.2639  0.4702  0.7669
  242MOL0     C31866   1.837   2.574   9.901  0.5767 -0.1244 -0.7072
  242MOL0     C31867   1.903   2.585  10.022 -0.1936  0.7170 -0.0544
  242MOL0     C31868   1.836   2.633  10.137  0.1099 -0.2828  0.8451
  242MOL0     C31869   1.696   2.681  10.118 -0.5916  0.4372 -0.0534
  242MOL0     O31870   1.651   2.721  10.242 -0.1946 -0.5393 -0.3142
  242MOL0     C31871   1.510   2.745  10.234 -0.0194  0.5707 -0.4337
  242MOL0     C31872   1.472   2.804  10.367 -0.9339  0.9796 -0.2765
  242MOL0     C31873   1.337   2.764  10.409 -0.1191  1.1388 -0.1513
  242MOL0     C31874   1.319   2.638  10.487 -0.8320  0.3171 -0.5984
  242MOL0     C31875   1.361   2.661  10.629  0.3865  0.7499  0.0547
  242MOL0     C31876   1.385   2.690  10.748 -0.1075 -0.1209 -0.2509
  242MOL0     C31877   1.630   2.674   9.993 -0.4287  0.0002 -0.0121
  242MOL0     C31878   1.703   2.613   9.885  0.0379 -0.4364 -0.9534
  242MOL0     H31879   1.991   2.465   9.504 -0.6771 -1.6188  0.1922
  242MOL0     H31880   2.153   2.422   9.367 -1.1675  1.4603  0.5457
  242MOL0     H31881   2.468   2.174   9.399 -0.2176 -0.1995  0.9052
  242MOL0     H31882   2.527   2.236   9.556 -1.7505  0.3063  0.4756
  242MOL0     H31883   2.699   2.367   9.428  1.4369 -0.6415  0.5786
  242MOL0     H31884   2.623   2.327   9.275  2.9220  2.6958  0.4821
  242MOL0     H31885   2.834   2.201   9.319  1.5944 -1.3358  2.4766
  242MOL0     H31886   2.703   2.084   9.316  0.1651 -1.4553  3.1202
  242MOL0     H31887   2.726   2.055   9.553  0.9407 -0.5404  1.3185
  242MOL0     H31888   2.883   2.032   9.480 -0.1513  0.2417  1.4384
  242MOL0     H31889   2.898   2.161   9.682  1.3522  1.9211  0.5888
  242MOL0     H31890   2.780   2.277   9.620  0.9071  0.0114  0.2776
  242MOL0     H31891   3.009   2.387   9.613 -3.6879  4.1874 -0.5065
  242MOL0     H31892   2.913   2.375   9.470 -2.9457 -1.6511  1.5991
  242MOL0     H31893   3.039   2.173   9.399  1.6154 -1.8371 -0.4152
  242MOL0     H31894   3.133   2.323   9.406  1.1636 -0.2953  1.0208
  242MOL0     H31895   3.257   2.124   9.487  3.9654  2.0938  0.1399
  242MOL0     H31896   3.129   2.102   9.614 -1.9456  0.9812 -0.4168
  242MOL0     H31897   3.425   2.349   9.535 -4.8700 -1.2186 -3.8055
  242MOL0     H31898   3.614   2.498   9.714  0.3996  2.1771  1.1018
  242MOL0     H31899   3.625   2.371   9.829  0.2502  1.0039  1.9006
  242MOL0     H31900   3.483   2.494   9.987  0.7360 -0.5590 -0.6298
  242MOL0     H31901   3.453   2.621   9.873 -1.0095 -1.8150 -2.6393
  242MOL0     H31902   3.740   2.547   9.977 -0.7305  0.4015  1.3976
  242MOL0     H31903   3.690   2.699   9.882 -1.6721  1.4636  1.3031
  242MOL0     H31904   3.590   2.630  10.158  0.2226  2.3027  3.6368
  242MOL0     H31905   3.542   2.763  10.048  1.8948 -1.1409 -3.3028
  242MOL0     H31906   3.766   2.532  10.227 -1.0654  0.4778  0.0542
  242MOL0     H31907   3.879   2.483  10.439 -0.7498 -0.5506 -1.0597
  242MOL0     H31908   4.036   2.833  10.909  0.1801  1.1597  1.7219
  242MOL0     H31909   4.154   2.756  11.104 -1.2232  0.1221  0.5187
  242MOL0     H31910   4.525   2.490  11.191 -0.7277 -1.3962  1.5173
  242MOL0     H31911   4.448   2.453  11.031 -1.7251  1.6157 -0.6892
  242MOL0     H31912   4.374   2.305  11.215 -0.5554  0.2367  0.8154
  242MOL0     H31913   4.254   2.397  11.147  0.9984  2.7133 -1.3322
  242MOL0     H31914   4.209   2.410  11.379 -0.7177  0.9625 -1.3628
  242MOL0     H31915   4.268   2.565  11.349  0.2138  0.6118  0.7842
  242MOL0     H31916   4.417   2.328  11.472 -2.9535  0.0830 -1.0537
  242MOL0     H31917   4.519   2.468  11.418  0.2706  1.7285 -0.3714
  242MOL0     H31918   4.431   2.631  11.559 -2.2997  2.6916  0.8875
  242MOL0     H31919   4.489   2.494  11.648  2.2667  1.5728 -3.2743
  242MOL0     H31920   4.270   2.402  11.688  1.5403 -0.4381 -2.3015
  242MOL0     H31921   4.182   2.537  11.630 -0.2803 -0.9633  1.8320
  242MOL0     H31922   4.390   2.530  11.841 -1.8455 -2.7548 -0.1340
  242MOL0     H31923   4.338   2.694  11.793 -3.3397  1.7580  1.3736
  242MOL0     H31924   4.232   2.530  11.990 -2.1586 -2.8777 -0.9502
  242MOL0     H31925   4.100   2.529  11.869 -0.8921 -1.5698  1.9583
  242MOL0     H31926   4.441   2.563  10.854  1.4804  0.8759  2.5669
  242MOL0     H31927   4.330   2.631  10.659 -0.3144  0.2140 -0.5477
  242MOL0     H31928   4.037   2.889  10.441  0.9133 -0.5158  0.3647
  242MOL0     H31929   3.915   2.934  10.228 -3.4257 -0.6664 -0.7915
  242MOL0     H31930   2.438   2.334   9.682  0.7945  0.0179  1.1850
  242MOL0     H31931   2.254   2.364   9.841  0.0062 -1.4984  0.0405
  242MOL0     H31932   2.003   2.544  10.020 -0.7429 -0.6831 -0.3307
  242MOL0     H31933   1.891   2.645  10.229 -0.0566  0.2918  0.8772
  242MOL0     H31934   1.463   2.646  10.243 -2.5385  1.9232  3.7220
  242MOL0     H31935   1.460   2.804  10.156  1.6258  0.4220 -1.6572
  242MOL0     H31936   1.550   2.777  10.439  0.3723 -1.6636 -2.4550
  242MOL0     H31937   1.477   2.912  10.357 -3.6086  1.2603  0.6602
  242MOL0     H31938   1.279   2.741  10.319  1.3020 -2.5651 -0.3072
  242MOL0     H31939   1.299   2.842  10.476  2.5400 -1.1739  4.6285
  242MOL0     H31940   1.217   2.601  10.497 -0.0369 -1.8296  0.4213
  242MOL0     H31941   1.372   2.555  10.439 -1.2872  0.1973 -0.8898
  242MOL0     H31942   1.382   2.726  10.849 -2.5822 -4.3766  1.4611
  242MOL0     H31943   1.534   2.724   9.981  0.6494  2.2275  0.0581
  242MOL0     H31944   1.649   2.606   9.791  0.8975 -0.8878 -1.4234
  243MOL0     O31945   7.104   7.671   2.010 -0.7745  0.0099 -0.6351
  243MOL0     C31946   6.987   7.651   2.055 -0.8021  0.6194 -0.3840
  243MOL0     O31947   6.925   7.530   2.053 -0.2900  0.5204 -1.0538
  243MOL0     C31948   6.976   7.422   1.976  0.2588  0.0765 -0.8475
  243MOL0     C31949   7.031   7.432   1.854  0.0155 -0.2504  0.2536
  243MOL0     C31950   7.064   7.319   1.775 -0.5692  0.4951 -1.0373
  243MOL0     C31951   7.050   7.189   1.829 -0.1759 -0.2740  0.1140
  243MOL0     O31952   7.099   7.086   1.755  0.2138  0.0394  0.4325
  243MOL0     C31953   7.021   6.969   1.753  1.2783  0.4095  0.2304
  243MOL0     C31954   7.108   6.852   1.811  0.2623 -0.6231 -0.4957
  243MOL0     C31955   7.041   6.715   1.789 -0.3028  0.3418  1.1054
  243MOL0     C31956   7.105   6.602   1.867 -0.7768 -0.2181  0.1781
  243MOL0     C31957   7.230   6.546   1.793 -0.6529 -0.3540 -0.0217
  243MOL0     C31958   7.193   6.434   1.714  0.3614 -0.1275 -0.3853
  243MOL0     C31959   7.284   6.385   1.603  0.3172  0.3354  1.0698
  243MOL0     C31960   7.276   6.228   1.563 -0.1988  0.6599 -0.5731
  243MOL0     N31961   7.140   6.198   1.508 -0.2425 -0.0084  0.1469
  243MOL0     C31962   7.039   6.151   1.588  0.7772  0.6516 -0.6593
  243MOL0     C31963   6.947   6.096   1.504  0.5926 -0.7428 -0.5178
  243MOL0     C31964   6.822   6.027   1.539  0.4104  0.3170 -1.4819
  243MOL0     C31965   6.695   6.122   1.524 -0.4361  0.8962 -0.9033
  243MOL0     C31966   6.657   6.121   1.373  0.5818  0.3071 -0.5664
  243MOL0     C31967   6.529   6.214   1.340  0.1775 -0.1442  0.1453
  243MOL0     O31968   6.503   6.186   1.205  0.0733  0.0534  0.4647
  243MOL0     C31969   6.412   6.267   1.146  0.0213  0.3741 -0.2587
  243MOL0     C31970   6.368   6.204   1.031 -0.0162  0.1913 -0.5562
  243MOL0     C31971   6.270   6.258   0.959  0.2058  0.7482  0.7752
  243MOL0     C31972   6.222   6.387   0.972 -0.1616  1.0108 -0.0876
  243MOL0     C31973   6.141   6.457   0.869 -0.5061 -0.1202 -0.0746
  243MOL0     O31974   6.078   6.380   0.763 -0.0627 -0.0947 -0.4583
  243MOL0     C31975   5.992   6.447   0.680  1.1010  0.9770  0.8825
  243MOL0     C31976   5.902   6.553   0.712 -0.3687  0.1732 -0.1207
  243MOL0     C31977   5.805   6.588   0.616  0.7121 -0.4829  0.4740
  243MOL0     C31978   5.801   6.521   0.490  0.6012 -0.1194  0.1741
  243MOL0     O31979   5.706   6.551   0.395 -0.5384 -1.1363  0.0347
  243MOL0     C31980   5.601   6.641   0.421  0.5146 -0.8256  1.1681
  243MOL0     C31981   5.486   6.584   0.507 -0.4150 -0.2600 -0.5099
  243MOL0     C31982   5.351   6.623   0.461 -0.1660  1.0171  0.4043
  243MOL0     C31983   5.319   6.771   0.464  0.4021 -1.1950  0.0377
  243MOL0     C31984   5.177   6.811   0.412 -0.2004 -1.2439 -0.2932
  243MOL0     C31985   5.048   6.745   0.489  0.0971 -0.6621  0.1446
  243MOL0     C31986   4.924   6.839   0.486 -0.1577 -0.7791 -0.5173
  243MOL0     C31987   4.785   6.779   0.535 -1.1920 -0.8133  0.2834
  243MOL0    Cl31988   4.802   6.697   0.697 -0.0299 -0.2173  0.0469
  243MOL0     C31989   5.900   6.423   0.467  0.4394  0.5224 -1.3456
  243MOL0     C31990   5.990   6.385   0.558  0.7458  0.2107 -0.3154
  243MOL0     O31991   6.119   6.580   0.887  0.3689 -0.2227 -0.1743
  243MOL0     C31992   6.277   6.451   1.087 -0.0116  0.3702  0.4665
  243MOL0     C31993   6.367   6.390   1.174  0.2571  0.0542 -0.5222
  243MOL0     N31994   6.987   6.121   1.378 -0.2901  0.2152  0.5266
  243MOL0     N31995   7.100   6.185   1.373 -0.6258 -0.2622 -0.6832
  243MOL0     C31996   7.005   7.182   1.966 -0.5505  0.2915 -0.0397
  243MOL0     C31997   6.968   7.296   2.039  0.5160 -0.2024 -1.0687
  243MOL0     C31998   6.913   7.768   2.115  0.2617 -0.1318  0.1999
  243MOL0     C31999   6.778   7.762   2.121 -0.2158  0.9431 -1.2237
  243MOL0     C32000   6.699   7.872   2.172  0.0907  0.0121  0.1579
  243MOL0     C32001   6.762   7.994   2.201 -0.2601 -0.6128 -0.2572
  243MOL0     O32002   6.686   8.099   2.249  0.1542  0.3283 -0.4468
  243MOL0     C32003   6.542   8.090   2.254 -0.1333  0.4410 -0.9357
  243MOL0     C32004   6.516   8.238   2.291 -0.3288  0.0327 -0.3330
  243MOL0     C32005   6.371   8.275   2.280 -0.3885 -0.3399 -0.2925
  243MOL0     C32006   6.340   8.389   2.381  0.5553  0.5712  0.1814
  243MOL0     C32007   6.194   8.417   2.378  0.0591 -0.5905 -0.0009
  243MOL0     C32008   6.085   8.461   2.387 -0.2891  0.3140 -0.5572
  243MOL0     C32009   6.901   7.996   2.190  0.6421  0.2727  0.1088
  243MOL0     C32010   6.977   7.883   2.146 -0.0991 -0.7428  0.1329
  243MOL0     H32011   7.040   7.528   1.804 -0.9954  0.3257  1.1342
  243MOL0     H32012   7.100   7.335   1.674 -1.7683 -0.2461 -1.6087
  243MOL0     H32013   6.981   6.958   1.652 -2.3708  0.2995  1.5105
  243MOL0     H32014   6.933   6.987   1.816  1.9010  1.8450  0.7239
  243MOL0     H32015   7.126   6.874   1.916 -2.1856 -1.3665  0.1583
  243MOL0     H32016   7.210   6.854   1.773  1.2645 -1.5282  2.0099
  243MOL0     H32017   7.037   6.690   1.683  2.0781  1.8754  0.5749
  243MOL0     H32018   6.947   6.730   1.843 -0.7214 -2.5409  1.3354
  243MOL0     H32019   7.135   6.637   1.966  0.2946 -0.8544  0.0843
  243MOL0     H32020   7.028   6.525   1.876  2.6786 -3.7155  3.6613
  243MOL0     H32021   7.291   6.508   1.876 -1.0034  0.4162  0.5977
  243MOL0     H32022   7.293   6.623   1.748 -0.5490 -0.4974 -0.1220
  243MOL0     H32023   7.100   6.458   1.663 -1.4262  0.4607  2.8505
  243MOL0     H32024   7.171   6.350   1.781 -1.6093  1.4053  1.0252
  243MOL0     H32025   7.258   6.441   1.513  2.1095 -0.6050 -0.1145
  243MOL0     H32026   7.388   6.398   1.635  0.3784  2.2134  0.2097
  243MOL0     H32027   7.285   6.172   1.656  1.4674 -0.5498 -1.4207
  243MOL0     H32028   7.349   6.202   1.486 -3.4488 -1.0675 -3.3327
  243MOL0     H32029   7.041   6.150   1.697 -4.6074  3.4484 -0.1850
  243MOL0     H32030   6.825   5.981   1.638 -3.2488  0.6700 -1.0534
  243MOL0     H32031   6.810   5.942   1.471 -1.0796  0.5788 -1.5712
  243MOL0     H32032   6.715   6.224   1.561 -1.0392  1.6155 -2.4830
  243MOL0     H32033   6.614   6.073   1.579  1.7387 -1.4171  0.4154
  243MOL0     H32034   6.745   6.165   1.325  0.9675 -0.9448 -1.0612
  243MOL0     H32035   6.623   6.024   1.334  2.7670 -0.3320 -1.0709
  243MOL0     H32036   6.569   6.316   1.348 -0.7073  0.6425 -3.4370
  243MOL0     H32037   6.446   6.186   1.405 -0.7037 -0.8315 -1.2430
  243MOL0     H32038   6.373   6.096   1.028 -0.2023  0.1895 -0.9107
  243MOL0     H32039   6.210   6.196   0.893  0.7727  0.3909  0.5779
  243MOL0     H32040   5.907   6.607   0.806  2.1984  2.9044 -1.6113
  243MOL0     H32041   5.735   6.670   0.629  1.1848 -0.1447  0.9375
  243MOL0     H32042   5.560   6.663   0.322 -0.6277 -1.0059  1.5881
  243MOL0     H32043   5.641   6.738   0.455 -0.7794  0.1338  0.0816
  243MOL0     H32044   5.516   6.627   0.603 -3.2485  0.9658 -0.0619
  243MOL0     H32045   5.497   6.476   0.505 -2.4484 -0.4951 -2.5925
  243MOL0     H32046   5.271   6.576   0.520 -1.9750 -0.5515 -2.9844
  243MOL0     H32047   5.326   6.587   0.361 -2.9987  0.1907  1.3098
  243MOL0     H32048   5.341   6.815   0.562 -1.7626 -2.2764  1.0834
  243MOL0     H32049   5.386   6.814   0.389 -0.2890 -2.9331 -1.6463
  243MOL0     H32050   5.179   6.777   0.308 -0.3011 -2.2622  0.0218
  243MOL0     H32051   5.173   6.920   0.411 -1.3392 -1.2193  1.5210
  243MOL0     H32052   5.067   6.712   0.591 -2.8804  2.5607  1.9370
  243MOL0     H32053   5.023   6.661   0.423  0.2142 -0.4242 -0.2092
  243MOL0     H32054   4.950   6.916   0.560 -3.6043 -1.0241  1.1032
  243MOL0     H32055   4.913   6.874   0.383  3.8993 -3.2936 -2.0440
  243MOL0     H32056   4.757   6.700   0.464 -0.8339 -1.7675  1.1787
  243MOL0     H32057   4.718   6.865   0.535  2.8453  2.8019 -3.0704
  243MOL0     H32058   5.884   6.372   0.373 -1.7908 -1.2040 -0.1254
  243MOL0     H32059   6.063   6.305   0.552  0.1343 -0.3038 -1.0224
  243MOL0     H32060   6.236   6.548   1.114 -1.7812 -0.5193  1.1937
  243MOL0     H32061   6.405   6.431   1.267  0.5786 -2.3720  0.4780
  243MOL0     H32062   7.015   7.089   2.020  0.3121  0.3473 -0.0888
  243MOL0     H32063   6.915   7.289   2.133  0.5704 -1.6452 -1.1334
  243MOL0     H32064   6.728   7.672   2.088  1.1745  0.1761 -1.3040
  243MOL0     H32065   6.595   7.857   2.200  0.7391 -0.6495  2.4944
  243MOL0     H32066   6.502   8.029   2.335 -0.0351  1.3505 -0.1792
  243MOL0     H32067   6.507   8.073   2.152  0.5674  0.3794 -1.1742
  243MOL0     H32068   6.555   8.257   2.392 -1.6131  0.2297  0.1478
  243MOL0     H32069   6.574   8.300   2.222  0.2005  2.1638  1.8638
  243MOL0     H32070   6.309   8.189   2.306  1.9129 -1.6982  0.9449
  243MOL0     H32071   6.356   8.307   2.176 -1.7127 -0.1032 -0.0429
  243MOL0     H32072   6.371   8.360   2.482  2.6362  1.3409 -0.1939
  243MOL0     H32073   6.397   8.480   2.360 -1.4841  1.1517 -3.8064
  243MOL0     H32074   5.988   8.492   2.420 -0.3936 -0.9680  0.3909
  243MOL0     H32075   6.929   8.091   2.236 -1.6900  0.9909  0.2187
  243MOL0     H32076   7.085   7.888   2.150 -0.0777  1.5094 -1.3390
  244MOL0     O32077   5.383   9.848   1.827  0.5787 -0.7403 -0.2431
  244MOL0     C32078   5.442   9.871   1.928 -0.3626  0.0087  0.0562
  244MOL0     O32079   5.460   9.995   1.983 -0.4461  0.1689  0.0726
  244MOL0     C32080   5.398  10.109   1.959 -0.0647 -0.1204 -0.0628
  244MOL0     C32081   5.274  10.118   1.896  0.4249  0.5046 -0.5131
  244MOL0     C32082   5.213  10.241   1.871 -0.6986 -0.1152  0.2030
  244MOL0     C32083   5.264  10.351   1.932 -0.1575  0.0481 -0.4231
  244MOL0     O32084   5.220  10.476   1.908  0.7027 -0.0465 -0.3305
  244MOL0     C32085   5.077  10.489   1.873 -0.5329  0.1171 -0.0141
  244MOL0     C32086   5.047  10.629   1.907 -0.1311 -0.6760 -0.1424
  244MOL0     C32087   4.897  10.658   1.919 -1.1390 -0.0052 -0.1061
  244MOL0     C32088   4.872  10.798   1.963  0.3786 -0.1169 -0.9435
  244MOL0     C32089   4.723  10.839   1.958 -0.0961  1.1358  0.6604
  244MOL0     C32090   4.665  10.866   1.819 -0.5194  0.2105  0.4050
  244MOL0     C32091   4.519  10.940   1.830  0.3611  0.1330  0.4858
  244MOL0     C32092   4.411  10.862   1.758  0.5920  0.0345  0.5624
  244MOL0     N32093   4.274  10.919   1.776 -1.2024  1.1303  0.1396
  244MOL0     C32094   4.238  11.038   1.833  0.0944 -0.3116 -0.1202
  244MOL0     C32095   4.102  11.044   1.835  0.6866  0.9092 -0.3648
  244MOL0     C32096   4.028  11.133   1.926 -0.1013  0.2060 -0.1415
  244MOL0     C32097   3.981  11.261   1.852 -0.1839  0.4686 -0.6180
  244MOL0     C32098   3.905  11.360   1.937 -0.1916  1.1981 -0.3260
  244MOL0     C32099   3.768  11.299   1.965 -0.5521 -0.1632 -0.1772
  244MOL0     O32100   3.683  11.378   2.042  0.3445 -0.0457 -1.0416
  244MOL0     C32101   3.601  11.475   1.992  0.8274 -0.0761  0.3485
  244MOL0     C32102   3.471  11.479   2.056  0.9894  0.4481 -0.0951
  244MOL0     C32103   3.382  11.592   2.028  0.7160  0.6287  0.1459
  244MOL0     C32104   3.414  11.674   1.925 -0.2057 -0.2102 -0.1632
  244MOL0     C32105   3.326  11.796   1.902  0.1326  0.2068  1.1018
  244MOL0     O32106   3.229  11.830   1.987  1.3218  0.6174 -0.5290
  244MOL0     C32107   3.131  11.917   1.951  1.0742  0.5821  0.4245
  244MOL0     C32108   3.163  12.044   1.909 -0.5263 -0.4628  0.3894
  244MOL0     C32109   3.060  12.136   1.881  0.6367 -0.7421 -0.6260
  244MOL0     C32110   2.925  12.091   1.877 -0.0367 -0.4727  0.0808
  244MOL0     O32111   2.818  12.165   1.826 -0.7608 -0.2651 -0.2077
  244MOL0     C32112   2.833  12.189   1.687 -0.5089 -0.2445  0.2352
  244MOL0     C32113   2.706  12.264   1.623 -0.3353  0.4174 -0.2297
  244MOL0     C32114   2.712  12.226   1.467  0.1754 -0.5324 -0.0138
  244MOL0     C32115   2.582  12.268   1.395  0.8473  0.4356  0.3755
  244MOL0     C32116   2.568  12.218   1.251  0.8496 -0.4275  0.1341
  244MOL0     C32117   2.660  12.287   1.154 -0.4568  0.1320  0.8992
  244MOL0     C32118   2.628  12.274   0.997  0.9965 -0.4103  0.4330
  244MOL0     C32119   2.529  12.385   0.951 -0.5214  0.1003 -0.1143
  244MOL0    Cl32120   2.582  12.540   1.016 -0.9352  0.3255 -0.1517
  244MOL0     C32121   2.904  11.956   1.923 -0.0107  0.4126 -0.1279
  244MOL0     C32122   3.004  11.870   1.965 -0.1374  0.1316 -0.3982
  244MOL0     O32123   3.350  11.858   1.798  0.5948 -0.6696 -1.2411
  244MOL0     C32124   3.530  11.661   1.848  0.1729 -0.1686 -0.7624
  244MOL0     C32125   3.623  11.560   1.881 -0.2830 -0.7839 -0.9077
  244MOL0     N32126   4.067  10.932   1.770  1.0949  0.2334  0.1430
  244MOL0     N32127   4.164  10.850   1.737 -0.9480  0.3978  0.5390
  244MOL0     C32128   5.378  10.342   2.007 -0.1265  0.1530  0.2468
  244MOL0     C32129   5.452  10.225   2.022 -0.2100  0.3346  0.5444
  244MOL0     C32130   5.531   9.759   1.966 -0.5596 -0.0634 -0.3831
  244MOL0     C32131   5.596   9.773   2.085 -1.3789 -0.7633  0.1991
  244MOL0     C32132   5.665   9.661   2.133 -0.2586  0.2586  0.7247
  244MOL0     C32133   5.676   9.543   2.066  0.0396  0.3574 -0.3867
  244MOL0     O32134   5.746   9.439   2.119  0.7612 -0.0431 -0.3742
  244MOL0     C32135   5.888   9.453   2.109 -0.2228 -0.3872  0.1743
  244MOL0     C32136   5.962   9.330   2.043  0.5662  0.5313 -0.4170
  244MOL0     C32137   6.115   9.353   2.059  0.3945  0.7135  0.3620
  244MOL0     C32138   6.189   9.211   2.061  0.1985 -0.5821  0.0678
  244MOL0     C32139   6.174   9.118   1.944  0.6323  0.0225 -1.0093
  244MOL0     C32140   6.161   9.043   1.849  0.4017  0.1221 -0.2219
  244MOL0     C32141   5.612   9.532   1.938 -0.2713 -0.0553  0.5282
  244MOL0     C32142   5.546   9.644   1.886  1.4512  0.2657 -0.3776
  244MOL0     H32143   5.224  10.039   1.841 -1.3072  2.8505 -2.5348
  244MOL0     H32144   5.122  10.233   1.812  0.1863 -2.4226 -0.9698
  244MOL0     H32145   5.011  10.439   1.944 -1.3015  2.5213  1.0546
  244MOL0     H32146   5.048  10.464   1.771 -0.8900 -0.2574  0.1788
  244MOL0     H32147   5.089  10.690   1.826  0.0710  0.3135  0.6812
  244MOL0     H32148   5.100  10.662   1.997 -0.9344 -0.4125  0.2427
  244MOL0     H32149   4.844  10.577   1.968 -0.3671 -0.5846 -0.2086
  244MOL0     H32150   4.867  10.651   1.814 -0.9439 -3.4907 -0.0333
  244MOL0     H32151   4.897  10.797   2.070 -0.8035  2.0660 -0.5898
  244MOL0     H32152   4.944  10.867   1.917  0.3743  1.0519  0.6948
  244MOL0     H32153   4.708  10.923   2.027 -0.0296  2.7291 -1.2035
  244MOL0     H32154   4.655  10.761   1.995 -3.7872  2.2783 -3.0456
  244MOL0     H32155   4.654  10.766   1.777  3.6459 -0.6638  0.9659
  244MOL0     H32156   4.729  10.928   1.756  1.0443 -1.9131 -0.2014
  244MOL0     H32157   4.482  10.944   1.933 -0.3503 -1.8913  0.3541
  244MOL0     H32158   4.527  11.045   1.801  2.4973  0.4678  2.0438
  244MOL0     H32159   4.414  10.754   1.776  1.8303 -0.1934 -0.7546
  244MOL0     H32160   4.436  10.885   1.654  2.5178  0.2981  1.0410
  244MOL0     H32161   4.294  11.117   1.881  2.2197 -1.1946 -1.0341
  244MOL0     H32162   4.096  11.167   2.005 -1.2734 -0.2838  1.1142
  244MOL0     H32163   3.956  11.067   1.975  1.8457 -2.2103 -0.3513
  244MOL0     H32164   3.911  11.229   1.774  0.1036  2.0186 -1.5431
  244MOL0     H32165   4.054  11.324   1.800 -3.1686  3.5182 -1.4586
  244MOL0     H32166   3.968  11.373   2.025  1.7982 -0.1516 -1.4939
  244MOL0     H32167   3.901  11.456   1.885  0.9042  0.9683 -0.8476
  244MOL0     H32168   3.786  11.204   2.016  2.0913  0.4006  0.0928
  244MOL0     H32169   3.717  11.280   1.870  0.6890  1.3269 -1.1854
  244MOL0     H32170   3.444  11.411   2.137 -3.1189 -0.1813 -1.7317
  244MOL0     H32171   3.291  11.589   2.087  0.8414  0.2638  0.3292
  244MOL0     H32172   3.271  12.057   1.909 -0.5977  0.4417 -1.7757
  244MOL0     H32173   3.087  12.240   1.865  1.2856 -0.7537  0.2732
  244MOL0     H32174   2.860  12.090   1.647 -2.8174 -1.3076  1.0846
  244MOL0     H32175   2.928  12.240   1.672 -1.4491  1.5729  0.1555
  244MOL0     H32176   2.718  12.373   1.629  1.9656  0.1765  0.5959
  244MOL0     H32177   2.608  12.232   1.660 -1.8027  0.9536 -3.2874
  244MOL0     H32178   2.711  12.117   1.470 -0.3604 -0.5111  0.8567
  244MOL0     H32179   2.802  12.279   1.434  0.4831 -1.3504 -0.5021
  244MOL0     H32180   2.502  12.222   1.454  0.9798 -2.9066 -1.8028
  244MOL0     H32181   2.560  12.375   1.400 -1.6652  0.0719 -1.2043
  244MOL0     H32182   2.463  12.234   1.224  0.0458 -1.1694  2.5866
  244MOL0     H32183   2.579  12.109   1.250  0.5993 -0.4957  1.8308
  244MOL0     H32184   2.754  12.231   1.167  0.0370  0.3885 -1.1358
  244MOL0     H32185   2.686  12.384   1.196  2.5191  0.8091 -2.0468
  244MOL0     H32186   2.722  12.284   0.941  1.8420 -0.9816  1.7005
  244MOL0     H32187   2.584  12.176   0.978 -0.4622  0.3447 -0.2471
  244MOL0     H32188   2.435  12.366   1.003 -1.7797  0.8664 -2.0034
  244MOL0     H32189   2.501  12.390   0.846 -2.4917 -4.2900 -0.0012
  244MOL0     H32190   2.804  11.920   1.946 -0.3737  1.1694 -0.4957
  244MOL0     H32191   2.988  11.775   2.015 -1.0959  0.6737  0.3577
  244MOL0     H32192   3.543  11.721   1.758 -0.2985  1.2570  0.0812
  244MOL0     H32193   3.710  11.553   1.816  0.3451  1.6404 -0.4357
  244MOL0     H32194   5.428  10.429   2.048 -0.1802  0.0324  0.5697
  244MOL0     H32195   5.547  10.203   2.071 -0.0695  2.1193  1.1594
  244MOL0     H32196   5.595   9.854   2.157 -0.2390 -1.1208  0.6450
  244MOL0     H32197   5.698   9.679   2.235 -0.3619  2.3111  0.4370
  244MOL0     H32198   5.916   9.439   2.214 -5.0330 -1.4042  1.5533
  244MOL0     H32199   5.922   9.546   2.062  1.2101 -0.4104  1.0990
  244MOL0     H32200   5.933   9.246   2.107  2.6963  0.5668  0.6898
  244MOL0     H32201   5.924   9.314   1.942  2.6911  0.0117 -1.1805
  244MOL0     H32202   6.148   9.416   2.142 -0.8832  2.6389 -0.5092
  244MOL0     H32203   6.145   9.406   1.969 -0.3680  1.7760  0.7139
  244MOL0     H32204   6.295   9.212   2.088  0.2817 -0.3349 -0.2622
  244MOL0     H32205   6.140   9.161   2.145 -2.2001  2.0746  0.3795
  244MOL0     H32206   6.140   8.965   1.779 -0.2952 -0.8959  1.0775
  244MOL0     H32207   5.628   9.442   1.879 -0.9814  0.1472  0.0175
  244MOL0     H32208   5.503   9.635   1.787  3.5352 -1.5726 -1.1901
  245MOL0     O32209   6.929  10.813  11.386 -0.6231  0.6353  0.4820
  245MOL0     C32210   7.046  10.776  11.408 -0.0884 -0.5239 -0.3017
  245MOL0     O32211   7.077  10.672  11.492 -0.2388  0.5558  0.2374
  245MOL0     C32212   6.978  10.624  11.573  0.3131  0.3565 -0.4684
  245MOL0     C32213   6.925  10.688  11.690  0.3948 -0.5590  0.2829
  245MOL0     C32214   6.834  10.626  11.771  0.5895 -0.0704 -0.3882
  245MOL0     C32215   6.802  10.494  11.753  0.6284  0.5017  0.6864
  245MOL0     O32216   6.711  10.446  11.842  0.0846 -0.2673 -0.0595
  245MOL0     C32217   6.680  10.304  11.839 -0.5531 -0.3498 -0.0776
  245MOL0     C32218   6.655  10.252  11.980 -0.2016 -0.6355  0.0898
  245MOL0     C32219   6.692  10.100  11.999 -0.0348 -1.2274  0.1583
  245MOL0     C32220   6.673  10.062  12.144  0.9004  0.0529 -0.8114
  245MOL0     C32221   6.725   9.924  12.165  0.0096  0.4228  0.3765
  245MOL0     C32222   6.677   9.866  12.292  0.5143  0.2681 -0.9513
  245MOL0     C32223   6.671   9.708  12.286 -0.5608  0.9697 -0.4720
  245MOL0     C32224   6.566   9.636  12.371  0.1840 -0.8428  0.1372
  245MOL0     N32225   6.606   9.627  12.516 -0.5316 -0.7949 -0.0216
  245MOL0     C32226   6.712   9.558  12.567  0.1153 -0.4391 -0.5359
  245MOL0     C32227   6.709   9.579  12.699 -0.3670  0.1543  0.3940
  245MOL0     C32228   6.796   9.506  12.798 -0.5391 -0.3622  0.1219
  245MOL0     C32229   6.828   9.582  12.930  0.7875  0.4548  0.4935
  245MOL0     C32230   6.925   9.508  13.006 -0.1713 -1.0446 -0.5004
  245MOL0     C32231   7.068   9.537  12.977 -0.6442 -0.4990  0.4160
  245MOL0     O32232   7.146   9.426  13.031  0.6814 -0.1801 -0.0284
  245MOL0     C32233   7.276   9.424  13.076 -0.5843  1.3145 -0.4669
  245MOL0     C32234   7.349   9.311  13.081 -0.0481  0.4728  0.0576
  245MOL0     C32235   7.485   9.306  13.134  0.1930  0.4390  0.5547
  245MOL0     C32236   7.554   9.418  13.180  0.5661 -0.8951  0.1120
  245MOL0     C32237   7.689   9.426  13.240 -0.0749  0.6153  0.7479
  245MOL0     O32238   7.759   9.539  13.237  0.1481 -0.2592 -0.5713
  245MOL0     C32239   7.895   9.535  13.254  0.1105 -0.0032 -0.2137
  245MOL0     C32240   7.986   9.433  13.202  0.2114  0.2678 -0.2004
  245MOL0     C32241   8.127   9.448  13.222 -1.4050  0.0159  0.4170
  245MOL0     C32242   8.181   9.561  13.288  0.1841  0.1621 -0.0017
  245MOL0     O32243   8.316   9.550  13.282 -0.6159 -0.2133 -0.9594
  245MOL0     C32244   8.396   9.661  13.341  2.1375 -0.6453  0.4565
  245MOL0     C32245   8.541   9.634  13.318 -0.2945 -0.2500  0.3996
  245MOL0     C32246   8.639   9.722  13.394  0.5821 -0.8924  0.3580
  245MOL0     C32247   8.774   9.662  13.400  0.6658  0.4443  0.1703
  245MOL0     C32248   8.877   9.769  13.427  0.3294  0.0210  0.5278
  245MOL0     C32249   9.027   9.732  13.414 -0.0038 -0.0829 -0.2135
  245MOL0     C32250   9.116   9.858  13.428  0.9533  0.2571  0.6351
  245MOL0     C32251   9.262   9.832  13.397 -0.3375 -0.5402 -0.7974
  245MOL0    Cl32252   9.358   9.792  13.547  0.4534  0.1047 -0.2977
  245MOL0     C32253   8.095   9.667  13.315 -0.8864 -0.7960 -0.6913
  245MOL0     C32254   7.956   9.653  13.301  0.4249  0.4637  0.1373
  245MOL0     O32255   7.724   9.319  13.294 -0.1453  0.7762  0.4307
  245MOL0     C32256   7.476   9.541  13.174  0.7032  0.2043  0.2721
  245MOL0     C32257   7.347   9.541  13.119 -0.4541 -0.4540 -0.2266
  245MOL0     N32258   6.595   9.654  12.730 -0.4859  0.5931  0.5036
  245MOL0     N32259   6.538   9.683  12.620 -0.4186 -0.6250 -0.3405
  245MOL0     C32260   6.845  10.433  11.637 -0.1517  0.1152 -0.6510
  245MOL0     C32261   6.933  10.495  11.546  0.7748  0.3543 -0.4537
  245MOL0     C32262   7.162  10.840  11.346  0.0653  0.1539  0.3566
  245MOL0     C32263   7.291  10.791  11.372  0.4011  0.4900 -0.2951
  245MOL0     C32264   7.398  10.843  11.301  0.6191 -0.7329  0.0017
  245MOL0     C32265   7.392  10.953  11.211  0.3690  0.3759  0.1350
  245MOL0     O32266   7.492  10.997  11.131  0.3739  0.5598  0.2511
  245MOL0     C32267   7.601  10.903  11.109 -0.9336 -0.1293  0.5960
  245MOL0     C32268   7.677  10.918  10.974 -0.8180  0.5494  1.0357
  245MOL0     C32269   7.768  11.048  10.973 -0.3661  0.4260 -0.6309
  245MOL0     C32270   7.864  11.034  10.860 -0.0172  0.6164  0.5377
  245MOL0     C32271   7.953  11.154  10.843 -0.9417  0.0858  0.4421
  245MOL0     C32272   8.042  11.244  10.857  1.2954  0.6783 -0.4177
  245MOL0     C32273   7.258  11.001  11.189 -0.8149  0.2229 -0.5062
  245MOL0     C32274   7.149  10.949  11.263 -0.0532 -0.2385  0.6913
  245MOL0     H32275   6.973  10.782  11.716  2.8602 -1.9101  1.0164
  245MOL0     H32276   6.801  10.680  11.859  1.9201 -3.0120  2.0854
  245MOL0     H32277   6.754  10.234  11.799  0.7546 -0.2366  1.9878
  245MOL0     H32278   6.581  10.292  11.794 -0.4627 -0.1239 -0.3378
  245MOL0     H32279   6.546  10.261  11.994  0.0571  3.7836  0.9067
  245MOL0     H32280   6.700  10.313  12.059  1.7263  1.7035 -2.6111
  245MOL0     H32281   6.794  10.086  11.962  0.3547 -0.0192  0.7273
  245MOL0     H32282   6.621  10.058  11.926 -0.0047  0.7553 -1.1200
  245MOL0     H32283   6.736  10.121  12.210  0.9996 -2.1229  1.2052
  245MOL0     H32284   6.566  10.057  12.165  0.8554  0.7971 -0.8429
  245MOL0     H32285   6.834   9.922  12.161  0.1746 -4.8672 -0.6758
  245MOL0     H32286   6.683   9.865  12.082  1.8513 -1.8455  0.9547
  245MOL0     H32287   6.574   9.894  12.314  0.5350 -0.7224  0.5433
  245MOL0     H32288   6.747   9.895  12.371 -1.0739 -0.9465  0.9880
  245MOL0     H32289   6.647   9.673  12.185  2.3227 -1.2955 -0.5274
  245MOL0     H32290   6.772   9.669  12.304 -1.0663 -0.7351 -1.1409
  245MOL0     H32291   6.544   9.536  12.332 -1.0807  0.5028 -2.8868
  245MOL0     H32292   6.469   9.686  12.369  0.4536 -0.3553 -0.9054
  245MOL0     H32293   6.778   9.488  12.516 -0.0357  0.6518 -2.2931
  245MOL0     H32294   6.891   9.472  12.756  0.0226 -0.7697  1.6566
  245MOL0     H32295   6.742   9.413  12.820 -0.4375 -0.5536 -0.4187
  245MOL0     H32296   6.734   9.587  12.984  0.1234 -2.2096 -0.2725
  245MOL0     H32297   6.872   9.679  12.906  3.3796 -0.5764  0.7309
  245MOL0     H32298   6.901   9.537  13.108 -1.2956 -0.4015 -0.9273
  245MOL0     H32299   6.913   9.400  12.997  2.2563 -1.3861 -0.3304
  245MOL0     H32300   7.103   9.630  13.024  2.0544 -0.0969 -2.0485
  245MOL0     H32301   7.092   9.558  12.872 -3.1316  2.0985  0.2427
  245MOL0     H32302   7.304   9.214  13.058  2.9329 -1.1225  0.4340
  245MOL0     H32303   7.545   9.216  13.124 -0.0512  0.4719 -1.6020
  245MOL0     H32304   7.938   9.345  13.161 -1.8208  0.5548  1.3887
  245MOL0     H32305   8.200   9.375  13.190 -1.0135 -0.7784  2.9763
  245MOL0     H32306   8.378   9.659  13.449  0.4096  1.2944  0.2760
  245MOL0     H32307   8.377   9.765  13.311  1.4677 -0.8954 -0.0069
  245MOL0     H32308   8.556   9.634  13.210  3.4121 -2.7439  0.7375
  245MOL0     H32309   8.552   9.528  13.344  0.6243 -1.0793 -2.9057
  245MOL0     H32310   8.605   9.736  13.497  2.7020 -2.3831  1.3306
  245MOL0     H32311   8.633   9.817  13.339 -3.3780 -0.6620  0.8790
  245MOL0     H32312   8.783   9.583  13.476  2.5718  0.3052 -0.1477
  245MOL0     H32313   8.801   9.614  13.306  2.2193 -0.3202  0.9716
  245MOL0     H32314   8.865   9.807  13.529  0.5394  1.6536 -0.0338
  245MOL0     H32315   8.847   9.847  13.356  0.0728 -1.3024 -0.8596
  245MOL0     H32316   9.039   9.672  13.323  0.5145 -5.4858  2.9475
  245MOL0     H32317   9.064   9.664  13.491  0.5041  1.0788  0.5756
  245MOL0     H32318   9.078   9.938  13.363 -0.1820  0.3617  1.4002
  245MOL0     H32319   9.105   9.895  13.530  0.3596  0.5733  0.4607
  245MOL0     H32320   9.296   9.933  13.369 -0.1688 -0.4055 -0.1179
  245MOL0     H32321   9.285   9.762  13.317 -0.2821 -0.0511 -1.2183
  245MOL0     H32322   8.137   9.760  13.354  1.3275 -1.1035 -2.1707
  245MOL0     H32323   7.881   9.730  13.318  1.8196  1.8845  0.1268
  245MOL0     H32324   7.514   9.630  13.223 -0.9470  1.1908 -0.1841
  245MOL0     H32325   7.297   9.637  13.112 -0.2446 -0.4621 -2.2437
  245MOL0     H32326   6.829  10.331  11.604 -5.0971 -0.4717  2.4876
  245MOL0     H32327   6.975  10.449  11.456 -0.4099  0.4695 -1.0822
  245MOL0     H32328   7.299  10.696  11.425 -0.4174 -0.3810 -1.6542
  245MOL0     H32329   7.489  10.783  11.309  0.2863 -1.0441  1.8130
  245MOL0     H32330   7.562  10.802  11.100  4.8017 -2.6198 -1.6762
  245MOL0     H32331   7.675  10.903  11.190  0.0063  1.5054 -0.1993
  245MOL0     H32332   7.730  10.823  10.970 -2.6948 -0.5596  1.1655
  245MOL0     H32333   7.612  10.918  10.886  0.3098 -0.9347  0.1608
  245MOL0     H32334   7.823  11.052  11.068  0.8310 -0.2082 -1.2665
  245MOL0     H32335   7.714  11.142  10.967  2.4917  2.4000  1.6014
  245MOL0     H32336   7.927  10.945  10.867 -1.7425 -0.6577  0.3747
  245MOL0     H32337   7.810  11.030  10.766 -1.7329  1.5720  1.4346
  245MOL0     H32338   8.113  11.324  10.865  2.2446  0.9697 -6.6209
  245MOL0     H32339   7.235  11.066  11.106  0.7562  0.0124 -1.1484
  245MOL0     H32340   7.049  10.987  11.243  0.2869  0.7379  0.7838
  246MOL0     O32341   7.617  11.150  10.405  0.5130 -0.6169  0.2568
  246MOL0     C32342   7.674  11.048  10.448 -0.2820 -0.0619  0.4360
  246MOL0     O32343   7.626  10.980  10.556  0.6449 -0.2136 -0.7273
  246MOL0     C32344   7.518  11.035  10.631 -0.6834  0.7253  0.3191
  246MOL0     C32345   7.532  11.149  10.715 -0.3505  0.3525 -0.0063
  246MOL0     C32346   7.418  11.187  10.786 -0.0144 -0.1556 -0.2694
  246MOL0     C32347   7.292  11.125  10.776  1.0022  0.4394  0.3794
  246MOL0     O32348   7.162  11.162  10.816  0.0899 -0.4619  0.3715
  246MOL0     C32349   7.148  11.267  10.908  0.5631 -0.0399 -0.0128
  246MOL0     C32350   7.124  11.386  10.826  0.1830 -2.2218  1.1108
  246MOL0     C32351   7.098  11.519  10.894 -0.4743 -0.1672 -0.1314
  246MOL0     C32352   7.228  11.605  10.928 -0.6363 -0.1837 -0.3868
  246MOL0     C32353   7.194  11.730  11.020 -0.5811 -0.2441 -0.3711
  246MOL0     C32354   7.318  11.766  11.097 -0.5965  0.2539  0.2861
  246MOL0     C32355   7.431  11.824  11.015  0.7001 -0.5101  0.0525
  246MOL0     C32356   7.531  11.878  11.106 -0.4598 -0.0362 -0.2505
  246MOL0     N32357   7.651  11.914  11.026  0.9317  0.6652 -0.2546
  246MOL0     C32358   7.783  11.896  11.059 -0.0706  0.2629 -0.0809
  246MOL0     C32359   7.852  11.989  10.984 -0.1848  0.7970  0.5068
  246MOL0     C32360   7.998  12.004  10.965  0.4105 -0.2498  0.7054
  246MOL0     C32361   8.050  11.949  10.836 -0.1292 -0.5767  0.4465
  246MOL0     C32362   8.201  11.968  10.821 -0.0363  0.1163 -0.0251
  246MOL0     C32363   8.241  11.882  10.700 -0.0469 -0.4829  0.1681
  246MOL0     O32364   8.365  11.942  10.658  0.3608 -0.2914  0.3031
  246MOL0     C32365   8.449  11.862  10.589 -0.7908  0.4046  0.3538
  246MOL0     C32366   8.433  11.722  10.571 -0.7899  0.5116 -0.0938
  246MOL0     C32367   8.518  11.644  10.496 -0.2900 -0.3666  0.0043
  246MOL0     C32368   8.631  11.712  10.437  0.3493  0.4998  0.4858
  246MOL0     C32369   8.724  11.638  10.346  0.0163 -0.2328 -0.0705
  246MOL0     O32370   8.839  11.704  10.315  0.0359 -0.7622  0.4369
  246MOL0     C32371   8.937  11.624  10.256  1.0383 -0.3591 -0.0688
  246MOL0     C32372   9.025  11.552  10.334  0.0189 -0.4049 -0.6202
  246MOL0     C32373   9.136  11.494  10.276  0.6945  0.3165  0.3028
  246MOL0     C32374   9.150  11.491  10.136  0.0911 -0.0996 -0.0538
  246MOL0     O32375   9.262  11.445  10.076  0.3772  0.1595  0.0967
  246MOL0     C32376   9.264  11.311  10.042 -0.2645 -0.6304  0.4523
  246MOL0     C32377   9.402  11.281   9.976  0.0263 -0.0114  0.0980
  246MOL0     C32378   9.491  11.176  10.038 -0.1844  0.2195  0.0799
  246MOL0     C32379   9.606  11.156   9.941 -0.5566  0.8100 -0.4777
  246MOL0     C32380   9.693  11.032   9.986  0.0049 -1.1719 -0.0152
  246MOL0     C32381   9.835  11.048   9.927  0.6278  0.2259  0.2653
  246MOL0     C32382   9.828  11.042   9.775  0.0303 -0.0200 -0.1485
  246MOL0     C32383   9.957  11.070   9.703 -0.3350 -0.6603 -0.6510
  246MOL0    Cl32384  10.094  10.984   9.757 -0.0336  0.5662 -0.1985
  246MOL0     C32385   9.055  11.567  10.065 -0.0812  0.6574  1.0948
  246MOL0     C32386   8.950  11.621  10.119  0.3942 -0.4622  0.0354
  246MOL0     O32387   8.683  11.533  10.295  1.3107 -0.4806 -0.2892
  246MOL0     C32388   8.652  11.847  10.467  0.1970  0.0968 -0.1470
  246MOL0     C32389   8.570  11.916  10.543  0.7272 -0.8026  0.1604
  246MOL0     N32390   7.761  12.053  10.900  0.2840 -0.4275 -0.5498
  246MOL0     N32391   7.645  12.010  10.935 -0.4076 -1.4810  0.6442
  246MOL0     C32392   7.284  11.006  10.697 -0.1450 -0.2776 -0.2707
  246MOL0     C32393   7.398  10.961  10.627 -0.2088  0.0203 -1.3692
  246MOL0     C32394   7.804  11.000  10.395  0.3700  0.0753 -0.9418
  246MOL0     C32395   7.871  10.906  10.469  0.5706  0.5867  0.2328
  246MOL0     C32396   7.998  10.861  10.425 -0.4762 -0.0890 -0.2602
  246MOL0     C32397   8.068  10.919  10.321 -0.1084  0.1135  0.4028
  246MOL0     O32398   8.197  10.900  10.284 -0.4201  0.6039  0.3107
  246MOL0     C32399   8.255  10.767  10.305  0.6265  0.2149 -0.6958
  246MOL0     C32400   8.352  10.755  10.193 -0.1065 -0.3612  0.5473
  246MOL0     C32401   8.301  10.753  10.043  0.7440 -0.6909  0.4054
  246MOL0     C32402   8.408  10.724   9.944 -0.5361  0.1989 -0.1028
  246MOL0     C32403   8.519  10.819   9.937 -0.2865 -0.3533  0.1278
  246MOL0     C32404   8.623  10.896   9.932  0.1020 -0.0362  0.6288
  246MOL0     C32405   7.993  11.010  10.239 -0.0416 -0.8387 -0.5018
  246MOL0     C32406   7.863  11.053  10.279 -0.0752  0.3200  0.1275
  246MOL0     H32407   7.627  11.201  10.720  0.9700 -1.9588  0.6376
  246MOL0     H32408   7.423  11.280  10.842 -1.3477  2.1006 -3.5823
  246MOL0     H32409   7.238  11.269  10.970  0.4756 -0.0385  0.1156
  246MOL0     H32410   7.063  11.246  10.974 -0.8200  1.2775 -1.2828
  246MOL0     H32411   7.032  11.369  10.770  0.1687 -1.3518  0.8467
  246MOL0     H32412   7.202  11.408  10.753  0.1869 -2.7084  0.9672
  246MOL0     H32413   7.045  11.495  10.987  1.4386 -2.5806  0.4253
  246MOL0     H32414   7.024  11.574  10.834  1.5441  1.2145 -1.4799
  246MOL0     H32415   7.292  11.538  10.986  0.1331 -0.2799 -1.3219
  246MOL0     H32416   7.296  11.638  10.849  1.5933  1.3475  2.0196
  246MOL0     H32417   7.112  11.716  11.091  0.6761 -1.4229  0.9268
  246MOL0     H32418   7.163  11.809  10.951 -1.0932 -0.1384 -0.0264
  246MOL0     H32419   7.349  11.683  11.162 -1.2233  2.2276  3.3355
  246MOL0     H32420   7.292  11.847  11.166  3.4175  1.1133  1.0695
  246MOL0     H32421   7.478  11.753  10.947  5.9192  3.2031 -0.7521
  246MOL0     H32422   7.400  11.903  10.946 -1.6650 -1.0711  0.3848
  246MOL0     H32423   7.578  11.802  11.169  0.1254 -0.6366 -1.3814
  246MOL0     H32424   7.492  11.967  11.155 -0.6422 -0.8122  1.0451
  246MOL0     H32425   7.826  11.823  11.128 -2.9789 -1.4109  0.1621
  246MOL0     H32426   8.035  11.935  11.041 -0.4458 -2.7058 -0.9852
  246MOL0     H32427   8.030  12.107  10.987  2.2264 -0.4108 -0.8618
  246MOL0     H32428   8.005  12.011  10.758  0.2458  1.5373  1.8164
  246MOL0     H32429   8.025  11.843  10.823 -0.6707 -0.3282 -0.6789
  246MOL0     H32430   8.224  12.073  10.801  2.3635 -0.5046 -0.9364
  246MOL0     H32431   8.252  11.932  10.911  3.2814  2.7460 -0.6365
  246MOL0     H32432   8.165  11.904  10.625  0.5790  3.2055  0.4298
  246MOL0     H32433   8.243  11.777  10.731  1.3342 -0.1749  1.2468
  246MOL0     H32434   8.351  11.667  10.617 -0.2461  1.9597  2.8820
  246MOL0     H32435   8.500  11.537  10.489 -1.3776 -0.1967  0.1249
  246MOL0     H32436   9.017  11.552  10.442  0.2906 -1.8594 -0.5870
  246MOL0     H32437   9.207  11.458  10.349 -0.8097  0.3102  1.8253
  246MOL0     H32438   9.191  11.293   9.962  0.4217 -2.7903  0.2450
  246MOL0     H32439   9.231  11.245  10.122 -3.4307 -1.8501 -1.6374
  246MOL0     H32440   9.462  11.372   9.974 -0.2576  0.1792  0.0369
  246MOL0     H32441   9.376  11.242   9.876  0.7501  1.2407 -0.5955
  246MOL0     H32442   9.431  11.085  10.052 -0.5327  0.6828  1.9396
  246MOL0     H32443   9.535  11.209  10.133  2.1614 -2.9812  0.2722
  246MOL0     H32444   9.563  11.124   9.845 -1.6562 -1.5701  0.7418
  246MOL0     H32445   9.668  11.245   9.925  2.2071 -1.2942 -2.4139
  246MOL0     H32446   9.648  10.937   9.955 -0.4363 -0.6049 -1.1974
  246MOL0     H32447   9.700  11.030  10.095 -1.5276 -1.0480  0.1028
  246MOL0     H32448   9.877  10.950   9.948 -1.0494 -1.7981 -4.4372
  246MOL0     H32449   9.882  11.143   9.955 -0.9524  0.6341  1.7788
  246MOL0     H32450   9.788  10.944   9.748 -0.1010 -0.3802  1.2720
  246MOL0     H32451   9.761  11.110   9.721  0.2898 -0.8890 -1.6187
  246MOL0     H32452   9.975  11.177   9.718  2.7612 -0.7767 -2.6806
  246MOL0     H32453   9.957  11.052   9.595  1.6092 -0.4076 -0.7371
  246MOL0     H32454   9.074  11.578   9.959  1.4791 -0.1240  1.2514
  246MOL0     H32455   8.872  11.676  10.067  1.9548  1.0242 -0.8216
  246MOL0     H32456   8.732  11.912  10.433 -2.1265  1.3094 -3.8028
  246MOL0     H32457   8.592  12.022  10.550 -0.3713 -0.5445  0.0139
  246MOL0     H32458   7.190  10.958  10.672 -0.9479  1.9271 -1.6885
  246MOL0     H32459   7.385  10.881  10.555 -0.3493 -0.1278 -1.1769
  246MOL0     H32460   7.827  10.851  10.551 -1.3095  0.2280 -0.9569
  246MOL0     H32461   8.040  10.773  10.473 -1.6773 -1.4091 -1.5391
  246MOL0     H32462   8.176  10.691  10.297  0.2660  0.4344  0.5670
  246MOL0     H32463   8.303  10.753  10.402 -0.1981 -2.3491 -0.5607
  246MOL0     H32464   8.441  10.818  10.204  1.6958 -2.6622 -0.1730
  246MOL0     H32465   8.393  10.654  10.205 -3.1235 -1.5170  2.2965
  246MOL0     H32466   8.277  10.857  10.018  0.2572 -0.4192  1.9485
  246MOL0     H32467   8.219  10.686  10.013  1.6083 -0.4949 -2.8708
  246MOL0     H32468   8.447  10.622   9.948  1.1673  0.7603 -1.1792
  246MOL0     H32469   8.360  10.718   9.846 -1.3053 -0.7973  0.3230
  246MOL0     H32470   8.715  10.947   9.954 -1.8146  2.6283  3.3450
  246MOL0     H32471   8.038  11.054  10.151 -0.6754 -1.9042 -1.3795
  246MOL0     H32472   7.808  11.130  10.225  0.5770  0.8050  0.1353
  247MOL0     O32473   9.462   0.199   6.923  0.5715 -0.3983 -0.0599
  247MOL0     C32474   9.480   0.149   7.036 -0.2967  0.4786  0.2337
  247MOL0     O32475   9.606   0.146   7.089 -0.6035 -0.3255 -1.0336
  247MOL0     C32476   9.703   0.170   6.999  0.0607 -0.0060  0.1814
  247MOL0     C32477   9.748   0.069   6.902 -0.3971  0.5234  0.4423
  247MOL0     C32478   9.853   0.095   6.810  0.3187  0.9462  0.8238
  247MOL0     C32479   9.934   0.209   6.826  0.7398  0.1695 -0.2624
  247MOL0     O32480  10.045   0.228   6.747 -0.7230 -0.5541 -0.1400
  247MOL0     C32481  10.094   0.361   6.723 -1.3251 -0.8129 -0.2679
  247MOL0     C32482  10.177   0.362   6.598  0.3542 -0.4207 -0.5927
  247MOL0     C32483  10.326   0.331   6.623  0.2415  0.3147 -0.7364
  247MOL0     C32484  10.378   0.326   6.483 -0.1812  0.2100  0.0085
  247MOL0     C32485  10.531   0.347   6.490  0.5098  0.4841 -0.2177
  247MOL0     C32486  10.582   0.345   6.346 -0.5353 -0.1124 -0.0185
  247MOL0     C32487  10.727   0.400   6.342 -0.3348 -0.9778 -0.2249
  247MOL0     C32488  10.825   0.355   6.230  0.1097 -0.5181 -0.6638
  247MOL0     N32489  10.765   0.379   6.101 -1.4314  0.1399  0.5035
  247MOL0     C32490  10.686   0.283   6.053  0.3706 -0.1792  1.2175
  247MOL0     C32491  10.654   0.333   5.931 -0.1952 -1.2394  0.2836
  247MOL0     C32492  10.572   0.269   5.825 -0.0077 -0.0925  0.5092
  247MOL0     C32493  10.427   0.234   5.877  0.3292  0.6531 -0.2668
  247MOL0     C32494  10.357   0.359   5.945  0.4291  0.7868 -0.3359
  247MOL0     C32495  10.208   0.338   5.970 -1.0858 -0.2302 -0.2677
  247MOL0     O32496  10.194   0.234   6.064  0.9066 -0.6178 -0.1359
  247MOL0     C32497  10.072   0.213   6.118  0.2025 -0.0740 -0.5318
  247MOL0     C32498   9.943   0.251   6.072  0.0182  0.6182  0.2369
  247MOL0     C32499   9.836   0.232   6.166  0.2378 -0.8252  0.2776
  247MOL0     C32500   9.848   0.168   6.286  0.7972  0.9411  0.3405
  247MOL0     C32501   9.727   0.128   6.363  0.5739 -0.0944 -0.0761
  247MOL0     O32502   9.751   0.061   6.478 -0.6374  0.3367  0.0946
  247MOL0     C32503   9.650  -0.012   6.525 -0.4393 -0.0396  0.3932
  247MOL0     C32504   9.573   0.038   6.623  0.5738 -1.0947  1.1426
  247MOL0     C32505   9.447  -0.025   6.655  0.3643 -0.3858 -0.5751
  247MOL0     C32506   9.425  -0.148   6.622  0.6702  0.9897 -0.9205
  247MOL0     O32507   9.327  -0.213   6.695 -0.0464  0.0373  0.4044
  247MOL0     C32508   9.255  -0.313   6.629 -0.0427  0.6929  0.9130
  247MOL0     C32509   9.111  -0.328   6.670 -0.3248  0.2829 -0.0633
  247MOL0     C32510   9.041  -0.198   6.664 -0.7733  0.1801  0.1494
  247MOL0     C32511   8.905  -0.196   6.726 -0.4649  1.5305  0.2453
  247MOL0     C32512   8.809  -0.315   6.712  1.6485  0.3198  0.4297
  247MOL0     C32513   8.736  -0.337   6.577  0.5753 -0.0451 -0.0337
  247MOL0     C32514   8.613  -0.427   6.576  0.1434 -0.7725  0.2529
  247MOL0     C32515   8.638  -0.575   6.574  0.5405 -0.3866 -0.0494
  247MOL0    Cl32516   8.505  -0.676   6.622 -0.2299 -0.2428  0.0227
  247MOL0     C32517   9.517  -0.216   6.540 -0.1961 -0.0332  0.0125
  247MOL0     C32518   9.632  -0.147   6.491  0.3105 -1.2977 -0.5107
  247MOL0     O32519   9.613   0.144   6.310  0.5698 -0.2381  0.3652
  247MOL0     C32520   9.975   0.139   6.329  0.3213  1.3637  0.3482
  247MOL0     C32521  10.086   0.157   6.243  0.4609  0.3055 -0.7520
  247MOL0     N32522  10.734   0.450   5.912  1.2837 -0.3686 -0.7769
  247MOL0     N32523  10.805   0.470   6.015  0.6655  0.1083 -0.2668
  247MOL0     C32524   9.887   0.303   6.923 -1.1514 -0.3204  0.4715
  247MOL0     C32525   9.773   0.289   7.009 -0.5301 -0.5702  0.1532
  247MOL0     C32526   9.367   0.110   7.123  0.0768 -0.1954 -0.4499
  247MOL0     C32527   9.234   0.095   7.085 -0.3258  1.1897  0.1158
  247MOL0     C32528   9.130   0.066   7.182  0.1670 -0.4477  1.0006
  247MOL0     C32529   9.160   0.038   7.315 -0.4541 -0.0948 -0.0218
  247MOL0     O32530   9.063   0.005   7.411 -0.5020  0.1244  0.2538
  247MOL0     C32531   9.100  -0.050   7.541  0.5553 -0.0223 -0.6227
  247MOL0     C32532   8.983  -0.078   7.634  0.4557 -0.2220  0.6691
  247MOL0     C32533   8.892  -0.170   7.554  0.2149 -0.5615  0.7283
  247MOL0     C32534   8.768  -0.195   7.638 -0.9357 -0.0456  0.1836
  247MOL0     C32535   8.672  -0.087   7.657 -0.5256  0.9071  0.0727
  247MOL0     C32536   8.617   0.015   7.677 -0.7187 -0.1293  0.1706
  247MOL0     C32537   9.296   0.006   7.336 -0.0647 -0.0515  0.3635
  247MOL0     C32538   9.394   0.062   7.251 -0.6470 -0.2750  0.5564
  247MOL0     H32539   9.700  -0.028   6.909 -0.9371  0.7944  0.5892
  247MOL0     H32540   9.885   0.037   6.723  1.7000  3.5198 -0.5004
  247MOL0     H32541  10.155   0.406   6.802  1.3443  1.8795 -3.5520
  247MOL0     H32542  10.014   0.434   6.705 -1.7760 -0.6334  2.0386
  247MOL0     H32543  10.160   0.464   6.561 -2.3917 -0.9928 -1.1338
  247MOL0     H32544  10.125   0.303   6.522 -2.5558  0.9457  0.2132
  247MOL0     H32545  10.345   0.235   6.672  1.7812  1.4368  0.9562
  247MOL0     H32546  10.370   0.413   6.679  0.2763  2.2607 -3.4016
  247MOL0     H32547  10.343   0.231   6.442 -0.9699  0.9321 -1.0494
  247MOL0     H32548  10.325   0.402   6.425 -2.0560 -0.5977  0.5847
  247MOL0     H32549  10.565   0.265   6.555  1.0092  2.2965  1.9454
  247MOL0     H32550  10.541   0.440   6.547 -0.5007  1.1306 -1.0539
  247MOL0     H32551  10.519   0.412   6.288 -1.8346 -0.0299  1.4239
  247MOL0     H32552  10.579   0.240   6.313 -1.4324 -0.9904  2.5633
  247MOL0     H32553  10.731   0.509   6.338  0.5255 -0.8719  1.9850
  247MOL0     H32554  10.772   0.386   6.441  1.7996  0.3350 -0.9288
  247MOL0     H32555  10.850   0.249   6.243  3.7578  0.3502  0.3526
  247MOL0     H32556  10.920   0.409   6.235  0.0283 -0.4544  0.7418
  247MOL0     H32557  10.642   0.190   6.086 -2.4588 -0.6700 -3.1307
  247MOL0     H32558  10.617   0.174   5.796  0.5338  1.0478 -2.8221
  247MOL0     H32559  10.559   0.332   5.737 -3.4356  0.8294  1.5141
  247MOL0     H32560  10.444   0.152   5.948  0.5667  2.0307  1.3180
  247MOL0     H32561  10.371   0.190   5.794  1.2624 -1.0682 -0.0288
  247MOL0     H32562  10.409   0.376   6.040  0.2380 -0.6862  0.0624
  247MOL0     H32563  10.358   0.442   5.875  1.7156  0.9226 -0.1860
  247MOL0     H32564  10.156   0.318   5.875  0.2375  3.0619 -1.8387
  247MOL0     H32565  10.158   0.430   6.001 -0.6981  0.9750 -2.9072
  247MOL0     H32566   9.944   0.302   5.977 -0.9124 -1.2195 -0.8167
  247MOL0     H32567   9.732   0.237   6.134  0.8269 -2.6102 -2.2457
  247MOL0     H32568   9.598   0.134   6.668 -0.7803  0.1479 -0.6246
  247MOL0     H32569   9.376   0.023   6.721 -2.0343 -2.7118 -1.2797
  247MOL0     H32570   9.309  -0.408   6.632 -2.4732 -1.4046 -5.2401
  247MOL0     H32571   9.248  -0.272   6.527  0.7896 -0.1356  0.5096
  247MOL0     H32572   9.092  -0.358   6.774 -0.2851 -1.4938 -0.5527
  247MOL0     H32573   9.058  -0.405   6.614  2.0686 -1.1621 -0.4839
  247MOL0     H32574   9.047  -0.173   6.558  1.6611  0.7501  0.3789
  247MOL0     H32575   9.098  -0.124   6.721 -0.1502  1.1397 -1.6496
  247MOL0     H32576   8.915  -0.171   6.832 -1.6492  3.4268 -0.0340
  247MOL0     H32577   8.873  -0.111   6.664  2.2849  1.9642 -0.7555
  247MOL0     H32578   8.732  -0.298   6.788  3.1597 -0.5857  2.2501
  247MOL0     H32579   8.860  -0.407   6.742  2.9371  0.6566 -0.6404
  247MOL0     H32580   8.817  -0.361   6.507  2.4865 -0.7237  2.2823
  247MOL0     H32581   8.701  -0.243   6.534 -1.6668 -1.5884 -1.8636
  247MOL0     H32582   8.548  -0.392   6.657 -3.3492  0.9548 -2.9745
  247MOL0     H32583   8.555  -0.411   6.485  0.8702 -0.2731 -0.1277
  247MOL0     H32584   8.720  -0.601   6.642 -1.3891  0.9099  3.0126
  247MOL0     H32585   8.675  -0.601   6.475 -0.0459 -1.5203  0.0148
  247MOL0     H32586   9.503  -0.323   6.530  0.5065 -0.2014  0.6962
  247MOL0     H32587   9.706  -0.207   6.438 -0.8439 -1.3975 -2.0639
  247MOL0     H32588   9.994   0.092   6.425 -2.1211 -0.0517  0.2347
  247MOL0     H32589  10.178   0.130   6.295  0.0923 -1.6242 -1.0315
  247MOL0     H32590   9.940   0.395   6.945  0.0277 -1.3213  2.0941
  247MOL0     H32591   9.731   0.371   7.066 -1.9975 -0.4709 -0.9835
  247MOL0     H32592   9.205   0.110   6.982  4.3393 -1.0104 -1.8532
  247MOL0     H32593   9.027   0.062   7.149  0.4960 -0.6433 -0.0604
  247MOL0     H32594   9.149   0.033   7.593 -1.2443  0.3273  0.6260
  247MOL0     H32595   9.168  -0.135   7.544 -0.2920 -0.6961  0.2451
  247MOL0     H32596   9.025  -0.126   7.723  0.1262  0.2789  1.0999
  247MOL0     H32597   8.937   0.016   7.666  1.1102 -0.0555  1.1353
  247MOL0     H32598   8.956  -0.258   7.543  3.7024  1.8265  0.3804
  247MOL0     H32599   8.864  -0.140   7.452  2.2907 -2.8954 -0.6744
  247MOL0     H32600   8.709  -0.274   7.590 -2.1331  1.2952 -0.6109
  247MOL0     H32601   8.805  -0.227   7.736 -1.7099 -1.7125 -0.0324
  247MOL0     H32602   8.555   0.098   7.705  1.9375  1.1906  2.6943
  247MOL0     H32603   9.329  -0.052   7.421 -0.8635 -2.8242 -1.0909
  247MOL0     H32604   9.501   0.056   7.271 -0.2439 -1.3856 -1.5436
  248MOL0     O32605   0.600   8.268   4.880 -0.8687 -0.8684  0.8340
  248MOL0     C32606   0.551   8.176   4.948 -0.8155 -0.1142  0.6765
  248MOL0     O32607   0.530   8.176   5.084 -0.0245  0.0848 -1.2385
  248MOL0     C32608   0.585   8.285   5.144 -0.5453 -0.4106 -0.6975
  248MOL0     C32609   0.717   8.284   5.185  0.3670  0.4525  0.7224
  248MOL0     C32610   0.769   8.387   5.273  0.0677 -0.5191 -0.2055
  248MOL0     C32611   0.680   8.494   5.322 -0.6151  0.0031  1.3025
  248MOL0     O32612   0.721   8.588   5.414  0.0495 -0.5343  0.4368
  248MOL0     C32613   0.850   8.649   5.402 -0.0368 -0.3342 -0.4588
  248MOL0     C32614   0.876   8.748   5.521  0.2294  0.4004  0.1863
  248MOL0     C32615   1.019   8.798   5.522  0.2688 -1.7129  0.6096
  248MOL0     C32616   1.059   8.894   5.633  0.4400 -0.0307 -0.3299
  248MOL0     C32617   1.204   8.923   5.649  0.1333  0.5250 -0.3167
  248MOL0     C32618   1.214   9.008   5.770 -0.3103 -0.5619 -0.3467
  248MOL0     C32619   1.353   9.041   5.797 -0.1795 -0.9564 -0.0317
  248MOL0     C32620   1.377   9.183   5.726 -0.7386 -0.1384 -0.1979
  248MOL0     N32621   1.517   9.228   5.743  0.2585  0.6312 -0.1778
  248MOL0     C32622   1.633   9.154   5.726  0.8854 -0.5527 -0.0498
  248MOL0     C32623   1.734   9.214   5.781  0.5583  0.6812  0.0163
  248MOL0     C32624   1.871   9.156   5.753 -0.0301 -0.5268  1.0291
  248MOL0     C32625   1.953   9.257   5.662 -0.3953 -0.5646  0.0637
  248MOL0     C32626   2.090   9.195   5.619 -1.3749 -0.6218  0.7873
  248MOL0     C32627   2.158   9.296   5.519  0.5473  0.3257 -0.1682
  248MOL0     O32628   2.271   9.235   5.464  1.1609 -0.3897  0.2857
  248MOL0     C32629   2.360   9.306   5.384  0.5832  0.9354 -0.6280
  248MOL0     C32630   2.335   9.419   5.310 -0.6830 -0.0043 -0.2941
  248MOL0     C32631   2.416   9.451   5.203 -0.6231 -0.1170 -0.1819
  248MOL0     C32632   2.523   9.375   5.165 -0.2415  0.3878  0.8887
  248MOL0     C32633   2.607   9.397   5.051 -0.9680 -1.2875  0.3809
  248MOL0     O32634   2.709   9.311   5.019  0.2404 -0.5687 -0.3023
  248MOL0     C32635   2.773   9.334   4.897 -0.3817  0.3706  0.1279
  248MOL0     C32636   2.728   9.288   4.773  0.2640  0.8569 -0.5647
  248MOL0     C32637   2.806   9.303   4.657  0.0637 -0.1272 -0.8465
  248MOL0     C32638   2.933   9.368   4.656  0.9604 -1.1731 -0.2950
  248MOL0     O32639   3.002   9.396   4.539 -0.0836 -0.4929  1.2855
  248MOL0     C32640   3.114   9.476   4.528  0.6835 -0.6688  0.5455
  248MOL0     C32641   3.169   9.483   4.381  0.2042 -0.2751  0.0134
  248MOL0     C32642   3.187   9.345   4.319  0.2416  0.1150 -0.8886
  248MOL0     C32643   3.270   9.366   4.195 -0.3349 -0.2323  1.2108
  248MOL0     C32644   3.277   9.240   4.121  0.4879 -0.2407 -1.0547
  248MOL0     C32645   3.384   9.242   4.014  0.4513 -0.4459  0.0278
  248MOL0     C32646   3.397   9.111   3.947  0.5031  0.4341  0.3609
  248MOL0     C32647   3.458   9.132   3.819 -0.1927 -0.1838 -0.1567
  248MOL0    Cl32648   3.624   9.185   3.833 -0.0283 -0.4425  0.1742
  248MOL0     C32649   2.977   9.405   4.784 -0.6613  0.6364 -0.0697
  248MOL0     C32650   2.902   9.391   4.899  1.2167 -0.3000 -0.1174
  248MOL0     O32651   2.565   9.491   4.981  0.1744  0.6044  0.3514
  248MOL0     C32652   2.556   9.261   5.242 -0.4648  0.1405  0.3372
  248MOL0     C32653   2.461   9.221   5.341  0.8973  0.1943 -0.2948
  248MOL0     N32654   1.686   9.317   5.855 -0.2444  0.3315  0.5910
  248MOL0     N32655   1.555   9.330   5.827  0.2245  0.8065 -0.1410
  248MOL0     C32656   0.552   8.495   5.281  0.2061  1.0350  0.2128
  248MOL0     C32657   0.505   8.385   5.194  0.9298 -0.0741 -0.6761
  248MOL0     C32658   0.495   8.059   4.873 -0.1450 -0.0374  0.4281
  248MOL0     C32659   0.524   8.039   4.740 -0.1789  0.8596  0.3657
  248MOL0     C32660   0.463   7.925   4.682 -0.6422  0.7506 -0.5739
  248MOL0     C32661   0.383   7.842   4.748 -0.4198  0.9387  0.6021
  248MOL0     O32662   0.330   7.741   4.678 -0.5738 -0.6798  0.1704
  248MOL0     C32663   0.282   7.618   4.727 -1.0947 -0.0692  0.3221
  248MOL0     C32664   0.217   7.536   4.621  0.3281  0.4760  0.4829
  248MOL0     C32665   0.184   7.406   4.678 -0.5589  0.1737 -0.6386
  248MOL0     C32666   0.114   7.302   4.576  0.5286 -0.0749 -0.6629
  248MOL0     C32667  -0.008   7.362   4.521 -0.1312 -0.7975  0.3038
  248MOL0     C32668  -0.106   7.416   4.470 -0.1307 -0.1251 -0.7295
  248MOL0     C32669   0.359   7.861   4.879 -0.5166 -0.3403 -0.2734
  248MOL0     C32670   0.412   7.971   4.940 -0.4062 -0.6335 -0.3654
  248MOL0     H32671   0.763   8.188   5.162 -2.1034 -0.4774 -0.6234
  248MOL0     H32672   0.871   8.399   5.310  1.2247 -1.9115 -2.6565
  248MOL0     H32673   0.834   8.706   5.310 -0.4274  4.4599  2.2005
  248MOL0     H32674   0.934   8.579   5.402 -0.7586 -1.3824  3.0218
  248MOL0     H32675   0.849   8.684   5.606  0.6006 -0.9005 -0.6501
  248MOL0     H32676   0.803   8.829   5.530  0.4498  0.3578  4.0490
  248MOL0     H32677   1.035   8.847   5.425  1.0236 -1.8311  0.6703
  248MOL0     H32678   1.094   8.719   5.521  4.7930  2.0669 -1.9404
  248MOL0     H32679   0.994   8.979   5.610 -1.3114 -0.0573  3.6853
  248MOL0     H32680   1.017   8.852   5.724  1.1376  0.5620  0.2782
  248MOL0     H32681   1.246   8.972   5.562  2.0366 -1.1154 -0.3736
  248MOL0     H32682   1.253   8.828   5.674 -1.0561 -0.5369 -1.8591
  248MOL0     H32683   1.168   8.957   5.855 -0.4479 -0.4410 -0.3485
  248MOL0     H32684   1.159   9.096   5.735  2.0754 -0.3337 -4.1183
  248MOL0     H32685   1.359   9.069   5.903 -0.5591 -0.4857 -0.1297
  248MOL0     H32686   1.429   8.976   5.753 -1.6384 -1.6521 -1.6111
  248MOL0     H32687   1.297   9.252   5.754  0.4244  0.6876  1.2030
  248MOL0     H32688   1.371   9.167   5.618 -0.2215 -4.1250  0.1987
  248MOL0     H32689   1.646   9.067   5.662  1.7724 -1.0080  0.7257
  248MOL0     H32690   1.866   9.055   5.712 -1.6475 -0.3426  0.7282
  248MOL0     H32691   1.936   9.147   5.841  2.4931  0.5596 -0.5776
  248MOL0     H32692   1.968   9.353   5.712 -0.5185 -1.1943  1.3518
  248MOL0     H32693   1.894   9.260   5.569  0.3040  1.2289 -0.3493
  248MOL0     H32694   2.159   9.197   5.704 -1.2255 -1.0490  0.6768
  248MOL0     H32695   2.097   9.095   5.575  2.9144  0.4143 -1.4516
  248MOL0     H32696   2.181   9.378   5.587  2.7434 -1.5631  1.5191
  248MOL0     H32697   2.085   9.303   5.437  0.0988 -3.8779 -0.3506
  248MOL0     H32698   2.254   9.483   5.342 -0.0498 -0.8946  3.5284
  248MOL0     H32699   2.393   9.538   5.143  1.5991  1.5967  1.2677
  248MOL0     H32700   2.632   9.239   4.766  0.0459  1.0704  0.7679
  248MOL0     H32701   2.761   9.296   4.558 -3.1566  2.2577  0.2500
  248MOL0     H32702   3.190   9.434   4.595  0.4662  0.7694  1.7649
  248MOL0     H32703   3.088   9.573   4.571 -0.7761 -2.0342  2.9546
  248MOL0     H32704   3.260   9.544   4.386  0.6259 -0.9410  4.5567
  248MOL0     H32705   3.110   9.547   4.315  0.8284 -0.2108 -0.4956
  248MOL0     H32706   3.091   9.303   4.288 -0.9002  2.6603 -1.0762
  248MOL0     H32707   3.241   9.290   4.396 -1.4649  2.0283  1.8401
  248MOL0     H32708   3.238   9.457   4.143  0.2879 -0.0274  1.1825
  248MOL0     H32709   3.368   9.400   4.229  0.1241  1.7314 -1.6998
  248MOL0     H32710   3.177   9.219   4.082 -1.2249  2.0605  1.7460
  248MOL0     H32711   3.307   9.161   4.191  0.0596  1.7222  1.4850
  248MOL0     H32712   3.486   9.266   4.045  0.6360  1.3084 -1.7421
  248MOL0     H32713   3.359   9.327   3.949  1.9342  1.0216  1.2929
  248MOL0     H32714   3.460   9.053   4.015  0.2238  0.1683  0.3934
  248MOL0     H32715   3.298   9.065   3.943 -0.5924  2.7429 -1.4186
  248MOL0     H32716   3.401   9.196   3.751 -1.1502 -0.3963  0.4385
  248MOL0     H32717   3.462   9.034   3.770 -0.2011  0.2602 -1.0755
  248MOL0     H32718   3.069   9.454   4.815 -0.8090  0.6891  0.2872
  248MOL0     H32719   2.944   9.417   4.995 -0.4262 -0.9614  0.8304
  248MOL0     H32720   2.647   9.204   5.227 -0.7546  0.0223 -1.0711
  248MOL0     H32721   2.472   9.123   5.385  1.2528  0.4783  0.2626
  248MOL0     H32722   0.478   8.568   5.309 -0.6753  1.8214 -3.6133
  248MOL0     H32723   0.402   8.377   5.162  0.7288  0.2762 -0.1326
  248MOL0     H32724   0.575   8.109   4.674 -1.6728  1.3138 -0.3484
  248MOL0     H32725   0.486   7.895   4.580 -0.8084 -4.1238  0.6028
  248MOL0     H32726   0.223   7.642   4.816  0.5259  3.3637  0.6184
  248MOL0     H32727   0.366   7.562   4.768 -1.3076 -0.5443  0.1096
  248MOL0     H32728   0.137   7.602   4.585  1.9730  1.9331 -0.6412
  248MOL0     H32729   0.281   7.519   4.535 -0.4047 -2.3573  0.4132
  248MOL0     H32730   0.124   7.421   4.768 -2.4576 -1.0294 -1.6225
  248MOL0     H32731   0.268   7.348   4.716 -0.9806 -0.2907 -0.3990
  248MOL0     H32732   0.180   7.265   4.497 -1.3186 -2.7525 -1.0675
  248MOL0     H32733   0.085   7.224   4.647  0.9978  2.0773  2.0660
  248MOL0     H32734  -0.192   7.466   4.431  0.0799  1.6569  0.9220
  248MOL0     H32735   0.300   7.789   4.933 -0.7491 -1.8262 -2.3858
  248MOL0     H32736   0.388   7.980   5.045 -2.0653 -2.5548 -0.5186
  249MOL0     O32737   3.016   8.346   9.463  0.7365  0.4963  0.4670
  249MOL0     C32738   3.019   8.345   9.340  0.3365  0.9962 -0.2875
  249MOL0     O32739   3.095   8.262   9.256  1.1963  0.3612 -0.3116
  249MOL0     C32740   3.195   8.195   9.313  0.6035 -0.0255 -0.3873
  249MOL0     C32741   3.329   8.249   9.327  1.2758 -0.3954 -0.5527
  249MOL0     C32742   3.435   8.192   9.411  0.8083 -0.3185 -0.5344
  249MOL0     C32743   3.411   8.076   9.484 -0.2642 -0.6565  0.2198
  249MOL0     O32744   3.504   8.011   9.565  0.3445  0.7402 -0.4016
  249MOL0     C32745   3.605   7.943   9.491 -0.4814 -0.4118 -0.0867
  249MOL0     C32746   3.706   7.872   9.580  0.2559  0.9214  0.2740
  249MOL0     C32747   3.648   7.743   9.648 -1.0336 -0.2995 -0.0441
  249MOL0     C32748   3.746   7.683   9.756  0.3392  1.1122  0.1672
  249MOL0     C32749   3.886   7.653   9.701 -0.0399 -0.0933 -0.4899
  249MOL0     C32750   3.892   7.519   9.617  0.8312 -0.4878  0.4280
  249MOL0     C32751   4.033   7.480   9.579  1.0162 -0.3048  0.0392
  249MOL0     C32752   4.132   7.451   9.697  0.7105  0.4739 -0.3707
  249MOL0     N32753   4.222   7.347   9.659  0.0372  0.8701 -0.4158
  249MOL0     C32754   4.330   7.366   9.585  0.4641 -0.8841  0.5513
  249MOL0     C32755   4.382   7.241   9.559 -0.2093  0.2928  0.1269
  249MOL0     C32756   4.500   7.205   9.474  0.0377  1.1137 -0.6368
  249MOL0     C32757   4.435   7.170   9.337 -0.0862 -0.4669  0.3373
  249MOL0     C32758   4.392   7.292   9.256  0.0975 -0.1968 -0.3888
  249MOL0     C32759   4.243   7.314   9.240  0.4999  0.1447  0.8548
  249MOL0     O32760   4.216   7.450   9.244 -0.2509  0.1618 -0.0141
  249MOL0     C32761   4.086   7.495   9.242 -0.2896  0.0116  1.2620
  249MOL0     C32762   3.968   7.404   9.219 -0.6941  0.7609 -0.4195
  249MOL0     C32763   3.843   7.457   9.203  0.6495 -0.3638  0.1627
  249MOL0     C32764   3.821   7.592   9.210 -0.4779 -0.6105 -0.3913
  249MOL0     C32765   3.690   7.640   9.187  1.0597  0.8811  0.9687
  249MOL0     O32766   3.580   7.548   9.194  0.5101 -0.2596 -0.0424
  249MOL0     C32767   3.471   7.590   9.266 -0.2471 -1.1111  0.0542
  249MOL0     C32768   3.454   7.569   9.403  0.1127 -0.7713 -0.8829
  249MOL0     C32769   3.345   7.614   9.454 -0.5321  0.1911 -0.4621
  249MOL0     C32770   3.243   7.665   9.385  0.3513 -0.2555 -0.5308
  249MOL0     O32771   3.124   7.700   9.434 -0.6333  0.1075  0.3194
  249MOL0     C32772   3.013   7.644   9.367 -0.0098 -0.5376 -0.5146
  249MOL0     C32773   2.904   7.601   9.465  0.3110 -1.1487 -0.3218
  249MOL0     C32774   2.831   7.715   9.545 -0.8359  0.3112  0.4232
  249MOL0     C32775   2.733   7.653   9.639  0.4190 -0.9128 -0.7142
  249MOL0     C32776   2.633   7.761   9.705 -0.2294 -0.0719 -0.8918
  249MOL0     C32777   2.553   7.851   9.612 -1.3159 -0.6138  0.8996
  249MOL0     C32778   2.440   7.946   9.674  0.1300  0.3531 -0.0967
  249MOL0     C32779   2.343   7.862   9.755  0.5612 -0.5176  0.3857
  249MOL0    Cl32780   2.200   7.960   9.810 -0.4098 -0.4948 -0.2761
  249MOL0     C32781   3.261   7.692   9.248  0.3349 -0.4945 -1.2192
  249MOL0     C32782   3.372   7.646   9.192  0.2495  0.6112  0.2057
  249MOL0     O32783   3.673   7.765   9.171  0.0685  0.1942 -0.1274
  249MOL0     C32784   3.931   7.681   9.243 -0.1810  0.6489  0.2112
  249MOL0     C32785   4.058   7.625   9.254 -0.8048 -0.8449 -0.0437
  249MOL0     N32786   4.296   7.149   9.621  0.6802 -0.1951  0.9181
  249MOL0     N32787   4.207   7.212   9.682 -0.4490 -0.1458 -0.6249
  249MOL0     C32788   3.280   8.016   9.472  0.2764 -0.6741 -0.0603
  249MOL0     C32789   3.179   8.075   9.392 -0.4400  0.2686 -0.4410
  249MOL0     C32790   2.919   8.423   9.260  0.2413  0.7034  0.0870
  249MOL0     C32791   2.856   8.529   9.330  0.0568 -0.5164  0.5287
  249MOL0     C32792   2.754   8.602   9.264 -0.6553 -0.3696 -0.9008
  249MOL0     C32793   2.723   8.568   9.127 -0.0610 -0.4267  0.7112
  249MOL0     O32794   2.638   8.639   9.044 -0.5739 -0.0657 -0.0012
  249MOL0     C32795   2.544   8.721   9.111 -0.4594  0.4595  0.5710
  249MOL0     C32796   2.434   8.765   9.019 -1.0590  0.8055  0.6693
  249MOL0     C32797   2.488   8.861   8.917  0.8799  0.9103 -1.0718
  249MOL0     C32798   2.379   8.915   8.823 -0.6481 -0.2872  0.7151
  249MOL0     C32799   2.415   9.012   8.721 -0.4399  0.1231 -0.6076
  249MOL0     C32800   2.434   9.093   8.632  0.0577  0.3438  0.4341
  249MOL0     C32801   2.782   8.465   9.064  0.2757  0.2295  0.0795
  249MOL0     C32802   2.883   8.393   9.124 -0.2806 -0.0866 -0.1502
  249MOL0     H32803   3.337   8.347   9.282  0.9744 -1.3628 -2.8277
  249MOL0     H32804   3.533   8.238   9.411  0.2948  0.8976 -2.6778
  249MOL0     H32805   3.655   8.015   9.425  1.6043 -0.9987  0.7744
  249MOL0     H32806   3.564   7.864   9.427 -0.1405 -0.6914  0.0411
  249MOL0     H32807   3.740   7.946   9.654  1.1324  0.3417  0.4668
  249MOL0     H32808   3.795   7.853   9.519  0.6948  2.6194  0.3199
  249MOL0     H32809   3.614   7.672   9.572 -0.8679 -1.2989  0.7962
  249MOL0     H32810   3.559   7.769   9.707 -0.0479 -0.9393  1.8156
  249MOL0     H32811   3.752   7.753   9.840  1.1161  0.9750  0.2283
  249MOL0     H32812   3.702   7.595   9.803  0.0592 -0.6788 -3.1245
  249MOL0     H32813   3.957   7.640   9.783 -1.4754  0.1262  0.8210
  249MOL0     H32814   3.927   7.727   9.631  0.2225  0.1848 -0.0480
  249MOL0     H32815   3.836   7.518   9.523  2.8885  1.0625 -0.9010
  249MOL0     H32816   3.859   7.442   9.687  5.5069 -2.8446  0.4115
  249MOL0     H32817   4.036   7.388   9.520  2.6874 -0.6839  0.6299
  249MOL0     H32818   4.074   7.566   9.525  3.0516 -1.7354 -0.8623
  249MOL0     H32819   4.080   7.425   9.790  1.3695 -1.0670 -0.4043
  249MOL0     H32820   4.185   7.543   9.722 -2.3978  2.2713  0.1539
  249MOL0     H32821   4.378   7.461   9.561  2.3707 -2.3367 -1.8475
  249MOL0     H32822   4.538   7.114   9.520 -0.0813  1.3291 -0.0996
  249MOL0     H32823   4.585   7.274   9.478 -0.6747  2.0418 -0.9636
  249MOL0     H32824   4.357   7.096   9.355 -1.4332 -0.9183 -5.4442
  249MOL0     H32825   4.509   7.116   9.277  0.2604  2.4501 -2.1638
  249MOL0     H32826   4.436   7.378   9.308  2.0665 -1.3358 -0.0826
  249MOL0     H32827   4.434   7.280   9.156  1.3706 -2.3087  0.3451
  249MOL0     H32828   4.178   7.254   9.305  1.7320 -0.3255  1.6912
  249MOL0     H32829   4.232   7.271   9.140  3.6749 -1.9522  1.2826
  249MOL0     H32830   3.995   7.298   9.220  2.1938  1.4044 -0.3773
  249MOL0     H32831   3.774   7.373   9.192  0.1583  0.1041 -0.4463
  249MOL0     H32832   3.523   7.511   9.463 -1.9166  0.1518  2.6456
  249MOL0     H32833   3.334   7.615   9.562  3.1810  2.4918  0.0888
  249MOL0     H32834   3.036   7.562   9.298 -3.9849 -0.6293 -1.9904
  249MOL0     H32835   2.970   7.724   9.306 -0.1362  0.7031  1.1373
  249MOL0     H32836   2.950   7.535   9.538  0.4253  1.9081  2.5821
  249MOL0     H32837   2.833   7.543   9.405 -1.1290  3.4176 -3.6627
  249MOL0     H32838   2.789   7.786   9.473  0.8871  0.6560 -0.2868
  249MOL0     H32839   2.908   7.764   9.605  0.1560  1.5235 -1.7487
  249MOL0     H32840   2.686   7.573   9.580 -0.9976 -0.4158 -0.2737
  249MOL0     H32841   2.796   7.597   9.708  0.6649 -0.8902 -0.9177
  249MOL0     H32842   2.674   7.829   9.780 -2.1518  0.7047 -0.4716
  249MOL0     H32843   2.562   7.705   9.767  0.9506 -2.1436 -1.3304
  249MOL0     H32844   2.519   7.791   9.528 -0.3793  0.4867 -0.3081
  249MOL0     H32845   2.627   7.917   9.567 -0.4622  0.5124  3.7200
  249MOL0     H32846   2.485   8.031   9.724 -1.0341  0.2449  1.1791
  249MOL0     H32847   2.384   7.991   9.592  0.1655 -0.7002 -0.7301
  249MOL0     H32848   2.389   7.819   9.845  2.0739 -0.1705 -0.1827
  249MOL0     H32849   2.298   7.790   9.686 -1.2512  0.7599  0.1709
  249MOL0     H32850   3.190   7.734   9.178  2.2473  3.1351 -1.2143
  249MOL0     H32851   3.387   7.645   9.085 -0.3732 -1.9668  0.0812
  249MOL0     H32852   3.920   7.789   9.244 -0.3957  0.6581 -1.3092
  249MOL0     H32853   4.145   7.690   9.258 -0.1887 -1.5510 -1.1282
  249MOL0     H32854   3.251   7.923   9.518 -4.1961  0.7064  0.3863
  249MOL0     H32855   3.079   8.033   9.388 -1.1239  1.4297  2.3537
  249MOL0     H32856   2.880   8.569   9.428  0.7534  3.1076 -0.9440
  249MOL0     H32857   2.707   8.687   9.312  2.2884  0.9495 -0.1073
  249MOL0     H32858   2.587   8.810   9.157  1.7103  0.9503 -2.1193
  249MOL0     H32859   2.506   8.651   9.185  0.8368 -0.8681  0.0599
  249MOL0     H32860   2.401   8.677   8.963  0.0864 -1.1896  2.9497
  249MOL0     H32861   2.356   8.818   9.074 -1.1182  0.7915  0.5988
  249MOL0     H32862   2.565   8.824   8.848  1.6110  2.6862 -1.2779
  249MOL0     H32863   2.533   8.944   8.972 -0.7023  0.7251  0.5653
  249MOL0     H32864   2.326   8.835   8.770 -3.8533  2.6759 -1.0061
  249MOL0     H32865   2.303   8.973   8.876 -1.0564 -1.6065  1.6432
  249MOL0     H32866   2.451   9.161   8.551  1.9179 -1.8395 -1.1358
  249MOL0     H32867   2.757   8.443   8.961  2.0358  2.2301 -0.8484
  249MOL0     H32868   2.925   8.309   9.068  1.6575  1.1863 -0.6922
  250MOL0     O32869  11.368   5.736   5.657 -0.1621 -0.5211  0.1540
  250MOL0     C32870  11.350   5.723   5.780  0.3791  0.2044  0.1797
  250MOL0     O32871  11.369   5.819   5.878  0.2186 -0.4335 -0.2510
  250MOL0     C32872  11.429   5.932   5.841 -0.1582 -0.8391 -0.9569
  250MOL0     C32873  11.375   6.037   5.773  0.6064 -0.0325 -0.0894
  250MOL0     C32874  11.447   6.156   5.764  0.5305  0.2676 -0.1906
  250MOL0     C32875  11.556   6.180   5.846 -0.2524 -0.3584  0.8069
  250MOL0     O32876  11.607   6.315   5.838  0.0766 -0.0999  0.2058
  250MOL0     C32877  11.686   6.363   5.955  0.6483 -0.6167  0.4567
  250MOL0     C32878  11.731   6.514   5.951  0.4674 -0.2119  0.3900
  250MOL0     C32879  11.828   6.551   6.057  0.2152  0.5127  0.2500
  250MOL0     C32880  11.874   6.692   6.062  0.1210 -0.0831  0.3781
  250MOL0     C32881  11.929   6.724   6.202  0.1281  0.4347  0.1356
  250MOL0     C32882  11.936   6.876   6.230  0.3222 -0.9957 -0.6219
  250MOL0     C32883  11.984   6.909   6.372  0.0892 -0.1313 -0.1483
  250MOL0     C32884  11.883   6.892   6.484 -0.6964  0.1422 -0.5880
  250MOL0     N32885  11.958   6.947   6.608 -0.0353  0.0265 -0.2061
  250MOL0     C32886  11.951   7.077   6.660  0.5390 -0.3320  0.3682
  250MOL0     C32887  11.998   7.069   6.788 -0.5009 -0.2044 -0.0903
  250MOL0     C32888  12.015   7.168   6.897 -0.4293  0.2577  0.1092
  250MOL0     C32889  12.168   7.173   6.946 -0.3841  0.2730  0.1223
  250MOL0     C32890  12.185   7.286   7.055 -0.0187 -0.2351 -0.3081
  250MOL0     C32891  12.334   7.261   7.094 -0.2973 -0.3518 -0.6018
  250MOL0     O32892  12.365   7.350   7.203 -0.1894 -0.1726  0.2694
  250MOL0     C32893  12.491   7.338   7.271  1.3314 -0.3299  0.8666
  250MOL0     C32894  12.594   7.263   7.229  0.0320  0.7727 -0.8593
  250MOL0     C32895  12.705   7.241   7.304 -0.3648  0.2862 -0.9077
  250MOL0     C32896  12.717   7.306   7.422  0.2972  0.6279 -0.1779
  250MOL0     C32897  12.829   7.272   7.517 -1.0275 -1.2623 -0.0562
  250MOL0     O32898  12.922   7.190   7.466  0.7317 -0.6501 -0.4039
  250MOL0     C32899  13.037   7.177   7.544  0.5445  0.5534  0.0637
  250MOL0     C32900  13.034   7.104   7.658  0.6535  0.0645 -0.1489
  250MOL0     C32901  13.143   7.066   7.734 -0.5762  0.4486 -0.4700
  250MOL0     C32902  13.265   7.114   7.684  0.7323 -0.3460  0.2409
  250MOL0     O32903  13.367   7.087   7.771  0.6273  0.1847 -0.4321
  250MOL0     C32904  13.497   7.126   7.724 -1.1025 -0.5377 -0.6989
  250MOL0     C32905  13.603   7.078   7.831 -0.1675  0.0809 -0.8881
  250MOL0     C32906  13.595   7.149   7.976 -0.8667  0.7052  0.3511
  250MOL0     C32907  13.705   7.089   8.061  0.7051 -1.0418 -0.8136
  250MOL0     C32908  13.724   7.152   8.212  0.5547 -0.2984  0.7221
  250MOL0     C32909  13.593   7.146   8.285  0.0040 -0.8315 -0.1990
  250MOL0     C32910  13.606   7.159   8.438 -0.2681  0.2095  0.4509
  250MOL0     C32911  13.488   7.155   8.530  0.1811 -0.2358  0.1477
  250MOL0    Cl32912  13.394   7.299   8.518  0.2351  0.4965  0.0962
  250MOL0     C32913  13.275   7.197   7.576 -0.3943 -0.0986  0.0777
  250MOL0     C32914  13.158   7.226   7.504  0.0652 -0.2706 -0.1644
  250MOL0     O32915  12.841   7.344   7.612 -0.0810 -0.5337 -0.6040
  250MOL0     C32916  12.629   7.412   7.452  0.5807  0.5846 -0.0071
  250MOL0     C32917  12.513   7.423   7.375  0.6664 -0.2236 -0.5300
  250MOL0     N32918  12.040   6.939   6.799 -0.7337 -0.2321 -1.0315
  250MOL0     N32919  12.022   6.866   6.694  0.9186  0.1105  0.1623
  250MOL0     C32920  11.608   6.079   5.921  0.1293  0.3832  0.8478
  250MOL0     C32921  11.551   5.948   5.906 -0.5238  1.1207 -0.7056
  250MOL0     C32922  11.275   5.598   5.821  0.0761  0.2827  0.0206
  250MOL0     C32923  11.246   5.573   5.960  0.0432 -0.4952 -0.1929
  250MOL0     C32924  11.154   5.482   6.005  0.4207  1.4615 -0.4563
  250MOL0     C32925  11.068   5.412   5.918  0.5921 -1.4581 -0.1195
  250MOL0     O32926  10.968   5.338   5.970 -0.1565 -0.0146 -1.2097
  250MOL0     C32927  10.907   5.224   5.900  0.7669  0.8334 -0.7922
  250MOL0     C32928  10.791   5.284   5.812  0.3355  0.2931  0.9229
  250MOL0     C32929  10.698   5.378   5.887 -0.2004 -0.1115  0.3995
  250MOL0     C32930  10.580   5.413   5.796 -0.1428  0.4717 -0.5662
  250MOL0     C32931  10.459   5.324   5.818  0.5031  0.5835  0.3927
  250MOL0     C32932  10.355   5.262   5.854  0.1743  0.2395  0.1842
  250MOL0     C32933  11.098   5.433   5.783 -1.2166  0.6533  0.9083
  250MOL0     C32934  11.204   5.518   5.732  0.3347 -0.3450 -0.2770
  250MOL0     H32935  11.276   6.030   5.729  0.9326 -1.0387 -0.7177
  250MOL0     H32936  11.404   6.242   5.714  0.9652  0.3284 -0.4619
  250MOL0     H32937  11.778   6.305   5.957  0.5369 -0.8217 -0.0812
  250MOL0     H32938  11.628   6.345   6.046 -1.1802 -0.6447 -0.6632
  250MOL0     H32939  11.644   6.581   5.952 -0.5800 -1.3492  4.2658
  250MOL0     H32940  11.787   6.525   5.858  0.5982 -5.4054 -0.4040
  250MOL0     H32941  11.918   6.490   6.044  1.3084  1.9521  0.8031
  250MOL0     H32942  11.773   6.522   6.147 -0.8762 -1.3114 -0.9346
  250MOL0     H32943  11.951   6.705   5.986 -0.7838  1.5031 -0.3185
  250MOL0     H32944  11.793   6.758   6.030  1.4788 -0.1469 -3.7525
  250MOL0     H32945  12.025   6.674   6.214  1.0080  1.6818 -1.3401
  250MOL0     H32946  11.861   6.692   6.282  0.4074  0.9770  0.5940
  250MOL0     H32947  11.846   6.935   6.206  0.4906 -0.7060 -0.5483
  250MOL0     H32948  12.015   6.918   6.167 -0.1561  2.6905  0.9533
  250MOL0     H32949  12.077   6.853   6.385  0.2301 -0.0180 -0.6409
  250MOL0     H32950  12.010   7.015   6.367  0.6673  0.0296  3.4131
  250MOL0     H32951  11.879   6.784   6.500  2.3240  0.1618  1.0902
  250MOL0     H32952  11.790   6.937   6.448 -2.2786  0.7736  3.6389
  250MOL0     H32953  11.911   7.166   6.614  0.1746  0.2463  1.7408
  250MOL0     H32954  11.955   7.138   6.984  4.0837 -0.0678  3.4766
  250MOL0     H32955  11.992   7.267   6.856 -3.9600 -0.1561  0.7483
  250MOL0     H32956  12.245   7.197   6.872  0.4118  0.4026  0.9695
  250MOL0     H32957  12.190   7.076   6.990  1.5065  0.0551 -1.1657
  250MOL0     H32958  12.172   7.390   7.022  0.8142  0.6006  1.8383
  250MOL0     H32959  12.123   7.265   7.142  0.9017  1.2290  0.7345
  250MOL0     H32960  12.407   7.281   7.015 -0.7304  0.1443 -0.8810
  250MOL0     H32961  12.342   7.157   7.127  2.7850 -0.6844 -2.0775
  250MOL0     H32962  12.582   7.203   7.139  0.1687 -1.3617  0.4775
  250MOL0     H32963  12.775   7.164   7.271 -1.9357 -2.0765  1.0122
  250MOL0     H32964  12.934   7.074   7.688 -0.3448  0.7355 -2.5924
  250MOL0     H32965  13.142   7.032   7.837  0.6339  0.1596 -0.5451
  250MOL0     H32966  13.499   7.234   7.708 -0.1483 -0.1040  1.9051
  250MOL0     H32967  13.530   7.075   7.633  1.8841 -0.6635  0.3503
  250MOL0     H32968  13.708   7.088   7.802 -0.4406  0.0782 -1.9038
  250MOL0     H32969  13.594   6.970   7.846 -0.4042 -0.0211 -1.7018
  250MOL0     H32970  13.492   7.143   8.013 -1.6219 -1.9036 -1.8297
  250MOL0     H32971  13.614   7.256   7.962 -0.6609  1.0317  2.7451
  250MOL0     H32972  13.690   6.982   8.074  0.9353 -1.1556 -1.4575
  250MOL0     H32973  13.800   7.096   8.008  0.1551 -0.1533 -1.7436
  250MOL0     H32974  13.756   7.256   8.204 -2.2916  0.5445 -0.9263
  250MOL0     H32975  13.804   7.100   8.266  0.6066 -1.0128 -0.0106
  250MOL0     H32976  13.550   7.046   8.278 -0.0820 -0.9180  1.1706
  250MOL0     H32977  13.517   7.221   8.259  0.3806 -0.2006  0.4673
  250MOL0     H32978  13.660   7.068   8.465  3.0918  1.5005 -1.2948
  250MOL0     H32979  13.676   7.237   8.468  0.6563  0.4448 -2.0680
  250MOL0     H32980  13.504   7.139   8.637 -0.6903 -2.4786  0.0008
  250MOL0     H32981  13.417   7.079   8.496 -1.9083  1.5748  0.2319
  250MOL0     H32982  13.367   7.244   7.543 -1.2056  1.0978 -0.5951
  250MOL0     H32983  13.182   7.285   7.417  0.8993 -0.9599 -0.4175
  250MOL0     H32984  12.646   7.489   7.527 -0.2709  1.8608 -1.0758
  250MOL0     H32985  12.447   7.503   7.406 -0.5796 -0.7074 -1.7978
  250MOL0     H32986  11.705   6.069   5.968  0.5694 -2.6956 -0.4467
  250MOL0     H32987  11.594   5.857   5.947 -1.8663  0.6385 -0.2961
  250MOL0     H32988  11.299   5.636   6.031  4.6614 -2.6787 -1.2698
  250MOL0     H32989  11.141   5.458   6.110  3.4856 -2.1650 -0.7037
  250MOL0     H32990  10.864   5.156   5.975 -1.4215  2.3220 -0.5938
  250MOL0     H32991  10.971   5.168   5.832 -0.5904  0.6065 -1.9434
  250MOL0     H32992  10.833   5.336   5.726 -2.8454  1.3749 -0.1115
  250MOL0     H32993  10.739   5.195   5.776  5.4084 -3.1779  1.1997
  250MOL0     H32994  10.747   5.468   5.925  1.3845 -0.4614 -0.7051
  250MOL0     H32995  10.668   5.330   5.980 -1.0408  2.3409  1.4772
  250MOL0     H32996  10.554   5.514   5.828 -0.7902  0.1006  0.0817
  250MOL0     H32997  10.617   5.415   5.693 -0.8092  3.0126 -0.8423
  250MOL0     H32998  10.259   5.226   5.884 -0.7402  1.4594 -1.1616
  250MOL0     H32999  11.048   5.390   5.697  2.4695  1.6332 -1.9704
  250MOL0     H33000  11.228   5.523   5.626  2.1881 -3.5090 -0.1138
  251MOL0     O33001   8.265   4.174   9.863  0.0943  0.8628  0.0586
  251MOL0     C33002   8.323   4.121   9.956  0.2065  0.2585  0.0291
  251MOL0     O33003   8.274   4.093  10.075 -0.0826 -0.0458  0.1403
  251MOL0     C33004   8.146   4.102  10.115  0.3377  1.4520 -0.8095
  251MOL0     C33005   8.031   4.105  10.036 -0.0676  0.3192 -0.2916
  251MOL0     C33006   7.905   4.109  10.094 -0.2564 -0.5763  0.0932
  251MOL0     C33007   7.879   4.108  10.234 -1.0281  0.8529  0.5597
  251MOL0     O33008   7.765   4.095  10.301  0.3600  0.3626  0.1793
  251MOL0     C33009   7.649   4.172  10.249 -0.2791 -1.2702  0.6114
  251MOL0     C33010   7.549   4.224  10.352  0.4425  0.3785  0.0539
  251MOL0     C33011   7.507   4.119  10.463  1.2975 -0.0353  0.2248
  251MOL0     C33012   7.415   4.174  10.563 -0.3760  0.1012 -0.5484
  251MOL0     C33013   7.461   4.274  10.677  0.3671 -0.5889 -0.4868
  251MOL0     C33014   7.569   4.221  10.760 -0.3411  0.2817  0.9219
  251MOL0     C33015   7.603   4.301  10.891  0.0177  0.3517 -0.3991
  251MOL0     C33016   7.721   4.237  10.971 -0.4710  0.5114 -0.4443
  251MOL0     N33017   7.686   4.220  11.107  0.4574 -0.0752 -0.7922
  251MOL0     C33018   7.708   4.312  11.204 -0.2985 -0.8218  0.5050
  251MOL0     C33019   7.639   4.261  11.310  0.3303  0.6793 -0.5673
  251MOL0     C33020   7.629   4.327  11.451  0.1298 -0.3542 -0.6822
  251MOL0     C33021   7.774   4.346  11.505  0.8817 -0.2140 -0.2121
  251MOL0     C33022   7.840   4.206  11.544  0.4393 -0.3528  0.3136
  251MOL0     C33023   7.971   4.181  11.474  0.8613  0.1462  0.9026
  251MOL0     O33024   8.039   4.304  11.491  0.3258 -0.8654  0.6047
  251MOL0     C33025   8.112   4.367  11.390  0.4985  0.7948 -0.3334
  251MOL0     C33026   8.198   4.281  11.320 -0.1006 -0.7124 -0.2262
  251MOL0     C33027   8.272   4.335  11.211 -0.0924  0.5049 -0.2953
  251MOL0     C33028   8.269   4.468  11.179 -0.1711 -1.1581  0.0663
  251MOL0     C33029   8.311   4.509  11.045 -1.3735 -0.4263 -1.1065
  251MOL0     O33030   8.294   4.645  11.021  0.2597 -0.0058  0.3400
  251MOL0     C33031   8.347   4.685  10.905  0.0076 -0.4527  0.5016
  251MOL0     C33032   8.481   4.692  10.888  0.8702 -0.8577 -0.0576
  251MOL0     C33033   8.538   4.715  10.765 -0.2736  0.3936 -0.7853
  251MOL0     C33034   8.454   4.727  10.652 -0.0295 -0.3776 -0.4555
  251MOL0     O33035   8.489   4.773  10.529 -0.3610 -0.4897 -0.4055
  251MOL0     C33036   8.624   4.778  10.489  0.8585  0.9565  1.0916
  251MOL0     C33037   8.660   4.637  10.445  0.8135  0.0995  0.0055
  251MOL0     C33038   8.800   4.645  10.381 -0.1373  0.2936 -1.1012
  251MOL0     C33039   8.821   4.510  10.314  0.2708  0.9082 -0.1207
  251MOL0     C33040   8.951   4.513  10.234 -0.6079  0.2206 -0.0027
  251MOL0     C33041   9.002   4.373  10.190  1.0077 -0.1075  0.4819
  251MOL0     C33042   9.134   4.373  10.128 -0.1217 -0.7881 -0.3990
  251MOL0     C33043   9.191   4.234  10.114  0.4112  0.3216  0.8241
  251MOL0    Cl33044   9.079   4.096  10.074 -0.8750 -0.4150  0.0687
  251MOL0     C33045   8.316   4.705  10.661 -1.1972  0.0531 -0.1953
  251MOL0     C33046   8.267   4.699  10.794 -0.1420 -1.1203  1.0404
  251MOL0     O33047   8.372   4.430  10.973 -0.3840  0.2808  0.6664
  251MOL0     C33048   8.190   4.546  11.264  0.5214 -0.0459  0.0046
  251MOL0     C33049   8.117   4.498  11.368  0.2023  0.1216  0.3248
  251MOL0     N33050   7.587   4.145  11.275  0.5568  0.0951  0.8923
  251MOL0     N33051   7.619   4.119  11.152 -0.1218  0.2409  0.0554
  251MOL0     C33052   7.996   4.103  10.309 -0.1535 -1.7527  0.0326
  251MOL0     C33053   8.121   4.107  10.248 -0.8179  0.3489 -0.6681
  251MOL0     C33054   8.448   4.050   9.921 -0.3592  0.1560  1.1659
  251MOL0     C33055   8.521   4.091   9.814  0.1235  0.0139 -0.7873
  251MOL0     C33056   8.650   4.043   9.776 -0.4880 -0.5167 -0.1897
  251MOL0     C33057   8.707   3.936   9.840  0.9227 -0.1420  0.4472
  251MOL0     O33058   8.812   3.868   9.793 -0.8130 -0.4746 -0.1652
  251MOL0     C33059   8.893   3.937   9.692 -0.2393  0.2415 -0.2190
  251MOL0     C33060   9.021   3.855   9.673  0.3151  0.8356  0.1122
  251MOL0     C33061   9.095   3.890   9.553 -0.4700  0.5076  0.3488
  251MOL0     C33062   9.240   3.827   9.555 -0.1187 -0.6324  0.5417
  251MOL0     C33063   9.333   3.894   9.643  0.0566 -0.5085  0.0892
  251MOL0     C33064   9.405   3.963   9.712 -0.1190 -0.0808  1.0044
  251MOL0     C33065   8.638   3.880   9.950  0.7540  0.7273 -0.6999
  251MOL0     C33066   8.509   3.938   9.987  0.4352  0.4988  0.2114
  251MOL0     H33067   8.031   4.095   9.928  0.4578 -1.4654 -0.1554
  251MOL0     H33068   7.822   4.107  10.025  0.1766  0.9625 -0.5087
  251MOL0     H33069   7.595   4.113  10.174 -2.9081  3.4788 -1.6790
  251MOL0     H33070   7.686   4.254  10.187  1.5707 -2.7406 -0.3501
  251MOL0     H33071   7.469   4.271  10.294 -0.1886 -1.2387 -0.4511
  251MOL0     H33072   7.591   4.310  10.405 -1.2980 -0.2703  2.6782
  251MOL0     H33073   7.595   4.084  10.518  1.5737 -0.3499 -0.4082
  251MOL0     H33074   7.456   4.038  10.409 -0.4999  1.3006 -0.1864
  251MOL0     H33075   7.329   4.217  10.512 -1.5943 -3.1377 -1.4783
  251MOL0     H33076   7.390   4.081  10.615 -2.1658  1.3136  0.8481
  251MOL0     H33077   7.382   4.303  10.747  0.1880  0.9784 -1.2855
  251MOL0     H33078   7.498   4.366  10.633 -0.5519  0.4787  0.8829
  251MOL0     H33079   7.656   4.217  10.694 -0.5720  1.9371  0.4728
  251MOL0     H33080   7.551   4.116  10.784 -0.7301  0.1135 -0.0621
  251MOL0     H33081   7.630   4.403  10.859 -1.6743  0.9338 -0.0655
  251MOL0     H33082   7.510   4.294  10.948  2.0982  1.9710  3.6235
  251MOL0     H33083   7.805   4.307  10.963 -0.4904  0.6773  0.6617
  251MOL0     H33084   7.752   4.144  10.923  1.2794  2.0134 -2.4027
  251MOL0     H33085   7.776   4.396  11.207 -3.1233  1.6286  0.8543
  251MOL0     H33086   7.566   4.266  11.517  1.2256 -2.1294 -1.2204
  251MOL0     H33087   7.574   4.421  11.439 -1.5506 -0.9596  1.4655
  251MOL0     H33088   7.771   4.405  11.597  3.2793 -0.0380 -0.1857
  251MOL0     H33089   7.836   4.399  11.432  1.5469 -2.9241 -1.7653
  251MOL0     H33090   7.863   4.198  11.650 -0.2086  0.4756  0.5257
  251MOL0     H33091   7.773   4.128  11.506 -0.4333 -0.3458  1.7502
  251MOL0     H33092   7.945   4.171  11.368  0.7785  0.2495  0.9131
  251MOL0     H33093   8.034   4.096  11.501  2.2449  0.4252 -1.1478
  251MOL0     H33094   8.205   4.173  11.327 -0.8773 -0.6599  2.2060
  251MOL0     H33095   8.314   4.258  11.147 -1.8242  1.2103 -2.3983
  251MOL0     H33096   8.543   4.657  10.969 -0.7755 -1.7809  0.8597
  251MOL0     H33097   8.646   4.724  10.763 -0.3426  1.9168  0.6169
  251MOL0     H33098   8.695   4.809  10.566  3.0434 -3.1043  0.9885
  251MOL0     H33099   8.632   4.842  10.401  3.3506 -2.3394 -1.3635
  251MOL0     H33100   8.590   4.605  10.368  0.4146  3.9109 -1.4130
  251MOL0     H33101   8.662   4.575  10.536 -2.3838 -0.3773 -0.1370
  251MOL0     H33102   8.872   4.649  10.464 -1.4657 -0.7615  0.1559
  251MOL0     H33103   8.806   4.721  10.303  0.8185 -0.4717 -1.7970
  251MOL0     H33104   8.828   4.422  10.378 -1.0488 -0.0346 -1.2074
  251MOL0     H33105   8.738   4.488  10.246 -1.0107 -1.2570  2.0225
  251MOL0     H33106   9.026   4.542  10.308  0.7367 -0.7862 -0.9235
  251MOL0     H33107   8.958   4.578  10.147  2.3568 -2.0867 -1.6570
  251MOL0     H33108   8.932   4.334  10.116  3.5017 -1.5260 -1.3058
  251MOL0     H33109   9.002   4.302  10.274 -1.1332 -1.2405 -0.4173
  251MOL0     H33110   9.125   4.430  10.035  0.1127 -0.4506 -0.2169
  251MOL0     H33111   9.213   4.430  10.179 -1.9322 -0.8349  2.6926
  251MOL0     H33112   9.235   4.215  10.212  2.0926  0.9055  0.2159
  251MOL0     H33113   9.272   4.240  10.040  0.4115 -0.4937  0.7550
  251MOL0     H33114   8.239   4.715  10.584 -1.1018 -0.6817 -0.3863
  251MOL0     H33115   8.159   4.701  10.804 -0.1934 -0.0635  0.4084
  251MOL0     H33116   8.186   4.653  11.248  0.0947 -0.2589 -1.5340
  251MOL0     H33117   8.058   4.570  11.423 -2.9999  0.1859 -2.8070
  251MOL0     H33118   7.987   4.100  10.417  1.7820 -3.1997  0.1937
  251MOL0     H33119   8.207   4.093  10.313 -1.4109  4.6488  1.3390
  251MOL0     H33120   8.477   4.170   9.754 -0.1517 -0.4630 -1.2225
  251MOL0     H33121   8.708   4.086   9.695 -1.3856  1.8584  0.3725
  251MOL0     H33122   8.919   4.038   9.725  0.8049 -0.1376  0.1377
  251MOL0     H33123   8.850   3.953   9.592 -0.2353 -2.5978 -0.7544
  251MOL0     H33124   9.074   3.869   9.768 -2.1543 -1.0236  1.8960
  251MOL0     H33125   8.982   3.754   9.659  2.5001 -0.3292  1.9331
  251MOL0     H33126   9.090   3.998   9.535 -2.1955  0.3939 -0.0154
  251MOL0     H33127   9.027   3.849   9.478 -0.4312  1.0204  0.0321
  251MOL0     H33128   9.221   3.730   9.602 -1.8703  0.5194  2.3248
  251MOL0     H33129   9.285   3.818   9.455  0.9671  0.5483  0.9018
  251MOL0     H33130   9.458   4.041   9.763  1.9376 -0.4465 -0.4648
  251MOL0     H33131   8.663   3.795  10.013 -0.0942  1.3918  0.5733
  251MOL0     H33132   8.452   3.907  10.073 -2.3722  1.1530 -1.2763
  252MOL0     O33133   1.399   5.269  10.247  0.0855 -0.2078 -1.0702
  252MOL0     C33134   1.397   5.297  10.370 -0.5428  0.0974 -0.3161
  252MOL0     O33135   1.415   5.204  10.471 -0.0274  0.7335  0.6458
  252MOL0     C33136   1.426   5.069  10.437  1.2241 -0.3298  0.2357
  252MOL0     C33137   1.507   5.016  10.338 -0.5031 -1.0434 -0.1993
  252MOL0     C33138   1.532   4.881  10.315  0.5994 -0.4345 -0.9696
  252MOL0     C33139   1.467   4.784  10.386  0.9792  0.7619  0.2436
  252MOL0     O33140   1.483   4.646  10.370 -0.5722 -0.3046  0.9111
  252MOL0     C33141   1.600   4.608  10.444 -1.0276 -0.5055  0.9416
  252MOL0     C33142   1.681   4.488  10.392  0.0974  0.1375 -0.3369
  252MOL0     C33143   1.804   4.456  10.476 -0.1843  0.1808  1.0577
  252MOL0     C33144   1.933   4.543  10.442 -0.2846  0.3303  0.9718
  252MOL0     C33145   2.050   4.466  10.494 -0.2342  0.0000 -0.1255
  252MOL0     C33146   2.176   4.554  10.509  0.3329  0.5499 -0.1904
  252MOL0     C33147   2.297   4.460  10.551  0.5988  0.8793  0.6228
  252MOL0     C33148   2.413   4.542  10.594  0.8278 -0.5507 -0.5729
  252MOL0     N33149   2.476   4.603  10.476 -0.1987  0.7382 -0.0217
  252MOL0     C33150   2.568   4.529  10.405 -0.3520  0.3724 -1.0036
  252MOL0     C33151   2.636   4.619  10.332 -1.1612  0.2842  0.3064
  252MOL0     C33152   2.751   4.572  10.241 -0.5223 -0.0770 -0.4808
  252MOL0     C33153   2.702   4.554  10.100 -0.3891 -0.4919  0.4428
  252MOL0     C33154   2.777   4.648  10.007  0.3499  1.9406  0.5511
  252MOL0     C33155   2.716   4.639   9.867 -0.4120  0.6801 -0.5713
  252MOL0     O33156   2.575   4.672   9.864  0.0827 -0.4398 -0.0265
  252MOL0     C33157   2.541   4.805   9.867 -0.7216  1.0050 -0.2125
  252MOL0     C33158   2.504   4.874   9.751 -1.0629 -0.8804  0.5056
  252MOL0     C33159   2.466   5.001   9.748 -0.1056 -0.0126  0.4408
  252MOL0     C33160   2.468   5.080   9.871  0.3673 -0.3469  0.1468
  252MOL0     C33161   2.401   5.207   9.867 -0.7645  0.2927 -0.0777
  252MOL0     O33162   2.436   5.300   9.950 -0.2969  0.4489 -0.0569
  252MOL0     C33163   2.353   5.409   9.969 -0.2049  0.1859  0.1633
  252MOL0     C33164   2.418   5.530  10.006 -0.8968  0.0384  0.1968
  252MOL0     C33165   2.353   5.646  10.034  0.2920  0.8845 -0.4070
  252MOL0     C33166   2.210   5.642  10.035  0.5400  0.5654 -0.8324
  252MOL0     O33167   2.145   5.757  10.086 -0.1927 -0.3340 -0.1165
  252MOL0     C33168   2.047   5.812  10.002 -0.3278 -0.1685 -0.8653
  252MOL0     C33169   2.045   5.959  10.007 -0.8682  0.1905  0.1680
  252MOL0     C33170   2.003   6.018  10.144 -0.1085  0.3104 -0.1508
  252MOL0     C33171   2.034   6.168  10.159  0.0335  0.4411  0.2669
  252MOL0     C33172   2.028   6.203  10.319 -0.3592  0.1469  0.2477
  252MOL0     C33173   2.011   6.352  10.346  0.5692  0.0848 -0.9211
  252MOL0     C33174   1.997   6.398  10.497 -0.2855  0.1199  0.3989
  252MOL0     C33175   2.025   6.551  10.523 -0.2562 -0.2961 -0.1140
  252MOL0    Cl33176   1.926   6.648  10.408  0.1126  0.3615 -0.5066
  252MOL0     C33177   2.137   5.531  10.007  0.2167  0.8730  0.1016
  252MOL0     C33178   2.210   5.410   9.978 -0.4927  0.3734 -1.2213
  252MOL0     O33179   2.319   5.218   9.779  0.3377  0.5823  0.8052
  252MOL0     C33180   2.517   5.018   9.988  0.8173  0.1902 -0.6190
  252MOL0     C33181   2.540   4.879   9.989 -0.1965 -0.6186 -0.2370
  252MOL0     N33182   2.583   4.746  10.355  0.8336  0.8917 -0.1482
  252MOL0     N33183   2.489   4.733  10.451 -0.0052  0.0276 -0.0805
  252MOL0     C33184   1.375   4.824  10.489  0.2647 -0.0284 -0.2706
  252MOL0     C33185   1.348   4.971  10.506  0.1507  0.2546 -0.5738
  252MOL0     C33186   1.371   5.438  10.419 -0.3563 -0.7838 -0.3557
  252MOL0     C33187   1.389   5.477  10.559 -0.0662  0.8491  0.5271
  252MOL0     C33188   1.366   5.609  10.589  0.5111 -0.9791  0.3033
  252MOL0     C33189   1.327   5.706  10.489  0.3574  0.1779 -0.0011
  252MOL0     O33190   1.315   5.835  10.535  0.1162  0.9811  1.0221
  252MOL0     C33191   1.266   5.937  10.459 -1.3729  0.3501  0.1668
  252MOL0     C33192   1.259   6.046  10.555 -0.3114 -0.2612  0.5369
  252MOL0     C33193   1.137   6.046  10.646  0.5607  0.0524 -0.7413
  252MOL0     C33194   1.138   6.172  10.726  0.4942 -0.7111  0.7682
  252MOL0     C33195   1.019   6.188  10.805  0.6143  0.3456 -0.0168
  252MOL0     C33196   0.922   6.208  10.867 -0.4815  0.3354  0.7279
  252MOL0     C33197   1.295   5.657  10.358 -0.1439 -0.7924  0.1540
  252MOL0     C33198   1.326   5.529  10.324 -0.4508  0.0964  0.0735
  252MOL0     H33199   1.555   5.069  10.257  0.3101  1.6840  1.9291
  252MOL0     H33200   1.603   4.855  10.238  0.8595  0.7568 -1.1583
  252MOL0     H33201   1.568   4.585  10.546  0.6835  0.9076  1.8401
  252MOL0     H33202   1.666   4.693  10.461  0.0444 -1.3049  0.8985
  252MOL0     H33203   1.717   4.501  10.290 -0.2408 -0.8497 -0.5939
  252MOL0     H33204   1.617   4.400  10.386  2.7985 -1.8686 -1.7702
  252MOL0     H33205   1.825   4.350  10.458  0.2065 -0.5540  4.8757
  252MOL0     H33206   1.777   4.477  10.580 -0.9151  3.0349  0.3739
  252MOL0     H33207   1.940   4.545  10.333 -1.7742  1.9392  0.8545
  252MOL0     H33208   1.929   4.648  10.472 -2.8539  0.6832 -0.2632
  252MOL0     H33209   2.077   4.378  10.434  1.3488  1.7744 -2.2120
  252MOL0     H33210   2.035   4.438  10.599 -1.6887  4.0830  0.9279
  252MOL0     H33211   2.166   4.636  10.580  0.4234  1.1179 -0.8287
  252MOL0     H33212   2.218   4.608  10.424  0.1922  1.6608  0.4206
  252MOL0     H33213   2.256   4.406  10.637  0.3131 -2.7725 -1.5545
  252MOL0     H33214   2.322   4.392  10.469  1.0202  1.8624 -0.0742
  252MOL0     H33215   2.488   4.482  10.647  2.9804 -0.6439 -3.4950
  252MOL0     H33216   2.380   4.624  10.659  2.7720  0.5121 -0.8508
  252MOL0     H33217   2.584   4.422  10.401 -1.4285  0.1646 -0.1258
  252MOL0     H33218   2.792   4.479  10.281 -2.5629  0.2133  2.5819
  252MOL0     H33219   2.836   4.640  10.252 -0.0700 -0.8109  0.7029
  252MOL0     H33220   2.594   4.569  10.095 -0.5153 -1.2662  0.8185
  252MOL0     H33221   2.725   4.450  10.076  2.8337 -0.0060  0.8826
  252MOL0     H33222   2.782   4.753  10.036  2.4556  2.6979 -2.1196
  252MOL0     H33223   2.882   4.619  10.009  0.0769  0.9692  1.3312
  252MOL0     H33224   2.734   4.533   9.848 -1.5673  0.1417  1.1121
  252MOL0     H33225   2.767   4.700   9.792 -1.6116  0.5070 -1.5618
  252MOL0     H33226   2.498   4.822   9.655  1.1179  0.6592 -0.5301
  252MOL0     H33227   2.436   5.054   9.658  0.2355  2.6524  1.8010
  252MOL0     H33228   2.526   5.542  10.000 -0.3467 -3.7286 -0.3510
  252MOL0     H33229   2.415   5.732  10.055  3.0691 -1.2233  0.6843
  252MOL0     H33230   1.951   5.775  10.040 -0.0604 -1.5397 -1.4404
  252MOL0     H33231   2.067   5.788   9.897 -1.9965 -1.5536 -0.9173
  252MOL0     H33232   1.960   5.983   9.942  0.1139 -1.1908 -1.7094
  252MOL0     H33233   2.133   6.013   9.971 -0.1105  0.8793  2.8339
  252MOL0     H33234   2.066   5.984  10.226 -0.1480 -0.1831 -0.3195
  252MOL0     H33235   1.900   5.995  10.170 -0.8920 -0.6406 -3.5796
  252MOL0     H33236   2.131   6.195  10.117 -0.4404  0.3524 -0.9161
  252MOL0     H33237   1.957   6.220  10.100 -2.5964 -2.0682  1.2512
  252MOL0     H33238   2.119   6.164  10.365 -2.2222 -3.7279  0.9901
  252MOL0     H33239   1.943   6.150  10.362 -1.8206  0.1926 -2.3582
  252MOL0     H33240   1.918   6.376  10.294 -0.5469 -0.8527  0.5699
  252MOL0     H33241   2.095   6.410  10.306  0.9837  0.9414  1.0689
  252MOL0     H33242   1.898   6.360  10.526  0.4517 -3.6601 -1.5119
  252MOL0     H33243   2.060   6.340  10.565 -0.2146  2.1269  2.1526
  252MOL0     H33244   2.132   6.571  10.510 -0.3316 -0.6390 -1.4670
  252MOL0     H33245   1.996   6.573  10.626  0.3308  0.2043 -0.0457
  252MOL0     H33246   2.030   5.520  10.016 -0.3741  3.8213 -1.8132
  252MOL0     H33247   2.150   5.320   9.978  1.2806 -0.8837  0.7348
  252MOL0     H33248   2.504   5.075  10.080 -0.5130 -1.2718  0.1528
  252MOL0     H33249   2.545   4.843  10.091 -0.8127  0.4777  0.1925
  252MOL0     H33250   1.320   4.750  10.546  0.7122  0.0071  0.2203
  252MOL0     H33251   1.281   5.012  10.581  1.1943 -1.5914  1.4812
  252MOL0     H33252   1.420   5.403  10.631  2.4135  0.9773 -0.2995
  252MOL0     H33253   1.365   5.634  10.695 -2.0539 -1.9206  0.5636
  252MOL0     H33254   1.164   5.914  10.427 -1.6547  1.0748  0.5100
  252MOL0     H33255   1.337   5.950  10.377 -0.1176  0.6625  1.2634
  252MOL0     H33256   1.344   6.037  10.623  1.5906  1.0614 -1.5026
  252MOL0     H33257   1.250   6.139  10.497  0.7321 -1.1556 -1.1397
  252MOL0     H33258   1.138   5.962  10.715  0.5024  1.1386  0.6310
  252MOL0     H33259   1.039   6.047  10.598  0.5533 -0.9674 -0.7665
  252MOL0     H33260   1.226   6.163  10.790 -0.4635  3.0220  2.9413
  252MOL0     H33261   1.156   6.263  10.670  0.4783  0.3897  2.4717
  252MOL0     H33262   0.836   6.219  10.930 -1.4028  1.9441 -0.7162
  252MOL0     H33263   1.249   5.709  10.274  0.1700  1.4426  1.2685
  252MOL0     H33264   1.290   5.495  10.227 -1.6276 -1.8256  1.1059
  253MOL0     O33265   4.880   7.973   6.698 -0.0890 -0.1246 -0.1883
  253MOL0     C33266   4.974   7.900   6.675 -0.0479  0.4371  0.8966
  253MOL0     O33267   4.961   7.765   6.644  0.5641 -0.3564 -0.5043
  253MOL0     C33268   4.839   7.729   6.597  0.3213 -0.1386  0.6501
  253MOL0     C33269   4.813   7.732   6.458  0.2581 -0.8596  0.1076
  253MOL0     C33270   4.689   7.687   6.404  0.4643 -0.8234  0.1846
  253MOL0     C33271   4.585   7.633   6.489  0.0069  0.6584 -0.2224
  253MOL0     O33272   4.471   7.590   6.429 -0.3551 -0.4294  0.4337
  253MOL0     C33273   4.346   7.610   6.498 -0.4644  0.8878  0.4851
  253MOL0     C33274   4.229   7.600   6.400  0.1796 -0.9391 -0.6044
  253MOL0     C33275   4.090   7.649   6.454 -0.1991 -0.0229  1.5208
  253MOL0     C33276   4.074   7.797   6.447  0.3811  0.2208  0.9239
  253MOL0     C33277   3.924   7.842   6.473 -0.3284  0.1860  0.6895
  253MOL0     C33278   3.866   7.790   6.612  0.0871  0.0167  0.0993
  253MOL0     C33279   3.730   7.849   6.654  0.0673  0.8167  0.2808
  253MOL0     C33280   3.664   7.784   6.781  0.2170  0.2947 -0.0684
  253MOL0     N33281   3.737   7.807   6.903  0.0386 -0.2388  1.2872
  253MOL0     C33282   3.839   7.716   6.939  0.3325 -0.1581  0.0993
  253MOL0     C33283   3.901   7.774   7.051 -0.3296 -0.0989  0.0828
  253MOL0     C33284   4.029   7.727   7.125 -0.2686 -1.0671 -0.3305
  253MOL0     C33285   4.017   7.724   7.275 -0.0303 -0.4287  0.2645
  253MOL0     C33286   4.061   7.865   7.333 -1.2246  1.3026  0.7916
  253MOL0     C33287   4.208   7.858   7.372  0.2934 -0.4558  0.1821
  253MOL0     O33288   4.247   7.804   7.504 -0.1951  0.3420 -0.2471
  253MOL0     C33289   4.381   7.812   7.529  0.5900 -0.0854  0.0988
  253MOL0     C33290   4.429   7.706   7.604 -0.3060 -0.1488 -0.8376
  253MOL0     C33291   4.571   7.711   7.648 -0.6495  0.4781  0.3483
  253MOL0     C33292   4.654   7.815   7.612 -0.0714 -0.5048  0.3189
  253MOL0     C33293   4.791   7.834   7.671 -0.3658 -0.9621 -0.5446
  253MOL0     O33294   4.883   7.907   7.593 -0.4103  0.5510 -0.6014
  253MOL0     C33295   5.022   7.898   7.607  0.6443  0.4016  0.0999
  253MOL0     C33296   5.085   7.965   7.506  0.4797 -0.4958 -0.3053
  253MOL0     C33297   5.222   7.968   7.495  0.0781  0.5120  0.7250
  253MOL0     C33298   5.300   7.917   7.599  0.2200  0.1984  0.0144
  253MOL0     O33299   5.437   7.940   7.585 -0.1531  0.0127  0.1146
  253MOL0     C33300   5.520   7.919   7.701  0.2210  0.4609  0.2414
  253MOL0     C33301   5.568   7.770   7.695  0.1320 -0.5682 -0.0240
  253MOL0     C33302   5.705   7.771   7.623 -0.2264  0.6131 -0.1442
  253MOL0     C33303   5.780   7.634   7.660 -0.9748 -0.6324  0.5285
  253MOL0     C33304   5.884   7.588   7.549 -0.0130  0.1660 -0.0465
  253MOL0     C33305   6.029   7.636   7.577  0.0188 -0.3183 -0.6221
  253MOL0     C33306   6.092   7.570   7.703 -0.0217 -0.1211  0.6412
  253MOL0     C33307   6.250   7.575   7.711  0.8658 -0.0756 -0.0679
  253MOL0    Cl33308   6.291   7.473   7.848 -0.1438  0.3023  0.1416
  253MOL0     C33309   5.238   7.832   7.697  0.1660 -0.1214  0.0467
  253MOL0     C33310   5.093   7.826   7.700 -0.4411 -1.5177 -0.5496
  253MOL0     O33311   4.809   7.790   7.782 -0.0155 -0.6169  0.5933
  253MOL0     C33312   4.599   7.922   7.547  0.8841 -0.0730  0.4332
  253MOL0     C33313   4.468   7.914   7.504 -0.3918 -0.2681  0.5545
  253MOL0     N33314   3.844   7.901   7.055 -0.5617  0.8072  0.7229
  253MOL0     N33315   3.753   7.920   6.967 -0.3239  0.4360  0.3559
  253MOL0     C33316   4.617   7.617   6.629 -0.6269 -0.2533  1.3031
  253MOL0     C33317   4.739   7.675   6.679  0.8225  0.1071 -0.1495
  253MOL0     C33318   5.106   7.945   6.696  0.5606  0.5324 -0.1095
  253MOL0     C33319   5.138   8.081   6.715  0.3853  1.0828 -0.2421
  253MOL0     C33320   5.268   8.126   6.708 -0.0021 -0.1125  0.9679
  253MOL0     C33321   5.375   8.044   6.707  0.5694 -0.5529  0.1800
  253MOL0     O33322   5.502   8.102   6.716  0.8134 -0.6813  0.1244
  253MOL0     C33323   5.540   8.228   6.651  0.4179  0.2860  0.9115
  253MOL0     C33324   5.621   8.188   6.528 -0.5326 -0.0283  0.4851
  253MOL0     C33325   5.538   8.118   6.420 -0.6821  0.0595 -0.3533
  253MOL0     C33326   5.617   8.111   6.289  0.0164  0.2662  0.0657
  253MOL0     C33327   5.731   8.015   6.295 -0.1247 -0.3934 -0.2710
  253MOL0     C33328   5.812   7.927   6.299 -0.4671 -0.1956  1.2317
  253MOL0     C33329   5.346   7.908   6.728 -0.0142  0.1883  0.5471
  253MOL0     C33330   5.219   7.859   6.719  0.6211  0.3086 -0.2115
  253MOL0     H33331   4.891   7.772   6.394 -1.6252  2.4158 -0.3189
  253MOL0     H33332   4.685   7.690   6.296  1.3433 -1.1006  0.1390
  253MOL0     H33333   4.331   7.709   6.542 -2.3295  1.5882 -1.5375
  253MOL0     H33334   4.340   7.525   6.568 -1.0490  0.5933  0.0809
  253MOL0     H33335   4.217   7.496   6.367 -2.5040 -1.6388  2.1244
  253MOL0     H33336   4.250   7.655   6.308 -2.9442 -2.3943 -2.3600
  253MOL0     H33337   4.073   7.615   6.557 -1.1690  0.9335  1.6914
  253MOL0     H33338   4.022   7.607   6.379  0.4390  0.3663  0.7102
  253MOL0     H33339   4.134   7.852   6.520 -0.2806 -1.3253  2.6913
  253MOL0     H33340   4.107   7.839   6.351 -0.0606  2.7386  1.8010
  253MOL0     H33341   3.861   7.794   6.398 -0.2800  0.3752  0.5277
  253MOL0     H33342   3.921   7.951   6.469 -2.2730  0.1610  0.8079
  253MOL0     H33343   3.937   7.812   6.692 -0.7467 -0.9095  1.1105
  253MOL0     H33344   3.851   7.682   6.608 -2.1438  0.2624  0.5567
  253MOL0     H33345   3.747   7.954   6.680  1.8913  0.8699 -0.9024
  253MOL0     H33346   3.659   7.842   6.571 -0.0015 -0.9819  0.4407
  253MOL0     H33347   3.645   7.678   6.767 -0.9131  0.2788  1.3377
  253MOL0     H33348   3.563   7.823   6.799  1.4546  4.5532 -1.0553
  253MOL0     H33349   3.866   7.617   6.904  3.5199  0.7524 -0.4143
  253MOL0     H33350   4.117   7.788   7.102 -0.1390 -0.4785  1.5801
  253MOL0     H33351   4.054   7.625   7.096  0.8868 -0.4401 -1.7294
  253MOL0     H33352   4.088   7.652   7.318 -0.7716 -2.3341 -1.5084
  253MOL0     H33353   3.914   7.704   7.306 -0.0423 -0.1178  0.4213
  253MOL0     H33354   4.048   7.948   7.263 -2.7711 -1.2447 -2.2189
  253MOL0     H33355   3.999   7.878   7.422 -0.2159  1.2627  1.5194
  253MOL0     H33356   4.234   7.963   7.383 -0.4584 -0.1105 -1.1264
  253MOL0     H33357   4.266   7.831   7.283  0.3928 -1.2872  0.4825
  253MOL0     H33358   4.360   7.625   7.628 -1.4377  0.5822 -1.5446
  253MOL0     H33359   4.614   7.625   7.698 -0.9959 -0.2724 -0.6098
  253MOL0     H33360   5.026   8.013   7.428 -2.8285 -1.4513  1.4296
  253MOL0     H33361   5.278   8.017   7.417  2.1085  0.4539  2.0848
  253MOL0     H33362   5.457   7.934   7.788 -0.8286 -0.3008 -0.3629
  253MOL0     H33363   5.603   7.991   7.698  0.2658  0.6804  3.6385
  253MOL0     H33364   5.500   7.698   7.648 -0.0727 -1.6131  1.7673
  253MOL0     H33365   5.589   7.738   7.798  1.7589  0.4573 -0.0043
  253MOL0     H33366   5.777   7.847   7.658 -0.4145  0.0918  1.4655
  253MOL0     H33367   5.695   7.781   7.515 -1.7303  0.1685 -0.0659
  253MOL0     H33368   5.820   7.646   7.761  1.4622  4.0458 -0.7039
  253MOL0     H33369   5.706   7.554   7.648 -0.5905 -0.6129 -3.0560
  253MOL0     H33370   5.865   7.621   7.447  0.1844  0.0874 -0.1088
  253MOL0     H33371   5.880   7.479   7.545  1.2731  0.1049  0.0111
  253MOL0     H33372   6.030   7.745   7.587  1.8213 -0.3972  0.4775
  253MOL0     H33373   6.095   7.612   7.493 -0.7397 -2.0113 -0.7673
  253MOL0     H33374   6.045   7.617   7.790  1.7037 -2.5439  3.0404
  253MOL0     H33375   6.055   7.468   7.715 -0.1232  0.0573  2.0204
  253MOL0     H33376   6.293   7.674   7.728 -0.5794  0.8380 -1.5376
  253MOL0     H33377   6.298   7.549   7.616  2.0204 -1.8890  0.9546
  253MOL0     H33378   5.298   7.792   7.779 -0.1591 -0.3395  0.1842
  253MOL0     H33379   5.052   7.770   7.783 -0.0024 -0.4832  0.3908
  253MOL0     H33380   4.653   8.010   7.512  0.2643  0.2438  0.2602
  253MOL0     H33381   4.436   8.001   7.447  3.1908 -0.1071 -1.4972
  253MOL0     H33382   4.550   7.564   6.696 -2.3268  3.0381  2.3811
  253MOL0     H33383   4.738   7.657   6.786 -2.9173 -0.1310 -0.0950
  253MOL0     H33384   5.050   8.146   6.712 -0.9709 -0.6937 -3.1673
  253MOL0     H33385   5.284   8.233   6.715  0.5519 -0.0608 -0.8232
  253MOL0     H33386   5.611   8.282   6.715  1.3206  0.3050 -0.0712
  253MOL0     H33387   5.457   8.299   6.646 -2.6614 -2.8382  3.2180
  253MOL0     H33388   5.666   8.276   6.481 -0.1714 -1.5855 -2.2872
  253MOL0     H33389   5.708   8.129   6.558  1.6099  1.6103 -2.0734
  253MOL0     H33390   5.439   8.160   6.401 -0.3539  0.4528 -1.2397
  253MOL0     H33391   5.519   8.019   6.463  0.3804  0.0711  0.2017
  253MOL0     H33392   5.560   8.074   6.203  1.5326  1.1069 -1.3482
  253MOL0     H33393   5.654   8.212   6.273  0.2513  0.2697  0.6098
  253MOL0     H33394   5.877   7.842   6.290 -2.9158 -2.0640  0.2840
  253MOL0     H33395   5.433   7.849   6.754  2.1805  2.3993 -1.2842
  253MOL0     H33396   5.207   7.751   6.721  1.3768  0.2142 -0.4691
  254MOL0     O33397   4.348   5.340   4.227 -0.5955  0.5300  0.7121
  254MOL0     C33398   4.400   5.352   4.115 -1.1061  0.3171  0.2348
  254MOL0     O33399   4.341   5.344   3.995  0.1787 -0.1097  1.1867
  254MOL0     C33400   4.211   5.293   3.975 -0.3332  0.0527 -0.3473
  254MOL0     C33401   4.152   5.294   3.848 -1.5104  0.1713 -0.6641
  254MOL0     C33402   4.031   5.245   3.818 -0.0805  0.3387  0.3345
  254MOL0     C33403   3.948   5.199   3.913  0.6938  0.0554 -0.8443
  254MOL0     O33404   3.820   5.159   3.880 -0.1116 -0.1306  0.5002
  254MOL0     C33405   3.781   5.022   3.905  0.9524 -0.3173 -0.6485
  254MOL0     C33406   3.665   5.016   4.017 -0.7089  0.0993 -0.1965
  254MOL0     C33407   3.531   5.081   3.981  1.1294  0.7062  0.1999
  254MOL0     C33408   3.435   5.096   4.091 -0.3551 -0.1119 -0.5337
  254MOL0     C33409   3.292   5.127   4.043  0.4659  0.3302 -0.1669
  254MOL0     C33410   3.273   5.273   4.055 -0.5483  0.5196  0.6907
  254MOL0     C33411   3.129   5.310   4.003 -1.0240  0.2669 -1.0691
  254MOL0     C33412   3.113   5.470   4.007 -0.2961  0.7523 -0.7233
  254MOL0     N33413   2.978   5.513   4.047 -0.2849  0.2866 -0.3094
  254MOL0     C33414   2.910   5.612   3.980 -0.0402  0.3263  0.5044
  254MOL0     C33415   2.783   5.611   4.027 -0.3822 -0.8263  0.2484
  254MOL0     C33416   2.661   5.684   3.983  0.1584 -0.0799 -0.6674
  254MOL0     C33417   2.581   5.595   3.889  0.2315  0.6062  0.0748
  254MOL0     C33418   2.442   5.645   3.865 -1.0027  0.0988  0.2672
  254MOL0     C33419   2.448   5.731   3.742 -0.5703  0.0332  0.9465
  254MOL0     O33420   2.519   5.855   3.760  1.5273  0.4144  0.0132
  254MOL0     C33421   2.446   5.958   3.809  0.0681 -1.0807 -0.1800
  254MOL0     C33422   2.328   6.014   3.750  0.4193  0.4342  0.5517
  254MOL0     C33423   2.277   6.136   3.788 -0.5309  0.1046  0.7443
  254MOL0     C33424   2.327   6.197   3.901  0.2288 -0.6139  0.0872
  254MOL0     C33425   2.265   6.324   3.935 -0.5701  0.2302 -0.4676
  254MOL0     O33426   2.152   6.359   3.875 -0.4066 -0.5925 -0.8375
  254MOL0     C33427   2.110   6.489   3.903 -0.8057  0.5582 -0.4479
  254MOL0     C33428   2.097   6.567   3.785 -0.9816  0.5132 -0.3796
  254MOL0     C33429   2.038   6.689   3.797  0.8640 -1.1699 -0.0121
  254MOL0     C33430   2.011   6.752   3.922  0.6132  0.6865 -0.9511
  254MOL0     O33431   1.964   6.874   3.918 -1.4294  0.1609 -0.6428
  254MOL0     C33432   1.998   6.956   4.022 -0.0771 -0.2960 -0.5702
  254MOL0     C33433   1.986   7.102   3.991 -0.9666  0.1513 -0.3545
  254MOL0     C33434   1.863   7.133   3.922  0.9826 -0.0959 -0.6966
  254MOL0     C33435   1.808   7.280   3.918  0.5517 -0.0764 -0.4059
  254MOL0     C33436   1.673   7.270   3.846  0.4572 -1.2417 -0.2726
  254MOL0     C33437   1.611   7.407   3.822  0.9034 -0.0669  0.6636
  254MOL0     C33438   1.486   7.386   3.724 -1.2332 -0.7745  0.8562
  254MOL0     C33439   1.459   7.515   3.638  0.3007 -0.0068  0.4041
  254MOL0    Cl33440   1.333   7.469   3.517  0.5396 -0.0686  0.9372
  254MOL0     C33441   2.034   6.674   4.039 -0.1634 -0.7372 -0.2131
  254MOL0     C33442   2.074   6.546   4.028 -0.6494  1.0170  0.4715
  254MOL0     O33443   2.333   6.388   4.013  0.5591 -0.1062  0.9623
  254MOL0     C33444   2.434   6.134   3.977  0.5941  0.1818  0.2526
  254MOL0     C33445   2.500   6.015   3.930  0.7768  0.0026  0.0086
  254MOL0     N33446   2.774   5.520   4.132 -0.5910 -0.0553  0.4372
  254MOL0     N33447   2.888   5.460   4.138 -0.3707  0.4163  0.3087
  254MOL0     C33448   4.000   5.197   4.045 -0.2735 -0.0089 -0.2440
  254MOL0     C33449   4.128   5.245   4.079  0.2335  0.1995 -0.4205
  254MOL0     C33450   4.542   5.384   4.112 -0.6512 -0.5357 -0.2993
  254MOL0     C33451   4.636   5.335   4.210 -0.5816 -0.8095  0.5406
  254MOL0     C33452   4.772   5.359   4.191 -0.5551  0.4281  0.0592
  254MOL0     C33453   4.820   5.429   4.081 -0.4088 -0.0960 -0.4217
  254MOL0     O33454   4.960   5.440   4.074 -0.6345 -0.0638  0.2458
  254MOL0     C33455   5.017   5.482   3.946  0.4275  0.1022  0.6902
  254MOL0     C33456   5.169   5.476   3.950 -0.6742  0.8050 -0.6395
  254MOL0     C33457   5.224   5.340   3.986 -0.0876 -0.3165  0.9813
  254MOL0     C33458   5.254   5.304   4.138  0.1484 -0.0677 -0.2753
  254MOL0     C33459   5.294   5.164   4.164 -0.5123 -0.0155  0.0252
  254MOL0     C33460   5.335   5.053   4.192  0.6107  1.1162  0.6438
  254MOL0     C33461   4.728   5.479   3.992  0.0676  0.3502  0.5517
  254MOL0     C33462   4.593   5.455   4.008  0.6961  0.4574 -0.3331
  254MOL0     H33463   4.218   5.325   3.767  0.2646 -0.1128  0.6202
  254MOL0     H33464   3.998   5.259   3.716 -1.9957  3.0086  1.2180
  254MOL0     H33465   3.867   4.957   3.927  1.2251  0.3467  0.3093
  254MOL0     H33466   3.736   4.979   3.815 -0.1878 -2.8900  1.0260
  254MOL0     H33467   3.702   5.065   4.107 -0.7434 -0.6004  0.1970
  254MOL0     H33468   3.643   4.913   4.046  2.6903 -1.9360 -3.8227
  254MOL0     H33469   3.478   5.018   3.908  1.4345 -0.6849  1.1361
  254MOL0     H33470   3.543   5.184   3.946 -3.4619  1.1565 -0.6621
  254MOL0     H33471   3.442   5.011   4.160  2.5145 -0.4499 -1.1339
  254MOL0     H33472   3.477   5.175   4.153 -1.4043 -0.9000  1.2676
  254MOL0     H33473   3.208   5.077   4.091 -0.4286 -0.2763 -2.2358
  254MOL0     H33474   3.274   5.114   3.936 -0.1440  1.7091 -0.2637
  254MOL0     H33475   3.356   5.327   4.009  0.9361 -2.8652 -0.8853
  254MOL0     H33476   3.266   5.294   4.162 -3.0492  0.7018  0.5653
  254MOL0     H33477   3.123   5.259   3.906  1.2829 -0.5479 -0.8571
  254MOL0     H33478   3.059   5.262   4.073 -1.3578  0.8605 -0.9937
  254MOL0     H33479   3.157   5.500   3.911  2.5180 -1.7122 -0.3557
  254MOL0     H33480   3.184   5.498   4.085 -0.5386 -1.0333  0.1861
  254MOL0     H33481   2.940   5.665   3.890  1.1689  0.1256  0.7764
  254MOL0     H33482   2.694   5.781   3.945  1.0769  1.2171  2.9861
  254MOL0     H33483   2.605   5.714   4.072  0.3146  4.1868 -1.7981
  254MOL0     H33484   2.571   5.496   3.935 -1.5839 -0.9170 -3.2867
  254MOL0     H33485   2.636   5.568   3.799  0.4102 -0.9750  0.6190
  254MOL0     H33486   2.384   5.555   3.842  1.1361 -1.0372 -1.0848
  254MOL0     H33487   2.409   5.699   3.954  1.3039 -0.7966  1.7548
  254MOL0     H33488   2.343   5.754   3.721 -1.2970 -2.9704  0.8456
  254MOL0     H33489   2.487   5.674   3.658 -1.5987  1.8986 -0.8906
  254MOL0     H33490   2.283   5.963   3.665  2.9614  0.2203 -0.7911
  254MOL0     H33491   2.215   6.189   3.717  2.7281  1.9165 -0.9784
  254MOL0     H33492   2.139   6.527   3.692  0.5430 -0.5306  0.7081
  254MOL0     H33493   2.010   6.750   3.712  2.9019  0.9295  0.7116
  254MOL0     H33494   2.095   6.929   4.065 -1.3144  1.0383  3.5497
  254MOL0     H33495   1.931   6.924   4.103 -0.8341  0.4310 -0.9002
  254MOL0     H33496   2.071   7.135   3.929 -0.3538  0.6330  0.7181
  254MOL0     H33497   1.999   7.158   4.084 -1.4328 -1.6979  0.8589
  254MOL0     H33498   1.795   7.076   3.987  2.0679 -0.7377 -0.0801
  254MOL0     H33499   1.859   7.083   3.825  0.6217 -0.9262 -0.2679
  254MOL0     H33500   1.791   7.330   4.014 -0.3676 -1.0492 -0.0441
  254MOL0     H33501   1.877   7.341   3.857  0.1506 -0.9408 -1.7592
  254MOL0     H33502   1.608   7.212   3.912 -0.4388 -1.7671 -1.5694
  254MOL0     H33503   1.685   7.220   3.750  1.1921 -2.5347  0.4686
  254MOL0     H33504   1.684   7.468   3.766 -1.5264 -1.0195 -4.0724
  254MOL0     H33505   1.578   7.460   3.911 -2.6495 -1.7059  0.5052
  254MOL0     H33506   1.501   7.310   3.647 -2.8475  1.7993 -2.2999
  254MOL0     H33507   1.397   7.357   3.780 -3.0903 -1.3289 -2.1328
  254MOL0     H33508   1.548   7.552   3.586  1.2637  0.7383  2.4919
  254MOL0     H33509   1.423   7.600   3.696 -2.2524 -0.1453 -0.8396
  254MOL0     H33510   2.014   6.720   4.134  0.6353  2.8996 -1.6553
  254MOL0     H33511   2.072   6.470   4.105  0.8236  1.7595  1.2927
  254MOL0     H33512   2.485   6.177   4.063  2.3365  1.1115 -1.1708
  254MOL0     H33513   2.585   5.962   3.970  1.5563  1.7077  0.7082
  254MOL0     H33514   3.933   5.169   4.125 -0.4159  2.3917  0.5526
  254MOL0     H33515   4.149   5.230   4.185  0.7422  0.5290 -0.4692
  254MOL0     H33516   4.580   5.313   4.300  0.1195  1.0051  1.4594
  254MOL0     H33517   4.835   5.324   4.272 -0.6013 -1.7128 -0.7875
  254MOL0     H33518   4.994   5.588   3.935 -5.2029 -0.9453 -0.9521
  254MOL0     H33519   4.971   5.448   3.853 -0.9065  5.3762 -0.9306
  254MOL0     H33520   5.203   5.497   3.848  1.4770 -1.0198 -0.3792
  254MOL0     H33521   5.204   5.556   4.016  1.6405  0.4474 -1.3499
  254MOL0     H33522   5.313   5.329   3.923 -0.6014 -3.1810  0.6166
  254MOL0     H33523   5.154   5.262   3.957 -0.4280 -0.1614  1.3745
  254MOL0     H33524   5.337   5.367   4.171  0.9342 -0.5888 -1.1869
  254MOL0     H33525   5.162   5.331   4.190  1.4595  1.4790  1.3565
  254MOL0     H33526   5.372   4.964   4.238  1.8325  0.4221 -1.5143
  254MOL0     H33527   4.766   5.530   3.904 -0.2554 -1.4526 -0.6958
  254MOL0     H33528   4.536   5.490   3.923  2.3064  4.5590  0.0652
  255MOL0     O33529   8.692   2.494   1.221 -0.3532  0.6920  0.3618
  255MOL0     C33530   8.699   2.573   1.306  0.9960 -0.0825 -0.5365
  255MOL0     O33531   8.645   2.706   1.303 -0.0746  0.0152  0.3740
  255MOL0     C33532   8.599   2.766   1.188 -0.4924  0.1826  0.8583
  255MOL0     C33533   8.674   2.759   1.063  0.5748  0.5611  0.1070
  255MOL0     C33534   8.633   2.834   0.951  0.4617 -1.2631 -0.2243
  255MOL0     C33535   8.524   2.931   0.954 -0.4919  0.8796  1.0045
  255MOL0     O33536   8.495   3.027   0.848 -0.2260  0.0715 -0.4879
  255MOL0     C33537   8.367   3.090   0.843  0.4461 -0.4169 -0.2811
  255MOL0     C33538   8.249   2.998   0.837  0.1598  0.4155  0.0701
  255MOL0     C33539   8.208   2.974   0.692  0.6557  0.0359 -0.6176
  255MOL0     C33540   8.068   3.029   0.654 -1.1526  0.5495  0.1641
  255MOL0     C33541   8.042   3.005   0.499 -0.1076  0.1580 -0.4372
  255MOL0     C33542   7.918   3.092   0.474 -0.9680  0.5951 -0.3209
  255MOL0     C33543   7.857   3.058   0.339  0.0654 -0.3061  0.5236
  255MOL0     C33544   7.722   3.146   0.317  1.4096  0.3975  0.1937
  255MOL0     N33545   7.752   3.288   0.321 -0.6441 -0.6434  0.6110
  255MOL0     C33546   7.697   3.373   0.409  0.0656  0.4633  0.0900
  255MOL0     C33547   7.749   3.492   0.400 -0.4273  1.1532  0.0375
  255MOL0     C33548   7.715   3.616   0.482  0.4030  0.4075 -0.1933
  255MOL0     C33549   7.637   3.723   0.410 -0.0039  0.5559  0.1764
  255MOL0     C33550   7.669   3.866   0.465  0.9302 -0.1383  0.0199
  255MOL0     C33551   7.566   3.967   0.412  0.4795 -0.1897 -0.3085
  255MOL0     O33552   7.586   4.086   0.496 -0.1085  0.2811  0.2512
  255MOL0     C33553   7.500   4.191   0.483  0.0643 -0.4916  0.7492
  255MOL0     C33554   7.401   4.204   0.386  0.1217  0.2723  0.3836
  255MOL0     C33555   7.332   4.320   0.377 -0.0361  0.3064  0.2659
  255MOL0     C33556   7.350   4.422   0.475 -0.0164 -1.0442  0.2004
  255MOL0     C33557   7.269   4.550   0.466  0.2078  0.0618 -0.8157
  255MOL0     O33558   7.281   4.648   0.565 -0.3261 -0.4191 -0.7839
  255MOL0     C33559   7.178   4.735   0.593  1.0398  0.5731 -0.2525
  255MOL0     C33560   7.137   4.761   0.728 -0.2579 -0.0406 -0.2018
  255MOL0     C33561   7.039   4.852   0.762  0.3229  1.1934  0.3025
  255MOL0     C33562   6.971   4.921   0.666 -1.5771 -0.5014  0.3954
  255MOL0     O33563   6.871   5.011   0.702  0.0833 -0.0598  0.0456
  255MOL0     C33564   6.756   4.932   0.725  0.9373 -0.5865  0.6820
  255MOL0     C33565   6.631   5.016   0.746 -0.6840 -0.7464  0.1617
  255MOL0     C33566   6.629   5.105   0.873 -0.0437  0.4853 -0.1427
  255MOL0     C33567   6.512   5.202   0.884  0.3280 -0.5335  0.3886
  255MOL0     C33568   6.500   5.268   1.017  0.0142  0.7656 -0.7360
  255MOL0     C33569   6.382   5.366   1.031  0.0392 -0.0791  0.0052
  255MOL0     C33570   6.396   5.498   0.940  1.0366 -0.0398 -0.0034
  255MOL0     C33571   6.260   5.544   0.883  0.3870 -0.0645 -0.1763
  255MOL0    Cl33572   6.288   5.684   0.779  0.2805 -0.0671  0.6689
  255MOL0     C33573   7.005   4.896   0.531  0.4897  0.7037  0.8796
  255MOL0     C33574   7.106   4.809   0.497  1.0253  0.1706  0.7167
  255MOL0     O33575   7.183   4.546   0.385 -0.4741 -0.1525  0.1748
  255MOL0     C33576   7.451   4.408   0.569  0.9473  0.8645 -0.7951
  255MOL0     C33577   7.531   4.297   0.572  0.3636 -0.3803  0.7851
  255MOL0     N33578   7.832   3.491   0.290  0.3871  0.2693  0.4575
  255MOL0     N33579   7.842   3.365   0.246 -0.9183 -0.5472 -0.7095
  255MOL0     C33580   8.448   2.928   1.072  1.0917  0.5749 -0.1210
  255MOL0     C33581   8.487   2.854   1.186 -0.5597 -1.1209  0.2478
  255MOL0     C33582   8.763   2.535   1.438  0.6116  0.0501  0.0406
  255MOL0     C33583   8.847   2.416   1.444  0.2103  0.4292  0.5551
  255MOL0     C33584   8.922   2.383   1.560 -0.1247 -0.6523  0.5630
  255MOL0     C33585   8.900   2.456   1.677  0.6225 -0.8983 -0.6116
  255MOL0     O33586   8.965   2.413   1.793 -0.4468 -0.4926  0.0206
  255MOL0     C33587   8.899   2.449   1.916 -0.6438  0.0516  1.3188
  255MOL0     C33588   8.781   2.355   1.943  0.4811  0.6703 -0.6525
  255MOL0     C33589   8.741   2.367   2.093  0.0096 -0.3981  0.1323
  255MOL0     C33590   8.616   2.292   2.127  0.0005  0.0893  0.1812
  255MOL0     C33591   8.619   2.156   2.074 -0.2884 -0.1191 -1.5210
  255MOL0     C33592   8.613   2.036   2.044  0.0106 -1.5771  0.5712
  255MOL0     C33593   8.816   2.574   1.673  0.5914  0.6981  0.3387
  255MOL0     C33594   8.754   2.610   1.553  0.4914 -0.2694 -0.8961
  255MOL0     H33595   8.763   2.697   1.054  1.9596  2.6051 -1.0078
  255MOL0     H33596   8.700   2.837   0.866  2.3810  3.1804  1.1550
  255MOL0     H33597   8.378   3.162   0.762  0.7872  0.7964  0.7964
  255MOL0     H33598   8.359   3.157   0.930  0.3670 -1.6392  0.6876
  255MOL0     H33599   8.166   3.042   0.893  1.4223  0.9954  1.5519
  255MOL0     H33600   8.278   2.905   0.886  1.3189 -0.1513 -1.6057
  255MOL0     H33601   8.205   2.865   0.682  1.1014 -0.0852  0.4131
  255MOL0     H33602   8.284   3.020   0.628  1.9934  0.4867  1.1859
  255MOL0     H33603   7.999   2.970   0.714  0.1621  0.0439  1.2358
  255MOL0     H33604   8.074   3.137   0.674 -0.0059  1.1923 -3.0672
  255MOL0     H33605   8.010   2.902   0.479 -0.1581 -0.1774  1.2765
  255MOL0     H33606   8.134   3.030   0.444  1.5536 -4.0743  0.0243
  255MOL0     H33607   7.954   3.194   0.456  1.0240 -0.1375 -0.7156
  255MOL0     H33608   7.853   3.096   0.561 -0.7830  1.2876 -0.2122
  255MOL0     H33609   7.931   3.076   0.261 -0.3309 -1.0693 -0.0515
  255MOL0     H33610   7.825   2.954   0.321 -0.2575  0.0240 -0.9994
  255MOL0     H33611   7.651   3.134   0.400  2.3177 -3.7182  0.6042
  255MOL0     H33612   7.680   3.138   0.217  3.8756 -2.8131 -0.7540
  255MOL0     H33613   7.612   3.352   0.473 -1.7358  0.2659 -2.2280
  255MOL0     H33614   7.805   3.646   0.536  0.5657 -1.8051  0.8549
  255MOL0     H33615   7.647   3.598   0.566  0.6488 -0.3529 -0.1524
  255MOL0     H33616   7.529   3.715   0.420 -0.0405  1.3624  0.5309
  255MOL0     H33617   7.661   3.720   0.303 -0.4161 -0.8179  0.1048
  255MOL0     H33618   7.668   3.860   0.574  3.3376 -1.8569  0.0025
  255MOL0     H33619   7.767   3.902   0.434  1.1149  1.5281  2.2730
  255MOL0     H33620   7.459   3.945   0.421 -0.0128  2.0017 -0.0010
  255MOL0     H33621   7.592   3.991   0.309  1.1192  0.5285  0.0102
  255MOL0     H33622   7.383   4.128   0.310  0.9551  0.3109  0.1385
  255MOL0     H33623   7.254   4.320   0.302 -1.1731  1.2843  1.3938
  255MOL0     H33624   7.174   4.697   0.808 -2.4936  0.0703  1.0020
  255MOL0     H33625   7.013   4.867   0.867  1.8870  3.2790  0.4407
  255MOL0     H33626   6.772   4.854   0.800 -1.8960 -1.4802  0.4647
  255MOL0     H33627   6.742   4.877   0.632 -0.7193 -2.9522  2.2358
  255MOL0     H33628   6.532   4.969   0.739  0.3146 -2.6813 -3.7008
  255MOL0     H33629   6.637   5.074   0.654 -0.4140 -0.2866  0.4651
  255MOL0     H33630   6.718   5.169   0.878  0.9282 -0.9056  1.3019
  255MOL0     H33631   6.628   5.035   0.957  1.7262  0.7835  0.1598
  255MOL0     H33632   6.511   5.279   0.806  1.0214  0.7415  1.5964
  255MOL0     H33633   6.420   5.143   0.874 -1.4670  1.5677  3.0101
  255MOL0     H33634   6.589   5.332   1.026 -0.6879  1.6007  0.4506
  255MOL0     H33635   6.508   5.198   1.101  3.6910  0.9445 -0.7629
  255MOL0     H33636   6.360   5.396   1.134 -1.4774  1.7767 -0.7979
  255MOL0     H33637   6.294   5.309   1.000  0.9103 -0.6908 -1.4556
  255MOL0     H33638   6.431   5.574   1.011  0.6243  2.3328 -2.1502
  255MOL0     H33639   6.465   5.481   0.856 -0.6927 -1.5534 -1.1832
  255MOL0     H33640   6.194   5.560   0.969  0.3292 -1.7366  0.1265
  255MOL0     H33641   6.207   5.467   0.826 -0.3961 -0.0457  0.5106
  255MOL0     H33642   6.942   4.942   0.455 -1.8787  0.7341  2.7458
  255MOL0     H33643   7.123   4.796   0.390 -0.5991  1.6785  0.2377
  255MOL0     H33644   7.470   4.494   0.632  1.5895 -0.1293  0.4213
  255MOL0     H33645   7.614   4.286   0.642  2.1693  5.4631  0.1373
  255MOL0     H33646   8.372   3.004   1.083 -0.2581 -0.9711  2.0797
  255MOL0     H33647   8.422   2.855   1.272 -2.2062 -2.0763 -0.9290
  255MOL0     H33648   8.873   2.358   1.357  1.8159 -0.9418  1.8710
  255MOL0     H33649   8.999   2.307   1.556  2.1945  1.5995  0.2292
  255MOL0     H33650   8.876   2.554   1.934 -0.9258  0.1975  0.1988
  255MOL0     H33651   8.977   2.418   1.986 -0.0726 -0.8021  0.3343
  255MOL0     H33652   8.693   2.377   1.882  1.4816  0.8168 -2.0794
  255MOL0     H33653   8.812   2.250   1.929 -2.3642 -0.3570  0.1216
  255MOL0     H33654   8.718   2.472   2.112  2.4264 -0.3583  4.2328
  255MOL0     H33655   8.814   2.335   2.168 -0.1645  2.1413  1.4865
  255MOL0     H33656   8.598   2.296   2.235 -0.3930 -3.8038  0.3979
  255MOL0     H33657   8.531   2.345   2.083 -0.3110  0.7100  1.4679
  255MOL0     H33658   8.597   1.932   2.026 -4.6227 -1.3848  2.0965
  255MOL0     H33659   8.803   2.629   1.766  1.7109 -2.4706  2.5623
  255MOL0     H33660   8.698   2.703   1.540  0.3277 -0.3561 -0.8150
  256MOL0     O33661   1.009   2.375   3.756 -0.2025  0.2207  0.0534
  256MOL0     C33662   1.039   2.417   3.647  0.4188  0.6169  0.2101
  256MOL0     O33663   0.954   2.452   3.543 -0.3019  0.5297  0.5935
  256MOL0     C33664   0.818   2.449   3.567 -0.1049 -0.5211  0.6135
  256MOL0     C33665   0.762   2.509   3.678 -0.2408 -0.8806 -0.4619
  256MOL0     C33666   0.619   2.525   3.694  0.1107  0.8518 -0.9830
  256MOL0     C33667   0.528   2.485   3.598 -0.2633  0.6531  0.4778
  256MOL0     O33668   0.392   2.480   3.604  0.9669  0.5663 -1.1819
  256MOL0     C33669   0.336   2.408   3.717  0.5957  0.8724  0.2538
  256MOL0     C33670   0.246   2.518   3.784  0.2870 -0.1805 -0.5135
  256MOL0     C33671   0.126   2.464   3.862 -0.4472  0.2666 -0.9343
  256MOL0     C33672   0.018   2.405   3.774 -0.0967  0.1195  0.4429
  256MOL0     C33673  -0.102   2.347   3.861 -0.1748  0.1697 -0.6534
  256MOL0     C33674  -0.195   2.264   3.776 -0.5076 -0.1818  0.4651
  256MOL0     C33675  -0.305   2.206   3.872  0.3518 -0.0052  0.1613
  256MOL0     C33676  -0.414   2.150   3.781 -0.2032  1.0350  0.1244
  256MOL0     N33677  -0.539   2.126   3.864  0.2440  0.2740 -0.5868
  256MOL0     C33678  -0.614   2.226   3.924 -0.7260  0.3446 -0.0951
  256MOL0     C33679  -0.674   2.162   4.021  0.0795 -0.6297 -0.5979
  256MOL0     C33680  -0.775   2.220   4.115 -0.0757 -0.8731  0.0669
  256MOL0     C33681  -0.923   2.210   4.071  0.4626 -0.9678  0.1830
  256MOL0     C33682  -0.955   2.066   4.000  1.0599  0.0034 -0.1557
  256MOL0     C33683  -1.107   2.071   3.964 -0.5674 -0.3793  0.2989
  256MOL0     O33684  -1.186   2.047   4.084 -0.7986  0.7569  0.6604
  256MOL0     C33685  -1.319   2.083   4.074  0.9954 -0.0735 -0.6805
  256MOL0     C33686  -1.388   2.133   3.960 -0.1602 -0.4585 -0.2358
  256MOL0     C33687  -1.530   2.159   3.971 -0.1608 -0.5080 -0.6430
  256MOL0     C33688  -1.591   2.137   4.093 -0.8987  0.9152  0.6724
  256MOL0     C33689  -1.729   2.178   4.111  0.8903  0.7532 -0.6442
  256MOL0     O33690  -1.794   2.211   3.998 -0.2402  0.4795 -0.0665
  256MOL0     C33691  -1.905   2.292   4.003 -1.2398  0.7463 -0.4001
  256MOL0     C33692  -2.030   2.228   3.995 -0.4435  0.4564  0.3702
  256MOL0     C33693  -2.150   2.293   3.997 -0.3538  0.6922  0.0260
  256MOL0     C33694  -2.144   2.435   3.998  0.7271 -0.3950 -0.5558
  256MOL0     O33695  -2.255   2.519   3.996 -1.1572 -0.0467  0.0504
  256MOL0     C33696  -2.385   2.471   3.937  0.1348 -1.1900 -0.1604
  256MOL0     C33697  -2.456   2.595   3.874 -0.0287  0.1499  0.1987
  256MOL0     C33698  -2.355   2.668   3.785 -0.5368  0.0953 -0.5380
  256MOL0     C33699  -2.279   2.588   3.670  0.1797 -0.3512  0.7668
  256MOL0     C33700  -2.192   2.674   3.574  0.1905 -0.1872 -0.4603
  256MOL0     C33701  -2.269   2.772   3.487  0.0428  0.7790  0.8388
  256MOL0     C33702  -2.184   2.831   3.380 -0.6231 -0.0006  0.9373
  256MOL0     C33703  -2.258   2.873   3.251 -0.2955  0.8361  0.7168
  256MOL0    Cl33704  -2.389   2.977   3.289 -0.1290  0.2249  0.3263
  256MOL0     C33705  -2.014   2.500   4.004 -0.1747  0.1984  0.2140
  256MOL0     C33706  -1.896   2.431   4.002 -0.1061  0.6508 -0.3203
  256MOL0     O33707  -1.771   2.207   4.229  0.1743  0.0689  0.1706
  256MOL0     C33708  -1.518   2.104   4.200 -0.5850 -0.1523  0.2159
  256MOL0     C33709  -1.383   2.080   4.195 -0.1916 -0.5755 -0.0567
  256MOL0     N33710  -0.653   2.033   4.015 -0.0044  0.3913 -0.3197
  256MOL0     N33711  -0.566   2.007   3.922  0.1768 -0.3915 -0.0909
  256MOL0     C33712   0.584   2.428   3.478  0.8343 -0.5439 -0.1922
  256MOL0     C33713   0.723   2.419   3.464 -0.7657 -0.0156 -0.0894
  256MOL0     C33714   1.187   2.419   3.614 -0.3411  0.4575 -0.1761
  256MOL0     C33715   1.237   2.421   3.485  0.3588 -0.6330  0.3845
  256MOL0     C33716   1.369   2.434   3.457  0.1256 -0.1654 -1.0387
  256MOL0     C33717   1.459   2.423   3.564 -0.1367  0.4909 -0.1908
  256MOL0     O33718   1.597   2.433   3.552  0.1198  0.6514  0.8054
  256MOL0     C33719   1.638   2.559   3.498 -0.1681  0.4849 -0.3224
  256MOL0     C33720   1.627   2.660   3.613  0.1250 -0.2232 -0.1970
  256MOL0     C33721   1.640   2.801   3.548 -0.0180  0.2350 -0.4097
  256MOL0     C33722   1.759   2.877   3.606 -0.5099  0.5774 -0.9115
  256MOL0     C33723   1.880   2.821   3.560 -1.6556  0.4617  0.1015
  256MOL0     C33724   1.983   2.780   3.518 -0.2565  0.2737  0.8496
  256MOL0     C33725   1.422   2.417   3.699  1.3185  1.1690 -0.2351
  256MOL0     C33726   1.280   2.408   3.724  0.2410  0.0710 -0.4092
  256MOL0     H33727   0.830   2.548   3.753 -1.0341  0.6948 -0.5137
  256MOL0     H33728   0.574   2.571   3.782  1.2875 -2.6561  1.6594
  256MOL0     H33729   0.409   2.360   3.783 -0.9860  0.6761  1.9458
  256MOL0     H33730   0.269   2.329   3.680  1.2847  0.1358  0.5428
  256MOL0     H33731   0.203   2.593   3.718 -1.9750  0.0163  1.0844
  256MOL0     H33732   0.305   2.580   3.853  1.7069 -0.4407 -1.4339
  256MOL0     H33733   0.081   2.534   3.933  0.2197 -0.3698  0.1331
  256MOL0     H33734   0.173   2.387   3.923  0.5527  2.1562  0.7777
  256MOL0     H33735  -0.019   2.474   3.697 -0.6745 -1.8817 -1.1821
  256MOL0     H33736   0.058   2.331   3.704 -2.0459  0.8688 -1.5900
  256MOL0     H33737  -0.146   2.438   3.903  0.3182  1.2384 -2.3796
  256MOL0     H33738  -0.074   2.291   3.951  1.1809  3.1071  0.9219
  256MOL0     H33739  -0.144   2.185   3.720 -2.3106 -0.6640 -0.5648
  256MOL0     H33740  -0.244   2.329   3.702 -0.6345 -2.3672 -1.4719
  256MOL0     H33741  -0.260   2.131   3.937  1.5378 -0.4158 -1.0945
  256MOL0     H33742  -0.338   2.296   3.924 -2.0669  0.1095 -1.4288
  256MOL0     H33743  -0.382   2.055   3.737 -4.7123 -0.3695 -0.6660
  256MOL0     H33744  -0.434   2.223   3.702 -1.3856  2.8502  1.9899
  256MOL0     H33745  -0.628   2.328   3.890 -0.9035 -0.1880 -1.7131
  256MOL0     H33746  -0.758   2.326   4.135  1.1269 -1.1547  0.6563
  256MOL0     H33747  -0.771   2.176   4.216 -0.0027  4.2586  2.6492
  256MOL0     H33748  -0.947   2.283   3.993 -1.1615 -0.3576  1.2302
  256MOL0     H33749  -0.990   2.226   4.155 -0.6033  0.8894 -0.9427
  256MOL0     H33750  -0.905   2.070   3.903 -0.3190 -2.1417 -1.0229
  256MOL0     H33751  -0.937   1.971   4.051  0.8417 -0.7240 -1.4168
  256MOL0     H33752  -1.140   2.005   3.884  1.7706 -0.5599 -0.5940
  256MOL0     H33753  -1.111   2.171   3.920  0.9712 -1.1979 -1.8751
  256MOL0     H33754  -1.334   2.144   3.866  1.2992 -3.6161  0.0985
  256MOL0     H33755  -1.574   2.190   3.877 -0.2985 -1.8896 -1.0567
  256MOL0     H33756  -2.021   2.120   3.986  1.4601  0.5390  1.0149
  256MOL0     H33757  -2.245   2.240   3.997  0.2710 -0.5933  2.3002
  256MOL0     H33758  -2.449   2.420   4.009 -1.3192  1.4443  0.5549
  256MOL0     H33759  -2.372   2.407   3.849  1.4439 -0.9359 -0.1765
  256MOL0     H33760  -2.497   2.667   3.945 -1.1316  0.4860 -0.7700
  256MOL0     H33761  -2.537   2.558   3.811  0.0529 -0.8065  0.6316
  256MOL0     H33762  -2.274   2.718   3.838  1.1797 -5.6739  3.2495
  256MOL0     H33763  -2.417   2.743   3.736 -1.7867 -1.0243 -0.7306
  256MOL0     H33764  -2.217   2.516   3.725 -2.2468 -0.4087  3.6982
  256MOL0     H33765  -2.358   2.536   3.616 -1.6264  1.3822  1.6225
  256MOL0     H33766  -2.146   2.605   3.503 -0.3603 -1.2211  0.1691
  256MOL0     H33767  -2.112   2.732   3.623 -1.4668  3.4528 -1.6616
  256MOL0     H33768  -2.321   2.847   3.546  1.6873 -0.2793  3.8645
  256MOL0     H33769  -2.342   2.712   3.432 -0.2239  2.2061 -0.4158
  256MOL0     H33770  -2.128   2.914   3.425  3.3985 -2.7848  1.6784
  256MOL0     H33771  -2.098   2.772   3.346  0.2369  1.6414  0.0901
  256MOL0     H33772  -2.303   2.786   3.202  1.9783 -0.7168  1.2591
  256MOL0     H33773  -2.195   2.921   3.175 -0.5396  1.6020  0.9875
  256MOL0     H33774  -2.023   2.608   4.002 -3.3327  0.0522  0.8189
  256MOL0     H33775  -1.796   2.472   4.001  1.0054 -1.8413 -1.6953
  256MOL0     H33776  -1.561   2.088   4.298 -1.4272 -1.5375 -0.3539
  256MOL0     H33777  -1.332   2.070   4.290 -1.2064  1.2322  0.7452
  256MOL0     H33778   0.521   2.391   3.397 -1.1705 -2.9932  2.2717
  256MOL0     H33779   0.765   2.397   3.366  2.1300  2.6720  0.3994
  256MOL0     H33780   1.166   2.414   3.404 -0.8175 -0.4897  1.3671
  256MOL0     H33781   1.426   2.429   3.365  0.1561  0.3883 -1.0551
  256MOL0     H33782   1.587   2.589   3.406  0.5042  2.2692 -0.1561
  256MOL0     H33783   1.743   2.558   3.467 -0.8279 -4.0363 -3.2495
  256MOL0     H33784   1.529   2.643   3.659  0.4866 -0.4133  0.5084
  256MOL0     H33785   1.696   2.645   3.696 -1.6502  0.1179  1.4215
  256MOL0     H33786   1.555   2.867   3.566  0.4170  0.8251 -0.5091
  256MOL0     H33787   1.638   2.786   3.440 -2.7120 -2.2314 -0.1452
  256MOL0     H33788   1.764   2.981   3.574  3.2330  1.5515  2.1580
  256MOL0     H33789   1.745   2.864   3.714  2.5950 -4.7438 -0.7600
  256MOL0     H33790   2.073   2.737   3.479 -0.7702  0.7997 -1.0679
  256MOL0     H33791   1.487   2.425   3.786 -0.9154  3.8237  1.3585
  256MOL0     H33792   1.245   2.419   3.826 -1.0088  1.2964 -0.9398
  257MOL0     O33793   7.374   0.585   8.617 -0.0005  0.6699  0.3041
  257MOL0     C33794   7.256   0.561   8.603 -0.1890 -0.0723  0.6259
  257MOL0     O33795   7.157   0.643   8.654  0.1579 -0.0962 -0.6187
  257MOL0     C33796   7.189   0.749   8.734 -0.8600 -0.0856  0.9132
  257MOL0     C33797   7.128   0.866   8.722  0.4162 -0.5026 -0.5673
  257MOL0     C33798   7.155   0.983   8.787 -0.1243 -0.4193  0.3008
  257MOL0     C33799   7.256   0.984   8.880 -0.2882  0.2117 -0.5086
  257MOL0     O33800   7.285   1.094   8.960  1.8872  0.3570 -0.4725
  257MOL0     C33801   7.234   1.231   8.933  0.8344 -0.5786 -0.3972
  257MOL0     C33802   7.267   1.306   8.798  0.5613  0.7924 -0.0835
  257MOL0     C33803   7.417   1.349   8.785  1.2398  0.1814 -0.6915
  257MOL0     C33804   7.443   1.448   8.896 -0.1422 -0.8576  1.2449
  257MOL0     C33805   7.551   1.551   8.864 -1.0123 -0.4154  0.1128
  257MOL0     C33806   7.599   1.629   8.984 -0.9207 -0.8138  0.6937
  257MOL0     C33807   7.715   1.732   8.956 -0.0099  0.6486 -0.1580
  257MOL0     C33808   7.764   1.818   9.067 -1.0293  0.1020 -0.6249
  257MOL0     N33809   7.665   1.921   9.098  0.6900  0.0071 -0.5406
  257MOL0     C33810   7.553   1.918   9.180 -0.3569 -0.5621 -0.6480
  257MOL0     C33811   7.513   2.047   9.188  0.1752 -1.3307  0.5964
  257MOL0     C33812   7.394   2.101   9.275 -0.5281  0.1483  0.3058
  257MOL0     C33813   7.270   2.010   9.284  0.1375  0.3679  1.0810
  257MOL0     C33814   7.288   1.905   9.392 -0.2899 -0.5595 -0.0481
  257MOL0     C33815   7.150   1.866   9.440  0.5784 -0.4931  0.3256
  257MOL0     O33816   7.165   1.769   9.543  0.6449 -0.0750 -0.0541
  257MOL0     C33817   7.059   1.702   9.597 -0.0692 -0.6529 -0.5698
  257MOL0     C33818   7.085   1.608   9.691 -0.9694  0.8827 -0.2816
  257MOL0     C33819   6.991   1.527   9.746  0.2448 -0.5037 -0.7130
  257MOL0     C33820   6.858   1.564   9.728  0.2245 -0.1633 -0.9784
  257MOL0     C33821   6.756   1.489   9.805  0.4087 -0.3903 -0.5343
  257MOL0     O33822   6.626   1.499   9.759 -0.4499  0.3616 -0.2665
  257MOL0     C33823   6.521   1.456   9.827  0.2281  0.1117  0.5648
  257MOL0     C33824   6.422   1.396   9.750 -0.6340  1.1878  0.5134
  257MOL0     C33825   6.323   1.319   9.815 -0.3560 -0.0174  0.0475
  257MOL0     C33826   6.291   1.337   9.950 -0.3314 -0.3825 -0.7989
  257MOL0     O33827   6.184   1.271  10.009  0.5482  0.6232 -0.2739
  257MOL0     C33828   6.154   1.292  10.149  0.1278  0.8290 -0.9873
  257MOL0     C33829   6.029   1.217  10.196  0.2832  0.0387 -0.3595
  257MOL0     C33830   5.889   1.286  10.149 -0.6912 -0.0400 -0.2926
  257MOL0     C33831   5.768   1.202  10.185 -0.2645 -0.0765  0.5103
  257MOL0     C33832   5.644   1.295  10.199  0.0566  1.2005  1.1168
  257MOL0     C33833   5.515   1.224  10.192 -0.6158  0.3812 -0.5344
  257MOL0     C33834   5.401   1.325  10.184  0.1017  0.4560  0.8849
  257MOL0     C33835   5.255   1.265  10.170 -0.3161  0.7470 -0.1522
  257MOL0    Cl33836   5.244   1.134  10.047 -0.0598 -0.2556 -0.1405
  257MOL0     C33837   6.395   1.404  10.032  0.2758  0.0554 -0.8802
  257MOL0     C33838   6.506   1.459   9.968  0.0469 -0.5789  0.6377
  257MOL0     O33839   6.790   1.426   9.910  0.3360 -0.2229  0.1271
  257MOL0     C33840   6.821   1.667   9.644 -0.6536  0.3022  0.9182
  257MOL0     C33841   6.922   1.741   9.587  0.8802  0.8417  0.1450
  257MOL0     N33842   7.582   2.121   9.090  0.5421 -0.3365 -0.4948
  257MOL0     N33843   7.681   2.043   9.052  0.1206 -0.6004  0.2598
  257MOL0     C33844   7.333   0.864   8.906  0.3504 -0.1138  1.2406
  257MOL0     C33845   7.299   0.752   8.825  1.1338 -1.1878 -0.7458
  257MOL0     C33846   7.215   0.447   8.522 -0.0589 -1.2761  0.3776
  257MOL0     C33847   7.081   0.390   8.526  0.2258 -1.1333 -0.0984
  257MOL0     C33848   7.057   0.264   8.461  0.1420 -0.3440 -0.5708
  257MOL0     C33849   7.146   0.205   8.383  0.0214 -0.3453  0.6461
  257MOL0     O33850   7.109   0.095   8.309 -0.0759  0.3206  0.3571
  257MOL0     C33851   7.185   0.045   8.201  0.1308 -0.0936  0.2519
  257MOL0     C33852   7.142  -0.087   8.165 -0.8869  0.4192 -1.0500
  257MOL0     C33853   7.137  -0.176   8.293  0.0572 -0.5686  0.9087
  257MOL0     C33854   7.089  -0.322   8.262 -1.0874  0.7768 -0.0636
  257MOL0     C33855   7.119  -0.413   8.373 -0.0558 -0.8297 -0.5441
  257MOL0     C33856   7.139  -0.492   8.470 -1.2844  0.3847 -0.7339
  257MOL0     C33857   7.277   0.257   8.381  1.0027 -1.2125  0.5145
  257MOL0     C33858   7.307   0.385   8.444 -0.6637 -0.9510  0.4953
  257MOL0     H33859   7.044   0.874   8.655  1.5760  0.7135 -1.9502
  257MOL0     H33860   7.101   1.077   8.781  1.4669  0.7136  2.5326
  257MOL0     H33861   7.265   1.300   9.012 -1.2073 -0.6573  0.5444
  257MOL0     H33862   7.127   1.213   8.942  0.1715  1.9915 -2.1278
  257MOL0     H33863   7.198   1.391   8.794 -1.7169 -0.9716 -0.3653
  257MOL0     H33864   7.238   1.239   8.717 -1.3928 -0.5634  1.5982
  257MOL0     H33865   7.425   1.402   8.690  2.3949  1.5776  0.1340
  257MOL0     H33866   7.486   1.265   8.780 -0.3224 -1.2178  0.3295
  257MOL0     H33867   7.354   1.509   8.911 -0.0936  0.3064 -2.2225
  257MOL0     H33868   7.470   1.392   8.986  1.6970 -1.1736  0.5457
  257MOL0     H33869   7.527   1.635   8.799 -0.9479  0.5684  1.3292
  257MOL0     H33870   7.635   1.487   8.836  0.9275  0.2143  3.8685
  257MOL0     H33871   7.634   1.561   9.062  0.3475  0.2622  1.1043
  257MOL0     H33872   7.514   1.688   9.020  0.9296  2.4301  0.2045
  257MOL0     H33873   7.794   1.661   8.928 -1.2901 -2.2798  3.0335
  257MOL0     H33874   7.684   1.791   8.869 -2.2879 -0.0847  0.0995
  257MOL0     H33875   7.859   1.865   9.041  0.0540 -2.0818 -0.8481
  257MOL0     H33876   7.774   1.760   9.160 -3.8757 -0.9428 -0.8685
  257MOL0     H33877   7.511   1.842   9.245 -3.9170  2.5232  1.0150
  257MOL0     H33878   7.365   2.196   9.229  1.4253  0.4088 -0.4866
  257MOL0     H33879   7.431   2.112   9.377  0.9606  1.2920 -0.3092
  257MOL0     H33880   7.255   1.955   9.190 -1.8076  2.1449  0.2589
  257MOL0     H33881   7.180   2.072   9.292  1.3086  2.6957 -1.5854
  257MOL0     H33882   7.330   1.811   9.356 -2.2959 -1.3492 -0.4471
  257MOL0     H33883   7.345   1.955   9.471 -1.8540  1.7221 -0.2800
  257MOL0     H33884   7.077   1.838   9.364 -1.8868  0.9876  1.9803
  257MOL0     H33885   7.110   1.955   9.489 -0.8346 -1.3404  0.7577
  257MOL0     H33886   7.184   1.590   9.732 -2.5361  1.1534  4.0746
  257MOL0     H33887   7.022   1.472   9.833  1.3670  1.1604 -0.0161
  257MOL0     H33888   6.432   1.383   9.643 -1.4885 -1.9514  0.7318
  257MOL0     H33889   6.267   1.247   9.756  1.8905 -3.0380  1.3391
  257MOL0     H33890   6.141   1.397  10.175  3.2656  0.8427  1.0452
  257MOL0     H33891   6.242   1.263  10.208 -0.4029  0.1228 -0.5154
  257MOL0     H33892   6.036   1.198  10.303 -1.5414 -0.6461 -0.3274
  257MOL0     H33893   6.042   1.118  10.150 -1.4785 -1.2328  1.6710
  257MOL0     H33894   5.881   1.313  10.043  1.9550 -0.3320 -0.6451
  257MOL0     H33895   5.886   1.383  10.199 -1.5911  0.4177 -1.1774
  257MOL0     H33896   5.760   1.122  10.110  1.3163  0.7252 -0.5779
  257MOL0     H33897   5.783   1.163  10.286 -4.6462  1.2240  1.9031
  257MOL0     H33898   5.646   1.363  10.114  0.6186  1.3394  1.2347
  257MOL0     H33899   5.644   1.359  10.288 -4.2357  1.5990  1.0382
  257MOL0     H33900   5.506   1.158  10.279  1.4914  1.0181  0.2133
  257MOL0     H33901   5.502   1.154  10.108 -2.8837  0.8881 -0.6751
  257MOL0     H33902   5.403   1.391  10.271  1.4743  0.7422  0.6656
  257MOL0     H33903   5.415   1.386  10.094  1.9761  0.5698  1.2127
  257MOL0     H33904   5.191   1.346  10.134  0.8238  1.5572 -0.4122
  257MOL0     H33905   5.229   1.232  10.271  0.5555  2.1621  0.5591
  257MOL0     H33906   6.398   1.402  10.140 -2.2489  4.0389 -0.5427
  257MOL0     H33907   6.589   1.509  10.017 -0.5818  1.7223 -0.4921
  257MOL0     H33908   6.717   1.696   9.645 -0.9931 -0.7914  2.8496
  257MOL0     H33909   6.897   1.824   9.521 -0.7602 -0.1252 -0.5127
  257MOL0     H33910   7.416   0.868   8.975  0.9196 -0.8026  0.6243
  257MOL0     H33911   7.354   0.661   8.846 -1.3137 -2.1175  2.3834
  257MOL0     H33912   7.001   0.437   8.583  1.4015  0.1235  0.5720
  257MOL0     H33913   6.955   0.226   8.463 -0.8225  2.1113 -0.0529
  257MOL0     H33914   7.288   0.030   8.234  0.3665 -1.1529 -0.8940
  257MOL0     H33915   7.189   0.108   8.111  2.5918 -0.1771  0.2288
  257MOL0     H33916   7.045  -0.081   8.116 -0.2181  0.9895 -2.3579
  257MOL0     H33917   7.222  -0.114   8.095  2.9410  3.1799  1.7513
  257MOL0     H33918   7.078  -0.130   8.373  1.6589  1.9863  0.7257
  257MOL0     H33919   7.241  -0.188   8.325  0.2304 -1.0897  0.1817
  257MOL0     H33920   6.980  -0.329   8.253 -0.9602 -2.1903 -0.1183
  257MOL0     H33921   7.137  -0.364   8.173 -0.6753  0.0293  0.4997
  257MOL0     H33922   7.173  -0.564   8.542  2.8638  2.5051 -0.2592
  257MOL0     H33923   7.352   0.216   8.313  0.7693  0.1774 -0.6487
  257MOL0     H33924   7.400   0.439   8.427 -2.3528  2.2252  0.5628
  258MOL0     O33925   5.923   2.394  10.544 -0.1751  0.1138  0.4163
  258MOL0     C33926   5.989   2.497  10.511 -0.6539  0.6703 -0.9949
  258MOL0     O33927   5.937   2.597  10.441 -0.0769  0.2063 -0.5871
  258MOL0     C33928   5.816   2.580  10.382  0.6655 -0.3201  0.8848
  258MOL0     C33929   5.801   2.581  10.244  0.1320  0.3174 -1.0760
  258MOL0     C33930   5.673   2.571  10.183 -0.0720 -0.1912 -0.1901
  258MOL0     C33931   5.555   2.570  10.260 -0.4713  0.9023  0.2378
  258MOL0     O33932   5.428   2.577  10.214  0.3143 -0.7104  0.1320
  258MOL0     C33933   5.399   2.535  10.080 -0.1594 -0.2897  0.2456
  258MOL0     C33934   5.407   2.638   9.972 -0.2857  0.6912  0.3402
  258MOL0     C33935   5.376   2.586   9.833  0.3987 -0.3729 -0.1154
  258MOL0     C33936   5.363   2.702   9.740  0.5874  0.4540  0.3667
  258MOL0     C33937   5.309   2.664   9.598 -0.5741  0.3210  0.0916
  258MOL0     C33938   5.309   2.784   9.507 -1.0500  0.1208 -0.7295
  258MOL0     C33939   5.445   2.824   9.463  0.1454  0.2932 -0.6994
  258MOL0     C33940   5.452   2.917   9.347  0.0133 -0.4428  0.0950
  258MOL0     N33941   5.391   2.862   9.230  0.2459 -0.4636  0.8667
  258MOL0     C33942   5.437   2.753   9.154  0.0372  0.2790 -0.4798
  258MOL0     C33943   5.356   2.750   9.047  0.2080 -0.9064 -0.7712
  258MOL0     C33944   5.379   2.656   8.937 -0.0431 -1.1159  0.4210
  258MOL0     C33945   5.361   2.517   8.996 -0.4577  0.4384 -1.5794
  258MOL0     C33946   5.221   2.482   9.047 -0.7870 -0.4067  0.1252
  258MOL0     C33947   5.228   2.380   9.159 -1.0792  0.0086  0.2664
  258MOL0     O33948   5.116   2.294   9.174 -0.1458 -0.5426 -0.4039
  258MOL0     C33949   4.993   2.350   9.211 -0.0806 -0.2888 -0.1480
  258MOL0     C33950   4.969   2.484   9.249  0.2560 -0.3963 -0.4640
  258MOL0     C33951   4.838   2.522   9.276  0.5343  0.3979 -0.6210
  258MOL0     C33952   4.730   2.433   9.284  0.0778  0.6146 -0.7954
  258MOL0     C33953   4.598   2.486   9.322  0.7073  0.0414  0.6852
  258MOL0     O33954   4.489   2.401   9.340  0.0834  0.2439  1.1713
  258MOL0     C33955   4.367   2.453   9.375 -0.6646  0.0157  0.4421
  258MOL0     C33956   4.279   2.530   9.294 -0.9138 -0.4792 -0.9648
  258MOL0     C33957   4.153   2.565   9.330  0.2595 -0.7538 -0.1824
  258MOL0     C33958   4.092   2.513   9.444  0.4821 -0.2019 -0.7173
  258MOL0     O33959   3.958   2.549   9.466  0.0735 -0.0340 -0.3513
  258MOL0     C33960   3.903   2.542   9.603 -0.0959  0.6885 -0.2659
  258MOL0     C33961   3.973   2.631   9.703  0.1312 -0.3765 -0.4918
  258MOL0     C33962   3.982   2.781   9.660 -0.6032  0.1282 -0.2045
  258MOL0     C33963   4.044   2.873   9.770  0.2320  0.1715  0.2556
  258MOL0     C33964   4.028   3.019   9.745  0.7366 -0.1616 -0.5217
  258MOL0     C33965   3.888   3.063   9.783 -0.0051 -0.0313  0.5672
  258MOL0     C33966   3.873   3.210   9.748  0.4206  0.4378 -0.0349
  258MOL0     C33967   3.954   3.304   9.842 -0.1487 -0.4427 -0.4681
  258MOL0    Cl33968   3.887   3.297  10.010 -0.0700  0.3120  0.1853
  258MOL0     C33969   4.169   2.433   9.530 -0.1433  0.0082  1.1531
  258MOL0     C33970   4.306   2.412   9.497 -0.3175  0.0915  0.0044
  258MOL0     O33971   4.591   2.609   9.330  0.2573  0.2168  0.6447
  258MOL0     C33972   4.759   2.299   9.245  0.0171 -0.0572  0.5770
  258MOL0     C33973   4.890   2.258   9.205 -0.2612  0.3387  0.5514
  258MOL0     N33974   5.257   2.847   9.057  0.6771 -0.3471 -0.6865
  258MOL0     N33975   5.281   2.914   9.162  0.1295  0.7392 -0.2710
  258MOL0     C33976   5.575   2.559  10.398 -0.1434 -0.2623 -0.1241
  258MOL0     C33977   5.707   2.564  10.458 -0.3573 -0.4310  0.3175
  258MOL0     C33978   6.132   2.491  10.535 -0.3842 -0.1142  0.0693
  258MOL0     C33979   6.196   2.424  10.642 -0.3168 -0.8337  0.2212
  258MOL0     C33980   6.343   2.417  10.640  1.0801 -0.5737  0.4242
  258MOL0     C33981   6.424   2.465  10.537 -0.7339  0.2048  0.2895
  258MOL0     O33982   6.560   2.468  10.541 -0.1152  0.3068 -0.1110
  258MOL0     C33983   6.607   2.526  10.667  1.4076 -1.4888  1.0794
  258MOL0     C33984   6.690   2.435  10.749  0.1490 -0.2835  0.1215
  258MOL0     C33985   6.842   2.431  10.723 -0.1333 -0.3022 -0.5849
  258MOL0     C33986   6.862   2.390  10.583 -0.1926  0.2483  0.3370
  258MOL0     C33987   7.002   2.372  10.571  0.9318 -0.4144 -0.6166
  258MOL0     C33988   7.119   2.363  10.555  0.6555  0.3202  0.1162
  258MOL0     C33989   6.352   2.519  10.428  0.9207  0.0008 -0.4715
  258MOL0     C33990   6.214   2.541  10.430  0.4223  0.5863  0.0397
  258MOL0     H33991   5.881   2.599  10.173  0.7418  2.7060  0.1114
  258MOL0     H33992   5.669   2.583  10.075 -0.1755 -0.7544 -0.2493
  258MOL0     H33993   5.305   2.480  10.075 -0.4183  0.2519 -1.1030
  258MOL0     H33994   5.473   2.457  10.057 -2.2364 -2.7317  1.2893
  258MOL0     H33995   5.503   2.690   9.974  0.3621 -0.5059  1.3258
  258MOL0     H33996   5.332   2.716   9.993 -0.9269  0.1721 -0.0034
  258MOL0     H33997   5.289   2.521   9.841  1.3612 -1.5765  1.2811
  258MOL0     H33998   5.456   2.517   9.802  1.9276  1.1343  0.3131
  258MOL0     H33999   5.293   2.773   9.785  2.0473  2.9214 -1.0079
  258MOL0     H34000   5.460   2.750   9.726  0.7158 -0.3169 -1.6520
  258MOL0     H34001   5.209   2.622   9.612 -0.3852  0.2722  1.4359
  258MOL0     H34002   5.384   2.593   9.562  2.2668  2.8992  0.5908
  258MOL0     H34003   5.261   2.874   9.547  0.6618  0.6925  0.1640
  258MOL0     H34004   5.247   2.738   9.430 -0.9245  1.2661 -1.5425
  258MOL0     H34005   5.504   2.865   9.546  0.3620 -1.6727  0.1916
  258MOL0     H34006   5.493   2.734   9.423 -1.7463 -0.0785 -2.2615
  258MOL0     H34007   5.557   2.937   9.320  0.7240 -2.1161  1.4295
  258MOL0     H34008   5.427   3.019   9.379  0.7906  0.2287 -1.3174
  258MOL0     H34009   5.513   2.680   9.179  0.5570  0.1456 -2.3586
  258MOL0     H34010   5.478   2.669   8.892  0.3500  0.0420  1.5540
  258MOL0     H34011   5.309   2.679   8.855 -0.9652 -2.6136  0.7437
  258MOL0     H34012   5.442   2.495   9.066  0.1365  1.5163 -1.9000
  258MOL0     H34013   5.389   2.448   8.916 -1.2007 -0.8725 -0.7336
  258MOL0     H34014   5.174   2.571   9.090  1.1880  1.2512 -0.9576
  258MOL0     H34015   5.158   2.441   8.967 -1.4647 -1.2059  1.0452
  258MOL0     H34016   5.254   2.432   9.252  2.2942 -0.5427 -0.2395
  258MOL0     H34017   5.312   2.312   9.144  1.8038  3.1502  0.8911
  258MOL0     H34018   5.045   2.561   9.260 -1.9804  2.1719 -1.8596
  258MOL0     H34019   4.811   2.626   9.293 -2.0443 -0.4564  1.0385
  258MOL0     H34020   4.318   2.573   9.203  0.9549  0.9451  0.4402
  258MOL0     H34021   4.097   2.639   9.273 -0.6522  0.2433  1.9187
  258MOL0     H34022   3.902   2.446   9.655 -1.3621  1.1461  0.6344
  258MOL0     H34023   3.801   2.583   9.595 -0.8495 -0.6756  1.6494
  258MOL0     H34024   4.076   2.600   9.722  1.5482  2.3989 -2.8720
  258MOL0     H34025   3.918   2.640   9.797  1.4911  3.8416  0.1162
  258MOL0     H34026   3.877   2.805   9.640 -0.8866  1.2831  2.2781
  258MOL0     H34027   4.051   2.799   9.577  0.1751 -0.1772  0.3607
  258MOL0     H34028   4.001   2.856   9.869  0.9736 -0.7476  0.4369
  258MOL0     H34029   4.148   2.842   9.776 -0.0981 -1.7996 -2.2022
  258MOL0     H34030   4.028   3.054   9.642 -4.4742  1.0685 -0.3670
  258MOL0     H34031   4.114   3.064   9.795  1.6143 -2.8009  0.5481
  258MOL0     H34032   3.863   3.049   9.888 -0.5797 -1.7165  0.2419
  258MOL0     H34033   3.824   2.997   9.724  1.7211 -1.5743  0.3339
  258MOL0     H34034   3.899   3.227   9.643  2.3165  1.7927  0.5888
  258MOL0     H34035   3.771   3.244   9.764  0.1654 -0.6721  0.8084
  258MOL0     H34036   3.949   3.408   9.807  3.8599  1.2531  3.1797
  258MOL0     H34037   4.062   3.290   9.843  0.0484  0.6319  2.1581
  258MOL0     H34038   4.126   2.396   9.622  2.2281 -0.4914  2.1558
  258MOL0     H34039   4.362   2.335   9.549  1.7059 -1.6349 -4.2001
  258MOL0     H34040   4.681   2.229   9.215  0.4150  0.3270 -1.5723
  258MOL0     H34041   4.916   2.155   9.183  0.2559  0.8938 -1.7516
  258MOL0     H34042   5.488   2.544  10.461 -0.7658  1.3085 -0.5556
  258MOL0     H34043   5.707   2.555  10.566 -1.0887 -3.2193  0.1736
  258MOL0     H34044   6.140   2.368  10.715  1.5047 -3.7416 -0.4313
  258MOL0     H34045   6.383   2.374  10.732  1.4919 -0.3974  0.3319
  258MOL0     H34046   6.523   2.574  10.718 -0.6908 -1.4368 -2.1099
  258MOL0     H34047   6.674   2.612  10.652 -1.9116  0.8543 -2.0563
  258MOL0     H34048   6.679   2.464  10.854  0.5799  0.6055 -0.0700
  258MOL0     H34049   6.644   2.336  10.739 -1.9263 -0.1520  5.5270
  258MOL0     H34050   6.894   2.366  10.795 -0.3501  0.2681  0.0956
  258MOL0     H34051   6.879   2.533  10.731 -0.1982 -0.3942  1.2899
  258MOL0     H34052   6.819   2.292  10.561 -1.2135  1.3666 -3.4575
  258MOL0     H34053   6.822   2.453  10.503 -3.7141 -1.7604  0.3045
  258MOL0     H34054   7.226   2.357  10.552  0.6802  0.9516 -1.3258
  258MOL0     H34055   6.397   2.564  10.340  0.5420  2.2508  0.4107
  258MOL0     H34056   6.160   2.580  10.344 -1.7184 -1.6899  0.2292
  259MOL0     O34057  10.607   4.860  11.090 -0.3366  0.3952  0.3837
  259MOL0     C34058  10.727   4.864  11.118 -0.0392 -0.3506 -0.1315
  259MOL0     O34059  10.826   4.905  11.038 -0.8141 -0.4548  0.8323
  259MOL0     C34060  10.813   4.951  10.909 -0.5707 -0.4268 -0.1908
  259MOL0     C34061  10.931   5.022  10.874  0.4550 -0.0196  0.1453
  259MOL0     C34062  10.931   5.079  10.744 -0.5295  0.0380 -0.7464
  259MOL0     C34063  10.837   5.072  10.653  0.4529  0.4646  0.9927
  259MOL0     O34064  10.858   5.127  10.534 -0.1329  0.1392 -0.4350
  259MOL0     C34065  10.753   5.122  10.435  0.1163  0.4114  1.0164
  259MOL0     C34066  10.800   5.204  10.309  0.4040  0.8091  0.4677
  259MOL0     C34067  10.696   5.176  10.197  0.5727  0.7697  0.3581
  259MOL0     C34068  10.733   5.233  10.049  0.5101  0.5161  0.1547
  259MOL0     C34069  10.748   5.391  10.049  0.5768  0.0272  0.6463
  259MOL0     C34070  10.768   5.440   9.898  0.4275 -1.4890  0.5497
  259MOL0     C34071  10.701   5.380   9.778 -0.1274 -0.3698 -0.2024
  259MOL0     C34072  10.709   5.460   9.652  0.0652 -0.5877 -0.5352
  259MOL0     N34073  10.850   5.484   9.600  0.7794 -0.2027  0.7699
  259MOL0     C34074  10.927   5.604   9.618  0.5505  1.2028 -0.0087
  259MOL0     C34075  11.048   5.567   9.590 -0.6144 -0.4199 -0.5169
  259MOL0     C34076  11.174   5.655   9.583 -0.3599  0.5484  0.5454
  259MOL0     C34077  11.163   5.762   9.477  0.1863 -0.7748  0.1033
  259MOL0     C34078  11.175   5.907   9.535 -0.3732  0.3744 -0.7963
  259MOL0     C34079  11.199   6.021   9.441 -0.1736 -0.1952  0.2997
  259MOL0     O34080  11.100   6.021   9.344  1.0214 -0.4049 -0.4585
  259MOL0     C34081  11.077   6.138   9.265 -0.8137 -0.4550 -0.5533
  259MOL0     C34082  11.157   6.255   9.270  0.4526  0.3573 -1.4460
  259MOL0     C34083  11.141   6.359   9.186 -0.4097  0.1803  0.0560
  259MOL0     C34084  11.041   6.351   9.086  0.4918  0.4936  0.7586
  259MOL0     C34085  11.017   6.467   8.993  0.0914  0.3280  0.0651
  259MOL0     O34086  10.913   6.452   8.908  0.3918 -0.1006  0.2973
  259MOL0     C34087  10.864   6.560   8.847  0.6413 -0.7773  1.1241
  259MOL0     C34088  10.867   6.696   8.883  0.1032 -0.4396 -0.3101
  259MOL0     C34089  10.831   6.796   8.800  0.7739 -0.1781  0.1131
  259MOL0     C34090  10.791   6.759   8.670  0.0951  0.4999  0.2124
  259MOL0     O34091  10.760   6.861   8.592  0.8431 -0.4751  0.3317
  259MOL0     C34092  10.871   6.905   8.513 -0.2477 -0.4463 -0.4353
  259MOL0     C34093  10.853   6.879   8.366 -0.2073  0.1700  0.2079
  259MOL0     C34094  10.723   6.939   8.308  0.4613 -0.5382 -0.2199
  259MOL0     C34095  10.680   6.894   8.163 -0.2600  0.3784 -0.1973
  259MOL0     C34096  10.772   6.944   8.051  0.3232  1.1519  0.8507
  259MOL0     C34097  10.705   6.916   7.921 -0.0585  0.2136  0.2653
  259MOL0     C34098  10.789   6.954   7.798  0.2899  0.1254  0.7583
  259MOL0     C34099  10.724   6.916   7.653  0.2626  0.1899 -0.2593
  259MOL0    Cl34100  10.793   7.021   7.536  0.3486  0.1141  0.6401
  259MOL0     C34101  10.774   6.625   8.631  1.0318  0.2047 -0.2107
  259MOL0     C34102  10.801   6.535   8.725  0.1110 -0.3975 -0.4033
  259MOL0     O34103  11.099   6.558   8.988 -0.5698  0.4305 -0.4377
  259MOL0     C34104  10.954   6.233   9.079 -0.4363  0.5845  0.0195
  259MOL0     C34105  10.976   6.132   9.175 -0.0035  0.2881  0.0376
  259MOL0     N34106  11.056   5.428   9.569  0.0297  0.6724 -0.7219
  259MOL0     N34107  10.934   5.378   9.575 -0.2582 -0.3718  0.4248
  259MOL0     C34108  10.722   4.993  10.683  0.2147 -0.5681  0.0691
  259MOL0     C34109  10.709   4.948  10.812  0.2180  0.7386 -1.2302
  259MOL0     C34110  10.765   4.837  11.255  1.0671  0.4305 -0.3796
  259MOL0     C34111  10.893   4.788  11.282 -0.8141  0.2324 -0.1656
  259MOL0     C34112  10.934   4.769  11.413  0.4109  1.1547  0.3150
  259MOL0     C34113  10.847   4.787  11.522 -0.6977 -0.6423  0.0393
  259MOL0     O34114  10.889   4.794  11.652  0.1053 -0.6456 -0.3715
  259MOL0     C34115  11.021   4.759  11.691 -0.0188 -0.3959 -0.3590
  259MOL0     C34116  11.043   4.606  11.678 -0.7680  0.6242  0.0743
  259MOL0     C34117  11.086   4.539  11.807 -0.4207 -0.5704 -0.5223
  259MOL0     C34118  10.997   4.542  11.934  0.0317  0.5463 -0.1218
  259MOL0     C34119  11.030   4.431  12.026 -0.7439 -0.3554  0.3082
  259MOL0     C34120  11.057   4.354  12.116 -0.3554  1.4152 -0.3131
  259MOL0     C34121  10.718   4.827  11.490 -1.0290 -0.0292 -0.1131
  259MOL0     C34122  10.671   4.841  11.363 -0.0913 -0.5487  0.8083
  259MOL0     H34123  11.013   5.015  10.944 -0.9211  1.1241  1.9572
  259MOL0     H34124  11.016   5.132  10.703 -0.8661 -0.4014 -2.0533
  259MOL0     H34125  10.665   5.164  10.485  1.1710  0.8499  2.5483
  259MOL0     H34126  10.737   5.020  10.397  0.6277  0.4312  0.7418
  259MOL0     H34127  10.898   5.163  10.284  0.2279  0.4324  0.3809
  259MOL0     H34128  10.811   5.311  10.324  1.7024  0.9780 -1.3515
  259MOL0     H34129  10.595   5.196  10.233 -0.0417  0.2299 -0.9898
  259MOL0     H34130  10.713   5.068  10.197  1.0666  0.8322 -0.4389
  259MOL0     H34131  10.827   5.180  10.031  2.3297  2.4491  3.1761
  259MOL0     H34132  10.651   5.208   9.980 -0.7330  0.1870  1.6917
  259MOL0     H34133  10.837   5.418  10.106  1.2425  0.7724 -0.6865
  259MOL0     H34134  10.654   5.430  10.089 -0.2850 -0.8820 -0.3963
  259MOL0     H34135  10.873   5.440   9.866  1.2433  2.8685  2.4738
  259MOL0     H34136  10.741   5.545   9.908  1.7882 -0.8386 -1.9128
  259MOL0     H34137  10.740   5.278   9.770 -2.1460 -1.1901 -0.2199
  259MOL0     H34138  10.596   5.350   9.789 -0.2045 -0.4587 -1.1391
  259MOL0     H34139  10.676   5.562   9.674 -0.9333 -1.5003  2.9967
  259MOL0     H34140  10.634   5.423   9.581  0.6983 -2.6813 -0.1816
  259MOL0     H34141  10.894   5.705   9.641  1.9305  2.5094 -3.1538
  259MOL0     H34142  11.255   5.589   9.548 -0.0312  1.4496 -0.4613
  259MOL0     H34143  11.194   5.684   9.687 -3.5975 -2.7881  2.3080
  259MOL0     H34144  11.067   5.758   9.424  1.4317 -0.6853 -2.3239
  259MOL0     H34145  11.241   5.743   9.402  0.1438 -1.6589  0.2644
  259MOL0     H34146  11.077   5.920   9.583 -1.9605  1.6174 -4.0699
  259MOL0     H34147  11.258   5.898   9.606 -1.1945 -1.5487  0.0210
  259MOL0     H34148  11.298   6.022   9.395  0.7855  0.6752  2.2617
  259MOL0     H34149  11.201   6.114   9.499 -0.2605  0.5407 -0.8454
  259MOL0     H34150  11.235   6.253   9.346 -2.7673 -0.3958  2.1642
  259MOL0     H34151  11.193   6.454   9.188  1.0906 -0.5210 -2.0959
  259MOL0     H34152  10.883   6.728   8.985  0.4561  0.1081 -0.5304
  259MOL0     H34153  10.821   6.899   8.832  2.0125 -0.1755  0.5294
  259MOL0     H34154  10.962   6.860   8.552  0.1146 -0.6239 -1.4564
  259MOL0     H34155  10.889   7.011   8.533  2.6644 -0.8688 -0.4840
  259MOL0     H34156  10.852   6.772   8.342 -0.5514  0.3441 -0.6006
  259MOL0     H34157  10.932   6.916   8.299 -1.2841 -1.7514 -2.2928
  259MOL0     H34158  10.729   7.048   8.307 -1.6989 -0.3704 -0.4929
  259MOL0     H34159  10.643   6.915   8.379  0.6201 -0.4046  0.0061
  259MOL0     H34160  10.680   6.784   8.167 -0.3307  0.3999  0.9179
  259MOL0     H34161  10.575   6.909   8.138 -0.0706  0.6872 -0.8240
  259MOL0     H34162  10.870   6.897   8.056  0.2319  0.8364 -0.1323
  259MOL0     H34163  10.785   7.053   8.058 -0.6546  1.5369 -1.9229
  259MOL0     H34164  10.608   6.963   7.906 -0.1633 -0.7472 -2.8263
  259MOL0     H34165  10.694   6.807   7.915 -3.7676  0.5162 -2.0643
  259MOL0     H34166  10.795   7.063   7.789  2.5483  0.0741  0.9050
  259MOL0     H34167  10.886   6.908   7.819 -1.1742 -3.1050  1.0944
  259MOL0     H34168  10.616   6.925   7.668  0.3472 -2.2530  2.8923
  259MOL0     H34169  10.738   6.811   7.627  1.6103 -0.2752  2.0854
  259MOL0     H34170  10.741   6.590   8.533 -1.3077 -1.0165  0.9252
  259MOL0     H34171  10.783   6.430   8.700 -1.3083 -0.2549 -0.0899
  259MOL0     H34172  10.867   6.220   9.015  0.2089  1.3350 -1.0253
  259MOL0     H34173  10.921   6.039   9.173  0.9571 -0.2935 -0.1448
  259MOL0     H34174  10.652   4.970  10.603 -0.9658  2.9806 -0.1267
  259MOL0     H34175  10.633   4.877  10.841 -0.5725  2.3573  0.9393
  259MOL0     H34176  10.955   4.746  11.203  3.1932  2.6344  1.3431
  259MOL0     H34177  11.036   4.742  11.440  0.3465  0.7758  0.1850
  259MOL0     H34178  11.029   4.777  11.799  1.1795 -0.0146 -0.4975
  259MOL0     H34179  11.103   4.819  11.650  2.2387 -2.4087  0.9627
  259MOL0     H34180  10.950   4.552  11.657  0.0474 -1.0475  0.5490
  259MOL0     H34181  11.102   4.585  11.588 -0.2163 -0.9684  0.7778
  259MOL0     H34182  11.176   4.591  11.840 -0.9904  0.2938 -0.2590
  259MOL0     H34183  11.097   4.432  11.789 -1.9835 -0.8036 -0.3132
  259MOL0     H34184  11.014   4.633  11.992 -1.3190 -0.7495  2.4862
  259MOL0     H34185  10.891   4.529  11.913  0.4037 -2.5738 -0.5658
  259MOL0     H34186  11.047   4.287  12.199 -0.3660 -1.6970 -2.6290
  259MOL0     H34187  10.656   4.853  11.575 -0.0750  2.6432 -0.1412
  259MOL0     H34188  10.566   4.866  11.348 -0.5642 -2.4805  0.6345
  260MOL0     O34189   3.074   7.235   3.144  0.2959  0.1587  0.2330
  260MOL0     C34190   3.087   7.291   3.033 -0.6731  0.2616 -0.1065
  260MOL0     O34191   2.999   7.287   2.923 -1.0003 -0.1491 -0.0152
  260MOL0     C34192   2.880   7.231   2.948 -0.5812 -0.0370 -0.3550
  260MOL0     C34193   2.784   7.313   3.022 -0.5395  0.2799 -0.1203
  260MOL0     C34194   2.655   7.267   3.047  0.3390 -0.2501 -0.2234
  260MOL0     C34195   2.625   7.141   2.989  0.2123 -0.6667  0.0361
  260MOL0     O34196   2.489   7.120   2.998  0.1174  0.2281 -0.3252
  260MOL0     C34197   2.459   6.981   3.025  0.1452 -1.0924 -0.1899
  260MOL0     C34198   2.313   6.998   3.057  0.2544 -0.8012  0.3656
  260MOL0     C34199   2.244   6.865   3.094  0.3592 -0.7249 -0.0439
  260MOL0     C34200   2.241   6.774   2.965  1.0028  0.6776 -0.2439
  260MOL0     C34201   2.147   6.655   2.976 -0.3514 -0.0582 -0.7345
  260MOL0     C34202   2.176   6.540   2.870 -0.4057  0.1332  0.1636
  260MOL0     C34203   2.098   6.412   2.912 -0.4090 -0.5739  0.3125
  260MOL0     C34204   2.146   6.279   2.836  0.9964 -1.0253 -0.2861
  260MOL0     N34205   2.284   6.241   2.860  0.6931 -0.1724  0.6466
  260MOL0     C34206   2.337   6.173   2.970 -0.3178 -0.0087  0.8773
  260MOL0     C34207   2.472   6.178   2.969  0.3215  1.2030  0.2804
  260MOL0     C34208   2.572   6.123   3.061  0.0632 -0.0584  0.2491
  260MOL0     C34209   2.711   6.132   3.011  0.8033 -0.5197 -0.4941
  260MOL0     C34210   2.817   6.124   3.118 -0.0199  1.3532  0.1898
  260MOL0     C34211   2.860   5.977   3.156 -0.6400  0.3541 -0.8711
  260MOL0     O34212   2.959   5.936   3.056  0.3273 -0.3601 -0.1870
  260MOL0     C34213   2.980   5.802   3.050 -0.2023  0.0519 -0.9235
  260MOL0     C34214   2.981   5.742   2.915 -0.9259  0.4327 -1.6452
  260MOL0     C34215   3.008   5.607   2.904 -0.3068 -0.7114 -0.1206
  260MOL0     C34216   3.053   5.520   3.010  0.9808 -0.7221  0.1130
  260MOL0     C34217   3.065   5.378   3.001  0.2873 -0.2668 -0.0743
  260MOL0     O34218   3.113   5.306   3.107  0.4413 -0.7272  0.0448
  260MOL0     C34219   3.105   5.162   3.098 -0.3274 -0.1686  0.3168
  260MOL0     C34220   3.207   5.105   3.013 -0.1352 -0.0634 -0.3178
  260MOL0     C34221   3.213   4.972   2.989  0.4991 -0.1022 -0.1475
  260MOL0     C34222   3.109   4.889   3.047  0.5591  1.3458 -0.1572
  260MOL0     O34223   3.114   4.749   3.026  0.3967 -0.8608 -0.0209
  260MOL0     C34224   3.022   4.669   3.103 -0.4730  0.2312 -0.4613
  260MOL0     C34225   3.023   4.521   3.057  0.0164  1.0374  0.7460
  260MOL0     C34226   3.043   4.490   2.902 -0.0239 -0.2830 -0.0387
  260MOL0     C34227   3.069   4.346   2.877  0.1822  1.0833 -0.5631
  260MOL0     C34228   3.206   4.299   2.941 -0.4329 -0.5136 -0.2003
  260MOL0     C34229   3.348   4.323   2.880 -0.2323 -0.5936  0.1930
  260MOL0     C34230   3.449   4.276   2.972 -0.0410 -0.5206  0.4312
  260MOL0     C34231   3.574   4.219   2.894  0.5578 -0.2235  0.6710
  260MOL0    Cl34232   3.625   4.344   2.776  0.1618  0.1233 -0.1059
  260MOL0     C34233   3.009   4.950   3.122 -0.0236  0.4831  0.3253
  260MOL0     C34234   3.002   5.089   3.150  0.4203  0.7551  0.0392
  260MOL0     O34235   3.024   5.326   2.899 -1.0699  0.3837 -0.9004
  260MOL0     C34236   3.063   5.585   3.134 -0.5251  0.1757 -0.7768
  260MOL0     C34237   3.030   5.729   3.158 -0.0077  0.8602  0.0945
  260MOL0     N34238   2.502   6.243   2.841 -0.2911  0.0470 -0.3171
  260MOL0     N34239   2.396   6.286   2.783  0.9460  0.1683 -0.1685
  260MOL0     C34240   2.722   7.058   2.912  0.1988  0.1035 -0.2673
  260MOL0     C34241   2.852   7.107   2.897  0.7642  0.1588  0.4523
  260MOL0     C34242   3.208   7.380   3.016  0.0300 -0.1344  0.0466
  260MOL0     C34243   3.218   7.489   2.927  0.3509 -0.1295 -0.4959
  260MOL0     C34244   3.323   7.580   2.921  0.6895  0.8651  0.3763
  260MOL0     C34245   3.428   7.555   3.022  0.0293  0.0877  0.5391
  260MOL0     O34246   3.534   7.639   3.000  0.0987 -0.2694  0.4656
  260MOL0     C34247   3.657   7.607   3.070  0.1322 -0.1659 -0.4044
  260MOL0     C34248   3.771   7.697   3.026  0.5195 -0.2900 -0.3808
  260MOL0     C34249   3.766   7.832   3.097  0.0640  0.3061 -0.3852
  260MOL0     C34250   3.733   7.837   3.251 -0.1651  0.0443  0.6416
  260MOL0     C34251   3.834   7.767   3.326 -0.5728  0.2870 -0.2726
  260MOL0     C34252   3.926   7.701   3.382 -0.0764  0.1657 -1.0069
  260MOL0     C34253   3.417   7.455   3.118  0.0192 -0.2339  0.0429
  260MOL0     C34254   3.307   7.368   3.118  0.7089 -0.4515  0.0401
  260MOL0     H34255   2.810   7.410   3.065  1.4114  0.0156 -0.6011
  260MOL0     H34256   2.578   7.329   3.093 -0.3113 -1.4961  0.4159
  260MOL0     H34257   2.516   6.946   3.111  1.8190  0.8544 -0.4227
  260MOL0     H34258   2.472   6.913   2.940  0.5180 -2.1067  0.6591
  260MOL0     H34259   2.275   7.045   2.966  2.5937 -3.1298 -1.9896
  260MOL0     H34260   2.306   7.067   3.142 -1.1019 -2.3790  1.5963
  260MOL0     H34261   2.139   6.877   3.124 -0.1440 -4.2037  0.0627
  260MOL0     H34262   2.295   6.810   3.174 -0.3628 -2.9693 -1.0209
  260MOL0     H34263   2.217   6.830   2.875 -1.3844 -0.7619 -0.5860
  260MOL0     H34264   2.348   6.748   2.960  1.6446  2.4563  2.0848
  260MOL0     H34265   2.048   6.701   2.969  0.3931  1.4038 -2.4139
  260MOL0     H34266   2.160   6.598   3.069 -2.0675 -1.2772 -1.1913
  260MOL0     H34267   2.284   6.523   2.868 -0.1372  1.7098 -0.5778
  260MOL0     H34268   2.136   6.579   2.776 -0.6921  1.5718  0.8566
  260MOL0     H34269   2.111   6.385   3.017 -1.4894 -3.6137 -0.2212
  260MOL0     H34270   1.991   6.424   2.895 -0.3721 -1.7303 -0.9492
  260MOL0     H34271   2.125   6.294   2.729 -3.4351 -0.0086  0.5308
  260MOL0     H34272   2.087   6.198   2.881 -2.8173  0.0951 -2.7308
  260MOL0     H34273   2.274   6.137   3.050  2.5142  1.1594  3.8671
  260MOL0     H34274   2.547   6.017   3.074  1.4103 -0.5488 -0.9323
  260MOL0     H34275   2.567   6.173   3.159  1.6987  0.6479  0.0086
  260MOL0     H34276   2.728   6.225   2.956  0.3195  2.5247  4.0114
  260MOL0     H34277   2.725   6.052   2.937 -2.6665 -1.7474 -0.0042
  260MOL0     H34278   2.909   6.171   3.082 -0.8608  0.9335 -2.7830
  260MOL0     H34279   2.795   6.181   3.209 -1.1218  1.6712 -0.2587
  260MOL0     H34280   2.772   5.913   3.159 -0.9015  0.7408 -0.0348
  260MOL0     H34281   2.905   5.986   3.255 -1.2091  0.3505 -0.6073
  260MOL0     H34282   2.950   5.803   2.831 -2.1632 -1.6758 -2.8213
  260MOL0     H34283   3.000   5.572   2.801  0.1295 -0.6724 -0.1708
  260MOL0     H34284   3.295   5.157   2.976  1.0337 -1.1230  0.8541
  260MOL0     H34285   3.297   4.931   2.932  0.8072 -0.4140  0.5227
  260MOL0     H34286   2.921   4.711   3.098  0.0381  1.3611 -3.8363
  260MOL0     H34287   3.049   4.681   3.208  0.0303  1.1794 -0.6795
  260MOL0     H34288   2.930   4.478   3.093  0.8375  0.2502  2.0133
  260MOL0     H34289   3.108   4.480   3.113  1.7462  1.4639 -1.3985
  260MOL0     H34290   3.132   4.539   2.862 -0.2554 -1.6700 -2.4859
  260MOL0     H34291   2.957   4.527   2.845 -0.9406 -0.2963  1.2976
  260MOL0     H34292   2.982   4.287   2.908  0.9506 -0.0494 -0.5436
  260MOL0     H34293   3.098   4.325   2.773  2.3536 -2.1699  0.5707
  260MOL0     H34294   3.201   4.190   2.948 -2.6711 -0.5325 -1.0868
  260MOL0     H34295   3.215   4.334   3.044 -0.9744  1.0650 -0.6533
  260MOL0     H34296   3.363   4.430   2.861  1.1845 -1.0717 -1.6525
  260MOL0     H34297   3.345   4.269   2.786 -2.4298  1.6678 -1.1728
  260MOL0     H34298   3.477   4.361   3.035 -6.0370  1.5850  0.9065
  260MOL0     H34299   3.411   4.200   3.042  0.1398  0.1713  1.2897
  260MOL0     H34300   3.557   4.122   2.847  1.7887  0.8140 -2.0662
  260MOL0     H34301   3.651   4.202   2.970 -1.4928 -0.6596  2.7748
  260MOL0     H34302   2.938   4.888   3.175  2.1370 -1.7340  0.8279
  260MOL0     H34303   2.919   5.132   3.204  1.0657  1.9378  0.1442
  260MOL0     H34304   3.103   5.534   3.221  1.2628  1.9751 -0.4730
  260MOL0     H34305   3.043   5.761   3.260  1.0916  2.2170 -0.4304
  260MOL0     H34306   2.690   6.963   2.871 -3.0344  0.5912  0.8334
  260MOL0     H34307   2.920   7.042   2.843  1.4311 -0.2041  1.6946
  260MOL0     H34308   3.135   7.512   2.860  0.4893  0.4171 -0.4830
  260MOL0     H34309   3.300   7.666   2.859 -4.5620 -1.2448 -1.1430
  260MOL0     H34310   3.683   7.511   3.024  3.0582  2.2701 -4.6226
  260MOL0     H34311   3.646   7.590   3.177  3.7946 -0.8093 -0.0233
  260MOL0     H34312   3.870   7.659   3.055  1.8040  1.9407 -1.5335
  260MOL0     H34313   3.773   7.710   2.918 -1.1746  0.7331 -0.3139
  260MOL0     H34314   3.695   7.899   3.047  0.1546  0.5847 -0.1376
  260MOL0     H34315   3.864   7.877   3.083  1.8886 -2.5396  1.9950
  260MOL0     H34316   3.730   7.945   3.273 -1.2604  0.5346 -1.6298
  260MOL0     H34317   3.632   7.800   3.269  0.5800 -3.3592 -1.3383
  260MOL0     H34318   4.008   7.642   3.417 -0.5354  0.3390  0.4266
  260MOL0     H34319   3.499   7.450   3.189  1.1485 -1.0238 -1.2714
  260MOL0     H34320   3.286   7.301   3.200  1.2985 -0.0481  0.5242
  261MOL0     O34321   4.675  10.053   0.697  0.2851  0.9670 -0.2999
  261MOL0     C34322   4.675  10.037   0.575  0.5578  0.1023 -0.0309
  261MOL0     O34323   4.753   9.944   0.500 -0.5123  0.4157  0.4487
  261MOL0     C34324   4.845   9.865   0.555  0.3753 -0.7594 -0.0228
  261MOL0     C34325   4.965   9.850   0.485 -0.2886  0.4108  0.5349
  261MOL0     C34326   5.067   9.779   0.543 -0.1088 -0.5533 -0.2865
  261MOL0     C34327   5.060   9.726   0.672  0.3896 -0.1207 -0.1970
  261MOL0     O34328   5.160   9.648   0.713 -0.0121  0.4213  0.0711
  261MOL0     C34329   5.185   9.540   0.625 -0.4278 -0.1308 -0.1295
  261MOL0     C34330   5.340   9.517   0.625 -0.5213 -0.0311  0.0085
  261MOL0     C34331   5.381   9.396   0.530  0.4754  0.4416  0.2695
  261MOL0     C34332   5.530   9.392   0.522  0.0106  0.3404 -0.2661
  261MOL0     C34333   5.603   9.267   0.474  0.5658 -0.1771 -0.7743
  261MOL0     C34334   5.759   9.275   0.504  0.3137  0.1884 -0.6279
  261MOL0     C34335   5.832   9.157   0.429  0.0320  0.8200 -0.6654
  261MOL0     C34336   5.778   9.021   0.473 -1.0368 -0.3419  0.2126
  261MOL0     N34337   5.872   8.920   0.430 -0.2227  1.0332  0.6216
  261MOL0     C34338   5.999   8.896   0.479  0.6494  0.6678 -0.1366
  261MOL0     C34339   6.056   8.805   0.396 -0.5768 -0.1079 -0.2779
  261MOL0     C34340   6.193   8.742   0.415  0.1472  0.1414 -0.6526
  261MOL0     C34341   6.277   8.804   0.309  0.9424  0.1969 -0.4103
  261MOL0     C34342   6.309   8.958   0.320  0.5449  2.0290 -0.4095
  261MOL0     C34343   6.397   8.996   0.444 -0.2696 -0.0425  0.5176
  261MOL0     O34344   6.319   8.999   0.569  0.0005 -0.5352 -0.1030
  261MOL0     C34345   6.250   9.113   0.600 -0.0215  0.1346 -0.0730
  261MOL0     C34346   6.170   9.112   0.713  0.1478 -0.6064  0.2008
  261MOL0     C34347   6.095   9.225   0.753 -0.5784 -0.3923  0.1462
  261MOL0     C34348   6.088   9.339   0.669  0.5067  1.1429  0.6048
  261MOL0     C34349   5.985   9.448   0.704 -0.4870  0.1638  0.6254
  261MOL0     O34350   5.886   9.409   0.788 -0.7152 -0.0255 -0.6280
  261MOL0     C34351   5.792   9.502   0.832 -0.0331 -0.8083 -0.1807
  261MOL0     C34352   5.725   9.593   0.746  0.8270 -0.4305 -0.6724
  261MOL0     C34353   5.624   9.670   0.799  0.2606 -0.0339  0.3333
  261MOL0     C34354   5.588   9.663   0.930 -0.1521 -0.0577  0.6917
  261MOL0     O34355   5.488   9.740   0.984 -0.0872  0.6598 -0.1065
  261MOL0     C34356   5.385   9.679   1.063  0.1454 -0.4537 -0.4623
  261MOL0     C34357   5.286   9.802   1.089  0.6167  0.1543 -0.8887
  261MOL0     C34358   5.149   9.738   1.110 -0.4979 -0.0590 -0.4996
  261MOL0     C34359   5.136   9.632   1.226 -0.3004 -0.2457 -0.3668
  261MOL0     C34360   4.994   9.583   1.253  0.2967 -0.6832  0.2597
  261MOL0     C34361   4.998   9.453   1.341  0.1694 -0.4039  0.6679
  261MOL0     C34362   4.863   9.377   1.329 -0.6073  0.0092  0.6381
  261MOL0     C34363   4.805   9.332   1.465 -0.5873 -0.1580 -0.6870
  261MOL0    Cl34364   4.881   9.187   1.530 -0.1230 -0.2949  0.1649
  261MOL0     C34365   5.644   9.561   1.007  0.4553 -0.3024  1.5630
  261MOL0     C34366   5.746   9.483   0.956  0.1733  0.6533  0.4905
  261MOL0     O34367   5.990   9.556   0.647  0.4460 -0.2320 -0.2844
  261MOL0     C34368   6.169   9.338   0.555 -0.1017  0.2149  0.5703
  261MOL0     C34369   6.234   9.222   0.519 -0.4440 -0.6192  0.4867
  261MOL0     N34370   5.970   8.785   0.292 -1.2404 -0.5016  0.4412
  261MOL0     N34371   5.853   8.847   0.314  0.1497  0.4517 -0.2914
  261MOL0     C34372   4.935   9.739   0.735 -0.1906 -0.3839  0.0783
  261MOL0     C34373   4.831   9.817   0.682 -0.3273  0.4243  0.5295
  261MOL0     C34374   4.588  10.114   0.492  0.3580  0.1268 -0.2949
  261MOL0     C34375   4.586  10.087   0.355  0.7481 -0.7952  0.7484
  261MOL0     C34376   4.508  10.168   0.272  0.7996  0.1142  0.2015
  261MOL0     C34377   4.434  10.279   0.319  0.7107 -0.3160  0.6033
  261MOL0     O34378   4.359  10.372   0.237  0.7703  0.1346  0.2452
  261MOL0     C34379   4.295  10.482   0.295  0.6851  0.3439 -0.2692
  261MOL0     C34380   4.147  10.446   0.327  0.2601 -0.4343  0.6511
  261MOL0     C34381   4.063  10.457   0.197 -0.7007 -0.1418 -0.6357
  261MOL0     C34382   3.920  10.396   0.201 -0.2185 -0.2009  0.4027
  261MOL0     C34383   3.841  10.442   0.318 -0.1328  1.2847 -0.2745
  261MOL0     C34384   3.800  10.503   0.415 -0.1681 -1.0036  0.2965
  261MOL0     C34385   4.432  10.288   0.459  0.3258  0.4878  0.1438
  261MOL0     C34386   4.505  10.213   0.547  1.1578 -0.3663 -0.5726
  261MOL0     H34387   4.984   9.903   0.392  0.8092  0.6261  0.8635
  261MOL0     H34388   5.161   9.781   0.488 -0.9333  0.1673 -1.7246
  261MOL0     H34389   5.161   9.567   0.522 -0.1607  0.0803 -0.1380
  261MOL0     H34390   5.124   9.455   0.656 -1.7944  0.9262  0.1380
  261MOL0     H34391   5.368   9.489   0.727  0.2323 -0.9368 -0.4367
  261MOL0     H34392   5.389   9.608   0.588  0.2080  0.1073  1.2671
  261MOL0     H34393   5.331   9.405   0.433  0.5173 -1.2773  0.0652
  261MOL0     H34394   5.351   9.294   0.553 -1.1049  0.8463  0.1017
  261MOL0     H34395   5.546   9.479   0.458 -3.6716 -0.6031 -2.8175
  261MOL0     H34396   5.583   9.406   0.617 -1.8408 -1.8058  1.2017
  261MOL0     H34397   5.584   9.259   0.367 -1.0244  2.7358 -0.8326
  261MOL0     H34398   5.557   9.185   0.531  1.3426  0.7580  1.3122
  261MOL0     H34399   5.766   9.272   0.614 -2.2664  1.5179 -0.3274
  261MOL0     H34400   5.805   9.371   0.478  0.6403 -0.4479 -2.5067
  261MOL0     H34401   5.807   9.167   0.323  0.5051 -1.4742 -1.0604
  261MOL0     H34402   5.938   9.157   0.454 -0.1237 -2.6787  0.5392
  261MOL0     H34403   5.682   9.025   0.421 -1.0202 -1.9698 -0.0023
  261MOL0     H34404   5.764   9.006   0.580  2.6321 -2.1374  0.6073
  261MOL0     H34405   6.046   8.930   0.571 -1.4931  0.0807  1.2374
  261MOL0     H34406   6.179   8.635   0.397  4.8594 -1.5762  3.7227
  261MOL0     H34407   6.224   8.761   0.518  3.0879  0.0340 -1.4389
  261MOL0     H34408   6.221   8.792   0.216  2.1858  1.2273 -1.3380
  261MOL0     H34409   6.377   8.758   0.303 -0.1671 -2.6840  1.1490
  261MOL0     H34410   6.366   8.985   0.230  0.4871 -0.3756 -1.2429
  261MOL0     H34411   6.213   9.009   0.316 -1.6195 -1.7441 -3.3746
  261MOL0     H34412   6.448   9.090   0.421  0.9262 -0.5890  0.8454
  261MOL0     H34413   6.480   8.925   0.456 -1.9960 -1.8748  2.3735
  261MOL0     H34414   6.180   9.029   0.782 -0.3021 -0.3268  0.6036
  261MOL0     H34415   6.044   9.227   0.848  2.2610  2.4425  1.7891
  261MOL0     H34416   5.767   9.588   0.647  1.2066 -0.5420 -0.5084
  261MOL0     H34417   5.560   9.732   0.737  0.1250 -0.3771  0.1222
  261MOL0     H34418   5.431   9.632   1.150 -0.2693 -2.2616 -1.1648
  261MOL0     H34419   5.341   9.603   0.997 -2.1973  0.5574 -0.1710
  261MOL0     H34420   5.283   9.865   1.000  0.3059 -0.0858 -1.0502
  261MOL0     H34421   5.315   9.856   1.180 -1.7643  0.9619 -0.5622
  261MOL0     H34422   5.126   9.679   1.021 -0.5814  1.0431 -1.2342
  261MOL0     H34423   5.078   9.821   1.126  1.2967  1.8024 -1.6439
  261MOL0     H34424   5.200   9.547   1.202  3.1142  1.5052  1.6865
  261MOL0     H34425   5.166   9.680   1.320 -1.8301 -3.4494  1.9555
  261MOL0     H34426   4.947   9.558   1.157  2.1333 -0.3804 -0.7633
  261MOL0     H34427   4.927   9.662   1.289 -1.1860 -1.8272  0.1142
  261MOL0     H34428   5.009   9.473   1.448 -1.1396  1.3108  0.5183
  261MOL0     H34429   5.084   9.394   1.306  2.1064  1.8259  1.4551
  261MOL0     H34430   4.786   9.435   1.276 -1.1006  0.0276  1.3580
  261MOL0     H34431   4.873   9.292   1.261 -0.8109  1.2819 -1.0719
  261MOL0     H34432   4.698   9.318   1.452 -0.3319 -3.9395  0.1348
  261MOL0     H34433   4.821   9.413   1.537 -2.1065  1.0635 -1.6599
  261MOL0     H34434   5.615   9.537   1.109  0.2638 -1.2885  1.2856
  261MOL0     H34435   5.793   9.403   1.013  0.0530  0.4679  0.3305
  261MOL0     H34436   6.151   9.421   0.487 -1.8623 -0.0579  0.6607
  261MOL0     H34437   6.284   9.224   0.422  2.6865  0.3619  1.9890
  261MOL0     H34438   4.920   9.690   0.830 -1.2037  0.1313  0.1952
  261MOL0     H34439   4.733   9.826   0.727 -0.2662  0.0306  0.7369
  261MOL0     H34440   4.648  10.019   0.298 -0.3899 -0.3977 -1.0886
  261MOL0     H34441   4.515  10.154   0.164 -1.1131  2.3842 -0.2956
  261MOL0     H34442   4.313  10.558   0.218 -1.1204  0.8443 -0.2391
  261MOL0     H34443   4.349  10.519   0.382  0.3583 -0.5484  0.3233
  261MOL0     H34444   4.133  10.344   0.363 -1.0937 -0.3144  0.5318
  261MOL0     H34445   4.101  10.515   0.399  0.0335 -0.2978  0.3828
  261MOL0     H34446   4.129  10.436   0.113  0.0042  0.1927 -0.1751
  261MOL0     H34447   4.038  10.563   0.185  1.0740  0.4211  0.2917
  261MOL0     H34448   3.872  10.418   0.105 -1.4927 -2.4517  0.4491
  261MOL0     H34449   3.926  10.287   0.204  0.1725 -0.2427 -1.1186
  261MOL0     H34450   3.759  10.557   0.498  0.2798  0.2131 -0.2485
  261MOL0     H34451   4.372  10.363   0.510 -0.9090 -1.7247  2.1527
  261MOL0     H34452   4.510  10.218   0.655 -3.0960 -0.9309 -0.1857
  262MOL0     O34453   5.714   7.766   0.618 -0.3451  0.5185 -0.2379
  262MOL0     C34454   5.759   7.845   0.543  0.0744 -0.5594  0.6589
  262MOL0     O34455   5.708   7.966   0.514 -0.6555  0.4899  0.2950
  262MOL0     C34456   5.600   8.027   0.577  0.7582 -0.6275 -0.2505
  262MOL0     C34457   5.618   8.159   0.596 -0.1524 -0.1368  0.2774
  262MOL0     C34458   5.516   8.240   0.644 -0.9900 -0.1521 -0.1631
  262MOL0     C34459   5.387   8.189   0.666  0.3578  0.1370  1.0074
  262MOL0     O34460   5.272   8.255   0.698  0.7340 -0.1997 -0.0492
  262MOL0     C34461   5.258   8.388   0.644  1.1060  0.1695 -0.9657
  262MOL0     C34462   5.263   8.400   0.487  0.3307 -0.1886 -0.1656
  262MOL0     C34463   5.238   8.549   0.438  0.1082 -0.1046 -0.4926
  262MOL0     C34464   5.107   8.606   0.495  0.4947 -0.2268 -0.1846
  262MOL0     C34465   4.990   8.571   0.405 -0.3740 -0.4312  0.0678
  262MOL0     C34466   4.859   8.639   0.446 -0.5286  0.1164 -0.4407
  262MOL0     C34467   4.752   8.596   0.348  0.3744  0.4578  0.5812
  262MOL0     C34468   4.689   8.454   0.387 -0.1643  0.5178 -0.4187
  262MOL0     N34469   4.585   8.415   0.294 -0.5318  0.1971 -0.1680
  262MOL0     C34470   4.571   8.289   0.243  0.5058  1.0533 -0.1074
  262MOL0     C34471   4.450   8.294   0.190 -0.0057  0.3114  0.5712
  262MOL0     C34472   4.365   8.185   0.129  0.2240  0.7315 -0.4608
  262MOL0     C34473   4.269   8.148   0.247  0.3011  0.0540  0.6499
  262MOL0     C34474   4.167   8.035   0.207 -0.7258 -0.0270  0.2919
  262MOL0     C34475   4.096   8.061   0.077  0.1413 -0.8921  0.7988
  262MOL0     O34476   3.996   7.955   0.061  0.1530 -0.4889 -0.4045
  262MOL0     C34477   3.884   7.972  -0.015  0.6825  0.1480 -0.4072
  262MOL0     C34478   3.854   8.082  -0.095  0.7472  0.0127  0.3535
  262MOL0     C34479   3.734   8.095  -0.159 -0.2597  1.0687  0.1623
  262MOL0     C34480   3.644   7.987  -0.157 -0.0153  0.8069  0.9620
  262MOL0     C34481   3.521   8.000  -0.234 -0.2857 -0.1641 -0.1834
  262MOL0     O34482   3.506   8.105  -0.317  0.4378 -0.5227 -0.6570
  262MOL0     C34483   3.383   8.117  -0.388 -0.5094 -0.2594 -0.4178
  262MOL0     C34484   3.269   8.173  -0.333  0.1934  0.0558 -0.4331
  262MOL0     C34485   3.142   8.179  -0.404 -0.6266 -0.1977  0.0019
  262MOL0     C34486   3.139   8.133  -0.535 -0.1468 -0.2998 -0.2261
  262MOL0     O34487   3.035   8.148  -0.618  0.1426  0.1220  0.3707
  262MOL0     C34488   2.906   8.171  -0.548 -0.1946 -0.3065  0.4516
  262MOL0     C34489   2.789   8.130  -0.646  0.1403 -0.2308  0.1557
  262MOL0     C34490   2.782   8.169  -0.793  0.7049 -0.4361 -1.5193
  262MOL0     C34491   2.806   8.324  -0.813 -0.1961 -0.7264  0.6420
  262MOL0     C34492   2.746   8.381  -0.936  0.2591 -0.7260 -0.8863
  262MOL0     C34493   2.588   8.383  -0.925  1.4331 -0.0099  1.4284
  262MOL0     C34494   2.530   8.470  -1.047  0.3161 -0.1660  0.5439
  262MOL0     C34495   2.380   8.468  -1.070 -1.0446 -0.0196 -0.0490
  262MOL0    Cl34496   2.312   8.315  -1.114  0.4546 -0.1538  0.5949
  262MOL0     C34497   3.253   8.074  -0.586 -0.3102 -0.1043 -0.0946
  262MOL0     C34498   3.377   8.066  -0.517 -0.2907 -0.5315 -0.1173
  262MOL0     O34499   3.435   7.911  -0.212  0.1043 -0.2595 -0.4607
  262MOL0     C34500   3.666   7.875  -0.078  0.2693  0.5827 -0.2535
  262MOL0     C34501   3.788   7.861  -0.006 -0.2135 -0.5135 -0.6401
  262MOL0     N34502   4.399   8.425   0.202  0.1981  1.2372  0.3887
  262MOL0     N34503   4.487   8.497   0.259  0.2171 -0.6418 -0.0786
  262MOL0     C34504   5.371   8.053   0.660 -0.7409 -0.5289 -0.2587
  262MOL0     C34505   5.477   7.972   0.612 -0.3961  0.7033  0.4918
  262MOL0     C34506   5.870   7.788   0.466 -0.3505  1.3214  0.0680
  262MOL0     C34507   5.925   7.857   0.351  1.1828  0.4046 -0.5579
  262MOL0     C34508   6.040   7.802   0.290 -0.4524  0.9610 -0.6514
  262MOL0     C34509   6.110   7.690   0.337 -0.5371  0.8450  0.7421
  262MOL0     O34510   6.231   7.653   0.279  0.5419  0.2326  0.4690
  262MOL0     C34511   6.273   7.515   0.268  0.6660  0.0658  1.0281
  262MOL0     C34512   6.345   7.502   0.137  1.1830  0.1528 -0.1629
  262MOL0     C34513   6.252   7.497   0.022  0.1592  0.2502 -0.0511
  262MOL0     C34514   6.174   7.369   0.012  0.0592  0.5293  0.8019
  262MOL0     C34515   6.036   7.378   0.069 -0.1208  0.4338  1.0327
  262MOL0     C34516   5.922   7.379   0.115 -0.0549 -0.1789  0.1732
  262MOL0     C34517   6.049   7.616   0.432 -0.2248  0.0452  1.1483
  262MOL0     C34518   5.933   7.662   0.496  0.3287 -0.0677 -0.2656
  262MOL0     H34519   5.714   8.193   0.559  0.2548 -0.9804  0.5323
  262MOL0     H34520   5.546   8.343   0.658  1.4610 -0.7376 -0.7179
  262MOL0     H34521   5.341   8.447   0.684 -1.2199  1.8353  1.8252
  262MOL0     H34522   5.166   8.427   0.687  0.9994 -0.5161 -0.5724
  262MOL0     H34523   5.192   8.327   0.446 -2.0935  2.4954 -1.0496
  262MOL0     H34524   5.360   8.364   0.453  0.4347  2.0610 -2.6052
  262MOL0     H34525   5.231   8.551   0.329 -4.8842  2.3335 -0.3704
  262MOL0     H34526   5.324   8.612   0.464 -0.2581 -0.7308  2.7106
  262MOL0     H34527   5.074   8.580   0.596 -2.2905 -0.2869 -1.0083
  262MOL0     H34528   5.114   8.715   0.502 -1.4281 -0.0333 -0.5704
  262MOL0     H34529   4.972   8.463   0.416 -2.5877 -0.2912 -1.5216
  262MOL0     H34530   5.026   8.604   0.307 -0.8723  1.9257  0.6258
  262MOL0     H34531   4.874   8.747   0.451  1.9833 -0.2128  0.5747
  262MOL0     H34532   4.813   8.609   0.541 -2.3177  0.5148 -1.1376
  262MOL0     H34533   4.667   8.665   0.348 -1.0907 -1.2181 -1.4728
  262MOL0     H34534   4.794   8.587   0.248 -1.6412  1.2066 -0.3918
  262MOL0     H34535   4.649   8.456   0.489  1.9859 -0.8392  0.5245
  262MOL0     H34536   4.763   8.374   0.394 -1.9748 -1.2254 -0.2692
  262MOL0     H34537   4.642   8.207   0.239  1.3172  1.8080 -1.8907
  262MOL0     H34538   4.431   8.104   0.096  0.6503  0.7660  0.2805
  262MOL0     H34539   4.321   8.215   0.033  0.9254 -0.9666 -1.3635
  262MOL0     H34540   4.226   8.243   0.281  1.1393  1.1681 -1.2347
  262MOL0     H34541   4.342   8.119   0.322 -1.9391  1.9855  3.8581
  262MOL0     H34542   4.221   7.939   0.201  0.6530  0.4405  3.4202
  262MOL0     H34543   4.086   8.017   0.277 -0.0445 -1.5854  0.7354
  262MOL0     H34544   4.159   8.056  -0.012 -1.6525 -0.1244 -0.5798
  262MOL0     H34545   4.048   8.159   0.076 -3.3563 -2.4582  0.6205
  262MOL0     H34546   3.934   8.152  -0.115  0.1161  0.0160 -2.4878
  262MOL0     H34547   3.717   8.191  -0.206 -3.3943 -0.2720 -1.7429
  262MOL0     H34548   3.270   8.217  -0.234  1.8945  1.8558 -1.1762
  262MOL0     H34549   3.062   8.214  -0.339 -0.2995  1.2850 -0.3578
  262MOL0     H34550   2.891   8.277  -0.528  1.6252 -0.0005  0.3544
  262MOL0     H34551   2.906   8.126  -0.448  0.5795  0.6538  0.8974
  262MOL0     H34552   2.701   8.170  -0.596 -1.2609  0.7707 -2.9188
  262MOL0     H34553   2.778   8.021  -0.643  1.5926 -0.3959  0.9478
  262MOL0     H34554   2.686   8.141  -0.838  0.6506 -0.1237 -1.6040
  262MOL0     H34555   2.863   8.111  -0.839  0.8769 -2.1266  0.7483
  262MOL0     H34556   2.756   8.372  -0.728  2.3492  0.4270  1.5828
  262MOL0     H34557   2.912   8.351  -0.808 -0.5521  0.8261  0.4642
  262MOL0     H34558   2.789   8.334  -1.026  0.7054 -2.0486 -0.0090
  262MOL0     H34559   2.776   8.486  -0.933 -1.4966 -0.1982  2.0899
  262MOL0     H34560   2.541   8.403  -0.828  0.2929 -0.2935  0.9448
  262MOL0     H34561   2.557   8.279  -0.935  3.4325 -0.4967 -0.6669
  262MOL0     H34562   2.550   8.577  -1.043  1.8360 -0.3469 -0.9417
  262MOL0     H34563   2.575   8.419  -1.133 -1.0895 -0.8321  0.1633
  262MOL0     H34564   2.374   8.550  -1.143  2.3500  2.4196  2.0950
  262MOL0     H34565   2.326   8.501  -0.980 -2.7002 -0.0080 -0.9985
  262MOL0     H34566   3.241   8.036  -0.687 -1.1103 -0.5845  0.1710
  262MOL0     H34567   3.472   8.033  -0.556 -0.1228 -0.9744  0.6551
  262MOL0     H34568   3.603   7.788  -0.075  2.6888 -1.2554  0.4454
  262MOL0     H34569   3.795   7.787   0.074  2.0592  0.9357  0.5956
  262MOL0     H34570   5.276   8.004   0.679 -0.4582 -0.9115  0.1740
  262MOL0     H34571   5.464   7.868   0.584 -1.5614  0.9120  0.1974
  262MOL0     H34572   5.880   7.952   0.327 -0.8097 -1.1082 -3.3403
  262MOL0     H34573   6.099   7.863   0.222  0.3153 -0.8786 -1.7012
  262MOL0     H34574   6.191   7.443   0.278 -1.2177  2.2615  2.4033
  262MOL0     H34575   6.335   7.491   0.355 -1.0341 -0.5419  2.1286
  262MOL0     H34576   6.415   7.586   0.144  0.2192  0.8262  2.3161
  262MOL0     H34577   6.406   7.411   0.138 -2.5093 -2.5329 -0.5839
  262MOL0     H34578   6.313   7.513  -0.067  1.3228 -1.1719  0.4573
  262MOL0     H34579   6.186   7.583   0.036 -1.8696 -1.5083  2.0350
  262MOL0     H34580   6.147   7.358  -0.093 -2.6117  1.0349  1.3830
  262MOL0     H34581   6.226   7.277   0.042 -0.2879  0.0087 -0.1339
  262MOL0     H34582   5.819   7.378   0.145  0.5781  0.6536  2.6231
  262MOL0     H34583   6.101   7.525   0.458  1.3964 -0.1016 -2.0758
  262MOL0     H34584   5.896   7.602   0.578 -1.5739 -1.1244 -1.8114
  263MOL0     O34585   8.521  10.521  10.990  0.1308 -0.4212 -0.2299
  263MOL0     C34586   8.550  10.608  11.078 -0.6740  0.2226 -0.2229
  263MOL0     O34587   8.453  10.656  11.169 -0.8330 -0.5714  0.7729
  263MOL0     C34588   8.329  10.598  11.162 -0.4873  0.1364  0.2599
  263MOL0     C34589   8.219  10.671  11.126  0.3990  0.2536 -0.1922
  263MOL0     C34590   8.078  10.641  11.131  0.3171  0.4422  0.9367
  263MOL0     C34591   8.054  10.515  11.179  0.1783 -0.4731  0.5502
  263MOL0     O34592   7.926  10.478  11.196 -0.1501  0.2073 -0.1126
  263MOL0     C34593   7.880  10.338  11.183 -1.7201  0.3555  0.3305
  263MOL0     C34594   7.740  10.297  11.242 -0.2027  0.0575 -0.0768
  263MOL0     C34595   7.695  10.156  11.211 -0.5456  0.5587  0.1408
  263MOL0     C34596   7.559  10.132  11.257  0.4646  0.0429 -0.4369
  263MOL0     C34597   7.501   9.994  11.202 -0.1580  0.8087  0.2762
  263MOL0     C34598   7.352   9.972  11.237 -0.1076 -0.7616 -0.0208
  263MOL0     C34599   7.295   9.850  11.163  0.7591  0.3493  0.4790
  263MOL0     C34600   7.382   9.716  11.162 -0.1898  1.4573  0.3467
  263MOL0     N34601   7.412   9.677  11.302 -0.2878 -0.3917 -0.3635
  263MOL0     C34602   7.521   9.717  11.391 -0.0709  0.6601 -0.0005
  263MOL0     C34603   7.472   9.697  11.517 -0.4077  0.0976  0.2405
  263MOL0     C34604   7.534   9.726  11.645  0.0600 -0.6570 -0.4342
  263MOL0     C34605   7.548   9.878  11.646  0.5104 -0.2069  0.2579
  263MOL0     C34606   7.561   9.938  11.789  0.2793  0.5551  0.3717
  263MOL0     C34607   7.588  10.087  11.777  0.6887 -0.4761 -0.9165
  263MOL0     O34608   7.701  10.126  11.713  0.6622  0.6454  0.3795
  263MOL0     C34609   7.797  10.204  11.766 -0.4060  0.5191  0.0509
  263MOL0     C34610   7.930  10.205  11.710 -0.2554  0.7944 -0.5179
  263MOL0     C34611   8.026  10.299  11.753  0.1407  0.2842  0.3405
  263MOL0     C34612   8.013  10.389  11.858 -0.2416 -0.5718 -0.4462
  263MOL0     C34613   8.118  10.488  11.885  0.3676  0.2700  0.1530
  263MOL0     O34614   8.250  10.462  11.841  1.0315  0.1696 -0.4809
  263MOL0     C34615   8.357  10.541  11.884  0.4537  0.0811  0.6850
  263MOL0     C34616   8.353  10.679  11.917  0.6730 -0.0591 -0.6400
  263MOL0     C34617   8.464  10.757  11.957 -0.5107  0.1906  0.1006
  263MOL0     C34618   8.597  10.698  11.960  0.4591  0.3542  0.2011
  263MOL0     O34619   8.704  10.770  12.003  0.0974 -0.1759  0.7489
  263MOL0     C34620   8.837  10.733  11.946  1.4861  0.1712 -0.0712
  263MOL0     C34621   8.921  10.848  11.997 -0.1388 -1.2549 -0.0328
  263MOL0     C34622   9.061  10.857  11.950 -0.2157  0.0391  0.0584
  263MOL0     C34623   9.147  10.951  12.049 -0.2828 -0.9997 -0.1576
  263MOL0     C34624   9.287  10.926  12.016 -0.4030  0.2102  0.0801
  263MOL0     C34625   9.393  11.012  12.084  0.0385  0.5691  0.2587
  263MOL0     C34626   9.534  10.975  12.026 -0.5776  0.0428 -0.0510
  263MOL0     C34627   9.649  11.016  12.127 -0.6633 -1.0096 -0.0488
  263MOL0    Cl34628   9.646  10.920  12.270  0.4636  0.1335 -1.1401
  263MOL0     C34629   8.611  10.566  11.915  0.0620  0.4781 -0.2322
  263MOL0     C34630   8.490  10.491  11.877  0.0949 -0.3426  0.5089
  263MOL0     O34631   8.086  10.581  11.957  0.0076 -0.3298 -0.4732
  263MOL0     C34632   7.883  10.387  11.909 -0.3754  0.2352  0.5688
  263MOL0     C34633   7.785  10.296  11.868 -0.3020 -1.2075  0.1186
  263MOL0     N34634   7.347   9.645  11.501  0.4712  0.1616  0.7651
  263MOL0     N34635   7.314   9.626  11.380 -0.1724 -0.4380  0.7795
  263MOL0     C34636   8.162  10.426  11.206 -0.4050 -0.0468  0.3096
  263MOL0     C34637   8.300  10.473  11.206 -0.9319  0.1148 -0.7043
  263MOL0     C34638   8.686  10.660  11.085  1.1133 -1.1339  0.6043
  263MOL0     C34639   8.786  10.603  11.010 -0.2689 -0.4699  0.5538
  263MOL0     C34640   8.915  10.648  11.009 -0.6908 -0.5742  0.1497
  263MOL0     C34641   8.951  10.755  11.091  1.1440 -0.6508  0.1908
  263MOL0     O34642   9.087  10.799  11.107  0.3243 -0.0672 -0.1010
  263MOL0     C34643   9.136  10.833  11.234  0.0310  0.0266 -0.8137
  263MOL0     C34644   9.160  10.986  11.235  0.3720 -1.0114  1.1725
  263MOL0     C34645   9.278  11.024  11.151 -0.0962 -1.1083 -0.4592
  263MOL0     C34646   9.414  11.024  11.244  0.0016 -0.1422  0.8316
  263MOL0     C34647   9.517  11.106  11.173 -0.3957  0.6706  0.6160
  263MOL0     C34648   9.585  11.186  11.122 -0.0174 -0.7569 -0.1161
  263MOL0     C34649   8.849  10.807  11.174  0.1427 -0.4417 -0.0037
  263MOL0     C34650   8.715  10.758  11.171 -0.7907  0.0882  0.6693
  263MOL0     H34651   8.237  10.771  11.087 -0.0398  0.8398  1.0493
  263MOL0     H34652   8.000  10.707  11.095 -0.3790  0.3722  2.2381
  263MOL0     H34653   7.949  10.263  11.222 -1.0750  1.1597  0.7657
  263MOL0     H34654   7.886  10.321  11.075  1.3037 -1.4805  0.6748
  263MOL0     H34655   7.658  10.361  11.208 -0.8559 -2.3283 -3.5147
  263MOL0     H34656   7.746  10.297  11.351 -3.2644 -4.2501  0.3410
  263MOL0     H34657   7.753  10.081  11.265  1.9956  2.3106 -0.0210
  263MOL0     H34658   7.725  10.134  11.108  2.0729  1.8067  0.5731
  263MOL0     H34659   7.548  10.140  11.365 -0.6441  0.8425 -0.5804
  263MOL0     H34660   7.493  10.212  11.221  1.3478  1.3574  0.7439
  263MOL0     H34661   7.571   9.921  11.243  1.8308  2.3250 -0.2675
  263MOL0     H34662   7.512  10.000  11.093  2.1959  1.3505  0.4796
  263MOL0     H34663   7.288  10.050  11.194  0.1046  0.2058  1.3493
  263MOL0     H34664   7.330   9.968  11.344  2.6710  3.9893  1.0178
  263MOL0     H34665   7.195   9.829  11.201 -0.1801 -0.1241 -2.0344
  263MOL0     H34666   7.298   9.876  11.056  1.4268 -1.8033 -0.0801
  263MOL0     H34667   7.472   9.718  11.099  0.8733 -0.2954  1.7320
  263MOL0     H34668   7.318   9.641  11.115 -0.1294  1.0707  0.8844
  263MOL0     H34669   7.616   9.761  11.360 -0.6425  2.5302  0.7635
  263MOL0     H34670   7.634   9.684  11.651  0.4422  0.1903 -0.7637
  263MOL0     H34671   7.471   9.689  11.727 -0.2338 -0.2607 -0.4808
  263MOL0     H34672   7.466   9.921  11.588  2.4595 -0.4535 -2.9391
  263MOL0     H34673   7.634   9.898  11.581  1.3897 -4.2818 -0.0913
  263MOL0     H34674   7.473   9.926  11.853 -0.2412  0.6127 -0.3269
  263MOL0     H34675   7.642   9.886  11.840  0.0840  0.9943  1.1580
  263MOL0     H34676   7.585  10.134  11.876  0.1101  2.6785 -2.2959
  263MOL0     H34677   7.503  10.132  11.725  3.0897  0.2194 -4.6211
  263MOL0     H34678   7.946  10.138  11.625  2.2834  0.3939  0.1826
  263MOL0     H34679   8.117  10.298  11.694 -0.7838 -1.3496 -1.1331
  263MOL0     H34680   8.262  10.739  11.913  1.3743  0.9500 -2.5745
  263MOL0     H34681   8.453  10.861  11.984  1.3071  0.2403  0.7737
  263MOL0     H34682   8.828  10.732  11.837 -1.9764  0.9475  0.1023
  263MOL0     H34683   8.867  10.633  11.979  0.4546 -0.8095 -1.8974
  263MOL0     H34684   8.925  10.833  12.105  0.2148  2.4198  0.5889
  263MOL0     H34685   8.877  10.946  11.974  2.3863 -0.2376 -0.9313
  263MOL0     H34686   9.072  10.879  11.843  0.7426 -1.8185 -0.2584
  263MOL0     H34687   9.099  10.755  11.961 -1.4986 -1.0961 -4.1846
  263MOL0     H34688   9.127  11.057  12.030  0.2906 -0.6777  0.9909
  263MOL0     H34689   9.120  10.941  12.154 -3.3692 -1.5215 -0.9106
  263MOL0     H34690   9.304  10.936  11.909 -0.4626 -1.6987 -0.1409
  263MOL0     H34691   9.314  10.821  12.030  4.8196  0.9707 -2.0434
  263MOL0     H34692   9.389  11.019  12.193 -1.9101  2.8327  0.1453
  263MOL0     H34693   9.374  11.112  12.044 -0.6779 -0.7356 -2.9732
  263MOL0     H34694   9.545  10.867  12.022 -0.5280  0.0777 -1.1900
  263MOL0     H34695   9.548  11.024  11.929 -0.3765  2.0319  0.9195
  263MOL0     H34696   9.634  11.120  12.155 -1.8192 -1.6910  2.1004
  263MOL0     H34697   9.746  11.014  12.077 -0.4291  0.4974  0.3155
  263MOL0     H34698   8.709  10.522  11.898  1.9010  4.4111 -0.7709
  263MOL0     H34699   8.497  10.387  11.847  1.1326 -0.3455  0.7232
  263MOL0     H34700   7.866  10.473  11.974  2.3637 -2.0328  4.7123
  263MOL0     H34701   7.689  10.311  11.916  0.5413 -1.3459  1.9101
  263MOL0     H34702   8.143  10.330  11.253 -0.0552  0.2419  1.0538
  263MOL0     H34703   8.373  10.403  11.244  0.3985  0.8488 -1.8137
  263MOL0     H34704   8.765  10.520  10.943  0.3607 -0.7547  0.7092
  263MOL0     H34705   8.995  10.611  10.946  1.1577  0.1040  1.9763
  263MOL0     H34706   9.239  10.798  11.241  0.3028  0.8728 -0.3579
  263MOL0     H34707   9.078  10.792  11.318  1.7522 -1.4627 -0.2891
  263MOL0     H34708   9.079  11.041  11.187  1.8855 -0.9871 -1.5285
  263MOL0     H34709   9.157  11.024  11.337 -0.9598  1.2416  0.3638
  263MOL0     H34710   9.257  11.124  11.113 -1.7782 -1.9697 -1.9326
  263MOL0     H34711   9.290  10.959  11.063 -0.0264 -1.9884  0.1862
  263MOL0     H34712   9.399  11.067  11.344 -0.8737  1.0569  0.2105
  263MOL0     H34713   9.456  10.924  11.264  3.1569  0.8987  0.0072
  263MOL0     H34714   9.641  11.274  11.097 -0.6235  0.1640  1.6065
  263MOL0     H34715   8.862  10.899  11.230  0.0758  0.5900 -1.6227
  263MOL0     H34716   8.647  10.805  11.241  1.6123  0.5845  2.8349
  264MOL0     O34717   2.880  11.282   2.674  0.0379 -0.2664  0.3805
  264MOL0     C34718   2.831  11.173   2.659 -0.0278 -0.4213  0.7722
  264MOL0     O34719   2.889  11.057   2.686 -0.3736  0.8186 -0.3436
  264MOL0     C34720   3.019  11.048   2.734 -0.6116 -0.9481  0.3237
  264MOL0     C34721   3.099  10.947   2.680  0.0968  0.1173 -0.2949
  264MOL0     C34722   3.232  10.919   2.721  0.3944  0.0512  0.3034
  264MOL0     C34723   3.286  10.989   2.828  0.5368 -0.7379 -0.1463
  264MOL0     O34724   3.407  10.979   2.885 -0.3376  0.1315 -0.0848
  264MOL0     C34725   3.499  10.881   2.832 -0.7245 -0.3536 -0.9475
  264MOL0     C34726   3.644  10.911   2.863  0.3657  0.7459  0.1311
  264MOL0     C34727   3.692  11.048   2.797  0.6280 -0.4110  0.0057
  264MOL0     C34728   3.674  11.052   2.643 -0.0119  0.7441 -0.3399
  264MOL0     C34729   3.749  11.166   2.580 -0.6686 -0.0713  1.0560
  264MOL0     C34730   3.716  11.305   2.634  0.2634 -0.4737  0.6045
  264MOL0     C34731   3.574  11.349   2.590 -0.7963 -0.1651  0.1958
  264MOL0     C34732   3.564  11.506   2.613  0.4520  0.4692 -0.0727
  264MOL0     N34733   3.472  11.572   2.526  0.8042 -0.1774 -0.7566
  264MOL0     C34734   3.379  11.668   2.558  0.6566 -0.2489 -0.4673
  264MOL0     C34735   3.345  11.726   2.441  0.7438  1.2275 -0.0999
  264MOL0     C34736   3.234  11.827   2.413 -0.0685 -0.2716 -0.3879
  264MOL0     C34737   3.122  11.772   2.323 -0.1159  0.4189  0.4258
  264MOL0     C34738   3.009  11.697   2.406 -0.6675 -0.7812  0.8112
  264MOL0     C34739   2.885  11.648   2.328  0.1419  0.5780 -0.3159
  264MOL0     O34740   2.822  11.757   2.264  0.5326  0.3856  0.4758
  264MOL0     C34741   2.686  11.774   2.286  0.0080 -0.3010  0.4841
  264MOL0     C34742   2.600  11.665   2.311  1.4696 -0.3751 -0.1598
  264MOL0     C34743   2.465  11.692   2.332 -0.2679 -0.2215  0.9704
  264MOL0     C34744   2.412  11.826   2.318  0.6461  0.3612 -0.7388
  264MOL0     C34745   2.268  11.848   2.347  0.4773 -0.3744  0.4278
  264MOL0     O34746   2.243  11.987   2.382 -0.3672  0.0778  0.0907
  264MOL0     C34747   2.114  12.011   2.438  0.7620  0.0025  0.1552
  264MOL0     C34748   2.034  12.102   2.368  0.3669  0.1461  1.1557
  264MOL0     C34749   1.921  12.153   2.442 -0.1847 -0.8858  1.7003
  264MOL0     C34750   1.893  12.106   2.570  0.6208 -0.4427 -0.1182
  264MOL0     O34751   1.783  12.143   2.652  0.5914 -0.1708 -0.1632
  264MOL0     C34752   1.728  12.269   2.628 -0.5110 -0.2254  0.5114
  264MOL0     C34753   1.622  12.315   2.720  0.1351 -0.8037 -0.1186
  264MOL0     C34754   1.665  12.315   2.867  0.0428  0.6425  0.4841
  264MOL0     C34755   1.562  12.368   2.955 -0.2741  0.2326 -0.4429
  264MOL0     C34756   1.604  12.355   3.101 -0.3089  0.4698 -0.1326
  264MOL0     C34757   1.526  12.438   3.204  0.2261  0.4033 -0.5137
  264MOL0     C34758   1.573  12.402   3.349 -0.2964 -0.1220  0.6765
  264MOL0     C34759   1.472  12.472   3.447  0.1031 -0.5098 -1.4391
  264MOL0    Cl34760   1.507  12.414   3.611  0.2429  0.3184  0.2000
  264MOL0     C34761   1.983  12.030   2.641  0.0118  1.0532 -0.4569
  264MOL0     C34762   2.090  11.976   2.579  0.6317 -0.0566 -0.7107
  264MOL0     O34763   2.196  11.755   2.378 -0.7224 -0.3069 -0.5498
  264MOL0     C34764   2.494  11.932   2.307 -0.1123 -1.3134  0.3316
  264MOL0     C34765   2.630  11.907   2.273  0.1152  0.1219 -0.0297
  264MOL0     N34766   3.402  11.649   2.345 -0.7439  0.6030 -0.4750
  264MOL0     N34767   3.481  11.567   2.400  0.4353 -0.8282 -0.4251
  264MOL0     C34768   3.211  11.109   2.867 -0.9042  0.3777  0.7364
  264MOL0     C34769   3.078  11.133   2.825 -0.2304 -0.6573  0.7939
  264MOL0     C34770   2.693  11.171   2.600  0.5842 -0.5263  0.0218
  264MOL0     C34771   2.616  11.293   2.599  0.2156 -0.2456  0.2852
  264MOL0     C34772   2.498  11.291   2.542 -0.2245 -0.0371  0.4613
  264MOL0     C34773   2.437  11.178   2.494  0.3985  0.1035 -0.2242
  264MOL0     O34774   2.310  11.194   2.432  0.1251  0.3062 -0.1774
  264MOL0     C34775   2.235  11.082   2.398  0.7662 -0.3239  0.9705
  264MOL0     C34776   2.102  11.128   2.330 -0.6367 -1.1541 -0.9037
  264MOL0     C34777   2.123  11.179   2.188 -0.8504 -0.5277 -0.8974
  264MOL0     C34778   1.983  11.195   2.114 -0.5802 -0.0372 -1.0223
  264MOL0     C34779   1.922  11.068   2.075 -0.9414  0.4567  0.7476
  264MOL0     C34780   1.872  10.971   2.043  0.5733 -0.4876 -0.4442
  264MOL0     C34781   2.507  11.050   2.502 -0.2043 -0.1693  0.9136
  264MOL0     C34782   2.639  11.052   2.546 -0.8763 -0.2886  1.2236
  264MOL0     H34783   3.049  10.886   2.605  1.7900 -0.4980 -0.9732
  264MOL0     H34784   3.288  10.840   2.672  0.7189  0.4194  0.0743
  264MOL0     H34785   3.490  10.881   2.723 -1.2171 -0.8953 -0.9138
  264MOL0     H34786   3.469  10.783   2.872 -2.2915  1.2375  2.1864
  264MOL0     H34787   3.692  10.817   2.835  0.8561 -0.0294  3.2484
  264MOL0     H34788   3.651  10.921   2.972  0.6934  1.7148  0.0319
  264MOL0     H34789   3.798  11.063   2.822  0.6052  0.4525 -0.3801
  264MOL0     H34790   3.634  11.127   2.844 -0.0960 -0.1408 -1.3060
  264MOL0     H34791   3.717  10.958   2.606 -1.9544 -1.1135  1.7722
  264MOL0     H34792   3.567  11.055   2.623  0.6615  2.6200 -4.6758
  264MOL0     H34793   3.724  11.161   2.473 -1.1599  0.2610  1.1535
  264MOL0     H34794   3.857  11.148   2.587 -0.3665  2.1795  3.1908
  264MOL0     H34795   3.782  11.376   2.583 -2.2763  1.8619  0.3398
  264MOL0     H34796   3.730  11.310   2.742 -1.6168  0.5350  0.8445
  264MOL0     H34797   3.555  11.319   2.487 -1.4311 -1.3223  0.6278
  264MOL0     H34798   3.499  11.296   2.650 -2.7988 -1.9637 -3.5171
  264MOL0     H34799   3.657  11.560   2.590  0.1145  1.6792  1.2870
  264MOL0     H34800   3.544  11.518   2.720  1.6810  0.5610  0.1630
  264MOL0     H34801   3.342  11.683   2.659 -0.7683  0.4287 -1.0583
  264MOL0     H34802   3.290  11.917   2.382  2.4769 -1.0041  1.6826
  264MOL0     H34803   3.185  11.847   2.509  2.6723  0.5159  0.9743
  264MOL0     H34804   3.169  11.710   2.246 -1.1219  0.3739 -0.1821
  264MOL0     H34805   3.073  11.855   2.271  0.4617  0.9637  0.7354
  264MOL0     H34806   3.051  11.608   2.453 -2.1512 -2.6376 -1.1865
  264MOL0     H34807   2.974  11.776   2.473 -0.2326 -0.6322  0.8653
  264MOL0     H34808   2.822  11.606   2.407  1.6324 -1.7260 -0.2522
  264MOL0     H34809   2.909  11.558   2.270 -5.2160 -1.8706  0.6855
  264MOL0     H34810   2.624  11.559   2.323  1.9898 -0.1897  0.4659
  264MOL0     H34811   2.393  11.615   2.360  1.0071 -0.6083  3.4858
  264MOL0     H34812   2.057  12.136   2.268  0.2681 -0.7060  0.8272
  264MOL0     H34813   1.856  12.220   2.388  0.4448 -3.4267 -2.6263
  264MOL0     H34814   1.700  12.268   2.522  1.4288  0.7573 -0.0599
  264MOL0     H34815   1.816  12.334   2.634  1.2023 -2.2269 -1.3542
  264MOL0     H34816   1.536  12.250   2.702 -0.1798 -0.1322 -1.1067
  264MOL0     H34817   1.585  12.415   2.695  3.2584 -0.0472 -2.2295
  264MOL0     H34818   1.764  12.360   2.881  0.7252  0.1700 -2.2425
  264MOL0     H34819   1.681  12.207   2.883  1.8536  0.7331 -0.4459
  264MOL0     H34820   1.555  12.474   2.927  0.8008  0.3914 -0.1826
  264MOL0     H34821   1.456  12.346   2.939 -0.6762  0.5099  1.6339
  264MOL0     H34822   1.711  12.377   3.111 -0.4396  1.3330 -0.5522
  264MOL0     H34823   1.595  12.250   3.131  0.0596  0.9812  1.9196
  264MOL0     H34824   1.427  12.397   3.184  0.9664 -1.5544 -0.3302
  264MOL0     H34825   1.539  12.547   3.195 -1.3760  0.6135 -0.5284
  264MOL0     H34826   1.574  12.294   3.362 -0.2533 -0.0341  1.4292
  264MOL0     H34827   1.675  12.438   3.369  0.5478 -2.2549  0.4408
  264MOL0     H34828   1.368  12.456   3.415 -0.0515 -0.5132 -0.9375
  264MOL0     H34829   1.481  12.581   3.439 -1.4694 -0.3982 -2.1599
  264MOL0     H34830   1.950  12.007   2.742  0.9691 -2.8533 -0.9082
  264MOL0     H34831   2.163  11.916   2.633  1.0442  3.0178  2.6041
  264MOL0     H34832   2.459  12.032   2.284  0.3410 -1.3395 -0.5044
  264MOL0     H34833   2.703  11.982   2.246  1.6304 -0.7595  1.3627
  264MOL0     H34834   3.253  11.169   2.947  2.7775  1.6217 -1.8354
  264MOL0     H34835   3.007  11.208   2.860 -0.5847 -1.0779  0.9868
  264MOL0     H34836   2.661  11.389   2.621 -0.5837  0.8083 -2.2908
  264MOL0     H34837   2.445  11.385   2.552 -1.3437 -0.8461  2.8525
  264MOL0     H34838   2.218  11.022   2.487 -1.6042 -1.0420  0.1128
  264MOL0     H34839   2.286  11.018   2.325  0.6211  1.1576 -0.5011
  264MOL0     H34840   2.034  11.043   2.341  1.2136 -2.5149  0.8622
  264MOL0     H34841   2.063  11.214   2.385 -0.8073 -2.4478  1.0888
  264MOL0     H34842   2.187  11.108   2.134 -0.4134 -2.5505  2.0780
  264MOL0     H34843   2.178  11.274   2.191  0.8518 -1.4902 -0.1242
  264MOL0     H34844   1.913  11.243   2.183 -1.1887 -0.6029 -1.2323
  264MOL0     H34845   2.005  11.262   2.030  1.0685  1.5655  0.5891
  264MOL0     H34846   1.822  10.879   2.020  2.2583 -1.8282  1.0191
  264MOL0     H34847   2.462  10.960   2.462 -2.2234  0.0921  2.4334
  264MOL0     H34848   2.707  10.967   2.544  3.1943  2.6478  1.3245
  265MOL0     O34849  10.790   2.861   1.996 -0.9005  0.2379  0.4043
  265MOL0     C34850  10.760   2.757   2.057  0.9339  0.0904  0.5773
  265MOL0     O34851  10.653   2.743   2.149 -0.1481 -0.3471  0.3947
  265MOL0     C34852  10.580   2.860   2.176 -0.7357  0.5914 -0.7383
  265MOL0     C34853  10.604   2.927   2.294 -0.0691 -0.7735  0.0041
  265MOL0     C34854  10.539   3.042   2.324 -0.3771  0.0731  0.1956
  265MOL0     C34855  10.445   3.101   2.234 -0.7231  0.3471  0.4520
  265MOL0     O34856  10.401   3.236   2.250  0.3932  0.1977 -0.0843
  265MOL0     C34857  10.270   3.264   2.214 -0.4267  0.0649  0.0530
  265MOL0     C34858  10.207   3.384   2.273  0.5497 -0.2875  0.2460
  265MOL0     C34859  10.209   3.505   2.180 -0.2828 -0.0831 -0.8300
  265MOL0     C34860  10.151   3.637   2.245  0.6710  0.1485  0.3534
  265MOL0     C34861  10.159   3.744   2.131 -0.4796  0.0157  0.8453
  265MOL0     C34862  10.089   3.873   2.156 -0.7272 -0.7547 -0.1588
  265MOL0     C34863  10.059   3.963   2.035  0.0417  0.8020  0.0878
  265MOL0     C34864  10.190   4.024   1.973 -0.1233  0.2996 -0.5442
  265MOL0     N34865  10.163   4.130   1.888  0.5472  0.1521  0.2189
  265MOL0     C34866  10.200   4.144   1.757 -0.3202  0.4822  0.4823
  265MOL0     C34867  10.157   4.269   1.713  0.6918 -0.0039  0.3693
  265MOL0     C34868  10.176   4.340   1.583  0.1644 -0.8507 -0.6815
  265MOL0     C34869  10.034   4.369   1.530  0.1474 -0.4854 -0.1104
  265MOL0     C34870  10.053   4.396   1.387  1.3507 -1.1003  0.4809
  265MOL0     C34871   9.941   4.492   1.339 -0.0471  0.0539 -0.3442
  265MOL0     O34872   9.807   4.437   1.332  1.2374 -0.0426  0.6943
  265MOL0     C34873   9.690   4.506   1.301 -0.4782  0.1098 -0.3891
  265MOL0     C34874   9.568   4.446   1.337 -0.9472  0.3451 -0.1720
  265MOL0     C34875   9.449   4.514   1.330 -0.4963 -0.6254 -0.0790
  265MOL0     C34876   9.443   4.646   1.285 -0.6807  0.1046  0.2701
  265MOL0     C34877   9.318   4.720   1.258 -0.0513 -0.6474 -0.7530
  265MOL0     O34878   9.326   4.861   1.233 -0.4142 -0.3627  0.0261
  265MOL0     C34879   9.224   4.938   1.180 -0.5736 -0.1452  0.0589
  265MOL0     C34880   9.262   5.040   1.099  0.1582  0.3474 -0.4846
  265MOL0     C34881   9.164   5.125   1.042 -1.2077 -0.3995 -0.7713
  265MOL0     C34882   9.028   5.116   1.079  0.9906  0.7180 -0.5738
  265MOL0     O34883   8.924   5.193   1.033  0.2930  0.3353 -0.0762
  265MOL0     C34884   8.946   5.332   1.044 -0.0973  0.0739  0.4321
  265MOL0     C34885   8.817   5.399   0.979 -0.2146 -0.8226  0.1161
  265MOL0     C34886   8.706   5.392   1.088  0.2758  0.5732 -0.5027
  265MOL0     C34887   8.592   5.500   1.070  0.3366  0.2723 -0.6964
  265MOL0     C34888   8.514   5.533   1.207  0.3700  0.0377 -0.8018
  265MOL0     C34889   8.406   5.626   1.160  0.0685  0.1816  1.3384
  265MOL0     C34890   8.327   5.693   1.264  0.5686  0.1222 -0.0311
  265MOL0     C34891   8.191   5.734   1.206  0.1432  0.0529 -0.5078
  265MOL0    Cl34892   8.083   5.593   1.201  0.4332  0.5354  0.0220
  265MOL0     C34893   9.000   5.011   1.169 -0.9730  0.2519 -0.6490
  265MOL0     C34894   9.091   4.909   1.207  0.4165 -0.0896 -0.1936
  265MOL0     O34895   9.212   4.658   1.266 -0.7424  0.8778 -0.2141
  265MOL0     C34896   9.570   4.706   1.258 -0.3823  0.8571 -0.5330
  265MOL0     C34897   9.686   4.635   1.258  0.6481 -0.1506 -0.6437
  265MOL0     N34898  10.098   4.325   1.836  0.7767  0.1269  0.5965
  265MOL0     N34899  10.114   4.250   1.933  1.0890  1.0744  0.2977
  265MOL0     C34900  10.420   3.034   2.116 -1.2073 -0.4140  1.1846
  265MOL0     C34901  10.493   2.914   2.084  0.1307 -0.5708  0.8233
  265MOL0     C34902  10.823   2.632   2.016  0.4748 -0.2982 -0.5127
  265MOL0     C34903  10.773   2.512   2.067 -0.3606 -0.3524 -0.1151
  265MOL0     C34904  10.844   2.390   2.040  0.0087 -1.0419 -0.1340
  265MOL0     C34905  10.955   2.390   1.953 -0.3530  0.8054 -0.8388
  265MOL0     O34906  11.015   2.269   1.927  0.4060  0.2936  0.4505
  265MOL0     C34907  11.134   2.269   1.849  0.5042 -1.3148 -0.6312
  265MOL0     C34908  11.159   2.127   1.801 -0.2966  0.1939  0.0786
  265MOL0     C34909  11.220   2.025   1.907  0.2802  0.3530 -0.0082
  265MOL0     C34910  11.329   2.106   1.981  0.1127 -1.1428  0.6221
  265MOL0     C34911  11.410   2.016   2.058  0.1300  0.2010  0.0365
  265MOL0     C34912  11.472   1.943   2.132  0.6676  0.9072 -0.8584
  265MOL0     C34913  11.005   2.509   1.918 -0.2771 -0.2074  0.6543
  265MOL0     C34914  10.943   2.634   1.942  0.2774  0.3737 -0.3388
  265MOL0     H34915  10.672   2.882   2.366  2.1407  0.3563 -1.2570
  265MOL0     H34916  10.545   3.098   2.417  1.2428 -1.0208  0.7866
  265MOL0     H34917  10.217   3.176   2.253  0.1306  0.5692  2.0651
  265MOL0     H34918  10.252   3.272   2.107 -1.3106 -1.1980  0.0848
  265MOL0     H34919  10.258   3.405   2.368  1.9784  0.0268 -0.5618
  265MOL0     H34920  10.106   3.353   2.303  0.5413  0.6673  1.2850
  265MOL0     H34921  10.156   3.476   2.089  0.6153  0.8590 -1.6826
  265MOL0     H34922  10.312   3.535   2.158 -1.1812  3.1634 -1.1796
  265MOL0     H34923  10.050   3.621   2.285  0.3442  0.8980 -0.1491
  265MOL0     H34924  10.212   3.676   2.326  0.3344 -0.3505  0.8527
  265MOL0     H34925  10.118   3.707   2.037 -1.3911  4.9401 -1.0209
  265MOL0     H34926  10.264   3.772   2.122  0.3950 -2.9670  0.7153
  265MOL0     H34927  10.149   3.934   2.225 -0.8218  0.8572 -1.4304
  265MOL0     H34928   9.988   3.851   2.193 -1.1791  0.5628 -0.5424
  265MOL0     H34929   9.999   3.911   1.960 -0.5144  0.4858  0.7432
  265MOL0     H34930   9.996   4.050   2.060 -2.6456 -1.6544  2.7054
  265MOL0     H34931  10.236   3.946   1.911  0.5304  2.0843 -2.4254
  265MOL0     H34932  10.261   4.063   2.046 -1.7190 -0.7376  1.6519
  265MOL0     H34933  10.264   4.075   1.703 -0.3995  3.3851 -3.8565
  265MOL0     H34934  10.235   4.277   1.516 -0.4102 -1.7941 -0.3252
  265MOL0     H34935  10.234   4.431   1.602 -1.6216  0.7033 -2.2257
  265MOL0     H34936   9.995   4.461   1.575  0.3782 -0.7957  0.7368
  265MOL0     H34937   9.957   4.292   1.541 -2.9940  2.1571 -1.7470
  265MOL0     H34938  10.148   4.445   1.363  0.0097  1.0184 -0.7958
  265MOL0     H34939  10.049   4.306   1.325  0.2415 -0.5995 -0.2034
  265MOL0     H34940   9.980   4.539   1.248 -0.5570  0.1570 -0.5144
  265MOL0     H34941   9.924   4.582   1.399 -2.6070  0.7504 -1.9552
  265MOL0     H34942   9.564   4.343   1.372  0.0137  1.0201  2.0970
  265MOL0     H34943   9.368   4.457   1.375  0.4799 -1.7933  0.2685
  265MOL0     H34944   9.369   5.054   1.088  0.5050 -1.4607  0.2946
  265MOL0     H34945   9.206   5.196   0.971 -0.9523  0.1291 -0.1109
  265MOL0     H34946   9.030   5.371   0.987  0.3701  0.3706  1.3160
  265MOL0     H34947   8.957   5.355   1.150 -1.1924  0.8301  0.4007
  265MOL0     H34948   8.792   5.340   0.890  0.5737  1.5160 -1.7757
  265MOL0     H34949   8.838   5.504   0.957  3.4572 -1.2605  0.9385
  265MOL0     H34950   8.750   5.417   1.185 -0.8362 -1.5672  0.6344
  265MOL0     H34951   8.678   5.287   1.100  3.0191 -0.2403 -0.4687
  265MOL0     H34952   8.637   5.593   1.035  2.0835 -0.5595 -0.7432
  265MOL0     H34953   8.531   5.470   0.984  2.5909  1.1276 -2.6857
  265MOL0     H34954   8.584   5.582   1.276 -0.2472 -1.1138  0.7076
  265MOL0     H34955   8.469   5.446   1.255 -2.2241 -0.8945 -4.5258
  265MOL0     H34956   8.335   5.570   1.098  2.1405 -2.8626  1.4888
  265MOL0     H34957   8.453   5.704   1.100 -0.1823  0.2374  1.2115
  265MOL0     H34958   8.316   5.629   1.352 -1.1076 -0.7975 -0.8639
  265MOL0     H34959   8.376   5.785   1.297 -1.3201  0.2672  2.7919
  265MOL0     H34960   8.199   5.776   1.105 -0.6487  1.0816 -0.1655
  265MOL0     H34961   8.151   5.803   1.281  0.8100 -1.3121  1.1705
  265MOL0     H34962   8.901   5.001   1.212  0.0189 -1.1535  1.4958
  265MOL0     H34963   9.056   4.834   1.278 -1.6488  1.7781  0.8952
  265MOL0     H34964   9.575   4.804   1.212 -1.6091  0.9643 -0.4843
  265MOL0     H34965   9.783   4.681   1.247  0.9949 -1.5267 -4.6645
  265MOL0     H34966  10.363   3.059   2.027 -0.2361 -2.7380 -0.1696
  265MOL0     H34967  10.492   2.859   1.991  0.0553 -1.7925  1.5296
  265MOL0     H34968  10.694   2.511   2.141  0.9150  1.6637  1.3516
  265MOL0     H34969  10.795   2.305   2.087 -1.2915 -1.0221 -1.3877
  265MOL0     H34970  11.225   2.309   1.894  0.4985 -2.1728  0.1818
  265MOL0     H34971  11.119   2.337   1.765 -1.3617  1.2228  1.6060
  265MOL0     H34972  11.065   2.079   1.774  1.9722 -3.2438 -2.4980
  265MOL0     H34973  11.222   2.127   1.712 -0.7136  1.0265 -0.2267
  265MOL0     H34974  11.274   1.953   1.846  1.0989  1.6644 -0.8751
  265MOL0     H34975  11.139   1.980   1.965  0.1766 -1.8451 -1.7230
  265MOL0     H34976  11.404   2.138   1.908  0.5484  0.3542  1.6932
  265MOL0     H34977  11.292   2.186   2.046  3.6033 -1.1209  2.8081
  265MOL0     H34978  11.528   1.884   2.202  1.2002  2.8062  0.3835
  265MOL0     H34979  11.098   2.508   1.862 -0.8130 -0.2766 -0.2391
  265MOL0     H34980  10.977   2.734   1.916 -0.3053  0.0163 -2.7204
  266MOL0     O34981   6.982   1.944   9.168  0.0827  0.2323  0.0352
  266MOL0     C34982   6.889   1.865   9.144 -0.5187 -0.7384  0.9440
  266MOL0     O34983   6.879   1.792   9.028  0.2846 -0.0642  0.1831
  266MOL0     C34984   6.985   1.772   8.950 -0.5925 -0.0224  0.1207
  266MOL0     C34985   6.960   1.684   8.844 -0.8747  0.4950 -0.0511
  266MOL0     C34986   7.059   1.643   8.755 -0.7097 -0.0356  0.4708
  266MOL0     C34987   7.184   1.696   8.767 -0.2330  0.1405  0.5031
  266MOL0     O34988   7.289   1.654   8.687  0.3787 -0.6030 -0.7915
  266MOL0     C34989   7.269   1.672   8.542  0.5981  0.2120 -0.9159
  266MOL0     C34990   7.405   1.647   8.471 -0.0642 -0.7910  0.5168
  266MOL0     C34991   7.462   1.787   8.445  0.3175  0.4411 -1.0326
  266MOL0     C34992   7.603   1.761   8.391  0.2955  0.4350 -0.5702
  266MOL0     C34993   7.695   1.882   8.411  0.4276 -0.2416  0.0601
  266MOL0     C34994   7.846   1.856   8.359 -0.8760 -0.1475 -0.2064
  266MOL0     C34995   7.924   1.990   8.338  0.1224 -0.6834 -0.1469
  266MOL0     C34996   8.074   1.956   8.336  0.3631 -0.0570 -0.4205
  266MOL0     N34997   8.142   1.960   8.201  0.7715  0.2414  1.0898
  266MOL0     C34998   8.231   1.863   8.146  0.3891 -0.2750  0.2591
  266MOL0     C34999   8.274   1.918   8.032  0.0581 -0.1686  0.2750
  266MOL0     C35000   8.353   1.856   7.918 -0.2272 -0.0537  0.5196
  266MOL0     C35001   8.273   1.758   7.831  0.0833 -0.1228  0.2213
  266MOL0     C35002   8.371   1.719   7.715 -0.8114 -0.0474 -0.2852
  266MOL0     C35003   8.378   1.815   7.595  0.3005  0.1350  0.2187
  266MOL0     O35004   8.236   1.807   7.547 -1.0303 -0.0327  0.3954
  266MOL0     C35005   8.216   1.852   7.417 -0.0835  0.2968 -0.1825
  266MOL0     C35006   8.285   1.954   7.355 -0.1361 -1.1755 -1.0741
  266MOL0     C35007   8.250   1.992   7.219 -0.3634  0.4594 -0.7865
  266MOL0     C35008   8.155   1.917   7.138 -0.1899  0.6433 -0.3696
  266MOL0     C35009   8.131   1.954   6.999 -0.9111 -0.0909  0.8674
  266MOL0     O35010   8.078   1.860   6.922 -0.4418  0.1265 -0.7459
  266MOL0     C35011   8.039   1.880   6.788  0.3184  0.2207 -1.1109
  266MOL0     C35012   7.921   1.811   6.769 -0.4883 -0.4271  0.5155
  266MOL0     C35013   7.874   1.803   6.635 -0.3438  0.4581 -0.4393
  266MOL0     C35014   7.940   1.875   6.528  0.8550 -0.4414 -0.5691
  266MOL0     O35015   7.906   1.854   6.401 -0.0327 -0.1957  0.3996
  266MOL0     C35016   7.874   1.713   6.368  0.4288  0.6617  0.2420
  266MOL0     C35017   7.990   1.611   6.405  0.2917  0.6028 -0.1597
  266MOL0     C35018   7.996   1.468   6.342 -0.4332 -0.2662  0.5064
  266MOL0     C35019   7.868   1.394   6.375 -0.7430 -0.1056  0.3763
  266MOL0     C35020   7.852   1.247   6.344 -0.4115  0.2039  0.0971
  266MOL0     C35021   7.960   1.148   6.418  0.2091 -0.4307 -0.5981
  266MOL0     C35022   7.912   1.074   6.541 -0.0319  0.3470 -0.5150
  266MOL0     C35023   8.016   1.003   6.617 -0.4185  0.4902 -0.0313
  266MOL0    Cl35024   8.069   0.860   6.518  0.0883  0.3152  0.6736
  266MOL0     C35025   8.044   1.957   6.553 -0.0731 -0.4834 -1.0387
  266MOL0     C35026   8.101   1.947   6.685 -0.4250 -0.0370 -0.1732
  266MOL0     O35027   8.173   2.058   6.956  0.3080  0.1129  0.2436
  266MOL0     C35028   8.077   1.813   7.206 -0.5375  0.4491  0.0124
  266MOL0     C35029   8.114   1.786   7.345  0.3255  0.6781  0.4855
  266MOL0     N35030   8.215   2.044   8.022  0.9883  0.7629  0.2538
  266MOL0     N35031   8.139   2.070   8.124  0.3980  0.0043 -0.3017
  266MOL0     C35032   7.217   1.789   8.865 -0.3935  0.7901  0.1285
  266MOL0     C35033   7.121   1.823   8.954 -0.0257  0.4555 -0.1087
  266MOL0     C35034   6.769   1.880   9.233  0.0563  0.8030 -0.2882
  266MOL0     C35035   6.743   2.013   9.294  1.0834  0.7921  0.3440
  266MOL0     C35036   6.635   2.036   9.379  0.1322  1.4616  0.2522
  266MOL0     C35037   6.553   1.921   9.402  0.1351 -0.1731  0.3304
  266MOL0     O35038   6.453   1.925   9.496  0.4016  0.0937  0.5208
  266MOL0     C35039   6.383   2.046   9.508  0.9267 -1.0089  0.1392
  266MOL0     C35040   6.238   2.017   9.547 -0.2005 -1.1403  0.6346
  266MOL0     C35041   6.144   2.146   9.550 -0.6243  0.4796  0.7343
  266MOL0     C35042   5.993   2.109   9.522 -0.5548 -0.6793 -0.9488
  266MOL0     C35043   5.963   2.033   9.396 -0.1760  0.3107 -0.1058
  266MOL0     C35044   5.946   1.989   9.280  0.0048 -0.0788  0.0237
  266MOL0     C35045   6.576   1.799   9.341 -0.5862  0.0684 -1.2437
  266MOL0     C35046   6.682   1.771   9.254  1.3596  0.1914 -0.5740
  266MOL0     H35047   6.860   1.647   8.821 -1.2942  1.2038  0.5595
  266MOL0     H35048   7.043   1.569   8.678 -0.3755 -1.0498  1.3621
  266MOL0     H35049   7.226   1.768   8.512  0.1111  0.6129  0.9629
  266MOL0     H35050   7.199   1.593   8.511 -0.7888  0.4166  1.4569
  266MOL0     H35051   7.391   1.579   8.387 -1.0453 -0.6464  0.5532
  266MOL0     H35052   7.480   1.611   8.542  0.5941  2.5661  1.7276
  266MOL0     H35053   7.448   1.840   8.539 -3.6984 -1.8738 -0.0755
  266MOL0     H35054   7.397   1.841   8.375 -2.5226 -0.2465  0.8953
  266MOL0     H35055   7.658   1.687   8.450 -0.2120 -1.5649 -2.4750
  266MOL0     H35056   7.592   1.727   8.287  0.7105 -2.8626  0.3356
  266MOL0     H35057   7.694   1.911   8.517  0.0271 -0.5795  0.1530
  266MOL0     H35058   7.647   1.956   8.347  0.5583 -0.9576 -0.8957
  266MOL0     H35059   7.845   1.815   8.258 -0.7476 -0.8897  0.0852
  266MOL0     H35060   7.891   1.794   8.436 -1.4426 -0.3178 -0.0041
  266MOL0     H35061   7.891   2.035   8.244  2.4951  0.8718 -0.3047
  266MOL0     H35062   7.895   2.063   8.413 -1.0909 -0.2808 -0.9744
  266MOL0     H35063   8.085   1.858   8.383 -3.0509 -0.1973  0.3486
  266MOL0     H35064   8.126   2.027   8.401  2.3784 -1.2297 -0.6783
  266MOL0     H35065   8.259   1.768   8.192 -2.7923 -0.3719  2.2908
  266MOL0     H35066   8.445   1.805   7.948 -0.9702 -1.1336  0.9925
  266MOL0     H35067   8.381   1.947   7.863  0.7420  0.9561  2.5661
  266MOL0     H35068   8.183   1.802   7.786  1.9207  0.7405 -2.8875
  266MOL0     H35069   8.260   1.671   7.896  3.0017 -0.4255  0.5369
  266MOL0     H35070   8.473   1.704   7.751 -0.7647 -2.1853 -1.1730
  266MOL0     H35071   8.335   1.621   7.683  1.8410 -0.6875 -1.5846
  266MOL0     H35072   8.449   1.767   7.526 -0.2471  1.1768 -1.1059
  266MOL0     H35073   8.411   1.918   7.606  0.3703  0.2260 -0.7431
  266MOL0     H35074   8.363   2.012   7.403 -0.8128 -1.1535  0.0365
  266MOL0     H35075   8.307   2.079   7.188  1.5631 -0.8710 -1.1255
  266MOL0     H35076   7.880   1.753   6.851 -0.3128  1.1137  1.7434
  266MOL0     H35077   7.788   1.741   6.614 -0.8204  1.1411 -0.5384
  266MOL0     H35078   7.867   1.722   6.259  2.1499 -0.4866 -0.0022
  266MOL0     H35079   7.775   1.676   6.396  0.4572  1.4299  1.4378
  266MOL0     H35080   7.996   1.600   6.513 -1.0440  0.1680 -0.1139
  266MOL0     H35081   8.081   1.663   6.373  1.2128 -0.5960  0.4237
  266MOL0     H35082   8.077   1.416   6.392  1.9661  2.1797 -0.5949
  266MOL0     H35083   8.011   1.462   6.234 -2.7943  1.3382 -0.0113
  266MOL0     H35084   7.840   1.415   6.478 -2.2376  0.8480 -0.1772
  266MOL0     H35085   7.797   1.448   6.311 -0.9878  2.6509  2.7869
  266MOL0     H35086   7.863   1.240   6.236  3.5255 -1.4541  0.4240
  266MOL0     H35087   7.753   1.209   6.373 -0.5415 -0.2414 -0.8945
  266MOL0     H35088   8.056   1.195   6.443  0.8200 -2.6043  1.4432
  266MOL0     H35089   7.984   1.068   6.347 -1.8870  0.1166 -1.9922
  266MOL0     H35090   7.853   1.145   6.600 -0.5822  0.9983 -1.8084
  266MOL0     H35091   7.843   0.997   6.507  1.6520 -0.4729 -2.2351
  266MOL0     H35092   7.984   0.970   6.716  2.0365 -1.2731  0.2798
  266MOL0     H35093   8.104   1.067   6.628  1.4713 -2.1591  1.7736
  266MOL0     H35094   8.077   2.024   6.475 -0.5441  2.3780  1.0679
  266MOL0     H35095   8.186   2.014   6.695 -1.1102  0.8925 -0.5498
  266MOL0     H35096   8.002   1.761   7.148 -2.2869  2.0369  0.7443
  266MOL0     H35097   8.057   1.717   7.406 -0.2147  1.8650  1.3839
  266MOL0     H35098   7.314   1.838   8.869 -0.5745  1.2507 -0.7761
  266MOL0     H35099   7.151   1.888   9.036  1.2663 -2.2535  1.6998
  266MOL0     H35100   6.824   2.085   9.296 -0.1665  2.2680 -0.1351
  266MOL0     H35101   6.620   2.134   9.423 -3.9018  0.4800  1.5208
  266MOL0     H35102   6.378   2.084   9.405 -1.0333 -3.4524 -0.7533
  266MOL0     H35103   6.440   2.110   9.577 -1.2487  0.7535  0.4470
  266MOL0     H35104   6.203   1.959   9.461 -1.0595 -1.1873  1.0089
  266MOL0     H35105   6.227   1.954   9.635 -4.9586 -1.2739  0.1995
  266MOL0     H35106   6.171   2.218   9.472  0.3529 -2.5066 -1.9264
  266MOL0     H35107   6.169   2.204   9.639 -1.3819  1.2566  0.4616
  266MOL0     H35108   5.971   2.047   9.609  0.6084 -0.7273 -0.6746
  266MOL0     H35109   5.929   2.198   9.521 -4.8086 -3.2594  2.3187
  266MOL0     H35110   5.941   1.932   9.189  1.6934 -1.6690  0.8481
  266MOL0     H35111   6.509   1.715   9.352  1.9725 -1.7137  4.0335
  266MOL0     H35112   6.680   1.676   9.203 -0.4416 -1.0526  1.6274
  267MOL0     O35113   5.829   9.054  10.019  0.2681 -0.0983 -0.3309
  267MOL0     C35114   5.920   8.971  10.010 -0.4501  0.0769  0.2320
  267MOL0     O35115   5.991   8.943   9.899  0.3128  0.0663  0.1111
  267MOL0     C35116   5.980   9.026   9.787  0.0117 -0.7549  0.6593
  267MOL0     C35117   6.012   8.979   9.652 -0.6710  0.0447 -0.3479
  267MOL0     C35118   6.017   9.070   9.544  0.0028 -0.1289  0.1952
  267MOL0     C35119   5.983   9.201   9.553 -0.5524  0.5262  0.1996
  267MOL0     O35120   5.973   9.301   9.459  0.3354  0.1895  0.2608
  267MOL0     C35121   5.860   9.296   9.375 -0.1784  0.6409 -0.5038
  267MOL0     C35122   5.752   9.390   9.444  1.2883 -0.1362 -0.4243
  267MOL0     C35123   5.669   9.467   9.339 -0.7312 -0.2674  2.0396
  267MOL0     C35124   5.735   9.533   9.215 -0.5670 -0.4097  0.6331
  267MOL0     C35125   5.653   9.653   9.170 -0.1654 -0.1842 -0.3177
  267MOL0     C35126   5.707   9.726   9.049  0.4898  0.4462  0.2437
  267MOL0     C35127   5.861   9.758   9.049  0.2446 -0.0609  0.7607
  267MOL0     C35128   5.920   9.807   8.927 -0.2748 -0.5671  0.2524
  267MOL0     N35129   5.846   9.938   8.900 -1.1370 -0.1003  0.7498
  267MOL0     C35130   5.865  10.063   8.966 -0.0188 -0.4637  0.2935
  267MOL0     C35131   5.786  10.142   8.886 -0.3501  0.7102 -0.7227
  267MOL0     C35132   5.758  10.288   8.895 -0.0249 -0.1555 -0.5506
  267MOL0     C35133   5.876  10.375   8.885 -0.3812 -1.1235  0.7073
  267MOL0     C35134   5.834  10.519   8.891 -0.8096  0.2803  0.1926
  267MOL0     C35135   5.968  10.599   8.910  0.0525  0.0251  0.1108
  267MOL0     O35136   6.004  10.611   9.050  0.0604 -0.6147 -0.0020
  267MOL0     C35137   6.133  10.656   9.062 -0.7712  0.6284 -0.7303
  267MOL0     C35138   6.229  10.570   9.114 -0.4036 -0.0386  0.5320
  267MOL0     C35139   6.358  10.610   9.127  0.1943  1.4498  0.2012
  267MOL0     C35140   6.400  10.741   9.104  0.7129 -0.1974  0.5899
  267MOL0     C35141   6.543  10.772   9.103 -0.7218 -0.2785  0.1378
  267MOL0     O35142   6.578  10.901   9.107 -0.2379 -0.7432 -0.2076
  267MOL0     C35143   6.714  10.927   9.102  0.0931 -0.9357 -0.1262
  267MOL0     C35144   6.776  11.015   9.188 -0.5494 -0.1119  0.3496
  267MOL0     C35145   6.911  11.060   9.159  0.0230 -0.1787  0.2311
  267MOL0     C35146   6.971  11.028   9.044 -0.2064 -0.7219 -0.3945
  267MOL0     O35147   7.096  11.081   9.024 -0.0711 -0.4432  0.2533
  267MOL0     C35148   7.163  11.061   8.903 -0.6417 -0.1264  0.6191
  267MOL0     C35149   7.207  10.915   8.881  0.9212 -0.1371 -0.6212
  267MOL0     C35150   7.345  10.878   8.930  0.2692 -0.0951  0.2492
  267MOL0     C35151   7.367  10.730   8.899 -0.8799 -0.4085 -0.3919
  267MOL0     C35152   7.492  10.654   8.956  0.2657 -0.3106  0.5813
  267MOL0     C35153   7.633  10.710   8.896  1.4261  0.2474  0.2132
  267MOL0     C35154   7.751  10.616   8.937 -0.0356 -0.8155 -0.4539
  267MOL0     C35155   7.886  10.675   8.913 -0.2619  0.2792  0.1822
  267MOL0    Cl35156   7.897  10.723   8.748  0.5827 -0.3815 -0.1642
  267MOL0     C35157   6.900  10.953   8.956 -0.0489  0.1178  0.1200
  267MOL0     C35158   6.778  10.902   8.985 -0.2564 -0.0975 -0.1496
  267MOL0     O35159   6.622  10.684   9.101  1.1951  0.3843 -0.2252
  267MOL0     C35160   6.302  10.827   9.039  0.4819 -0.6179 -0.7349
  267MOL0     C35161   6.174  10.778   9.022 -0.3826 -0.0532  0.4266
  267MOL0     N35162   5.727  10.071   8.783 -0.2440 -0.0084  0.5049
  267MOL0     N35163   5.766   9.945   8.792 -0.0866 -0.3922  0.2050
  267MOL0     C35164   5.957   9.247   9.685  0.0105  0.6111 -0.1537
  267MOL0     C35165   5.966   9.168   9.801 -0.7677  0.6243  1.1607
  267MOL0     C35166   5.941   8.909  10.131  0.6689  0.0871 -1.2136
  267MOL0     C35167   6.055   8.828  10.151 -0.0784 -0.7017  0.8957
  267MOL0     C35168   6.073   8.765  10.274 -0.3170 -0.6661  1.1868
  267MOL0     C35169   5.971   8.767  10.375 -0.0169  0.1312 -0.7456
  267MOL0     O35170   5.982   8.712  10.501  0.7018  0.2630 -0.3646
  267MOL0     C35171   6.091   8.624  10.540 -0.3669  0.0460 -0.2252
  267MOL0     C35172   6.078   8.494  10.467  0.0909  0.4861 -0.3805
  267MOL0     C35173   6.180   8.396  10.519  1.0645  0.4564  0.4992
  267MOL0     C35174   6.206   8.293  10.404  0.3177 -0.2440 -0.4571
  267MOL0     C35175   6.095   8.193  10.415 -0.1483  0.5389  0.1854
  267MOL0     C35176   6.006   8.110  10.432 -0.1586  0.1353  1.1495
  267MOL0     C35177   5.856   8.842  10.354 -0.3190  0.7123  0.2429
  267MOL0     C35178   5.847   8.923  10.239 -0.2826  0.1008 -0.3129
  267MOL0     H35179   6.046   8.876   9.648 -2.2878 -0.6022  1.3280
  267MOL0     H35180   6.039   9.035   9.444  0.2909  3.0875 -0.9610
  267MOL0     H35181   5.816   9.197   9.361  0.6924  0.5572 -3.1249
  267MOL0     H35182   5.896   9.328   9.277  2.8811  1.4784  0.7770
  267MOL0     H35183   5.803   9.456   9.514  1.1026 -1.5705  1.1474
  267MOL0     H35184   5.683   9.342   9.515  0.1295  4.8787  2.2866
  267MOL0     H35185   5.615   9.544   9.396  0.2990 -0.5400  3.4253
  267MOL0     H35186   5.598   9.395   9.296 -2.1883  3.5366 -2.7610
  267MOL0     H35187   5.838   9.558   9.244  1.4442 -1.2955 -4.6569
  267MOL0     H35188   5.750   9.462   9.133 -0.3530  3.3046 -2.8320
  267MOL0     H35189   5.647   9.724   9.253 -2.8591  0.9484 -1.3753
  267MOL0     H35190   5.551   9.620   9.149 -0.5499  0.1493  0.9689
  267MOL0     H35191   5.645   9.816   9.040  1.6992  1.4248  1.3204
  267MOL0     H35192   5.683   9.668   8.960  3.4459  0.3660 -0.6156
  267MOL0     H35193   5.888   9.827   9.130 -0.4287  1.8705 -0.5774
  267MOL0     H35194   5.922   9.670   9.068 -0.7649 -0.1594  4.3482
  267MOL0     H35195   5.902   9.747   8.837  1.2944 -0.4215 -0.1881
  267MOL0     H35196   6.027   9.825   8.941 -0.1278 -1.3225  0.1272
  267MOL0     H35197   5.946  10.100   9.029  0.5497  1.3259 -1.3804
  267MOL0     H35198   5.705  10.307   8.989 -1.2527  1.6523 -1.5499
  267MOL0     H35199   5.697  10.322   8.810 -0.4439  0.0575 -0.1672
  267MOL0     H35200   5.932  10.351   8.794 -0.7686  0.2612  0.0805
  267MOL0     H35201   5.936  10.359   8.975 -0.4138 -1.6550  0.6402
  267MOL0     H35202   5.787  10.539   8.794 -0.2049 -0.1322 -0.1921
  267MOL0     H35203   5.771  10.543   8.977 -0.8169 -0.2495  0.3354
  267MOL0     H35204   5.980  10.693   8.856  2.5295 -1.3479 -1.9598
  267MOL0     H35205   6.035  10.525   8.864 -3.1973 -3.9501  1.1446
  267MOL0     H35206   6.194  10.476   9.154 -0.5707 -0.3889 -0.4040
  267MOL0     H35207   6.421  10.535   9.174 -0.0653  0.7799 -0.4852
  267MOL0     H35208   6.719  11.042   9.275  1.3041  0.3695  1.4675
  267MOL0     H35209   6.967  11.123   9.228  1.4849  0.2621 -1.2765
  267MOL0     H35210   7.248  11.127   8.880 -0.3786 -1.1385 -1.5767
  267MOL0     H35211   7.093  11.087   8.823  0.1926  0.2867  0.0057
  267MOL0     H35212   7.185  10.896   8.775 -1.8411  0.5265 -0.2465
  267MOL0     H35213   7.139  10.854   8.942 -0.4461 -1.2131 -3.0607
  267MOL0     H35214   7.348  10.890   9.039 -1.7392  1.2651  0.2246
  267MOL0     H35215   7.432  10.937   8.899  0.1527  0.1520  0.3834
  267MOL0     H35216   7.290  10.672   8.953  0.3335 -0.2388  1.6452
  267MOL0     H35217   7.361  10.714   8.791  1.0235  2.4572 -1.0335
  267MOL0     H35218   7.479  10.550   8.924 -2.8534 -0.5086  2.1211
  267MOL0     H35219   7.489  10.647   9.065 -0.2055 -1.7688  0.4871
  267MOL0     H35220   7.647  10.810   8.937  0.0610  0.3647  0.4617
  267MOL0     H35221   7.623  10.716   8.787 -0.8742 -1.9091  0.1894
  267MOL0     H35222   7.734  10.592   9.042 -1.8214  3.0015  0.2846
  267MOL0     H35223   7.749  10.528   8.871  0.8970  0.8139 -2.7875
  267MOL0     H35224   7.961  10.600   8.937  1.6475  2.4193  1.1924
  267MOL0     H35225   7.903  10.767   8.970  0.9144 -0.7645  1.5883
  267MOL0     H35226   6.940  10.921   8.860 -2.6384 -1.6647 -0.4684
  267MOL0     H35227   6.730  10.837   8.913  0.2646 -0.3039 -0.3197
  267MOL0     H35228   6.335  10.924   9.003  0.9310  0.0330  1.3201
  267MOL0     H35229   6.109  10.851   8.974 -0.3269 -1.8894 -2.7049
  267MOL0     H35230   5.917   9.348   9.678  0.0799  0.5795 -5.8733
  267MOL0     H35231   5.966   9.203   9.904 -1.9263  0.0421  1.3709
  267MOL0     H35232   6.124   8.815  10.068 -1.9663  0.4443 -0.9597
  267MOL0     H35233   6.162   8.706  10.291  0.4353 -0.9967 -2.8280
  267MOL0     H35234   6.085   8.616  10.649  2.3932  2.9750  0.3220
  267MOL0     H35235   6.192   8.661  10.517  0.1162 -0.7148  0.5745
  267MOL0     H35236   5.976   8.455  10.477  0.7185 -1.2632 -0.5760
  267MOL0     H35237   6.088   8.512  10.360 -1.6496  0.7666 -0.5217
  267MOL0     H35238   6.140   8.339  10.604  1.7522 -1.1340 -0.2156
  267MOL0     H35239   6.271   8.449  10.547 -0.0360  0.7059  4.1597
  267MOL0     H35240   6.214   8.334  10.303 -0.3176 -0.2818 -0.5250
  267MOL0     H35241   6.303   8.248  10.427  1.3908  1.4250 -1.5492
  267MOL0     H35242   5.932   8.036  10.459  0.6472 -1.7975 -1.5146
  267MOL0     H35243   5.778   8.857  10.428  0.7587  2.4046  1.1125
  267MOL0     H35244   5.758   8.984  10.226  0.9540  2.5942  1.9667
  268MOL0     O35245   0.732   6.541  11.093 -0.3826  0.4859 -0.8733
  268MOL0     C35246   0.646   6.464  11.127  1.1979 -0.1611  0.1483
  268MOL0     O35247   0.511   6.487  11.139  0.4896 -0.0748  0.0016
  268MOL0     C35248   0.465   6.611  11.103  0.9685 -1.0566 -0.3537
  268MOL0     C35249   0.460   6.716  11.195 -0.5184  0.6429 -0.1980
  268MOL0     C35250   0.401   6.840  11.161 -0.1021 -0.2554 -0.7822
  268MOL0     C35251   0.331   6.858  11.039  0.3646 -0.3202 -0.4585
  268MOL0     O35252   0.242   6.959  11.004  0.5789  0.4026  0.2326
  268MOL0     C35253   0.202   7.055  11.106 -0.2712 -0.2318  0.1488
  268MOL0     C35254   0.300   7.171  11.128 -0.1012  0.0670  0.1264
  268MOL0     C35255   0.241   7.303  11.084  0.1511  0.1771 -0.3109
  268MOL0     C35256   0.182   7.316  10.940  0.1775  0.3530 -0.6768
  268MOL0     C35257   0.183   7.463  10.894  0.2339 -0.0850 -0.2723
  268MOL0     C35258   0.114   7.469  10.761 -0.0103  0.1980 -0.5955
  268MOL0     C35259   0.143   7.604  10.699 -0.6367  0.2041  0.3628
  268MOL0     C35260   0.092   7.722  10.781  0.2694  1.1023 -0.7981
  268MOL0     N35261   0.144   7.854  10.752 -0.7706 -0.1250 -0.3491
  268MOL0     C35262   0.253   7.865  10.671  0.2456  0.2467 -0.5895
  268MOL0     C35263   0.242   7.992  10.617 -0.0722  0.6259 -0.2253
  268MOL0     C35264   0.326   8.067  10.517  0.2711 -0.2001  0.6777
  268MOL0     C35265   0.383   7.982  10.402  0.2952 -0.1847 -0.2593
  268MOL0     C35266   0.448   8.075  10.309  0.4578 -0.9756  0.6297
  268MOL0     C35267   0.529   8.010  10.193 -0.2243  0.7225 -0.0933
  268MOL0     O35268   0.630   7.913  10.245 -0.5530 -0.2967 -0.0897
  268MOL0     C35269   0.762   7.943  10.282 -0.3779 -0.9289 -0.0545
  268MOL0     C35270   0.850   7.839  10.303 -0.3099  0.7582 -0.4760
  268MOL0     C35271   0.983   7.867  10.323 -0.0926 -0.3481 -0.7887
  268MOL0     C35272   1.037   7.992  10.332  0.4161 -0.0458 -0.2040
  268MOL0     C35273   1.181   8.022  10.340  0.4391  0.3327 -0.1590
  268MOL0     O35274   1.258   7.914  10.368  0.0913  0.9785 -0.4108
  268MOL0     C35275   1.392   7.932  10.367  0.5306 -0.7295  0.2775
  268MOL0     C35276   1.477   7.911  10.475  1.0586  0.4036  0.2099
  268MOL0     C35277   1.620   7.917  10.465  0.2031 -0.6107 -0.7715
  268MOL0     C35278   1.682   7.948  10.344 -0.7453  0.5994  0.0945
  268MOL0     O35279   1.818   7.944  10.344  0.1810  1.2324  0.0190
  268MOL0     C35280   1.886   8.014  10.236 -1.2427  0.1453  1.2862
  268MOL0     C35281   2.038   8.003  10.268  0.0646  0.7750  0.3971
  268MOL0     C35282   2.090   7.870  10.231 -0.3146 -0.6056 -0.5460
  268MOL0     C35283   2.210   7.832  10.334  0.0005  0.1928 -0.4012
  268MOL0     C35284   2.332   7.916  10.342  0.8246 -0.3355 -0.1593
  268MOL0     C35285   2.422   7.915  10.221  0.0487  0.2313  0.4668
  268MOL0     C35286   2.517   8.025  10.232  0.1484  0.1901 -0.0342
  268MOL0     C35287   2.591   8.056  10.097 -0.0980  0.0750 -0.1276
  268MOL0    Cl35288   2.702   7.919  10.057  0.1271 -0.1276  0.0704
  268MOL0     C35289   1.595   7.974  10.234 -0.0631 -0.1950  0.6468
  268MOL0     C35290   1.461   7.964  10.249 -0.5232 -1.1450 -0.7214
  268MOL0     O35291   1.221   8.141  10.329  0.5405  0.0324  0.6162
  268MOL0     C35292   0.947   8.095  10.313 -0.1676 -0.1825  0.2187
  268MOL0     C35293   0.810   8.077  10.295 -0.1117  1.0615  0.1745
  268MOL0     N35294   0.117   8.044  10.665  0.1817 -0.3702  0.5829
  268MOL0     N35295   0.069   7.970  10.755 -0.5837  0.1346  0.6702
  268MOL0     C35296   0.323   6.750  10.949 -1.3715 -0.3072 -0.4911
  268MOL0     C35297   0.407   6.636  10.974  0.1443  0.3554  0.4029
  268MOL0     C35298   0.684   6.322  11.165 -0.4067 -0.9449  0.1833
  268MOL0     C35299   0.581   6.220  11.193  0.4301 -0.8137 -0.6444
  268MOL0     C35300   0.613   6.098  11.256  0.3516 -0.2359 -1.4786
  268MOL0     C35301   0.747   6.057  11.277  0.1479 -0.0115  0.9547
  268MOL0     O35302   0.768   5.945  11.363  0.0369  0.0670  0.9691
  268MOL0     C35303   0.784   5.977  11.494  0.2492  0.1232 -0.1281
  268MOL0     C35304   0.646   5.958  11.572  0.0125  0.0871  0.3718
  268MOL0     C35305   0.651   5.827  11.658  0.8498  0.1709 -0.5407
  268MOL0     C35306   0.512   5.796  11.715  0.5225 -0.2611  0.9718
  268MOL0     C35307   0.467   5.652  11.719 -0.2439  0.6319  0.2257
  268MOL0     C35308   0.429   5.536  11.713  0.2697  0.4448 -0.4435
  268MOL0     C35309   0.850   6.150  11.239 -0.1657 -0.1882 -0.4128
  268MOL0     C35310   0.816   6.286  11.200  0.0174 -0.2877 -0.2755
  268MOL0     H35311   0.511   6.701  11.290  2.3773  2.1566 -1.3892
  268MOL0     H35312   0.393   6.921  11.233 -1.7016 -1.5399  0.5782
  268MOL0     H35313   0.193   7.015  11.208 -0.7940  2.7934  1.3964
  268MOL0     H35314   0.106   7.098  11.076  0.0390 -0.2595 -0.9061
  268MOL0     H35315   0.387   7.137  11.072  0.1470  0.8052  0.0546
  268MOL0     H35316   0.321   7.172  11.235  2.1802 -0.4614 -0.2652
  268MOL0     H35317   0.315   7.379  11.110 -2.4903  2.8171  0.0051
  268MOL0     H35318   0.152   7.307  11.147  0.4538  0.2697  0.1109
  268MOL0     H35319   0.239   7.251  10.873 -1.4792 -0.8231 -0.9894
  268MOL0     H35320   0.076   7.292  10.938  0.1640 -0.3599  2.5150
  268MOL0     H35321   0.283   7.503  10.875 -0.3880  0.6581 -2.2571
  268MOL0     H35322   0.141   7.531  10.969 -1.4189  0.0954 -1.2994
  268MOL0     H35323   0.006   7.458  10.770  0.2556 -0.3447  3.3364
  268MOL0     H35324   0.160   7.392  10.698  1.4199 -0.3082  0.9977
  268MOL0     H35325   0.248   7.601  10.669 -1.1890 -3.2935 -1.9069
  268MOL0     H35326   0.100   7.610  10.598  0.7239 -0.2341 -0.2735
  268MOL0     H35327   0.107   7.703  10.888  3.5806 -0.7049 -1.4518
  268MOL0     H35328  -0.016   7.720  10.765  0.2934  1.0394 -0.9503
  268MOL0     H35329   0.343   7.803  10.668  0.1954  0.1572 -0.2672
  268MOL0     H35330   0.415   8.121  10.552  0.0246  0.7163 -0.0544
  268MOL0     H35331   0.269   8.142  10.462  1.2365 -2.1483 -3.3331
  268MOL0     H35332   0.297   7.924  10.367 -1.3053  0.9681  1.5911
  268MOL0     H35333   0.460   7.914  10.441 -1.0620 -1.3896  0.4123
  268MOL0     H35334   0.364   8.125  10.259 -1.7120 -3.5507  1.4151
  268MOL0     H35335   0.504   8.159  10.351 -3.1882  4.2509 -3.5848
  268MOL0     H35336   0.571   8.093  10.137  1.9431  0.7411  1.4462
  268MOL0     H35337   0.450   7.960  10.136  0.4311  0.4197 -0.7442
  268MOL0     H35338   0.815   7.737  10.303  0.8134  0.3544 -0.0507
  268MOL0     H35339   1.042   7.776  10.334 -1.5829 -1.4932 -1.6902
  268MOL0     H35340   1.433   7.889  10.572  1.1710 -2.0186 -0.2067
  268MOL0     H35341   1.670   7.903  10.561  0.4429  0.6699 -0.6943
  268MOL0     H35342   1.861   8.120  10.229 -0.8231  0.6181  5.0528
  268MOL0     H35343   1.865   7.969  10.139 -0.5978 -1.5759  1.9048
  268MOL0     H35344   2.047   8.040  10.370  0.6710 -0.1299  0.6792
  268MOL0     H35345   2.081   8.083  10.206 -0.0611  1.4001  1.1049
  268MOL0     H35346   2.134   7.882  10.132 -0.5383  0.3541 -0.5398
  268MOL0     H35347   2.030   7.778  10.232  1.3669 -1.8036 -2.3994
  268MOL0     H35348   2.168   7.826  10.435 -2.8997 -1.3750 -1.5762
  268MOL0     H35349   2.249   7.731  10.315  0.5920  0.3225  0.0886
  268MOL0     H35350   2.382   7.876  10.431 -1.2948 -1.0512  0.7909
  268MOL0     H35351   2.300   8.018  10.368  0.0632 -0.5213 -0.3485
  268MOL0     H35352   2.362   7.940  10.132  0.9090 -1.0268 -0.5007
  268MOL0     H35353   2.468   7.816  10.214  0.1369  0.2475  0.8250
  268MOL0     H35354   2.459   8.116  10.251 -0.1877  0.0447 -0.3574
  268MOL0     H35355   2.582   8.013  10.319 -1.7743 -0.6132  1.3661
  268MOL0     H35356   2.648   8.149  10.105  0.8768 -0.5381  0.3042
  268MOL0     H35357   2.514   8.076  10.022  2.0629  0.4175 -2.4166
  268MOL0     H35358   1.622   8.007  10.134 -0.7106  1.6385  1.0383
  268MOL0     H35359   1.399   7.976  10.161 -0.2014  0.2227 -0.7956
  268MOL0     H35360   0.981   8.198  10.319  0.8837 -0.4915 -0.2875
  268MOL0     H35361   0.758   8.169  10.272  1.9816  2.8796  2.2450
  268MOL0     H35362   0.266   6.756  10.857  0.5151 -1.2334 -1.7631
  268MOL0     H35363   0.414   6.555  10.902  0.6034 -0.4105  1.2843
  268MOL0     H35364   0.477   6.244  11.177  0.7001  0.1125 -1.0723
  268MOL0     H35365   0.525   6.036  11.273  0.5993 -0.3919 -0.7461
  268MOL0     H35366   0.826   6.076  11.513 -0.9324  0.8724 -1.2995
  268MOL0     H35367   0.862   5.911  11.534 -0.8201  0.5169  2.9011
  268MOL0     H35368   0.623   6.043  11.636 -0.6757 -1.2564  2.0049
  268MOL0     H35369   0.563   5.953  11.500 -0.3044  0.0396  0.7380
  268MOL0     H35370   0.726   5.836  11.737  1.5082 -0.8571 -1.0298
  268MOL0     H35371   0.686   5.744  11.596 -2.2912 -0.5325 -1.5654
  268MOL0     H35372   0.510   5.840  11.815  1.0464  3.5084 -0.5181
  268MOL0     H35373   0.440   5.840  11.646  2.3570  0.2285 -0.7291
  268MOL0     H35374   0.410   5.431  11.713  1.9363  0.0237  2.5552
  268MOL0     H35375   0.952   6.118  11.256 -0.8733 -2.3500  0.0720
  268MOL0     H35376   0.892   6.363  11.194 -0.4739  1.0664  5.4114
  269MOL0     O35377   8.946   3.790  10.771 -0.5649 -0.6419 -0.3136
  269MOL0     C35378   9.049   3.760  10.837 -0.0094 -0.8677  0.1465
  269MOL0     O35379   9.172   3.740  10.779  0.4205  0.2380 -0.3807
  269MOL0     C35380   9.217   3.775  10.651 -0.5453 -0.0130 -1.0639
  269MOL0     C35381   9.150   3.828  10.546  0.4679 -1.0864  0.1399
  269MOL0     C35382   9.216   3.843  10.423 -0.0957 -0.0115 -0.0247
  269MOL0     C35383   9.353   3.808  10.410 -0.4820  0.0290 -0.8265
  269MOL0     O35384   9.420   3.829  10.292  0.2197  0.5517  0.4924
  269MOL0     C35385   9.338   3.826  10.176 -0.0123 -0.2809 -0.4918
  269MOL0     C35386   9.424   3.815  10.052  0.0136  0.9935  0.3141
  269MOL0     C35387   9.521   3.703  10.052  0.1600  0.1021  0.0006
  269MOL0     C35388   9.604   3.690   9.923  1.0855 -0.3337 -0.0228
  269MOL0     C35389   9.529   3.622   9.809 -0.0007 -0.3484  0.4067
  269MOL0     C35390   9.613   3.608   9.686 -0.2065 -0.2264 -0.4699
  269MOL0     C35391   9.544   3.516   9.588 -0.1295  0.3488 -0.0908
  269MOL0     C35392   9.623   3.493   9.456  0.8034  0.6015  0.3763
  269MOL0     N35393   9.767   3.459   9.472 -0.1381  0.7716  0.5995
  269MOL0     C35394   9.882   3.543   9.499 -0.2853  0.6606  0.3525
  269MOL0     C35395   9.994   3.462   9.482  0.9251  0.9322  0.7359
  269MOL0     C35396  10.135   3.513   9.493  0.2092  0.1312  0.0523
  269MOL0     C35397  10.238   3.403   9.442  0.0412 -0.4163 -0.7981
  269MOL0     C35398  10.386   3.452   9.420 -0.1181 -0.6990 -0.0195
  269MOL0     C35399  10.447   3.517   9.543  0.1085 -0.3582 -0.1374
  269MOL0     O35400  10.465   3.432   9.659 -0.6263  0.2935  0.1037
  269MOL0     C35401  10.456   3.487   9.777 -0.3162 -0.2321 -0.4786
  269MOL0     C35402  10.454   3.628   9.803  0.4036  0.0089  0.5850
  269MOL0     C35403  10.416   3.673   9.934 -0.5150  0.2766  0.3515
  269MOL0     C35404  10.392   3.586  10.039  0.2988  0.7704 -0.2724
  269MOL0     C35405  10.364   3.641  10.175 -1.2946  1.1253 -0.2467
  269MOL0     O35406  10.358   3.558  10.287 -0.5108  0.0671 -0.6209
  269MOL0     C35407  10.274   3.604  10.383 -0.4593 -0.5040  0.0996
  269MOL0     C35408  10.152   3.539  10.398  0.5019 -0.6430 -0.1638
  269MOL0     C35409  10.060   3.575  10.487 -0.4326 -0.3754 -0.8457
  269MOL0     C35410  10.080   3.684  10.575 -0.6756 -0.8267  0.2073
  269MOL0     O35411   9.997   3.728  10.673 -0.0932  0.1469 -0.4717
  269MOL0     C35412   9.858   3.698  10.651 -0.4185 -0.7737  0.9037
  269MOL0     C35413   9.768   3.756  10.754 -0.9590  0.3931 -0.1762
  269MOL0     C35414   9.811   3.736  10.902 -0.1271 -0.2634 -1.2375
  269MOL0     C35415   9.740   3.817  11.001 -0.4930  0.1878  0.0186
  269MOL0     C35416   9.785   3.767  11.140 -0.5335 -1.2200 -0.1290
  269MOL0     C35417   9.734   3.853  11.252  0.1182  0.2836  0.6356
  269MOL0     C35418   9.584   3.833  11.273 -0.1077  0.2038 -0.0939
  269MOL0     C35419   9.540   3.922  11.389  0.2457 -0.5098 -0.3114
  269MOL0    Cl35420   9.369   3.904  11.412  0.3430  0.1596 -0.0424
  269MOL0     C35421  10.207   3.751  10.564 -1.1443  0.3698 -0.3536
  269MOL0     C35422  10.300   3.707  10.469 -0.1623  1.2572 -0.5878
  269MOL0     O35423  10.349   3.763  10.183  0.3858 -0.1207  0.6040
  269MOL0     C35424  10.414   3.446  10.007  0.1880 -0.2310 -0.0862
  269MOL0     C35425  10.444   3.400   9.880 -0.2352  0.2898  0.4701
  269MOL0     N35426   9.949   3.332   9.443  0.1125  0.2533 -0.4357
  269MOL0     N35427   9.813   3.336   9.435 -0.1226  0.0278 -0.2106
  269MOL0     C35428   9.420   3.755  10.519  0.1785  0.3675 -0.2372
  269MOL0     C35429   9.353   3.732  10.640  0.4598  0.0453  0.0324
  269MOL0     C35430   9.032   3.753  10.984  0.7258 -1.0056  0.1980
  269MOL0     C35431   8.907   3.776  11.049 -0.0911 -0.3113 -0.8144
  269MOL0     C35432   8.895   3.746  11.184  0.0023  0.2280 -0.2297
  269MOL0     C35433   9.007   3.712  11.266  1.2906  0.4148  0.5707
  269MOL0     O35434   8.986   3.676  11.399 -0.0887  0.6171 -0.5713
  269MOL0     C35435   9.088   3.607  11.476 -0.9969 -0.8671  0.7416
  269MOL0     C35436   9.018   3.544  11.593  0.0131  1.1608 -0.2914
  269MOL0     C35437   8.922   3.437  11.544 -0.1519 -0.5900 -0.4421
  269MOL0     C35438   8.828   3.371  11.642 -0.6835  0.2973 -0.1995
  269MOL0     C35439   8.736   3.445  11.726 -0.6250  0.2397 -0.0872
  269MOL0     C35440   8.669   3.514  11.795  0.1020 -0.1145  0.2758
  269MOL0     C35441   9.127   3.701  11.201 -0.5159  0.5126  0.6572
  269MOL0     C35442   9.139   3.723  11.066 -0.3618  0.3298 -0.7225
  269MOL0     H35443   9.046   3.859  10.547  0.1760 -2.0463  0.8041
  269MOL0     H35444   9.162   3.874  10.334  2.2920 -1.4651 -2.1176
  269MOL0     H35445   9.281   3.918  10.164 -0.2194 -0.4469 -0.7980
  269MOL0     H35446   9.276   3.737  10.189 -1.3602  1.0297  3.7725
  269MOL0     H35447   9.472   3.907  10.017 -1.7892  1.1914 -1.8527
  269MOL0     H35448   9.355   3.785   9.973  0.8520 -2.3200  0.6616
  269MOL0     H35449   9.465   3.610  10.064 -0.3435  0.0303 -2.4347
  269MOL0     H35450   9.592   3.711  10.135 -0.0519 -2.3690  0.5066
  269MOL0     H35451   9.641   3.790   9.899  0.5417  0.4683  2.2557
  269MOL0     H35452   9.691   3.631   9.954  0.7400 -1.2742 -0.7954
  269MOL0     H35453   9.440   3.682   9.784  0.5380  0.5168  0.5236
  269MOL0     H35454   9.495   3.522   9.839  2.8051 -2.2691 -2.2381
  269MOL0     H35455   9.709   3.576   9.727  1.0096  0.8568 -2.3376
  269MOL0     H35456   9.632   3.713   9.662  0.9171  0.6998  3.5986
  269MOL0     H35457   9.528   3.422   9.640 -1.3502  0.6367  0.0809
  269MOL0     H35458   9.442   3.552   9.572 -0.3916 -1.3570 -3.0643
  269MOL0     H35459   9.608   3.579   9.390  0.1315 -1.1768 -1.8933
  269MOL0     H35460   9.577   3.407   9.407 -0.8369  0.6438  1.7375
  269MOL0     H35461   9.877   3.646   9.532  0.6004  0.3708  1.4256
  269MOL0     H35462  10.154   3.541   9.596  3.7855  1.6621 -0.8830
  269MOL0     H35463  10.156   3.604   9.435  2.6930  0.9321  2.0817
  269MOL0     H35464  10.201   3.367   9.345 -0.1069  1.4211 -1.4689
  269MOL0     H35465  10.239   3.314   9.505 -0.8256 -1.0089 -1.5821
  269MOL0     H35466  10.457   3.374   9.393  1.1180  0.3584  0.1090
  269MOL0     H35467  10.389   3.528   9.342 -2.5780  0.9469  1.3534
  269MOL0     H35468  10.372   3.594   9.563 -0.8200 -1.3727  0.3915
  269MOL0     H35469  10.543   3.568   9.532 -0.4103  0.7324  0.1891
  269MOL0     H35470  10.474   3.695   9.721  1.1954  1.7724  2.1534
  269MOL0     H35471  10.408   3.780   9.946 -1.8475  0.3081 -0.5791
  269MOL0     H35472  10.149   3.454  10.330  3.9089 -1.1551  0.1558
  269MOL0     H35473   9.964   3.527  10.502  0.3402 -0.9356  3.6363
  269MOL0     H35474   9.834   3.591  10.648 -1.0364 -0.8074  3.9166
  269MOL0     H35475   9.833   3.747  10.556  0.5997  0.7405  1.3902
  269MOL0     H35476   9.669   3.712  10.737 -0.9768  0.5363 -0.4384
  269MOL0     H35477   9.757   3.862  10.731  3.3566  0.9991 -0.3559
  269MOL0     H35478   9.919   3.753  10.904  0.0604 -1.1773  2.1551
  269MOL0     H35479   9.792   3.630  10.924  3.0533 -1.0896 -1.9433
  269MOL0     H35480   9.759   3.922  10.978 -1.4829 -0.0141 -2.0422
  269MOL0     H35481   9.635   3.790  10.988 -0.7494  0.9218  0.5355
  269MOL0     H35482   9.895   3.765  11.139 -0.3247  0.6097 -4.5561
  269MOL0     H35483   9.753   3.662  11.149 -2.0104 -1.0934 -2.8575
  269MOL0     H35484   9.756   3.960  11.246  2.7991 -0.1671  1.3509
  269MOL0     H35485   9.787   3.821  11.342 -1.7465 -1.6260  1.1372
  269MOL0     H35486   9.534   3.853  11.178  1.1279  0.8130 -0.6404
  269MOL0     H35487   9.565   3.732  11.310 -1.1464 -0.5197 -2.3763
  269MOL0     H35488   9.572   4.025  11.375 -1.2018  0.1209  0.6515
  269MOL0     H35489   9.584   3.886  11.482 -0.9531  2.7551  1.6958
  269MOL0     H35490  10.224   3.828  10.639 -1.4929 -0.2286  0.3617
  269MOL0     H35491  10.401   3.749  10.467  1.7997 -2.2560  4.1868
  269MOL0     H35492  10.405   3.376  10.090 -1.8956  1.8154  1.5632
  269MOL0     H35493  10.459   3.293   9.872  0.9994  0.5682 -2.9895
  269MOL0     H35494   9.523   3.730  10.495 -0.1892  0.8158 -2.5315
  269MOL0     H35495   9.401   3.691  10.729  4.6143  0.6642 -1.7006
  269MOL0     H35496   8.821   3.788  10.985 -2.7089 -0.1666  2.4452
  269MOL0     H35497   8.803   3.740  11.242  0.3162  1.6862  0.4653
  269MOL0     H35498   9.155   3.687  11.508 -1.4993 -0.1439  0.0370
  269MOL0     H35499   9.144   3.538  11.413 -2.0583 -0.7866 -0.3434
  269MOL0     H35500   9.088   3.492  11.659 -0.0921  0.6118 -0.6034
  269MOL0     H35501   8.963   3.618  11.652  0.7603  0.2797  1.5805
  269MOL0     H35502   8.987   3.361  11.500  2.1211  0.5866  0.7109
  269MOL0     H35503   8.848   3.470  11.470 -2.0701 -1.3089  1.0948
  269MOL0     H35504   8.768   3.298  11.587 -0.7348  1.5984 -1.9733
  269MOL0     H35505   8.882   3.306  11.711  0.1383  1.5152  0.3351
  269MOL0     H35506   8.607   3.560  11.869 -1.2729 -1.2097 -0.1519
  269MOL0     H35507   9.217   3.671  11.254 -0.3438  3.3251  2.2085
  269MOL0     H35508   9.234   3.711  11.014 -1.3766 -0.1178 -2.5710
  270MOL0     O35509  10.824   0.360   1.241  0.6040 -0.7626 -0.6009
  270MOL0     C35510  10.836   0.379   1.364  1.3206  0.1088  0.1648
  270MOL0     O35511  10.753   0.458   1.440  0.8222  0.6049  0.4453
  270MOL0     C35512  10.639   0.504   1.377 -0.6890 -0.8335 -0.3933
  270MOL0     C35513  10.512   0.448   1.410  0.0739 -0.6725 -0.9851
  270MOL0     C35514  10.398   0.469   1.339  0.2370  1.1435  0.5755
  270MOL0     C35515  10.409   0.545   1.216  0.0357  0.5677  0.0828
  270MOL0     O35516  10.303   0.569   1.133 -0.0372  0.1346 -0.5758
  270MOL0     C35517  10.168   0.537   1.162 -1.1362 -0.4086 -0.2538
  270MOL0     C35518  10.086   0.603   1.052  0.7557 -0.3360  0.1737
  270MOL0     C35519   9.933   0.573   1.068 -0.8205  1.0498  0.1177
  270MOL0     C35520   9.846   0.632   0.951 -0.4639  0.2026 -0.2016
  270MOL0     C35521   9.700   0.620   1.007 -0.3030  0.1988  0.1340
  270MOL0     C35522   9.603   0.635   0.893  0.2369  0.0376  0.0605
  270MOL0     C35523   9.461   0.577   0.913 -0.5372  0.3121 -0.3030
  270MOL0     C35524   9.352   0.666   0.981 -0.3324 -0.3423 -0.0240
  270MOL0     N35525   9.219   0.597   0.966 -1.1713 -0.0979  0.4621
  270MOL0     C35526   9.139   0.622   0.863 -0.2573  0.0057  0.1743
  270MOL0     C35527   9.024   0.555   0.884 -0.0917 -1.4300 -0.3036
  270MOL0     C35528   8.903   0.570   0.794  0.3608 -0.6270 -0.3218
  270MOL0     C35529   8.823   0.694   0.839  0.2103  0.3938  0.3072
  270MOL0     C35530   8.697   0.706   0.757  0.0409  0.2135 -0.6978
  270MOL0     C35531   8.630   0.847   0.775 -0.6692 -0.3347  0.7472
  270MOL0     O35532   8.492   0.824   0.754 -0.8873 -0.4512 -0.4324
  270MOL0     C35533   8.401   0.903   0.825 -0.4604  0.2643 -0.2983
  270MOL0     C35534   8.414   1.002   0.928  0.8534 -0.4519  0.1051
  270MOL0     C35535   8.298   1.059   0.992 -0.7396  0.0511  0.8967
  270MOL0     C35536   8.168   1.011   0.953  0.0436 -0.2860 -0.0208
  270MOL0     C35537   8.046   1.060   1.015 -0.5989  1.1348  1.0505
  270MOL0     O35538   7.931   1.058   0.937 -0.7601 -0.1027  0.4936
  270MOL0     C35539   7.821   1.130   0.971  0.3441 -0.6433 -0.6211
  270MOL0     C35540   7.779   1.147   1.108  0.5436  1.1407  0.7851
  270MOL0     C35541   7.655   1.214   1.131  0.3067  0.1375 -1.0357
  270MOL0     C35542   7.573   1.257   1.032 -0.6076  0.3602  0.0119
  270MOL0     O35543   7.448   1.309   1.044  1.0200 -0.8313  0.3400
  270MOL0     C35544   7.397   1.317   1.173  1.3533  0.2399  0.6274
  270MOL0     C35545   7.261   1.385   1.169  0.3553 -0.2980 -0.1208
  270MOL0     C35546   7.276   1.543   1.142  0.3180 -0.5735  0.2869
  270MOL0     C35547   7.152   1.619   1.153  0.0075  0.5008  0.0446
  270MOL0     C35548   7.192   1.764   1.102 -1.0884 -0.4445  0.2327
  270MOL0     C35549   7.307   1.831   1.186  0.5714 -0.4696  0.0781
  270MOL0     C35550   7.303   1.976   1.158 -0.4804 -0.2007 -0.5925
  270MOL0     C35551   7.382   2.067   1.262  0.9680  0.3091  0.0228
  270MOL0    Cl35552   7.329   2.035   1.422 -0.0581 -0.3874  0.1960
  270MOL0     C35553   7.624   1.252   0.903  0.2470 -0.1926  1.0483
  270MOL0     C35554   7.740   1.183   0.865 -0.0772  0.6340 -0.0779
  270MOL0     O35555   8.056   1.098   1.135 -0.0227  0.3474  0.4077
  270MOL0     C35556   8.156   0.910   0.856  0.0848 -0.8682  0.0346
  270MOL0     C35557   8.272   0.862   0.794 -0.2396  0.1742 -0.6634
  270MOL0     N35558   9.052   0.469   0.993  0.4254  0.2901  0.1580
  270MOL0     N35559   9.168   0.501   1.045 -0.0474  0.3041 -0.5794
  270MOL0     C35560  10.532   0.612   1.184  0.0578  0.1518 -0.5780
  270MOL0     C35561  10.642   0.603   1.277 -0.4065 -0.6970  0.9915
  270MOL0     C35562  10.952   0.328   1.441  0.2503  0.5492  0.4743
  270MOL0     C35563  11.043   0.242   1.383  0.9345 -0.5487  0.1659
  270MOL0     C35564  11.161   0.205   1.452  0.3895  0.1273 -0.0795
  270MOL0     C35565  11.175   0.246   1.587 -0.5672  1.4742 -0.1770
  270MOL0     O35566  11.294   0.202   1.644  0.3822  0.4324  0.1504
  270MOL0     C35567  11.343   0.256   1.763 -0.9787  0.1124 -0.1703
  270MOL0     C35568  11.357   0.415   1.766  1.0787 -0.0404 -0.2392
  270MOL0     C35569  11.434   0.466   1.631  0.2461  0.4254  1.0380
  270MOL0     C35570  11.401   0.619   1.615 -0.3851 -0.2027 -0.5856
  270MOL0     C35571  11.467   0.677   1.502 -0.9783 -0.1881 -0.5681
  270MOL0     C35572  11.513   0.715   1.400  0.4988 -0.7597 -0.4193
  270MOL0     C35573  11.077   0.320   1.652  0.2722  0.4206 -1.1175
  270MOL0     C35574  10.964   0.358   1.579 -0.6221  0.4098 -0.1784
  270MOL0     H35575  10.504   0.378   1.493 -3.6190  0.4272 -0.2321
  270MOL0     H35576  10.304   0.421   1.365 -0.9895  1.9022 -2.0545
  270MOL0     H35577  10.136   0.587   1.254 -0.9872 -0.7532 -0.0126
  270MOL0     H35578  10.144   0.430   1.164  2.1791 -1.2477  0.3120
  270MOL0     H35579  10.120   0.568   0.954  2.3852 -0.7637  0.8659
  270MOL0     H35580  10.103   0.711   1.061 -0.9207 -0.1358  1.4279
  270MOL0     H35581   9.894   0.620   1.159 -0.3838 -2.8385  2.5566
  270MOL0     H35582   9.914   0.465   1.071  0.4060  0.8439  0.9973
  270MOL0     H35583   9.864   0.737   0.927  1.8885  0.2384  1.3891
  270MOL0     H35584   9.873   0.565   0.868 -0.5212 -2.9593  2.1191
  270MOL0     H35585   9.681   0.708   1.069 -1.5784  1.9510 -2.5700
  270MOL0     H35586   9.684   0.528   1.064  2.6134 -2.6366 -3.1277
  270MOL0     H35587   9.642   0.575   0.809  1.3567 -0.4750  0.9157
  270MOL0     H35588   9.595   0.736   0.854  1.0877 -0.4165 -1.3629
  270MOL0     H35589   9.426   0.553   0.812 -1.4228  0.4308 -0.0352
  270MOL0     H35590   9.474   0.484   0.969 -2.8591  1.0941  1.7070
  270MOL0     H35591   9.356   0.750   0.912  1.4357  0.0688  0.5351
  270MOL0     H35592   9.369   0.690   1.086 -2.6847  2.1333 -0.1136
  270MOL0     H35593   9.153   0.691   0.780 -1.0907  0.1007  0.1063
  270MOL0     H35594   8.842   0.480   0.806 -0.3764 -0.0498  0.4383
  270MOL0     H35595   8.935   0.587   0.691  2.9060  3.0840  0.8620
  270MOL0     H35596   8.882   0.786   0.833  0.7081  0.1676  1.5072
  270MOL0     H35597   8.803   0.686   0.946  1.6613 -1.4744  0.4743
  270MOL0     H35598   8.709   0.681   0.651 -3.4408 -1.2592 -0.8878
  270MOL0     H35599   8.636   0.631   0.809  0.8996 -1.9263 -2.5757
  270MOL0     H35600   8.687   0.907   0.703  0.8424 -2.3965  0.1215
  270MOL0     H35601   8.645   0.883   0.877 -0.4107  2.0251 -0.0601
  270MOL0     H35602   8.513   1.043   0.944  0.4520  2.1516 -3.0530
  270MOL0     H35603   8.298   1.125   1.078  1.9044 -0.1181  1.1118
  270MOL0     H35604   7.817   1.099   1.197 -1.6327  2.1943  2.3880
  270MOL0     H35605   7.630   1.211   1.237 -0.7112  2.1341 -1.1706
  270MOL0     H35606   7.461   1.373   1.242 -0.0462 -0.5171  2.5900
  270MOL0     H35607   7.387   1.217   1.214  1.3079  0.0824  0.2357
  270MOL0     H35608   7.203   1.378   1.261 -0.0826  0.3525 -0.3387
  270MOL0     H35609   7.204   1.327   1.095 -2.2030  2.0072 -0.1277
  270MOL0     H35610   7.312   1.561   1.040 -1.2107  0.3375 -0.1305
  270MOL0     H35611   7.361   1.572   1.204 -0.6888 -1.4026  2.1275
  270MOL0     H35612   7.076   1.580   1.086 -0.1604 -1.3865  1.2582
  270MOL0     H35613   7.119   1.621   1.257 -1.2679 -0.9266 -0.2954
  270MOL0     H35614   7.095   1.814   1.105 -0.6662  0.4637 -0.5500
  270MOL0     H35615   7.233   1.762   1.000 -2.8722  1.2339 -0.5872
  270MOL0     H35616   7.408   1.801   1.158  1.1104  0.5929  0.8111
  270MOL0     H35617   7.301   1.805   1.292 -2.8762  0.6238  0.2878
  270MOL0     H35618   7.336   2.008   1.059  0.1981  0.5100 -0.1545
  270MOL0     H35619   7.200   2.002   1.183 -1.2096 -1.2512 -2.3643
  270MOL0     H35620   7.362   2.171   1.233  2.1675  0.1999 -1.2546
  270MOL0     H35621   7.489   2.049   1.260  1.3481  2.2119  0.9734
  270MOL0     H35622   7.569   1.296   0.820  0.0950 -0.9662  0.7282
  270MOL0     H35623   7.781   1.175   0.765 -1.3300  2.5296 -0.7733
  270MOL0     H35624   8.056   0.872   0.836 -0.8417  1.5658 -0.3472
  270MOL0     H35625   8.262   0.779   0.725 -0.5816  1.9250 -2.8503
  270MOL0     H35626  10.545   0.674   1.096  2.3783 -0.2829 -0.5882
  270MOL0     H35627  10.736   0.651   1.250 -0.7783 -0.2687  0.4516
  270MOL0     H35628  11.019   0.203   1.285  0.6830  1.7197 -0.7117
  270MOL0     H35629  11.230   0.133   1.410  0.6613  1.1861 -1.5524
  270MOL0     H35630  11.445   0.223   1.784 -1.9461 -1.9449  1.6292
  270MOL0     H35631  11.287   0.214   1.847  3.6130 -1.6655  2.3831
  270MOL0     H35632  11.263   0.468   1.784  0.3565 -0.3921 -2.5895
  270MOL0     H35633  11.411   0.441   1.857  1.8731 -1.7737 -0.1828
  270MOL0     H35634  11.401   0.418   1.539 -1.7570  0.2421  1.7950
  270MOL0     H35635  11.540   0.456   1.659 -0.5257  1.1524  4.8302
  270MOL0     H35636  11.292   0.622   1.604 -0.5567 -2.2343  0.0959
  270MOL0     H35637  11.441   0.669   1.703 -2.1265 -1.6012  1.0773
  270MOL0     H35638  11.541   0.755   1.305  1.9232  2.9596  1.3515
  270MOL0     H35639  11.083   0.360   1.753 -0.4041  0.7709 -1.2112
  270MOL0     H35640  10.894   0.428   1.622  1.1814  1.0563  1.9009
  271MOL0     O35641   3.969   2.672   7.505 -0.4842  0.5285  0.7600
  271MOL0     C35642   3.887   2.717   7.428  0.6403  0.1826  0.9603
  271MOL0     O35643   3.835   2.652   7.316 -0.3710 -0.1930  0.0391
  271MOL0     C35644   3.879   2.528   7.270 -0.6386  0.7469  1.1869
  271MOL0     C35645   3.853   2.494   7.133 -0.6462  0.2229  0.5146
  271MOL0     C35646   3.908   2.386   7.066  0.4867  0.7269 -0.1875
  271MOL0     C35647   3.966   2.284   7.149  0.1395  1.2045 -0.0204
  271MOL0     O35648   3.999   2.161   7.100 -0.0543  0.0379  0.1567
  271MOL0     C35649   3.978   2.118   6.959 -1.3131  0.7907  0.3760
  271MOL0     C35650   3.828   2.082   6.938  0.0740 -0.6535  0.2483
  271MOL0     C35651   3.808   1.994   6.813  0.0591 -0.7212  0.0171
  271MOL0     C35652   3.801   2.066   6.671 -0.9811 -0.2828 -0.2811
  271MOL0     C35653   3.939   2.110   6.621 -0.3716  0.0817  0.6294
  271MOL0     C35654   3.933   2.178   6.481  0.3500  0.5636 -0.2173
  271MOL0     C35655   4.048   2.275   6.456 -1.0289  0.2203  1.2149
  271MOL0     C35656   4.137   2.213   6.347 -1.1002  0.4637  0.8415
  271MOL0     N35657   4.243   2.302   6.313 -1.4077 -0.1518 -0.8040
  271MOL0     C35658   4.250   2.394   6.209  0.3550  0.0039  0.1240
  271MOL0     C35659   4.371   2.443   6.210 -0.0966 -0.0497 -0.0941
  271MOL0     C35660   4.444   2.540   6.124 -0.0019 -0.0892  0.4381
  271MOL0     C35661   4.499   2.665   6.189  0.7960  0.5620  0.2549
  271MOL0     C35662   4.400   2.783   6.239 -0.3830 -0.6970  0.9372
  271MOL0     C35663   4.345   2.857   6.117 -0.6944  0.3517  0.0756
  271MOL0     O35664   4.245   2.953   6.155 -0.3403 -0.9315 -0.1611
  271MOL0     C35665   4.289   3.074   6.201  0.4346 -0.8402  0.0634
  271MOL0     C35666   4.420   3.125   6.203  0.4810 -0.2359  1.6012
  271MOL0     C35667   4.444   3.259   6.230  0.9111 -0.7697  0.6247
  271MOL0     C35668   4.344   3.346   6.282 -0.2814  0.1627  0.2229
  271MOL0     C35669   4.384   3.484   6.298 -0.4817  0.3111 -0.6584
  271MOL0     O35670   4.523   3.515   6.288  0.2413 -0.1257 -0.1217
  271MOL0     C35671   4.560   3.647   6.281 -0.1451  1.4791 -0.4269
  271MOL0     C35672   4.528   3.739   6.387  0.2974 -0.6209 -0.2583
  271MOL0     C35673   4.568   3.873   6.371 -0.2756 -0.0565  0.4914
  271MOL0     C35674   4.648   3.924   6.259  0.3711  0.0163 -0.2133
  271MOL0     O35675   4.707   4.049   6.249  0.1900 -0.1042 -0.2269
  271MOL0     C35676   4.704   4.150   6.351 -0.9799 -0.5520 -0.1181
  271MOL0     C35677   4.751   4.284   6.289  0.2031 -0.8856  0.9703
  271MOL0     C35678   4.852   4.268   6.175 -0.4862 -0.1882  0.1466
  271MOL0     C35679   4.786   4.237   6.034  1.1405  0.5089  0.0863
  271MOL0     C35680   4.727   4.356   5.959 -0.9129  0.2610 -0.7383
  271MOL0     C35681   4.608   4.311   5.869  1.0289 -0.1589 -0.6414
  271MOL0     C35682   4.574   4.413   5.761 -0.3779 -0.4849  0.4019
  271MOL0     C35683   4.456   4.358   5.666 -0.0477 -0.1941  0.1000
  271MOL0    Cl35684   4.377   4.519   5.614  0.2401  0.3357 -0.1706
  271MOL0     C35685   4.688   3.830   6.169 -0.2883 -0.4863 -0.1598
  271MOL0     C35686   4.648   3.690   6.184  0.3906 -0.0731  0.1609
  271MOL0     O35687   4.291   3.570   6.302  0.3037 -0.6662  0.6288
  271MOL0     C35688   4.212   3.292   6.300 -0.9975  0.1141 -0.5249
  271MOL0     C35689   4.188   3.156   6.259 -0.1555 -0.6350 -0.0251
  271MOL0     N35690   4.441   2.374   6.311 -0.0035 -0.2218 -0.4528
  271MOL0     N35691   4.364   2.294   6.374  0.4011  0.0315 -0.5180
  271MOL0     C35692   3.998   2.314   7.282 -0.1816  0.0251 -0.7498
  271MOL0     C35693   3.950   2.430   7.339 -0.3093 -0.1495 -0.6358
  271MOL0     C35694   3.843   2.857   7.455 -0.7707 -0.4934 -0.5901
  271MOL0     C35695   3.750   2.930   7.369  0.2182  0.2917 -0.0836
  271MOL0     C35696   3.719   3.065   7.411  0.5796  0.5313 -0.5347
  271MOL0     C35697   3.755   3.116   7.537  0.0353  0.3397  0.2123
  271MOL0     O35698   3.720   3.240   7.579 -0.5127 -0.5984 -0.0732
  271MOL0     C35699   3.795   3.347   7.508  1.0806 -0.5994  0.3437
  271MOL0     C35700   3.735   3.485   7.558 -0.1227  0.4296  1.4311
  271MOL0     C35701   3.586   3.486   7.550  0.3532  0.9736 -1.3991
  271MOL0     C35702   3.535   3.625   7.587 -0.5154  0.8285  0.4307
  271MOL0     C35703   3.552   3.727   7.487  0.5540 -0.2361 -0.4489
  271MOL0     C35704   3.568   3.801   7.393 -0.4079  0.3301 -0.4005
  271MOL0     C35705   3.846   3.047   7.613  0.2983 -0.1097  0.1661
  271MOL0     C35706   3.889   2.925   7.570  0.0460 -0.8727 -0.0285
  271MOL0     H35707   3.806   2.560   7.062  3.8946  2.7890 -0.5529
  271MOL0     H35708   3.903   2.386   6.958  1.5615 -0.8363 -0.2678
  271MOL0     H35709   4.032   2.025   6.940 -1.0715  1.0993 -0.5063
  271MOL0     H35710   4.012   2.188   6.882  1.5153 -1.4961 -0.6133
  271MOL0     H35711   3.770   2.173   6.926  1.7067  0.4844  0.6679
  271MOL0     H35712   3.786   2.019   7.017 -0.6934 -1.3993 -0.7343
  271MOL0     H35713   3.711   1.949   6.837 -2.4329  3.4557 -1.1339
  271MOL0     H35714   3.885   1.917   6.808 -1.5034 -2.3352 -0.6694
  271MOL0     H35715   3.766   1.990   6.600  0.5234  0.8224 -2.2787
  271MOL0     H35716   3.728   2.147   6.676  2.3813  3.0011 -0.2378
  271MOL0     H35717   3.999   2.019   6.608 -1.0373 -0.0144 -2.3938
  271MOL0     H35718   3.976   2.186   6.690  1.1588  2.2631 -2.3830
  271MOL0     H35719   3.844   2.239   6.466 -0.1585  0.0411  0.6304
  271MOL0     H35720   3.936   2.092   6.413  0.5592 -0.4037  0.9700
  271MOL0     H35721   4.002   2.366   6.417  1.4557  1.1533  0.2497
  271MOL0     H35722   4.109   2.307   6.541 -1.8852  0.4950  1.7372
  271MOL0     H35723   4.085   2.187   6.254  1.3109 -0.0090 -0.4710
  271MOL0     H35724   4.182   2.124   6.391  1.1926  1.9137  1.6213
  271MOL0     H35725   4.168   2.421   6.143  0.5094  0.5726  0.1626
  271MOL0     H35726   4.366   2.576   6.057 -2.0622 -0.8727  2.2969
  271MOL0     H35727   4.521   2.488   6.067 -0.3891  0.0862 -0.2501
  271MOL0     H35728   4.568   2.708   6.115 -0.3183  0.2374 -1.0323
  271MOL0     H35729   4.558   2.629   6.273  2.1608  0.4752 -0.7067
  271MOL0     H35730   4.324   2.742   6.306 -1.1641  1.8885  1.7412
  271MOL0     H35731   4.454   2.858   6.296 -0.6103 -0.4458  0.8215
  271MOL0     H35732   4.304   2.784   6.046  0.6116 -1.5748  1.2090
  271MOL0     H35733   4.427   2.909   6.067  0.6169  0.0626  1.8364
  271MOL0     H35734   4.493   3.064   6.151 -2.2401 -3.0083  0.7343
  271MOL0     H35735   4.546   3.295   6.219 -0.1211  1.8650 -1.1159
  271MOL0     H35736   4.475   3.698   6.473 -1.8198 -1.5657 -1.9153
  271MOL0     H35737   4.537   3.949   6.442 -0.4289  2.1397 -1.7672
  271MOL0     H35738   4.787   4.116   6.415 -1.3932 -0.1724  0.6295
  271MOL0     H35739   4.623   4.159   6.423 -0.0485 -0.6479  0.9697
  271MOL0     H35740   4.794   4.339   6.373 -1.4451 -1.3759  2.1887
  271MOL0     H35741   4.666   4.339   6.247  0.2889 -3.2134 -2.6946
  271MOL0     H35742   4.931   4.201   6.209  0.5775  1.2514  0.5950
  271MOL0     H35743   4.890   4.370   6.162 -1.2546  0.1461  0.4197
  271MOL0     H35744   4.851   4.173   5.975 -2.3127 -2.3708 -0.9959
  271MOL0     H35745   4.700   4.172   6.055 -0.6156  2.8813  0.5929
  271MOL0     H35746   4.812   4.398   5.904 -1.5502  1.8950 -0.5521
  271MOL0     H35747   4.701   4.436   6.029 -3.7562 -0.6424 -0.6485
  271MOL0     H35748   4.519   4.299   5.932  0.1370  2.8879 -1.1597
  271MOL0     H35749   4.633   4.214   5.824  0.6148 -0.2877 -0.5981
  271MOL0     H35750   4.545   4.505   5.811 -0.7839 -0.1259 -0.4743
  271MOL0     H35751   4.661   4.427   5.695 -0.4960  1.9614  0.6658
  271MOL0     H35752   4.388   4.302   5.729  1.8765 -0.6796  1.8538
  271MOL0     H35753   4.501   4.294   5.589  2.9341 -0.0625  1.5592
  271MOL0     H35754   4.750   3.863   6.086  2.0131 -3.0340  0.3772
  271MOL0     H35755   4.676   3.612   6.113 -2.8919  0.1910 -1.6214
  271MOL0     H35756   4.145   3.358   6.355  0.1015 -1.1599  2.5887
  271MOL0     H35757   4.088   3.116   6.272  0.2364 -1.0896  1.8918
  271MOL0     H35758   4.057   2.237   7.331  1.0142  1.3882  0.0177
  271MOL0     H35759   3.962   2.440   7.446 -1.2761 -1.1480 -0.4121
  271MOL0     H35760   3.696   2.897   7.281 -1.8226 -0.0023  1.2016
  271MOL0     H35761   3.645   3.115   7.350  2.0993  2.0751 -1.1662
  271MOL0     H35762   3.795   3.340   7.399 -0.6049  0.6252  0.2170
  271MOL0     H35763   3.898   3.351   7.543  0.6592 -0.6583  1.6257
  271MOL0     H35764   3.761   3.502   7.663 -1.3984 -2.3269  2.3006
  271MOL0     H35765   3.779   3.566   7.499  0.8362 -0.5821  0.6915
  271MOL0     H35766   3.542   3.423   7.628  1.6005  1.4018 -0.3173
  271MOL0     H35767   3.551   3.455   7.451 -0.8167 -2.1759 -0.1283
  271MOL0     H35768   3.426   3.613   7.589 -0.5936 -0.5842 -3.3266
  271MOL0     H35769   3.573   3.657   7.684  1.5449  1.0810 -0.4201
  271MOL0     H35770   3.574   3.854   7.299  1.9871 -0.0971 -0.5255
  271MOL0     H35771   3.876   3.099   7.703 -0.2603 -0.3197  0.4750
  271MOL0     H35772   3.961   2.877   7.635  2.4360  0.4872 -1.4723
  272MOL0     O35773   5.112  10.157   2.279  0.0884 -0.0216 -0.4877
  272MOL0     C35774   5.147  10.259   2.338 -0.0987 -0.1183  1.0768
  272MOL0     O35775   5.059  10.352   2.374 -0.5699  0.3110  0.6398
  272MOL0     C35776   4.931  10.359   2.311  0.2346 -0.1070  0.2652
  272MOL0     C35777   4.895  10.316   2.182 -0.2462  0.3952  0.0425
  272MOL0     C35778   4.771  10.352   2.134  1.2253 -0.0777  0.4736
  272MOL0     C35779   4.670  10.400   2.209  0.1424 -0.4841 -0.1911
  272MOL0     O35780   4.555  10.432   2.139  0.2381 -0.1547  0.4017
  272MOL0     C35781   4.448  10.506   2.185 -0.4147 -1.0007 -0.2521
  272MOL0     C35782   4.322  10.465   2.110  1.1239  0.4578  0.4960
  272MOL0     C35783   4.197  10.515   2.181 -0.3475  0.2751  0.0982
  272MOL0     C35784   4.163  10.661   2.129  0.2171 -0.0723 -0.2109
  272MOL0     C35785   4.038  10.724   2.191 -0.1288 -1.6346 -0.1271
  272MOL0     C35786   3.996  10.850   2.123  0.5885 -0.6698 -0.2363
  272MOL0     C35787   3.871  10.911   2.197 -0.1438 -0.6555  0.8721
  272MOL0     C35788   3.739  10.837   2.177 -0.9081 -0.0161  1.1610
  272MOL0     N35789   3.628  10.886   2.259 -0.7764 -0.1556 -0.2321
  272MOL0     C35790   3.568  11.002   2.232  0.3656 -0.0227  0.9214
  272MOL0     C35791   3.449  10.998   2.297 -0.2883 -1.1873  0.7528
  272MOL0     C35792   3.346  11.104   2.305  0.3280  0.1897  0.0639
  272MOL0     C35793   3.278  11.106   2.445 -0.8823 -0.3744  0.0125
  272MOL0     C35794   3.185  11.233   2.440 -0.5114 -0.1953 -0.0349
  272MOL0     C35795   3.051  11.217   2.373  0.4865  0.2506 -0.6081
  272MOL0     O35796   3.040  11.264   2.245 -0.7232 -0.6459 -0.3504
  272MOL0     C35797   2.914  11.302   2.197 -0.1028  0.4139 -1.1195
  272MOL0     C35798   2.792  11.284   2.264  0.3448 -0.1510  0.3780
  272MOL0     C35799   2.674  11.317   2.208 -0.7046  0.0430 -0.8852
  272MOL0     C35800   2.669  11.386   2.093 -0.3187 -1.0877 -0.2505
  272MOL0     C35801   2.535  11.399   2.026 -0.4146  0.6069 -0.0216
  272MOL0     O35802   2.532  11.383   1.889  0.7545 -0.3000 -0.3708
  272MOL0     C35803   2.412  11.413   1.836  0.6618  0.3156 -0.3636
  272MOL0     C35804   2.311  11.320   1.850 -0.9733  0.3175 -0.0872
  272MOL0     C35805   2.196  11.330   1.775  0.8230  0.2976  0.2539
  272MOL0     C35806   2.170  11.424   1.680  0.0643 -1.5061  0.5381
  272MOL0     O35807   2.051  11.434   1.622 -0.3497 -0.0091  0.1588
  272MOL0     C35808   1.988  11.564   1.658 -0.7254  0.4430  0.2797
  272MOL0     C35809   1.840  11.541   1.707 -0.5498 -0.6139 -0.6651
  272MOL0     C35810   1.807  11.431   1.804 -0.6064  0.5881  0.2621
  272MOL0     C35811   1.732  11.321   1.735  0.3738 -0.4812  0.3901
  272MOL0     C35812   1.695  11.209   1.832 -0.0136 -1.0373 -0.0169
  272MOL0     C35813   1.633  11.092   1.763 -0.1701 -0.3926 -0.2020
  272MOL0     C35814   1.493  11.135   1.711  0.2087  0.8260 -0.2922
  272MOL0     C35815   1.413  11.000   1.686 -0.0102 -0.3573  0.3928
  272MOL0    Cl35816   1.481  10.920   1.548  0.1231 -0.4131 -0.1061
  272MOL0     C35817   2.274  11.521   1.660 -0.5693  0.3749 -0.1447
  272MOL0     C35818   2.390  11.505   1.738 -0.0883 -0.9372 -0.2934
  272MOL0     O35819   2.435  11.417   2.106 -0.2995 -0.1655 -0.0082
  272MOL0     C35820   2.789  11.417   2.022  0.7567 -0.7127 -0.4973
  272MOL0     C35821   2.913  11.367   2.075 -0.1726 -0.4009 -0.5216
  272MOL0     N35822   3.439  10.878   2.366 -0.6532 -0.5338 -0.4663
  272MOL0     N35823   3.552  10.817   2.350 -0.2544 -0.0536  0.6014
  272MOL0     C35824   4.689  10.425   2.340 -0.5732 -1.0672  0.0455
  272MOL0     C35825   4.826  10.419   2.386 -1.0609 -0.2655 -0.0766
  272MOL0     C35826   5.289  10.263   2.387  0.2890  0.1809 -0.1138
  272MOL0     C35827   5.381  10.155   2.375  0.0434  0.7608  0.3002
  272MOL0     C35828   5.520  10.176   2.405  0.4823  1.0697  0.8354
  272MOL0     C35829   5.569  10.294   2.449 -0.1027 -0.2955  0.5304
  272MOL0     O35830   5.699  10.307   2.472  0.4873  0.1929  0.0488
  272MOL0     C35831   5.782  10.407   2.399  0.7250 -0.2108 -0.4137
  272MOL0     C35832   5.774  10.397   2.244  0.1593 -0.5940  0.5205
  272MOL0     C35833   5.892  10.333   2.175 -0.5059  0.2267 -0.0485
  272MOL0     C35834   5.900  10.177   2.190  0.4533  0.1948  0.2419
  272MOL0     C35835   5.987  10.136   2.072 -0.3150 -0.7128 -0.1414
  272MOL0     C35836   6.045  10.111   1.971 -0.1757  0.5483 -0.3606
  272MOL0     C35837   5.475  10.402   2.470 -0.4554  0.6200 -0.1003
  272MOL0     C35838   5.341  10.386   2.433 -0.2068 -0.5729 -0.8185
  272MOL0     H35839   4.967  10.269   2.116 -1.0003 -0.9955  0.1631
  272MOL0     H35840   4.749  10.326   2.031  1.8003  0.1714  0.2830
  272MOL0     H35841   4.487  10.604   2.156 -0.4019 -0.9425 -0.0385
  272MOL0     H35842   4.444  10.494   2.294 -0.0420  1.2962  0.0728
  272MOL0     H35843   4.313  10.356   2.100 -1.4281  0.8455 -4.4957
  272MOL0     H35844   4.335  10.496   2.006 -1.3029 -3.3581 -1.1421
  272MOL0     H35845   4.215  10.520   2.288 -0.6678 -0.1128  0.1744
  272MOL0     H35846   4.125  10.435   2.162  0.7363 -1.6322  3.3090
  272MOL0     H35847   4.253  10.721   2.148  0.7526 -1.2415  1.1038
  272MOL0     H35848   4.153  10.655   2.020 -0.4273 -2.6308 -0.0665
  272MOL0     H35849   4.052  10.768   2.290 -0.3331  1.8606 -1.5327
  272MOL0     H35850   3.958  10.649   2.193 -3.8258  1.8271  3.8444
  272MOL0     H35851   3.965  10.830   2.020 -0.6808  0.1335 -0.0330
  272MOL0     H35852   4.072  10.928   2.123 -1.2782  1.2596 -1.1072
  272MOL0     H35853   3.889  10.932   2.303 -2.2211  1.3750  0.8916
  272MOL0     H35854   3.847  11.011   2.163 -1.3012 -2.0181 -2.7688
  272MOL0     H35855   3.755  10.731   2.201 -2.7476  0.1318  3.2649
  272MOL0     H35856   3.712  10.833   2.071 -0.3314 -4.2236  0.9763
  272MOL0     H35857   3.600  11.095   2.185 -0.7490 -0.3980 -0.6673
  272MOL0     H35858   3.272  11.076   2.230 -1.1085  0.2458  1.4110
  272MOL0     H35859   3.378  11.201   2.266 -1.3059 -0.3915 -3.1084
  272MOL0     H35860   3.348  11.118   2.529  0.4800 -2.0050 -0.8320
  272MOL0     H35861   3.229  11.011   2.463 -0.4152 -0.1075  3.3275
  272MOL0     H35862   3.167  11.256   2.545 -1.2385  1.8757 -0.5825
  272MOL0     H35863   3.233  11.314   2.384 -3.4319 -0.5209 -3.3861
  272MOL0     H35864   2.971  11.264   2.430 -0.6761 -1.1050 -1.0510
  272MOL0     H35865   3.024  11.111   2.377  1.0379  0.1567  2.6804
  272MOL0     H35866   2.786  11.232   2.359 -2.8705 -0.1940  0.2381
  272MOL0     H35867   2.584  11.299   2.266 -0.3615 -2.1672 -0.9434
  272MOL0     H35868   2.335  11.241   1.920  2.4502 -1.7619 -3.2273
  272MOL0     H35869   2.122  11.252   1.789  1.5821 -0.2444  1.4642
  272MOL0     H35870   1.993  11.631   1.572 -0.0393  1.0793  0.8098
  272MOL0     H35871   2.043  11.606   1.743 -0.4292  4.7583 -1.7804
  272MOL0     H35872   1.772  11.531   1.623 -0.7966  0.5868 -0.6316
  272MOL0     H35873   1.808  11.634   1.756 -3.3767 -1.2883 -1.0559
  272MOL0     H35874   1.749  11.465   1.891  1.0250  0.0237  1.6157
  272MOL0     H35875   1.903  11.392   1.838  0.0035  0.0888 -1.8793
  272MOL0     H35876   1.645  11.363   1.685 -0.5654 -0.4227  1.9896
  272MOL0     H35877   1.794  11.283   1.654 -5.0126 -3.1546 -3.1126
  272MOL0     H35878   1.629  11.243   1.912  2.2926  3.9355  0.1848
  272MOL0     H35879   1.789  11.174   1.877  0.3741  0.8363  0.7155
  272MOL0     H35880   1.619  11.017   1.842 -0.7570  0.8537  0.9041
  272MOL0     H35881   1.703  11.045   1.693  0.9079 -0.5876  0.9733
  272MOL0     H35882   1.444  11.199   1.785 -0.1327 -1.4240  1.5324
  272MOL0     H35883   1.510  11.190   1.618  0.2692 -1.6753 -1.8434
  272MOL0     H35884   1.311  11.029   1.658  1.1571  1.5058 -2.2670
  272MOL0     H35885   1.415  10.926   1.767 -1.2741 -2.7638 -1.6397
  272MOL0     H35886   2.270  11.600   1.586 -1.2641  3.3680  2.8459
  272MOL0     H35887   2.475  11.566   1.708 -0.9508  0.6853  0.4274
  272MOL0     H35888   2.784  11.470   1.927  0.4815 -1.1446 -0.7242
  272MOL0     H35889   3.005  11.382   2.019 -0.4604  1.9909 -0.4832
  272MOL0     H35890   4.618  10.472   2.407  1.7231 -1.3789  2.9383
  272MOL0     H35891   4.854  10.447   2.488  5.8242 -1.1716 -1.2074
  272MOL0     H35892   5.357  10.054   2.345  1.4500  1.3725 -3.4109
  272MOL0     H35893   5.591  10.095   2.392 -2.8077 -2.2180  1.7069
  272MOL0     H35894   5.887  10.410   2.432  0.7345  2.4419 -0.4464
  272MOL0     H35895   5.750  10.505   2.436  0.3153 -0.5018  0.0288
  272MOL0     H35896   5.674  10.361   2.218 -0.2098 -0.9038  2.2727
  272MOL0     H35897   5.772  10.499   2.204  0.3830  0.0214  2.0155
  272MOL0     H35898   5.981  10.387   2.207 -1.2229  1.2709  0.2491
  272MOL0     H35899   5.879  10.353   2.068  0.4278 -1.3996 -0.4893
  272MOL0     H35900   5.948  10.147   2.283  2.5965  0.4752 -0.7126
  272MOL0     H35901   5.803  10.127   2.184  0.4311  0.4077 -1.9725
  272MOL0     H35902   6.090  10.091   1.876 -1.8471  0.3410 -1.1517
  272MOL0     H35903   5.513  10.498   2.504 -2.7249  1.2801  0.7448
  272MOL0     H35904   5.272  10.468   2.453 -1.3432 -1.9754  1.3656
  273MOL0     O35905  10.977   5.504   3.339 -0.0890  0.3027  0.4828
  273MOL0     C35906  10.872   5.440   3.306  0.2641 -0.1648 -0.2203
  273MOL0     O35907  10.805   5.357   3.381 -0.3469  0.7337 -0.0027
  273MOL0     C35908  10.876   5.302   3.480  0.0342  0.4122  0.4894
  273MOL0     C35909  10.852   5.332   3.615 -0.5223  0.4376  0.1244
  273MOL0     C35910  10.937   5.273   3.710  0.6077 -0.6714  0.1264
  273MOL0     C35911  11.043   5.196   3.670 -0.5510  0.0066 -0.1787
  273MOL0     O35912  11.119   5.161   3.778 -0.2927 -0.0818  0.3537
  273MOL0     C35913  11.184   5.036   3.765 -0.0170  0.0282 -0.4092
  273MOL0     C35914  11.223   4.998   3.906 -0.2601 -0.0505 -0.4565
  273MOL0     C35915  11.335   5.075   3.955 -0.3620 -0.3654 -0.3233
  273MOL0     C35916  11.366   5.030   4.101 -0.2090  0.6816  0.5941
  273MOL0     C35917  11.473   5.102   4.173 -0.1735 -0.9296 -0.3396
  273MOL0     C35918  11.525   5.024   4.293 -0.0440 -0.1141  0.3545
  273MOL0     C35919  11.608   4.892   4.265 -0.0605 -0.3241 -1.0596
  273MOL0     C35920  11.660   4.841   4.399  0.0787  0.3679 -0.1093
  273MOL0     N35921  11.772   4.743   4.387 -0.3914 -0.9809  0.1318
  273MOL0     C35922  11.800   4.637   4.473 -1.4993  0.3704 -0.1739
  273MOL0     C35923  11.928   4.590   4.450 -0.2839  0.2056 -0.1357
  273MOL0     C35924  12.017   4.496   4.524  0.0187  0.1482  0.4788
  273MOL0     C35925  11.935   4.372   4.564 -1.0461 -0.1048  0.5566
  273MOL0     C35926  12.017   4.276   4.657 -0.9740  0.2321 -0.3498
  273MOL0     C35927  11.950   4.143   4.689  0.1034 -0.1278  0.7980
  273MOL0     O35928  11.928   4.054   4.575 -0.3157  1.0271  0.1191
  273MOL0     C35929  11.814   4.048   4.500  0.5180  0.3037  0.1957
  273MOL0     C35930  11.826   3.968   4.385  0.7104  0.0386 -0.2848
  273MOL0     C35931  11.712   3.959   4.297 -0.6127 -0.1279  0.1325
  273MOL0     C35932  11.590   4.016   4.326 -0.0804 -0.1796 -0.4009
  273MOL0     C35933  11.480   4.004   4.228 -0.1910 -0.3992 -0.7344
  273MOL0     O35934  11.365   4.072   4.263  0.0163  0.4417 -0.3835
  273MOL0     C35935  11.246   4.053   4.204 -0.1552 -0.6484 -0.4429
  273MOL0     C35936  11.210   3.942   4.129 -0.0932 -0.1122 -0.5050
  273MOL0     C35937  11.082   3.927   4.065 -0.3061  0.0367  1.1731
  273MOL0     C35938  10.986   4.030   4.077 -0.8920  0.0013 -0.0731
  273MOL0     O35939  10.862   4.020   4.017  0.3040 -0.3105  0.5871
  273MOL0     C35940  10.762   3.930   4.079 -0.6835  0.3660  0.0992
  273MOL0     C35941  10.667   3.862   3.984 -1.8604 -0.9783 -0.0009
  273MOL0     C35942  10.552   3.796   4.060  0.5313 -1.1278  0.5820
  273MOL0     C35943  10.594   3.654   4.096  0.2652  0.1036  0.3368
  273MOL0     C35944  10.483   3.564   4.150 -0.0247 -0.3322  0.2139
  273MOL0     C35945  10.421   3.608   4.284  0.1860  0.5798 -0.0235
  273MOL0     C35946  10.309   3.510   4.310  0.8354 -0.5696 -0.1103
  273MOL0     C35947  10.361   3.395   4.393 -0.7505  0.5392  0.0838
  273MOL0    Cl35948  10.271   3.249   4.347  0.7696 -0.2760  0.4842
  273MOL0     C35949  11.017   4.135   4.165 -0.0832  0.6387 -0.0197
  273MOL0     C35950  11.146   4.151   4.225  0.7198  0.3724 -0.5160
  273MOL0     O35951  11.502   3.934   4.122  0.0442 -0.1479 -0.5301
  273MOL0     C35952  11.571   4.085   4.445 -0.1121  0.6154 -0.4758
  273MOL0     C35953  11.687   4.105   4.528 -0.4713  0.8004  0.6144
  273MOL0     N35954  11.972   4.668   4.347 -0.2258 -0.2261 -0.1364
  273MOL0     N35955  11.883   4.748   4.306  0.6952 -0.8509  0.4336
  273MOL0     C35956  11.055   5.150   3.539  0.3277 -0.1804  0.8592
  273MOL0     C35957  10.968   5.200   3.442  0.2037 -0.6506  0.0325
  273MOL0     C35958  10.818   5.469   3.173  0.4282 -1.4361  0.5425
  273MOL0     C35959  10.892   5.512   3.060  0.3337  0.4536 -0.0773
  273MOL0     C35960  10.820   5.523   2.943 -1.5559  0.9321 -0.6106
  273MOL0     C35961  10.684   5.511   2.923 -0.3362 -1.3768 -0.4416
  273MOL0     O35962  10.641   5.533   2.794  0.3910  0.3573 -0.2070
  273MOL0     C35963  10.491   5.538   2.774 -0.2047  0.1032 -0.5107
  273MOL0     C35964  10.459   5.617   2.650 -0.0437  0.8076 -0.3027
  273MOL0     C35965  10.476   5.771   2.671 -0.2558 -0.2610  0.8927
  273MOL0     C35966  10.469   5.848   2.532  0.1581  0.3537 -0.3209
  273MOL0     C35967  10.333   5.883   2.495  0.2753 -0.0930 -0.7575
  273MOL0     C35968  10.219   5.912   2.452  0.3305  0.0647  0.0168
  273MOL0     C35969  10.611   5.480   3.038  0.2069  0.4388 -0.1763
  273MOL0     C35970  10.673   5.464   3.161  0.6956 -0.4175  0.4328
  273MOL0     H35971  10.774   5.398   3.653  0.5459  1.7545  0.1108
  273MOL0     H35972  10.939   5.306   3.814 -2.2005 -0.7059  0.2628
  273MOL0     H35973  11.272   5.036   3.700  1.2878  0.9527  1.2865
  273MOL0     H35974  11.122   4.951   3.735  0.4205  0.3913 -2.5571
  273MOL0     H35975  11.240   4.890   3.915 -1.7576 -0.3677 -1.1596
  273MOL0     H35976  11.148   5.012   3.985  0.5684  3.2556 -0.1317
  273MOL0     H35977  11.317   5.183   3.966 -1.1708 -0.5134 -0.1039
  273MOL0     H35978  11.418   5.066   3.884 -0.8026  0.6680 -0.9900
  273MOL0     H35979  11.275   5.018   4.160  0.1125 -0.4072  0.8927
  273MOL0     H35980  11.404   4.929   4.085 -0.1635  0.8128 -0.1416
  273MOL0     H35981  11.431   5.200   4.196  1.5656 -0.4565  1.1462
  273MOL0     H35982  11.557   5.122   4.106 -1.4145 -1.5310 -2.1219
  273MOL0     H35983  11.442   4.989   4.356 -0.8205 -3.0122 -2.0672
  273MOL0     H35984  11.570   5.104   4.352  1.0759  2.8257 -4.0168
  273MOL0     H35985  11.556   4.810   4.214 -1.4304  0.0942 -0.3980
  273MOL0     H35986  11.696   4.919   4.206  0.3645  0.7595  0.0318
  273MOL0     H35987  11.574   4.796   4.449  1.3366 -0.8182  1.1170
  273MOL0     H35988  11.694   4.925   4.460 -1.4530  1.3873 -0.6248
  273MOL0     H35989  11.727   4.596   4.542 -0.0634 -1.3075  0.4305
  273MOL0     H35990  12.062   4.548   4.609  1.6102 -1.0864  0.4308
  273MOL0     H35991  12.095   4.464   4.455 -0.4368 -2.9248  1.2640
  273MOL0     H35992  11.899   4.321   4.474 -1.4607  0.7083  0.2586
  273MOL0     H35993  11.846   4.397   4.623 -0.1618  2.9016  0.7704
  273MOL0     H35994  12.114   4.258   4.610 -0.8862 -0.5041  0.0918
  273MOL0     H35995  12.039   4.324   4.753 -3.6206 -0.9061  0.9245
  273MOL0     H35996  11.865   4.149   4.758 -0.5706  1.6355 -0.1217
  273MOL0     H35997  12.023   4.079   4.740  1.5254  1.0526  0.3134
  273MOL0     H35998  11.914   3.909   4.363 -0.5559 -1.4683 -1.5591
  273MOL0     H35999  11.730   3.916   4.200  0.2168 -0.5150  0.4530
  273MOL0     H36000  11.272   3.855   4.109 -1.4608 -1.2916  0.1478
  273MOL0     H36001  11.063   3.854   3.987  1.7414  2.9215 -2.3557
  273MOL0     H36002  10.691   3.988   4.139 -2.6256  0.4641 -2.1292
  273MOL0     H36003  10.804   3.851   4.142 -4.4033 -2.0307 -0.1507
  273MOL0     H36004  10.733   3.788   3.938  1.0332  1.8476 -0.7605
  273MOL0     H36005  10.622   3.924   3.906 -1.2487 -2.4731 -1.6042
  273MOL0     H36006  10.463   3.782   3.997  0.3976  2.7964 -0.3339
  273MOL0     H36007  10.522   3.850   4.150  0.0489  0.5635 -0.5380
  273MOL0     H36008  10.627   3.607   4.003 -0.2611  1.8581 -0.7821
  273MOL0     H36009  10.681   3.667   4.162  1.1409 -0.6920 -0.6241
  273MOL0     H36010  10.505   3.457   4.157 -1.0821 -0.4584  2.8006
  273MOL0     H36011  10.397   3.570   4.082  0.5774  1.3398 -0.4604
  273MOL0     H36012  10.371   3.705   4.288  1.4534  1.2175  1.9653
  273MOL0     H36013  10.490   3.619   4.368  0.1038 -0.4803  0.2020
  273MOL0     H36014  10.236   3.555   4.377 -0.4300 -0.6925 -1.3635
  273MOL0     H36015  10.243   3.491   4.225 -2.0207  2.1141  1.3148
  273MOL0     H36016  10.338   3.405   4.499 -0.6594  1.7122  0.0002
  273MOL0     H36017  10.466   3.381   4.366 -0.0677  2.0123  1.8242
  273MOL0     H36018  10.933   4.199   4.190  1.6183  2.7815  0.5723
  273MOL0     H36019  11.155   4.239   4.288  0.3412 -0.3189  0.5248
  273MOL0     H36020  11.477   4.126   4.483  0.6792  2.4581 -0.3916
  273MOL0     H36021  11.676   4.172   4.613  2.4438 -2.1930  3.6699
  273MOL0     H36022  11.140   5.087   3.513  1.8961  1.0827  2.6388
  273MOL0     H36023  10.972   5.161   3.341 -0.8755  0.3700 -0.4384
  273MOL0     H36024  11.000   5.521   3.057  0.7085 -2.2617  1.3525
  273MOL0     H36025  10.874   5.562   2.857  0.3717 -1.7352 -0.7440
  273MOL0     H36026  10.435   5.580   2.857  0.4492 -0.5462  0.2802
  273MOL0     H36027  10.459   5.434   2.762  0.6139 -0.0556 -1.4622
  273MOL0     H36028  10.512   5.582   2.561  0.3802  0.7186 -0.0192
  273MOL0     H36029  10.353   5.593   2.638 -0.3509  2.6556 -1.7163
  273MOL0     H36030  10.573   5.780   2.720  0.3193 -3.1154  0.4437
  273MOL0     H36031  10.403   5.805   2.746  0.0437  1.7859  0.3233
  273MOL0     H36032  10.522   5.942   2.552 -1.5668  1.4359 -0.6248
  273MOL0     H36033  10.504   5.794   2.444 -3.6714  1.0632 -2.5399
  273MOL0     H36034  10.124   5.949   2.419 -0.9017  0.4003  3.5489
  273MOL0     H36035  10.506   5.458   3.022  1.1141 -3.3049 -2.2519
  273MOL0     H36036  10.603   5.445   3.242 -1.4282  0.6230 -1.0549
  274MOL0     O36037   7.639   1.484   5.287 -0.9793 -0.1048 -0.7197
  274MOL0     C36038   7.545   1.407   5.279 -0.0350  0.1485 -0.2823
  274MOL0     O36039   7.542   1.268   5.308 -0.5252  0.5311 -0.0267
  274MOL0     C36040   7.662   1.210   5.355 -0.2010  0.4261  0.2976
  274MOL0     C36041   7.675   1.080   5.310  0.3603 -0.5487  0.4800
  274MOL0     C36042   7.791   1.010   5.359  0.0999  0.0180  1.0966
  274MOL0     C36043   7.888   1.067   5.446  1.0744 -0.6166  0.0353
  274MOL0     O36044   7.988   0.995   5.489 -0.2764  0.4580 -0.9693
  274MOL0     C36045   8.051   0.916   5.395 -0.3291  0.1652  0.5537
  274MOL0     C36046   8.195   0.898   5.431 -0.1913  0.3016 -0.9864
  274MOL0     C36047   8.215   0.848   5.571 -0.3036  0.0715  0.3147
  274MOL0     C36048   8.366   0.848   5.601  0.4322  0.7107  0.0915
  274MOL0     C36049   8.411   0.778   5.732  0.6365 -0.1101 -0.5390
  274MOL0     C36050   8.562   0.779   5.762 -0.1989 -0.2622  0.6232
  274MOL0     C36051   8.609   0.900   5.840 -0.4411 -0.2026 -0.0130
  274MOL0     C36052   8.757   0.899   5.870 -0.1086 -0.4554  0.2005
  274MOL0     N36053   8.812   1.011   5.950 -1.1830 -0.1772  0.1839
  274MOL0     C36054   8.777   1.040   6.081  0.7466  0.2273 -0.1385
  274MOL0     C36055   8.845   1.153   6.115  0.1641 -0.1546 -0.0612
  274MOL0     C36056   8.843   1.232   6.245  1.0998 -0.3329  0.4173
  274MOL0     C36057   8.910   1.154   6.365  0.0268  0.3560  0.1711
  274MOL0     C36058   8.866   1.187   6.512 -0.0992 -0.0630  0.3367
  274MOL0     C36059   8.880   1.065   6.605  0.5926 -0.2111 -0.0564
  274MOL0     O36060   8.926   1.103   6.744  0.8999 -1.0138 -0.1585
  274MOL0     C36061   8.833   1.155   6.830  0.1037  0.1143 -0.4355
  274MOL0     C36062   8.694   1.181   6.803 -0.6320  0.5170 -0.2798
  274MOL0     C36063   8.602   1.204   6.908 -0.8520 -1.4518 -0.7122
  274MOL0     C36064   8.652   1.221   7.038 -0.6518  0.7674 -0.0772
  274MOL0     C36065   8.577   1.256   7.163 -0.0355  0.7348  0.7030
  274MOL0     O36066   8.636   1.228   7.285 -0.6748 -0.5497  0.0861
  274MOL0     C36067   8.573   1.266   7.398  0.3771 -0.3521  0.3665
  274MOL0     C36068   8.435   1.299   7.427 -0.0896 -0.3969 -0.8438
  274MOL0     C36069   8.403   1.341   7.555  0.2921  1.1378 -0.8461
  274MOL0     C36070   8.486   1.318   7.666  0.2102 -0.2348  0.7561
  274MOL0     O36071   8.435   1.315   7.791 -1.1436  0.6691  0.1890
  274MOL0     C36072   8.510   1.399   7.886 -0.6055 -0.5839 -0.3245
  274MOL0     C36073   8.414   1.437   8.001 -0.3824  0.4739 -0.0281
  274MOL0     C36074   8.401   1.333   8.111 -0.3561 -0.1000 -0.7491
  274MOL0     C36075   8.315   1.376   8.226  0.1351 -0.1056 -0.6723
  274MOL0     C36076   8.280   1.263   8.322  0.2786 -0.7371  0.5769
  274MOL0     C36077   8.377   1.255   8.450 -0.6712 -0.2249  0.6583
  274MOL0     C36078   8.341   1.133   8.545  0.5034  0.6416 -0.0021
  274MOL0     C36079   8.242   1.183   8.650 -0.3274  0.4317 -1.1634
  274MOL0    Cl36080   8.237   1.064   8.784  0.4521  0.2405 -0.6220
  274MOL0     C36081   8.617   1.281   7.633 -0.3716 -0.3925 -0.2092
  274MOL0     C36082   8.662   1.266   7.502 -0.3668  0.2150 -0.6437
  274MOL0     O36083   8.460   1.293   7.143 -1.4781 -0.1474 -0.6868
  274MOL0     C36084   8.792   1.216   7.062  0.2810 -0.0663  0.0374
  274MOL0     C36085   8.879   1.178   6.958  0.0111 -0.9774 -0.8834
  274MOL0     N36086   8.902   1.203   5.997  0.0119  0.0662 -0.0594
  274MOL0     N36087   8.883   1.120   5.899 -0.7401  0.4694 -0.2094
  274MOL0     C36088   7.858   1.199   5.496 -0.0004 -0.0950  0.2082
  274MOL0     C36089   7.748   1.270   5.448  0.4286 -0.4595 -0.5257
  274MOL0     C36090   7.414   1.462   5.244  0.0592 -0.2524 -0.3285
  274MOL0     C36091   7.305   1.383   5.216  0.5901 -0.2609  0.3566
  274MOL0     C36092   7.186   1.433   5.172  0.4722 -0.0906 -0.3038
  274MOL0     C36093   7.165   1.566   5.163  0.0214 -0.0197  0.0610
  274MOL0     O36094   7.044   1.604   5.105 -0.4820  0.0158 -0.4307
  274MOL0     C36095   7.017   1.738   5.072 -0.9182 -0.1949  0.0024
  274MOL0     C36096   6.871   1.743   5.058  0.0816 -0.2143  0.7619
  274MOL0     C36097   6.815   1.705   4.924  0.5948 -0.2754 -0.3359
  274MOL0     C36098   6.845   1.559   4.884 -0.6818 -0.2647 -1.0799
  274MOL0     C36099   6.766   1.501   4.773 -0.2999 -0.1064  0.5610
  274MOL0     C36100   6.716   1.457   4.671  0.5594  0.5366  0.2375
  274MOL0     C36101   7.269   1.655   5.202 -0.2130 -0.8336  0.6193
  274MOL0     C36102   7.394   1.604   5.242  0.4823 -0.3632 -0.4183
  274MOL0     H36103   7.605   1.033   5.242  1.2255 -2.3180  0.7660
  274MOL0     H36104   7.799   0.909   5.319 -0.5529  1.3355 -2.7486
  274MOL0     H36105   8.045   0.963   5.297 -3.1042 -0.0890  0.5270
  274MOL0     H36106   7.994   0.822   5.387  1.8746 -1.1317 -1.0202
  274MOL0     H36107   8.252   0.992   5.426  0.5024 -0.1223 -1.2438
  274MOL0     H36108   8.251   0.834   5.361 -0.3017  0.1516 -0.9383
  274MOL0     H36109   8.177   0.746   5.581 -0.4734  0.0650 -0.3259
  274MOL0     H36110   8.172   0.904   5.654  4.2011  1.5270  1.9655
  274MOL0     H36111   8.414   0.792   5.520  3.8387 -0.0027  2.3966
  274MOL0     H36112   8.406   0.949   5.587  2.4600 -0.1936 -1.1788
  274MOL0     H36113   8.362   0.681   5.725 -0.8853  0.2429  2.9694
  274MOL0     H36114   8.369   0.809   5.828  0.3514 -1.2495 -0.2760
  274MOL0     H36115   8.619   0.776   5.669 -0.0558 -0.5868  0.7178
  274MOL0     H36116   8.584   0.688   5.819 -1.6167 -0.5837  0.6966
  274MOL0     H36117   8.595   0.992   5.783  1.8311  0.3672  0.2355
  274MOL0     H36118   8.546   0.908   5.929 -1.4335  2.3431 -0.8453
  274MOL0     H36119   8.817   0.895   5.779 -0.7494  2.0306 -0.3889
  274MOL0     H36120   8.784   0.811   5.930 -1.0695  0.7510  2.5449
  274MOL0     H36121   8.706   0.982   6.139  1.8024 -0.8550  0.1171
  274MOL0     H36122   8.737   1.245   6.266  1.1806  0.0425  0.5933
  274MOL0     H36123   8.891   1.330   6.255  0.2603  0.0059  1.2845
  274MOL0     H36124   9.019   1.155   6.354  0.0448  0.6476  0.3719
  274MOL0     H36125   8.875   1.052   6.348  0.2960  0.6052 -2.2045
  274MOL0     H36126   8.928   1.270   6.547  1.7081 -1.4412  0.5540
  274MOL0     H36127   8.768   1.235   6.515  0.3323  0.9544 -0.8292
  274MOL0     H36128   8.949   0.992   6.562  0.0761 -1.6973  1.5239
  274MOL0     H36129   8.788   1.004   6.608  2.7334 -3.7271 -0.4832
  274MOL0     H36130   8.658   1.182   6.701 -1.8887 -0.4986  0.1243
  274MOL0     H36131   8.502   1.237   6.883  0.0789  1.6878 -0.7411
  274MOL0     H36132   8.358   1.303   7.351 -1.0750  0.1547  0.1512
  274MOL0     H36133   8.314   1.393   7.588  0.8837  0.1124  2.7102
  274MOL0     H36134   8.550   1.491   7.843  1.4401  0.5070  3.4587
  274MOL0     H36135   8.595   1.344   7.928 -0.6001 -1.0932 -0.9822
  274MOL0     H36136   8.320   1.460   7.952 -0.2224 -1.6275 -1.4571
  274MOL0     H36137   8.458   1.526   8.047 -1.5695 -0.0386  2.2393
  274MOL0     H36138   8.497   1.302   8.153 -0.3193 -2.2898 -2.2632
  274MOL0     H36139   8.360   1.245   8.061 -0.5446  0.0163 -0.7982
  274MOL0     H36140   8.356   1.462   8.279 -0.5240 -2.5658  4.4194
  274MOL0     H36141   8.222   1.413   8.182  0.6522  1.1688 -0.7394
  274MOL0     H36142   8.270   1.167   8.270 -0.7261  0.7218 -2.1434
  274MOL0     H36143   8.182   1.281   8.368  0.5228 -0.8928  1.1612
  274MOL0     H36144   8.386   1.344   8.514  2.5302  0.0377  0.0382
  274MOL0     H36145   8.479   1.246   8.410 -1.1299  0.2477 -0.7014
  274MOL0     H36146   8.307   1.043   8.495  2.2408 -0.5429  0.8362
  274MOL0     H36147   8.431   1.101   8.598  0.2892  0.5779  0.3260
  274MOL0     H36148   8.140   1.188   8.609 -0.9781  0.4527  0.3659
  274MOL0     H36149   8.269   1.282   8.688  0.2297 -0.2725  0.3597
  274MOL0     H36150   8.673   1.266   7.724 -1.1886  2.0125  0.7646
  274MOL0     H36151   8.769   1.255   7.496 -0.4124 -1.1808  0.4348
  274MOL0     H36152   8.843   1.225   7.157  3.2407  3.5991 -1.6146
  274MOL0     H36153   8.986   1.179   6.976 -0.4722  1.7699  2.9290
  274MOL0     H36154   7.928   1.245   5.564 -1.1281 -0.6134  1.7850
  274MOL0     H36155   7.735   1.367   5.495 -0.8526 -1.6300  1.6762
  274MOL0     H36156   7.327   1.278   5.202 -1.0018 -0.4351 -1.1044
  274MOL0     H36157   7.106   1.370   5.133 -2.1922  2.2580  0.9341
  274MOL0     H36158   7.063   1.771   4.979 -0.4792  0.3317  0.3953
  274MOL0     H36159   7.054   1.798   5.155  0.5701 -1.0815  0.0045
  274MOL0     H36160   6.822   1.678   5.131  0.4376 -1.9777 -0.4937
  274MOL0     H36161   6.828   1.843   5.073 -3.3981 -1.6203  1.1315
  274MOL0     H36162   6.853   1.768   4.844  0.5346 -0.1621 -0.2757
  274MOL0     H36163   6.707   1.722   4.932  0.9222  3.0337 -1.2501
  274MOL0     H36164   6.952   1.544   4.870 -0.8889 -2.6322 -0.5285
  274MOL0     H36165   6.816   1.502   4.973  1.7764  0.1586  0.0626
  274MOL0     H36166   6.673   1.425   4.578  0.4966 -2.3583  1.1863
  274MOL0     H36167   7.264   1.763   5.198  3.9977 -0.4190  1.8624
  274MOL0     H36168   7.474   1.673   5.269 -1.8339  1.6417  1.8350
  275MOL0     O36169   3.328   2.717   7.045 -0.1069 -0.6200 -0.1567
  275MOL0     C36170   3.425   2.655   7.002  0.7794  0.0964  0.5418
  275MOL0     O36171   3.550   2.705   6.971 -1.0037  0.3968 -0.4571
  275MOL0     C36172   3.581   2.837   6.972 -0.4567  0.6756 -0.3060
  275MOL0     C36173   3.496   2.939   6.930 -0.1745 -0.3462  1.1630
  275MOL0     C36174   3.526   3.068   6.959  0.4946 -0.1048  0.5408
  275MOL0     C36175   3.648   3.100   7.015 -0.1670 -0.4996 -0.2543
  275MOL0     O36176   3.676   3.235   7.034 -0.8483  0.4002  0.0102
  275MOL0     C36177   3.811   3.273   7.008  0.5733 -0.7594  0.5289
  275MOL0     C36178   3.812   3.426   6.989  0.6251  0.1422 -0.5555
  275MOL0     C36179   3.808   3.495   7.127  0.4945 -0.1516  0.8289
  275MOL0     C36180   3.812   3.656   7.112  0.4616  1.0486  1.3176
  275MOL0     C36181   3.909   3.696   7.014 -1.1265 -0.0910 -0.4535
  275MOL0     C36182   3.975   3.838   7.023 -0.7612 -0.2743 -0.7317
  275MOL0     C36183   3.876   3.950   6.972  0.2627  0.5795 -0.2253
  275MOL0     C36184   3.926   4.092   7.004 -0.8587  0.3220 -0.7430
  275MOL0     N36185   3.871   4.185   6.898  0.2574 -0.6112  0.2062
  275MOL0     C36186   3.736   4.227   6.899 -1.4173 -0.8323 -0.1687
  275MOL0     C36187   3.733   4.311   6.797  0.1278  0.0232  0.1441
  275MOL0     C36188   3.619   4.391   6.753  0.2703 -1.0565  0.2696
  275MOL0     C36189   3.616   4.534   6.821 -0.0335  0.5340 -0.2650
  275MOL0     C36190   3.479   4.600   6.811  0.1846 -0.8638  0.7547
  275MOL0     C36191   3.480   4.752   6.825 -0.8320  0.3806  0.0608
  275MOL0     O36192   3.513   4.798   6.955  0.2026 -0.0306 -0.2918
  275MOL0     C36193   3.597   4.914   6.966  0.6550 -0.1461  0.6345
  275MOL0     C36194   3.710   4.924   6.886 -0.1516  0.7315 -0.2631
  275MOL0     C36195   3.801   5.028   6.908  0.2699 -0.3869 -0.0294
  275MOL0     C36196   3.766   5.128   7.005  0.0725  0.0683  0.3530
  275MOL0     C36197   3.856   5.249   7.020 -0.8141  0.5742 -0.0731
  275MOL0     O36198   3.811   5.354   7.099  0.3056  0.7139 -0.1235
  275MOL0     C36199   3.901   5.449   7.131 -0.0101  0.6893 -0.4211
  275MOL0     C36200   3.947   5.539   7.033 -1.4007  0.0883 -0.0112
  275MOL0     C36201   4.025   5.640   7.078 -0.0003  0.5222  0.2117
  275MOL0     C36202   4.045   5.666   7.211 -0.0684  0.8300 -0.8517
  275MOL0     O36203   4.120   5.769   7.274  0.4121  0.1198  0.0261
  275MOL0     C36204   4.185   5.845   7.168 -0.8350 -0.5565 -0.0645
  275MOL0     C36205   4.243   5.954   7.254 -0.3843  0.0810  0.1975
  275MOL0     C36206   4.333   6.062   7.194  0.2306  0.0666 -0.6161
  275MOL0     C36207   4.408   6.142   7.309  0.0077  0.2779 -0.4600
  275MOL0     C36208   4.525   6.215   7.259 -0.0156  0.0818  0.5916
  275MOL0     C36209   4.574   6.321   7.358  0.5566  0.9976  0.6296
  275MOL0     C36210   4.694   6.393   7.292  0.1495 -0.1770  0.3821
  275MOL0     C36211   4.702   6.540   7.310  0.5160 -0.1196 -0.5941
  275MOL0    Cl36212   4.708   6.579   7.487 -0.4880 -0.7044  0.3894
  275MOL0     C36213   3.991   5.579   7.306 -0.1285  0.1145  0.0708
  275MOL0     C36214   3.928   5.467   7.262 -0.1385 -0.1804 -0.4667
  275MOL0     O36215   3.966   5.248   6.956  0.0524 -0.3568  0.4087
  275MOL0     C36216   3.649   5.112   7.080  0.1716 -0.4231  0.8595
  275MOL0     C36217   3.559   5.006   7.059  0.2700 -0.5181 -0.2341
  275MOL0     N36218   3.852   4.319   6.735 -0.0535 -0.0868  0.4786
  275MOL0     N36219   3.937   4.242   6.792  0.3557  0.4742  0.4276
  275MOL0     C36220   3.736   3.002   7.045 -0.7320  0.4582 -0.7547
  275MOL0     C36221   3.702   2.869   7.026  0.2918  0.2093 -0.1155
  275MOL0     C36222   3.408   2.510   6.982  0.4796 -0.1736 -0.5207
  275MOL0     C36223   3.506   2.427   6.928  0.2644  0.1676  0.1378
  275MOL0     C36224   3.495   2.284   6.928 -0.0759 -0.6202  0.2521
  275MOL0     C36225   3.383   2.214   6.972  1.0675  0.3329  0.8956
  275MOL0     O36226   3.365   2.077   6.975 -0.0669  0.1539  0.2827
  275MOL0     C36227   3.471   1.990   6.934  0.1083 -0.5044 -0.1031
  275MOL0     C36228   3.406   1.849   6.921 -0.5202  0.4099 -0.6793
  275MOL0     C36229   3.517   1.751   6.902 -0.7131 -0.0016  0.9974
  275MOL0     C36230   3.455   1.606   6.876 -1.2324 -0.2219  0.3112
  275MOL0     C36231   3.361   1.577   6.772  0.0809  0.2995 -0.5899
  275MOL0     C36232   3.273   1.530   6.708 -0.4635 -0.0176 -0.1279
  275MOL0     C36233   3.282   2.293   7.020 -0.2581 -0.5047  1.0464
  275MOL0     C36234   3.301   2.431   7.028 -0.3788  0.3524 -0.7121
  275MOL0     H36235   3.398   2.904   6.897  0.7627 -1.7341 -0.2952
  275MOL0     H36236   3.449   3.143   6.944  0.2298 -0.6924 -1.2812
  275MOL0     H36237   3.856   3.228   6.919 -2.3583 -3.7347  0.3595
  275MOL0     H36238   3.869   3.250   7.098  3.0085 -1.0875 -1.0004
  275MOL0     H36239   3.721   3.450   6.933  0.3994  1.3603  0.2819
  275MOL0     H36240   3.898   3.455   6.929  0.9342 -1.5351 -0.9572
  275MOL0     H36241   3.897   3.468   7.186 -1.0051 -3.2772  1.8527
  275MOL0     H36242   3.721   3.455   7.179  0.0367  1.1783  1.1408
  275MOL0     H36243   3.715   3.685   7.072  0.6962 -0.4674 -0.5064
  275MOL0     H36244   3.836   3.702   7.208  1.3869 -0.7150  1.9890
  275MOL0     H36245   3.875   3.685   6.911 -0.5471  1.2239 -0.8038
  275MOL0     H36246   4.000   3.639   7.032 -1.5144 -0.7190 -0.4364
  275MOL0     H36247   4.073   3.840   6.975 -0.7287 -0.4678 -0.6770
  275MOL0     H36248   3.999   3.859   7.128  0.0603  0.7276 -1.1104
  275MOL0     H36249   3.875   3.941   6.863 -3.6176  1.7911 -0.4539
  275MOL0     H36250   3.774   3.928   7.007  0.2549 -0.8058 -1.0538
  275MOL0     H36251   4.034   4.109   7.013 -1.1704  2.6379 -0.6147
  275MOL0     H36252   3.884   4.130   7.098 -1.9400  0.2554 -1.1775
  275MOL0     H36253   3.655   4.210   6.970 -2.4249  0.7508 -0.8728
  275MOL0     H36254   3.528   4.332   6.770 -0.0463 -1.4605 -2.4587
  275MOL0     H36255   3.628   4.405   6.645  3.5197 -0.0260  0.5859
  275MOL0     H36256   3.687   4.593   6.762  1.3185 -0.8783 -0.0872
  275MOL0     H36257   3.658   4.529   6.922  2.1447 -1.2935 -1.1898
  275MOL0     H36258   3.431   4.576   6.716 -1.4411  1.3023  0.9556
  275MOL0     H36259   3.411   4.562   6.887  0.1326 -0.8137  0.7336
  275MOL0     H36260   3.382   4.785   6.789 -1.2996  1.5400  2.2549
  275MOL0     H36261   3.553   4.792   6.754  1.6821  2.2439  3.4159
  275MOL0     H36262   3.746   4.838   6.831 -0.6741 -1.9775  3.3037
  275MOL0     H36263   3.897   5.033   6.857  0.5833  1.0541  0.6654
  275MOL0     H36264   3.940   5.525   6.926  2.4671 -0.9194 -0.2880
  275MOL0     H36265   4.052   5.714   7.004 -2.2179  1.4512  0.2361
  275MOL0     H36266   4.112   5.897   7.105  0.4786  1.1047 -0.3092
  275MOL0     H36267   4.263   5.788   7.117  0.2841 -1.3836  2.4132
  275MOL0     H36268   4.296   5.909   7.339 -1.2084 -0.8212  0.2470
  275MOL0     H36269   4.156   6.004   7.298  0.7322  2.7347 -0.4129
  275MOL0     H36270   4.275   6.141   7.146  2.2574  1.1132 -1.4588
  275MOL0     H36271   4.395   6.023   7.113  0.2156  4.3382 -2.9434
  275MOL0     H36272   4.339   6.218   7.346  0.0761  1.4046 -2.4938
  275MOL0     H36273   4.446   6.067   7.379  2.5772  3.2797  1.5959
  275MOL0     H36274   4.492   6.265   7.168  2.3065  3.0024  1.1970
  275MOL0     H36275   4.596   6.139   7.226 -1.0222 -1.3589  1.5766
  275MOL0     H36276   4.590   6.284   7.460 -1.3591 -0.4719  0.4439
  275MOL0     H36277   4.489   6.390   7.353  0.4634  0.8950 -4.3975
  275MOL0     H36278   4.781   6.344   7.337 -1.4084 -0.9802  2.6716
  275MOL0     H36279   4.696   6.372   7.184 -0.2774  1.2822  0.0771
  275MOL0     H36280   4.617   6.591   7.265 -1.0277 -0.3512  1.8362
  275MOL0     H36281   4.799   6.561   7.265  0.0915  0.8078 -1.1048
  275MOL0     H36282   3.996   5.616   7.408 -1.6422  0.4558  0.0489
  275MOL0     H36283   3.885   5.413   7.346  0.0632 -0.3219 -0.4540
  275MOL0     H36284   3.611   5.196   7.137 -1.5745  2.1740 -3.6398
  275MOL0     H36285   3.471   4.991   7.121  1.3169  0.3637  1.5572
  275MOL0     H36286   3.831   3.014   7.097 -1.4480  1.1907  0.4299
  275MOL0     H36287   3.775   2.795   7.059 -1.3733 -1.1439  0.6676
  275MOL0     H36288   3.587   2.478   6.876  1.5984 -1.7541  0.2106
  275MOL0     H36289   3.571   2.230   6.872  0.2218 -0.2091  0.2569
  275MOL0     H36290   3.548   1.980   7.011 -1.3721 -2.8518  1.2251
  275MOL0     H36291   3.522   2.009   6.839  0.0136 -0.7944 -0.2151
  275MOL0     H36292   3.370   1.833   7.023  2.3964 -0.4466  0.3186
  275MOL0     H36293   3.330   1.827   6.846 -0.1850 -3.3432 -0.0863
  275MOL0     H36294   3.579   1.742   6.991  0.1262  0.3566  0.4634
  275MOL0     H36295   3.579   1.779   6.816 -2.1073 -0.6544 -0.2601
  275MOL0     H36296   3.531   1.533   6.848 -1.2480 -0.2879  0.4416
  275MOL0     H36297   3.418   1.575   6.974 -0.2442  0.3598  0.8848
  275MOL0     H36298   3.193   1.471   6.668 -1.2453  0.9170  0.0420
  275MOL0     H36299   3.194   2.241   7.056 -0.8272 -0.4732 -0.2506
  275MOL0     H36300   3.216   2.490   7.061 -0.1398 -0.1419  0.8562
  276MOL0     O36301   3.692   8.802   7.268  0.5507 -0.0495  0.1213
  276MOL0     C36302   3.696   8.907   7.334  0.3177 -0.7534  0.3798
  276MOL0     O36303   3.809   8.956   7.397  0.1787 -0.5163 -0.7711
  276MOL0     C36304   3.918   8.883   7.390  0.2731 -1.0289  0.4920
  276MOL0     C36305   3.982   8.847   7.271 -0.0262 -0.0538 -0.4611
  276MOL0     C36306   4.104   8.781   7.271  0.2594 -0.6599  0.0659
  276MOL0     C36307   4.168   8.759   7.392 -0.2718 -0.0112  0.3485
  276MOL0     O36308   4.288   8.698   7.397 -0.2587  0.5811 -0.2594
  276MOL0     C36309   4.396   8.783   7.345  0.5097  0.4188 -0.3735
  276MOL0     C36310   4.539   8.726   7.374  0.2743  0.6878  1.1614
  276MOL0     C36311   4.582   8.629   7.256  0.6246 -0.2841 -0.7488
  276MOL0     C36312   4.730   8.600   7.274 -0.0337  0.1320 -0.4133
  276MOL0     C36313   4.787   8.545   7.143  0.6364  0.3855 -0.4173
  276MOL0     C36314   4.942   8.528   7.139  0.8585  0.4193  0.2432
  276MOL0     C36315   5.004   8.467   7.016  0.2119 -0.0401  0.1658
  276MOL0     C36316   5.005   8.574   6.916 -0.2716  0.7117  0.7357
  276MOL0     N36317   5.116   8.556   6.819  0.0497  0.0186 -0.1694
  276MOL0     C36318   5.222   8.635   6.815  0.1495  0.7042  0.3599
  276MOL0     C36319   5.298   8.582   6.716  1.2895  0.2847  0.2662
  276MOL0     C36320   5.432   8.629   6.670  0.2596 -0.9432  0.8056
  276MOL0     C36321   5.527   8.598   6.786 -0.0929  0.0561 -0.4315
  276MOL0     C36322   5.676   8.606   6.756 -0.6353 -0.1499  0.2071
  276MOL0     C36323   5.762   8.642   6.878 -0.7588 -0.5665  0.0673
  276MOL0     O36324   5.902   8.632   6.864  0.6911 -0.3717 -0.1640
  276MOL0     C36325   5.970   8.516   6.847  0.8487 -0.5808 -0.3656
  276MOL0     C36326   5.911   8.385   6.859 -0.2905 -0.0350 -0.1068
  276MOL0     C36327   5.985   8.263   6.842 -0.0792 -0.9063  0.5991
  276MOL0     C36328   6.119   8.272   6.815 -0.3849  0.7291  0.7711
  276MOL0     C36329   6.194   8.148   6.798 -1.7527  0.7733 -0.3723
  276MOL0     O36330   6.313   8.158   6.743 -0.0799 -0.4226  0.6524
  276MOL0     C36331   6.401   8.063   6.782  0.3921  0.9046  0.1688
  276MOL0     C36332   6.515   8.114   6.840 -0.1410 -0.0642 -0.5755
  276MOL0     C36333   6.621   8.030   6.879  0.6267  0.1235 -0.0891
  276MOL0     C36334   6.601   7.886   6.882  0.0410 -0.1048  0.6123
  276MOL0     O36335   6.695   7.805   6.943  0.0804 -0.1597  0.3318
  276MOL0     C36336   6.757   7.711   6.845 -0.1957 -0.0274  0.4732
  276MOL0     C36337   6.849   7.634   6.926  0.1593 -0.0602 -0.5530
  276MOL0     C36338   6.963   7.566   6.846 -0.1142 -0.0024  0.5497
  276MOL0     C36339   6.911   7.488   6.721  0.0657 -0.4451 -1.0722
  276MOL0     C36340   7.029   7.428   6.644 -0.3566  0.1531  0.4978
  276MOL0     C36341   6.993   7.328   6.540 -0.3131 -0.7629  0.2719
  276MOL0     C36342   6.916   7.385   6.419 -0.1307 -0.6325 -0.4631
  276MOL0     C36343   6.839   7.273   6.350 -0.4037  0.8963 -0.2361
  276MOL0    Cl36344   6.680   7.268   6.442  0.0404 -0.0008  0.2241
  276MOL0     C36345   6.484   7.842   6.822  0.6765  0.3199 -0.5664
  276MOL0     C36346   6.379   7.930   6.769 -0.5234  0.9983 -0.5527
  276MOL0     O36347   6.143   8.050   6.843  0.4336  0.5218  0.4565
  276MOL0     C36348   6.184   8.398   6.798  0.4038  0.4065 -0.2558
  276MOL0     C36349   6.107   8.514   6.811  0.0302  0.4310  0.5892
  276MOL0     N36350   5.236   8.476   6.657  0.1837  0.5835  0.0443
  276MOL0     N36351   5.121   8.466   6.716 -1.0637  0.7863 -0.3378
  276MOL0     C36352   4.106   8.800   7.517  0.0513 -0.6363 -0.3216
  276MOL0     C36353   3.978   8.866   7.517 -0.0018  0.4125  0.1120
  276MOL0     C36354   3.595   9.005   7.312 -0.0460  0.3053  0.4534
  276MOL0     C36355   3.473   8.963   7.260 -0.4703  0.6307 -0.4817
  276MOL0     C36356   3.367   9.048   7.217  0.3571  0.0007 -0.3974
  276MOL0     C36357   3.378   9.185   7.252 -0.8914  0.0632  0.3446
  276MOL0     O36358   3.283   9.278   7.230  0.4810 -0.3828  0.0738
  276MOL0     C36359   3.142   9.259   7.252  0.5683 -0.0655 -0.4769
  276MOL0     C36360   3.113   9.352   7.376  0.0337  0.0503 -0.1962
  276MOL0     C36361   3.134   9.502   7.333  0.1289  1.3393 -0.2782
  276MOL0     C36362   3.105   9.589   7.462  0.3367  0.2337  0.3081
  276MOL0     C36363   3.133   9.730   7.428 -0.0265  0.1823 -0.7168
  276MOL0     C36364   3.147   9.848   7.390  0.1330  1.3936  0.2763
  276MOL0     C36365   3.492   9.222   7.325  0.1067  0.3655  0.0263
  276MOL0     C36366   3.595   9.136   7.364  0.2856 -0.4615 -0.7274
  276MOL0     H36367   3.923   8.863   7.181 -1.5581 -3.6430 -0.2501
  276MOL0     H36368   4.137   8.749   7.173 -1.2823 -1.7348 -0.1391
  276MOL0     H36369   4.401   8.883   7.391 -1.9964  0.6368 -0.4164
  276MOL0     H36370   4.398   8.802   7.238  5.8943  3.2729 -0.1466
  276MOL0     H36371   4.540   8.661   7.462  1.0533 -2.6429 -1.1062
  276MOL0     H36372   4.612   8.807   7.377  2.0272 -0.5692 -2.1976
  276MOL0     H36373   4.554   8.687   7.168 -0.0805  0.1630 -0.2436
  276MOL0     H36374   4.521   8.537   7.256  1.5620 -0.9222  0.1025
  276MOL0     H36375   4.775   8.698   7.295 -0.9535  0.6862 -0.9331
  276MOL0     H36376   4.754   8.524   7.349  2.4132 -0.4135 -1.6533
  276MOL0     H36377   4.764   8.614   7.062  1.4471  0.2011 -0.8074
  276MOL0     H36378   4.738   8.449   7.126 -1.5280  1.4839 -0.7126
  276MOL0     H36379   4.962   8.455   7.217 -1.0165 -2.5597 -1.8708
  276MOL0     H36380   4.988   8.627   7.155  0.0560  1.4541 -3.0309
  276MOL0     H36381   5.110   8.450   7.037 -0.1380 -3.2532 -0.0845
  276MOL0     H36382   4.957   8.383   6.965  0.2372  1.0124 -1.6769
  276MOL0     H36383   5.024   8.672   6.962  0.2967  1.2221 -0.5374
  276MOL0     H36384   4.907   8.578   6.869  0.5444 -2.5610 -1.5724
  276MOL0     H36385   5.244   8.719   6.880  0.0619  1.3486 -0.4221
  276MOL0     H36386   5.434   8.739   6.664  2.7631 -0.9446  0.2136
  276MOL0     H36387   5.452   8.585   6.572  0.6152 -1.7457  1.2316
  276MOL0     H36388   5.516   8.497   6.827 -1.3156  0.2931 -0.1610
  276MOL0     H36389   5.509   8.673   6.863  0.3213 -1.3447  1.0916
  276MOL0     H36390   5.696   8.509   6.710 -3.0976  0.4577 -2.4236
  276MOL0     H36391   5.706   8.686   6.687 -3.0410  1.3978  0.8136
  276MOL0     H36392   5.745   8.572   6.960  1.6996 -0.5418  0.6745
  276MOL0     H36393   5.740   8.746   6.902 -1.1983 -0.7425  0.4491
  276MOL0     H36394   5.808   8.376   6.893  0.5663  0.2610  2.8417
  276MOL0     H36395   5.927   8.175   6.867  2.5268 -1.5932  5.6325
  276MOL0     H36396   6.518   8.222   6.835  0.5480 -0.1324 -3.2169
  276MOL0     H36397   6.707   8.070   6.932 -1.3556  1.7498  2.1272
  276MOL0     H36398   6.813   7.755   6.762  0.2880 -2.1068 -0.3584
  276MOL0     H36399   6.685   7.645   6.797  0.6094 -2.7749  2.7476
  276MOL0     H36400   6.798   7.556   6.983 -0.2167  3.1230  4.0990
  276MOL0     H36401   6.891   7.704   7.000 -0.3707 -0.9387  0.6128
  276MOL0     H36402   7.012   7.488   6.904 -1.2372 -1.6716 -0.6397
  276MOL0     H36403   7.039   7.642   6.823  1.6137 -1.6603  0.5103
  276MOL0     H36404   6.848   7.407   6.759 -1.2975  2.0333  2.5257
  276MOL0     H36405   6.849   7.544   6.651 -0.3098 -0.3446 -0.6591
  276MOL0     H36406   7.072   7.364   6.722 -2.0712 -1.0005  0.5523
  276MOL0     H36407   7.100   7.507   6.619  0.8650 -0.6521  1.2816
  276MOL0     H36408   6.940   7.239   6.576 -1.3715 -0.7323 -1.1333
  276MOL0     H36409   7.086   7.290   6.496  1.2459  1.5860  1.3543
  276MOL0     H36410   6.845   7.457   6.461  0.5864 -0.5207  0.5789
  276MOL0     H36411   6.984   7.421   6.341 -0.6937  1.8314  0.0870
  276MOL0     H36412   6.896   7.181   6.364  1.3020  1.8311 -0.7553
  276MOL0     H36413   6.820   7.299   6.245  1.0582  1.0436 -0.4796
  276MOL0     H36414   6.472   7.734   6.818 -2.4030  0.4711  1.4819
  276MOL0     H36415   6.289   7.890   6.722 -1.4464 -0.5117  2.2515
  276MOL0     H36416   6.286   8.407   6.763  1.1828 -3.4783  0.5727
  276MOL0     H36417   6.136   8.618   6.797 -1.5310  0.6917 -1.0887
  276MOL0     H36418   4.160   8.780   7.609  0.0807 -2.3607 -0.6820
  276MOL0     H36419   3.935   8.898   7.611  2.1895 -2.1112  2.1299
  276MOL0     H36420   3.458   8.857   7.242 -3.7406  0.7813  0.7021
  276MOL0     H36421   3.278   9.019   7.163 -2.0144  1.6824  2.2715
  276MOL0     H36422   3.116   9.157   7.283  1.6250  0.1896  1.3677
  276MOL0     H36423   3.084   9.285   7.162  2.4262 -2.2573 -2.4407
  276MOL0     H36424   3.010   9.335   7.408  0.7776  1.3461  3.2540
  276MOL0     H36425   3.180   9.336   7.460 -2.5441 -3.6429  1.4228
  276MOL0     H36426   3.064   9.537   7.257 -1.2478  0.1812  0.4188
  276MOL0     H36427   3.235   9.521   7.296 -0.4584  1.9311 -1.6263
  276MOL0     H36428   3.000   9.576   7.490 -0.4079 -0.8713 -2.5950
  276MOL0     H36429   3.182   9.567   7.537  0.5909 -1.1778 -0.3215
  276MOL0     H36430   3.138   9.949   7.355  0.5012  1.0702 -0.7895
  276MOL0     H36431   3.496   9.327   7.351 -1.8228  0.0172  2.1211
  276MOL0     H36432   3.681   9.179   7.416 -0.5997 -1.6449  1.8807
  277MOL0     O36433   9.100  10.396   8.275  0.0117 -0.7889  0.6058
  277MOL0     C36434   9.145  10.328   8.188 -0.2611  1.0321 -0.2295
  277MOL0     O36435   9.101  10.325   8.060 -0.0849 -0.0896  0.1199
  277MOL0     C36436   9.010  10.419   8.021 -0.4678 -0.5791  0.3737
  277MOL0     C36437   9.028  10.560   8.036 -0.7728 -0.3826  0.0941
  277MOL0     C36438   8.933  10.650   7.987 -0.1987 -0.0414  0.3133
  277MOL0     C36439   8.832  10.611   7.897 -0.1695  0.8225  0.4161
  277MOL0     O36440   8.760  10.692   7.811 -0.4056  0.1177 -1.1799
  277MOL0     C36441   8.716  10.821   7.851  0.8031 -0.9387  0.1899
  277MOL0     C36442   8.564  10.809   7.887 -0.6716  0.1128  0.3001
  277MOL0     C36443   8.478  10.754   7.781 -0.1256  0.7866 -0.0463
  277MOL0     C36444   8.389  10.858   7.717 -0.1392  1.1125 -0.1029
  277MOL0     C36445   8.466  10.961   7.624  0.1445 -0.2423 -0.0861
  277MOL0     C36446   8.365  11.023   7.533  0.1741 -0.6964  0.6397
  277MOL0     C36447   8.257  11.108   7.605  0.2150 -0.2344 -0.3594
  277MOL0     C36448   8.137  11.161   7.521 -0.6675  0.2874  1.0104
  277MOL0     N36449   8.028  11.220   7.613  0.0405 -0.2467  0.8472
  277MOL0     C36450   7.975  11.359   7.602  1.0709  0.0890  0.1990
  277MOL0     C36451   7.865  11.351   7.688 -0.2833  0.1843  0.8430
  277MOL0     C36452   7.751  11.448   7.685  1.1543  0.0337 -0.0979
  277MOL0     C36453   7.780  11.597   7.732  0.4583 -0.6086 -0.3693
  277MOL0     C36454   7.804  11.695   7.605 -0.7947  0.3802 -0.4210
  277MOL0     C36455   7.777  11.835   7.656 -0.2793  0.4590 -0.1757
  277MOL0     O36456   7.852  11.932   7.586 -0.3756 -1.1157 -1.2229
  277MOL0     C36457   7.800  11.983   7.472 -0.1828  0.1597 -0.0547
  277MOL0     C36458   7.893  12.048   7.386 -0.2258  0.2572 -0.3752
  277MOL0     C36459   7.838  12.086   7.257 -1.1518 -0.6098 -0.9767
  277MOL0     C36460   7.697  12.099   7.238  0.7410  0.0615  0.3349
  277MOL0     C36461   7.641  12.165   7.122  0.8778 -1.1234 -0.4000
  277MOL0     O36462   7.717  12.262   7.060  0.4971  0.2874  0.0898
  277MOL0     C36463   7.669  12.334   6.961 -1.2894  0.0030  0.3347
  277MOL0     C36464   7.609  12.457   6.989 -0.2949  0.3048 -0.0574
  277MOL0     C36465   7.568  12.544   6.893  0.3903  0.1093 -0.0668
  277MOL0     C36466   7.580  12.511   6.761 -0.6334 -0.1004 -0.3321
  277MOL0     O36467   7.522  12.583   6.673  0.1141 -0.4115  0.2226
  277MOL0     C36468   7.490  12.532   6.542 -0.5157  0.5860  1.1349
  277MOL0     C36469   7.411  12.642   6.471  0.3492 -0.1111  0.4345
  277MOL0     C36470   7.294  12.605   6.378 -0.0475  0.5062 -0.2924
  277MOL0     C36471   7.189  12.716   6.366  0.3721 -0.0282  0.5424
  277MOL0     C36472   7.081  12.668   6.264  0.2113 -0.0754 -0.4669
  277MOL0     C36473   7.118  12.714   6.118  0.2128  1.1084 -0.5245
  277MOL0     C36474   7.061  12.610   6.016  1.0608  1.0757 -1.0894
  277MOL0     C36475   6.908  12.619   6.034  0.5690  0.3333 -0.2523
  277MOL0    Cl36476   6.836  12.775   5.995  0.4911 -0.1119  0.2977
  277MOL0     C36477   7.634  12.380   6.731  0.4384  0.1062  0.0824
  277MOL0     C36478   7.680  12.305   6.832  0.3371  0.4641 -0.0603
  277MOL0     O36479   7.521  12.137   7.099 -0.0356 -1.1463 -0.0150
  277MOL0     C36480   7.605  12.033   7.334  0.6796  0.5824 -0.1982
  277MOL0     C36481   7.654  11.973   7.438 -0.5122 -0.3714 -0.5903
  277MOL0     N36482   7.855  11.220   7.744 -0.5097  0.2823  0.6241
  277MOL0     N36483   7.958  11.149   7.704 -0.2567 -0.0201  0.0847
  277MOL0     C36484   8.827  10.475   7.871 -0.0090  0.0100  0.1575
  277MOL0     C36485   8.912  10.374   7.935 -0.3110 -1.3596  0.1674
  277MOL0     C36486   9.243  10.235   8.240 -1.1052 -0.1141 -0.1058
  277MOL0     C36487   9.304  10.247   8.371  0.4830 -0.0895 -0.2792
  277MOL0     C36488   9.386  10.149   8.436  0.3695 -0.6640  0.5303
  277MOL0     C36489   9.420  10.040   8.360  0.6388  1.0507  0.5068
  277MOL0     O36490   9.499   9.939   8.404 -0.7289  0.8121  0.1110
  277MOL0     C36491   9.546   9.946   8.538  0.2579 -0.6413 -0.3266
  277MOL0     C36492   9.617   9.817   8.575  0.5446  0.0156  0.3958
  277MOL0     C36493   9.764   9.831   8.548 -0.3396 -0.3301 -0.2605
  277MOL0     C36494   9.840   9.696   8.524  0.0401  1.4139  0.4996
  277MOL0     C36495   9.839   9.613   8.649  0.7157 -0.0531 -0.3499
  277MOL0     C36496   9.817   9.539   8.744 -0.0490  0.3782  0.7558
  277MOL0     C36497   9.357  10.026   8.233  0.4557 -0.3773 -0.1318
  277MOL0     C36498   9.274  10.118   8.176 -0.0155 -0.1844 -0.1772
  277MOL0     H36499   9.111  10.599   8.095 -0.5734 -1.6719  0.7026
  277MOL0     H36500   8.936  10.756   8.011 -3.7899 -0.4376  3.4550
  277MOL0     H36501   8.727  10.898   7.774  3.0947  0.7074  2.0162
  277MOL0     H36502   8.759  10.863   7.942 -0.1105  1.7771 -0.5274
  277MOL0     H36503   8.525  10.901   7.931 -0.3659 -0.2662  1.3965
  277MOL0     H36504   8.568  10.732   7.964 -0.7518 -2.5229 -2.1759
  277MOL0     H36505   8.424  10.667   7.820 -1.3832  1.0827 -1.0532
  277MOL0     H36506   8.528  10.711   7.693 -2.4029 -2.8937  0.2479
  277MOL0     H36507   8.313  10.797   7.667 -0.8668  1.0936  0.9972
  277MOL0     H36508   8.334  10.916   7.792  2.4144  1.6085  1.4861
  277MOL0     H36509   8.538  10.904   7.564  1.1108 -0.1917  0.9852
  277MOL0     H36510   8.521  11.043   7.670 -0.0593  0.5789 -1.2560
  277MOL0     H36511   8.315  10.941   7.481  0.6099 -1.0822  0.8237
  277MOL0     H36512   8.411  11.085   7.456 -4.8324  0.7651 -1.6398
  277MOL0     H36513   8.205  11.037   7.671 -0.4540 -0.0695 -0.7054
  277MOL0     H36514   8.306  11.184   7.666  2.3714  1.4267 -3.8798
  277MOL0     H36515   8.098  11.072   7.469  2.0200 -1.0647  1.1218
  277MOL0     H36516   8.182  11.229   7.448  1.1220 -3.4649 -1.7202
  277MOL0     H36517   8.005  11.423   7.520 -0.3977  0.4043 -0.1233
  277MOL0     H36518   7.667  11.415   7.747  0.2539 -0.9102 -1.7534
  277MOL0     H36519   7.709  11.447   7.584 -0.7973  0.3186  0.6616
  277MOL0     H36520   7.862  11.607   7.802 -1.4871  0.0416  1.9574
  277MOL0     H36521   7.692  11.627   7.790  3.0272 -0.4127  3.8318
  277MOL0     H36522   7.908  11.677   7.575 -1.6502  0.7785 -4.1114
  277MOL0     H36523   7.736  11.682   7.520  0.8426  0.8807 -1.8450
  277MOL0     H36524   7.812  11.847   7.759  2.9932  0.3963 -1.1468
  277MOL0     H36525   7.671  11.859   7.659 -1.1043 -2.0516 -3.1904
  277MOL0     H36526   8.000  12.047   7.406 -0.3102  1.1734  0.1901
  277MOL0     H36527   7.907  12.114   7.178  0.8853 -1.4749  0.4022
  277MOL0     H36528   7.602  12.480   7.095 -4.5362 -2.2498  0.4643
  277MOL0     H36529   7.520  12.636   6.922  3.1184  1.5593  0.1627
  277MOL0     H36530   7.428  12.443   6.559 -1.4067  1.1814  1.0673
  277MOL0     H36531   7.585  12.515   6.491 -1.3322  1.2408 -0.6903
  277MOL0     H36532   7.480  12.702   6.411  0.5262  1.1543  1.8267
  277MOL0     H36533   7.378  12.713   6.548  0.4710 -0.7047  1.0411
  277MOL0     H36534   7.252  12.516   6.427 -0.7068  1.4605  0.9417
  277MOL0     H36535   7.347  12.573   6.288  1.0764  0.4847  0.3609
  277MOL0     H36536   7.129  12.744   6.453 -0.4741  2.5304 -0.7631
  277MOL0     H36537   7.235  12.809   6.331  0.2356 -0.6577 -1.3782
  277MOL0     H36538   6.982  12.706   6.289  0.8658  0.5375  1.3398
  277MOL0     H36539   7.064  12.561   6.259 -3.1208  0.3459 -0.1530
  277MOL0     H36540   7.227  12.708   6.107  0.4418 -2.1322  1.8847
  277MOL0     H36541   7.085  12.815   6.094  0.5407  0.5107 -4.0540
  277MOL0     H36542   7.088  12.639   5.914  0.6933  3.0767 -0.6704
  277MOL0     H36543   7.085  12.508   6.045 -0.9747  0.8997  0.1355
  277MOL0     H36544   6.869  12.590   6.132 -1.7797 -0.0559 -1.2545
  277MOL0     H36545   6.877  12.540   5.965 -0.7277  0.7870 -0.2128
  277MOL0     H36546   7.638  12.354   6.625 -2.6272 -0.1761 -0.0520
  277MOL0     H36547   7.739  12.222   6.795  1.0663  1.6003 -1.5785
  277MOL0     H36548   7.502  12.018   7.304  1.9286 -1.9924 -4.0312
  277MOL0     H36549   7.580  11.924   7.501 -0.0828  0.3313  0.4830
  277MOL0     H36550   8.761  10.434   7.795 -0.5873  0.3889  0.4489
  277MOL0     H36551   8.900  10.270   7.907 -0.7182 -1.1270 -0.5584
  277MOL0     H36552   9.288  10.342   8.421  0.2013 -1.9340  3.5005
  277MOL0     H36553   9.423  10.168   8.536 -0.5050  0.2355  0.6998
  277MOL0     H36554   9.451   9.957   8.589 -1.1340  1.1976 -3.0560
  277MOL0     H36555   9.607  10.037   8.550  1.2219 -1.2163 -0.7504
  277MOL0     H36556   9.604   9.799   8.682 -0.0403  0.5139  0.4147
  277MOL0     H36557   9.571   9.734   8.521 -0.6812  0.8584  0.0829
  277MOL0     H36558   9.801   9.889   8.633 -3.3947  2.5843 -0.7034
  277MOL0     H36559   9.775   9.890   8.457  0.0563 -0.8388 -0.5474
  277MOL0     H36560   9.779   9.647   8.447 -0.2062 -0.8905  2.0739
  277MOL0     H36561   9.939   9.711   8.480  0.4410  0.1145  0.9224
  277MOL0     H36562   9.799   9.483   8.833 -1.4502  0.2940  0.4429
  277MOL0     H36563   9.383   9.930   8.190  0.0333 -1.0479  1.0551
  277MOL0     H36564   9.217  10.082   8.091  0.7217 -0.7996 -0.4252
  278MOL0     O36565   7.832  10.570  10.386  0.0831 -0.1923 -0.2591
  278MOL0     C36566   7.849  10.571  10.271 -0.0652 -0.3895  0.4039
  278MOL0     O36567   7.779  10.645  10.188  0.1876 -0.2334 -0.6826
  278MOL0     C36568   7.658  10.697  10.231  0.4987 -0.1354  0.3735
  278MOL0     C36569   7.558  10.611  10.290 -0.1821  1.0462 -0.6279
  278MOL0     C36570   7.423  10.652  10.321  0.2905  0.6482  0.1466
  278MOL0     C36571   7.387  10.779  10.278 -0.7445  0.7036  0.1137
  278MOL0     O36572   7.265  10.821  10.323 -0.2198 -0.1808  0.7231
  278MOL0     C36573   7.208  10.946  10.264  0.3606 -0.5435  0.5304
  278MOL0     C36574   7.095  11.004  10.346 -0.8210  0.2508  0.2226
  278MOL0     C36575   7.003  10.903  10.411 -0.0187  0.7741 -1.0981
  278MOL0     C36576   6.946  10.814  10.309  0.2136 -0.0776 -1.8453
  278MOL0     C36577   6.822  10.739  10.369 -0.3510  0.0216  0.6181
  278MOL0     C36578   6.752  10.638  10.263 -0.3200  0.9247 -0.1263
  278MOL0     C36579   6.658  10.532  10.317 -0.8823 -0.6466  0.4675
  278MOL0     C36580   6.536  10.604  10.387 -0.4796  0.6028  0.3910
  278MOL0     N36581   6.462  10.691  10.298  0.4233  0.0305 -0.1479
  278MOL0     C36582   6.435  10.821  10.334  0.2164  0.0404  0.0577
  278MOL0     C36583   6.352  10.868  10.236 -0.4249 -0.0810 -0.3317
  278MOL0     C36584   6.300  11.008  10.246 -0.5692  0.7438  0.5097
  278MOL0     C36585   6.143  10.996  10.256 -0.0386  0.4872 -0.2890
  278MOL0     C36586   6.066  11.129  10.265 -0.6917 -0.4332  0.1336
  278MOL0     C36587   6.036  11.167  10.416  0.3963  0.0871 -0.6765
  278MOL0     O36588   5.987  11.066  10.505  0.0159 -0.6424  0.3438
  278MOL0     C36589   5.856  11.097  10.552 -0.2354 -0.0273 -0.1492
  278MOL0     C36590   5.747  11.012  10.520 -1.1573  0.5826  0.5716
  278MOL0     C36591   5.623  11.043  10.569  0.9661 -0.2538 -0.9497
  278MOL0     C36592   5.601  11.166  10.643 -0.2279 -0.1649  0.1313
  278MOL0     C36593   5.463  11.209  10.679  1.1175 -0.7109 -0.1512
  278MOL0     O36594   5.368  11.120  10.626 -0.0272 -0.7508  0.8774
  278MOL0     C36595   5.228  11.128  10.660 -0.6844 -0.1460  0.2266
  278MOL0     C36596   5.182  11.146  10.792  0.4626  0.2430 -0.2142
  278MOL0     C36597   5.039  11.137  10.823  0.3113  0.4030  0.3225
  278MOL0     C36598   4.957  11.082  10.731 -1.1981 -0.3904 -1.1520
  278MOL0     O36599   4.833  11.057  10.774 -0.1475  0.0918 -0.0119
  278MOL0     C36600   4.740  10.972  10.710  0.7010 -0.0179 -0.5940
  278MOL0     C36601   4.664  10.908  10.828  0.0176  0.2484  0.4995
  278MOL0     C36602   4.594  10.779  10.784  1.0076  0.3331 -0.1146
  278MOL0     C36603   4.470  10.788  10.686  0.6540  0.2782  0.6877
  278MOL0     C36604   4.416  10.653  10.654 -0.0713  0.1604 -0.0866
  278MOL0     C36605   4.387  10.561  10.772  0.3117 -0.0227 -0.5337
  278MOL0     C36606   4.320  10.427  10.724  0.1014  0.1836  0.5149
  278MOL0     C36607   4.284  10.354  10.859  0.0147 -0.9801  0.2261
  278MOL0    Cl36608   4.153  10.454  10.943 -0.5515  0.6588  0.1059
  278MOL0     C36609   5.005  11.048  10.599  0.5751 -0.8242 -0.3010
  278MOL0     C36610   5.136  11.074  10.566 -0.5320 -0.6406 -0.0845
  278MOL0     O36611   5.433  11.299  10.761 -0.6611 -0.0510 -0.2349
  278MOL0     C36612   5.706  11.242  10.667 -0.1990  0.2406 -0.2143
  278MOL0     C36613   5.834  11.212  10.626 -0.3851  1.5455 -0.6561
  278MOL0     N36614   6.328  10.772  10.142  0.0280 -0.1721 -0.5329
  278MOL0     N36615   6.387  10.660  10.187  0.0635  0.5651  0.7702
  278MOL0     C36616   7.473  10.871  10.210  0.0054  0.5194 -0.0425
  278MOL0     C36617   7.615  10.828  10.189  0.2712 -0.6697 -0.1205
  278MOL0     C36618   7.966  10.499  10.221 -0.0827  0.4815  0.4169
  278MOL0     C36619   8.009  10.515  10.084  0.3200 -0.6002 -0.3824
  278MOL0     C36620   8.108  10.432  10.022 -0.7263  0.4480  0.4316
  278MOL0     C36621   8.171  10.336  10.105  0.3000  0.5982  0.4564
  278MOL0     O36622   8.281  10.273  10.039  0.4540 -0.5774  0.1049
  278MOL0     C36623   8.371  10.206  10.125  1.0057 -0.6774  0.4455
  278MOL0     C36624   8.507  10.206  10.059 -0.7371 -1.0151 -1.0534
  278MOL0     C36625   8.592  10.338  10.050 -0.3426  0.4255  0.5302
  278MOL0     C36626   8.630  10.385  10.188  0.3093 -0.2481 -0.4309
  278MOL0     C36627   8.642  10.530  10.196 -0.2371 -0.0521 -0.0184
  278MOL0     C36628   8.670  10.645  10.211 -0.1629  0.4911  0.3396
  278MOL0     C36629   8.140  10.326  10.241  0.3738 -0.1196  0.0501
  278MOL0     C36630   8.040  10.409  10.294 -0.2288  0.9528  0.1733
  278MOL0     H36631   7.584  10.509  10.318 -1.0852  1.1311  0.6019
  278MOL0     H36632   7.357  10.587  10.377 -1.1735  0.2075 -1.9386
  278MOL0     H36633   7.167  10.928  10.164  2.1689  2.3534 -0.8754
  278MOL0     H36634   7.284  11.024  10.254 -0.8255  0.3300 -3.5852
  278MOL0     H36635   7.039  11.070  10.278  0.4577  1.3715  0.2207
  278MOL0     H36636   7.132  11.072  10.423  0.0837  2.4213 -1.9868
  278MOL0     H36637   6.921  10.945  10.470  0.9385 -1.6187  2.2423
  278MOL0     H36638   7.066  10.847  10.480  0.0338 -0.1796 -1.8977
  278MOL0     H36639   6.925  10.877  10.223 -3.9735  0.7851 -0.4227
  278MOL0     H36640   7.019  10.738  10.279  2.4749  0.4424  1.7333
  278MOL0     H36641   6.751  10.818  10.394  0.9202  1.6339 -0.6557
  278MOL0     H36642   6.847  10.671  10.451 -1.0946  1.8358  2.4277
  278MOL0     H36643   6.831  10.580  10.215  1.0552  3.6414 -1.3743
  278MOL0     H36644   6.705  10.695  10.183  0.0495 -0.0601 -1.0644
  278MOL0     H36645   6.621  10.461  10.243  0.2964 -1.1953  0.3939
  278MOL0     H36646   6.697  10.473  10.400 -3.9561  0.0207  2.6021
  278MOL0     H36647   6.579  10.666  10.466  0.3504 -1.1519  1.3796
  278MOL0     H36648   6.463  10.532  10.425  1.7729 -0.9813  1.9655
  278MOL0     H36649   6.473  10.871  10.423 -1.1583 -1.0642  1.3237
  278MOL0     H36650   6.327  11.057  10.152 -2.6974 -2.8259 -2.2480
  278MOL0     H36651   6.332  11.051  10.342  0.3497 -2.0318  1.5520
  278MOL0     H36652   6.115  10.935  10.342  1.0812 -1.1120 -0.9953
  278MOL0     H36653   6.097  10.950  10.168 -1.6069 -0.3744  0.9225
  278MOL0     H36654   6.111  11.210  10.208  1.0610 -1.8787 -0.6026
  278MOL0     H36655   5.968  11.105  10.223  0.5708 -0.4977 -2.9881
  278MOL0     H36656   5.967  11.249  10.397 -0.4851 -0.9546 -2.2552
  278MOL0     H36657   6.122  11.209  10.468  1.4920 -2.2350 -0.4651
  278MOL0     H36658   5.763  10.921  10.463  0.6220  1.9565 -1.2846
  278MOL0     H36659   5.544  10.968  10.564  0.9515 -0.2026 -1.5064
  278MOL0     H36660   5.248  11.174  10.873  0.9795  0.1974 -0.6137
  278MOL0     H36661   5.000  11.166  10.920  0.0856  1.1476  0.0179
  278MOL0     H36662   4.794  10.892  10.658 -0.7313 -2.1536  1.0602
  278MOL0     H36663   4.675  11.028  10.643  0.2036  1.5754  1.1290
  278MOL0     H36664   4.593  10.987  10.855  3.1752  3.3784  0.3960
  278MOL0     H36665   4.724  10.894  10.918 -0.2225 -0.0313  0.6178
  278MOL0     H36666   4.547  10.744  10.876  1.4953  0.3042  0.1193
  278MOL0     H36667   4.662  10.698  10.756  1.0277  0.7326 -1.3078
  278MOL0     H36668   4.392  10.851  10.730  0.6478  1.4039 -0.8454
  278MOL0     H36669   4.510  10.833  10.594 -1.3037 -1.7900 -1.2959
  278MOL0     H36670   4.490  10.614  10.584 -2.5116 -3.6244 -0.8628
  278MOL0     H36671   4.321  10.662  10.601 -1.2284 -3.0822  1.1989
  278MOL0     H36672   4.316  10.613  10.838 -2.6762 -2.4563 -1.5803
  278MOL0     H36673   4.481  10.538  10.821 -1.6033 -0.2036  3.4816
  278MOL0     H36674   4.223  10.440  10.675  1.1785  1.6946 -1.3291
  278MOL0     H36675   4.391  10.367  10.666  1.3629  1.0985  1.0533
  278MOL0     H36676   4.380  10.346  10.911  1.9378  2.6445 -2.3507
  278MOL0     H36677   4.240  10.256  10.837 -0.9879 -0.3635 -0.6365
  278MOL0     H36678   4.933  11.023  10.522 -2.4703 -0.4927  2.2124
  278MOL0     H36679   5.169  11.044  10.467  1.2572  0.3214  0.1746
  278MOL0     H36680   5.715  11.337  10.719  1.8166  1.8351 -3.1807
  278MOL0     H36681   5.928  11.264  10.636  1.1908 -1.0035 -1.3323
  278MOL0     H36682   7.444  10.961  10.157 -1.3791 -1.1408 -2.2759
  278MOL0     H36683   7.685  10.894  10.140  0.5455 -0.2460  0.8055
  278MOL0     H36684   7.951  10.593  10.034  0.6832  0.8336  1.3102
  278MOL0     H36685   8.138  10.448   9.919 -3.9813 -0.1222 -0.7357
  278MOL0     H36686   8.329  10.105  10.125 -0.8208 -0.1041 -3.7524
  278MOL0     H36687   8.376  10.235  10.230  1.0590 -1.3755  0.6397
  278MOL0     H36688   8.569  10.144  10.125  0.3875  1.3118  0.1981
  278MOL0     H36689   8.509  10.161   9.960  2.8513 -3.9004  0.0795
  278MOL0     H36690   8.533  10.412   9.993  1.9311  0.4767 -1.9560
  278MOL0     H36691   8.687  10.324   9.998  0.6409  1.5995  1.9331
  278MOL0     H36692   8.561  10.361  10.269  1.2897 -4.0255 -0.4833
  278MOL0     H36693   8.719  10.328  10.217  0.8046 -0.0229 -1.4782
  278MOL0     H36694   8.670  10.751  10.197 -2.6545  0.4638 -0.4776
  278MOL0     H36695   8.194  10.252  10.300  0.6247  0.5071  0.6077
  278MOL0     H36696   8.022  10.380  10.397 -2.0180  4.0501  0.8703
  279MOL0     O36697   7.097   4.967   3.301 -0.6191 -0.6720 -0.0420
  279MOL0     C36698   7.136   4.875   3.233  0.4842 -0.1671  0.4802
  279MOL0     O36699   7.123   4.862   3.093  0.0012  0.4082 -0.0880
  279MOL0     C36700   7.018   4.935   3.038 -0.5134 -0.2352 -0.2937
  279MOL0     C36701   7.037   5.076   3.027  0.0005  0.4420 -1.1616
  279MOL0     C36702   6.942   5.169   2.963 -0.1774 -0.4929  0.2456
  279MOL0     C36703   6.824   5.107   2.917  0.9493  0.4043 -0.2559
  279MOL0     O36704   6.725   5.194   2.881 -0.2821 -0.2369  0.0697
  279MOL0     C36705   6.603   5.158   2.817 -0.0306  0.9132  0.2553
  279MOL0     C36706   6.511   5.277   2.827 -0.0743  0.0836  0.0702
  279MOL0     C36707   6.381   5.252   2.748 -0.0992  0.6824  1.0441
  279MOL0     C36708   6.274   5.361   2.769 -0.9213  0.8701 -0.9352
  279MOL0     C36709   6.145   5.330   2.681  0.1527 -0.1590  0.5069
  279MOL0     C36710   6.063   5.458   2.680 -0.1006 -0.4907 -0.2010
  279MOL0     C36711   5.945   5.441   2.584 -0.9367  0.4945  0.2301
  279MOL0     C36712   5.864   5.577   2.575 -0.4766 -0.1730 -0.0736
  279MOL0     N36713   5.762   5.568   2.472  0.0492 -0.6536  0.4249
  279MOL0     C36714   5.693   5.675   2.433  0.5123  0.2752  0.6894
  279MOL0     C36715   5.639   5.629   2.315 -0.3313 -0.0961 -1.0647
  279MOL0     C36716   5.546   5.709   2.227  0.2282  0.8825 -0.5309
  279MOL0     C36717   5.393   5.677   2.236  0.1501  0.3178 -0.8948
  279MOL0     C36718   5.312   5.768   2.141 -0.0749  0.0369  0.5123
  279MOL0     C36719   5.164   5.727   2.168  0.2410  0.0715 -1.2209
  279MOL0     O36720   5.083   5.827   2.104  0.2318  0.3999  0.5536
  279MOL0     C36721   4.941   5.815   2.104  0.0763 -0.5413 -0.9484
  279MOL0     C36722   4.864   5.712   2.162 -0.4861 -0.7738  0.2101
  279MOL0     C36723   4.726   5.712   2.168 -0.3303  0.1611 -0.2756
  279MOL0     C36724   4.654   5.824   2.108  0.2802  0.0238  0.2428
  279MOL0     C36725   4.501   5.813   2.100 -1.0547 -0.0402 -0.6415
  279MOL0     O36726   4.432   5.916   2.038  0.2074 -0.2335  0.1999
  279MOL0     C36727   4.294   5.927   2.055  0.2034 -0.3753 -0.4119
  279MOL0     C36728   4.212   5.941   1.941 -0.1400  0.3469  0.1083
  279MOL0     C36729   4.082   5.927   1.949 -0.3405 -0.3895  0.1006
  279MOL0     C36730   4.019   5.916   2.075  0.0103 -0.6815  1.0678
  279MOL0     O36731   3.882   5.904   2.103 -1.0811  0.0749  0.2758
  279MOL0     C36732   3.813   5.812   2.022 -0.7568  0.2084  0.2600
  279MOL0     C36733   3.665   5.816   2.073 -0.3387 -0.9132  0.1458
  279MOL0     C36734   3.570   5.942   2.058 -0.2514  0.1636 -0.3091
  279MOL0     C36735   3.570   6.012   1.922  0.0431  0.4848 -0.2211
  279MOL0     C36736   3.511   5.913   1.823 -0.9050  0.0839  0.5606
  279MOL0     C36737   3.491   5.964   1.678  0.0586 -0.2909 -0.6876
  279MOL0     C36738   3.430   6.105   1.669 -0.2928 -0.5402  0.5591
  279MOL0     C36739   3.282   6.109   1.703 -0.1183 -0.2320  0.2132
  279MOL0    Cl36740   3.254   6.135   1.876 -0.2558  0.2351 -0.0707
  279MOL0     C36741   4.100   5.909   2.190 -0.3934 -0.6489  0.2306
  279MOL0     C36742   4.239   5.930   2.180  0.5943 -0.0546 -0.2113
  279MOL0     O36743   4.460   5.729   2.176 -0.5134  1.1984 -0.5223
  279MOL0     C36744   4.726   5.928   2.052  0.3819 -0.2012  1.0759
  279MOL0     C36745   4.867   5.924   2.055  0.1607  0.4173  0.1518
  279MOL0     N36746   5.664   5.494   2.299 -0.7107  0.4009 -0.2118
  279MOL0     N36747   5.745   5.465   2.388  0.5499 -0.1754 -0.2540
  279MOL0     C36748   6.795   4.969   2.943  0.0359 -0.0240 -0.0626
  279MOL0     C36749   6.896   4.885   2.997  0.5901  0.0995 -0.0343
  279MOL0     C36750   7.220   4.758   3.278 -0.6868  0.1797 -0.8549
  279MOL0     C36751   7.280   4.764   3.407  0.1348 -0.7647 -0.6779
  279MOL0     C36752   7.358   4.660   3.457 -0.9459 -0.3120  1.4356
  279MOL0     C36753   7.383   4.546   3.390  0.1493 -0.5392  1.3746
  279MOL0     O36754   7.453   4.443   3.445  0.4238 -0.1967 -0.2460
  279MOL0     C36755   7.449   4.424   3.585  0.5393 -0.3668  0.3166
  279MOL0     C36756   7.500   4.276   3.626 -1.1819  0.7748 -0.7629
  279MOL0     C36757   7.638   4.235   3.583 -1.0768 -0.2987 -0.4175
  279MOL0     C36758   7.745   4.348   3.595  0.2759 -0.3150  0.9083
  279MOL0     C36759   7.866   4.329   3.518 -0.4283 -0.0360 -0.0041
  279MOL0     C36760   7.962   4.310   3.441  0.2559  0.3034  0.0019
  279MOL0     C36761   7.309   4.529   3.271 -0.2089 -0.7062  0.6144
  279MOL0     C36762   7.236   4.637   3.209 -0.0486 -0.8354  0.9198
  279MOL0     H36763   7.114   5.120   3.089 -2.8800  1.7310  1.7618
  279MOL0     H36764   6.956   5.276   2.965  2.7263 -0.7957  1.1623
  279MOL0     H36765   6.555   5.071   2.863  1.2764 -0.1215 -0.2853
  279MOL0     H36766   6.631   5.140   2.713  1.9107 -2.0702  1.1900
  279MOL0     H36767   6.575   5.357   2.787  1.3446  0.6753  3.2001
  279MOL0     H36768   6.492   5.311   2.930 -1.0747  1.4933 -0.5447
  279MOL0     H36769   6.328   5.160   2.775 -1.2171  1.0234  0.0861
  279MOL0     H36770   6.416   5.243   2.645  0.4928  2.1870  1.0838
  279MOL0     H36771   6.243   5.357   2.874  4.1928 -0.9698  0.7877
  279MOL0     H36772   6.309   5.462   2.745 -0.4847  0.7342 -0.8708
  279MOL0     H36773   6.076   5.255   2.721 -0.2127 -0.9926 -1.5596
  279MOL0     H36774   6.175   5.298   2.581  3.4176 -0.7637  1.5678
  279MOL0     H36775   6.125   5.540   2.643 -1.0263  1.3543  2.1014
  279MOL0     H36776   6.025   5.483   2.780 -0.3870 -0.2057 -0.3804
  279MOL0     H36777   5.996   5.428   2.488  1.2713 -1.6933  1.5815
  279MOL0     H36778   5.884   5.353   2.606  1.1804 -1.1994 -0.2980
  279MOL0     H36779   5.928   5.664   2.560 -3.1707  1.5791 -2.3346
  279MOL0     H36780   5.825   5.591   2.676 -0.6342 -0.7392 -0.0549
  279MOL0     H36781   5.685   5.774   2.476  2.2974  0.3184  0.9885
  279MOL0     H36782   5.578   5.673   2.129  2.7132  2.1758 -0.2659
  279MOL0     H36783   5.557   5.818   2.234 -0.9566  1.0183 -0.5552
  279MOL0     H36784   5.361   5.671   2.341  1.5949 -0.0251 -0.4575
  279MOL0     H36785   5.389   5.571   2.210 -2.0634  0.0571  0.2659
  279MOL0     H36786   5.325   5.873   2.169  1.8925 -0.1621  0.5108
  279MOL0     H36787   5.329   5.753   2.034  1.1597 -2.4002  0.9809
  279MOL0     H36788   5.153   5.732   2.277  0.1820  3.7645 -1.2551
  279MOL0     H36789   5.154   5.630   2.119  0.0539  0.5308 -2.1061
  279MOL0     H36790   4.916   5.627   2.203  1.7391  0.4178  0.0255
  279MOL0     H36791   4.674   5.629   2.215 -2.0958  1.2673 -0.1803
  279MOL0     H36792   4.252   5.953   1.841 -2.0789  3.5040 -0.4347
  279MOL0     H36793   4.034   5.939   1.852 -0.2577 -0.7699  0.0111
  279MOL0     H36794   3.860   5.717   2.048  1.6180  0.8674 -1.1870
  279MOL0     H36795   3.826   5.829   1.914 -1.0178 -1.4794 -0.0618
  279MOL0     H36796   3.664   5.802   2.181  1.1515  1.0448  0.4658
  279MOL0     H36797   3.613   5.727   2.036 -2.3266 -0.5202  1.8394
  279MOL0     H36798   3.610   6.021   2.122  0.0380  1.9900 -2.6084
  279MOL0     H36799   3.472   5.914   2.096 -0.4266  0.2702 -0.6718
  279MOL0     H36800   3.521   6.110   1.923 -0.6655  0.1528 -1.1194
  279MOL0     H36801   3.671   6.041   1.890  0.5372 -2.5406 -1.6930
  279MOL0     H36802   3.409   5.887   1.851 -1.2303  0.8633  0.1271
  279MOL0     H36803   3.582   5.831   1.813  1.3743  2.0622 -0.4464
  279MOL0     H36804   3.450   5.880   1.622  1.2035 -0.3456 -1.4618
  279MOL0     H36805   3.588   5.990   1.634  0.8366 -2.5344 -0.4116
  279MOL0     H36806   3.494   6.176   1.723 -2.4098  1.5583  0.4654
  279MOL0     H36807   3.445   6.139   1.566  1.2837  2.7752  1.7276
  279MOL0     H36808   3.226   6.023   1.663 -0.4880 -0.3167  0.9096
  279MOL0     H36809   3.242   6.199   1.656  1.4336  0.2511 -0.2431
  279MOL0     H36810   4.060   5.904   2.291 -0.4680  3.0863  0.5138
  279MOL0     H36811   4.306   5.936   2.266  0.7089  1.5365 -0.3876
  279MOL0     H36812   4.661   6.000   2.002 -0.6292 -1.1392  1.0041
  279MOL0     H36813   4.913   6.020   2.036  0.2987  0.4037  0.4053
  279MOL0     H36814   6.706   4.913   2.917  1.6826 -2.4897 -0.7200
  279MOL0     H36815   6.864   4.781   3.007 -1.0114  0.6504  0.9730
  279MOL0     H36816   7.259   4.858   3.456 -2.3832 -1.4745 -0.2535
  279MOL0     H36817   7.397   4.676   3.556 -0.4859  1.7517  0.9715
  279MOL0     H36818   7.351   4.447   3.626  0.9211  1.3372  0.3790
  279MOL0     H36819   7.520   4.490   3.637  1.6151 -2.2768  1.3722
  279MOL0     H36820   7.482   4.268   3.734  0.6770 -0.5975 -0.5135
  279MOL0     H36821   7.428   4.213   3.573 -1.0504 -0.3438  0.3442
  279MOL0     H36822   7.628   4.188   3.485  1.8333 -0.6028 -0.6473
  279MOL0     H36823   7.675   4.155   3.647 -0.8138  1.3201  1.5516
  279MOL0     H36824   7.711   4.450   3.578  1.1132  0.0504  1.3781
  279MOL0     H36825   7.774   4.346   3.700 -0.1782  1.6539  1.1010
  279MOL0     H36826   8.048   4.291   3.381  0.4092  1.8179 -0.2857
  279MOL0     H36827   7.311   4.429   3.230  2.3104 -0.4123 -0.1674
  279MOL0     H36828   7.205   4.612   3.108 -0.0267 -3.4862  1.5146
  280MOL0     O36829   1.638   3.634   1.272 -0.3875 -0.5882 -0.1641
  280MOL0     C36830   1.516   3.615   1.290  0.5907 -0.2843  0.3437
  280MOL0     O36831   1.435   3.656   1.394 -0.1136 -0.2197  0.0199
  280MOL0     C36832   1.477   3.754   1.477 -0.9274  0.3787 -0.0076
  280MOL0     C36833   1.491   3.720   1.610  0.7229 -0.6827  0.6645
  280MOL0     C36834   1.530   3.822   1.703  0.3779 -0.3123  0.2648
  280MOL0     C36835   1.562   3.944   1.650  0.0512  0.0264 -0.1639
  280MOL0     O36836   1.575   4.048   1.740  0.3947  0.5180 -0.5958
  280MOL0     C36837   1.711   4.079   1.777  0.8287 -0.0706 -0.4867
  280MOL0     C36838   1.719   4.154   1.916 -0.2497  0.5914  0.4518
  280MOL0     C36839   1.837   4.248   1.928  0.1968  0.3808  0.5846
  280MOL0     C36840   1.827   4.301   2.068 -0.4985 -0.7491 -0.8840
  280MOL0     C36841   1.959   4.373   2.100  0.1138 -0.0004 -0.0799
  280MOL0     C36842   2.028   4.336   2.226 -0.0009  0.5654 -0.9060
  280MOL0     C36843   2.179   4.357   2.212  0.0513  0.5843 -0.0648
  280MOL0     C36844   2.273   4.348   2.334  0.1383 -0.2856  0.7145
  280MOL0     N36845   2.243   4.230   2.414  0.2099 -0.0724  0.0897
  280MOL0     C36846   2.224   4.093   2.381 -0.4983  0.1896 -0.0791
  280MOL0     C36847   2.202   4.027   2.497 -0.8283  0.6118  0.6094
  280MOL0     C36848   2.181   3.885   2.509 -0.3352  1.5411 -0.2877
  280MOL0     C36849   2.054   3.836   2.428  0.3798  0.5559  0.0233
  280MOL0     C36850   1.921   3.881   2.512 -0.9971  0.7778  0.2070
  280MOL0     C36851   1.793   3.827   2.456 -0.6720  1.0009 -0.4600
  280MOL0     O36852   1.743   3.897   2.347 -0.6095 -0.0706  0.0149
  280MOL0     C36853   1.622   3.872   2.307  0.9629 -0.0293 -0.0321
  280MOL0     C36854   1.548   3.763   2.346 -1.1029  0.6491  0.9106
  280MOL0     C36855   1.420   3.737   2.296 -0.6723 -0.1132  0.2926
  280MOL0     C36856   1.367   3.819   2.198 -0.0677 -1.0880  0.0452
  280MOL0     C36857   1.231   3.786   2.138 -0.3796  0.1152  0.6202
  280MOL0     O36858   1.170   3.894   2.084 -0.1058 -0.2243 -0.1151
  280MOL0     C36859   1.038   3.899   2.034 -0.0210  0.4672  0.2213
  280MOL0     C36860   1.011   3.963   1.908  0.3759 -1.0507 -0.0647
  280MOL0     C36861   0.887   3.953   1.836  0.1385  0.0938  0.0499
  280MOL0     C36862   0.783   3.883   1.898 -0.3998  0.3156 -0.4567
  280MOL0     O36863   0.653   3.888   1.844 -0.1781  0.2935 -0.3518
  280MOL0     C36864   0.538   3.812   1.895 -0.0233  0.1906 -0.0311
  280MOL0     C36865   0.410   3.830   1.808 -0.3537 -0.4901  0.4384
  280MOL0     C36866   0.313   3.705   1.842  0.8909 -0.3160 -0.2893
  280MOL0     C36867   0.178   3.705   1.763  0.1815  0.1070  0.2212
  280MOL0     C36868   0.077   3.595   1.813 -0.0575 -0.0478 -0.1695
  280MOL0     C36869  -0.068   3.623   1.788 -0.0373 -0.0193 -0.5024
  280MOL0     C36870  -0.109   3.598   1.642  0.2990 -0.2727 -0.1376
  280MOL0     C36871  -0.257   3.590   1.627 -0.7399  0.1895 -0.5998
  280MOL0    Cl36872  -0.319   3.447   1.708 -0.3144 -0.1989 -0.6194
  280MOL0     C36873   0.807   3.821   2.027 -0.5029  0.4039 -0.6426
  280MOL0     C36874   0.928   3.828   2.102 -0.5602 -0.8793  0.1455
  280MOL0     O36875   1.187   3.670   2.155  0.4698 -0.0113 -0.0730
  280MOL0     C36876   1.438   3.938   2.157 -0.1277 -0.7796  1.3074
  280MOL0     C36877   1.564   3.962   2.217  1.0572 -0.2837  0.4585
  280MOL0     N36878   2.198   4.118   2.603  0.0211 -0.7851 -0.7778
  280MOL0     N36879   2.223   4.233   2.553 -0.6721 -0.1164  0.4762
  280MOL0     C36880   1.576   3.970   1.514  0.4244 -0.6797  0.5924
  280MOL0     C36881   1.538   3.871   1.423  0.5347 -0.6228 -0.4419
  280MOL0     C36882   1.444   3.526   1.190 -0.3394 -0.2650 -0.3402
  280MOL0     C36883   1.524   3.452   1.105  0.2847  0.3620 -0.2619
  280MOL0     C36884   1.469   3.369   1.011 -0.9180 -0.3063 -0.2991
  280MOL0     C36885   1.330   3.351   0.999  0.1533 -0.6474 -0.3824
  280MOL0     O36886   1.267   3.267   0.905  0.1629  0.0657  0.3516
  280MOL0     C36887   1.349   3.181   0.832  0.1878 -0.3956  0.5885
  280MOL0     C36888   1.259   3.094   0.735 -1.0371 -0.7481 -0.4136
  280MOL0     C36889   1.181   3.196   0.643 -0.1728  0.5216  0.1968
  280MOL0     C36890   1.026   3.156   0.637 -0.7791 -0.1651  0.0858
  280MOL0     C36891   1.008   3.032   0.551 -0.0094 -0.9235  0.7483
  280MOL0     C36892   1.008   2.936   0.473 -0.1148  0.5127 -0.8609
  280MOL0     C36893   1.248   3.417   1.088 -0.6514 -0.1521 -0.7808
  280MOL0     C36894   1.307   3.511   1.181 -0.5569 -0.5750  0.0626
  280MOL0     H36895   1.447   3.630   1.650 -2.7907  1.3587  1.8530
  280MOL0     H36896   1.515   3.798   1.808  1.8974 -3.1588 -0.0842
  280MOL0     H36897   1.752   4.148   1.703  0.1738 -1.6527 -2.4326
  280MOL0     H36898   1.773   3.989   1.777  0.2127 -0.5072 -0.2926
  280MOL0     H36899   1.737   4.071   1.985  1.6213  1.5534  1.1897
  280MOL0     H36900   1.624   4.207   1.931 -1.8211 -1.7646 -0.5299
  280MOL0     H36901   1.842   4.332   1.857  0.0482  0.8275  1.0924
  280MOL0     H36902   1.931   4.193   1.925  1.3435  2.2069  0.9844
  280MOL0     H36903   1.751   4.379   2.079  1.4635  1.0503  0.7506
  280MOL0     H36904   1.812   4.214   2.133 -0.5328 -0.5418 -0.6111
  280MOL0     H36905   1.936   4.480   2.105  0.1222  0.4680 -4.8291
  280MOL0     H36906   2.028   4.365   2.016  0.7785  1.8322  0.2629
  280MOL0     H36907   2.000   4.233   2.250 -2.7257  1.7515  1.7326
  280MOL0     H36908   1.995   4.399   2.310  1.8804  1.2277 -0.6147
  280MOL0     H36909   2.197   4.282   2.134 -1.3127  0.9807 -0.7977
  280MOL0     H36910   2.206   4.448   2.158  0.8608 -1.3761 -3.2325
  280MOL0     H36911   2.271   4.437   2.398  2.6026 -0.3655  1.0065
  280MOL0     H36912   2.374   4.337   2.293 -0.7445 -0.6158 -1.4821
  280MOL0     H36913   2.237   4.048   2.283  1.8018  1.2410 -0.3345
  280MOL0     H36914   2.161   3.855   2.612 -0.3677  0.9284 -0.4691
  280MOL0     H36915   2.271   3.833   2.477 -0.1208  1.2087  0.8028
  280MOL0     H36916   2.053   3.727   2.419 -3.1477  0.3649  0.9864
  280MOL0     H36917   2.062   3.866   2.323  3.1987  0.7996  0.2554
  280MOL0     H36918   1.936   3.843   2.613  0.7060  0.1402 -0.2696
  280MOL0     H36919   1.926   3.991   2.518  6.6079  0.8349  2.0546
  280MOL0     H36920   1.726   3.830   2.542  0.2675  0.3962  0.3124
  280MOL0     H36921   1.802   3.720   2.436  0.2933  0.9873 -0.0187
  280MOL0     H36922   1.589   3.695   2.420 -0.0408  1.5851  1.2088
  280MOL0     H36923   1.361   3.649   2.320  2.1168 -2.4083 -0.6203
  280MOL0     H36924   1.080   4.035   1.865 -1.6060  0.8713 -0.2111
  280MOL0     H36925   0.880   4.005   1.741  1.1955  2.2678  1.0850
  280MOL0     H36926   0.526   3.823   2.003 -4.1188 -1.1195 -0.2076
  280MOL0     H36927   0.562   3.707   1.877  3.1111  1.4076 -4.9257
  280MOL0     H36928   0.437   3.816   1.703  0.4234 -0.6863  0.6571
  280MOL0     H36929   0.370   3.927   1.839 -0.7815 -1.3365  2.7353
  280MOL0     H36930   0.275   3.720   1.943  1.7474 -0.7131  0.0916
  280MOL0     H36931   0.350   3.603   1.831 -3.2264 -1.9483 -0.8271
  280MOL0     H36932   0.139   3.807   1.758  0.4602  0.1546 -2.9237
  280MOL0     H36933   0.202   3.682   1.659  2.0040 -1.9005  1.0109
  280MOL0     H36934   0.082   3.591   1.922  1.9504 -0.5970 -0.2452
  280MOL0     H36935   0.094   3.499   1.763 -1.5824 -1.0854  1.1915
  280MOL0     H36936  -0.092   3.725   1.819  0.2907  0.1682 -0.8600
  280MOL0     H36937  -0.126   3.559   1.855 -1.6074  1.4448 -0.4146
  280MOL0     H36938  -0.082   3.689   1.586  0.1133  0.6274  1.1826
  280MOL0     H36939  -0.056   3.512   1.602  2.0327  0.8885 -0.4227
  280MOL0     H36940  -0.288   3.570   1.523  0.7753 -1.4987 -0.7931
  280MOL0     H36941  -0.313   3.676   1.662  0.4948  0.1281  1.7224
  280MOL0     H36942   0.736   3.774   2.093  3.5332 -2.0906  2.3747
  280MOL0     H36943   0.933   3.781   2.200 -0.1065 -0.3160  0.3964
  280MOL0     H36944   1.403   4.010   2.083  0.0945 -0.7061  1.2740
  280MOL0     H36945   1.614   4.054   2.188 -3.1240  1.3930 -2.4441
  280MOL0     H36946   1.600   4.071   1.482  2.4611 -0.9587  1.1126
  280MOL0     H36947   1.551   3.886   1.316  1.5748  0.8210 -0.1308
  280MOL0     H36948   1.632   3.466   1.096  0.2272  0.5540 -0.6562
  280MOL0     H36949   1.544   3.304   0.966 -0.9909 -1.1835  0.8142
  280MOL0     H36950   1.417   3.127   0.898  1.4867  0.4020 -0.0565
  280MOL0     H36951   1.419   3.244   0.775  3.3477 -2.4326  1.9557
  280MOL0     H36952   1.322   3.033   0.669 -0.4667  0.6279 -1.1927
  280MOL0     H36953   1.209   3.022   0.800 -1.0966  0.3314  0.7596
  280MOL0     H36954   1.224   3.189   0.543  1.7320  0.2651  0.9850
  280MOL0     H36955   1.202   3.300   0.668  2.2273  0.3468 -0.8817
  280MOL0     H36956   0.991   3.146   0.740 -2.2477  0.3401 -0.3421
  280MOL0     H36957   0.970   3.241   0.597 -0.5478  1.5001  3.0615
  280MOL0     H36958   1.027   2.847   0.416  0.7239 -0.5251  0.9498
  280MOL0     H36959   1.141   3.405   1.087 -1.1183  0.9671  4.9507
  280MOL0     H36960   1.250   3.567   1.255  0.4200 -3.3938  3.1742
  281MOL0     O36961   6.045   5.063  11.080  0.8924 -0.9676  0.1145
  281MOL0     C36962   6.032   4.990  10.993  0.2452  2.0139 -0.1574
  281MOL0     O36963   6.125   4.920  10.923  0.3012 -0.9488  0.2534
  281MOL0     C36964   6.258   4.935  10.958 -0.3711 -0.4064  0.1596
  281MOL0     C36965   6.297   4.931  11.090 -0.4579  0.0705  0.8750
  281MOL0     C36966   6.427   4.954  11.121  0.0114 -0.1885 -0.1783
  281MOL0     C36967   6.528   4.986  11.026  0.1874  0.5849  0.1005
  281MOL0     O36968   6.660   5.009  11.043 -0.2470  0.1478  0.5898
  281MOL0     C36969   6.725   4.955  11.163  0.3025  0.2527 -0.4776
  281MOL0     C36970   6.869   4.975  11.155 -0.4622 -0.1734  0.6266
  281MOL0     C36971   6.922   5.116  11.196  0.0913  0.3393 -1.3579
  281MOL0     C36972   6.891   5.239  11.101  0.3206  0.1953 -0.3960
  281MOL0     C36973   6.947   5.379  11.135  0.5440 -0.3288 -0.0405
  281MOL0     C36974   7.095   5.386  11.176 -0.3515  0.5815 -0.4613
  281MOL0     C36975   7.146   5.533  11.195 -0.2439  0.3627 -0.0186
  281MOL0     C36976   7.093   5.599  11.321  0.4040 -0.5417 -0.5113
  281MOL0     N36977   7.002   5.705  11.300 -0.0796  0.3611  0.3965
  281MOL0     C36978   7.046   5.835  11.269  0.3176  0.2581 -0.2343
  281MOL0     C36979   6.936   5.910  11.237  0.9339 -0.2677  0.8209
  281MOL0     C36980   6.931   6.043  11.173 -0.8628  0.4762 -0.6150
  281MOL0     C36981   6.971   6.157  11.265 -0.6283 -0.4049 -0.1724
  281MOL0     C36982   7.117   6.198  11.257 -0.4644  0.2851 -0.1390
  281MOL0     C36983   7.141   6.312  11.352 -0.0207 -0.9900  0.2880
  281MOL0     O36984   7.276   6.356  11.355 -0.1269  0.0440  0.4049
  281MOL0     C36985   7.322   6.462  11.419  0.1752 -1.0438 -1.1829
  281MOL0     C36986   7.232   6.562  11.470  0.8724 -0.2272 -0.3085
  281MOL0     C36987   7.271   6.666  11.554  0.2124 -0.1368  0.0075
  281MOL0     C36988   7.401   6.654  11.603 -0.6561 -0.4571  0.7184
  281MOL0     C36989   7.433   6.764  11.695  0.4785  0.0752  0.0098
  281MOL0     O36990   7.335   6.815  11.780  0.4486 -0.6272 -0.3580
  281MOL0     C36991   7.339   6.922  11.868 -0.6163 -0.3557 -0.6824
  281MOL0     C36992   7.415   7.041  11.858 -0.1609  0.1482 -0.1311
  281MOL0     C36993   7.426   7.127  11.966 -0.4889  0.1258 -0.9794
  281MOL0     C36994   7.356   7.099  12.084  0.1399 -0.2996 -0.4160
  281MOL0     O36995   7.383   7.184  12.187  0.2266  0.1917 -0.5646
  281MOL0     C36996   7.334   7.144  12.312 -0.2660 -0.5142 -1.0343
  281MOL0     C36997   7.362   7.274  12.405  0.7733 -0.5505  1.1759
  281MOL0     C36998   7.315   7.244  12.554 -0.4994 -0.0433  0.5212
  281MOL0     C36999   7.163   7.225  12.569  0.3079 -0.2360  0.2005
  281MOL0     C37000   7.105   7.294  12.700 -0.0383 -0.1397 -0.2081
  281MOL0     C37001   7.040   7.430  12.691 -0.3564 -0.3968 -0.8693
  281MOL0     C37002   6.996   7.476  12.830 -0.3999 -0.1612  0.5343
  281MOL0     C37003   6.925   7.603  12.828  0.5398 -0.3387  0.4456
  281MOL0    Cl37004   6.852   7.617  12.991  0.0026  0.5242  0.0350
  281MOL0     C37005   7.262   6.999  12.086 -0.1408 -0.5887  0.3974
  281MOL0     C37006   7.254   6.919  11.979 -0.4899  0.9521  0.2645
  281MOL0     O37007   7.553   6.799  11.690  0.4435  0.3355  0.4525
  281MOL0     C37008   7.497   6.569  11.543 -0.8183 -0.4499  0.1802
  281MOL0     C37009   7.458   6.468  11.456  0.2062  0.7999  0.8498
  281MOL0     N37010   6.826   5.831  11.276  0.0214 -0.6204 -0.2519
  281MOL0     N37011   6.862   5.711  11.302 -0.8334  0.0829  0.1065
  281MOL0     C37012   6.486   4.994  10.890 -0.3249 -0.5995 -0.3791
  281MOL0     C37013   6.349   4.973  10.860 -0.3782 -0.9103 -0.4493
  281MOL0     C37014   5.890   4.959  10.982 -0.7607 -0.3627 -0.2074
  281MOL0     C37015   5.817   4.960  10.860  0.6133  0.2473  0.3103
  281MOL0     C37016   5.683   4.920  10.863  0.2221  0.3715  0.4677
  281MOL0     C37017   5.621   4.885  10.978 -0.3270 -0.0334  0.5685
  281MOL0     O37018   5.487   4.859  10.988  0.3543 -0.4776  0.3689
  281MOL0     C37019   5.419   4.798  10.875  0.3956  0.0515  0.2399
  281MOL0     C37020   5.269   4.826  10.882 -0.2227  0.8960 -0.7149
  281MOL0     C37021   5.250   4.971  10.839 -0.0714  0.0190  0.4740
  281MOL0     C37022   5.118   5.006  10.765  0.4421 -0.0430  1.9360
  281MOL0     C37023   5.017   4.998  10.869  0.0051  0.3078  0.0054
  281MOL0     C37024   4.945   4.969  10.963 -0.4049  0.2126 -0.2076
  281MOL0     C37025   5.693   4.877  11.092 -0.0587 -0.5404  0.3762
  281MOL0     C37026   5.826   4.913  11.090  0.6316 -0.7178 -0.4263
  281MOL0     H37027   6.218   4.914  11.162 -0.4969 -1.0137  0.6063
  281MOL0     H37028   6.451   4.938  11.226 -2.5143  0.2429  0.5265
  281MOL0     H37029   6.698   4.850  11.178 -1.0913  0.9966  3.0759
  281MOL0     H37030   6.692   4.995  11.259  0.8649 -1.6704  0.5809
  281MOL0     H37031   6.894   4.959  11.050 -3.9612 -0.6570 -0.2640
  281MOL0     H37032   6.917   4.892  11.208  0.2838 -1.3776 -1.7941
  281MOL0     H37033   7.030   5.096  11.204 -0.2342 -0.8577  3.1531
  281MOL0     H37034   6.887   5.132  11.299  0.9505 -3.8141 -0.2306
  281MOL0     H37035   6.926   5.203  11.004 -2.0686 -4.0521  0.0931
  281MOL0     H37036   6.783   5.239  11.088  0.0968 -2.7433  0.7249
  281MOL0     H37037   6.875   5.422  11.205 -0.5663  0.4262 -1.5871
  281MOL0     H37038   6.932   5.437  11.044 -1.9341 -1.1565 -0.2500
  281MOL0     H37039   7.153   5.334  11.099  2.0089  0.9350  0.9684
  281MOL0     H37040   7.108   5.321  11.263 -2.5063 -0.6463 -0.9918
  281MOL0     H37041   7.255   5.536  11.195 -0.2213  3.1029  1.5891
  281MOL0     H37042   7.114   5.590  11.107  1.1242  2.1324  0.5716
  281MOL0     H37043   7.174   5.643  11.380 -2.1274  2.0079  1.3355
  281MOL0     H37044   7.033   5.532  11.382 -1.4586 -1.2814 -2.9794
  281MOL0     H37045   7.152   5.861  11.267  1.5504 -3.8653  1.3638
  281MOL0     H37046   6.833   6.069  11.132 -0.8219 -2.1435 -2.6045
  281MOL0     H37047   7.001   6.027  11.090 -0.2296 -1.5194  0.2626
  281MOL0     H37048   6.948   6.131  11.369 -2.7346 -0.1155 -0.5329
  281MOL0     H37049   6.918   6.249  11.238  1.9695  1.3372  0.3247
  281MOL0     H37050   7.187   6.118  11.281 -3.5414 -2.2386  1.1155
  281MOL0     H37051   7.139   6.243  11.160  1.6637  0.1085  0.2168
  281MOL0     H37052   7.102   6.299  11.454 -2.2519 -0.4250 -0.4201
  281MOL0     H37053   7.074   6.393  11.319 -0.8865 -0.6929  2.5296
  281MOL0     H37054   7.131   6.567  11.430  0.3373 -0.8175  0.9343
  281MOL0     H37055   7.212   6.753  11.581  0.6933  0.8036 -1.7750
  281MOL0     H37056   7.488   7.064  11.782  1.4068  0.6757  1.4634
  281MOL0     H37057   7.497   7.207  11.951 -0.0316 -0.6917 -3.7542
  281MOL0     H37058   7.391   7.061  12.355  1.3765  1.6297  1.2387
  281MOL0     H37059   7.226   7.134  12.314 -1.0614  4.7668 -2.3676
  281MOL0     H37060   7.311   7.366  12.373  0.5993 -0.7739  0.8088
  281MOL0     H37061   7.470   7.293  12.401  0.8304 -0.9515 -2.1680
  281MOL0     H37062   7.346   7.334  12.608  2.3822  0.1367 -1.2277
  281MOL0     H37063   7.378   7.164  12.593  1.6412  0.1613 -2.2233
  281MOL0     H37064   7.107   7.249  12.478 -1.4361  0.2780  1.3683
  281MOL0     H37065   7.151   7.119  12.594  1.5011  0.2770  3.4930
  281MOL0     H37066   7.188   7.287  12.771  1.7089 -2.3607 -2.2549
  281MOL0     H37067   7.036   7.217  12.732  2.4286 -2.4417 -0.0323
  281MOL0     H37068   6.946   7.427  12.634 -0.3922 -1.0942 -0.7840
  281MOL0     H37069   7.091   7.517  12.649 -3.0331  2.4885  1.2756
  281MOL0     H37070   6.943   7.390  12.870 -0.6607  1.0959  3.0887
  281MOL0     H37071   7.086   7.493  12.890 -0.9253  2.8038  0.6293
  281MOL0     H37072   6.852   7.591  12.747 -0.6090 -2.4327  1.6916
  281MOL0     H37073   6.977   7.698  12.811 -0.3510  0.1866  0.6212
  281MOL0     H37074   7.194   6.980  12.169  2.2753  0.7570  2.8592
  281MOL0     H37075   7.179   6.840  11.984 -0.5112  0.9128 -0.6741
  281MOL0     H37076   7.600   6.562  11.576  0.0365  2.8332 -1.3587
  281MOL0     H37077   7.522   6.386  11.424 -1.0939 -0.6257  1.7249
  281MOL0     H37078   6.550   5.022  10.806  0.4111 -2.4521 -0.4847
  281MOL0     H37079   6.325   4.987  10.755 -0.0504  2.5792 -0.1755
  281MOL0     H37080   5.853   4.984  10.760  0.7617 -3.5304 -0.7198
  281MOL0     H37081   5.622   4.933  10.775 -0.8162 -0.1131  1.0941
  281MOL0     H37082   5.444   4.692  10.889 -1.1842 -0.1408  1.9763
  281MOL0     H37083   5.463   4.822  10.778  4.8635  2.2202  2.4959
  281MOL0     H37084   5.212   4.761  10.815  0.1627 -1.7050  1.3111
  281MOL0     H37085   5.232   4.801  10.982 -0.3619  1.2309 -0.6822
  281MOL0     H37086   5.335   5.006  10.779 -0.5199 -1.9744 -1.4567
  281MOL0     H37087   5.262   5.044  10.919 -0.9970  2.2606 -1.3179
  281MOL0     H37088   5.109   5.100  10.711  0.8294  1.6155  4.6063
  281MOL0     H37089   5.093   4.930  10.690  1.4077  1.8649 -0.4451
  281MOL0     H37090   4.877   4.950  11.044 -1.8614  0.4185 -1.3410
  281MOL0     H37091   5.639   4.850  11.182 -0.2590  0.8501  0.7031
  281MOL0     H37092   5.876   4.916  11.186 -0.2167  2.0076  0.0041
  282MOL0     O37093  10.645  11.212   8.601  0.0874  0.2973 -0.3461
  282MOL0     C37094  10.768  11.233   8.614 -0.1157 -0.0943 -1.2991
  282MOL0     O37095  10.843  11.203   8.720 -0.2195  0.1586 -0.5023
  282MOL0     C37096  10.797  11.103   8.797  0.2871  0.3861  0.8965
  282MOL0     C37097  10.848  10.978   8.758  0.8580  0.4961  0.0537
  282MOL0     C37098  10.789  10.867   8.822  0.4878  0.7575 -1.0319
  282MOL0     C37099  10.706  10.876   8.934  0.2064 -0.0032 -0.0584
  282MOL0     O37100  10.649  10.775   9.006  0.2018 -0.0608  0.3915
  282MOL0     C37101  10.672  10.638   8.969  0.0042  0.5690  0.2719
  282MOL0     C37102  10.600  10.568   9.084 -0.8529  0.8489 -0.3752
  282MOL0     C37103  10.680  10.572   9.217 -0.2597 -0.5504 -0.1967
  282MOL0     C37104  10.806  10.473   9.222 -0.2417 -0.5875  0.0062
  282MOL0     C37105  10.876  10.494   9.361 -0.0980 -0.5522 -0.1503
  282MOL0     C37106  10.974  10.378   9.390 -0.1911 -0.3771 -1.3919
  282MOL0     C37107  11.099  10.374   9.299 -0.2207 -0.4893  0.2841
  282MOL0     C37108  11.168  10.511   9.291  0.1851 -0.0759  0.6961
  282MOL0     N37109  11.287  10.517   9.204  1.0061 -0.2397  0.0900
  282MOL0     C37110  11.413  10.556   9.223  0.5832  0.0448 -0.6586
  282MOL0     C37111  11.483  10.547   9.112 -1.5608 -0.6045  1.3793
  282MOL0     C37112  11.635  10.572   9.105 -0.2890  0.5063  0.1798
  282MOL0     C37113  11.720  10.467   9.180 -0.0545  0.2286  0.2430
  282MOL0     C37114  11.706  10.326   9.116 -0.8147 -0.7804  0.4097
  282MOL0     C37115  11.825  10.232   9.124 -1.2925  0.4012  0.4917
  282MOL0     O37116  11.774  10.095   9.096 -0.0151 -0.9737 -0.3067
  282MOL0     C37117  11.856  10.013   9.164 -0.4235  0.5157  0.2741
  282MOL0     C37118  11.971   9.974   9.103 -0.6115 -0.1368 -0.2854
  282MOL0     C37119  12.049   9.870   9.151 -0.1427 -0.2537  0.3624
  282MOL0     C37120  12.018   9.800   9.275  0.9985 -0.7466  0.0944
  282MOL0     C37121  12.097   9.691   9.326  0.1172  0.9837  0.7467
  282MOL0     O37122  12.226   9.668   9.270  0.1438 -0.0471  0.4221
  282MOL0     C37123  12.305   9.562   9.313 -1.1929 -0.8893  0.4966
  282MOL0     C37124  12.376   9.494   9.224  0.9870 -0.5779  0.1288
  282MOL0     C37125  12.449   9.377   9.257 -0.1571 -0.2483  0.3970
  282MOL0     C37126  12.468   9.346   9.391 -0.5834 -0.7579 -1.1337
  282MOL0     O37127  12.554   9.240   9.422 -0.6940 -0.0949 -0.2231
  282MOL0     C37128  12.512   9.148   9.521  0.2604 -0.5930  0.5616
  282MOL0     C37129  12.625   9.057   9.546 -0.3641  0.4946  0.0581
  282MOL0     C37130  12.720   9.128   9.656  0.6640 -0.2985  0.3500
  282MOL0     C37131  12.828   9.033   9.711  0.5069 -0.1691  0.1280
  282MOL0     C37132  12.913   9.105   9.813 -0.1032 -0.0642  0.1570
  282MOL0     C37133  12.973   9.008   9.919  0.0812 -0.7843  0.8399
  282MOL0     C37134  13.071   8.928   9.840  0.1136 -0.3725 -0.3943
  282MOL0     C37135  13.157   8.853   9.934  0.0388  0.0582  0.6305
  282MOL0    Cl37136  13.286   8.764   9.854  0.0281  0.1147  0.0650
  282MOL0     C37137  12.395   9.419   9.490  0.0973  0.0667 -0.0188
  282MOL0     C37138  12.317   9.531   9.447  0.6317  0.8722  0.4789
  282MOL0     O37139  12.040   9.613   9.400  0.5408 -0.6007 -0.0098
  282MOL0     C37140  11.903   9.839   9.335 -0.3746 -0.3431 -0.1769
  282MOL0     C37141  11.818   9.935   9.274  0.3881  0.1780 -0.2688
  282MOL0     N37142  11.394  10.492   9.016  0.1875 -0.6406 -0.8236
  282MOL0     N37143  11.276  10.483   9.070  0.3846  0.2017 -0.4241
  282MOL0     C37144  10.663  11.006   8.980 -1.1091  0.2966  0.3649
  282MOL0     C37145  10.713  11.116   8.912 -0.6732 -0.3249 -0.0309
  282MOL0     C37146  10.836  11.320   8.514 -0.8151  0.4805  0.4370
  282MOL0     C37147  10.977  11.339   8.513 -0.2902  0.3427  0.4830
  282MOL0     C37148  11.041  11.404   8.400  0.4972  0.0035 -0.2144
  282MOL0     C37149  10.960  11.450   8.297 -0.1179  0.2437  0.5031
  282MOL0     O37150  11.011  11.513   8.185  0.0666  0.1774  0.2580
  282MOL0     C37151  11.145  11.553   8.181 -0.2768 -0.9224 -0.0345
  282MOL0     C37152  11.167  11.668   8.083 -0.0150 -0.0314  0.8966
  282MOL0     C37153  11.307  11.678   8.018 -0.5028 -0.1196  0.4664
  282MOL0     C37154  11.412  11.724   8.118  1.3199  0.0048 -0.0157
  282MOL0     C37155  11.537  11.747   8.044  1.1873  0.3137 -0.2280
  282MOL0     C37156  11.636  11.733   7.994  0.2784 -0.3207  0.0953
  282MOL0     C37157  10.826  11.439   8.297 -0.1280 -0.6553 -0.5713
  282MOL0     C37158  10.762  11.381   8.408  0.1472  0.6034  0.3280
  282MOL0     H37159  10.914  10.976   8.672  0.6456 -1.2882 -0.0998
  282MOL0     H37160  10.814  10.762   8.811  1.2428  0.5964  1.6251
  282MOL0     H37161  10.778  10.614   8.973  0.3162  2.0596  1.9212
  282MOL0     H37162  10.623  10.619   8.873  2.2572 -0.9429 -0.6457
  282MOL0     H37163  10.597  10.464   9.051 -1.1083 -0.1508  2.5200
  282MOL0     H37164  10.495  10.598   9.088 -0.6211  2.5416 -3.6589
  282MOL0     H37165  10.609  10.549   9.297  0.5165  1.1983  1.0592
  282MOL0     H37166  10.722  10.671   9.238  0.9601 -0.7501 -1.6178
  282MOL0     H37167  10.753  10.379   9.206 -0.1601 -0.3349 -2.0314
  282MOL0     H37168  10.876  10.491   9.139  0.6525 -3.5581 -0.0020
  282MOL0     H37169  10.803  10.488   9.442  2.0537  0.2715  1.9421
  282MOL0     H37170  10.915  10.596   9.360 -0.1260 -0.5346 -1.1477
  282MOL0     H37171  10.930  10.279   9.379  1.7174 -1.7627  2.0068
  282MOL0     H37172  11.010  10.390   9.493 -3.1178  2.8438 -0.5643
  282MOL0     H37173  11.167  10.290   9.317  2.6097  1.3989 -0.9661
  282MOL0     H37174  11.073  10.350   9.195  1.6894 -2.1808  0.1201
  282MOL0     H37175  11.184  10.546   9.394 -0.5763 -3.0168  1.9271
  282MOL0     H37176  11.096  10.589   9.264  0.0049 -0.3857  0.2673
  282MOL0     H37177  11.438  10.594   9.321 -1.6664 -1.2442  0.4951
  282MOL0     H37178  11.662  10.666   9.154 -1.0887  2.4499 -2.8579
  282MOL0     H37179  11.673  10.571   9.003  0.6395 -0.1713  0.5193
  282MOL0     H37180  11.699  10.470   9.288  1.3002  1.1988  0.5053
  282MOL0     H37181  11.827  10.493   9.180 -0.4793  2.3769  2.2520
  282MOL0     H37182  11.629  10.280   9.179 -1.0310 -0.8088  0.1285
  282MOL0     H37183  11.679  10.326   9.010 -0.1849 -1.6954  0.2399
  282MOL0     H37184  11.870  10.232   9.224  0.3187 -2.9882 -0.1078
  282MOL0     H37185  11.907  10.267   9.060 -1.3480  1.3305  0.9001
  282MOL0     H37186  11.987  10.026   9.009 -1.7130  1.3303  0.2915
  282MOL0     H37187  12.131   9.827   9.094 -0.5523 -0.7098  0.1063
  282MOL0     H37188  12.362   9.500   9.116 -0.3702 -1.6482  0.2137
  282MOL0     H37189  12.496   9.323   9.176 -0.6249  0.5663 -0.4346
  282MOL0     H37190  12.417   9.109   9.484  0.6445 -2.7931  1.7662
  282MOL0     H37191  12.487   9.188   9.620  2.9434 -0.1410  1.1504
  282MOL0     H37192  12.663   9.041   9.445 -2.4761  2.7031 -1.1753
  282MOL0     H37193  12.598   8.958   9.584 -3.0212  1.0743 -0.1368
  282MOL0     H37194  12.651   9.161   9.735  1.7629  2.1296  0.3935
  282MOL0     H37195  12.771   9.214   9.612  3.7005 -1.0206  2.1401
  282MOL0     H37196  12.791   8.935   9.743  0.9145 -1.6257 -3.3561
  282MOL0     H37197  12.889   9.015   9.622  1.5160  0.4435  0.6781
  282MOL0     H37198  12.858   9.178   9.873  1.3676 -0.2208  1.7845
  282MOL0     H37199  12.990   9.156   9.756 -1.2802  1.5082 -0.0909
  282MOL0     H37200  12.901   8.935   9.958  2.3100 -1.1536  4.8732
  282MOL0     H37201  13.010   9.064  10.006  0.0530  0.8914 -0.1928
  282MOL0     H37202  13.030   8.853   9.772 -0.8990 -1.2524  1.1396
  282MOL0     H37203  13.136   8.995   9.783  3.6438 -2.4779  0.8639
  282MOL0     H37204  13.091   8.794   9.999 -0.4261  3.3591  3.4532
  282MOL0     H37205  13.209   8.917  10.007 -0.2674 -1.0937  1.8924
  282MOL0     H37206  12.389   9.388   9.594 -0.9252 -1.1844 -0.4246
  282MOL0     H37207  12.268   9.594   9.520 -2.4973  0.5380 -1.1841
  282MOL0     H37208  11.892   9.789   9.431  2.7048 -1.0588 -0.0932
  282MOL0     H37209  11.723   9.965   9.317 -0.6523 -0.1782 -2.2073
  282MOL0     H37210  10.606  11.034   9.068 -2.8635 -1.3665 -0.1692
  282MOL0     H37211  10.684  11.208   8.962  2.0018 -2.1703  5.8503
  282MOL0     H37212  11.041  11.291   8.587  3.4585  0.0338 -2.6115
  282MOL0     H37213  11.148  11.420   8.397  0.2817  1.6711  0.2985
  282MOL0     H37214  11.204  11.473   8.136  0.6020 -1.3937  1.8303
  282MOL0     H37215  11.192  11.575   8.278  1.5980 -1.9629 -0.6474
  282MOL0     H37216  11.097  11.662   7.999  0.6961  3.3009 -0.1122
  282MOL0     H37217  11.154  11.764   8.135  2.3605 -0.4735  2.4556
  282MOL0     H37218  11.300  11.756   7.942 -0.1498 -2.1701 -1.7738
  282MOL0     H37219  11.337  11.588   7.963  1.6977  2.0668 -2.2094
  282MOL0     H37220  11.367  11.820   8.146 -1.2863  0.0947 -3.7580
  282MOL0     H37221  11.409  11.670   8.213 -0.8340  0.5688  0.3023
  282MOL0     H37222  11.724  11.741   7.932  0.2145 -2.1608 -0.2960
  282MOL0     H37223  10.772  11.480   8.212 -3.1485 -1.3268  0.9249
  282MOL0     H37224  10.654  11.394   8.409  0.0121 -0.4783  0.5238
  283MOL0     O37225   0.013   0.892   0.158 -0.6587  0.1226  0.7097
  283MOL0     C37226   0.047   0.794   0.220  0.1281 -0.3841 -0.5064
  283MOL0     O37227   0.054   0.783   0.362  0.7840  0.2929  0.2417
  283MOL0     C37228   0.047   0.890   0.443  0.2541 -0.6449  0.4600
  283MOL0     C37229  -0.010   0.884   0.563  0.5309 -0.3521 -0.0521
  283MOL0     C37230  -0.014   0.999   0.650 -0.3396 -0.4000 -0.3805
  283MOL0     C37231   0.024   1.120   0.613  0.0658 -1.0732  0.5498
  283MOL0     O37232   0.021   1.219   0.705  0.2823 -1.1767  0.3192
  283MOL0     C37233  -0.103   1.299   0.709  0.1232  0.6518 -0.2040
  283MOL0     C37234  -0.099   1.445   0.758  0.6627 -1.0597  0.2912
  283MOL0     C37235  -0.011   1.540   0.673  0.0826 -0.6605 -0.2958
  283MOL0     C37236  -0.080   1.677   0.641 -0.2206  0.6211 -0.4686
  283MOL0     C37237  -0.197   1.674   0.541  0.6127  0.4299 -0.1887
  283MOL0     C37238  -0.164   1.616   0.402  0.4154 -0.1947  0.6595
  283MOL0     C37239  -0.295   1.598   0.325 -0.3095  0.2898  0.1871
  283MOL0     C37240  -0.276   1.537   0.192 -0.3709  0.3259 -0.0521
  283MOL0     N37241  -0.215   1.625   0.082 -0.1900  0.0846 -0.4597
  283MOL0     C37242  -0.094   1.598   0.018 -0.2317  0.6376  0.0526
  283MOL0     C37243  -0.080   1.712  -0.056  1.0434 -0.6595 -0.4839
  283MOL0     C37244   0.035   1.719  -0.152  0.6906  0.2479  0.1684
  283MOL0     C37245  -0.020   1.665  -0.287 -0.0163 -0.4537 -0.0288
  283MOL0     C37246   0.081   1.674  -0.391 -0.1604  0.0551  0.1331
  283MOL0     C37247   0.061   1.604  -0.528  0.2584 -0.2025  0.3451
  283MOL0     O37248   0.060   1.458  -0.512 -0.5857  0.6335  0.4584
  283MOL0     C37249  -0.009   1.388  -0.605  0.2009 -1.5661 -0.1371
  283MOL0     C37250  -0.123   1.316  -0.563  0.4283 -0.5827 -0.5178
  283MOL0     C37251  -0.204   1.247  -0.656 -0.0810 -0.4376  0.0823
  283MOL0     C37252  -0.169   1.259  -0.795 -0.1175  0.6519  0.2476
  283MOL0     C37253  -0.254   1.191  -0.895 -0.0551 -1.4105  0.0353
  283MOL0     O37254  -0.383   1.165  -0.860  0.2862  0.0063  0.1964
  283MOL0     C37255  -0.484   1.103  -0.935 -0.7873  0.9423  0.0648
  283MOL0     C37256  -0.479   1.059  -1.063 -0.0105  0.8469  0.3641
  283MOL0     C37257  -0.581   0.997  -1.136 -0.3636  0.4923  0.0097
  283MOL0     C37258  -0.704   0.975  -1.080  0.1791 -0.3383  1.0645
  283MOL0     O37259  -0.803   0.898  -1.144  0.2468 -0.6256 -0.1600
  283MOL0     C37260  -0.945   0.924  -1.104  0.3338 -1.0801 -0.8100
  283MOL0     C37261  -0.996   0.805  -1.009 -0.4647 -0.2363  0.0215
  283MOL0     C37262  -1.149   0.821  -0.973 -0.3506  0.5776  0.0567
  283MOL0     C37263  -1.194   0.948  -0.903 -0.5317  0.7424 -0.0702
  283MOL0     C37264  -1.342   0.944  -0.878 -0.5169 -0.3251 -0.1605
  283MOL0     C37265  -1.388   1.069  -0.811  0.2604  1.3748  0.3591
  283MOL0     C37266  -1.524   1.044  -0.741  0.2621 -0.5912  0.6460
  283MOL0     C37267  -1.523   0.970  -0.607  0.1439  0.7437  0.6874
  283MOL0    Cl37268  -1.482   0.791  -0.605  0.5299  0.1380  0.1889
  283MOL0     C37269  -0.717   1.025  -0.952  0.0581  0.2257 -0.3389
  283MOL0     C37270  -0.609   1.074  -0.880 -0.7240  0.8717  0.2126
  283MOL0     O37271  -0.198   1.155  -0.997 -0.0969 -0.3698 -0.3111
  283MOL0     C37272  -0.061   1.330  -0.835  0.9837  0.5785 -0.1895
  283MOL0     C37273   0.019   1.401  -0.745  1.3067 -0.3171  0.3091
  283MOL0     N37274  -0.199   1.798  -0.035 -0.7890  0.6454  0.3994
  283MOL0     N37275  -0.278   1.743   0.042  0.0522 -0.3017  0.4411
  283MOL0     C37276   0.084   1.139   0.484  0.0127  1.0635  0.5004
  283MOL0     C37277   0.093   1.023   0.403  0.7200 -0.0613 -0.9587
  283MOL0     C37278   0.062   0.669   0.136 -0.0682 -0.5369 -0.6695
  283MOL0     C37279   0.092   0.544   0.197  0.7199 -0.3330 -0.3275
  283MOL0     C37280   0.116   0.439   0.121  0.2965 -0.3739  0.5915
  283MOL0     C37281   0.083   0.442  -0.013 -0.4531  0.4188 -0.5730
  283MOL0     O37282   0.100   0.341  -0.102 -0.0942 -0.0170 -0.1833
  283MOL0     C37283   0.125   0.206  -0.061 -0.1698  0.3479 -0.3548
  283MOL0     C37284   0.004   0.129  -0.018 -0.0274  1.6801  0.8359
  283MOL0     C37285  -0.124   0.153  -0.084 -0.0299 -0.4921  0.1508
  283MOL0     C37286  -0.128   0.111  -0.230 -0.3910 -0.3076 -0.3100
  283MOL0     C37287  -0.124  -0.042  -0.234  0.1626 -0.8722 -0.5795
  283MOL0     C37288  -0.121  -0.164  -0.240 -0.3215 -0.6611 -0.4758
  283MOL0     C37289   0.024   0.553  -0.069  0.5642  0.3392  0.3464
  283MOL0     C37290   0.024   0.675  -0.002  0.5120  0.3767  0.3791
  283MOL0     H37291  -0.052   0.790   0.597 -0.4417  0.1115  0.0417
  283MOL0     H37292  -0.039   0.986   0.755  1.9814  2.8189  0.7418
  283MOL0     H37293  -0.180   1.248   0.768  0.3657  0.6155  0.0780
  283MOL0     H37294  -0.154   1.312   0.613 -1.2679 -1.4178  0.1861
  283MOL0     H37295  -0.072   1.456   0.863  2.0775  3.0991 -0.2971
  283MOL0     H37296  -0.199   1.486   0.745  0.6213 -0.8955  1.0836
  283MOL0     H37297   0.021   1.497   0.578  0.4937  0.2867 -0.6068
  283MOL0     H37298   0.081   1.555   0.731  0.7795  2.3395 -1.9467
  283MOL0     H37299  -0.118   1.717   0.736 -2.2536 -1.3706 -0.3486
  283MOL0     H37300  -0.007   1.752   0.611 -1.5102  2.1579  0.0611
  283MOL0     H37301  -0.219   1.780   0.525  1.6920  0.5219 -1.1921
  283MOL0     H37302  -0.281   1.628   0.594  1.6924  0.3265  1.5049
  283MOL0     H37303  -0.124   1.515   0.409 -0.3689 -0.6559 -1.1637
  283MOL0     H37304  -0.102   1.693   0.354 -1.1730  0.6583 -0.1073
  283MOL0     H37305  -0.362   1.529   0.377 -2.2849  1.5669 -0.5523
  283MOL0     H37306  -0.340   1.694   0.299  1.4754  0.0646 -5.0401
  283MOL0     H37307  -0.370   1.503   0.148 -0.5826 -0.7609  1.1824
  283MOL0     H37308  -0.232   1.438   0.203  0.9734  1.0727  1.7012
  283MOL0     H37309  -0.025   1.514   0.018 -3.3257 -2.1173 -0.4439
  283MOL0     H37310   0.117   1.654  -0.119  0.0659 -2.0649 -2.4064
  283MOL0     H37311   0.055   1.825  -0.167  0.8557  0.0671 -0.9495
  283MOL0     H37312  -0.118   1.708  -0.312 -0.5905 -1.0305  1.1398
  283MOL0     H37313  -0.036   1.557  -0.283 -1.1661 -0.3973 -2.0007
  283MOL0     H37314   0.099   1.778  -0.418  5.0639 -1.0476 -1.8414
  283MOL0     H37315   0.171   1.631  -0.346 -1.4413 -0.6300  2.1598
  283MOL0     H37316   0.144   1.629  -0.595  0.4316  1.7801  1.2067
  283MOL0     H37317  -0.027   1.650  -0.573 -0.5733  0.2327  2.3051
  283MOL0     H37318  -0.135   1.320  -0.455 -0.6732  5.1150 -0.5018
  283MOL0     H37319  -0.285   1.180  -0.629  1.0461 -2.6703 -1.7357
  283MOL0     H37320  -0.389   1.076  -1.120  0.1880  1.2376  0.7820
  283MOL0     H37321  -0.553   0.954  -1.231 -1.4482 -1.9092  0.6882
  283MOL0     H37322  -1.014   0.917  -1.188 -1.6437 -4.1695  0.8769
  283MOL0     H37323  -0.958   1.022  -1.059  1.7353 -2.0160  1.8686
  283MOL0     H37324  -0.942   0.803  -0.914 -0.7118 -1.5973  0.1541
  283MOL0     H37325  -0.979   0.707  -1.054  0.0003  0.2904 -0.9999
  283MOL0     H37326  -1.156   0.738  -0.902  0.2761  0.5787  0.1225
  283MOL0     H37327  -1.223   0.793  -1.048 -1.8501  0.1608  1.6169
  283MOL0     H37328  -1.139   0.949  -0.809 -1.0117 -0.9116  0.2707
  283MOL0     H37329  -1.168   1.024  -0.977 -0.6543 -2.3579 -3.6654
  283MOL0     H37330  -1.353   0.862  -0.806  3.2008 -0.4535  0.4395
  283MOL0     H37331  -1.400   0.928  -0.970 -0.3277  0.9033 -0.5118
  283MOL0     H37332  -1.404   1.134  -0.898 -0.4428 -1.0881 -1.4609
  283MOL0     H37333  -1.315   1.100  -0.735  2.7507 -3.1463  0.1101
  283MOL0     H37334  -1.568   1.144  -0.736 -2.3527 -1.7214  3.4622
  283MOL0     H37335  -1.585   0.984  -0.810 -2.0908 -0.7737  2.7656
  283MOL0     H37336  -1.624   0.966  -0.567 -0.1103 -1.0835 -0.0159
  283MOL0     H37337  -1.465   1.007  -0.522 -0.7641  0.6542  1.3643
  283MOL0     H37338  -0.810   1.016  -0.897 -0.2442  3.8159 -0.0227
  283MOL0     H37339  -0.614   1.112  -0.779 -1.0822  0.3321  0.4058
  283MOL0     H37340  -0.036   1.352  -0.938 -0.2357 -1.8471 -1.0724
  283MOL0     H37341   0.097   1.460  -0.791  2.2308 -0.8523  1.1475
  283MOL0     H37342   0.116   1.234   0.442 -0.5798  0.5108 -1.3028
  283MOL0     H37343   0.133   1.038   0.304  1.5246 -2.1913 -1.0104
  283MOL0     H37344   0.108   0.557   0.303 -2.4237  0.4607  0.1368
  283MOL0     H37345   0.154   0.348   0.168  0.1632 -0.1343  1.1713
  283MOL0     H37346   0.205   0.207   0.013 -0.3918  3.4385 -0.0300
  283MOL0     H37347   0.170   0.153  -0.146  0.4374 -0.8276  0.6612
  283MOL0     H37348   0.025   0.022  -0.008  1.5112  1.8587 -0.0936
  283MOL0     H37349  -0.022   0.161   0.084 -0.2114  2.7823  0.4553
  283MOL0     H37350  -0.133   0.262  -0.078  1.8294 -0.3766  2.0201
  283MOL0     H37351  -0.203   0.109  -0.022 -1.0206  0.6234 -0.2874
  283MOL0     H37352  -0.224   0.144  -0.270 -0.6801  0.4329  0.9516
  283MOL0     H37353  -0.052   0.153  -0.297 -0.5155  0.0116 -0.2505
  283MOL0     H37354  -0.113  -0.270  -0.225 -0.5931 -0.6349 -0.1324
  283MOL0     H37355  -0.008   0.541  -0.172 -0.6975  1.1826  0.6068
  283MOL0     H37356  -0.009   0.766  -0.050 -1.2801 -0.6944 -0.5554
  284MOL0     O37357   9.364  10.566   9.269  0.0033 -0.3302  0.8831
  284MOL0     C37358   9.288  10.615   9.350 -0.1511 -0.8217  0.0140
  284MOL0     O37359   9.223  10.551   9.446 -0.3565 -0.1978 -1.2405
  284MOL0     C37360   9.239  10.421   9.454 -0.2782  0.9644  0.3173
  284MOL0     C37361   9.258  10.371   9.575 -0.6087  0.0357 -0.5146
  284MOL0     C37362   9.238  10.239   9.601 -0.2839  0.8506  0.4008
  284MOL0     C37363   9.229  10.138   9.498 -0.5554 -0.2108  0.8364
  284MOL0     O37364   9.247  10.002   9.509 -1.0546 -0.2856 -0.4269
  284MOL0     C37365   9.224   9.930   9.633  0.4387 -1.2364 -0.2446
  284MOL0     C37366   9.081   9.910   9.652  0.5654 -0.2171  0.5420
  284MOL0     C37367   9.001  10.015   9.729  0.6070 -0.2923 -0.6040
  284MOL0     C37368   9.057  10.029   9.879 -0.2108  0.7193  0.3576
  284MOL0     C37369   8.976  10.124   9.960  0.4975 -0.2886 -0.3694
  284MOL0     C37370   9.003  10.124  10.108 -0.7266  0.1116 -0.2093
  284MOL0     C37371   9.119  10.210  10.155 -0.3746  0.4961  0.0035
  284MOL0     C37372   9.091  10.356  10.165 -0.2966 -0.3821  0.3954
  284MOL0     N37373   9.082  10.434  10.038 -0.8946 -0.5980  0.0641
  284MOL0     C37374   8.973  10.488   9.977  0.0329 -0.9624  0.3100
  284MOL0     C37375   9.022  10.537   9.858 -0.4681  0.1422 -0.5046
  284MOL0     C37376   8.947  10.618   9.762 -0.0996  0.1945  0.4833
  284MOL0     C37377   8.874  10.528   9.656  0.3702 -0.7184 -0.8439
  284MOL0     C37378   8.792  10.412   9.724 -0.4145  0.3765 -0.2663
  284MOL0     C37379   8.739  10.308   9.629 -0.2984  0.4774  1.0431
  284MOL0     O37380   8.660  10.383   9.535  0.2757  0.4373 -0.0561
  284MOL0     C37381   8.531  10.416   9.569 -0.5205 -0.3576 -0.0083
  284MOL0     C37382   8.474  10.504   9.476  0.1326  0.0078 -0.3164
  284MOL0     C37383   8.332  10.526   9.482 -0.4273 -0.5716  0.2616
  284MOL0     C37384   8.261  10.473   9.588 -0.8550  0.4219  0.7996
  284MOL0     C37385   8.119  10.490   9.584 -0.4676 -0.5888 -0.1473
  284MOL0     O37386   8.056  10.447   9.691  0.2519 -0.1757 -0.3532
  284MOL0     C37387   7.922  10.472   9.709 -0.2340 -0.8997  0.6071
  284MOL0     C37388   7.883  10.566   9.793 -0.1836 -0.2851  0.2614
  284MOL0     C37389   7.747  10.574   9.828 -0.4025 -0.7511 -0.1420
  284MOL0     C37390   7.646  10.500   9.776 -0.3549 -0.2950 -0.0316
  284MOL0     O37391   7.513  10.503   9.804  0.0726  0.1403 -0.7310
  284MOL0     C37392   7.473  10.557   9.935  0.0216 -0.8486  0.0613
  284MOL0     C37393   7.328  10.542   9.963 -0.5458 -0.7560 -0.0615
  284MOL0     C37394   7.247  10.605   9.852  0.6564  0.5203  0.1729
  284MOL0     C37395   7.108  10.638   9.911 -0.6282  0.4056 -0.4684
  284MOL0     C37396   7.025  10.509   9.913  0.0808 -0.2245 -0.5226
  284MOL0     C37397   6.954  10.467   9.782  0.3845  0.1670  0.7940
  284MOL0     C37398   6.881  10.330   9.808 -0.2692 -0.6715  0.1570
  284MOL0     C37399   6.741  10.356   9.882 -0.4174  0.1993  0.4095
  284MOL0    Cl37400   6.651  10.215   9.896 -0.1358  0.2568 -0.2316
  284MOL0     C37401   7.692  10.417   9.671 -0.2561 -0.4137 -0.8986
  284MOL0     C37402   7.827  10.397   9.642  0.2287 -0.4025 -0.2294
  284MOL0     O37403   8.061  10.536   9.485  0.1971 -0.5833 -0.3053
  284MOL0     C37404   8.329  10.394   9.682  0.1621 -0.0106 -0.0275
  284MOL0     C37405   8.459  10.362   9.676  0.5439 -0.7999  0.7360
  284MOL0     N37406   9.158  10.519   9.854 -0.3033  0.0781  0.2941
  284MOL0     N37407   9.189  10.454   9.961  0.3364  0.0395 -0.4161
  284MOL0     C37408   9.215  10.194   9.367 -0.2114  0.4383 -0.6778
  284MOL0     C37409   9.215  10.330   9.345  0.3685 -0.8259 -0.0388
  284MOL0     C37410   9.279  10.767   9.343  0.1007 -0.6029  0.7899
  284MOL0     C37411   9.177  10.843   9.401  0.2128 -0.2780 -0.6504
  284MOL0     C37412   9.175  10.983   9.394 -1.5416 -0.5562 -0.5221
  284MOL0     C37413   9.275  11.052   9.317  0.6607  0.6863  0.6575
  284MOL0     O37414   9.269  11.194   9.305  0.7183  0.3633  1.1478
  284MOL0     C37415   9.334  11.251   9.189  0.3746 -0.5154  0.2344
  284MOL0     C37416   9.259  11.234   9.054  0.2546  0.0984  0.3406
  284MOL0     C37417   9.100  11.232   9.050 -0.1306 -0.2058  0.1095
  284MOL0     C37418   9.053  11.373   9.097  0.8318 -0.5197  0.2659
  284MOL0     C37419   8.911  11.367   9.131 -0.5310  0.5969 -0.8947
  284MOL0     C37420   8.791  11.386   9.156 -0.0382 -0.2864 -0.2793
  284MOL0     C37421   9.368  10.975   9.251 -0.5660  0.7539  0.4189
  284MOL0     C37422   9.373  10.836   9.255  0.5581  0.4307  0.3635
  284MOL0     H37423   9.285  10.438   9.656  0.9550  1.0503 -1.8104
  284MOL0     H37424   9.246  10.210   9.705 -1.1407  0.0609  0.2621
  284MOL0     H37425   9.268   9.984   9.718 -2.8749  4.7016 -1.7282
  284MOL0     H37426   9.256   9.828   9.611  0.9965 -0.7371 -1.8972
  284MOL0     H37427   9.062   9.810   9.693 -1.2261 -1.0055 -1.9561
  284MOL0     H37428   9.036   9.892   9.554  3.2335  1.2148 -1.0567
  284MOL0     H37429   8.897   9.983   9.730  1.2260 -2.7439 -2.7030
  284MOL0     H37430   9.024  10.115   9.692  0.6617 -0.0066  0.1955
  284MOL0     H37431   9.042   9.928   9.919  0.2723  0.3304 -0.4168
  284MOL0     H37432   9.166  10.041   9.888  0.0338  0.6190 -1.8595
  284MOL0     H37433   8.869  10.108   9.943 -0.2521  3.7203 -0.6189
  284MOL0     H37434   8.987  10.228   9.928  1.7089  0.4693  2.1506
  284MOL0     H37435   9.024  10.020  10.137  1.8164  1.0476  1.5800
  284MOL0     H37436   8.917  10.168  10.160  0.2927 -0.4996  2.1241
  284MOL0     H37437   9.148  10.178  10.256 -1.4482  1.5341  0.6627
  284MOL0     H37438   9.211  10.192  10.098 -0.9395  0.8566 -1.0534
  284MOL0     H37439   9.174  10.402  10.220 -0.7717  3.3758 -1.6614
  284MOL0     H37440   9.010  10.386  10.232  1.4866  1.5227  1.8555
  284MOL0     H37441   8.867  10.491  10.001 -0.5449  1.9788 -1.9983
  284MOL0     H37442   9.020  10.681   9.710 -0.3134  1.3710  1.5676
  284MOL0     H37443   8.882  10.685   9.818  0.8167  1.0381  0.5617
  284MOL0     H37444   8.944  10.470   9.596 -2.3425 -2.1566 -2.8485
  284MOL0     H37445   8.813  10.591   9.591 -2.1030 -1.5862  0.4970
  284MOL0     H37446   8.849  10.347   9.791 -2.0357 -0.0231  0.7744
  284MOL0     H37447   8.718  10.457   9.790 -0.3521  2.9176 -1.7901
  284MOL0     H37448   8.674  10.239   9.683 -2.2896  2.7756  1.7644
  284MOL0     H37449   8.811  10.257   9.564 -3.5821 -0.1770 -2.4904
  284MOL0     H37450   8.540  10.538   9.397  0.4181 -1.7322 -0.8835
  284MOL0     H37451   8.279  10.572   9.399  0.5007 -0.6529 -0.3928
  284MOL0     H37452   7.954  10.633   9.839  0.4441 -0.1940 -0.7884
  284MOL0     H37453   7.713  10.636   9.910 -0.6847  1.0111 -1.5291
  284MOL0     H37454   7.491  10.664   9.925 -1.3907 -0.6936 -1.0872
  284MOL0     H37455   7.534  10.509  10.012  3.5718  0.6260 -1.5640
  284MOL0     H37456   7.306  10.577  10.064 -0.5112  0.5814 -0.5016
  284MOL0     H37457   7.323  10.433   9.966  0.5556 -0.8678 -1.5118
  284MOL0     H37458   7.228  10.535   9.770  0.7036  0.8036 -0.0837
  284MOL0     H37459   7.299  10.698   9.827  3.3150  0.2674  3.8776
  284MOL0     H37460   7.125  10.676  10.012 -1.8987 -0.4577  0.1045
  284MOL0     H37461   7.057  10.712   9.849 -3.3898  0.1384  1.3196
  284MOL0     H37462   6.946  10.519   9.988 -0.1787 -1.6803 -0.5725
  284MOL0     H37463   7.094  10.426   9.930 -2.5044 -2.6329 -0.9776
  284MOL0     H37464   7.026  10.467   9.700 -0.6956 -2.9587 -0.2867
  284MOL0     H37465   6.882  10.547   9.765  2.9288  3.7586  4.9161
  284MOL0     H37466   6.858  10.281   9.713  1.2001 -1.3922  0.1466
  284MOL0     H37467   6.936  10.249   9.856 -1.3189 -3.3313 -2.7736
  284MOL0     H37468   6.679  10.415   9.815 -1.1075 -0.6709  0.2574
  284MOL0     H37469   6.757  10.400   9.981  0.0339 -1.0804  0.9248
  284MOL0     H37470   7.616  10.350   9.631 -2.1888  0.5161  1.0000
  284MOL0     H37471   7.865  10.314   9.585 -1.2838 -2.8860  2.1175
  284MOL0     H37472   8.278  10.341   9.762  0.3582  0.1191  0.1837
  284MOL0     H37473   8.502  10.311   9.762 -0.9968  0.3598  2.2654
  284MOL0     H37474   9.208  10.133   9.278 -0.7466  3.3412 -2.8002
  284MOL0     H37475   9.211  10.370   9.244 -0.8423  1.7559  0.9401
  284MOL0     H37476   9.110  10.787   9.466 -1.8657  4.3231  1.6185
  284MOL0     H37477   9.104  11.052   9.438 -1.6594 -1.1780  0.2823
  284MOL0     H37478   9.442  11.232   9.186  0.4871 -0.1750  1.5211
  284MOL0     H37479   9.328  11.357   9.211  2.7040  0.1269 -1.6953
  284MOL0     H37480   9.304  11.298   8.977 -2.1746 -2.0010 -3.1338
  284MOL0     H37481   9.275  11.135   9.011 -1.3096 -0.0085 -0.0418
  284MOL0     H37482   9.064  11.153   9.115 -1.7624  1.6705  1.6283
  284MOL0     H37483   9.065  11.209   8.948  0.4455 -5.7614  0.8719
  284MOL0     H37484   9.096  11.419   9.186 -0.1409  0.7866  0.0866
  284MOL0     H37485   9.062  11.436   9.008  1.3110 -0.4681  0.3513
  284MOL0     H37486   8.684  11.392   9.158  0.0462  1.6706  0.4292
  284MOL0     H37487   9.450  11.011   9.190 -0.0026  0.6589  1.1067
  284MOL0     H37488   9.429  10.779   9.182 -0.7182  1.2902 -1.3586
  285MOL0     O37489   6.925   3.276  11.393 -0.4106 -0.8299 -0.1270
  285MOL0     C37490   6.937   3.160  11.348 -0.3269  0.7663  0.3662
  285MOL0     O37491   6.845   3.067  11.351 -0.1813 -0.4511 -0.0696
  285MOL0     C37492   6.716   3.109  11.386 -0.2756 -0.0330 -0.5262
  285MOL0     C37493   6.704   3.131  11.525  0.0566  0.0929 -0.4127
  285MOL0     C37494   6.582   3.190  11.569  0.6042  0.4514  0.6479
  285MOL0     C37495   6.480   3.228  11.481  0.0294  0.1014  0.5134
  285MOL0     O37496   6.368   3.276  11.537 -0.5886  0.2770  0.3124
  285MOL0     C37497   6.244   3.232  11.474 -0.0270 -0.4129 -0.1334
  285MOL0     C37498   6.127   3.255  11.575  0.2060 -0.4937  0.2181
  285MOL0     C37499   5.991   3.195  11.538  0.2529 -0.3835 -0.1746
  285MOL0     C37500   5.888   3.292  11.578  0.0807 -0.1735  0.0099
  285MOL0     C37501   5.746   3.256  11.571  0.4895 -0.0249 -0.5808
  285MOL0     C37502   5.711   3.128  11.645 -1.1247  0.3400  0.4345
  285MOL0     C37503   5.560   3.096  11.646  0.4796  0.2394 -0.0378
  285MOL0     C37504   5.533   2.972  11.734 -0.1754 -0.3348  0.0321
  285MOL0     N37505   5.390   2.937  11.755  0.1949  0.3431  0.7207
  285MOL0     C37506   5.309   3.005  11.843 -0.0998 -0.1602  0.6646
  285MOL0     C37507   5.185   2.945  11.821 -0.3436 -0.2473  0.7759
  285MOL0     C37508   5.058   2.995  11.884  0.0467 -0.1444 -0.3540
  285MOL0     C37509   4.987   2.875  11.943 -0.2015 -0.8290  0.4523
  285MOL0     C37510   4.862   2.904  12.020  0.1944 -0.3458 -0.4598
  285MOL0     C37511   4.809   2.802  12.120 -0.1493 -0.8564  0.2027
  285MOL0     O37512   4.720   2.705  12.054 -0.9159 -0.3642 -0.2204
  285MOL0     C37513   4.623   2.650  12.132  0.1221 -0.2915  0.2836
  285MOL0     C37514   4.666   2.553  12.221 -0.2075 -0.0475  0.3782
  285MOL0     C37515   4.566   2.468  12.287 -0.1179 -0.8428  0.0586
  285MOL0     C37516   4.431   2.502  12.285  0.3292 -0.1182  1.2840
  285MOL0     C37517   4.334   2.423  12.373 -0.3302  0.2159 -0.5102
  285MOL0     O37518   4.372   2.306  12.438 -0.4278  0.4328  0.3453
  285MOL0     C37519   4.290   2.255  12.534 -0.9955  0.0417  0.5633
  285MOL0     C37520   4.235   2.346  12.623  0.1940 -0.0553 -0.6618
  285MOL0     C37521   4.156   2.315  12.724  0.4261 -0.8096  0.5014
  285MOL0     C37522   4.131   2.180  12.750  0.6842  0.6126 -1.0174
  285MOL0     O37523   4.083   2.147  12.877  0.2585  0.1937 -0.2878
  285MOL0     C37524   4.041   2.013  12.902  1.0038 -1.2350  0.3542
  285MOL0     C37525   3.950   2.014  13.026 -0.2537  0.3414 -0.2638
  285MOL0     C37526   3.813   1.948  13.000 -0.0437 -0.2090  0.2452
  285MOL0     C37527   3.719   1.985  13.116  0.2523 -0.5616  0.0533
  285MOL0     C37528   3.571   1.942  13.097  0.0862  0.6417 -0.4171
  285MOL0     C37529   3.472   2.047  13.044 -0.3750 -0.6401 -0.4363
  285MOL0     C37530   3.533   2.108  12.908  0.2188 -0.0790 -0.4475
  285MOL0     C37531   3.452   2.200  12.824 -0.0532 -0.6761  0.1101
  285MOL0    Cl37532   3.277   2.142  12.820  0.0206 -0.0871  0.1465
  285MOL0     C37533   4.190   2.080  12.668  0.3639  0.6168  0.4124
  285MOL0     C37534   4.261   2.119  12.553  1.2007  0.0257  0.2897
  285MOL0     O37535   4.221   2.474  12.372  0.4906  0.8802  0.6324
  285MOL0     C37536   4.388   2.610  12.197  0.2369  0.5902  0.2822
  285MOL0     C37537   4.482   2.672  12.120 -0.4879 -0.2539 -0.4967
  285MOL0     N37538   5.210   2.830  11.749  0.4275 -0.5304  0.6398
  285MOL0     N37539   5.332   2.820  11.716  0.4288  0.8346  0.7108
  285MOL0     C37540   6.497   3.215  11.344  0.4754 -0.8888 -0.7507
  285MOL0     C37541   6.614   3.152  11.302 -0.2327  0.2638 -0.1759
  285MOL0     C37542   7.050   3.142  11.260  0.4270 -0.0895  0.7792
  285MOL0     C37543   7.165   3.228  11.282 -0.3070  0.4014 -0.0654
  285MOL0     C37544   7.271   3.215  11.187  0.0437 -0.6685  0.4013
  285MOL0     C37545   7.260   3.125  11.081 -0.1393  0.6712  0.4815
  285MOL0     O37546   7.368   3.100  10.998  0.3471  0.0826  1.2200
  285MOL0     C37547   7.446   2.979  11.044 -0.5306 -0.2106  0.3471
  285MOL0     C37548   7.483   2.902  10.919 -0.0927  0.7519 -0.2877
  285MOL0     C37549   7.579   2.971  10.823 -0.3528 -1.6702  0.6118
  285MOL0     C37550   7.710   3.033  10.881  0.4289 -0.3853  0.4990
  285MOL0     C37551   7.808   3.074  10.782 -0.5172  0.5196 -0.2085
  285MOL0     C37552   7.893   3.115  10.704  0.7074  0.6537 -0.4557
  285MOL0     C37553   7.152   3.047  11.056  0.7144  0.4145 -0.3101
  285MOL0     C37554   7.051   3.052  11.146  0.9341  0.2714  0.0360
  285MOL0     H37555   6.780   3.095  11.594  1.6714  0.9755 -1.6602
  285MOL0     H37556   6.563   3.201  11.675 -1.4585 -0.1943  0.3878
  285MOL0     H37557   6.253   3.123  11.463  4.4645 -0.4537  1.9514
  285MOL0     H37558   6.228   3.281  11.378  2.2334 -0.8027 -0.7761
  285MOL0     H37559   6.110   3.363  11.585 -1.1200 -0.4736 -1.6397
  285MOL0     H37560   6.171   3.224  11.670  1.9417  0.9465 -0.0639
  285MOL0     H37561   5.977   3.091  11.570 -1.0912 -0.5602 -1.2213
  285MOL0     H37562   5.992   3.194  11.429  0.0438  1.3589 -0.2136
  285MOL0     H37563   5.900   3.333  11.679 -1.6730 -1.1534  0.6490
  285MOL0     H37564   5.889   3.380  11.512 -4.2526  1.2508  1.5250
  285MOL0     H37565   5.730   3.252  11.463  0.3067 -3.2341 -0.5347
  285MOL0     H37566   5.687   3.339  11.611  3.3335  0.7920  2.2578
  285MOL0     H37567   5.740   3.143  11.749 -1.8370 -0.9210  0.8313
  285MOL0     H37568   5.767   3.043  11.606 -1.2359 -0.3664  1.7632
  285MOL0     H37569   5.507   3.186  11.681  1.2057  0.4660  0.5103
  285MOL0     H37570   5.524   3.063  11.548  4.1979 -0.7319 -1.2312
  285MOL0     H37571   5.570   3.005  11.832  1.1378  1.1064 -0.9111
  285MOL0     H37572   5.590   2.885  11.701  1.5941 -0.4257  2.9626
  285MOL0     H37573   5.324   3.097  11.898  0.0352  0.0940  0.2073
  285MOL0     H37574   4.998   3.032  11.800 -1.3750  0.5995  0.9412
  285MOL0     H37575   5.058   3.084  11.948 -1.6512 -1.6489  1.9062
  285MOL0     H37576   5.055   2.833  12.018 -0.2693 -2.8986 -0.5800
  285MOL0     H37577   4.971   2.796  11.869 -1.9359  0.3963 -0.5299
  285MOL0     H37578   4.885   2.990  12.084  1.8468 -1.5698  0.6577
  285MOL0     H37579   4.777   2.938  11.959  1.9245  0.1465 -2.7048
  285MOL0     H37580   4.750   2.856  12.194 -0.8839 -1.3795  0.0063
  285MOL0     H37581   4.891   2.748  12.167  1.0488  2.5407  2.3627
  285MOL0     H37582   4.771   2.525  12.219  0.1636  1.2078  1.1223
  285MOL0     H37583   4.593   2.388  12.356 -1.7351 -0.6945  0.9052
  285MOL0     H37584   4.244   2.453  12.608 -4.2619  0.7787  1.2862
  285MOL0     H37585   4.110   2.382  12.795 -0.0863 -0.4289 -0.1802
  285MOL0     H37586   4.126   1.947  12.921  1.3345 -0.3382  2.2399
  285MOL0     H37587   4.002   1.973  12.808  2.4064  1.6745 -1.6351
  285MOL0     H37588   3.922   2.117  13.048 -0.3996  0.0880  0.7969
  285MOL0     H37589   4.005   1.973  13.111  0.6026  2.3383  0.1893
  285MOL0     H37590   3.832   1.841  13.000  1.0573 -0.0582 -1.8827
  285MOL0     H37591   3.771   1.972  12.902 -0.2603 -0.7867  0.1926
  285MOL0     H37592   3.758   1.933  13.204  0.8648 -2.0059 -1.0232
  285MOL0     H37593   3.714   2.091  13.141 -3.1722 -0.8817  1.2376
  285MOL0     H37594   3.542   1.910  13.197  2.8817  0.0172  0.2927
  285MOL0     H37595   3.574   1.855  13.031  1.9843  1.0878 -0.9983
  285MOL0     H37596   3.472   2.128  13.118 -0.5461 -0.0940 -1.0229
  285MOL0     H37597   3.373   2.006  13.027 -1.4278  2.0487 -1.3868
  285MOL0     H37598   3.626   2.154  12.941 -0.9988  0.9618  1.7679
  285MOL0     H37599   3.552   2.023  12.842  0.9783  1.5829 -2.4578
  285MOL0     H37600   3.495   2.199  12.723 -0.2747 -0.1214  0.0040
  285MOL0     H37601   3.463   2.297  12.872  1.2533 -0.8395  0.1859
  285MOL0     H37602   4.198   1.975  12.692  0.7077  1.4257  4.5111
  285MOL0     H37603   4.281   2.045  12.476  1.7942 -2.2196  2.4663
  285MOL0     H37604   4.282   2.633  12.193 -0.1872 -1.3731 -1.5914
  285MOL0     H37605   4.441   2.752  12.059 -4.0657  0.0189  1.9409
  285MOL0     H37606   6.429   3.249  11.267  2.1358 -1.7290 -2.6943
  285MOL0     H37607   6.629   3.151  11.194  1.2757 -1.4572  0.0059
  285MOL0     H37608   7.169   3.313  11.349  0.2439  1.6564 -1.6431
  285MOL0     H37609   7.357   3.277  11.209 -0.6493  0.3952  0.2239
  285MOL0     H37610   7.388   2.919  11.115 -0.0932 -1.0432  0.0176
  285MOL0     H37611   7.538   2.998  11.099 -1.7152  0.1361  2.3268
  285MOL0     H37612   7.522   2.806  10.953 -0.7366  0.7754  0.5440
  285MOL0     H37613   7.388   2.889  10.867 -0.5234  2.1278  0.1307
  285MOL0     H37614   7.529   3.048  10.764  3.9693  0.9125 -0.0960
  285MOL0     H37615   7.593   2.896  10.745  1.8238  0.8040 -1.5955
  285MOL0     H37616   7.672   3.121  10.932 -2.6213 -2.2429  1.7365
  285MOL0     H37617   7.762   2.966  10.950  3.1702  1.6259  0.5078
  285MOL0     H37618   7.962   3.157  10.634  0.8945 -1.4535 -1.6197
  285MOL0     H37619   7.130   2.997  10.962  2.9464  1.5396 -1.5199
  285MOL0     H37620   6.968   2.983  11.134  1.5960 -0.9036  1.8241
  286MOL0     O37621   5.402   8.871   0.375  0.9361 -0.2005 -0.2320
  286MOL0     C37622   5.348   8.811   0.285 -0.8582  0.4200 -0.3000
  286MOL0     O37623   5.221   8.830   0.252  0.1422  0.7616  1.7744
  286MOL0     C37624   5.137   8.935   0.294 -0.4064  0.3465 -0.3249
  286MOL0     C37625   5.006   8.925   0.246 -0.2317 -0.3361  0.6872
  286MOL0     C37626   4.918   9.030   0.284 -0.4512 -0.0810  0.2682
  286MOL0     C37627   4.950   9.122   0.381  0.4175  0.5990 -0.0970
  286MOL0     O37628   4.850   9.203   0.420  0.9963  0.0744 -0.3297
  286MOL0     C37629   4.890   9.331   0.475  0.4829 -0.8180  0.5839
  286MOL0     C37630   4.757   9.408   0.498 -0.6707 -0.1444  0.0815
  286MOL0     C37631   4.651   9.341   0.580  0.2664  0.2681 -0.3885
  286MOL0     C37632   4.526   9.427   0.595 -1.2811  0.2969 -0.4134
  286MOL0     C37633   4.490   9.432   0.740 -0.9815 -0.0280 -0.8545
  286MOL0     C37634   4.467   9.294   0.804  0.2953 -0.0873 -0.9306
  286MOL0     C37635   4.416   9.274   0.945 -0.4978  0.3195  0.1123
  286MOL0     C37636   4.286   9.348   0.972 -0.0415  0.3962 -0.3944
  286MOL0     N37637   4.186   9.258   1.030 -1.0001 -1.0257  0.4698
  286MOL0     C37638   4.138   9.146   0.968 -0.9479 -0.3904  0.3638
  286MOL0     C37639   4.078   9.064   1.057 -0.0024 -0.9401 -0.4591
  286MOL0     C37640   4.024   8.932   1.033 -0.2746  0.8938  0.0179
  286MOL0     C37641   4.121   8.815   1.002  0.2140  0.5528 -0.5377
  286MOL0     C37642   4.068   8.672   1.039  0.1137 -0.3227 -0.3465
  286MOL0     C37643   4.164   8.566   1.030 -0.0145 -0.1648 -0.3554
  286MOL0     O37644   4.235   8.566   0.907  0.5086 -0.5885 -0.3400
  286MOL0     C37645   4.323   8.467   0.890  0.3819 -0.0941 -0.0884
  286MOL0     C37646   4.339   8.357   0.968 -0.4685  1.1829 -0.3261
  286MOL0     C37647   4.420   8.251   0.921 -0.0960 -0.2024 -0.0979
  286MOL0     C37648   4.485   8.265   0.800  0.0081 -0.6974  0.2770
  286MOL0     C37649   4.586   8.162   0.757 -0.7313 -0.9420 -0.2572
  286MOL0     O37650   4.629   8.160   0.627 -1.0533  0.1801 -0.4051
  286MOL0     C37651   4.740   8.078   0.596  0.6778 -0.3890 -0.5233
  286MOL0     C37652   4.725   7.943   0.557 -1.5506  0.5187  0.6345
  286MOL0     C37653   4.835   7.865   0.524 -0.4248 -0.2053 -0.0336
  286MOL0     C37654   4.967   7.917   0.508 -0.1879 -0.0326 -1.2600
  286MOL0     O37655   5.072   7.843   0.458  0.1430 -0.0038  0.3033
  286MOL0     C37656   5.138   7.738   0.527 -0.5876  1.2887 -0.1311
  286MOL0     C37657   5.245   7.711   0.417 -0.7859  0.7809 -0.1624
  286MOL0     C37658   5.342   7.590   0.431 -0.6422 -0.4638 -0.3251
  286MOL0     C37659   5.459   7.604   0.326  0.2771  0.3742 -0.1458
  286MOL0     C37660   5.589   7.520   0.358 -0.3468 -0.2108  0.3648
  286MOL0     C37661   5.551   7.373   0.354 -0.0171 -0.2098  0.3558
  286MOL0     C37662   5.677   7.288   0.395 -0.5978 -0.0637  0.6623
  286MOL0     C37663   5.698   7.160   0.313  0.2790 -0.2921 -1.1588
  286MOL0    Cl37664   5.563   7.050   0.343 -0.0012  0.4445 -0.3401
  286MOL0     C37665   4.982   8.053   0.537  0.4142  0.4099  0.2308
  286MOL0     C37666   4.875   8.129   0.594  0.2086  1.0405 -0.2112
  286MOL0     O37667   4.619   8.078   0.841  0.1564 -0.5431  0.0574
  286MOL0     C37668   4.455   8.375   0.720 -0.4773 -0.8014  0.6474
  286MOL0     C37669   4.387   8.482   0.771  0.0463  0.1255  0.1435
  286MOL0     N37670   4.069   9.148   1.173 -0.5695 -0.0847 -0.4089
  286MOL0     N37671   4.138   9.262   1.154  0.3980 -0.1057 -0.6416
  286MOL0     C37672   5.080   9.133   0.428 -0.2936 -0.0137 -0.5175
  286MOL0     C37673   5.167   9.046   0.376  0.1427 -0.1478 -0.4820
  286MOL0     C37674   5.431   8.703   0.224  0.1700 -0.4776 -1.2914
  286MOL0     C37675   5.550   8.658   0.297 -0.0841  0.1267 -0.6611
  286MOL0     C37676   5.647   8.582   0.235  0.0675 -0.2913 -0.4421
  286MOL0     C37677   5.616   8.521   0.105 -1.1252  0.6069 -0.1876
  286MOL0     O37678   5.714   8.442   0.051 -0.1450  0.5409 -0.2436
  286MOL0     C37679   5.836   8.398   0.100  0.0773  0.1259 -0.3369
  286MOL0     C37680   5.853   8.268   0.019 -0.0809 -0.6721  0.5856
  286MOL0     C37681   5.971   8.191   0.085  0.4741  0.2613 -0.0547
  286MOL0     C37682   6.112   8.222   0.027 -1.4544  0.0409  0.2669
  286MOL0     C37683   6.158   8.141  -0.089  0.6363  0.2141 -0.0986
  286MOL0     C37684   6.184   8.062  -0.179  0.4168 -0.1862 -0.1183
  286MOL0     C37685   5.493   8.552   0.040  0.7536  0.6216 -0.3677
  286MOL0     C37686   5.402   8.643   0.100 -0.5790  0.3014  0.4432
  286MOL0     H37687   4.981   8.857   0.166 -1.3409  0.3204  0.4649
  286MOL0     H37688   4.819   9.034   0.239  0.5406  0.0115 -2.0227
  286MOL0     H37689   4.967   9.380   0.414  1.4940 -1.1880  1.5318
  286MOL0     H37690   4.929   9.303   0.573 -1.0540 -1.0199  1.1680
  286MOL0     H37691   4.706   9.424   0.403 -1.8500 -1.4854  0.4400
  286MOL0     H37692   4.780   9.508   0.536  0.2085  0.6043 -2.2802
  286MOL0     H37693   4.696   9.330   0.679 -0.9728  1.4274  0.3372
  286MOL0     H37694   4.620   9.250   0.528  1.1348  0.7816 -1.8899
  286MOL0     H37695   4.552   9.528   0.565 -1.8121  0.5752  0.0423
  286MOL0     H37696   4.443   9.389   0.535 -2.4443  1.5884  0.3208
  286MOL0     H37697   4.402   9.494   0.761  1.0112  3.0843 -1.2105
  286MOL0     H37698   4.566   9.493   0.789 -3.2927  0.9954  1.7914
  286MOL0     H37699   4.556   9.231   0.798 -0.0187 -1.1720  3.1866
  286MOL0     H37700   4.388   9.247   0.744 -1.8337  2.7125 -0.5442
  286MOL0     H37701   4.398   9.169   0.971 -6.0202  0.9535 -0.0615
  286MOL0     H37702   4.488   9.325   1.009  0.9663  1.6034 -2.4161
  286MOL0     H37703   4.238   9.384   0.881 -0.1643  0.1900 -0.4135
  286MOL0     H37704   4.309   9.432   1.038 -0.4074  1.9335 -2.1518
  286MOL0     H37705   4.149   9.122   0.862 -2.7895  1.1792 -0.2211
  286MOL0     H37706   3.938   8.931   0.966 -2.0822 -0.2953  2.2252
  286MOL0     H37707   3.988   8.911   1.134  4.0443 -2.4259  1.2029
  286MOL0     H37708   4.210   8.829   1.064  1.1195  1.3799 -1.9503
  286MOL0     H37709   4.140   8.811   0.894  2.2291  1.2312 -0.2576
  286MOL0     H37710   4.029   8.672   1.142  0.2352 -0.2221 -0.2998
  286MOL0     H37711   3.972   8.643   0.994 -0.7184  0.3999  0.8851
  286MOL0     H37712   4.109   8.473   1.048 -0.8380  0.4462  0.3905
  286MOL0     H37713   4.237   8.577   1.110  1.5590 -0.5790 -1.6857
  286MOL0     H37714   4.294   8.362   1.066  1.0187 -3.1015  0.7847
  286MOL0     H37715   4.455   8.168   0.982  1.3067  0.7754  0.4736
  286MOL0     H37716   4.634   7.886   0.571 -0.0169 -2.6470 -1.2270
  286MOL0     H37717   4.814   7.761   0.502  0.0892 -0.9681  2.6731
  286MOL0     H37718   5.078   7.647   0.538  0.3682  1.0090  5.1548
  286MOL0     H37719   5.189   7.754   0.622 -2.1540  1.7920  0.6502
  286MOL0     H37720   5.304   7.802   0.404 -1.9336  1.5746 -0.0123
  286MOL0     H37721   5.196   7.713   0.320 -0.3281 -0.6166 -0.4405
  286MOL0     H37722   5.295   7.499   0.392  3.3701 -2.2891 -1.3980
  286MOL0     H37723   5.377   7.568   0.532 -1.9207 -3.7837 -0.4895
  286MOL0     H37724   5.425   7.590   0.223  2.8991 -2.6568 -0.7700
  286MOL0     H37725   5.494   7.707   0.340 -0.1209  0.2634  2.2195
  286MOL0     H37726   5.616   7.543   0.461  6.5484  0.8138 -1.1760
  286MOL0     H37727   5.668   7.557   0.292  0.0681  0.2932  1.1312
  286MOL0     H37728   5.531   7.341   0.252 -0.7640  1.1356  0.0666
  286MOL0     H37729   5.467   7.352   0.420 -0.9641  0.2078 -0.7018
  286MOL0     H37730   5.771   7.345   0.394  0.2108 -1.3596  0.9839
  286MOL0     H37731   5.648   7.268   0.498 -2.5599 -3.1238 -0.3497
  286MOL0     H37732   5.793   7.123   0.353 -0.2978 -1.0881 -0.5054
  286MOL0     H37733   5.716   7.172   0.205  0.8160  0.6335 -0.9774
  286MOL0     H37734   5.077   8.103   0.520  1.2175 -1.5183 -1.3521
  286MOL0     H37735   4.888   8.233   0.622 -1.3307  1.4978 -1.0652
  286MOL0     H37736   4.506   8.381   0.624 -2.0192  0.9254 -0.1282
  286MOL0     H37737   4.384   8.580   0.724 -0.5763 -0.9469 -2.1902
  286MOL0     H37738   5.111   9.205   0.502 -1.4204 -1.8929  1.9236
  286MOL0     H37739   5.263   9.059   0.424 -0.0068 -2.5317  0.6017
  286MOL0     H37740   5.585   8.707   0.388 -0.5677  1.5452 -1.2042
  286MOL0     H37741   5.738   8.591   0.294  0.6840  0.7813 -1.5123
  286MOL0     H37742   5.828   8.376   0.207  1.6470 -0.1335 -0.2411
  286MOL0     H37743   5.920   8.462   0.072 -0.3256  1.0462  0.5223
  286MOL0     H37744   5.766   8.203   0.031 -0.4287  0.0200  2.0462
  286MOL0     H37745   5.847   8.287  -0.088 -5.2849  0.2943  0.8049
  286MOL0     H37746   5.953   8.084   0.073 -1.0387  0.5046 -0.1816
  286MOL0     H37747   5.966   8.207   0.193 -0.6515  1.9263 -0.3151
  286MOL0     H37748   6.123   8.330   0.018  0.6450 -0.3195 -3.8155
  286MOL0     H37749   6.176   8.196   0.112 -0.4233  2.6071  0.3462
  286MOL0     H37750   6.188   7.994  -0.262  0.2400 -2.2626  1.4762
  286MOL0     H37751   5.463   8.521  -0.060 -0.4527  0.0137  0.1632
  286MOL0     H37752   5.312   8.663   0.044  0.2921  0.0084 -1.1280
  287MOL0     O37753   0.567   9.424   3.026 -0.7101  0.0252 -0.5519
  287MOL0     C37754   0.591   9.305   3.051 -0.2923 -0.1054 -0.4129
  287MOL0     O37755   0.504   9.235   3.116  0.1887 -0.3855 -0.3236
  287MOL0     C37756   0.371   9.262   3.138 -0.9788 -0.3652 -0.0523
  287MOL0     C37757   0.282   9.334   3.048  0.3615  0.6252 -0.2370
  287MOL0     C37758   0.142   9.325   3.053 -0.9073  0.1155  0.8084
  287MOL0     C37759   0.084   9.244   3.156 -0.1233 -0.3381 -0.3315
  287MOL0     O37760  -0.062   9.237   3.168 -1.1425 -0.0302  0.9087
  287MOL0     C37761  -0.128   9.366   3.173  0.5970  0.7789  0.0878
  287MOL0     C37762  -0.213   9.383   3.046 -0.0172  0.3201  0.3600
  287MOL0     C37763  -0.295   9.505   3.057  0.4782 -0.2929 -0.5358
  287MOL0     C37764  -0.407   9.488   2.964  0.2741  0.7149 -0.0911
  287MOL0     C37765  -0.499   9.605   2.922 -0.4878 -0.0777  0.8266
  287MOL0     C37766  -0.430   9.740   2.913  0.6952  0.3274  0.3231
  287MOL0     C37767  -0.523   9.858   2.904 -0.2302  0.5244  0.1817
  287MOL0     C37768  -0.572   9.868   2.764 -0.0166  0.5083  0.4806
  287MOL0     N37769  -0.495   9.960   2.672  0.5299  0.2432 -1.0366
  287MOL0     C37770  -0.367   9.997   2.706  0.3943  0.2573  0.8350
  287MOL0     C37771  -0.345  10.091   2.609 -0.4086 -0.3935  0.6623
  287MOL0     C37772  -0.231  10.192   2.621  1.0007  0.6077 -0.1044
  287MOL0     C37773  -0.094  10.124   2.638 -0.1882  0.4751 -0.1545
  287MOL0     C37774   0.017  10.227   2.604  0.0651 -0.2311 -1.1363
  287MOL0     C37775   0.161  10.161   2.611 -0.4800 -0.7475  0.3356
  287MOL0     O37776   0.261  10.253   2.595  0.0351 -0.2614  0.4930
  287MOL0     C37777   0.390  10.211   2.607  0.0138 -0.0058 -0.4195
  287MOL0     C37778   0.430  10.090   2.665 -0.0780 -0.4881 -0.1734
  287MOL0     C37779   0.571  10.067   2.657  1.0850  1.1043 -0.0209
  287MOL0     C37780   0.663  10.158   2.600  0.4099 -0.1321  0.5097
  287MOL0     C37781   0.805  10.149   2.635  0.3565  1.0678  0.4729
  287MOL0     O37782   0.883  10.253   2.598 -0.7031  0.3927  0.3403
  287MOL0     C37783   1.016  10.259   2.644 -0.9719  0.8295  0.1377
  287MOL0     C37784   1.082  10.189   2.749  1.6418  0.3809 -0.5064
  287MOL0     C37785   1.218  10.215   2.804 -0.5237 -0.3245 -0.5939
  287MOL0     C37786   1.301  10.301   2.726  0.0350 -0.4248 -0.7817
  287MOL0     O37787   1.433  10.325   2.759 -0.6925  0.6144 -0.4597
  287MOL0     C37788   1.444  10.383   2.893  0.0410 -0.8299 -0.3492
  287MOL0     C37789   1.593  10.399   2.927  0.8904 -0.2423  0.4735
  287MOL0     C37790   1.635  10.259   2.963  1.3870  0.3574 -0.1738
  287MOL0     C37791   1.604  10.212   3.109 -0.4920  0.6028 -0.1342
  287MOL0     C37792   1.578  10.068   3.130  0.3438 -0.0667  0.6261
  287MOL0     C37793   1.502  10.052   3.270 -0.6841  0.5757 -0.0609
  287MOL0     C37794   1.488   9.901   3.283  0.5998 -0.8311 -0.1446
  287MOL0     C37795   1.442   9.863   3.429 -1.4471 -0.5470  0.4509
  287MOL0    Cl37796   1.466   9.691   3.457 -0.1813 -0.3636  0.2176
  287MOL0     C37797   1.247  10.344   2.612  0.0174 -0.2857 -0.0617
  287MOL0     C37798   1.109  10.336   2.581  0.9666 -0.5260 -0.7415
  287MOL0     O37799   0.850  10.043   2.675 -0.1178 -0.3280 -0.5362
  287MOL0     C37800   0.615  10.281   2.558 -0.2490 -0.1798  0.7716
  287MOL0     C37801   0.480  10.312   2.560 -0.1984  0.3729 -0.2974
  287MOL0     N37802  -0.450  10.120   2.526  0.2362  0.2076 -1.2566
  287MOL0     N37803  -0.535  10.038   2.567 -0.1839  0.7588 -0.2784
  287MOL0     C37804   0.164   9.177   3.254 -0.6363  0.8712  0.2835
  287MOL0     C37805   0.304   9.188   3.242 -0.9924 -0.4779 -0.0881
  287MOL0     C37806   0.724   9.242   3.013  0.2149  0.5323 -0.1761
  287MOL0     C37807   0.775   9.119   3.065 -0.1081  0.0449 -0.1779
  287MOL0     C37808   0.887   9.060   3.005  0.1241 -0.3346 -0.4915
  287MOL0     C37809   0.956   9.131   2.913 -0.0231 -0.4438  0.2483
  287MOL0     O37810   1.067   9.079   2.851  0.4241 -0.1308 -1.0844
  287MOL0     C37811   1.187   9.080   2.927 -0.4163 -0.1490 -0.7851
  287MOL0     C37812   1.266   9.211   2.892  0.2746  0.6987 -0.0171
  287MOL0     C37813   1.412   9.198   2.949  0.7911 -0.9904 -0.9170
  287MOL0     C37814   1.476   9.342   2.925 -1.1533  1.4071 -0.3865
  287MOL0     C37815   1.626   9.346   2.957 -0.6473  0.7901 -0.5215
  287MOL0     C37816   1.739   9.367   2.996 -0.5082  0.7561 -0.2478
  287MOL0     C37817   0.908   9.241   2.854  0.2932 -0.1726  0.0213
  287MOL0     C37818   0.792   9.305   2.908 -0.2343 -0.5600 -0.2767
  287MOL0     H37819   0.316   9.386   2.959  1.7751  0.9647  0.4721
  287MOL0     H37820   0.075   9.377   2.984 -1.0919 -1.4978 -0.2834
  287MOL0     H37821  -0.058   9.449   3.190 -0.5526  1.4638  1.8331
  287MOL0     H37822  -0.191   9.363   3.263  2.3366  0.5533  1.3569
  287MOL0     H37823  -0.278   9.298   3.024 -0.5920  1.1951 -1.4758
  287MOL0     H37824  -0.146   9.388   2.960 -1.8121  0.3076 -1.1075
  287MOL0     H37825  -0.234   9.591   3.025  1.6529 -1.1310 -0.6209
  287MOL0     H37826  -0.337   9.526   3.155 -1.0232  0.1216 -1.2405
  287MOL0     H37827  -0.387   9.452   2.863 -1.1571  1.2428 -0.5845
  287MOL0     H37828  -0.486   9.420   2.999  0.5480 -0.1805 -1.1499
  287MOL0     H37829  -0.576   9.614   2.999 -0.0983  3.7954  0.9494
  287MOL0     H37830  -0.547   9.582   2.826  0.5018 -0.3399  0.3822
  287MOL0     H37831  -0.360   9.742   2.829  0.0595 -0.1915 -0.2281
  287MOL0     H37832  -0.370   9.746   3.004  1.3781 -7.2567  0.9851
  287MOL0     H37833  -0.605   9.842   2.975  1.1678 -0.1235  1.7163
  287MOL0     H37834  -0.469   9.949   2.930 -3.2669  2.4071  0.3738
  287MOL0     H37835  -0.671   9.915   2.756 -0.1879  0.0220 -0.3434
  287MOL0     H37836  -0.599   9.775   2.714  2.2518  0.7128 -1.2760
  287MOL0     H37837  -0.301   9.969   2.787 -0.6285 -0.4619  1.4386
  287MOL0     H37838  -0.270  10.253   2.704 -1.8372  0.6828 -1.3892
  287MOL0     H37839  -0.236  10.254   2.531 -2.4497 -0.9636 -1.1687
  287MOL0     H37840  -0.083  10.027   2.591  0.6831  0.7199 -0.4660
  287MOL0     H37841  -0.080  10.105   2.745  0.2331  4.3012  0.6169
  287MOL0     H37842  -0.005  10.285   2.514 -3.2532  0.0546 -0.2674
  287MOL0     H37843   0.003  10.296   2.688 -1.7683 -1.0095 -0.7372
  287MOL0     H37844   0.181  10.091   2.529 -0.2630 -2.2653  1.6228
  287MOL0     H37845   0.166  10.109   2.707 -2.9264 -1.3925  0.1997
  287MOL0     H37846   0.358  10.022   2.710  0.7305 -1.1860  0.1097
  287MOL0     H37847   0.615   9.975   2.693  2.4154  1.0840 -1.5893
  287MOL0     H37848   1.027  10.123   2.816  0.6854  1.7089  0.0467
  287MOL0     H37849   1.256  10.168   2.894 -1.8274 -0.7302 -0.2348
  287MOL0     H37850   1.386  10.329   2.968  1.3718 -0.3825  1.0444
  287MOL0     H37851   1.407  10.486   2.894  0.6671 -0.6003  1.2653
  287MOL0     H37852   1.602  10.475   3.005 -0.0511  0.4722 -0.0840
  287MOL0     H37853   1.643  10.433   2.836  5.2815 -3.8392  1.2325
  287MOL0     H37854   1.745  10.266   2.958  1.3009  1.0296 -1.4588
  287MOL0     H37855   1.604  10.177   2.899  1.6921 -0.6827  0.9742
  287MOL0     H37856   1.677  10.248   3.182  1.3924 -1.0920 -1.0921
  287MOL0     H37857   1.507  10.255   3.135 -1.6794 -1.7628 -0.3636
  287MOL0     H37858   1.674  10.016   3.126 -0.1971 -1.2340  1.9359
  287MOL0     H37859   1.515  10.027   3.051  0.0084  0.3815  0.6537
  287MOL0     H37860   1.403  10.097   3.259 -0.0868  1.2694 -3.6633
  287MOL0     H37861   1.564  10.085   3.354 -0.1969 -0.1484 -0.1257
  287MOL0     H37862   1.405   9.864   3.222 -1.2338 -1.8579  2.7596
  287MOL0     H37863   1.585   9.854   3.263  2.1526  2.1993 -0.2692
  287MOL0     H37864   1.338   9.895   3.431 -1.7387 -1.4464  0.3643
  287MOL0     H37865   1.507   9.916   3.499  2.1233 -3.2439 -0.5137
  287MOL0     H37866   1.318  10.390   2.544  0.9139  2.1335  2.3518
  287MOL0     H37867   1.057  10.377   2.495  1.2922  0.0191 -0.6803
  287MOL0     H37868   0.686  10.355   2.524 -0.8353  0.1504  0.2560
  287MOL0     H37869   0.441  10.405   2.520  0.2454 -0.5258 -3.0576
  287MOL0     H37870   0.121   9.133   3.343 -3.1707 -0.5427 -1.4883
  287MOL0     H37871   0.361   9.125   3.310 -2.9960 -1.4843  0.7735
  287MOL0     H37872   0.729   9.047   3.132  1.3605 -1.6664 -0.9087
  287MOL0     H37873   0.922   8.960   3.030  1.3020  0.4084  1.0455
  287MOL0     H37874   1.253   8.998   2.896  1.2839  0.3046  1.3695
  287MOL0     H37875   1.175   9.075   3.036 -0.6422  0.0514 -0.8005
  287MOL0     H37876   1.270   9.218   2.783 -1.6996 -0.1543 -0.1893
  287MOL0     H37877   1.216   9.297   2.938  0.7598  1.0785 -0.1850
  287MOL0     H37878   1.465   9.124   2.888  3.8597 -0.6267  1.1297
  287MOL0     H37879   1.413   9.169   3.054 -1.2153 -1.4631 -0.9888
  287MOL0     H37880   1.457   9.356   2.818 -0.8334 -0.6902 -0.7647
  287MOL0     H37881   1.432   9.425   2.982 -0.0753  2.4214 -0.9943
  287MOL0     H37882   1.825   9.369   3.059 -1.4315 -2.1013  1.2696
  287MOL0     H37883   0.963   9.299   2.781  0.9961 -1.8524 -0.8111
  287MOL0     H37884   0.768   9.407   2.881  0.0486 -0.4413 -0.0834
  288MOL0     O37885   7.751   7.947   1.987  0.0302 -0.5756 -0.0957
  288MOL0     C37886   7.773   7.827   1.997 -0.0510  0.0705 -0.1724
  288MOL0     O37887   7.731   7.750   2.103 -0.0870 -0.4908 -0.0808
  288MOL0     C37888   7.644   7.811   2.197  0.0139  0.1998  1.2422
  288MOL0     C37889   7.509   7.792   2.165  0.3034 -0.7070 -0.2429
  288MOL0     C37890   7.416   7.861   2.235  0.3028 -0.2314 -0.3202
  288MOL0     C37891   7.443   7.962   2.331 -0.9800  0.2712  0.6821
  288MOL0     O37892   7.342   8.040   2.380  0.1427  0.3832  0.5960
  288MOL0     C37893   7.354   8.131   2.494  0.7041 -0.1679  0.5532
  288MOL0     C37894   7.214   8.159   2.548  0.0559  0.1654 -0.4796
  288MOL0     C37895   7.164   8.262   2.450  0.0625  0.0449 -0.5959
  288MOL0     C37896   7.012   8.297   2.485  0.2633 -0.1291  0.2398
  288MOL0     C37897   6.961   8.435   2.440 -0.6282  0.8069  0.9755
  288MOL0     C37898   6.972   8.434   2.289  0.5499 -0.0962  0.2502
  288MOL0     C37899   6.937   8.580   2.236  0.5222  0.5525  0.8569
  288MOL0     C37900   7.009   8.605   2.104  0.2452 -0.5501  1.0592
  288MOL0     N37901   7.114   8.707   2.113  0.1514  0.0401 -0.3378
  288MOL0     C37902   7.205   8.727   2.206  0.1121 -0.4674 -0.3555
  288MOL0     C37903   7.297   8.809   2.145 -0.5690  0.0189 -0.0071
  288MOL0     C37904   7.433   8.841   2.205  0.0418 -0.1284  0.4207
  288MOL0     C37905   7.467   8.987   2.184  0.3928 -0.7251 -0.3682
  288MOL0     C37906   7.603   9.025   2.244 -0.1443  0.6740 -0.4673
  288MOL0     C37907   7.653   9.157   2.214 -0.6560 -0.2748 -0.1604
  288MOL0     O37908   7.568   9.258   2.279  0.1808  0.6996 -0.8195
  288MOL0     C37909   7.610   9.386   2.252 -0.0600 -0.6000 -0.1252
  288MOL0     C37910   7.535   9.466   2.163  0.1947  0.9415  0.4575
  288MOL0     C37911   7.566   9.601   2.140  0.3453 -0.2907 -0.6013
  288MOL0     C37912   7.671   9.663   2.195 -1.1956 -1.1998  0.4827
  288MOL0     C37913   7.705   9.806   2.152  0.4587  0.0154 -0.5111
  288MOL0     O37914   7.802   9.855   2.229  0.0607 -0.6824 -0.1489
  288MOL0     C37915   7.881   9.969   2.202 -0.0263  0.9796 -0.2294
  288MOL0     C37916   7.910  10.020   2.070  0.6849 -0.6796 -0.1378
  288MOL0     C37917   7.985  10.143   2.063 -0.8546 -0.1132  0.5234
  288MOL0     C37918   8.031  10.212   2.172 -0.2295 -0.3477  0.2532
  288MOL0     O37919   8.102  10.322   2.151 -0.0423  1.0638  0.3158
  288MOL0     C37920   8.074  10.448   2.210  0.0793  0.1383 -0.1036
  288MOL0     C37921   8.064  10.550   2.095 -1.4339 -0.4049  0.2679
  288MOL0     C37922   8.013  10.685   2.135 -0.0122  0.3017 -1.2657
  288MOL0     C37923   7.993  10.776   2.011 -0.6255  0.5369  0.2741
  288MOL0     C37924   7.931  10.907   2.051  0.1732 -0.0801  0.0371
  288MOL0     C37925   8.024  10.994   2.136 -0.5901 -0.9409 -0.2387
  288MOL0     C37926   8.148  11.049   2.058 -0.6726  0.4516 -1.3969
  288MOL0     C37927   8.265  11.091   2.146  0.3329 -1.0742 -0.6015
  288MOL0    Cl37928   8.226  11.204   2.287 -0.0031  0.6971  0.5113
  288MOL0     C37929   8.019  10.149   2.293 -0.7111 -0.1631 -1.0670
  288MOL0     C37930   7.954  10.027   2.312  0.2679  1.2588  0.0963
  288MOL0     O37931   7.653   9.858   2.054 -0.0409  0.8535  0.0078
  288MOL0     C37932   7.738   9.586   2.292  0.2604 -0.4712 -0.2820
  288MOL0     C37933   7.713   9.450   2.315  0.1321 -0.0061  0.0279
  288MOL0     N37934   7.255   8.844   2.018  0.4316 -0.1865 -0.4022
  288MOL0     N37935   7.148   8.780   2.004 -0.1436 -0.0066 -1.0184
  288MOL0     C37936   7.583   7.970   2.362  0.4554 -1.2834 -0.4408
  288MOL0     C37937   7.688   7.896   2.293 -0.2621  0.5245  0.2289
  288MOL0     C37938   7.841   7.758   1.891  0.7887  0.2114 -0.1935
  288MOL0     C37939   7.871   7.621   1.916 -0.5491 -0.5097 -0.1723
  288MOL0     C37940   7.927   7.539   1.822 -0.2860 -0.1968 -0.3259
  288MOL0     C37941   7.943   7.591   1.690 -0.3832 -0.0908 -0.9498
  288MOL0     O37942   7.992   7.490   1.612  0.0003  1.1639  0.0860
  288MOL0     C37943   8.039   7.540   1.482  0.1450  0.5245  0.0434
  288MOL0     C37944   7.933   7.557   1.376 -0.2062 -0.1391 -0.4500
  288MOL0     C37945   7.906   7.420   1.318  1.0500  0.3671  0.6336
  288MOL0     C37946   7.764   7.423   1.253 -0.1577 -0.0029  0.2929
  288MOL0     C37947   7.726   7.291   1.203 -0.4230  0.0677 -0.4285
  288MOL0     C37948   7.688   7.183   1.175  0.1284 -0.4987  0.8611
  288MOL0     C37949   7.918   7.731   1.669 -0.1455 -1.2682  0.5036
  288MOL0     C37950   7.877   7.823   1.772 -0.6118 -0.6576  1.1131
  288MOL0     H37951   7.484   7.717   2.090  1.4411 -2.4362  1.0204
  288MOL0     H37952   7.311   7.858   2.208 -0.1934 -1.9690  1.5988
  288MOL0     H37953   7.410   8.220   2.463 -2.4997  1.0015 -2.5382
  288MOL0     H37954   7.414   8.086   2.574  4.1160  1.5656 -0.8166
  288MOL0     H37955   7.220   8.203   2.648 -0.8711 -2.6038  0.8852
  288MOL0     H37956   7.160   8.065   2.561  3.1082 -1.4940  1.3941
  288MOL0     H37957   7.175   8.224   2.348  1.5133 -0.6888 -0.1949
  288MOL0     H37958   7.221   8.355   2.458 -0.1774  0.0229  2.7459
  288MOL0     H37959   6.945   8.220   2.445 -1.7697  0.7249  1.8181
  288MOL0     H37960   7.002   8.287   2.594  1.9862 -2.0020  0.2785
  288MOL0     H37961   7.019   8.515   2.486  0.5586 -1.6705  4.1533
  288MOL0     H37962   6.858   8.443   2.476  0.5089  4.6845  4.1076
  288MOL0     H37963   6.896   8.368   2.247 -1.9663  2.9416 -0.3591
  288MOL0     H37964   7.070   8.400   2.257 -0.7145 -0.7890 -3.2912
  288MOL0     H37965   6.830   8.601   2.226  0.9037  2.5055  0.4543
  288MOL0     H37966   6.968   8.660   2.303  1.3330  0.4331  0.6395
  288MOL0     H37967   6.931   8.632   2.032  0.0312 -0.2540  1.4022
  288MOL0     H37968   7.056   8.511   2.074  1.1087 -0.0059  0.6886
  288MOL0     H37969   7.205   8.686   2.307 -0.6345  0.2875 -0.0356
  288MOL0     H37970   7.509   8.778   2.158  0.6614  1.4931 -0.8437
  288MOL0     H37971   7.444   8.819   2.311  2.1171 -2.2520 -0.1623
  288MOL0     H37972   7.394   9.050   2.235  2.6789 -0.5071  2.9314
  288MOL0     H37973   7.461   9.016   2.079  0.3638  2.5338  0.4123
  288MOL0     H37974   7.591   9.005   2.351  0.0060 -0.8611 -0.7100
  288MOL0     H37975   7.682   8.964   2.199  0.2131  2.6185 -2.6652
  288MOL0     H37976   7.664   9.172   2.106  0.0127 -2.0221 -0.3685
  288MOL0     H37977   7.755   9.183   2.245 -0.8048  0.4479 -0.2631
  288MOL0     H37978   7.458   9.416   2.105  2.2902 -0.1752 -1.5187
  288MOL0     H37979   7.499   9.650   2.070 -0.5698  1.5124  1.4019
  288MOL0     H37980   7.863   9.961   1.992 -1.0237 -1.3076  1.3024
  288MOL0     H37981   8.003  10.183   1.964 -2.6859  3.3660  1.4293
  288MOL0     H37982   8.162  10.478   2.268  0.7640  2.8170 -2.3185
  288MOL0     H37983   7.992  10.451   2.282  0.7273 -0.8304  0.6937
  288MOL0     H37984   7.985  10.505   2.035  0.9014 -0.8087 -2.7298
  288MOL0     H37985   8.154  10.567   2.036 -1.6335  1.9893  0.5221
  288MOL0     H37986   8.093  10.724   2.198 -1.3284  3.8854 -1.5888
  288MOL0     H37987   7.922  10.682   2.196  0.8263  1.2482  0.0713
  288MOL0     H37988   8.093  10.777   1.968 -0.9904 -4.0294 -1.2491
  288MOL0     H37989   7.927  10.733   1.935 -1.4311  0.4215  1.0163
  288MOL0     H37990   7.831  10.895   2.095 -0.4866  1.1367 -1.0541
  288MOL0     H37991   7.917  10.967   1.961  2.9612  0.8525  0.1485
  288MOL0     H37992   8.050  10.937   2.226 -1.2028 -2.4594 -0.9887
  288MOL0     H37993   7.968  11.080   2.173 -1.7578 -0.4915 -2.7976
  288MOL0     H37994   8.189  10.972   1.991  1.2372  0.0961  0.0705
  288MOL0     H37995   8.104  11.129   1.998 -1.8191 -1.1405 -2.7739
  288MOL0     H37996   8.335  11.138   2.076 -2.3774 -0.3362 -3.0228
  288MOL0     H37997   8.329  11.009   2.180 -0.2505  0.0312  3.8485
  288MOL0     H37998   8.068  10.205   2.372 -0.7117 -0.7668 -0.6299
  288MOL0     H37999   7.923   9.981   2.406 -3.7873  0.1200 -1.5873
  288MOL0     H38000   7.826   9.634   2.334 -0.4737 -0.8997  1.9288
  288MOL0     H38001   7.787   9.387   2.364  1.7037  1.9522  0.3080
  288MOL0     H38002   7.613   8.047   2.432  0.2276  1.1106 -2.8147
  288MOL0     H38003   7.790   7.920   2.319 -0.9338  3.7363  0.3452
  288MOL0     H38004   7.852   7.575   2.013  0.2956 -0.9767 -0.2193
  288MOL0     H38005   7.953   7.434   1.835  3.3862  0.2622 -2.5076
  288MOL0     H38006   8.121   7.472   1.461 -1.9325 -2.3705  0.7266
  288MOL0     H38007   8.075   7.643   1.490 -2.0885  1.4117 -0.6317
  288MOL0     H38008   7.846   7.604   1.422  0.4761  1.2764 -0.5751
  288MOL0     H38009   7.979   7.622   1.301  4.0529 -2.7969 -0.4859
  288MOL0     H38010   7.907   7.342   1.395  2.3910 -0.4246 -0.1467
  288MOL0     H38011   7.969   7.397   1.231 -0.2043  5.5842 -2.0489
  288MOL0     H38012   7.682   7.450   1.319  1.5082 -2.1544  3.5132
  288MOL0     H38013   7.780   7.497   1.174  3.2736 -1.6272 -0.7725
  288MOL0     H38014   7.636   7.091   1.158 -0.0502 -0.5312  1.5481
  288MOL0     H38015   7.937   7.764   1.567 -2.1604  1.3037  0.8557
  288MOL0     H38016   7.869   7.929   1.750  1.0144 -0.5007  1.2006
  289MOL0     O38017   6.993   1.598   7.838  0.1393 -0.0053  0.1477
  289MOL0     C38018   6.905   1.659   7.765 -1.1818  0.0093  0.5052
  289MOL0     O38019   6.781   1.688   7.800  0.7126 -0.0481  0.0524
  289MOL0     C38020   6.711   1.617   7.891 -0.8086  1.2348  0.0930
  289MOL0     C38021   6.742   1.484   7.924 -0.1553 -0.4885 -0.6485
  289MOL0     C38022   6.682   1.420   8.035 -0.1963  0.2785 -0.2130
  289MOL0     C38023   6.575   1.473   8.098  0.0306  0.1727  0.3245
  289MOL0     O38024   6.531   1.419   8.213 -0.1524  0.4905  0.7954
  289MOL0     C38025   6.515   1.279   8.220 -0.3295  0.2315  0.9206
  289MOL0     C38026   6.446   1.216   8.101  0.8047  1.9304 -0.2158
  289MOL0     C38027   6.377   1.084   8.143  0.3631  1.3922 -0.0335
  289MOL0     C38028   6.370   0.994   8.022  0.4731  0.0272  0.4869
  289MOL0     C38029   6.317   0.854   8.056 -0.4175 -0.0280 -0.5888
  289MOL0     C38030   6.363   0.744   7.959  0.7321 -0.4363 -0.4661
  289MOL0     C38031   6.290   0.607   7.996  0.1546 -0.6301 -0.1279
  289MOL0     C38032   6.329   0.530   8.123 -0.1295  0.2829  0.6122
  289MOL0     N38033   6.467   0.475   8.118  0.6191 -0.0615 -0.8443
  289MOL0     C38034   6.494   0.337   8.083  0.7477  0.8999 -0.7730
  289MOL0     C38035   6.626   0.329   8.095  0.1663  0.4093  0.0774
  289MOL0     C38036   6.718   0.212   8.043  0.1497 -0.3609  0.2599
  289MOL0     C38037   6.747   0.100   8.142  0.1295  0.2610  0.2760
  289MOL0     C38038   6.743   0.136   8.294  0.4046  0.5592  0.2298
  289MOL0     C38039   6.792   0.015   8.379 -0.6703 -0.1080 -0.6681
  289MOL0     O38040   6.704  -0.094   8.363  0.5185 -0.4281 -0.1097
  289MOL0     C38041   6.738  -0.216   8.401  0.3851 -0.1774 -0.2909
  289MOL0     C38042   6.690  -0.324   8.312  0.7497 -0.4983 -0.6425
  289MOL0     C38043   6.697  -0.457   8.361  0.3396  0.8860 -0.3167
  289MOL0     C38044   6.778  -0.481   8.474  0.7813  0.1389 -0.6251
  289MOL0     C38045   6.801  -0.623   8.516  0.3671  1.1274  0.5957
  289MOL0     O38046   6.897  -0.655   8.612  0.0153  0.5924 -0.9326
  289MOL0     C38047   6.971  -0.781   8.620 -1.0279 -0.0115  0.0679
  289MOL0     C38048   7.040  -0.787   8.743 -0.4679  0.5830 -0.3273
  289MOL0     C38049   7.119  -0.904   8.767 -0.4988 -0.3349 -1.0024
  289MOL0     C38050   7.116  -1.010   8.677  0.8235 -0.5312 -0.0592
  289MOL0     O38051   7.167  -1.132   8.709  0.1592  0.0101  0.2311
  289MOL0     C38052   7.315  -1.141   8.738 -0.0982 -0.2130  1.1056
  289MOL0     C38053   7.346  -1.197   8.878 -0.4243  0.0592  0.0427
  289MOL0     C38054   7.486  -1.164   8.941 -0.0993 -0.1320 -0.0925
  289MOL0     C38055   7.591  -1.252   8.872 -0.3360  0.6318  0.4876
  289MOL0     C38056   7.725  -1.217   8.934  0.7065 -0.7872 -0.0080
  289MOL0     C38057   7.847  -1.292   8.873 -0.3103 -0.4887 -0.5428
  289MOL0     C38058   7.949  -1.210   8.789  0.2024 -0.1084 -0.1819
  289MOL0     C38059   8.047  -1.145   8.889 -0.3707 -0.5637 -0.2806
  289MOL0    Cl38060   8.174  -1.267   8.916  0.2404  0.0982 -0.0208
  289MOL0     C38061   7.040  -1.004   8.557 -0.0557 -0.6196 -1.1504
  289MOL0     C38062   6.975  -0.881   8.528 -0.5245  0.3881 -0.8350
  289MOL0     O38063   6.737  -0.710   8.454  0.6548 -0.9160 -0.3567
  289MOL0     C38064   6.839  -0.379   8.542  0.6969 -0.2786  0.0025
  289MOL0     C38065   6.819  -0.245   8.514  0.5865 -0.2210  0.8355
  289MOL0     N38066   6.671   0.455   8.140 -0.1437 -0.6075 -0.5514
  289MOL0     N38067   6.573   0.541   8.150 -0.6541  0.0501  1.4802
  289MOL0     C38068   6.533   1.600   8.067 -0.0359  0.1593  0.0366
  289MOL0     C38069   6.604   1.674   7.963  0.8081  0.6193 -0.4172
  289MOL0     C38070   6.953   1.709   7.627 -0.2351  0.2434 -0.4248
  289MOL0     C38071   7.085   1.701   7.588  0.3510 -0.6440 -0.0271
  289MOL0     C38072   7.122   1.740   7.462 -0.5111  0.1413 -0.2057
  289MOL0     C38073   7.039   1.807   7.379  0.4286  0.0050 -0.1144
  289MOL0     O38074   7.087   1.848   7.258 -0.8409 -0.7947  0.0530
  289MOL0     C38075   7.091   1.759   7.146 -0.4433  0.2122  0.2298
  289MOL0     C38076   7.000   1.824   7.035  0.5387  0.1677  1.6186
  289MOL0     C38077   7.054   1.944   6.969  0.6092 -0.7077 -0.0938
  289MOL0     C38078   7.141   1.926   6.839 -0.5118  0.4849  0.1229
  289MOL0     C38079   7.159   2.054   6.769  0.9110 -0.5789 -0.3018
  289MOL0     C38080   7.182   2.149   6.694  0.3436  0.6251 -1.2482
  289MOL0     C38081   6.901   1.826   7.422 -0.8299 -1.5121  0.2935
  289MOL0     C38082   6.857   1.766   7.543 -0.2289  1.1150  1.1295
  289MOL0     H38083   6.821   1.442   7.864  0.0467 -1.0571 -0.0015
  289MOL0     H38084   6.729   1.327   8.062 -2.3411 -1.0575 -0.8583
  289MOL0     H38085   6.452   1.264   8.308 -1.8976 -0.9760 -0.3493
  289MOL0     H38086   6.605   1.223   8.249 -2.3351 -1.8941  3.5025
  289MOL0     H38087   6.522   1.205   8.023 -1.1561 -3.2806 -1.8326
  289MOL0     H38088   6.363   1.278   8.066 -2.6786 -2.0261  0.2068
  289MOL0     H38089   6.274   1.113   8.167 -0.3414  0.2891 -1.5832
  289MOL0     H38090   6.430   1.038   8.227  1.3007  0.6985 -0.9853
  289MOL0     H38091   6.309   1.040   7.944 -1.8888  0.9359  2.7087
  289MOL0     H38092   6.472   0.973   7.989  0.7229  2.3551 -0.3968
  289MOL0     H38093   6.209   0.862   8.043 -0.3282 -0.5840 -1.7972
  289MOL0     H38094   6.335   0.823   8.159 -0.2229 -0.3741 -0.7241
  289MOL0     H38095   6.471   0.727   7.960  0.4179 -2.9669  1.8914
  289MOL0     H38096   6.332   0.775   7.859  1.2259 -1.6081 -1.0105
  289MOL0     H38097   6.185   0.638   7.993  1.1554  3.4394 -0.0645
  289MOL0     H38098   6.318   0.526   7.928  2.7976 -2.8804  3.3330
  289MOL0     H38099   6.276   0.436   8.139 -0.1485  0.2922  0.6029
  289MOL0     H38100   6.303   0.585   8.214 -1.0827 -0.1888  0.6353
  289MOL0     H38101   6.428   0.259   8.049  1.2396 -0.1048  0.4979
  289MOL0     H38102   6.811   0.261   8.011 -0.4351  0.5294 -0.1277
  289MOL0     H38103   6.671   0.174   7.952  0.2766 -0.0088  0.0438
  289MOL0     H38104   6.845   0.059   8.116  0.2694 -0.5226  1.9342
  289MOL0     H38105   6.674   0.019   8.138 -0.9076  1.1738 -3.1820
  289MOL0     H38106   6.810   0.221   8.313 -1.3707  1.7737  1.4445
  289MOL0     H38107   6.643   0.168   8.326 -1.5093 -4.0320 -0.3428
  289MOL0     H38108   6.796   0.051   8.482  3.7551 -0.5391 -0.4975
  289MOL0     H38109   6.896  -0.012   8.359 -0.0894 -1.9373  3.5895
  289MOL0     H38110   6.631  -0.292   8.226  2.1011  0.2230 -1.3236
  289MOL0     H38111   6.649  -0.532   8.298 -1.7867 -0.0039  2.1762
  289MOL0     H38112   7.024  -0.704   8.811 -0.9982  0.6079 -0.4784
  289MOL0     H38113   7.163  -0.930   8.863 -0.6553  2.1814 -0.1826
  289MOL0     H38114   7.368  -1.047   8.723  1.0985 -1.1281 -0.7548
  289MOL0     H38115   7.366  -1.206   8.666  0.1095 -0.3776  1.3998
  289MOL0     H38116   7.333  -1.306   8.873 -1.8186  0.2529 -1.9064
  289MOL0     H38117   7.279  -1.139   8.942 -0.3232  0.0121  0.1901
  289MOL0     H38118   7.473  -1.190   9.047 -2.1710  4.4484  1.0228
  289MOL0     H38119   7.509  -1.058   8.936 -0.0048 -0.1849 -0.8148
  289MOL0     H38120   7.578  -1.358   8.892 -0.9594  0.4908 -0.5900
  289MOL0     H38121   7.595  -1.232   8.765 -1.4859 -1.3314  0.0263
  289MOL0     H38122   7.710  -1.241   9.040  0.9299  1.7366  0.6537
  289MOL0     H38123   7.732  -1.108   8.927  0.1084 -0.4730  2.8540
  289MOL0     H38124   7.808  -1.367   8.804  0.3854  0.9121 -2.5431
  289MOL0     H38125   7.894  -1.335   8.962 -5.6163 -1.7476  2.0918
  289MOL0     H38126   8.002  -1.276   8.720 -0.3623  0.2621 -0.9948
  289MOL0     H38127   7.892  -1.132   8.736  0.3029  0.7156  0.8804
  289MOL0     H38128   8.014  -1.105   8.985 -0.4970  0.0041 -0.5538
  289MOL0     H38129   8.093  -1.050   8.861 -0.6886 -0.3780 -0.1750
  289MOL0     H38130   7.032  -1.087   8.488 -2.2243 -0.5203 -1.0945
  289MOL0     H38131   6.934  -0.866   8.428  0.8449 -2.4337 -1.9367
  289MOL0     H38132   6.904  -0.408   8.624 -1.4580 -2.9789  0.9222
  289MOL0     H38133   6.871  -0.175   8.578  0.2914  0.4393  0.3726
  289MOL0     H38134   6.459   1.655   8.123 -0.2052 -1.1042  1.1168
  289MOL0     H38135   6.574   1.776   7.940  2.5580  0.9747 -1.2978
  289MOL0     H38136   7.165   1.653   7.644 -0.9053 -1.5465  1.0468
  289MOL0     H38137   7.225   1.713   7.439 -0.5918 -1.0686  0.7291
  289MOL0     H38138   7.051   1.659   7.162  1.0086 -0.4848 -0.3288
  289MOL0     H38139   7.186   1.752   7.093 -2.3513 -1.3099 -3.3409
  289MOL0     H38140   6.969   1.752   6.958 -0.0691  1.9875  0.0930
  289MOL0     H38141   6.908   1.855   7.084 -1.9840 -0.2727 -2.4407
  289MOL0     H38142   7.118   1.995   7.041  1.6422 -1.2250 -0.6263
  289MOL0     H38143   6.975   2.017   6.947 -0.6846 -1.6630  1.2057
  289MOL0     H38144   7.236   1.879   6.869 -1.7399 -1.5560  1.0638
  289MOL0     H38145   7.077   1.871   6.769  0.9367  1.2249 -1.8745
  289MOL0     H38146   7.220   2.228   6.633  1.4529  0.5637 -0.6598
  289MOL0     H38147   6.836   1.893   7.366 -1.2840 -0.5242  1.9421
  289MOL0     H38148   6.752   1.772   7.566 -0.8072 -0.3764 -0.7906
  290MOL0     O38149   9.405   8.815   3.675  0.6362  0.7887 -0.7433
  290MOL0     C38150   9.459   8.700   3.668  0.3865 -0.1968 -1.0883
  290MOL0     O38151   9.584   8.665   3.701  0.0387 -0.5685 -0.6484
  290MOL0     C38152   9.671   8.760   3.751  0.4072  0.3085  0.0089
  290MOL0     C38153   9.777   8.815   3.675 -0.1571  0.2889  1.2335
  290MOL0     C38154   9.881   8.891   3.734  0.1411 -0.9421  0.2720
  290MOL0     C38155   9.866   8.940   3.862 -0.8888 -0.1420 -0.1655
  290MOL0     O38156   9.968   9.032   3.893 -0.0609 -0.0953 -0.0621
  290MOL0     C38157   9.984   9.071   4.026 -0.0717 -0.3745  0.4846
  290MOL0     C38158  10.082   9.188   4.035  1.1565 -0.7888 -0.1216
  290MOL0     C38159  10.108   9.227   4.183  0.7120 -0.1289 -0.1337
  290MOL0     C38160  10.220   9.338   4.191 -0.0515 -0.9021  0.1767
  290MOL0     C38161  10.196   9.468   4.125 -0.3990 -0.1619  0.1150
  290MOL0     C38162  10.106   9.552   4.217  0.7662 -0.3078  0.2805
  290MOL0     C38163  10.169   9.609   4.344  0.9870 -0.3716  0.0084
  290MOL0     C38164  10.107   9.739   4.382 -0.3844  0.3337  0.2329
  290MOL0     N38165  10.190   9.787   4.502 -0.4864 -0.0230 -0.2499
  290MOL0     C38166  10.151   9.756   4.633 -0.4688  1.0962 -0.5908
  290MOL0     C38167  10.241   9.830   4.708 -0.5695  0.9979  0.3049
  290MOL0     C38168  10.226   9.841   4.858  0.5165 -0.0005 -0.0533
  290MOL0     C38169  10.364   9.787   4.914 -0.1906  0.6293  0.3939
  290MOL0     C38170  10.335   9.749   5.055  0.3860  0.4436 -0.9914
  290MOL0     C38171  10.231   9.636   5.082 -1.5240 -0.1576  0.5028
  290MOL0     O38172  10.264   9.517   5.016  0.2444  0.7752  0.1559
  290MOL0     C38173  10.173   9.406   5.012  0.1901 -0.3188 -0.1673
  290MOL0     C38174  10.185   9.310   4.906 -0.3337  0.4517 -0.0608
  290MOL0     C38175  10.088   9.216   4.871  0.6953  0.4566 -0.3787
  290MOL0     C38176   9.977   9.208   4.956 -0.9787  0.5768 -0.1287
  290MOL0     C38177   9.888   9.085   4.945 -0.9992  0.3283 -0.0749
  290MOL0     O38178   9.951   8.970   4.895 -0.2881  0.4521  0.0734
  290MOL0     C38179   9.878   8.852   4.883 -0.2781  0.9434 -0.3110
  290MOL0     C38180   9.738   8.837   4.872  0.2864  0.3912 -0.3603
  290MOL0     C38181   9.677   8.706   4.860  0.6391 -0.2223  0.5067
  290MOL0     C38182   9.747   8.590   4.840 -0.4500  0.4502  0.4688
  290MOL0     O38183   9.668   8.479   4.812  0.3431 -0.0888  0.3024
  290MOL0     C38184   9.726   8.368   4.746  0.3145  0.2727 -0.4917
  290MOL0     C38185   9.725   8.389   4.588  0.7019  0.6026  0.0725
  290MOL0     C38186   9.829   8.479   4.517  0.2735  0.0783  0.4771
  290MOL0     C38187   9.801   8.492   4.368 -0.3575  1.0435 -0.2160
  290MOL0     C38188   9.803   8.359   4.287  0.0790  0.7840  0.5796
  290MOL0     C38189   9.786   8.398   4.138  0.6449 -0.8816  0.0292
  290MOL0     C38190   9.775   8.281   4.045 -0.7641  0.1546  1.0853
  290MOL0     C38191   9.641   8.218   4.045  0.8488  0.1435 -0.7309
  290MOL0    Cl38192   9.515   8.317   3.952  0.3105 -0.6438  0.1595
  290MOL0     C38193   9.887   8.611   4.838 -0.4078 -0.0356 -0.1132
  290MOL0     C38194   9.952   8.737   4.853  0.4683 -0.4085 -0.5249
  290MOL0     O38195   9.777   9.100   4.992 -0.5173  0.2916 -0.6961
  290MOL0     C38196   9.962   9.301   5.063  0.6683 -0.6033  0.0666
  290MOL0     C38197  10.055   9.406   5.086  0.1589 -0.4301 -0.0092
  290MOL0     N38198  10.326   9.897   4.624 -0.6010 -0.6277 -0.0681
  290MOL0     N38199  10.291   9.877   4.490  0.1252  1.2151  0.1893
  290MOL0     C38200   9.763   8.886   3.950  1.0390 -0.4553  0.1757
  290MOL0     C38201   9.669   8.798   3.887  0.5532 -0.3360  0.1944
  290MOL0     C38202   9.383   8.583   3.602 -0.6377  0.0200 -0.8628
  290MOL0     C38203   9.443   8.452   3.597  0.8178  0.3389 -0.0330
  290MOL0     C38204   9.367   8.351   3.548 -0.9051 -0.0359  0.9365
  290MOL0     C38205   9.249   8.372   3.486  0.2165  0.0581 -0.1350
  290MOL0     O38206   9.181   8.255   3.458 -0.8561 -0.2417 -0.0461
  290MOL0     C38207   9.119   8.239   3.332 -0.0100  0.1232  1.2196
  290MOL0     C38208   9.032   8.123   3.342  0.3473  0.2687  0.4509
  290MOL0     C38209   8.943   8.100   3.221  0.3815  0.0690  0.4353
  290MOL0     C38210   9.012   8.052   3.096  0.1106  0.7002  1.3375
  290MOL0     C38211   8.919   8.052   2.978 -1.0690  0.4187 -0.9216
  290MOL0     C38212   8.857   8.056   2.880 -0.1577  0.4255  0.4880
  290MOL0     C38213   9.196   8.497   3.481 -0.5946 -0.0472  0.0837
  290MOL0     C38214   9.259   8.604   3.541  0.2722  0.5241 -1.1886
  290MOL0     H38215   9.794   8.793   3.569 -0.4977  1.3394  0.9534
  290MOL0     H38216   9.971   8.912   3.678 -1.9199 -1.5324 -3.6057
  290MOL0     H38217  10.021   8.985   4.082  0.3833  0.8442  2.1392
  290MOL0     H38218   9.888   9.091   4.075 -1.0248 -2.2681 -0.5071
  290MOL0     H38219  10.052   9.275   3.976 -0.2384 -0.2163  1.3513
  290MOL0     H38220  10.179   9.160   3.993  1.3713  0.5969 -0.6168
  290MOL0     H38221  10.145   9.133   4.223  2.8348  0.0391 -1.5573
  290MOL0     H38222  10.018   9.260   4.237  0.8556  1.7276 -0.9475
  290MOL0     H38223  10.236   9.357   4.298 -0.4421 -0.5391  0.1756
  290MOL0     H38224  10.310   9.300   4.143 -0.6364 -1.1774 -0.7188
  290MOL0     H38225  10.157   9.473   4.023  1.5173  4.4459 -0.6134
  290MOL0     H38226  10.291   9.522   4.118  1.0405 -2.6750 -1.4094
  290MOL0     H38227  10.026   9.483   4.244 -1.4230  1.8189 -0.4118
  290MOL0     H38228  10.049   9.631   4.166 -2.4713 -1.6786  1.5284
  290MOL0     H38229  10.162   9.541   4.430 -0.5050 -0.1126  0.1332
  290MOL0     H38230  10.274   9.633   4.329  0.2822  1.9332 -1.8626
  290MOL0     H38231  10.006   9.723   4.422 -0.3413 -1.0295 -0.1415
  290MOL0     H38232  10.111   9.806   4.295 -1.9139  2.4644  1.6815
  290MOL0     H38233  10.069   9.689   4.658 -2.0357  1.7707 -3.5113
  290MOL0     H38234  10.140   9.783   4.894 -1.4211  1.6143 -1.8388
  290MOL0     H38235  10.210   9.946   4.881  0.7647  0.0349 -0.0404
  290MOL0     H38236  10.438   9.867   4.911 -2.0813  2.4689 -0.7868
  290MOL0     H38237  10.397   9.702   4.854  1.7883  1.3514  0.4023
  290MOL0     H38238  10.432   9.723   5.097 -0.1721 -1.7171 -0.9131
  290MOL0     H38239  10.300   9.839   5.105  0.5324 -0.6849  1.2860
  290MOL0     H38240  10.131   9.669   5.053 -2.8685 -2.8847  1.6617
  290MOL0     H38241  10.216   9.634   5.190  1.7463  2.0699  1.1600
  290MOL0     H38242  10.276   9.321   4.848  0.5080  1.2639  1.3767
  290MOL0     H38243  10.112   9.143   4.795 -1.5281  0.4832 -1.1781
  290MOL0     H38244   9.663   8.914   4.886  0.9326  1.1276 -0.8856
  290MOL0     H38245   9.570   8.703   4.842  0.5008  2.2215  0.5445
  290MOL0     H38246   9.649   8.294   4.768 -0.6680  0.9732 -1.4464
  290MOL0     H38247   9.816   8.325   4.790 -0.6266 -1.8405 -0.5088
  290MOL0     H38248   9.626   8.426   4.562 -0.4365 -0.4216  2.5683
  290MOL0     H38249   9.741   8.286   4.553  0.9233  0.7523 -0.2592
  290MOL0     H38250   9.930   8.439   4.521  1.3123  2.5037  0.6423
  290MOL0     H38251   9.840   8.577   4.566  3.6424  1.5794 -2.7695
  290MOL0     H38252   9.707   8.548   4.358 -0.6168  1.0079  1.6355
  290MOL0     H38253   9.884   8.554   4.332 -0.1542  0.1517 -1.3449
  290MOL0     H38254   9.720   8.290   4.305  1.0647 -1.8524 -3.5388
  290MOL0     H38255   9.902   8.317   4.305  0.1989  0.6574 -0.3268
  290MOL0     H38256   9.871   8.463   4.118 -0.7561  0.8771 -0.4711
  290MOL0     H38257   9.697   8.462   4.133 -0.5686 -2.2731  2.2065
  290MOL0     H38258   9.805   8.311   3.945 -0.9358  0.0148  0.9914
  290MOL0     H38259   9.841   8.199   4.076  0.3971  0.6608  0.0226
  290MOL0     H38260   9.604   8.211   4.148  0.5912 -0.0854 -0.8397
  290MOL0     H38261   9.633   8.114   4.014  0.1191  0.4139 -1.4729
  290MOL0     H38262   9.955   8.529   4.817 -0.0699 -0.0933  1.1580
  290MOL0     H38263  10.059   8.755   4.854  0.6175 -1.0065  2.0214
  290MOL0     H38264   9.874   9.297   5.127 -0.4895 -3.6331 -1.5082
  290MOL0     H38265  10.024   9.479   5.160 -2.8032 -1.3719 -0.2048
  290MOL0     H38266   9.748   8.901   4.057 -0.1208 -2.2034  0.3021
  290MOL0     H38267   9.588   8.747   3.938 -2.9644  2.9162 -1.5956
  290MOL0     H38268   9.545   8.439   3.634  2.1236 -0.4443 -3.4432
  290MOL0     H38269   9.388   8.245   3.560 -0.9881 -0.1103  0.4456
  290MOL0     H38270   9.199   8.239   3.258 -2.1327 -0.1993 -1.2140
  290MOL0     H38271   9.068   8.331   3.303  0.0767 -1.0613 -3.6509
  290MOL0     H38272   9.090   8.032   3.361 -1.6748 -0.7897  1.9428
  290MOL0     H38273   8.970   8.133   3.431 -1.8797  0.9278 -1.0606
  290MOL0     H38274   8.902   8.200   3.200  0.2963  0.4656  2.3298
  290MOL0     H38275   8.861   8.029   3.232  0.7544 -0.8965 -2.1428
  290MOL0     H38276   9.084   8.127   3.063 -0.0312  0.1333 -0.3182
  290MOL0     H38277   9.061   7.956   3.115  1.5931  0.7179 -1.7889
  290MOL0     H38278   8.798   8.034   2.793 -1.5483 -2.4990  2.0300
  290MOL0     H38279   9.104   8.517   3.428  0.0462  1.8127 -0.4206
  290MOL0     H38280   9.208   8.700   3.547 -1.8741 -0.6697  1.4587
  291MOL0     O38281   4.033   1.871   3.189 -1.2753 -0.0747  0.6676
  291MOL0     C38282   4.055   1.989   3.151  0.6714  1.3192 -0.6545
  291MOL0     O38283   4.071   2.026   3.019 -0.1307 -0.3018  0.0570
  291MOL0     C38284   4.078   1.931   2.925  0.4743 -0.2733 -0.2438
  291MOL0     C38285   3.970   1.892   2.845 -0.6850  0.0386  0.0272
  291MOL0     C38286   3.977   1.796   2.748  0.0786  0.6657 -1.0500
  291MOL0     C38287   4.107   1.751   2.712  0.3003 -0.4972 -0.1000
  291MOL0     O38288   4.125   1.653   2.617 -0.6111 -0.6731  0.0856
  291MOL0     C38289   4.021   1.583   2.562 -0.3168 -0.8699 -0.5791
  291MOL0     C38290   4.091   1.476   2.488  0.6479  0.7074  0.1755
  291MOL0     C38291   3.979   1.410   2.396  0.1261 -0.1849 -0.5618
  291MOL0     C38292   3.881   1.322   2.487  0.2281  0.6261  0.3625
  291MOL0     C38293   3.782   1.254   2.385 -0.4219 -0.6811  0.1251
  291MOL0     C38294   3.683   1.161   2.456  0.5372 -1.4295  0.0944
  291MOL0     C38295   3.572   1.232   2.539  0.8546 -0.0898 -0.1811
  291MOL0     C38296   3.518   1.138   2.643  0.2684 -0.2366  0.8566
  291MOL0     N38297   3.454   1.033   2.594  0.3294 -0.3361 -0.4608
  291MOL0     C38298   3.334   1.019   2.525  0.1251 -0.3687 -0.9544
  291MOL0     C38299   3.330   0.890   2.485 -0.1087 -0.2173  0.8788
  291MOL0     C38300   3.227   0.820   2.403 -0.1077 -0.0154  0.8091
  291MOL0     C38301   3.141   0.918   2.320  1.3042  0.4992 -0.4163
  291MOL0     C38302   3.047   0.826   2.233 -0.2685  0.5975  0.0117
  291MOL0     C38303   2.929   0.912   2.180 -1.2714 -0.7678  0.7180
  291MOL0     O38304   2.842   0.984   2.277 -0.0597 -0.2619 -0.5649
  291MOL0     C38305   2.744   1.072   2.232 -0.9045 -0.3074  0.3012
  291MOL0     C38306   2.678   1.157   2.325  1.0957  1.3329 -0.4068
  291MOL0     C38307   2.585   1.250   2.271  0.1890  0.0174  0.1339
  291MOL0     C38308   2.540   1.254   2.139 -0.2850 -0.1437 -0.0833
  291MOL0     C38309   2.419   1.333   2.096  0.7670 -0.3001 -0.5865
  291MOL0     O38310   2.356   1.389   2.203  0.5173  0.2086 -0.0200
  291MOL0     C38311   2.240   1.461   2.203  0.1802  0.7028  0.2375
  291MOL0     C38312   2.127   1.406   2.130 -0.2539  0.4361  0.2183
  291MOL0     C38313   2.009   1.479   2.130 -0.7653 -0.0950  0.0793
  291MOL0     C38314   1.994   1.594   2.205 -0.2567  0.1286  0.3114
  291MOL0     O38315   1.878   1.661   2.214  0.2444 -0.4217  0.4467
  291MOL0     C38316   1.760   1.595   2.261 -0.5517 -0.1589 -0.2699
  291MOL0     C38317   1.645   1.652   2.185  0.3795 -1.5234  0.1350
  291MOL0     C38318   1.519   1.605   2.261 -0.8362  0.0101  0.8141
  291MOL0     C38319   1.400   1.690   2.221  0.1963 -0.2333  0.5149
  291MOL0     C38320   1.276   1.641   2.288  0.0057  0.2993  0.6156
  291MOL0     C38321   1.149   1.716   2.231  0.4556  0.4605 -0.3813
  291MOL0     C38322   1.019   1.666   2.297  0.6756  0.6334 -0.1744
  291MOL0     C38323   0.901   1.736   2.232 -0.1643 -0.5276  0.1410
  291MOL0    Cl38324   0.759   1.679   2.322  0.2212 -0.1616 -0.5620
  291MOL0     C38325   2.105   1.646   2.274  0.7191  0.3942 -0.3649
  291MOL0     C38326   2.222   1.577   2.283  0.1142  0.3479 -0.2319
  291MOL0     O38327   2.364   1.323   1.986 -0.0258  0.8679  0.1795
  291MOL0     C38328   2.615   1.173   2.045  0.3602 -0.3900  0.3615
  291MOL0     C38329   2.708   1.084   2.092  0.2176  0.2500 -0.6125
  291MOL0     N38330   3.443   0.823   2.521  0.1425 -1.0109  1.1179
  291MOL0     N38331   3.522   0.911   2.573 -0.4374 -0.3294 -0.0503
  291MOL0     C38332   4.220   1.785   2.787  0.7814 -0.2048 -0.0871
  291MOL0     C38333   4.209   1.874   2.906 -0.3036  0.1898  0.5712
  291MOL0     C38334   4.061   2.098   3.258  0.7407 -0.4330  0.2334
  291MOL0     C38335   4.092   2.069   3.388 -0.0043 -0.3548  0.3950
  291MOL0     C38336   4.105   2.174   3.486 -0.5532  0.8606  0.0599
  291MOL0     C38337   4.093   2.305   3.448 -0.6799 -0.4102 -0.2785
  291MOL0     O38338   4.110   2.412   3.530 -0.2687 -0.9736  0.2378
  291MOL0     C38339   4.231   2.416   3.611  0.4083 -0.0933 -0.4376
  291MOL0     C38340   4.355   2.425   3.535 -0.8463 -0.0117  0.2767
  291MOL0     C38341   4.375   2.558   3.455  0.9791 -0.4709 -0.1446
  291MOL0     C38342   4.520   2.583   3.422 -0.6780  0.2573  0.4360
  291MOL0     C38343   4.546   2.721   3.408  0.3596 -0.0674 -0.0886
  291MOL0     C38344   4.565   2.838   3.390 -0.9098 -0.3407  0.1981
  291MOL0     C38345   4.052   2.332   3.322 -0.2497 -1.3958  0.3453
  291MOL0     C38346   4.045   2.232   3.222 -0.1347  0.2361  0.0044
  291MOL0     H38347   3.870   1.932   2.857 -0.7716 -0.0451 -0.3884
  291MOL0     H38348   3.884   1.758   2.707 -0.9966  2.5248 -0.4582
  291MOL0     H38349   3.957   1.648   2.502 -1.9577 -0.0405  1.9001
  291MOL0     H38350   3.962   1.538   2.643 -0.7520 -0.1803 -0.5054
  291MOL0     H38351   4.118   1.396   2.558  2.7376  0.2515 -1.0831
  291MOL0     H38352   4.184   1.514   2.444  0.6484 -0.5783 -0.9861
  291MOL0     H38353   4.020   1.335   2.327 -0.4858 -2.5283  1.5000
  291MOL0     H38354   3.930   1.490   2.340 -1.2099 -0.0915  0.6867
  291MOL0     H38355   3.936   1.240   2.534 -1.0074  0.7929  2.1946
  291MOL0     H38356   3.823   1.372   2.565 -0.2605 -2.4872  2.1915
  291MOL0     H38357   3.845   1.207   2.309 -1.5378 -1.9593 -0.0582
  291MOL0     H38358   3.725   1.330   2.331  2.1162 -1.5280 -4.2497
  291MOL0     H38359   3.728   1.083   2.518  1.5286  0.1623  1.5037
  291MOL0     H38360   3.629   1.108   2.377 -0.3886  0.5905 -0.6948
  291MOL0     H38361   3.617   1.317   2.591  0.1217  1.0398 -1.3364
  291MOL0     H38362   3.494   1.273   2.474  2.2542 -1.8053 -3.2095
  291MOL0     H38363   3.461   1.190   2.721  0.5813 -0.4165  1.2079
  291MOL0     H38364   3.601   1.096   2.700  0.1769 -2.9799 -0.8835
  291MOL0     H38365   3.256   1.093   2.506  1.3161  0.7534 -1.6279
  291MOL0     H38366   3.168   0.757   2.471  1.6639 -0.7419  1.7394
  291MOL0     H38367   3.274   0.760   2.325  3.3128 -1.3411  3.6435
  291MOL0     H38368   3.194   0.987   2.253  1.2347  1.4267  0.4549
  291MOL0     H38369   3.077   0.980   2.383 -0.2597  0.3140 -1.7459
  291MOL0     H38370   3.108   0.795   2.147 -0.6858  0.4289 -0.2233
  291MOL0     H38371   3.015   0.739   2.290 -0.9734 -0.2121 -1.5644
  291MOL0     H38372   2.857   0.852   2.124 -1.3005  1.6352 -2.0984
  291MOL0     H38373   2.976   0.979   2.106 -1.0134 -4.1700 -2.4818
  291MOL0     H38374   2.686   1.159   2.433 -3.3539 -0.2209  0.1835
  291MOL0     H38375   2.553   1.328   2.339 -0.0132 -0.5304  0.6789
  291MOL0     H38376   2.129   1.303   2.098  1.0928  1.1731 -2.3441
  291MOL0     H38377   1.915   1.442   2.088 -1.1131  2.5714 -1.7503
  291MOL0     H38378   1.752   1.638   2.362 -0.4528  0.9034 -0.7001
  291MOL0     H38379   1.763   1.486   2.276 -1.2254 -0.3335 -1.3552
  291MOL0     H38380   1.628   1.617   2.083  3.3550  3.4058 -2.4475
  291MOL0     H38381   1.652   1.761   2.176 -3.4012 -1.0093  1.4466
  291MOL0     H38382   1.530   1.626   2.367 -0.4327  0.5429  0.6697
  291MOL0     H38383   1.504   1.499   2.239  2.1906 -0.0484 -1.5761
  291MOL0     H38384   1.409   1.795   2.249 -1.5685  0.2307 -0.5087
  291MOL0     H38385   1.392   1.690   2.112 -1.3567  1.0022  0.6008
  291MOL0     H38386   1.269   1.661   2.396  1.0094 -1.7581  1.1117
  291MOL0     H38387   1.266   1.535   2.263 -0.0436  0.5295 -0.3403
  291MOL0     H38388   1.143   1.687   2.126 -2.3315 -1.8310  0.2735
  291MOL0     H38389   1.163   1.824   2.230 -1.0005  0.7103  1.3533
  291MOL0     H38390   1.001   1.568   2.251  1.3157 -0.4051  1.6532
  291MOL0     H38391   1.027   1.668   2.406  0.3359 -0.7139 -0.1068
  291MOL0     H38392   0.883   1.706   2.129 -0.5211 -1.2358  0.4006
  291MOL0     H38393   0.919   1.843   2.242 -1.0752 -0.2562 -0.9895
  291MOL0     H38394   2.080   1.737   2.329 -2.2291 -1.8383  2.4334
  291MOL0     H38395   2.298   1.622   2.346  0.7130 -0.3445 -0.4455
  291MOL0     H38396   2.594   1.179   1.938 -1.8932 -1.4057  0.6851
  291MOL0     H38397   2.759   1.030   2.013  1.4505  2.1264 -1.1635
  291MOL0     H38398   4.313   1.752   2.742  1.3011 -0.9841  1.4812
  291MOL0     H38399   4.293   1.902   2.969  0.8330 -2.0981  0.1808
  291MOL0     H38400   4.103   1.966   3.418  0.8684 -1.1037 -2.1870
  291MOL0     H38401   4.133   2.154   3.589 -1.1038 -1.0122 -0.1276
  291MOL0     H38402   4.226   2.334   3.684 -2.2283  0.4017  0.0459
  291MOL0     H38403   4.226   2.509   3.668  1.8449 -1.3802  1.9645
  291MOL0     H38404   4.432   2.411   3.611 -0.8520  1.1518  0.5082
  291MOL0     H38405   4.360   2.333   3.476 -0.2598 -0.0350  0.3534
  291MOL0     H38406   4.328   2.639   3.512  0.7096 -0.5561 -0.2468
  291MOL0     H38407   4.327   2.558   3.357  2.2170  0.5419 -0.7866
  291MOL0     H38408   4.577   2.548   3.509  0.6125 -0.3631 -0.6316
  291MOL0     H38409   4.551   2.530   3.332  1.0703  1.1672  0.4615
  291MOL0     H38410   4.572   2.945   3.386 -0.7006 -0.2589  2.0466
  291MOL0     H38411   4.029   2.434   3.292  0.2535 -1.1651  0.7400
  291MOL0     H38412   4.037   2.264   3.118  2.7474  2.9154  0.4623
  292MOL0     O38413   4.285   0.172  11.032 -0.0306 -0.1348  0.0815
  292MOL0     C38414   4.241   0.056  11.031  0.9527 -0.1648  0.1710
  292MOL0     O38415   4.315  -0.055  11.042  0.6447  0.4336  0.1237
  292MOL0     C38416   4.451  -0.041  11.061  0.0697 -0.5063  0.3053
  292MOL0     C38417   4.534  -0.110  10.974  0.2522  0.6983  0.4989
  292MOL0     C38418   4.669  -0.087  10.973 -0.1661 -0.1104 -0.2021
  292MOL0     C38419   4.731  -0.001  11.061 -0.3956 -0.1067  0.9112
  292MOL0     O38420   4.868   0.022  11.039 -0.2856 -0.3614 -0.2452
  292MOL0     C38421   4.943   0.125  11.118  0.5488 -0.0759  0.2481
  292MOL0     C38422   5.088   0.117  11.074  1.6167  0.0314 -0.2441
  292MOL0     C38423   5.178   0.223  11.128 -0.8301 -0.4409 -0.6474
  292MOL0     C38424   5.317   0.220  11.056 -0.4798 -0.0806  0.7100
  292MOL0     C38425   5.409   0.312  11.137 -0.0432 -0.2818 -0.2591
  292MOL0     C38426   5.555   0.284  11.131 -0.3780 -0.1733 -0.6887
  292MOL0     C38427   5.607   0.314  10.998  0.7055  0.1856  0.6238
  292MOL0     C38428   5.687   0.195  10.946 -0.0801 -0.6059 -0.3561
  292MOL0     N38429   5.749   0.224  10.813 -0.6421  1.1493  0.2969
  292MOL0     C38430   5.688   0.279  10.702 -0.1786  0.6385 -0.6639
  292MOL0     C38431   5.787   0.305  10.617 -0.4477  0.5402 -0.0027
  292MOL0     C38432   5.778   0.339  10.473 -0.7941 -0.9780  0.3358
  292MOL0     C38433   5.659   0.270  10.396 -0.4133 -0.4842  0.2896
  292MOL0     C38434   5.653   0.113  10.417 -0.0940  0.1373  0.2270
  292MOL0     C38435   5.503   0.061  10.394 -0.7682  0.0470  0.6598
  292MOL0     O38436   5.426   0.115  10.503 -0.7598 -0.3477  0.9874
  292MOL0     C38437   5.283   0.099  10.501 -0.8198  0.7048  0.4057
  292MOL0     C38438   5.215   0.124  10.617 -0.6211  0.2338  0.3982
  292MOL0     C38439   5.082   0.083  10.629  0.8387 -0.3009  0.4368
  292MOL0     C38440   5.015   0.036  10.516  0.0027  1.2819  0.7494
  292MOL0     C38441   4.876  -0.008  10.526  0.2289 -0.5689  0.0733
  292MOL0     O38442   4.801   0.060  10.624  0.5151 -1.3770 -0.1555
  292MOL0     C38443   4.665   0.057  10.647  0.5856 -1.0036  0.1850
  292MOL0     C38444   4.620   0.148  10.740 -1.0392  0.3711  0.2648
  292MOL0     C38445   4.478   0.157  10.763 -0.6867 -0.1210 -0.4405
  292MOL0     C38446   4.384   0.088  10.689 -0.4044 -0.0421 -1.2449
  292MOL0     O38447   4.247   0.131  10.713 -0.4809  0.1863  0.4402
  292MOL0     C38448   4.131   0.059  10.663  0.3429  0.6756  0.1929
  292MOL0     C38449   4.007   0.153  10.678  0.1357 -0.2457 -0.4767
  292MOL0     C38450   3.872   0.104  10.629  0.5969 -0.3725 -0.9222
  292MOL0     C38451   3.786   0.226  10.651  1.6572  0.2566 -0.6127
  292MOL0     C38452   3.646   0.199  10.597  0.4477  0.4245 -1.0780
  292MOL0     C38453   3.551   0.324  10.588  0.0662  0.2750 -0.0397
  292MOL0     C38454   3.405   0.293  10.637 -0.1001 -0.8701  0.1747
  292MOL0     C38455   3.339   0.210  10.533 -0.5877  0.7486  0.3431
  292MOL0    Cl38456   3.257   0.309  10.409  0.3692  0.0410  0.1041
  292MOL0     C38457   4.428  -0.007  10.592  0.4507 -1.0771  0.1496
  292MOL0     C38458   4.567  -0.017  10.579  0.6988  0.6042  0.0824
  292MOL0     O38459   4.828  -0.092  10.444  0.4214 -0.3247 -0.9293
  292MOL0     C38460   5.071   0.024  10.386  0.6773 -0.1490 -0.6385
  292MOL0     C38461   5.216   0.051  10.391  0.4452  0.1171  0.6066
  292MOL0     N38462   5.904   0.277  10.689 -0.0968 -0.7761 -0.3831
  292MOL0     N38463   5.881   0.227  10.801  0.2042 -0.3278 -0.1273
  292MOL0     C38464   4.650   0.067  11.155 -0.3421 -0.5510  0.0594
  292MOL0     C38465   4.510   0.046  11.158 -0.6325  1.4695  0.2540
  292MOL0     C38466   4.098   0.031  11.011 -0.6818 -0.3614 -0.0036
  292MOL0     C38467   4.002   0.130  11.051 -0.0423  0.1207 -0.4884
  292MOL0     C38468   3.864   0.111  11.060  0.8857  0.9746  1.0033
  292MOL0     C38469   3.816  -0.014  11.020 -0.2923 -0.0798 -0.2456
  292MOL0     O38470   3.679  -0.043  11.012 -0.6020 -0.3384 -0.6970
  292MOL0     C38471   3.579   0.065  11.015  0.6372  0.7459  0.8262
  292MOL0     C38472   3.440   0.006  11.002 -0.1798 -0.4872  0.0109
  292MOL0     C38473   3.408  -0.046  10.858  0.4082  0.1049 -0.4181
  292MOL0     C38474   3.266  -0.086  10.877 -0.9414 -0.1102  0.3256
  292MOL0     C38475   3.172   0.015  10.838 -0.5361  0.2217 -0.8759
  292MOL0     C38476   3.076   0.081  10.796 -0.0782 -0.9565 -1.6646
  292MOL0     C38477   3.906  -0.114  10.988 -0.0387 -0.1214 -0.4877
  292MOL0     C38478   4.043  -0.094  10.985  0.2016  0.4467 -0.1642
  292MOL0     H38479   4.494  -0.179  10.900  1.1835  1.8600 -1.1559
  292MOL0     H38480   4.724  -0.143  10.897  0.2516  0.0668 -0.0345
  292MOL0     H38481   4.941   0.086  11.220 -0.9662 -1.3460 -0.2279
  292MOL0     H38482   4.905   0.227  11.108  2.2385  0.4498 -1.3296
  292MOL0     H38483   5.098   0.128  10.965  0.7348 -0.1432 -0.3460
  292MOL0     H38484   5.131   0.022  11.106 -0.6975 -0.2072  2.4842
  292MOL0     H38485   5.189   0.207  11.236  2.3038  2.3398 -0.3863
  292MOL0     H38486   5.131   0.320  11.114 -0.7498 -0.4153 -0.7378
  292MOL0     H38487   5.353   0.118  11.037  3.1579  1.3363 -0.8332
  292MOL0     H38488   5.324   0.260  10.954 -1.0461  1.7826  1.3751
  292MOL0     H38489   5.387   0.313  11.245  0.7371 -3.5880  0.0351
  292MOL0     H38490   5.398   0.415  11.103 -0.9177 -0.3480 -0.1939
  292MOL0     H38491   5.587   0.188  11.173  0.8719  0.9203  1.0329
  292MOL0     H38492   5.602   0.356  11.199 -1.0702 -0.0713 -0.3096
  292MOL0     H38493   5.534   0.333  10.918  1.1489 -0.3039  0.0977
  292MOL0     H38494   5.667   0.406  10.995 -1.8274  1.9259  0.1366
  292MOL0     H38495   5.628   0.106  10.921  0.0832 -0.8829  0.2089
  292MOL0     H38496   5.765   0.161  11.015 -1.4548 -2.8971  0.2012
  292MOL0     H38497   5.584   0.304  10.684 -0.1312  1.6345  0.2945
  292MOL0     H38498   5.868   0.303  10.423  1.1028  1.5191  1.7265
  292MOL0     H38499   5.777   0.445  10.447 -1.6881 -1.5412 -2.2122
  292MOL0     H38500   5.665   0.302  10.292 -2.0694 -0.0086  0.3251
  292MOL0     H38501   5.564   0.307  10.434  0.1364  1.2422  0.0521
  292MOL0     H38502   5.724   0.066  10.349 -0.1771  1.6777 -0.9779
  292MOL0     H38503   5.682   0.081  10.518 -1.6385 -1.2569  0.2636
  292MOL0     H38504   5.501  -0.048  10.400  0.3928 -0.0359 -0.1557
  292MOL0     H38505   5.480   0.103  10.296  0.0754  0.1287  0.4865
  292MOL0     H38506   5.288   0.151  10.692  1.7967 -3.0937 -0.5019
  292MOL0     H38507   5.026   0.083  10.722 -0.8916 -5.5329 -0.2825
  292MOL0     H38508   4.691   0.213  10.790  1.0814  0.4335 -2.5894
  292MOL0     H38509   4.434   0.241  10.815  0.8575  1.7780 -1.9804
  292MOL0     H38510   4.109  -0.036  10.714 -1.1617  1.3189  0.7967
  292MOL0     H38511   4.150   0.042  10.557 -4.1515 -2.5655 -0.4203
  292MOL0     H38512   4.038   0.248  10.635  3.0736  0.1194  2.1424
  292MOL0     H38513   3.997   0.171  10.785 -1.7790 -0.3090 -0.6119
  292MOL0     H38514   3.827   0.024  10.688  0.2541 -2.1780 -3.4415
  292MOL0     H38515   3.876   0.077  10.523  0.1035 -1.1890 -0.7373
  292MOL0     H38516   3.784   0.262  10.754  2.0727 -0.6763 -0.2658
  292MOL0     H38517   3.816   0.310  10.588 -1.8520  1.9257 -0.2781
  292MOL0     H38518   3.597   0.127  10.664 -3.6987  3.9564  0.1033
  292MOL0     H38519   3.662   0.157  10.497  3.1785  0.1377 -0.5999
  292MOL0     H38520   3.561   0.386  10.498  1.2935 -1.0280 -0.8472
  292MOL0     H38521   3.587   0.385  10.671  1.4614 -2.0496  1.1535
  292MOL0     H38522   3.421   0.254  10.738  1.6522 -0.1104  0.2444
  292MOL0     H38523   3.357   0.388  10.664  2.0585  0.2185  0.5004
  292MOL0     H38524   3.270   0.137  10.577 -1.1848  0.5846 -0.8306
  292MOL0     H38525   3.407   0.152  10.471 -3.7738 -1.2111 -1.5924
  292MOL0     H38526   4.360  -0.069  10.535  0.5063 -2.2599  1.3135
  292MOL0     H38527   4.593  -0.093  10.507  0.8835  1.8753 -1.2579
  292MOL0     H38528   5.013  -0.008  10.301 -0.8538  3.0170 -0.9359
  292MOL0     H38529   5.251   0.040  10.288 -1.6514 -0.7378 -0.0681
  292MOL0     H38530   4.703   0.139  11.217 -0.2048  0.2938 -1.0002
  292MOL0     H38531   4.446   0.086  11.236 -0.8081  0.4566  0.6438
  292MOL0     H38532   4.036   0.228  11.084 -1.6640  0.1524  1.2143
  292MOL0     H38533   3.802   0.192  11.096  0.8162  2.5301 -2.2829
  292MOL0     H38534   3.585   0.136  10.932  1.3481  0.3286  0.5111
  292MOL0     H38535   3.574   0.123  11.108 -2.4517  0.2947  1.0406
  292MOL0     H38536   3.440  -0.076  11.074  5.7280 -2.0534 -1.1938
  292MOL0     H38537   3.377   0.092  11.027  2.0744  2.1015 -2.4248
  292MOL0     H38538   3.471  -0.130  10.825  1.2398  0.5060  0.1080
  292MOL0     H38539   3.423   0.028  10.779 -1.5173  0.9836 -0.0176
  292MOL0     H38540   3.245  -0.175  10.816  3.6010  0.5214 -2.6843
  292MOL0     H38541   3.236  -0.107  10.980 -3.6858  0.4780 -0.2791
  292MOL0     H38542   3.007   0.152  10.756  1.1617  0.1205 -1.9744
  292MOL0     H38543   3.860  -0.210  10.966 -0.1316 -0.0890 -0.4325
  292MOL0     H38544   4.101  -0.184  10.967  0.6842  0.9589 -1.3336
  293MOL0     O38545   0.345   4.923   8.049  0.1471 -0.3215 -0.3498
  293MOL0     C38546   0.381   4.833   7.972 -0.3930 -0.0837 -0.8458
  293MOL0     O38547   0.300   4.753   7.907  1.4204 -0.4863  0.1689
  293MOL0     C38548   0.164   4.760   7.938  0.2210  0.3651  0.1375
  293MOL0     C38549   0.097   4.648   7.986  0.1868  0.1002  0.1701
  293MOL0     C38550  -0.036   4.653   8.026  0.7932 -0.5243  0.4955
  293MOL0     C38551  -0.098   4.781   8.026 -0.0505 -0.1126  1.0626
  293MOL0     O38552  -0.227   4.801   8.057 -0.1189 -0.4630  0.1156
  293MOL0     C38553  -0.327   4.758   7.952 -0.6698 -0.1925  0.7054
  293MOL0     C38554  -0.459   4.740   8.019 -1.0155  0.3972  0.2474
  293MOL0     C38555  -0.564   4.861   8.010 -0.9782  0.6832 -0.4232
  293MOL0     C38556  -0.524   4.993   8.067 -0.1798 -0.1113  0.0394
  293MOL0     C38557  -0.644   5.065   8.126 -1.2417 -0.1173 -0.3358
  293MOL0     C38558  -0.733   5.121   8.020  0.2298  0.3459 -0.2722
  293MOL0     C38559  -0.850   5.187   8.091 -1.1097 -0.7682  1.1079
  293MOL0     C38560  -0.938   5.259   7.993 -0.2753 -0.0319  0.2891
  293MOL0     N38561  -1.039   5.339   8.056  0.3710 -1.2777 -0.0278
  293MOL0     C38562  -1.047   5.475   8.060  0.8957 -0.9145 -0.2505
  293MOL0     C38563  -1.177   5.500   8.102 -0.7453 -0.2862  0.2917
  293MOL0     C38564  -1.248   5.625   8.149 -0.4599 -0.0050  0.2130
  293MOL0     C38565  -1.305   5.605   8.289 -0.7874  0.0965 -0.2121
  293MOL0     C38566  -1.345   5.732   8.352 -0.1532 -0.2020  0.1444
  293MOL0     C38567  -1.493   5.758   8.349  0.3719 -0.5687 -0.2745
  293MOL0     O38568  -1.521   5.889   8.405  0.1456 -0.4362 -0.6106
  293MOL0     C38569  -1.645   5.943   8.383  0.4593  0.3699 -0.0902
  293MOL0     C38570  -1.762   5.873   8.349  0.9412 -0.2121  0.4553
  293MOL0     C38571  -1.885   5.934   8.329  0.1442 -0.0188 -0.7484
  293MOL0     C38572  -1.898   6.072   8.349  0.3793 -0.0369 -0.0383
  293MOL0     C38573  -2.027   6.137   8.333  0.6282 -0.3769  0.8200
  293MOL0     O38574  -2.138   6.056   8.357 -1.0992 -0.5119  0.4727
  293MOL0     C38575  -2.257   6.123   8.326 -1.3404  0.2541  0.2174
  293MOL0     C38576  -2.326   6.094   8.208  0.3251 -0.8501 -0.3052
  293MOL0     C38577  -2.442   6.165   8.172 -0.5500  0.9975 -0.8258
  293MOL0     C38578  -2.503   6.254   8.263  0.3079  0.0958  0.1569
  293MOL0     O38579  -2.618   6.320   8.234 -0.1210  0.4632 -0.0991
  293MOL0     C38580  -2.739   6.257   8.182  0.7416 -0.0502 -1.0010
  293MOL0     C38581  -2.830   6.371   8.174  0.0770  0.0806 -0.4357
  293MOL0     C38582  -2.972   6.329   8.128  0.1119  0.9900 -0.5633
  293MOL0     C38583  -2.991   6.286   7.988 -0.0667 -0.6180  0.5960
  293MOL0     C38584  -2.975   6.401   7.886 -0.8423 -0.6632 -0.6788
  293MOL0     C38585  -3.053   6.530   7.915  0.1507 -0.3852 -0.0247
  293MOL0     C38586  -2.975   6.623   8.004  0.4416  0.2274 -0.4336
  293MOL0     C38587  -2.985   6.779   7.958 -0.1482  0.7694 -0.9981
  293MOL0    Cl38588  -2.899   6.807   7.814 -0.0088 -0.5016 -0.1451
  293MOL0     C38589  -2.430   6.281   8.388  0.2799  0.0687 -0.5011
  293MOL0     C38590  -2.312   6.211   8.424  0.2983 -0.1128  0.4436
  293MOL0     O38591  -2.030   6.264   8.318 -0.2136  1.2403 -0.4935
  293MOL0     C38592  -1.786   6.146   8.399 -0.5994 -0.4414  0.9714
  293MOL0     C38593  -1.661   6.076   8.416 -0.1134 -0.9462  0.3135
  293MOL0     N38594  -1.240   5.385   8.124 -1.0254 -0.6401 -0.9674
  293MOL0     N38595  -1.154   5.285   8.103  0.2591  0.4331  0.7487
  293MOL0     C38596  -0.037   4.900   7.979 -0.1544 -0.1055 -0.6457
  293MOL0     C38597   0.096   4.888   7.938  0.3794 -0.1432 -0.2418
  293MOL0     C38598   0.526   4.806   7.951  0.2296  0.5274 -0.0320
  293MOL0     C38599   0.622   4.884   8.014  0.5564  0.5608 -0.4439
  293MOL0     C38600   0.757   4.854   8.004  1.0992 -0.8882  1.3069
  293MOL0     C38601   0.796   4.749   7.921  0.6333 -0.0948 -1.1743
  293MOL0     O38602   0.933   4.733   7.908 -0.4124  0.7225  0.2832
  293MOL0     C38603   0.985   4.597   7.884 -0.3153 -0.3696 -0.0134
  293MOL0     C38604   1.113   4.585   7.969  0.0433  0.0505  0.5268
  293MOL0     C38605   1.236   4.657   7.920 -0.1370 -0.3709  0.4738
  293MOL0     C38606   1.363   4.571   7.894  0.6922  0.5943 -0.2690
  293MOL0     C38607   1.486   4.651   7.895 -0.1648 -0.2058  0.1069
  293MOL0     C38608   1.593   4.698   7.893  0.4356 -0.1715  0.5954
  293MOL0     C38609   0.706   4.663   7.872  0.9586 -0.0660  0.2662
  293MOL0     C38610   0.570   4.697   7.871  0.1485 -0.5907  0.1109
  293MOL0     H38611   0.149   4.553   7.991  1.3606  0.4946 -2.5189
  293MOL0     H38612  -0.080   4.557   8.049 -2.1839  0.0909 -2.0754
  293MOL0     H38613  -0.289   4.665   7.909 -1.0298 -0.7586  1.5919
  293MOL0     H38614  -0.328   4.817   7.860 -0.6612 -1.5034 -0.1673
  293MOL0     H38615  -0.444   4.705   8.121  0.7109  0.1282 -0.0719
  293MOL0     H38616  -0.500   4.655   7.964 -1.3833 -0.8261  2.3444
  293MOL0     H38617  -0.641   4.827   8.080  0.2920  1.9442  1.7148
  293MOL0     H38618  -0.592   4.870   7.905 -0.0131 -0.0102 -0.7676
  293MOL0     H38619  -0.446   4.990   8.144 -0.0224 -0.9049 -0.1417
  293MOL0     H38620  -0.483   5.046   7.980 -2.9461  1.7553 -0.2486
  293MOL0     H38621  -0.612   5.153   8.181 -1.0158 -0.9156  0.8458
  293MOL0     H38622  -0.695   4.990   8.187  1.3198 -0.4714  1.5244
  293MOL0     H38623  -0.770   5.035   7.965  0.9889 -0.4423  0.4311
  293MOL0     H38624  -0.682   5.188   7.950 -2.0144  0.6302 -1.7505
  293MOL0     H38625  -0.915   5.113   8.139 -2.7632 -0.0599  0.0692
  293MOL0     H38626  -0.808   5.256   8.164 -1.6145 -0.0723  0.7436
  293MOL0     H38627  -0.987   5.196   7.919 -1.6279  2.0950 -0.7166
  293MOL0     H38628  -0.870   5.334   7.950 -1.0888  1.0779  0.8818
  293MOL0     H38629  -0.970   5.548   8.038  0.0016  0.8986  2.2584
  293MOL0     H38630  -1.333   5.645   8.083  0.1452  3.3144  0.2488
  293MOL0     H38631  -1.175   5.706   8.143  1.3308 -1.6038 -4.6762
  293MOL0     H38632  -1.238   5.565   8.366 -2.1683  3.4102  3.0149
  293MOL0     H38633  -1.387   5.534   8.275  1.2283 -2.3308 -0.4817
  293MOL0     H38634  -1.298   5.749   8.449  0.2702  2.6028 -0.4554
  293MOL0     H38635  -1.313   5.819   8.294 -1.2370  0.5210  0.5898
  293MOL0     H38636  -1.544   5.687   8.414 -0.6780  0.6106  0.2460
  293MOL0     H38637  -1.543   5.747   8.252 -4.1728  0.4980  1.6752
  293MOL0     H38638  -1.759   5.768   8.321 -0.8368 -0.0420 -0.5642
  293MOL0     H38639  -1.976   5.879   8.306 -0.1808  1.2609 -2.8314
  293MOL0     H38640  -2.285   6.028   8.132  0.7644 -0.9219 -0.0111
  293MOL0     H38641  -2.469   6.144   8.069  0.6549 -1.6344 -0.6875
  293MOL0     H38642  -2.776   6.182   8.251  1.5598  0.0385 -0.4536
  293MOL0     H38643  -2.721   6.214   8.083  1.7708 -0.5890 -0.5968
  293MOL0     H38644  -2.788   6.446   8.106 -1.2411  0.8169 -0.4767
  293MOL0     H38645  -2.849   6.422   8.269 -1.7363  1.8527 -1.6428
  293MOL0     H38646  -3.036   6.416   8.142  1.9504  2.4475 -0.7270
  293MOL0     H38647  -3.014   6.254   8.195 -0.6957  1.9593  0.0486
  293MOL0     H38648  -2.918   6.208   7.963  1.4615 -0.1259  3.1565
  293MOL0     H38649  -3.093   6.247   7.976 -0.6390  1.4088 -2.1533
  293MOL0     H38650  -3.013   6.367   7.789  0.2327 -1.0582 -0.9669
  293MOL0     H38651  -2.871   6.424   7.863  0.3902 -5.2052 -0.6024
  293MOL0     H38652  -3.149   6.496   7.955  0.6484 -0.0663  1.5311
  293MOL0     H38653  -3.074   6.583   7.821 -0.5049  1.9992  1.3697
  293MOL0     H38654  -3.011   6.619   8.107 -2.3254  0.0763 -1.3008
  293MOL0     H38655  -2.870   6.593   8.007 -0.2582 -2.3741  1.1229
  293MOL0     H38656  -2.936   6.837   8.036  0.4857 -1.8078  0.6216
  293MOL0     H38657  -3.087   6.812   7.938 -0.4400 -1.3447 -3.7043
  293MOL0     H38658  -2.481   6.328   8.471  1.5874 -2.5656  1.9239
  293MOL0     H38659  -2.266   6.223   8.522  0.6815  3.0775 -0.0192
  293MOL0     H38660  -1.801   6.252   8.413 -0.0457 -0.2545  0.2687
  293MOL0     H38661  -1.579   6.134   8.457  1.0886 -2.7148  0.5333
  293MOL0     H38662  -0.095   4.990   7.964 -2.7679 -1.1285  2.1999
  293MOL0     H38663   0.140   4.986   7.921 -0.9416  0.5956  0.3440
  293MOL0     H38664   0.581   4.965   8.074 -0.4393 -0.5123  0.3724
  293MOL0     H38665   0.838   4.912   8.047 -0.4638  1.1546  1.6832
  293MOL0     H38666   1.010   4.574   7.780  2.3230 -2.6414  0.9822
  293MOL0     H38667   0.910   4.527   7.922 -1.3481  0.3191 -0.7370
  293MOL0     H38668   1.089   4.637   8.062  0.9185  0.1446  0.7100
  293MOL0     H38669   1.123   4.479   7.993  0.2285 -0.4196 -1.4647
  293MOL0     H38670   1.261   4.743   7.984 -0.8272  0.0509  0.1951
  293MOL0     H38671   1.218   4.714   7.828 -1.7019 -0.9280  0.4077
  293MOL0     H38672   1.362   4.491   7.968 -0.7456 -1.0477 -1.9584
  293MOL0     H38673   1.344   4.528   7.795 -4.4270  1.1671  0.1864
  293MOL0     H38674   1.697   4.722   7.888  0.2655  0.3911 -3.1325
  293MOL0     H38675   0.733   4.573   7.818  1.6136  1.1844 -1.6118
  293MOL0     H38676   0.508   4.619   7.826 -0.1773  0.7016 -1.7821
  294MOL0     O38677   2.335   9.185   0.110  0.0622  0.1744 -0.3204
  294MOL0     C38678   2.301   9.284   0.173 -0.5970 -0.8817  0.1394
  294MOL0     O38679   2.184   9.300   0.240 -0.9683 -0.1026 -0.1378
  294MOL0     C38680   2.102   9.187   0.239 -0.1734  1.0601 -0.3455
  294MOL0     C38681   1.974   9.207   0.178  0.1380  0.1897 -0.4252
  294MOL0     C38682   1.881   9.097   0.152 -1.2139 -1.6655 -0.1047
  294MOL0     C38683   1.919   8.971   0.181  0.5095  1.2595 -1.5107
  294MOL0     O38684   1.841   8.857   0.157 -0.6867  0.2584  0.7635
  294MOL0     C38685   1.789   8.848   0.021 -0.4108  0.5690  0.2618
  294MOL0     C38686   1.698   8.723   0.017 -0.7238 -0.7704  0.8355
  294MOL0     C38687   1.660   8.674  -0.119 -0.5171  1.0719 -0.0248
  294MOL0     C38688   1.591   8.779  -0.209  0.4383  0.1815  0.1455
  294MOL0     C38689   1.465   8.730  -0.287  0.6592  0.2580  0.1400
  294MOL0     C38690   1.346   8.709  -0.196  0.1777 -0.2424 -0.4410
  294MOL0     C38691   1.234   8.624  -0.251  0.4594 -0.9167  0.2107
  294MOL0     C38692   1.269   8.475  -0.273 -0.6005 -0.0107  0.0597
  294MOL0     N38693   1.148   8.395  -0.297  0.1584  0.6854 -0.1034
  294MOL0     C38694   1.057   8.367  -0.192 -0.1971  0.1680 -0.7955
  294MOL0     C38695   0.960   8.299  -0.257 -0.2212 -1.1777 -0.1190
  294MOL0     C38696   0.861   8.217  -0.181  0.3232  0.2156 -0.0136
  294MOL0     C38697   0.895   8.070  -0.140 -0.2135 -0.4239  0.1890
  294MOL0     C38698   0.852   8.034  -0.000 -0.3138 -0.6698  1.2773
  294MOL0     C38699   0.886   7.894   0.027  0.4098 -0.9665  0.2172
  294MOL0     O38700   1.032   7.877   0.034 -0.7341  0.0977  0.4571
  294MOL0     C38701   1.064   7.758   0.091 -1.6534 -0.6217 -0.2041
  294MOL0     C38702   0.996   7.640   0.070 -0.7990  0.3323  0.1117
  294MOL0     C38703   1.011   7.529   0.155  0.2904  0.1953 -0.1468
  294MOL0     C38704   1.107   7.533   0.255  0.2592  1.0611  0.1891
  294MOL0     C38705   1.136   7.421   0.344 -0.0071  1.2423 -0.2933
  294MOL0     O38706   1.248   7.438   0.422  0.5667 -0.1317  0.2005
  294MOL0     C38707   1.274   7.337   0.512  0.7849  0.8571 -0.4659
  294MOL0     C38708   1.386   7.261   0.484 -0.5187 -0.1066  0.3138
  294MOL0     C38709   1.425   7.154   0.571  0.9827 -0.3785  0.0542
  294MOL0     C38710   1.344   7.120   0.678  0.2662  0.6631 -1.0005
  294MOL0     O38711   1.383   7.010   0.748  0.6428 -0.5625  0.3764
  294MOL0     C38712   1.304   6.946   0.844  1.1881  0.0020 -0.5976
  294MOL0     C38713   1.380   6.826   0.894 -0.0432  0.2071  0.0807
  294MOL0     C38714   1.284   6.729   0.964  0.6368 -0.9285  0.1532
  294MOL0     C38715   1.345   6.588   0.994 -0.4311  0.0168  0.8240
  294MOL0     C38716   1.240   6.504   1.072  0.1824 -0.6220 -1.2602
  294MOL0     C38717   1.147   6.429   0.985  1.0431 -0.0711  0.2073
  294MOL0     C38718   1.051   6.326   1.047  0.3495 -0.9019  0.3112
  294MOL0     C38719   0.964   6.246   0.960 -0.0788 -0.1782 -0.9968
  294MOL0    Cl38720   0.889   6.350   0.842  0.2916  0.4474  0.1328
  294MOL0     C38721   1.224   7.187   0.697 -0.1354  0.7229 -0.2149
  294MOL0     C38722   1.188   7.297   0.619  0.3104 -0.3001  0.2724
  294MOL0     O38723   1.067   7.321   0.338  0.2640 -0.5457 -0.0612
  294MOL0     C38724   1.185   7.653   0.271 -0.6232 -0.5496  0.9680
  294MOL0     C38725   1.162   7.763   0.187  0.0864 -0.2477 -0.4683
  294MOL0     N38726   0.990   8.295  -0.398 -0.0865 -0.9512 -0.3283
  294MOL0     N38727   1.099   8.358  -0.421  0.1382 -0.9077 -0.3486
  294MOL0     C38728   2.046   8.944   0.247  0.0086  0.1531 -0.1950
  294MOL0     C38729   2.138   9.053   0.275  0.3997 -0.4071 -0.6717
  294MOL0     C38730   2.407   9.385   0.193 -0.0279  0.2082  0.3265
  294MOL0     C38731   2.505   9.395   0.093 -0.8474  0.3198 -0.1692
  294MOL0     C38732   2.601   9.499   0.107  0.9561  0.0353 -0.0787
  294MOL0     C38733   2.594   9.599   0.205 -1.4018 -0.3983  0.4025
  294MOL0     O38734   2.680   9.704   0.223 -0.6708 -0.4559  0.1511
  294MOL0     C38735   2.823   9.677   0.200  0.0568  0.9354 -0.4018
  294MOL0     C38736   2.914   9.706   0.317  0.4077 -0.6147 -0.3218
  294MOL0     C38737   3.058   9.698   0.263 -0.6004 -0.8746 -0.6991
  294MOL0     C38738   3.158   9.719   0.386 -0.7824 -0.3342  0.2596
  294MOL0     C38739   3.298   9.744   0.343  0.2169  0.1020 -0.1552
  294MOL0     C38740   3.398   9.772   0.292  0.1171  0.9492  1.2241
  294MOL0     C38741   2.495   9.588   0.293 -0.6876 -0.2205 -0.6722
  294MOL0     C38742   2.401   9.488   0.290  1.0515 -0.3700 -0.3604
  294MOL0     H38743   1.932   9.306   0.162 -0.5671 -0.4127 -2.8718
  294MOL0     H38744   1.777   9.110   0.124 -0.3171  1.6176 -2.6616
  294MOL0     H38745   1.877   8.839  -0.043 -0.6836 -0.4606  0.0031
  294MOL0     H38746   1.730   8.937  -0.004  1.7157  2.1009  0.4791
  294MOL0     H38747   1.611   8.753   0.077 -0.3909  2.0868  0.0148
  294MOL0     H38748   1.749   8.640   0.068  2.8769  0.3582 -0.6132
  294MOL0     H38749   1.592   8.589  -0.109  0.6149  0.1522  0.1295
  294MOL0     H38750   1.745   8.642  -0.180 -2.2741 -1.6591 -1.2247
  294MOL0     H38751   1.565   8.867  -0.149 -0.4174  0.1906 -0.2253
  294MOL0     H38752   1.653   8.818  -0.289  0.4259  1.2402  0.6421
  294MOL0     H38753   1.485   8.635  -0.338  1.7849  1.0089 -0.8478
  294MOL0     H38754   1.438   8.795  -0.370  0.5600 -0.2636 -0.2470
  294MOL0     H38755   1.300   8.808  -0.187 -0.3482 -0.5574  0.4126
  294MOL0     H38756   1.362   8.681  -0.092 -0.8072  4.2267  1.1371
  294MOL0     H38757   1.151   8.628  -0.180  1.6920 -1.1421  1.6985
  294MOL0     H38758   1.189   8.657  -0.346 -2.9067 -3.9882  0.5001
  294MOL0     H38759   1.320   8.434  -0.185  0.9550 -1.6730 -1.5355
  294MOL0     H38760   1.327   8.471  -0.366 -2.0820  5.1863 -1.4249
  294MOL0     H38761   1.065   8.378  -0.085 -0.0445  1.4121 -0.9186
  294MOL0     H38762   0.769   8.224  -0.241  1.0068 -2.8627 -1.6069
  294MOL0     H38763   0.844   8.278  -0.092 -0.7559  1.3830 -0.9811
  294MOL0     H38764   1.002   8.045  -0.136  0.7225  3.0321  0.0894
  294MOL0     H38765   0.852   8.004  -0.216  1.4403 -2.0132  0.5597
  294MOL0     H38766   0.901   8.098   0.074  3.6449 -3.2214  1.1553
  294MOL0     H38767   0.743   8.044   0.010 -1.0229 -2.3117 -2.7552
  294MOL0     H38768   0.839   7.831  -0.049 -0.6436 -1.4232  1.2220
  294MOL0     H38769   0.854   7.870   0.129  2.1848  0.3720  1.1563
  294MOL0     H38770   0.933   7.639  -0.019  0.1856 -0.6229 -0.6018
  294MOL0     H38771   0.961   7.434   0.136  0.0257  0.3280 -0.1073
  294MOL0     H38772   1.451   7.290   0.402 -0.6251 -1.3085 -0.2241
  294MOL0     H38773   1.517   7.102   0.546  0.0316 -2.1053  0.0486
  294MOL0     H38774   1.199   6.926   0.819  0.9991  0.7596 -0.4581
  294MOL0     H38775   1.294   7.013   0.930  1.8348  0.7773 -1.1064
  294MOL0     H38776   1.457   6.857   0.964  0.8584 -2.9467  0.6391
  294MOL0     H38777   1.440   6.780   0.815  1.3191  3.5662 -1.0427
  294MOL0     H38778   1.192   6.704   0.910  0.0312 -1.3101  1.3402
  294MOL0     H38779   1.244   6.769   1.057  0.9540 -0.7189  0.1994
  294MOL0     H38780   1.361   6.547   0.894  1.3923  2.5784 -0.0418
  294MOL0     H38781   1.437   6.587   1.052  0.9396  1.3453 -1.2183
  294MOL0     H38782   1.187   6.583   1.126  1.1569  1.1887 -2.8130
  294MOL0     H38783   1.286   6.439   1.147 -0.7596  1.5198  1.3359
  294MOL0     H38784   1.205   6.381   0.906  1.4772  1.8911 -0.7267
  294MOL0     H38785   1.085   6.505   0.937 -1.4997 -0.2471  2.9553
  294MOL0     H38786   1.114   6.260   1.108  0.5505  0.8793  2.1239
  294MOL0     H38787   0.984   6.374   1.119  1.3747  0.0163  0.6759
  294MOL0     H38788   0.900   6.173   1.012  1.3995 -1.4787 -0.9422
  294MOL0     H38789   1.034   6.179   0.909 -1.8560 -2.2479 -0.9011
  294MOL0     H38790   1.151   7.162   0.773 -1.3757 -0.5061 -1.7373
  294MOL0     H38791   1.094   7.349   0.633  1.4949  2.5159 -1.2467
  294MOL0     H38792   1.269   7.666   0.339  2.5741 -2.0515 -2.3072
  294MOL0     H38793   1.215   7.858   0.196  3.1565 -1.9027  0.1600
  294MOL0     H38794   2.077   8.844   0.279 -3.1152 -0.4141  1.4578
  294MOL0     H38795   2.233   9.038   0.325  1.4791  1.0322 -2.2225
  294MOL0     H38796   2.500   9.332   0.005  0.6036 -0.9429  0.6174
  294MOL0     H38797   2.681   9.497   0.033 -0.0583 -0.8129 -1.2010
  294MOL0     H38798   2.855   9.738   0.116  0.8566 -0.0865 -0.8602
  294MOL0     H38799   2.842   9.570   0.183 -1.8810  0.6448 -1.0665
  294MOL0     H38800   2.901   9.807   0.358 -0.7544 -2.2032  3.8169
  294MOL0     H38801   2.902   9.628   0.393  0.4525  0.3076  0.6547
  294MOL0     H38802   3.070   9.777   0.189 -0.5839  1.4042  1.6230
  294MOL0     H38803   3.087   9.606   0.211 -0.1501 -1.8705  1.2011
  294MOL0     H38804   3.125   9.799   0.451  0.3836 -0.1787  0.6912
  294MOL0     H38805   3.152   9.632   0.452 -2.6554 -0.0400  0.5142
  294MOL0     H38806   3.495   9.800   0.254 -0.6901  4.7657  1.5843
  294MOL0     H38807   2.489   9.662   0.372 -1.8714  0.7162 -1.6084
  294MOL0     H38808   2.323   9.479   0.366  0.3878  0.2169 -0.9572
  295MOL0     O38809   3.699   0.177   2.980  0.0788  0.4705 -0.1325
  295MOL0     C38810   3.703   0.060   3.022 -0.1523 -0.3055 -0.5287
  295MOL0     O38811   3.598   0.006   3.097 -0.2250  0.2140 -0.7447
  295MOL0     C38812   3.473   0.062   3.071 -0.0310 -0.2800 -0.7217
  295MOL0     C38813   3.404   0.041   2.953 -0.1313 -0.0533 -0.2500
  295MOL0     C38814   3.286   0.102   2.927  0.2597 -0.4401  0.1676
  295MOL0     C38815   3.236   0.196   3.025 -0.1752  0.0175 -0.1809
  295MOL0     O38816   3.119   0.265   3.005  0.2424  0.5661 -0.3066
  295MOL0     C38817   3.026   0.212   2.911  0.8896 -0.1423  0.8250
  295MOL0     C38818   2.882   0.277   2.940  0.4017  0.1903  0.3699
  295MOL0     C38819   2.779   0.239   2.825 -0.3936 -0.4629  0.4845
  295MOL0     C38820   2.656   0.326   2.851 -0.2127  0.3979 -0.1121
  295MOL0     C38821   2.535   0.301   2.762  0.8772  0.9308  0.3960
  295MOL0     C38822   2.401   0.338   2.827 -0.0791  0.4831 -0.2104
  295MOL0     C38823   2.393   0.482   2.867  0.1458 -0.4604 -0.0403
  295MOL0     C38824   2.258   0.538   2.921  0.6499  0.4314  0.6563
  295MOL0     N38825   2.267   0.676   2.969  0.3404 -0.3467 -0.2915
  295MOL0     C38826   2.165   0.736   3.033 -0.0237  0.3690  0.7072
  295MOL0     C38827   2.216   0.834   3.100 -0.7249 -0.3882  0.7385
  295MOL0     C38828   2.133   0.949   3.160 -1.0791  0.3867 -0.3388
  295MOL0     C38829   2.075   0.904   3.292  0.0275  0.4561  0.2129
  295MOL0     C38830   2.013   1.018   3.376 -0.9576 -0.7378 -0.1934
  295MOL0     C38831   2.103   1.143   3.404 -0.4136  0.3985  0.8989
  295MOL0     O38832   2.044   1.249   3.474  1.2571 -0.3938 -0.1188
  295MOL0     C38833   1.974   1.224   3.587  0.3398 -0.5231 -0.6425
  295MOL0     C38834   2.020   1.133   3.689 -0.4835 -0.7287  1.0883
  295MOL0     C38835   1.940   1.131   3.805  0.1023 -0.1791  1.2419
  295MOL0     C38836   1.835   1.220   3.839 -0.3242 -0.2212 -0.5072
  295MOL0     C38837   1.786   1.224   3.980 -0.2798  0.2001  0.0987
  295MOL0     O38838   1.848   1.136   4.066 -0.2477  0.0997 -0.5057
  295MOL0     C38839   1.804   1.128   4.191  0.4306  0.6012 -0.9515
  295MOL0     C38840   1.766   1.232   4.273  1.0053  0.1940  0.2249
  295MOL0     C38841   1.713   1.210   4.403  0.4782 -0.2039  0.0435
  295MOL0     C38842   1.702   1.081   4.455  1.0620  0.2647  0.1660
  295MOL0     O38843   1.648   1.051   4.576  0.5158 -0.3341  0.0949
  295MOL0     C38844   1.650   1.155   4.679  0.0714  0.3338 -0.4435
  295MOL0     C38845   1.604   1.082   4.808 -0.9653  0.3636  0.5719
  295MOL0     C38846   1.678   0.956   4.847 -0.5184  0.4659 -0.4379
  295MOL0     C38847   1.829   0.973   4.878 -0.4439 -0.3110 -0.3040
  295MOL0     C38848   1.874   1.085   4.984  0.2374  0.4387  0.0941
  295MOL0     C38849   2.028   1.081   5.005  0.2693 -0.4163 -0.8293
  295MOL0     C38850   2.068   1.141   5.151 -0.3027 -0.3190  0.0656
  295MOL0     C38851   2.207   1.184   5.181  0.2136  0.1739 -0.6695
  295MOL0    Cl38852   2.334   1.097   5.098 -0.1240 -0.0124  0.0192
  295MOL0     C38853   1.741   0.971   4.372 -0.0829  0.9123 -0.2035
  295MOL0     C38854   1.793   1.001   4.242  0.1794 -0.6002 -1.1222
  295MOL0     O38855   1.689   1.291   4.006  0.2178  0.3450  0.2132
  295MOL0     C38856   1.790   1.307   3.734 -0.3249 -0.5118  1.0217
  295MOL0     C38857   1.860   1.301   3.618 -0.0006  1.2827  0.4584
  295MOL0     N38858   2.350   0.830   3.096 -0.7578  0.7439 -0.7470
  295MOL0     N38859   2.384   0.736   3.011  0.9500 -0.1722 -0.3854
  295MOL0     C38860   3.296   0.209   3.147 -0.4235  0.8313 -0.1792
  295MOL0     C38861   3.420   0.144   3.173 -0.2977 -0.0028  0.5358
  295MOL0     C38862   3.818  -0.020   3.002 -0.3203  1.5552  0.3971
  295MOL0     C38863   3.819  -0.162   3.043 -0.2165  0.4811 -0.6293
  295MOL0     C38864   3.942  -0.239   3.026  1.0677  0.3410 -0.1585
  295MOL0     C38865   4.056  -0.185   2.964 -0.7484 -0.1756  0.1408
  295MOL0     O38866   4.178  -0.255   2.957  0.0340 -0.3310 -0.3726
  295MOL0     C38867   4.177  -0.395   2.997 -0.7826 -0.3764 -0.2281
  295MOL0     C38868   4.109  -0.499   2.913  0.1616  0.2372 -0.4205
  295MOL0     C38869   4.082  -0.444   2.773 -0.1574  0.0442 -0.4040
  295MOL0     C38870   4.020  -0.553   2.682 -0.1299  0.4010  0.4572
  295MOL0     C38871   4.130  -0.637   2.645  1.1961  0.4098 -0.3615
  295MOL0     C38872   4.219  -0.714   2.631 -0.5965  0.3783  0.9094
  295MOL0     C38873   4.045  -0.052   2.929 -0.1496  0.0788  0.0571
  295MOL0     C38874   3.931   0.021   2.941  0.0865 -1.0542  0.4440
  295MOL0     H38875   3.441  -0.031   2.881 -1.8714 -0.3141 -0.9390
  295MOL0     H38876   3.233   0.077   2.836 -3.2279 -1.0679  2.1834
  295MOL0     H38877   3.006   0.105   2.918  0.0576  0.0569  1.5992
  295MOL0     H38878   3.052   0.241   2.808 -2.4977  0.8733  0.1279
  295MOL0     H38879   2.891   0.386   2.935  1.5634  0.0464 -1.3727
  295MOL0     H38880   2.848   0.236   3.036  1.3769 -0.2247  0.5442
  295MOL0     H38881   2.731   0.141   2.827 -0.8664 -0.3909 -2.7207
  295MOL0     H38882   2.812   0.249   2.721 -3.2218  1.6125 -0.3056
  295MOL0     H38883   2.637   0.316   2.958  2.7977 -3.1705  0.2852
  295MOL0     H38884   2.681   0.432   2.845  4.2050 -0.3698  1.1658
  295MOL0     H38885   2.526   0.203   2.713  1.3439  3.2081 -4.8817
  295MOL0     H38886   2.542   0.358   2.668 -6.6614 -2.1860 -2.9043
  295MOL0     H38887   2.370   0.270   2.906 -1.4465  1.3193  0.0197
  295MOL0     H38888   2.326   0.338   2.747  1.6457  1.1335 -1.9220
  295MOL0     H38889   2.463   0.495   2.949 -0.5331 -0.9029  0.6293
  295MOL0     H38890   2.416   0.545   2.780 -0.8299 -0.6599 -0.4573
  295MOL0     H38891   2.228   0.474   3.005 -0.9917  0.8896  0.4668
  295MOL0     H38892   2.177   0.537   2.848  3.2081 -1.2974 -2.3826
  295MOL0     H38893   2.063   0.704   3.018  1.1471 -1.9356 -4.5986
  295MOL0     H38894   2.047   0.968   3.095 -0.5797 -0.2566 -1.2029
  295MOL0     H38895   2.198   1.036   3.178 -3.2788  1.5496  2.8426
  295MOL0     H38896   2.156   0.860   3.351 -1.4119 -0.3912  1.6325
  295MOL0     H38897   2.003   0.823   3.279 -1.1686  1.5128  0.0998
  295MOL0     H38898   1.922   1.055   3.328 -0.2663  0.0749 -0.9270
  295MOL0     H38899   2.001   0.960   3.468  1.3581 -2.6314 -0.9897
  295MOL0     H38900   2.148   1.194   3.318 -1.2518  1.9752  1.3558
  295MOL0     H38901   2.184   1.109   3.470  0.4458  0.3581 -0.1554
  295MOL0     H38902   2.108   1.070   3.687 -0.7574 -1.1032  0.6131
  295MOL0     H38903   1.975   1.072   3.889  0.3132  2.4813  3.1221
  295MOL0     H38904   1.772   1.334   4.236  2.0307 -0.6086 -2.0052
  295MOL0     H38905   1.674   1.297   4.454 -0.9678  0.3588 -1.8638
  295MOL0     H38906   1.568   1.223   4.655  1.0364  2.4159  1.7974
  295MOL0     H38907   1.751   1.195   4.688  0.3453 -0.2703 -0.7750
  295MOL0     H38908   1.497   1.063   4.800 -0.5682 -1.3162 -1.6016
  295MOL0     H38909   1.610   1.161   4.884  3.3561  1.2972 -0.4349
  295MOL0     H38910   1.673   0.873   4.775  1.5224 -0.7149  0.6661
  295MOL0     H38911   1.626   0.908   4.931 -3.2542 -2.9565 -3.7071
  295MOL0     H38912   1.869   0.879   4.916 -1.6213 -1.6637 -2.2374
  295MOL0     H38913   1.879   1.001   4.784  1.3320  0.0032  0.6951
  295MOL0     H38914   1.825   1.052   5.077  0.4423  1.7444  0.6813
  295MOL0     H38915   1.832   1.182   4.955 -1.4794 -0.2228  0.2124
  295MOL0     H38916   2.085   1.121   4.921  1.6219  2.2845  1.2252
  295MOL0     H38917   2.045   0.973   5.012 -5.2027 -1.4975  0.3846
  295MOL0     H38918   1.996   1.214   5.188 -0.4283  0.0352 -0.8517
  295MOL0     H38919   2.049   1.060   5.222  1.3976 -1.2670 -0.4931
  295MOL0     H38920   2.228   1.199   5.288  1.5260 -0.3098 -0.8418
  295MOL0     H38921   2.201   1.290   5.155  0.1744  0.4528  0.4078
  295MOL0     H38922   1.725   0.868   4.403 -2.1118  1.1706 -0.2322
  295MOL0     H38923   1.815   0.914   4.181  1.6292 -0.0329 -1.4586
  295MOL0     H38924   1.719   1.388   3.746 -1.2077 -1.2467  0.8012
  295MOL0     H38925   1.842   1.371   3.537 -1.1554  1.3140  0.7251
  295MOL0     H38926   3.243   0.283   3.206 -4.1446  0.4586 -2.7132
  295MOL0     H38927   3.484   0.159   3.260  1.4898 -2.4484 -0.2382
  295MOL0     H38928   3.725  -0.192   3.088 -0.2377  0.9958 -0.3190
  295MOL0     H38929   3.935  -0.344   3.053 -0.8378  0.1144 -1.3438
  295MOL0     H38930   4.142  -0.404   3.100  0.2341  0.3355  0.2001
  295MOL0     H38931   4.284  -0.406   3.013 -0.6900 -1.0680 -1.2441
  295MOL0     H38932   4.175  -0.585   2.916  3.5950  2.6768  2.0241
  295MOL0     H38933   4.010  -0.525   2.952  0.3740  0.7031  0.4697
  295MOL0     H38934   4.169  -0.395   2.729 -0.2695  2.0566  1.3920
  295MOL0     H38935   4.004  -0.369   2.789  1.9388  2.0633  1.0274
  295MOL0     H38936   3.951  -0.621   2.733  0.7242 -0.4080  0.5467
  295MOL0     H38937   3.968  -0.512   2.595 -2.1466 -1.3415  0.7365
  295MOL0     H38938   4.308  -0.769   2.609 -2.0201 -0.8703 -2.3936
  295MOL0     H38939   4.133  -0.004   2.888  0.0721  1.4105  1.9529
  295MOL0     H38940   3.932   0.115   2.887  3.3405 -2.3573 -2.1852
  296MOL0     O38941   6.741   4.839   9.728  1.1553 -0.5744  0.1885
  296MOL0     C38942   6.793   4.935   9.680 -1.5091  0.4740  0.0247
  296MOL0     O38943   6.743   5.060   9.655 -0.3033 -0.0262  0.2407
  296MOL0     C38944   6.610   5.076   9.655 -0.1824 -0.1381 -0.1408
  296MOL0     C38945   6.516   4.980   9.607 -1.0750  0.0188  0.0799
  296MOL0     C38946   6.378   4.994   9.628 -0.4670  0.3250  0.8794
  296MOL0     C38947   6.322   5.111   9.690  0.9103 -0.0724  0.7398
  296MOL0     O38948   6.195   5.134   9.709  0.3974  0.6692 -0.1973
  296MOL0     C38949   6.145   5.266   9.740  0.4411 -0.0721 -0.3497
  296MOL0     C38950   5.997   5.248   9.762 -1.3759 -0.6156  0.2376
  296MOL0     C38951   5.927   5.239   9.631 -0.0356  0.8618 -0.1691
  296MOL0     C38952   5.772   5.223   9.637 -0.6266  1.2738  0.3761
  296MOL0     C38953   5.738   5.100   9.720  0.1409 -0.4738  0.6454
  296MOL0     C38954   5.588   5.065   9.684  1.0198  0.4321  0.6067
  296MOL0     C38955   5.543   4.931   9.744 -0.0689  0.8368  0.0853
  296MOL0     C38956   5.525   4.919   9.901  0.3186 -1.1538  0.6597
  296MOL0     N38957   5.512   4.783   9.960  0.1940  0.4155 -0.3769
  296MOL0     C38958   5.417   4.689   9.912 -0.8594 -1.3417 -0.0180
  296MOL0     C38959   5.428   4.583   9.992  0.2142 -0.0336  0.8248
  296MOL0     C38960   5.345   4.458   9.969  0.0038 -0.2991  0.6900
  296MOL0     C38961   5.429   4.353   9.899  0.7041  0.0465 -0.3758
  296MOL0     C38962   5.488   4.404   9.767  1.3914  0.3591 -0.2906
  296MOL0     C38963   5.542   4.283   9.701 -0.0831 -0.2243  0.6301
  296MOL0     O38964   5.659   4.219   9.764 -0.2657 -0.1610  0.3192
  296MOL0     C38965   5.703   4.113   9.697 -0.4293  0.7417  0.3692
  296MOL0     C38966   5.687   4.077   9.567  0.8727 -0.4371  0.9487
  296MOL0     C38967   5.768   3.975   9.512  0.0221 -0.1892 -0.2335
  296MOL0     C38968   5.857   3.905   9.588  0.9716 -0.2702 -0.8275
  296MOL0     C38969   5.925   3.786   9.545 -0.4316  0.4691 -0.1694
  296MOL0     O38970   6.055   3.758   9.588 -0.3350  0.7832  0.6580
  296MOL0     C38971   6.143   3.697   9.497 -0.4866  0.0938 -0.6043
  296MOL0     C38972   6.142   3.703   9.358  0.6046  0.6060  0.4649
  296MOL0     C38973   6.253   3.662   9.277 -0.6855 -0.0444 -0.1804
  296MOL0     C38974   6.371   3.604   9.329 -0.3118 -0.1824  0.4615
  296MOL0     O38975   6.481   3.590   9.251  0.2562 -0.1222  0.5181
  296MOL0     C38976   6.568   3.469   9.279  0.4262  0.3029 -0.2655
  296MOL0     C38977   6.652   3.433   9.147  0.3185 -0.1248 -0.7132
  296MOL0     C38978   6.742   3.553   9.105 -0.2102 -0.7396 -0.5622
  296MOL0     C38979   6.868   3.523   9.025 -0.7255 -0.0749  0.0282
  296MOL0     C38980   6.968   3.459   9.126  0.5058 -0.0657 -0.2149
  296MOL0     C38981   7.083   3.405   9.044 -0.1983  0.1807 -0.0334
  296MOL0     C38982   7.188   3.320   9.103  0.1418  0.8063  0.2786
  296MOL0     C38983   7.259   3.395   9.215 -0.8670 -0.0251  0.8056
  296MOL0    Cl38984   7.440   3.385   9.205 -0.2521 -0.3248  0.0196
  296MOL0     C38985   6.369   3.587   9.466 -0.3507 -0.0265 -0.0293
  296MOL0     C38986   6.266   3.641   9.543  0.6857  0.3225  0.2077
  296MOL0     O38987   5.861   3.721   9.463 -0.5548  0.2635 -0.1489
  296MOL0     C38988   5.871   3.939   9.722  0.1980  1.0152  0.3829
  296MOL0     C38989   5.789   4.041   9.773 -0.3214 -0.1521  0.0783
  296MOL0     N38990   5.535   4.610  10.079  0.5332 -0.5092 -0.6110
  296MOL0     N38991   5.591   4.726  10.054 -0.5370  0.1023 -0.1896
  296MOL0     C38992   6.415   5.200   9.743 -0.1376 -0.4282 -1.4165
  296MOL0     C38993   6.555   5.189   9.719  0.9664 -0.1597 -0.1554
  296MOL0     C38994   6.943   4.909   9.662 -0.2315 -0.7855 -0.5343
  296MOL0     C38995   7.030   5.013   9.634  0.0895 -0.1249 -0.5495
  296MOL0     C38996   7.162   4.999   9.607 -0.5553  0.4840 -0.1939
  296MOL0     C38997   7.228   4.868   9.620  0.6400  0.7351  0.6553
  296MOL0     O38998   7.357   4.842   9.571  0.0038  0.3393 -0.1957
  296MOL0     C38999   7.430   4.722   9.592 -0.8782 -0.5706  0.4775
  296MOL0     C39000   7.553   4.713   9.499  0.7694  0.1585 -0.3937
  296MOL0     C39001   7.662   4.820   9.521 -0.8781 -0.8191 -0.3367
  296MOL0     C39002   7.767   4.837   9.408  0.7646 -0.4242 -0.7482
  296MOL0     C39003   7.847   4.710   9.413  0.5547  0.6018  0.5180
  296MOL0     C39004   7.908   4.605   9.408 -0.3515  0.2633  0.8499
  296MOL0     C39005   7.141   4.764   9.658  0.6442  0.3188  0.3430
  296MOL0     C39006   7.001   4.778   9.673 -0.0332 -0.6471  0.5808
  296MOL0     H39007   6.546   4.880   9.578 -1.2402 -0.1221  0.3834
  296MOL0     H39008   6.310   4.929   9.574 -2.0059  2.4717  0.0735
  296MOL0     H39009   6.174   5.340   9.665  0.7430 -1.1288 -1.3070
  296MOL0     H39010   6.187   5.304   9.833  0.3797 -1.5729  0.3195
  296MOL0     H39011   5.966   5.340   9.812  1.0905  1.6283 -1.9952
  296MOL0     H39012   5.978   5.162   9.827 -0.8228 -1.7426 -1.0612
  296MOL0     H39013   5.965   5.148   9.584  1.8992  2.3161 -1.5876
  296MOL0     H39014   5.962   5.321   9.567  1.3834  0.7180  0.3762
  296MOL0     H39015   5.720   5.316   9.664  1.6325  3.0324 -1.0128
  296MOL0     H39016   5.742   5.219   9.532 -3.0536  1.4712  0.9961
  296MOL0     H39017   5.733   5.125   9.826 -2.2430 -1.0164  0.7143
  296MOL0     H39018   5.810   5.022   9.694  0.7515 -0.3989  2.0559
  296MOL0     H39019   5.587   5.062   9.574  0.9493  2.8384  0.4949
  296MOL0     H39020   5.527   5.148   9.720  0.3281  0.2368 -0.0904
  296MOL0     H39021   5.453   4.895   9.692  1.3537  0.0305 -1.9797
  296MOL0     H39022   5.617   4.857   9.710  0.3146  1.6817 -0.9783
  296MOL0     H39023   5.442   4.978   9.940  2.1677  1.2262  1.1718
  296MOL0     H39024   5.617   4.967   9.935  1.2847 -0.9529 -2.0226
  296MOL0     H39025   5.347   4.701   9.830  1.2612 -0.4355 -1.8014
  296MOL0     H39026   5.261   4.485   9.905  1.0384 -0.8500 -0.9459
  296MOL0     H39027   5.297   4.424  10.062 -0.7904  0.8411  0.7160
  296MOL0     H39028   5.373   4.259   9.909  0.4348  0.4658  3.3873
  296MOL0     H39029   5.515   4.333   9.964  0.7557 -0.4475 -0.5851
  296MOL0     H39030   5.419   4.453   9.697  1.2639  1.0378  0.2986
  296MOL0     H39031   5.563   4.480   9.793 -0.1126  1.3779  1.2296
  296MOL0     H39032   5.553   4.313   9.597  0.2978  1.3660  1.1030
  296MOL0     H39033   5.467   4.203   9.701 -0.4226  0.0915  0.5187
  296MOL0     H39034   5.622   4.146   9.513  1.0182 -0.4664  0.7321
  296MOL0     H39035   5.765   3.970   9.404  1.5795  1.2054 -0.3835
  296MOL0     H39036   6.053   3.753   9.320  1.1686  2.8489  1.9112
  296MOL0     H39037   6.241   3.668   9.169 -2.5650 -3.3588 -0.3100
  296MOL0     H39038   6.504   3.391   9.322 -0.5629  2.3264  2.1823
  296MOL0     H39039   6.637   3.492   9.360  0.7119 -0.2554 -0.3466
  296MOL0     H39040   6.590   3.414   9.059 -2.5988 -2.2540  1.6289
  296MOL0     H39041   6.712   3.343   9.164 -1.4574 -0.9781  1.5039
  296MOL0     H39042   6.775   3.611   9.192  2.0916 -1.0895 -1.1361
  296MOL0     H39043   6.680   3.616   9.041  1.8768 -0.7178 -2.6831
  296MOL0     H39044   6.857   3.445   8.950  0.1505  1.6818 -2.0305
  296MOL0     H39045   6.910   3.611   8.976  0.9683 -1.2780 -0.7860
  296MOL0     H39046   6.926   3.372   9.178 -1.2955 -0.0055 -1.4867
  296MOL0     H39047   7.010   3.524   9.203  1.9247 -0.6279 -0.4861
  296MOL0     H39048   7.138   3.489   9.001  3.1130 -1.0899  1.3786
  296MOL0     H39049   7.041   3.341   8.966 -4.6869  1.6605  0.8443
  296MOL0     H39050   7.143   3.226   9.137 -1.6802  1.0493 -1.3083
  296MOL0     H39051   7.256   3.285   9.025 -1.3878 -2.0408  0.0651
  296MOL0     H39052   7.215   3.358   9.308  0.5930 -0.2729  1.4239
  296MOL0     H39053   7.252   3.504   9.209 -1.9720 -0.1454 -1.2740
  296MOL0     H39054   6.453   3.535   9.510  1.6138  2.2274 -0.8980
  296MOL0     H39055   6.272   3.646   9.651  0.3108 -0.0499  0.2471
  296MOL0     H39056   5.957   3.889   9.764 -1.5819 -2.7854 -0.1184
  296MOL0     H39057   5.794   4.076   9.875  0.8167 -0.6103  0.1950
  296MOL0     H39058   6.387   5.293   9.794  0.7519  0.5547 -2.6665
  296MOL0     H39059   6.622   5.267   9.754  1.7880 -0.6328 -0.6513
  296MOL0     H39060   6.996   5.116   9.634  4.3985  1.5315  0.6526
  296MOL0     H39061   7.225   5.081   9.575  0.3706 -0.7144 -1.5321
  296MOL0     H39062   7.373   4.628   9.592  0.1065 -1.1941 -1.0119
  296MOL0     H39063   7.475   4.722   9.692 -1.0099  0.4164  0.5469
  296MOL0     H39064   7.606   4.622   9.529  1.7163  0.1041 -2.0964
  296MOL0     H39065   7.517   4.714   9.396 -0.8845  0.2886  0.1522
  296MOL0     H39066   7.720   4.783   9.606  2.2733  0.3545 -1.8327
  296MOL0     H39067   7.613   4.915   9.544 -2.2360 -1.6251  0.2183
  296MOL0     H39068   7.716   4.841   9.311 -2.1284 -0.9947  0.6410
  296MOL0     H39069   7.835   4.922   9.413  1.8280 -1.2348 -1.0504
  296MOL0     H39070   7.954   4.509   9.399  0.3833  0.7289 -0.7075
  296MOL0     H39071   7.182   4.663   9.666 -1.7406 -0.8002 -0.6620
  296MOL0     H39072   6.947   4.688   9.700 -0.0149 -0.6551  0.5911
  297MOL0     O39073   0.590   3.465   9.577 -0.1948 -0.8038 -0.1217
  297MOL0     C39074   0.682   3.492   9.652  0.2004 -0.8068 -0.7971
  297MOL0     O39075   0.808   3.437   9.655 -0.8828  0.0499  0.3442
  297MOL0     C39076   0.863   3.353   9.562  0.1837 -0.0575  1.1574
  297MOL0     C39077   0.973   3.278   9.606  0.4088  0.3413  0.3138
  297MOL0     C39078   1.039   3.191   9.518 -0.1970  0.0443  0.1497
  297MOL0     C39079   1.007   3.198   9.384  0.0301  0.6153  1.3320
  297MOL0     O39080   1.094   3.138   9.291  0.0599  0.6939 -0.8638
  297MOL0     C39081   1.210   3.223   9.283 -0.7435 -1.0984  0.4162
  297MOL0     C39082   1.308   3.164   9.186 -0.3617  0.0958  1.0437
  297MOL0     C39083   1.255   3.170   9.038  0.6518  0.3474  0.3702
  297MOL0     C39084   1.236   3.310   8.989 -0.4510 -0.3719  0.3360
  297MOL0     C39085   1.225   3.326   8.831 -0.5206  0.6092  0.1156
  297MOL0     C39086   1.114   3.240   8.777 -0.4645  0.7761  0.7823
  297MOL0     C39087   1.168   3.150   8.659  0.4556 -0.1431 -1.0934
  297MOL0     C39088   1.180   3.207   8.523 -0.2359 -0.8320  0.4134
  297MOL0     N39089   1.234   3.093   8.438 -0.6398 -0.5119  0.8193
  297MOL0     C39090   1.154   2.988   8.393 -0.6914  0.5614 -0.1370
  297MOL0     C39091   1.244   2.897   8.356 -0.3919  0.2240  0.0163
  297MOL0     C39092   1.206   2.777   8.282  0.2364  0.5890  0.1412
  297MOL0     C39093   1.167   2.654   8.377 -0.3711 -0.6349 -0.1602
  297MOL0     C39094   1.156   2.511   8.323  0.3728  0.7047  0.2892
  297MOL0     C39095   1.086   2.409   8.410  0.2529 -0.3758  0.3969
  297MOL0     O39096   1.058   2.283   8.333  0.0316 -0.4685 -0.2529
  297MOL0     C39097   0.933   2.231   8.343  0.2668 -0.1738 -0.2153
  297MOL0     C39098   0.809   2.293   8.349 -0.7412  0.7701 -0.1218
  297MOL0     C39099   0.699   2.205   8.366 -0.0413 -0.1731  0.7811
  297MOL0     C39100   0.710   2.069   8.390 -0.2602  0.4074 -0.0377
  297MOL0     C39101   0.602   1.988   8.438  1.6944  0.7404 -0.8365
  297MOL0     O39102   0.489   2.056   8.465  0.1582  0.1624  0.0281
  297MOL0     C39103   0.381   1.978   8.488  0.5179 -0.3741 -0.8141
  297MOL0     C39104   0.324   1.898   8.384 -0.5436  0.6289 -0.6133
  297MOL0     C39105   0.218   1.818   8.408  0.2601 -0.2563  0.8943
  297MOL0     C39106   0.163   1.801   8.533  0.1141  0.1543  0.5922
  297MOL0     O39107   0.063   1.725   8.567  0.4216 -0.0814  0.3841
  297MOL0     C39108   0.015   1.626   8.471  0.4353 -0.4109  0.4475
  297MOL0     C39109  -0.077   1.520   8.542  0.6612 -0.0324  0.6840
  297MOL0     C39110  -0.019   1.465   8.672  0.5545  0.5031 -0.4375
  297MOL0     C39111  -0.122   1.382   8.760 -0.1291 -1.1131 -0.2519
  297MOL0     C39112  -0.139   1.236   8.709 -0.2618  0.7074  0.2770
  297MOL0     C39113  -0.219   1.156   8.802 -0.3975  0.0501 -0.1956
  297MOL0     C39114  -0.281   1.017   8.747 -0.1719  0.4853  0.4977
  297MOL0     C39115  -0.329   0.924   8.858 -1.0182 -0.4827  0.7108
  297MOL0    Cl39116  -0.452   1.003   8.950  0.4727 -0.1809 -0.2026
  297MOL0     C39117   0.234   1.858   8.638 -0.5170  0.2478  0.6882
  297MOL0     C39118   0.342   1.940   8.620 -0.5238 -0.1365  0.2322
  297MOL0     O39119   0.614   1.867   8.468 -0.0739  0.6496 -0.5607
  297MOL0     C39120   0.836   2.008   8.381  0.3138 -0.1867  1.7331
  297MOL0     C39121   0.945   2.096   8.363 -0.2852  1.2459 -0.0792
  297MOL0     N39122   1.374   2.948   8.363 -0.3824 -0.4407 -0.3187
  297MOL0     N39123   1.367   3.065   8.417  0.3882 -0.0797 -0.3514
  297MOL0     C39124   0.904   3.285   9.340 -1.0402  0.4259  0.2741
  297MOL0     C39125   0.829   3.355   9.429  0.4382 -0.6601  0.4772
  297MOL0     C39126   0.653   3.591   9.758  0.4278 -0.1064  0.1487
  297MOL0     C39127   0.723   3.595   9.876 -0.6058  0.2673  0.0493
  297MOL0     C39128   0.712   3.692   9.976  0.4600  0.2616 -0.9641
  297MOL0     C39129   0.617   3.783   9.972 -0.1814 -0.6525 -0.1575
  297MOL0     O39130   0.581   3.875  10.066 -0.4278 -0.2470  0.3528
  297MOL0     C39131   0.685   3.901  10.160  0.2330  0.0677 -1.2209
  297MOL0     C39132   0.635   4.008  10.264 -0.0046  0.3270 -0.2719
  297MOL0     C39133   0.647   4.150  10.214  0.0524 -0.1552  1.3222
  297MOL0     C39134   0.674   4.249  10.333  0.4136 -0.9300 -0.1266
  297MOL0     C39135   0.564   4.273  10.436 -0.6328 -0.0982  0.1695
  297MOL0     C39136   0.478   4.289  10.522  0.0376  0.7451  1.0905
  297MOL0     C39137   0.527   3.779   9.855  0.0903  0.2422  0.5791
  297MOL0     C39138   0.544   3.686   9.753  1.2079 -0.3901  0.2688
  297MOL0     H39139   1.014   3.279   9.706  1.5756 -4.1316  0.1031
  297MOL0     H39140   1.128   3.137   9.546  0.5392  1.8861  1.6179
  297MOL0     H39141   1.270   3.234   9.374 -1.6490  2.0445  0.7442
  297MOL0     H39142   1.174   3.321   9.251 -0.5335 -1.2722 -0.3805
  297MOL0     H39143   1.330   3.060   9.213  3.2402  1.2555  3.3021
  297MOL0     H39144   1.408   3.208   9.190  0.3950 -1.6200  2.4210
  297MOL0     H39145   1.164   3.114   9.013  0.4322  0.8464  0.0235
  297MOL0     H39146   1.321   3.123   8.964 -1.1022 -0.1578 -0.9403
  297MOL0     H39147   1.140   3.333   9.037  0.0486 -0.0767  1.2190
  297MOL0     H39148   1.311   3.376   9.034 -1.2280  0.8447 -0.1015
  297MOL0     H39149   1.321   3.291   8.790 -0.9430 -2.2183  1.3501
  297MOL0     H39150   1.213   3.432   8.806  1.5821  1.9527  4.0045
  297MOL0     H39151   1.027   3.305   8.765 -0.6581  0.7196  1.8198
  297MOL0     H39152   1.065   3.175   8.850 -2.4555  2.3791  0.9712
  297MOL0     H39153   1.266   3.112   8.690  0.2831  0.7023  0.6164
  297MOL0     H39154   1.097   3.067   8.658 -0.5744  0.5795  1.6593
  297MOL0     H39155   1.243   3.295   8.515  0.8282 -1.6492 -0.4324
  297MOL0     H39156   1.076   3.231   8.497 -1.4978 -4.7381  1.1242
  297MOL0     H39157   1.046   2.990   8.387 -0.6415  0.0262 -1.4479
  297MOL0     H39158   1.287   2.762   8.210 -1.8329  1.4224 -2.5552
  297MOL0     H39159   1.125   2.803   8.213  1.2774 -1.1423 -1.8517
  297MOL0     H39160   1.070   2.679   8.422 -0.0152 -1.6501  1.2300
  297MOL0     H39161   1.234   2.657   8.464  1.1215  1.0395 -1.2962
  297MOL0     H39162   1.101   2.509   8.229 -0.4134  0.8958  0.7305
  297MOL0     H39163   1.262   2.492   8.309  0.8951  1.5303  2.5936
  297MOL0     H39164   0.992   2.453   8.447 -1.0473  0.5540 -3.5692
  297MOL0     H39165   1.153   2.379   8.491  0.6584  0.8251  0.5349
  297MOL0     H39166   0.799   2.401   8.345  1.0346  0.9555 -0.3237
  297MOL0     H39167   0.612   2.264   8.396  0.7613  1.1866  0.5269
  297MOL0     H39168   0.358   1.909   8.282 -0.8916 -0.5966 -0.8741
  297MOL0     H39169   0.179   1.777   8.316  0.7912  0.7532  0.2010
  297MOL0     H39170   0.096   1.560   8.440 -0.2645 -1.4021  0.6719
  297MOL0     H39171  -0.045   1.678   8.396  0.0365 -1.3833  0.0720
  297MOL0     H39172  -0.082   1.451   8.458  3.0018  1.1175 -0.5252
  297MOL0     H39173  -0.167   1.581   8.550  1.9057  2.2121 -1.0515
  297MOL0     H39174   0.009   1.550   8.735 -0.1877  1.3721 -1.2429
  297MOL0     H39175   0.066   1.404   8.643 -0.8713 -1.0625 -1.4934
  297MOL0     H39176  -0.089   1.392   8.864 -1.8531 -1.5566  0.3722
  297MOL0     H39177  -0.224   1.423   8.760  0.2420 -0.1466 -0.5901
  297MOL0     H39178  -0.049   1.190   8.668  0.3350  4.0407 -2.6651
  297MOL0     H39179  -0.204   1.244   8.622  0.6715 -2.0692 -0.7691
  297MOL0     H39180  -0.302   1.217   8.839 -0.2759  1.8074 -2.5734
  297MOL0     H39181  -0.146   1.132   8.879  1.6795 -2.2288 -2.6541
  297MOL0     H39182  -0.352   1.034   8.665  1.3971 -0.2823 -1.0814
  297MOL0     H39183  -0.193   0.976   8.697 -0.2150  3.4334 -2.2934
  297MOL0     H39184  -0.244   0.896   8.920 -1.7442  1.2875  2.5998
  297MOL0     H39185  -0.371   0.830   8.820 -1.4276 -1.3282  3.0950
  297MOL0     H39186   0.199   1.840   8.739 -0.5635 -0.7844  0.4992
  297MOL0     H39187   0.391   1.997   8.699  1.5783  1.7637 -2.2868
  297MOL0     H39188   0.849   1.901   8.395  0.4082 -0.8637 -2.3616
  297MOL0     H39189   1.041   2.045   8.374 -2.6317 -3.3295  1.6203
  297MOL0     H39190   0.882   3.286   9.234  0.0632  1.3083  0.0301
  297MOL0     H39191   0.744   3.414   9.397  1.5720 -0.9638 -3.5829
  297MOL0     H39192   0.804   3.523   9.883 -0.1815  0.6917 -0.4087
  297MOL0     H39193   0.792   3.680  10.048 -1.8083  2.1499  2.0678
  297MOL0     H39194   0.762   3.949  10.100  1.5823 -1.0215 -0.4040
  297MOL0     H39195   0.719   3.812  10.214  0.5359 -0.3386 -2.0738
  297MOL0     H39196   0.533   3.985  10.298 -0.2258 -0.0965 -1.1935
  297MOL0     H39197   0.699   4.004  10.352  2.5360 -0.4378 -2.0279
  297MOL0     H39198   0.556   4.189  10.167  2.2485  0.7172 -2.6786
  297MOL0     H39199   0.728   4.163  10.142 -0.9975 -0.8987 -0.0441
  297MOL0     H39200   0.770   4.221  10.378  0.5811  2.6065  2.0808
  297MOL0     H39201   0.698   4.349  10.294  0.8292 -1.1901 -0.5490
  297MOL0     H39202   0.410   4.301  10.604  0.2676 -3.4399  2.1303
  297MOL0     H39203   0.439   3.841   9.843 -0.8051 -1.2144 -0.8478
  297MOL0     H39204   0.452   3.672   9.696 -1.1435 -2.4382  4.1503
  298MOL0     O39205   3.518   1.734   0.808 -1.1239 -0.0343 -0.3094
  298MOL0     C39206   3.576   1.844   0.794 -1.4109 -1.0204  0.6029
  298MOL0     O39207   3.593   1.911   0.675 -0.1038 -0.3842 -0.0679
  298MOL0     C39208   3.555   1.864   0.556  0.2051  0.1518  1.0399
  298MOL0     C39209   3.436   1.797   0.531 -0.1304  0.4604 -0.6885
  298MOL0     C39210   3.409   1.748   0.408  0.8455 -0.0629  0.7520
  298MOL0     C39211   3.512   1.755   0.307 -0.6608  0.6672 -0.5108
  298MOL0     O39212   3.495   1.690   0.185 -0.0583  0.2119  0.1789
  298MOL0     C39213   3.364   1.668   0.136  0.8516 -0.5832  0.0648
  298MOL0     C39214   3.356   1.632  -0.014 -0.2207  0.3176  0.3800
  298MOL0     C39215   3.421   1.745  -0.102 -0.2793 -0.2323 -1.0717
  298MOL0     C39216   3.406   1.723  -0.248 -0.3956  0.4062 -1.1570
  298MOL0     C39217   3.426   1.855  -0.324  1.2323  0.6521  0.0503
  298MOL0     C39218   3.304   1.947  -0.315 -0.0427 -0.8692  0.3196
  298MOL0     C39219   3.340   2.096  -0.351 -0.2409  0.3719  0.7112
  298MOL0     C39220   3.437   2.159  -0.259 -0.4601 -0.4742  0.0323
  298MOL0     N39221   3.427   2.309  -0.282  0.3093  0.1955 -0.2086
  298MOL0     C39222   3.487   2.369  -0.392  0.0699 -0.7630  0.2125
  298MOL0     C39223   3.488   2.504  -0.359  0.7006  0.2486  0.0069
  298MOL0     C39224   3.546   2.623  -0.425 -0.9425  0.3642 -0.7738
  298MOL0     C39225   3.667   2.669  -0.342 -1.0108 -0.9724  0.5627
  298MOL0     C39226   3.764   2.762  -0.424  0.0786 -0.5348  0.1226
  298MOL0     C39227   3.703   2.897  -0.471  0.4678  0.9699  0.3652
  298MOL0     O39228   3.667   2.968  -0.359  0.1876  0.3660  0.2136
  298MOL0     C39229   3.551   3.046  -0.370  0.0309  0.5432 -0.2025
  298MOL0     C39230   3.561   3.183  -0.364  0.4557 -0.7606  1.2595
  298MOL0     C39231   3.448   3.262  -0.348 -0.2781 -0.1344  0.2518
  298MOL0     C39232   3.324   3.193  -0.318  0.1727  0.7075  0.7283
  298MOL0     C39233   3.205   3.262  -0.268  0.1136 -0.4376  0.6681
  298MOL0     O39234   3.086   3.207  -0.265  0.5207 -0.6424  0.3207
  298MOL0     C39235   2.969   3.276  -0.221  0.0270 -0.2303 -0.3898
  298MOL0     C39236   2.853   3.221  -0.274 -0.7836  0.7621  0.8964
  298MOL0     C39237   2.727   3.271  -0.242 -0.1723  0.5060 -0.4018
  298MOL0     C39238   2.706   3.373  -0.154  0.4623 -0.0482  0.4628
  298MOL0     O39239   2.579   3.413  -0.126 -0.2119 -0.5145  0.4520
  298MOL0     C39240   2.552   3.552  -0.117 -0.6226 -0.3194  0.3924
  298MOL0     C39241   2.482   3.579   0.014  0.8093 -0.2567  0.2083
  298MOL0     C39242   2.582   3.578   0.130 -0.5315  0.0909 -0.6006
  298MOL0     C39243   2.504   3.620   0.257 -0.2328  0.9399 -0.2073
  298MOL0     C39244   2.593   3.616   0.390  0.8213  0.6470  0.0658
  298MOL0     C39245   2.613   3.469   0.440  0.3430 -0.1657  0.1093
  298MOL0     C39246   2.654   3.459   0.583  0.6206  0.6294 -0.1495
  298MOL0     C39247   2.804   3.496   0.601  0.1323 -0.2930  0.7488
  298MOL0    Cl39248   2.844   3.494   0.780 -0.1991  0.0922  0.2697
  298MOL0     C39249   2.821   3.437  -0.102 -0.3284  0.5492 -0.7640
  298MOL0     C39250   2.949   3.393  -0.138 -0.2427  0.8323 -0.2268
  298MOL0     O39251   3.228   3.376  -0.230 -1.2330  0.1917  0.6528
  298MOL0     C39252   3.315   3.061  -0.336 -0.6752 -0.5733  0.5116
  298MOL0     C39253   3.425   2.981  -0.353 -0.1681 -0.4446 -0.1163
  298MOL0     N39254   3.435   2.509  -0.226 -0.0797  0.2989  1.6594
  298MOL0     N39255   3.379   2.399  -0.192 -0.1913  0.4290 -0.0897
  298MOL0     C39256   3.639   1.819   0.335 -0.3513 -0.0065  0.9269
  298MOL0     C39257   3.653   1.878   0.459 -0.5999  0.0338  0.4146
  298MOL0     C39258   3.636   1.911   0.915  0.0822 -0.5326  0.3917
  298MOL0     C39259   3.722   2.017   0.906  0.0160  0.3922 -0.6675
  298MOL0     C39260   3.763   2.083   1.021 -0.4659  0.3975 -0.6671
  298MOL0     C39261   3.726   2.048   1.148 -0.4632 -0.1217 -0.5108
  298MOL0     O39262   3.759   2.123   1.260 -0.4213 -0.1758 -0.1008
  298MOL0     C39263   3.783   2.264   1.241 -0.4457  0.8271  0.6270
  298MOL0     C39264   3.802   2.344   1.366  0.7147 -0.0288  1.0586
  298MOL0     C39265   3.806   2.501   1.319 -1.1195 -0.0518 -0.0004
  298MOL0     C39266   3.677   2.564   1.263  0.5991  0.2382  0.4944
  298MOL0     C39267   3.586   2.579   1.371 -0.2973  0.0697  0.2115
  298MOL0     C39268   3.501   2.593   1.455  0.0916 -0.3291 -1.2286
  298MOL0     C39269   3.636   1.943   1.162 -0.3768  0.7633  0.9584
  298MOL0     C39270   3.595   1.872   1.045 -0.9160 -1.2181  0.6688
  298MOL0     H39271   3.358   1.784   0.605  1.3056  1.9855  1.2014
  298MOL0     H39272   3.318   1.692   0.390  1.2581 -0.9797  1.4205
  298MOL0     H39273   3.302   1.756   0.156  1.2632 -0.1739 -0.4249
  298MOL0     H39274   3.316   1.581   0.181 -0.2474 -0.4921 -0.8982
  298MOL0     H39275   3.253   1.611  -0.046  1.2158 -1.4961 -3.7296
  298MOL0     H39276   3.402   1.534  -0.027 -0.1562 -0.1685  3.4302
  298MOL0     H39277   3.527   1.752  -0.077 -0.5393 -2.2390  0.9164
  298MOL0     H39278   3.384   1.844  -0.073  0.5688 -0.1565 -0.1895
  298MOL0     H39279   3.478   1.648  -0.283 -1.2988 -0.3812 -1.3690
  298MOL0     H39280   3.311   1.675  -0.274 -0.4566  1.7407 -3.7285
  298MOL0     H39281   3.432   1.830  -0.431 -1.2647 -0.1694  0.0448
  298MOL0     H39282   3.518   1.903  -0.289  1.3781  1.5787 -1.4677
  298MOL0     H39283   3.260   1.946  -0.216  2.8509  2.1460  1.8369
  298MOL0     H39284   3.231   1.924  -0.393  1.3350  2.5628 -2.2475
  298MOL0     H39285   3.388   2.100  -0.450 -1.2484 -1.8669  0.0535
  298MOL0     H39286   3.244   2.147  -0.344 -2.0669 -2.7752  0.4609
  298MOL0     H39287   3.539   2.123  -0.274 -0.2997 -1.4160  2.8259
  298MOL0     H39288   3.411   2.144  -0.154 -0.1393  2.5416  0.6323
  298MOL0     H39289   3.519   2.311  -0.478  0.4159 -0.5229  0.1739
  298MOL0     H39290   3.473   2.704  -0.440 -2.1069 -0.8192 -1.8090
  298MOL0     H39291   3.577   2.604  -0.528  1.3866  1.9950 -0.4498
  298MOL0     H39292   3.720   2.578  -0.313  0.7896 -0.7529 -1.7127
  298MOL0     H39293   3.640   2.719  -0.248  2.0446 -2.3817  2.3349
  298MOL0     H39294   3.839   2.783  -0.347 -1.7412  0.6115  1.6721
  298MOL0     H39295   3.803   2.701  -0.506  1.5739  0.8038 -0.1957
  298MOL0     H39296   3.624   2.891  -0.546  1.1678  0.5838 -0.3652
  298MOL0     H39297   3.790   2.933  -0.527  0.9062 -2.3632 -1.3213
  298MOL0     H39298   3.655   3.237  -0.366  0.8016 -1.3836 -0.3213
  298MOL0     H39299   3.457   3.370  -0.342 -0.3214 -0.1949  5.0569
  298MOL0     H39300   2.864   3.133  -0.337  4.4963  1.3820  0.4993
  298MOL0     H39301   2.641   3.211  -0.269 -0.1250 -0.4655  1.4875
  298MOL0     H39302   2.478   3.564  -0.196 -0.0349  0.5264 -0.0450
  298MOL0     H39303   2.631   3.623  -0.144 -1.0623 -0.0154 -0.1132
  298MOL0     H39304   2.407   3.501   0.030 -0.7198  0.8554 -1.1809
  298MOL0     H39305   2.428   3.673  -0.001  1.3691  0.0174 -0.0820
  298MOL0     H39306   2.671   3.638   0.108  1.9550 -2.9549  0.3412
  298MOL0     H39307   2.614   3.474   0.140 -0.2799  0.3524  2.2784
  298MOL0     H39308   2.473   3.723   0.240  0.2122  1.2472  0.7971
  298MOL0     H39309   2.417   3.554   0.268  1.3045 -0.8526  2.1477
  298MOL0     H39310   2.535   3.665   0.468 -0.8406 -0.8797 -0.1472
  298MOL0     H39311   2.693   3.659   0.374  2.2766 -2.1810  0.9330
  298MOL0     H39312   2.673   3.409   0.371  0.6234 -1.2883  1.2794
  298MOL0     H39313   2.518   3.415   0.441  0.1973  0.0627  2.0531
  298MOL0     H39314   2.590   3.536   0.628  0.1496  1.5767 -2.3384
  298MOL0     H39315   2.640   3.355   0.616  2.6239 -0.8795 -3.4904
  298MOL0     H39316   2.822   3.596   0.560 -0.1951 -1.0560 -1.3679
  298MOL0     H39317   2.869   3.434   0.538  2.4247  0.6137  2.0875
  298MOL0     H39318   2.806   3.520  -0.034 -1.6175 -1.5282  1.6450
  298MOL0     H39319   3.027   3.451  -0.088  0.1018 -0.7930  1.2132
  298MOL0     H39320   3.221   3.007  -0.332 -0.4567 -1.1109 -0.9584
  298MOL0     H39321   3.434   2.874  -0.341  1.9782 -0.5495 -1.9008
  298MOL0     H39322   3.712   1.826   0.255 -0.4371  0.4385  0.8829
  298MOL0     H39323   3.745   1.934   0.470  0.9082 -1.7588 -2.1159
  298MOL0     H39324   3.766   2.049   0.812 -0.8879 -2.3131 -2.1268
  298MOL0     H39325   3.839   2.159   1.003  0.1414 -0.3998 -1.5402
  298MOL0     H39326   3.703   2.303   1.177 -1.1697 -0.2230  0.8774
  298MOL0     H39327   3.875   2.279   1.183 -0.5601  0.0767  0.2424
  298MOL0     H39328   3.719   2.341   1.437  1.1731 -2.4655  1.5911
  298MOL0     H39329   3.893   2.307   1.414  0.9858  1.0813  1.4306
  298MOL0     H39330   3.889   2.504   1.249  1.3769 -2.4106  2.6130
  298MOL0     H39331   3.829   2.563   1.406 -1.7338 -1.3599  1.1407
  298MOL0     H39332   3.701   2.667   1.235 -4.3762  2.6671  3.6600
  298MOL0     H39333   3.643   2.514   1.172  0.4550  0.7759  0.2476
  298MOL0     H39334   3.422   2.604   1.527  2.7623 -0.6834  2.0242
  298MOL0     H39335   3.600   1.907   1.258  1.7296 -1.9199  0.8571
  298MOL0     H39336   3.523   1.793   1.061  0.7502 -2.6946  1.1374
  299MOL0     O39337   5.288   3.059   5.540  0.1589  0.5006  0.1561
  299MOL0     C39338   5.308   3.181   5.527 -0.0296  0.1505  0.8753
  299MOL0     O39339   5.213   3.276   5.542 -0.3447 -0.7815 -0.6195
  299MOL0     C39340   5.101   3.257   5.618  0.3938 -0.0394 -0.2103
  299MOL0     C39341   4.980   3.213   5.569  0.2492 -0.5914 -0.0542
  299MOL0     C39342   4.869   3.197   5.648  0.5609 -0.2922 -0.4620
  299MOL0     C39343   4.877   3.231   5.788 -0.0757 -0.7832 -0.4451
  299MOL0     O39344   4.797   3.197   5.884 -0.2552  0.8317 -0.4317
  299MOL0     C39345   4.660   3.195   5.847  0.3113  0.6230 -0.0350
  299MOL0     C39346   4.608   3.340   5.846 -0.4985  0.2064  0.2250
  299MOL0     C39347   4.457   3.349   5.827 -0.0566  0.1267  0.9315
  299MOL0     C39348   4.394   3.464   5.907  0.5999  0.4451  0.3694
  299MOL0     C39349   4.246   3.468   5.934 -0.8133 -0.1171 -0.2816
  299MOL0     C39350   4.174   3.523   5.802 -0.0812 -0.5901  0.5827
  299MOL0     C39351   4.082   3.643   5.821 -0.3906  0.2140  0.0613
  299MOL0     C39352   4.035   3.700   5.686  0.5486  0.6433  0.6180
  299MOL0     N39353   3.944   3.815   5.708  0.5782 -0.3427 -0.0957
  299MOL0     C39354   3.840   3.828   5.795 -0.0350  0.7661 -0.1144
  299MOL0     C39355   3.794   3.951   5.782  0.4727 -0.8110  0.4799
  299MOL0     C39356   3.678   4.019   5.843  0.0041 -0.8739  0.1013
  299MOL0     C39357   3.572   4.057   5.745  0.1995 -0.0945  0.6050
  299MOL0     C39358   3.442   4.104   5.816 -0.0597 -0.0584 -0.6280
  299MOL0     C39359   3.333   4.140   5.712  0.3789  0.2276  0.4778
  299MOL0     O39360   3.303   4.019   5.636 -0.2216  1.2468  0.0976
  299MOL0     C39361   3.176   3.958   5.648 -0.2445 -0.5804 -0.4418
  299MOL0     C39362   3.103   3.935   5.530 -0.5909  0.0196 -0.0919
  299MOL0     C39363   2.992   3.867   5.536  0.5482 -0.1802 -0.5534
  299MOL0     C39364   2.937   3.823   5.659  1.1741 -0.1547 -0.1541
  299MOL0     C39365   2.797   3.757   5.662 -0.4513  0.1044  1.0897
  299MOL0     O39366   2.731   3.755   5.782  0.0112 -0.4899 -0.0368
  299MOL0     C39367   2.617   3.673   5.780  0.1293  0.0167 -0.8579
  299MOL0     C39368   2.620   3.549   5.839  0.1194  0.5069 -0.0245
  299MOL0     C39369   2.506   3.462   5.826  0.9470 -0.7267 -0.2919
  299MOL0     C39370   2.382   3.502   5.767  1.0642  0.3940  0.1051
  299MOL0     O39371   2.269   3.420   5.772 -0.7697  0.4436 -1.0838
  299MOL0     C39372   2.156   3.443   5.693 -0.9783  0.7989 -0.7579
  299MOL0     C39373   2.156   3.348   5.580  0.2993  0.9128 -0.3138
  299MOL0     C39374   2.027   3.369   5.497  0.0186 -0.3382  0.1546
  299MOL0     C39375   2.009   3.266   5.382 -0.1513  0.1801  0.4655
  299MOL0     C39376   2.124   3.275   5.280 -1.5770  0.7014 -0.1975
  299MOL0     C39377   2.090   3.204   5.158 -0.5886 -0.6985  0.4137
  299MOL0     C39378   2.196   3.221   5.051  0.1617 -0.2423  0.8128
  299MOL0     C39379   2.334   3.198   5.098  0.1674  0.3825  1.1349
  299MOL0    Cl39380   2.454   3.199   4.957  0.4701  0.0459  0.4971
  299MOL0     C39381   2.379   3.624   5.703 -0.7494  0.4800  0.7493
  299MOL0     C39382   2.499   3.710   5.713 -0.3663  0.6228  0.6086
  299MOL0     O39383   2.750   3.719   5.554 -0.3183 -0.0216 -0.4681
  299MOL0     C39384   3.010   3.854   5.777  0.2260 -0.8261  0.5345
  299MOL0     C39385   3.137   3.920   5.769  0.6053 -0.7860  0.4571
  299MOL0     N39386   3.875   4.012   5.683  0.2160  0.0168 -0.6656
  299MOL0     N39387   3.952   3.925   5.632 -0.6353  0.8843 -0.2931
  299MOL0     C39388   4.994   3.299   5.838 -0.0703  0.0591  0.9257
  299MOL0     C39389   5.099   3.301   5.750  0.3751 -0.4322 -0.8277
  299MOL0     C39390   5.438   3.218   5.475  0.2916  0.1022 -0.5267
  299MOL0     C39391   5.489   3.349   5.472  0.8758  0.1560 -0.9034
  299MOL0     C39392   5.604   3.385   5.397  0.5087  0.0941 -0.0895
  299MOL0     C39393   5.666   3.289   5.325  0.1949 -0.5909  0.4318
  299MOL0     O39394   5.771   3.313   5.239  0.3621 -0.3018  0.1379
  299MOL0     C39395   5.820   3.444   5.202 -0.5541  0.0803  0.3380
  299MOL0     C39396   5.948   3.429   5.110  0.3313  0.0192  0.6485
  299MOL0     C39397   6.060   3.360   5.181 -0.1289 -0.2074  0.3462
  299MOL0     C39398   6.193   3.382   5.113 -0.0699 -0.3619 -0.0722
  299MOL0     C39399   6.306   3.366   5.201  0.4781 -0.1871  0.6423
  299MOL0     C39400   6.408   3.368   5.266 -0.5934 -0.5827 -0.2495
  299MOL0     C39401   5.627   3.159   5.328 -0.4012  0.0162 -0.0796
  299MOL0     C39402   5.524   3.123   5.415  0.3560  0.6475  1.1374
  299MOL0     H39403   4.974   3.207   5.461  0.5280  0.5333 -0.1439
  299MOL0     H39404   4.779   3.149   5.610  1.5113 -1.6464 -1.0513
  299MOL0     H39405   4.604   3.142   5.924 -4.4742  1.7143 -2.3448
  299MOL0     H39406   4.651   3.143   5.750 -0.5921 -0.5534  0.6535
  299MOL0     H39407   4.654   3.399   5.766 -1.4307 -1.1437 -1.3806
  299MOL0     H39408   4.631   3.387   5.942  1.8975 -2.2996  0.9912
  299MOL0     H39409   4.409   3.261   5.871  0.6453  0.2194  1.8984
  299MOL0     H39410   4.424   3.347   5.722  1.5073 -1.2036  0.4285
  299MOL0     H39411   4.426   3.456   6.012  0.5287  0.8523  0.4237
  299MOL0     H39412   4.412   3.554   5.848 -2.4189  1.3521  0.6845
  299MOL0     H39413   4.224   3.538   6.016  0.6903 -1.1852  1.0806
  299MOL0     H39414   4.204   3.375   5.972  0.8157 -0.7862 -0.0474
  299MOL0     H39415   4.120   3.443   5.751 -0.4570  1.0045 -1.6535
  299MOL0     H39416   4.246   3.546   5.722 -0.5865 -0.3014  0.2073
  299MOL0     H39417   3.999   3.613   5.886 -0.9977  1.5822 -0.0470
  299MOL0     H39418   4.143   3.719   5.872 -0.1265  1.4393 -1.9561
  299MOL0     H39419   3.977   3.625   5.631  0.4418  0.2988  1.1908
  299MOL0     H39420   4.119   3.736   5.625 -1.4100 -0.0608 -2.7766
  299MOL0     H39421   3.808   3.780   5.887 -0.5922  2.8894  0.8532
  299MOL0     H39422   3.721   4.112   5.880 -1.8139  0.3261 -0.6725
  299MOL0     H39423   3.628   3.951   5.912  0.0367 -1.3401 -0.3231
  299MOL0     H39424   3.553   3.966   5.689 -2.2464  0.6814  0.0442
  299MOL0     H39425   3.626   4.119   5.672  3.3465  1.2187  3.7308
  299MOL0     H39426   3.398   4.026   5.878 -0.2799 -0.8522 -1.7542
  299MOL0     H39427   3.469   4.191   5.878 -1.5019 -0.1769  0.2189
  299MOL0     H39428   3.355   4.216   5.638  1.5529 -2.0129 -1.6175
  299MOL0     H39429   3.246   4.183   5.763 -0.0805  1.2951 -1.1536
  299MOL0     H39430   3.138   3.980   5.438 -1.3947  2.4784  0.7112
  299MOL0     H39431   2.941   3.847   5.443  0.2929 -3.4588  0.1676
  299MOL0     H39432   2.701   3.496   5.889 -0.2636 -0.2616 -0.2030
  299MOL0     H39433   2.507   3.363   5.869  1.7796  0.2352  2.0821
  299MOL0     H39434   2.144   3.549   5.668 -2.5071  0.7134 -0.5204
  299MOL0     H39435   2.075   3.424   5.764  0.5229 -2.1145  0.3096
  299MOL0     H39436   2.155   3.248   5.625 -2.0651  0.0413 -2.0435
  299MOL0     H39437   2.236   3.363   5.507 -2.5123  1.7251 -3.5069
  299MOL0     H39438   2.031   3.466   5.448  1.6767 -0.1579  0.5892
  299MOL0     H39439   1.942   3.373   5.566  0.4917  0.2570  0.7239
  299MOL0     H39440   1.991   3.163   5.413 -0.6938  0.0921 -0.1109
  299MOL0     H39441   1.919   3.292   5.325  1.5690  3.5151 -1.0817
  299MOL0     H39442   2.214   3.243   5.333 -0.7035  2.9513 -0.2102
  299MOL0     H39443   2.145   3.376   5.244  2.3030 -0.4054 -1.6326
  299MOL0     H39444   1.991   3.226   5.116 -0.9824 -0.5266  1.3858
  299MOL0     H39445   2.086   3.100   5.191 -2.4552 -0.8660 -0.2238
  299MOL0     H39446   2.172   3.149   4.972 -2.8088  0.2594  1.1633
  299MOL0     H39447   2.189   3.325   5.018  0.6635 -1.0703 -2.2418
  299MOL0     H39448   2.330   3.105   5.156  1.3810 -1.6353 -1.8140
  299MOL0     H39449   2.359   3.270   5.177 -1.4576 -0.3453  2.3764
  299MOL0     H39450   2.300   3.670   5.645  0.8699  0.7425 -1.3955
  299MOL0     H39451   2.505   3.798   5.651  0.2932  0.6228  0.6650
  299MOL0     H39452   2.969   3.830   5.875 -1.2306 -2.5875 -0.4244
  299MOL0     H39453   3.187   3.957   5.858 -2.6236  0.3404  1.9785
  299MOL0     H39454   4.983   3.347   5.935  0.6540 -0.7122  1.3956
  299MOL0     H39455   5.198   3.333   5.779  1.0354 -1.6672 -1.6393
  299MOL0     H39456   5.428   3.425   5.521 -2.6180 -2.8651 -0.1576
  299MOL0     H39457   5.626   3.491   5.394  1.0188 -0.0243 -0.4930
  299MOL0     H39458   5.852   3.497   5.291  0.5606  1.4903 -0.8458
  299MOL0     H39459   5.740   3.497   5.149 -1.2059 -2.9044 -1.9195
  299MOL0     H39460   5.942   3.389   5.008  2.5767  0.1118  0.4210
  299MOL0     H39461   5.981   3.527   5.073  2.2975 -1.8154 -3.1526
  299MOL0     H39462   6.040   3.252   5.186 -0.7936 -0.2100 -1.7035
  299MOL0     H39463   6.070   3.387   5.287  1.5765 -0.2800  0.2367
  299MOL0     H39464   6.185   3.304   5.037 -3.7468 -3.4861  3.0778
  299MOL0     H39465   6.200   3.482   5.069 -1.2306  0.4064  1.3838
  299MOL0     H39466   6.495   3.386   5.326  0.1844 -3.5102 -0.3261
  299MOL0     H39467   5.678   3.081   5.272 -0.2797  0.6565 -0.8875
  299MOL0     H39468   5.505   3.016   5.417 -0.6673  0.7949  0.3308
  300MOL0     O39469   1.183   8.804   8.857  0.3471 -0.3393 -0.1589
  300MOL0     C39470   1.140   8.918   8.865 -0.0122 -0.8079 -0.1543
  300MOL0     O39471   1.095   8.972   8.986 -0.1678  0.6048 -0.1706
  300MOL0     C39472   1.023   8.893   9.079  0.0615  0.4565  0.5860
  300MOL0     C39473   1.010   8.946   9.213  0.0051  0.2910 -0.3071
  300MOL0     C39474   0.935   8.887   9.303  0.6415  0.1276 -0.7376
  300MOL0     C39475   0.871   8.764   9.278 -0.0351  0.7268 -0.1112
  300MOL0     O39476   0.790   8.695   9.369 -0.8184  0.2668 -0.1831
  300MOL0     C39477   0.650   8.690   9.353 -0.3042 -0.7082  0.2410
  300MOL0     C39478   0.593   8.830   9.343 -0.4807 -0.0406 -0.7852
  300MOL0     C39479   0.441   8.817   9.343 -0.1902 -0.3799 -0.6003
  300MOL0     C39480   0.355   8.916   9.258 -0.1418 -0.2734 -0.2303
  300MOL0     C39481   0.288   9.047   9.324  0.0051  0.4301 -0.6374
  300MOL0     C39482   0.391   9.147   9.391  0.2385 -0.5913 -0.3671
  300MOL0     C39483   0.498   9.202   9.289  0.4416 -0.0414 -0.3718
  300MOL0     C39484   0.575   9.307   9.360 -0.4498  0.2361  0.1684
  300MOL0     N39485   0.658   9.262   9.484 -0.1086  0.1220  0.4169
  300MOL0     C39486   0.663   9.332   9.596  0.2307 -0.1662  0.8621
  300MOL0     C39487   0.752   9.271   9.682  0.3640 -0.0075 -0.3968
  300MOL0     C39488   0.790   9.309   9.820 -1.0716 -0.6514  0.9111
  300MOL0     C39489   0.741   9.456   9.863  0.0949  0.1779 -0.4684
  300MOL0     C39490   0.595   9.459   9.912 -0.9946  0.9328  0.0683
  300MOL0     C39491   0.542   9.597   9.940 -0.4166 -0.2572  0.2550
  300MOL0     O39492   0.519   9.658   9.810  0.3417 -0.0628 -0.6763
  300MOL0     C39493   0.453   9.782   9.819  0.3182  0.4548  0.6867
  300MOL0     C39494   0.369   9.837   9.912  0.3435 -0.3056  0.6648
  300MOL0     C39495   0.327   9.972   9.906  0.1813 -0.0590  0.2760
  300MOL0     C39496   0.354  10.056   9.792 -0.2574  0.5523  0.5897
  300MOL0     C39497   0.299  10.188   9.780  0.2806 -0.1794  0.0408
  300MOL0     O39498   0.331  10.256   9.674  1.0895 -0.4274 -0.1868
  300MOL0     C39499   0.292  10.391   9.669 -1.2651  0.6444 -0.0308
  300MOL0     C39500   0.386  10.495   9.681 -0.2924  0.3574 -0.4460
  300MOL0     C39501   0.337  10.625   9.697  0.5937 -0.2599  0.4295
  300MOL0     C39502   0.197  10.654   9.693 -0.4095 -0.6373 -0.6043
  300MOL0     O39503   0.145  10.788   9.706 -0.3668 -0.0244 -0.0775
  300MOL0     C39504   0.208  10.885   9.625 -0.1251 -0.4682  0.2824
  300MOL0     C39505   0.191  10.858   9.466 -0.4333 -0.0559  0.0909
  300MOL0     C39506   0.274  10.963   9.383 -0.0680  1.0820 -0.2252
  300MOL0     C39507   0.286  10.937   9.232 -0.0899 -0.8313 -0.6918
  300MOL0     C39508   0.141  10.936   9.166  0.1045 -0.1457  0.4850
  300MOL0     C39509   0.147  10.900   9.017  0.0816  0.3103 -0.5452
  300MOL0     C39510   0.202  11.014   8.928 -0.5079 -0.3927 -0.5830
  300MOL0     C39511   0.084  11.115   8.894  0.6223 -0.0331 -0.2020
  300MOL0    Cl39512   0.151  11.244   8.788  0.2127  0.0332  0.2397
  300MOL0     C39513   0.112  10.551   9.681 -0.3430  0.8894 -0.0763
  300MOL0     C39514   0.156  10.422   9.660 -0.5273  0.1520  0.2807
  300MOL0     O39515   0.238  10.229   9.872  0.1130 -0.7551 -0.0429
  300MOL0     C39516   0.424   9.995   9.693  0.0890  0.0271  0.9751
  300MOL0     C39517   0.485   9.871   9.712 -0.9723  0.4069 -0.0130
  300MOL0     N39518   0.793   9.165   9.609  0.1090 -0.0286 -0.2177
  300MOL0     N39519   0.737   9.152   9.497  0.4957 -0.4826  0.3248
  300MOL0     C39520   0.891   8.702   9.159 -0.0850 -0.2744 -0.5408
  300MOL0     C39521   0.962   8.773   9.058  0.9622 -0.6944 -0.5244
  300MOL0     C39522   1.139   9.016   8.753  0.1460  0.7274 -0.1481
  300MOL0     C39523   1.110   9.149   8.756 -1.0258  0.2690  0.3964
  300MOL0     C39524   1.094   9.226   8.645  0.3464  0.1555  0.2263
  300MOL0     C39525   1.087   9.175   8.515  0.1495 -0.2919  0.0149
  300MOL0     O39526   1.064   9.261   8.408  0.5378 -0.0881 -0.3276
  300MOL0     C39527   1.181   9.275   8.329 -0.8055 -0.4943  0.1962
  300MOL0     C39528   1.140   9.358   8.200  0.3343 -0.9385 -0.2843
  300MOL0     C39529   1.099   9.505   8.234  0.5386 -0.2777 -0.3900
  300MOL0     C39530   1.218   9.598   8.280 -0.5172 -0.2660  0.4483
  300MOL0     C39531   1.334   9.578   8.192  0.1088  0.6063  0.2178
  300MOL0     C39532   1.430   9.559   8.120 -0.1724 -0.2003  0.2783
  300MOL0     C39533   1.108   9.035   8.504  0.4586 -0.3521  0.0970
  300MOL0     C39534   1.136   8.955   8.624 -0.5649  0.4733  0.2895
  300MOL0     H39535   1.041   9.047   9.239 -1.0717  1.1632 -2.2277
  300MOL0     H39536   0.913   8.942   9.394  0.9095 -1.8006  0.5733
  300MOL0     H39537   0.618   8.655   9.451 -0.8063  0.0945  0.3768
  300MOL0     H39538   0.627   8.629   9.266  3.3442 -0.3697 -1.1568
  300MOL0     H39539   0.629   8.871   9.247  0.3248  0.9642 -0.0804
  300MOL0     H39540   0.627   8.878   9.435 -3.7759 -4.0918  2.9321
  300MOL0     H39541   0.397   8.808   9.443 -2.8122 -1.2759 -1.7423
  300MOL0     H39542   0.412   8.726   9.291 -2.0521 -0.7139  0.8769
  300MOL0     H39543   0.403   8.948   9.165  0.9353  1.3191  0.8207
  300MOL0     H39544   0.276   8.848   9.225 -0.8963 -1.0119  2.8150
  300MOL0     H39545   0.209   9.029   9.398  0.0372 -2.3918 -1.1821
  300MOL0     H39546   0.229   9.101   9.249 -3.3207  1.1478  2.2031
  300MOL0     H39547   0.438   9.096   9.476 -0.4391 -1.5271 -0.5418
  300MOL0     H39548   0.324   9.218   9.441 -3.3441 -2.7015 -1.8133
  300MOL0     H39549   0.565   9.122   9.258 -1.4990 -1.9393  0.1099
  300MOL0     H39550   0.450   9.250   9.202 -3.5359 -1.0962  1.0021
  300MOL0     H39551   0.508   9.393   9.371 -1.1262  0.1493 -2.4405
  300MOL0     H39552   0.653   9.354   9.299  1.1209 -0.0026  1.9106
  300MOL0     H39553   0.608   9.424   9.614  1.7550  0.8373  0.5723
  300MOL0     H39554   0.899   9.305   9.820 -0.8368  1.4391 -2.6330
  300MOL0     H39555   0.750   9.229   9.883  2.1037 -2.0720  1.3342
  300MOL0     H39556   0.768   9.522   9.780  1.5097  1.0526  0.6330
  300MOL0     H39557   0.801   9.494   9.947 -1.9310  3.0492 -0.1873
  300MOL0     H39558   0.529   9.420   9.834 -3.0220 -0.7851  2.4506
  300MOL0     H39559   0.589   9.393   9.999 -2.6023 -0.9411 -1.3713
  300MOL0     H39560   0.612   9.659   9.998 -1.9154  3.2326 -1.3709
  300MOL0     H39561   0.444   9.588   9.988 -0.4040  1.1651  0.6101
  300MOL0     H39562   0.353   9.793  10.009 -0.4510 -0.3098  0.5396
  300MOL0     H39563   0.258   9.998   9.986 -0.4369 -0.9406  0.0525
  300MOL0     H39564   0.491  10.466   9.678 -0.9644 -2.3556  0.1409
  300MOL0     H39565   0.414  10.701   9.695 -0.7128  1.1074 -0.9194
  300MOL0     H39566   0.313  10.882   9.654 -0.6785 -1.6050  2.3612
  300MOL0     H39567   0.176  10.989   9.640  2.0148  1.1490 -4.4854
  300MOL0     H39568   0.086  10.868   9.437 -0.2750 -0.5047 -0.6633
  300MOL0     H39569   0.223  10.754   9.451  2.0699  0.8090 -1.0939
  300MOL0     H39570   0.370  10.994   9.427 -1.4002  2.9842  1.5288
  300MOL0     H39571   0.209  11.050   9.396  2.3540  2.6028  3.2204
  300MOL0     H39572   0.343  11.020   9.190 -1.4703 -0.7064 -2.4227
  300MOL0     H39573   0.332  10.839   9.220  0.3986 -0.7948  0.6498
  300MOL0     H39574   0.087  11.030   9.183 -1.4389 -0.7948 -0.5919
  300MOL0     H39575   0.072  10.866   9.214  1.3356 -1.8515 -0.1246
  300MOL0     H39576   0.044  10.892   8.982 -1.4403  2.4904  2.8826
  300MOL0     H39577   0.201  10.806   8.999  0.4232  1.0177 -3.7380
  300MOL0     H39578   0.288  11.054   8.983 -1.4968 -0.3941  1.0203
  300MOL0     H39579   0.242  10.976   8.833  0.8197  0.3215 -0.3335
  300MOL0     H39580   0.049  11.163   8.986 -0.1370 -0.3033 -0.3473
  300MOL0     H39581  -0.001  11.065   8.848 -0.5982 -0.0011  1.8802
  300MOL0     H39582   0.008  10.580   9.692  0.1125  1.9193  2.0690
  300MOL0     H39583   0.085  10.346   9.629 -1.9315  2.6874 -3.4011
  300MOL0     H39584   0.440  10.061   9.608 -2.0119  1.6647  1.7589
  300MOL0     H39585   0.565   9.834   9.648  2.0135 -0.2837  3.7554
  300MOL0     H39586   0.848   8.604   9.143 -1.1576  0.3650 -1.7052
  300MOL0     H39587   0.962   8.717   8.965  2.7972 -2.0635  0.2389
  300MOL0     H39588   1.103   9.183   8.859 -1.6365 -2.4759  1.3519
  300MOL0     H39589   1.075   9.332   8.657  1.0927  0.3344 -0.0645
  300MOL0     H39590   1.220   9.177   8.302 -1.1205 -0.5028 -0.2282
  300MOL0     H39591   1.259   9.334   8.379 -0.8551  2.3213 -2.7761
  300MOL0     H39592   1.217   9.351   8.123  1.7487  0.3647  0.9429
  300MOL0     H39593   1.048   9.319   8.154 -0.8950 -0.7334  1.8709
  300MOL0     H39594   1.034   9.525   8.320  3.1580  3.8870  0.9075
  300MOL0     H39595   1.051   9.544   8.144  0.4998 -1.4129 -0.8729
  300MOL0     H39596   1.193   9.704   8.284  0.9514  0.2171 -1.6881
  300MOL0     H39597   1.246   9.571   8.383 -0.1727  1.6831  0.8947
  300MOL0     H39598   1.508   9.534   8.051 -0.5627  0.4797 -0.4307
  300MOL0     H39599   1.108   8.987   8.407  0.4637  2.5660 -1.4624
  300MOL0     H39600   1.147   8.849   8.608  1.6038  0.6891  0.1077
  301MOL0     O39601   7.495  11.228   1.459  0.6350  0.5379  0.1580
  301MOL0     C39602   7.536  11.311   1.382 -0.3236  0.6742  0.1062
  301MOL0     O39603   7.488  11.431   1.364 -0.0172 -0.2053 -0.0849
  301MOL0     C39604   7.359  11.472   1.399 -0.5395  0.1321  0.0674
  301MOL0     C39605   7.337  11.600   1.445 -0.0923 -0.1483  1.1173
  301MOL0     C39606   7.207  11.653   1.450  0.3573  0.7851  0.3203
  301MOL0     C39607   7.096  11.577   1.416 -0.0861  0.7696  0.4354
  301MOL0     O39608   6.973  11.637   1.454  0.8192  0.2517  0.0992
  301MOL0     C39609   6.859  11.541   1.456  0.4146 -0.7016  0.0818
  301MOL0     C39610   6.729  11.604   1.528  0.0822  0.4869 -0.1930
  301MOL0     C39611   6.752  11.639   1.678  0.1516 -0.0511  0.4565
  301MOL0     C39612   6.727  11.509   1.760 -0.3604 -0.2552  0.7397
  301MOL0     C39613   6.709  11.553   1.904  0.2641  0.6165 -0.0136
  301MOL0     C39614   6.748  11.435   2.000  0.4114  1.2260 -0.3801
  301MOL0     C39615   6.619  11.348   2.042  0.3585 -0.4489 -0.0527
  301MOL0     C39616   6.626  11.300   2.188 -0.7056 -0.4466  0.9854
  301MOL0     N39617   6.496  11.230   2.217  0.7418  0.3530  0.4312
  301MOL0     C39618   6.459  11.103   2.162  1.2367 -0.7280 -0.4256
  301MOL0     C39619   6.335  11.091   2.212 -0.3547  0.4876 -0.1537
  301MOL0     C39620   6.224  10.986   2.175  0.1037  0.7510  0.1598
  301MOL0     C39621   6.080  11.015   2.223  0.2208  0.3015 -0.3355
  301MOL0     C39622   5.983  10.907   2.160 -1.1248  0.7417 -0.6372
  301MOL0     C39623   5.967  10.781   2.262 -0.3131  0.0306 -0.0797
  301MOL0     O39624   5.927  10.834   2.396 -0.0329  0.9323  0.2160
  301MOL0     C39625   5.791  10.830   2.424 -0.2455  0.1499 -0.2472
  301MOL0     C39626   5.751  10.904   2.541  0.1700 -0.5911  0.0330
  301MOL0     C39627   5.616  10.916   2.580  0.6477  0.0146 -0.0706
  301MOL0     C39628   5.516  10.856   2.503 -0.0553  0.0113  0.3268
  301MOL0     C39629   5.373  10.858   2.533  0.4863 -0.3895  0.0981
  301MOL0     O39630   5.291  10.812   2.436  0.0924  0.2862  0.1435
  301MOL0     C39631   5.159  10.835   2.441  0.2279  0.1989 -0.3523
  301MOL0     C39632   5.092  10.946   2.501  0.1308  0.8291 -0.5875
  301MOL0     C39633   4.950  10.955   2.499  0.5483 -0.6676  0.3984
  301MOL0     C39634   4.877  10.868   2.424 -0.2498  0.3360  0.2640
  301MOL0     O39635   4.738  10.894   2.409  0.5069 -0.5174 -0.7885
  301MOL0     C39636   4.649  10.782   2.382  0.7553  0.4158 -0.4844
  301MOL0     C39637   4.509  10.833   2.380  1.3745  0.5604 -0.1261
  301MOL0     C39638   4.495  10.946   2.279 -0.7741  1.1403  0.3370
  301MOL0     C39639   4.368  11.026   2.277 -0.2992  1.0886  0.1240
  301MOL0     C39640   4.304  11.040   2.421 -0.0238 -1.2720 -0.2082
  301MOL0     C39641   4.164  11.114   2.422 -0.8657  0.3956 -0.2775
  301MOL0     C39642   4.172  11.265   2.386 -0.1637  0.1261  0.0871
  301MOL0     C39643   4.039  11.331   2.388 -0.4214 -0.3219 -0.2613
  301MOL0    Cl39644   3.932  11.252   2.275  0.1811 -0.2544 -0.1958
  301MOL0     C39645   4.940  10.760   2.364 -0.5662 -0.5924  0.8635
  301MOL0     C39646   5.079  10.748   2.366  0.4934 -0.0058 -0.0439
  301MOL0     O39647   5.339  10.877   2.646  0.2659  0.4621  0.7386
  301MOL0     C39648   5.559  10.782   2.394  0.5224 -0.0771  0.6960
  301MOL0     C39649   5.688  10.772   2.346  0.2828  0.3812 -0.1669
  301MOL0     N39650   6.307  11.192   2.302  0.0989  0.0385  0.9885
  301MOL0     N39651   6.408  11.270   2.308  0.3756  0.2755 -0.3840
  301MOL0     C39652   7.120  11.464   1.344 -0.6130  1.0095 -0.8117
  301MOL0     C39653   7.252  11.415   1.337 -0.4299  0.5819 -0.2447
  301MOL0     C39654   7.668  11.285   1.320  0.0751  0.9656 -1.0643
  301MOL0     C39655   7.733  11.366   1.229  0.2193 -0.3850 -0.3910
  301MOL0     C39656   7.866  11.347   1.198 -0.7353 -0.0960  0.2412
  301MOL0     C39657   7.945  11.244   1.247 -0.0182  0.0792  0.2987
  301MOL0     O39658   8.079  11.241   1.215 -0.2787 -0.4327 -0.1305
  301MOL0     C39659   8.161  11.135   1.270 -0.7281  0.3993 -0.4990
  301MOL0     C39660   8.309  11.186   1.300  0.6439  0.1968  0.4546
  301MOL0     C39661   8.387  11.084   1.373  0.3372 -0.4016  0.3042
  301MOL0     C39662   8.380  10.944   1.316 -0.0979 -0.3093 -0.4395
  301MOL0     C39663   8.402  10.929   1.173 -0.2617 -0.7380  0.0135
  301MOL0     C39664   8.417  10.898   1.057  0.4129 -0.4603  0.4733
  301MOL0     C39665   7.881  11.145   1.325 -1.0653 -0.6349  1.0219
  301MOL0     C39666   7.744  11.173   1.355 -0.3033 -0.7343 -0.4175
  301MOL0     H39667   7.426  11.656   1.471  3.4041 -3.8821 -1.4884
  301MOL0     H39668   7.197  11.753   1.490  0.9468  0.5211  1.1511
  301MOL0     H39669   6.878  11.443   1.501 -3.1463 -2.7073 -2.3462
  301MOL0     H39670   6.830  11.511   1.355  0.9608  2.4099 -1.1156
  301MOL0     H39671   6.640  11.549   1.498  0.4254  0.7854 -1.8352
  301MOL0     H39672   6.722  11.703   1.481  1.2063  1.2357  1.1469
  301MOL0     H39673   6.685  11.720   1.706  0.0447  1.2449 -2.9978
  301MOL0     H39674   6.856  11.670   1.691  0.9974 -0.8420 -3.1761
  301MOL0     H39675   6.638  11.458   1.722 -1.7580  2.8699 -0.5486
  301MOL0     H39676   6.816  11.447   1.748 -0.1366 -0.1086  1.5900
  301MOL0     H39677   6.612  11.596   1.929  0.6914 -0.2913  3.9906
  301MOL0     H39678   6.784  11.630   1.925  1.1224 -0.1511 -0.1816
  301MOL0     H39679   6.800  11.475   2.088  0.1371  0.4275  0.1572
  301MOL0     H39680   6.817  11.362   1.957  0.6461  1.1735  0.0783
  301MOL0     H39681   6.524  11.399   2.024 -0.8080 -0.8125  4.0409
  301MOL0     H39682   6.620  11.259   1.978  0.9103 -0.3249 -0.2191
  301MOL0     H39683   6.636  11.387   2.252 -0.2562 -0.2793  0.6859
  301MOL0     H39684   6.707  11.231   2.214 -1.8705 -1.5423  1.8596
  301MOL0     H39685   6.499  11.042   2.081 -1.7462 -0.0230 -2.5950
  301MOL0     H39686   6.256  10.883   2.189 -2.1731 -0.5571 -2.9760
  301MOL0     H39687   6.225  10.989   2.065  2.7740  1.0749  0.1255
  301MOL0     H39688   6.051  11.112   2.181 -0.7205 -0.3534 -1.2354
  301MOL0     H39689   6.074  11.019   2.332  0.9483  0.6219 -0.3027
  301MOL0     H39690   5.878  10.939   2.152 -0.3738  3.7664  0.4372
  301MOL0     H39691   6.014  10.876   2.060 -0.7699 -2.8153  0.4503
  301MOL0     H39692   6.056  10.721   2.283 -1.6239 -1.4207  1.5030
  301MOL0     H39693   5.896  10.721   2.204 -3.4914  2.6121  0.8148
  301MOL0     H39694   5.835  10.957   2.585  0.7679 -0.1131 -1.6414
  301MOL0     H39695   5.604  10.985   2.663 -1.3886 -1.6700  1.1703
  301MOL0     H39696   5.151  11.014   2.561  1.7951 -1.8717  1.0200
  301MOL0     H39697   4.886  11.028   2.549  0.4788 -0.3647 -0.1237
  301MOL0     H39698   4.662  10.701   2.456 -1.6001  0.5965  0.1938
  301MOL0     H39699   4.668  10.737   2.284 -0.4120 -1.2466  0.0023
  301MOL0     H39700   4.473  10.870   2.476  0.8162 -0.8203  0.2176
  301MOL0     H39701   4.438  10.758   2.344  0.9565  0.9552 -0.1193
  301MOL0     H39702   4.509  10.910   2.177 -0.2369  0.0002  0.7909
  301MOL0     H39703   4.580  11.014   2.293  1.0499 -0.9571  0.0257
  301MOL0     H39704   4.378  11.128   2.239 -0.0844  1.9559  2.4035
  301MOL0     H39705   4.303  10.969   2.209 -1.6488 -2.0026  3.6663
  301MOL0     H39706   4.375  11.093   2.484 -0.0493 -0.1304 -1.1022
  301MOL0     H39707   4.283  10.943   2.466  0.1035 -2.1368 -1.9173
  301MOL0     H39708   4.126  11.115   2.525  1.2428  2.5839  0.5735
  301MOL0     H39709   4.101  11.053   2.357  1.3558 -1.6332 -0.6838
  301MOL0     H39710   4.229  11.311   2.467 -1.8595  0.8014  0.9325
  301MOL0     H39711   4.226  11.273   2.291  2.1478 -1.2891  1.1960
  301MOL0     H39712   4.049  11.437   2.359 -4.4850  0.0748 -0.8097
  301MOL0     H39713   4.009  11.334   2.493 -1.3167 -1.0117 -0.4872
  301MOL0     H39714   4.883  10.684   2.311  2.0346 -2.7413  0.9415
  301MOL0     H39715   5.122  10.666   2.309 -1.0764 -0.4942 -0.5660
  301MOL0     H39716   5.490  10.738   2.323  3.5006  0.0804 -2.6028
  301MOL0     H39717   5.706  10.719   2.253 -0.4610 -2.1011  1.0205
  301MOL0     H39718   7.044  11.403   1.296  1.0731 -2.4809  0.6071
  301MOL0     H39719   7.268  11.322   1.284 -1.3143  0.2543  0.0425
  301MOL0     H39720   7.687  11.459   1.198 -0.9132 -0.9575 -0.4607
  301MOL0     H39721   7.906  11.436   1.149 -1.5317  1.3394  2.1047
  301MOL0     H39722   8.151  11.046   1.206 -0.0775 -1.2464  1.5521
  301MOL0     H39723   8.132  11.102   1.371 -1.5084 -1.1069 -1.1731
  301MOL0     H39724   8.347  11.221   1.204  0.8972  1.7774  1.0977
  301MOL0     H39725   8.292  11.273   1.364 -0.0960 -0.2164  0.8403
  301MOL0     H39726   8.348  11.084   1.475  0.9145  3.0555  0.6442
  301MOL0     H39727   8.494  11.108   1.381  1.2176 -3.7424  0.0146
  301MOL0     H39728   8.446  10.867   1.356 -0.2095 -1.3764 -2.2098
  301MOL0     H39729   8.281  10.904   1.338 -0.2792  0.4704  0.1918
  301MOL0     H39730   8.417  10.871   0.953 -0.1973  4.2371 -0.9906
  301MOL0     H39731   7.929  11.054   1.359  0.1657  0.9797  3.9301
  301MOL0     H39732   7.697  11.107   1.428  0.3170 -0.5492  0.1596
  302MOL0     O39733  10.329   2.157  10.883  0.2133  0.1982  0.2757
  302MOL0     C39734  10.256   2.128  10.976  1.2304 -0.5971  0.8011
  302MOL0     O39735  10.238   1.999  11.025  0.3475 -0.5256  0.4345
  302MOL0     C39736  10.325   1.898  10.987 -0.0433 -0.6511 -0.6928
  302MOL0     C39737  10.271   1.789  10.918 -0.7871 -0.2093  1.3131
  302MOL0     C39738  10.367   1.697  10.863 -0.0825 -0.2364 -0.9596
  302MOL0     C39739  10.507   1.700  10.896 -0.1761  0.2445  0.1362
  302MOL0     O39740  10.594   1.610  10.843  0.0083  0.3734  0.1114
  302MOL0     C39741  10.552   1.470  10.878 -0.0440 -0.9666 -1.3622
  302MOL0     C39742  10.560   1.375  10.756  0.0046  0.4529  0.0445
  302MOL0     C39743  10.509   1.229  10.757  0.2135  0.5089  0.2479
  302MOL0     C39744  10.374   1.224  10.833  0.3372 -0.1426  0.4336
  302MOL0     C39745  10.328   1.082  10.872 -0.4091 -0.7373 -0.8880
  302MOL0     C39746  10.302   1.069  11.028 -0.3872 -0.1811  1.0232
  302MOL0     C39747  10.287   0.928  11.083 -0.7224  0.6448  0.4472
  302MOL0     C39748  10.276   0.936  11.238 -0.7148  0.8132  0.1680
  302MOL0     N39749  10.141   0.977  11.281  0.2742  0.2628  1.0173
  302MOL0     C39750  10.028   0.904  11.233 -0.1108  0.2065 -0.0208
  302MOL0     C39751   9.928   0.935  11.321 -0.0104 -0.0907  0.7806
  302MOL0     C39752   9.787   0.894  11.314  0.4818  0.9689 -0.6908
  302MOL0     C39753   9.765   0.786  11.426  0.3152  0.8323 -0.0193
  302MOL0     C39754   9.668   0.826  11.537  0.0856  0.6056 -0.4627
  302MOL0     C39755   9.524   0.805  11.495 -0.4770  0.1081  0.4993
  302MOL0     O39756   9.467   0.934  11.487  0.0284  0.0387  0.2454
  302MOL0     C39757   9.332   0.956  11.461 -0.2351 -0.2925  0.7690
  302MOL0     C39758   9.234   0.855  11.433 -0.4181  0.3526  0.8692
  302MOL0     C39759   9.099   0.889  11.390 -0.8200  0.1520 -1.3733
  302MOL0     C39760   9.058   1.021  11.389 -0.5919  0.3641 -0.7439
  302MOL0     C39761   8.908   1.043  11.360 -0.0435 -0.5123  0.4330
  302MOL0     O39762   8.873   1.181  11.345 -0.3729 -0.0227  0.0348
  302MOL0     C39763   8.742   1.200  11.319  0.0132  0.0916 -0.2676
  302MOL0     C39764   8.694   1.211  11.182  0.2589 -0.2929 -0.9467
  302MOL0     C39765   8.560   1.216  11.160  0.6536  0.2276 -0.3722
  302MOL0     C39766   8.471   1.208  11.271  0.5144 -1.0445 -0.0064
  302MOL0     O39767   8.338   1.223  11.261  0.6009  0.6859  0.3461
  302MOL0     C39768   8.284   1.189  11.131  0.1070  0.5389  0.2283
  302MOL0     C39769   8.131   1.185  11.134 -0.2729  0.5581  0.7904
  302MOL0     C39770   8.073   1.118  11.006  0.3625 -0.1832 -0.5049
  302MOL0     C39771   7.916   1.115  11.021 -0.5589 -0.1011 -0.3874
  302MOL0     C39772   7.862   1.056  10.885  0.2266  0.0338 -0.6178
  302MOL0     C39773   7.722   0.994  10.913 -0.8496 -0.2237  0.6499
  302MOL0     C39774   7.667   0.946  10.778  0.2275 -0.5346 -1.2590
  302MOL0     C39775   7.523   0.891  10.770 -0.2856  0.2689 -0.4850
  302MOL0    Cl39776   7.466   0.877  10.596 -0.4802  0.6162 -0.1293
  302MOL0     C39777   8.514   1.201  11.401 -0.7077  0.5576 -0.5215
  302MOL0     C39778   8.650   1.194  11.428 -0.1930 -0.2851 -0.1109
  302MOL0     O39779   8.835   0.946  11.337  0.3063  0.3876 -0.6089
  302MOL0     C39780   9.145   1.122  11.419  0.3368 -0.0042 -0.0748
  302MOL0     C39781   9.278   1.085  11.454 -0.1080 -0.3381 -0.6106
  302MOL0     N39782   9.983   1.004  11.424  0.0638 -0.3577 -0.2134
  302MOL0     N39783  10.104   1.039  11.388 -0.4861 -0.4317 -0.0473
  302MOL0     C39784  10.555   1.811  10.968  0.4109  0.0104 -0.0695
  302MOL0     C39785  10.462   1.909  11.006  0.4776  0.3660  0.2257
  302MOL0     C39786  10.157   2.220  11.018  0.4759  0.1147  0.4608
  302MOL0     C39787  10.043   2.177  11.092  0.4246 -1.5699  0.3300
  302MOL0     C39788   9.964   2.265  11.167 -0.9158  0.1476 -0.3148
  302MOL0     C39789   9.984   2.408  11.161 -1.1855 -0.3238 -0.2357
  302MOL0     O39790   9.902   2.494  11.219 -0.1184 -0.9106  0.8589
  302MOL0     C39791   9.782   2.507  11.135  0.2188  0.0188  0.1020
  302MOL0     C39792   9.690   2.602  11.223 -1.2769  0.3860  0.2643
  302MOL0     C39793   9.678   2.566  11.363 -0.3610  1.1595  0.0747
  302MOL0     C39794   9.625   2.424  11.388 -0.7199 -0.1584 -0.5613
  302MOL0     C39795   9.525   2.365  11.300  0.4329  0.5885 -0.8618
  302MOL0     C39796   9.438   2.324  11.222 -0.0714  0.0887  0.8061
  302MOL0     C39797  10.092   2.454  11.077 -0.2531 -1.2092 -0.7084
  302MOL0     C39798  10.172   2.361  11.000 -0.2115 -0.0044 -0.4296
  302MOL0     H39799  10.166   1.780  10.895 -0.5620  1.4158 -0.6198
  302MOL0     H39800  10.324   1.605  10.826 -0.5008  0.9102 -3.5308
  302MOL0     H39801  10.453   1.468  10.925 -0.0260  0.0943 -1.2547
  302MOL0     H39802  10.604   1.424  10.963 -2.5971 -0.7519  0.4263
  302MOL0     H39803  10.666   1.376  10.728  0.1554 -3.0850  0.0110
  302MOL0     H39804  10.498   1.428  10.684  0.7587 -0.5933 -1.4384
  302MOL0     H39805  10.592   1.173  10.801 -0.0421 -0.4079 -0.3795
  302MOL0     H39806  10.491   1.180  10.660 -2.7538 -1.2201  1.5244
  302MOL0     H39807  10.386   1.275  10.929  0.5002 -2.6845  1.8561
  302MOL0     H39808  10.296   1.271  10.773  1.8755  1.0604 -0.7363
  302MOL0     H39809  10.409   1.018  10.837  1.9194  1.8182 -0.5314
  302MOL0     H39810  10.236   1.053  10.821 -1.4964 -0.9358  1.0648
  302MOL0     H39811  10.206   1.119  11.041 -1.1389 -0.6156 -1.9850
  302MOL0     H39812  10.376   1.123  11.089 -2.2571  3.4047  0.4173
  302MOL0     H39813  10.210   0.878  11.025  0.3122  0.2983 -0.6711
  302MOL0     H39814  10.380   0.885  11.045 -0.8517  1.3359 -0.7195
  302MOL0     H39815  10.348   1.012  11.269  1.8376 -1.3822 -0.0284
  302MOL0     H39816  10.306   0.845  11.291  0.4606  1.1097  0.0198
  302MOL0     H39817  10.015   0.848  11.141  0.5240 -1.0509  0.6207
  302MOL0     H39818   9.759   0.848  11.219  2.6082  0.7744 -1.2728
  302MOL0     H39819   9.723   0.982  11.330  0.9903  1.3778 -0.9068
  302MOL0     H39820   9.859   0.751  11.470 -0.2543 -1.5876 -0.5742
  302MOL0     H39821   9.733   0.698  11.370 -1.1634  2.1630 -1.3691
  302MOL0     H39822   9.678   0.773  11.632 -0.7356  0.7197 -0.3054
  302MOL0     H39823   9.685   0.927  11.574 -0.3980 -0.3197  2.5124
  302MOL0     H39824   9.469   0.747  11.569 -0.3048  0.1701  0.6770
  302MOL0     H39825   9.514   0.744  11.404 -1.1286 -3.6176  2.8603
  302MOL0     H39826   9.255   0.748  11.430  0.9810  0.6207  0.3056
  302MOL0     H39827   9.025   0.811  11.377 -1.6458  0.3669  1.2911
  302MOL0     H39828   8.768   1.212  11.103 -0.6436 -2.5217 -1.8978
  302MOL0     H39829   8.528   1.217  11.057 -0.7783  0.7155  0.0580
  302MOL0     H39830   8.320   1.090  11.102  2.0221  0.8833  1.2708
  302MOL0     H39831   8.316   1.257  11.051  0.2942 -1.0581 -1.0918
  302MOL0     H39832   8.097   1.289  11.149  1.1302  1.1009  0.3273
  302MOL0     H39833   8.103   1.134  11.227 -1.3590  2.1236  1.3710
  302MOL0     H39834   8.106   1.014  10.995 -3.3920 -1.8885  2.2355
  302MOL0     H39835   8.098   1.174  10.915  0.4551  1.2297  0.3602
  302MOL0     H39836   7.898   1.044  11.103 -1.7385 -0.6509 -1.0951
  302MOL0     H39837   7.867   1.211  11.042 -2.1933 -1.2497  1.4742
  302MOL0     H39838   7.937   0.984  10.847 -2.2893 -1.2804 -3.5507
  302MOL0     H39839   7.860   1.130  10.804  0.4094 -0.7193 -1.3347
  302MOL0     H39840   7.650   1.059  10.964 -0.3504 -1.5196  3.1524
  302MOL0     H39841   7.745   0.910  10.979 -0.4042 -0.5806  0.0508
  302MOL0     H39842   7.653   1.029  10.708  0.2962  0.6548  0.0963
  302MOL0     H39843   7.732   0.874  10.728 -0.4585 -1.7561 -0.4290
  302MOL0     H39844   7.458   0.964  10.819 -1.3825 -0.5495 -0.6836
  302MOL0     H39845   7.506   0.800  10.829  0.4168  1.5161  1.7545
  302MOL0     H39846   8.439   1.191  11.479  0.3919  3.4501  1.0753
  302MOL0     H39847   8.673   1.164  11.530 -3.6094 -1.3164  0.5141
  302MOL0     H39848   9.122   1.227  11.405  0.6293 -0.1512 -1.9997
  302MOL0     H39849   9.338   1.171  11.482 -1.2232  2.2057 -5.0041
  302MOL0     H39850  10.662   1.803  10.986  0.9108 -0.0066 -2.6151
  302MOL0     H39851  10.499   1.999  11.055 -0.1403  0.1779  1.0649
  302MOL0     H39852  10.030   2.073  11.122  1.9650 -1.2009  2.5305
  302MOL0     H39853   9.880   2.232  11.228 -1.4966  2.3446  0.1961
  302MOL0     H39854   9.734   2.410  11.118 -0.4409  0.0049  1.7839
  302MOL0     H39855   9.804   2.559  11.041 -1.7679 -0.1564 -0.5165
  302MOL0     H39856   9.753   2.691  11.224 -0.9567  0.2769 -2.1912
  302MOL0     H39857   9.590   2.630  11.187 -1.9929 -1.9377  0.2520
  302MOL0     H39858   9.608   2.640  11.404 -0.3607  1.1388  0.1129
  302MOL0     H39859   9.772   2.569  11.419  0.4023  0.2409 -1.1125
  302MOL0     H39860   9.713   2.360  11.390  0.3558  1.1880 -2.0278
  302MOL0     H39861   9.586   2.431  11.490 -1.3572 -3.5273 -0.4489
  302MOL0     H39862   9.377   2.276  11.148  2.2627 -0.8441 -0.6435
  302MOL0     H39863  10.118   2.559  11.071  0.4423 -1.0086  3.2611
  302MOL0     H39864  10.250   2.399  10.934 -0.3986 -1.4050 -1.4798
  303MOL0     O39865  11.376   7.617   7.067 -0.0593 -0.2400 -0.5958
  303MOL0     C39866  11.424   7.501   7.072  0.4144  0.5096 -0.0702
  303MOL0     O39867  11.362   7.388   7.014  0.0335 -0.0353 -0.5481
  303MOL0     C39868  11.247   7.378   6.943 -0.2851  0.6004  0.1799
  303MOL0     C39869  11.193   7.492   6.875 -0.0787  0.1020  0.2775
  303MOL0     C39870  11.080   7.456   6.790  0.4307  0.5830  0.2193
  303MOL0     C39871  11.017   7.328   6.792  0.4674 -0.6346  0.3360
  303MOL0     O39872  10.898   7.320   6.722 -0.4437 -0.2275  0.1675
  303MOL0     C39873  10.815   7.208   6.747  0.2211 -0.0106  0.7556
  303MOL0     C39874  10.668   7.243   6.701  0.5355 -0.6174 -0.5213
  303MOL0     C39875  10.611   7.358   6.791  0.5715  0.2089  0.3831
  303MOL0     C39876  10.455   7.344   6.791 -0.3518  0.6147  0.6018
  303MOL0     C39877  10.396   7.343   6.649  0.3823 -0.3143 -1.3061
  303MOL0     C39878  10.243   7.305   6.651 -0.6814  0.2389 -0.4774
  303MOL0     C39879  10.212   7.163   6.699 -0.8060 -0.5920 -0.0904
  303MOL0     C39880  10.068   7.119   6.676 -0.0252 -1.1877  0.2874
  303MOL0     N39881  10.023   7.119   6.535 -0.0243  1.3097 -0.1772
  303MOL0     C39882  10.092   7.053   6.434 -0.3014 -0.9214  0.6159
  303MOL0     C39883  10.020   7.088   6.323 -0.2889 -0.8352  0.1416
  303MOL0     C39884  10.044   7.021   6.191 -0.2200  0.4773 -1.0941
  303MOL0     C39885   9.982   6.873   6.199 -0.3462 -0.2703  0.5992
  303MOL0     C39886   9.832   6.863   6.185  1.0694  0.3368 -0.6511
  303MOL0     C39887   9.767   6.926   6.060 -0.2038 -0.0715 -0.3101
  303MOL0     O39888   9.832   6.867   5.952  0.0545  0.0043  0.8176
  303MOL0     C39889   9.794   6.741   5.928  0.4757  0.0202  0.6902
  303MOL0     C39890   9.881   6.634   5.919 -0.4196 -0.3582  0.6293
  303MOL0     C39891   9.839   6.507   5.874 -0.9675 -0.4449  1.1479
  303MOL0     C39892   9.712   6.483   5.832  0.8346 -0.1061  0.3993
  303MOL0     C39893   9.655   6.348   5.816  0.1606  0.6993  0.2808
  303MOL0     O39894   9.721   6.240   5.866 -0.3517  0.2750 -0.1620
  303MOL0     C39895   9.679   6.113   5.834  0.4711 -0.4685  0.4414
  303MOL0     C39896   9.757   6.015   5.902  1.2813 -1.0433 -0.0746
  303MOL0     C39897   9.719   5.884   5.917  0.0523  0.3187  0.0739
  303MOL0     C39898   9.609   5.842   5.845  0.3952 -0.5188 -0.1596
  303MOL0     O39899   9.573   5.708   5.844 -0.0908  0.1789 -0.3617
  303MOL0     C39900   9.559   5.637   5.972 -0.6086 -0.4056 -0.4922
  303MOL0     C39901   9.453   5.536   5.979 -0.2679 -0.5307  0.2000
  303MOL0     C39902   9.317   5.596   5.959 -0.4912 -0.7748  0.5493
  303MOL0     C39903   9.218   5.501   6.019 -0.2570  1.0210 -0.0943
  303MOL0     C39904   9.106   5.577   6.080  0.0321  0.0657  0.5444
  303MOL0     C39905   9.020   5.635   5.974 -0.1584  0.1063 -0.1768
  303MOL0     C39906   8.879   5.665   6.028 -0.7343 -0.0156  0.5225
  303MOL0     C39907   8.786   5.551   6.044 -0.6782 -0.1724  0.7071
  303MOL0    Cl39908   8.620   5.611   6.064 -0.3343 -0.1114 -0.3754
  303MOL0     C39909   9.548   5.930   5.756  0.1830 -0.4506  1.7029
  303MOL0     C39910   9.565   6.065   5.754 -0.7521 -0.1689  0.0819
  303MOL0     O39911   9.542   6.349   5.763 -0.1236  0.4928 -0.0582
  303MOL0     C39912   9.630   6.601   5.834 -0.5857  0.0412 -0.1384
  303MOL0     C39913   9.672   6.729   5.877  0.7153  0.9808 -0.9668
  303MOL0     N39914   9.911   7.168   6.361 -0.1369 -0.3072 -0.2357
  303MOL0     N39915   9.913   7.177   6.483 -0.2819 -0.6236 -0.5011
  303MOL0     C39916  11.062   7.238   6.887  0.2193  0.4113  0.1501
  303MOL0     C39917  11.176   7.255   6.948 -0.3039  0.7334 -0.5396
  303MOL0     C39918  11.551   7.481   7.149 -0.5808 -0.7865 -0.6691
  303MOL0     C39919  11.635   7.371   7.121  0.2472  0.3872 -0.3644
  303MOL0     C39920  11.750   7.349   7.189 -0.4838 -0.1289 -0.1958
  303MOL0     C39921  11.788   7.433   7.292  0.2404  0.2404  0.7426
  303MOL0     O39922  11.901   7.395   7.357 -0.2512 -0.3834  0.3515
  303MOL0     C39923  11.965   7.489   7.446 -0.2130 -0.1980 -0.2034
  303MOL0     C39924  12.031   7.610   7.373  0.0070 -0.2277  0.3171
  303MOL0     C39925  12.172   7.587   7.328 -0.2305 -0.8256 -0.2126
  303MOL0     C39926  12.251   7.719   7.345 -0.2175 -0.8564  0.3702
  303MOL0     C39927  12.312   7.727   7.477 -0.2472  0.5245  0.4446
  303MOL0     C39928  12.379   7.747   7.577 -0.0304  1.0143 -0.1204
  303MOL0     C39929  11.702   7.540   7.322 -0.3114  0.7128 -0.4496
  303MOL0     C39930  11.595   7.566   7.254 -0.8342 -0.1802  0.4293
  303MOL0     H39931  11.241   7.589   6.863  1.7071 -0.7511  0.1965
  303MOL0     H39932  11.025   7.529   6.733 -0.3626 -0.2542 -0.1086
  303MOL0     H39933  10.817   7.164   6.847 -2.3363 -1.1826  0.3887
  303MOL0     H39934  10.842   7.123   6.682  1.2621  0.5762  0.3968
  303MOL0     H39935  10.614   7.148   6.708 -0.0437 -0.4907 -2.4995
  303MOL0     H39936  10.666   7.275   6.596 -1.0106 -0.5969 -0.5071
  303MOL0     H39937  10.646   7.453   6.747  1.7804  0.0014  0.8560
  303MOL0     H39938  10.652   7.359   6.892  0.4644  0.0103  0.4289
  303MOL0     H39939  10.431   7.248   6.837 -2.5693 -1.9585 -5.0466
  303MOL0     H39940  10.411   7.427   6.847 -2.4939 -0.6837  0.9278
  303MOL0     H39941  10.455   7.281   6.581  0.2089 -0.7062 -1.0984
  303MOL0     H39942  10.396   7.449   6.619  0.7311  0.3912  0.9789
  303MOL0     H39943  10.184   7.322   6.560 -0.5658  1.9672 -0.2582
  303MOL0     H39944  10.210   7.375   6.728  0.5808  0.6009 -0.2419
  303MOL0     H39945  10.272   7.086   6.651  1.5227  1.2203 -0.2595
  303MOL0     H39946  10.227   7.153   6.807 -2.1573  2.2477  0.4601
  303MOL0     H39947   9.995   7.181   6.729  0.8084  1.2309 -1.2558
  303MOL0     H39948  10.066   7.017   6.717  1.7290 -2.3172 -2.1966
  303MOL0     H39949  10.186   6.999   6.432 -0.1397 -0.6279  0.0679
  303MOL0     H39950  10.152   7.018   6.174  0.2278  0.2088  1.4108
  303MOL0     H39951   9.993   7.074   6.110  0.0728  1.7939 -0.4389
  303MOL0     H39952  10.018   6.822   6.289  0.1992 -4.3813 -1.7044
  303MOL0     H39953  10.020   6.822   6.110  3.2102  3.4267 -0.3212
  303MOL0     H39954   9.811   6.755   6.191  0.2460  0.5076 -0.4237
  303MOL0     H39955   9.791   6.899   6.279 -2.4802 -3.1973 -0.5689
  303MOL0     H39956   9.791   7.032   6.047 -0.3477 -0.2609 -2.4804
  303MOL0     H39957   9.659   6.914   6.070  0.1539 -3.5248  0.9288
  303MOL0     H39958   9.981   6.655   5.956 -0.8202 -1.6767  2.6168
  303MOL0     H39959   9.907   6.422   5.877 -2.5494 -1.8741 -0.8567
  303MOL0     H39960   9.847   6.047   5.954  1.0131 -1.4195  0.6303
  303MOL0     H39961   9.788   5.822   5.973  1.7677  2.5138  0.5330
  303MOL0     H39962   9.545   5.713   6.049  0.6784  0.2156 -0.8505
  303MOL0     H39963   9.655   5.587   5.993  0.4304  2.1030  1.1378
  303MOL0     H39964   9.462   5.473   6.067 -1.7672 -0.1116  0.6921
  303MOL0     H39965   9.467   5.472   5.891 -0.7568  2.3544 -2.1754
  303MOL0     H39966   9.298   5.609   5.852 -0.0574 -2.1090  0.2905
  303MOL0     H39967   9.313   5.693   6.009  1.8046 -0.6641  0.6612
  303MOL0     H39968   9.176   5.429   5.948 -1.6611 -1.1218  2.7266
  303MOL0     H39969   9.244   5.447   6.111 -1.2481  1.6186  0.5573
  303MOL0     H39970   9.148   5.663   6.133  4.2042  1.1073 -3.7518
  303MOL0     H39971   9.058   5.501   6.142 -1.2035 -1.1197 -1.7454
  303MOL0     H39972   9.000   5.566   5.892 -0.6317 -1.3777  1.1378
  303MOL0     H39973   9.069   5.728   5.944  1.4365 -0.1470  1.4314
  303MOL0     H39974   8.886   5.722   6.121 -1.5866 -1.6665  1.6431
  303MOL0     H39975   8.833   5.731   5.954  0.0420 -0.6756 -0.5725
  303MOL0     H39976   8.813   5.484   6.125  0.0573  0.8498  1.3350
  303MOL0     H39977   8.805   5.484   5.960  0.3721 -2.8888  2.9600
  303MOL0     H39978   9.468   5.886   5.697 -0.0048  1.6004  0.3283
  303MOL0     H39979   9.501   6.119   5.685 -1.1577 -2.5221 -1.4980
  303MOL0     H39980   9.525   6.583   5.814 -0.5276  1.7461 -2.4666
  303MOL0     H39981   9.611   6.819   5.883  1.7590  1.6500  0.0567
  303MOL0     H39982  11.003   7.149   6.908  1.7510 -0.4668  0.8974
  303MOL0     H39983  11.223   7.177   7.007  0.7914  1.6914 -0.1005
  303MOL0     H39984  11.605   7.303   7.042  1.1488 -1.0363  0.4560
  303MOL0     H39985  11.795   7.260   7.148  1.8464  0.7328  0.3297
  303MOL0     H39986  12.036   7.434   7.508  1.4865 -0.5815 -2.3755
  303MOL0     H39987  11.885   7.528   7.510 -0.6141 -0.4731 -0.5339
  303MOL0     H39988  11.965   7.639   7.291 -0.5298  1.1965  1.2199
  303MOL0     H39989  12.038   7.693   7.444  1.7980 -0.1153  0.0579
  303MOL0     H39990  12.167   7.561   7.222  0.6958 -0.3207 -0.3963
  303MOL0     H39991  12.232   7.506   7.371  1.5559 -0.4038 -1.7887
  303MOL0     H39992  12.329   7.715   7.268 -0.8155 -0.7490 -0.2569
  303MOL0     H39993  12.193   7.811   7.331  3.0876  1.7168  2.1013
  303MOL0     H39994  12.435   7.779   7.663  3.4250 -2.7996 -0.6250
  303MOL0     H39995  11.732   7.608   7.401  0.9872  1.1064 -1.2503
  303MOL0     H39996  11.541   7.660   7.262  2.0732  1.9365 -2.1336
  304MOL0     O39997   0.724   3.224   3.179  0.4552 -0.1248  0.1059
  304MOL0     C39998   0.621   3.153   3.172  0.3240 -0.0880  0.4836
  304MOL0     O39999   0.504   3.176   3.241  0.4452  0.4037 -0.0104
  304MOL0     C40000   0.500   3.295   3.320 -0.1335 -0.5732 -0.2418
  304MOL0     C40001   0.485   3.276   3.459  0.0939 -0.3838 -0.5721
  304MOL0     C40002   0.464   3.381   3.548  0.0188  0.1629 -0.5648
  304MOL0     C40003   0.491   3.511   3.498 -0.2657 -0.1790  0.5013
  304MOL0     O40004   0.495   3.624   3.585 -0.6956 -0.0140 -0.3842
  304MOL0     C40005   0.394   3.619   3.688 -0.2411  1.0461 -0.6663
  304MOL0     C40006   0.384   3.730   3.784 -0.6819  0.1780 -1.4125
  304MOL0     C40007   0.522   3.749   3.868 -0.1551 -0.1621  0.5205
  304MOL0     C40008   0.523   3.854   3.966 -0.1067  0.2587  0.0805
  304MOL0     C40009   0.632   3.850   4.074  0.3055  0.8031 -0.2337
  304MOL0     C40010   0.769   3.879   4.020 -0.9042  0.3743 -0.1921
  304MOL0     C40011   0.871   3.900   4.128 -0.4572 -0.2139 -0.2586
  304MOL0     C40012   1.020   3.915   4.079 -0.4768  0.1653 -0.0234
  304MOL0     N40013   1.036   4.026   3.988 -0.1712 -0.2858  0.4172
  304MOL0     C40014   0.985   4.152   3.995 -0.0126 -0.4199 -0.6311
  304MOL0     C40015   1.041   4.209   3.890  0.6994 -0.1284 -0.0342
  304MOL0     C40016   1.006   4.348   3.850 -0.7020 -0.4490  1.6559
  304MOL0     C40017   1.075   4.466   3.920  0.5377  0.4099  0.0237
  304MOL0     C40018   1.035   4.604   3.861 -0.1200 -0.2347 -0.8501
  304MOL0     C40019   0.895   4.618   3.812 -0.1969 -0.5881  0.4234
  304MOL0     O40020   0.798   4.611   3.922 -0.0069  0.3553  0.4171
  304MOL0     C40021   0.663   4.624   3.875  0.7996 -0.0710 -0.2823
  304MOL0     C40022   0.575   4.650   3.973  0.0349 -0.2265  0.1828
  304MOL0     C40023   0.443   4.687   3.956  0.1229 -0.5558 -0.3084
  304MOL0     C40024   0.403   4.706   3.824  0.2357 -0.9216  0.4517
  304MOL0     C40025   0.256   4.744   3.786  0.2770  0.6101 -0.1912
  304MOL0     O40026   0.205   4.730   3.659 -0.5659  0.2609  0.5995
  304MOL0     C40027   0.076   4.728   3.613 -0.2997  0.7431 -0.5800
  304MOL0     C40028  -0.043   4.730   3.688 -0.8811  0.1193 -1.0956
  304MOL0     C40029  -0.169   4.719   3.633 -0.0745 -0.2495  0.8587
  304MOL0     C40030  -0.191   4.716   3.495 -0.1106  1.4794  0.8267
  304MOL0     O40031  -0.320   4.700   3.452  0.1833  0.0836 -0.8284
  304MOL0     C40032  -0.337   4.696   3.310  0.7187  0.5716 -0.7975
  304MOL0     C40033  -0.476   4.698   3.263  0.5724 -0.3365  0.2012
  304MOL0     C40034  -0.556   4.822   3.323  1.2676 -0.0873 -0.2090
  304MOL0     C40035  -0.616   4.807   3.462  0.5247 -0.2607  0.0810
  304MOL0     C40036  -0.697   4.924   3.517  0.2340 -0.2635 -0.3072
  304MOL0     C40037  -0.811   4.972   3.437  0.2221  0.4355  0.4671
  304MOL0     C40038  -0.846   5.118   3.452 -0.6593 -0.5763  0.3863
  304MOL0     C40039  -0.879   5.180   3.595  0.1621  0.4598  0.6860
  304MOL0    Cl40040  -0.908   5.349   3.568 -0.4734  0.0561 -0.5348
  304MOL0     C40041  -0.078   4.694   3.417  0.4322  0.1831 -0.2831
  304MOL0     C40042   0.054   4.694   3.472 -0.4022  0.3671 -0.2647
  304MOL0     O40043   0.176   4.757   3.883 -1.1218  0.4386  0.2303
  304MOL0     C40044   0.484   4.663   3.721 -0.4007  0.0929  0.3728
  304MOL0     C40045   0.619   4.633   3.739 -0.4257  0.4692  0.0316
  304MOL0     N40046   1.103   4.113   3.815  0.3744  0.0268 -0.2164
  304MOL0     N40047   1.105   4.009   3.876 -0.9438 -0.1752  0.1429
  304MOL0     C40048   0.486   3.538   3.359 -0.6988 -0.5066 -0.2468
  304MOL0     C40049   0.494   3.428   3.275 -0.6858 -0.0097 -0.6059
  304MOL0     C40050   0.635   3.042   3.070  0.3547 -0.1514 -0.8448
  304MOL0     C40051   0.527   2.952   3.040  0.7002  0.6045  0.9499
  304MOL0     C40052   0.537   2.856   2.938  0.5811  1.2103 -0.8462
  304MOL0     C40053   0.667   2.815   2.895  0.8897  0.5629 -0.3584
  304MOL0     O40054   0.671   2.707   2.812  0.2208 -0.2621  1.1264
  304MOL0     C40055   0.796   2.661   2.751  1.0506 -1.0166 -0.4315
  304MOL0     C40056   0.779   2.520   2.694 -0.1016 -0.2186  0.3586
  304MOL0     C40057   0.899   2.461   2.614  0.3031 -0.5163  0.1949
  304MOL0     C40058   1.018   2.423   2.703 -0.4358  0.5249  0.1548
  304MOL0     C40059   0.986   2.305   2.788  0.0805  1.3807 -0.7480
  304MOL0     C40060   0.955   2.205   2.861  0.8961  0.0259 -0.3964
  304MOL0     C40061   0.773   2.889   2.941 -0.4470 -0.5341  0.3261
  304MOL0     C40062   0.757   3.004   3.017 -0.7389 -0.4699  0.0807
  304MOL0     H40063   0.487   3.175   3.500 -0.9510 -0.8896 -1.7140
  304MOL0     H40064   0.435   3.363   3.651  0.3493 -1.0730 -0.6745
  304MOL0     H40065   0.408   3.538   3.761 -1.3361  0.7953 -0.7127
  304MOL0     H40066   0.298   3.624   3.636  1.7821  3.5964 -4.6490
  304MOL0     H40067   0.305   3.722   3.859  2.4035  1.9934  2.3138
  304MOL0     H40068   0.377   3.831   3.742  1.2538  1.9209  2.0410
  304MOL0     H40069   0.595   3.774   3.791  0.9815  0.2276  1.6852
  304MOL0     H40070   0.541   3.652   3.916  0.8266 -0.5370 -0.5975
  304MOL0     H40071   0.535   3.949   3.912  1.8716  0.3716  0.6245
  304MOL0     H40072   0.424   3.857   4.012  0.3811  2.1612  1.1216
  304MOL0     H40073   0.645   3.757   4.131  3.4608  1.0684 -0.3751
  304MOL0     H40074   0.599   3.920   4.151  1.0827 -0.0149  0.8777
  304MOL0     H40075   0.783   3.948   3.936  0.2017  1.0599  0.5325
  304MOL0     H40076   0.789   3.785   3.968  2.6921 -0.3759  2.1908
  304MOL0     H40077   0.840   3.979   4.198  0.9558  1.6199 -1.6099
  304MOL0     H40078   0.876   3.809   4.189  0.8826  1.0308  1.6032
  304MOL0     H40079   1.065   3.828   4.032  1.8100  0.4885  1.4324
  304MOL0     H40080   1.075   3.944   4.169 -0.3265  0.5562 -0.2377
  304MOL0     H40081   0.931   4.202   4.074 -1.5581 -2.8483 -0.0691
  304MOL0     H40082   0.898   4.361   3.842 -0.6060 -0.8267 -1.5708
  304MOL0     H40083   1.046   4.371   3.751  1.5469  0.8129  2.7711
  304MOL0     H40084   1.182   4.445   3.915  0.5900  0.9131 -1.3573
  304MOL0     H40085   1.046   4.463   4.025 -3.0219 -0.3642 -0.8391
  304MOL0     H40086   1.065   4.689   3.923 -2.1857 -0.7252  0.9541
  304MOL0     H40087   1.092   4.617   3.769 -0.1914  0.3325 -0.8129
  304MOL0     H40088   0.875   4.536   3.742 -0.4882 -0.1893  0.0352
  304MOL0     H40089   0.892   4.720   3.775 -0.1084 -0.4245  0.8615
  304MOL0     H40090   0.614   4.644   4.074  1.3353 -1.9746 -0.3734
  304MOL0     H40091   0.380   4.721   4.038  1.4722 -0.3105  0.6543
  304MOL0     H40092  -0.032   4.747   3.794  3.3124  3.0183 -1.7397
  304MOL0     H40093  -0.256   4.706   3.697  1.6934  1.3431  3.8037
  304MOL0     H40094  -0.298   4.601   3.274  2.2195  1.3514 -1.3187
  304MOL0     H40095  -0.292   4.783   3.261 -0.9329  1.9040 -0.0579
  304MOL0     H40096  -0.517   4.598   3.274 -0.2804 -0.1021 -0.6461
  304MOL0     H40097  -0.471   4.720   3.155 -3.2395  0.7644  0.1071
  304MOL0     H40098  -0.630   4.844   3.245  3.3479 -0.0114 -2.2803
  304MOL0     H40099  -0.498   4.915   3.320  0.3062  0.5307 -2.6205
  304MOL0     H40100  -0.683   4.720   3.461 -1.3993  1.1016 -2.8002
  304MOL0     H40101  -0.528   4.791   3.525  0.6869  1.1626  0.2363
  304MOL0     H40102  -0.627   5.007   3.535  0.2669 -0.1293 -1.0099
  304MOL0     H40103  -0.728   4.885   3.615  0.8831  0.4344  0.1866
  304MOL0     H40104  -0.905   4.927   3.470 -0.1494 -0.6063 -1.8329
  304MOL0     H40105  -0.790   4.935   3.336  0.3573  0.9546  0.3026
  304MOL0     H40106  -0.759   5.167   3.407 -1.4944 -0.4375 -1.1535
  304MOL0     H40107  -0.941   5.137   3.400  0.3328  0.5494 -1.0918
  304MOL0     H40108  -0.806   5.184   3.675 -0.6847  0.1661  1.4902
  304MOL0     H40109  -0.955   5.118   3.642  0.4147 -0.4079 -0.0255
  304MOL0     H40110  -0.087   4.671   3.311 -0.8263 -1.2821  0.1060
  304MOL0     H40111   0.141   4.681   3.409 -0.0442  1.3303  0.0031
  304MOL0     H40112   0.453   4.669   3.618 -0.6893  1.8383  0.5387
  304MOL0     H40113   0.679   4.617   3.650 -0.2996 -0.9716  0.3476
  304MOL0     H40114   0.519   3.634   3.321  1.1247 -1.2468 -0.6755
  304MOL0     H40115   0.490   3.439   3.167 -0.1443 -3.4688 -1.0918
  304MOL0     H40116   0.428   2.972   3.080  0.4535 -0.0573  0.6818
  304MOL0     H40117   0.447   2.815   2.895  0.8830 -0.9278  0.3624
  304MOL0     H40118   0.871   2.649   2.830 -0.3699 -1.0802  0.9497
  304MOL0     H40119   0.837   2.735   2.682  0.7821  1.9207  2.2971
  304MOL0     H40120   0.752   2.457   2.779  1.4677  0.5315  1.4713
  304MOL0     H40121   0.687   2.520   2.635 -0.0903 -0.6084  0.3393
  304MOL0     H40122   0.927   2.536   2.539  0.8116  2.3725  3.0884
  304MOL0     H40123   0.874   2.366   2.565  3.2251 -2.1590  1.6134
  304MOL0     H40124   1.104   2.411   2.637  1.2562  1.1379  2.1698
  304MOL0     H40125   1.048   2.503   2.771 -0.5939  0.5612  0.1824
  304MOL0     H40126   0.938   2.126   2.932  1.1358  1.7373  1.6569
  304MOL0     H40127   0.871   2.855   2.910 -0.8875 -0.3811 -1.2906
  304MOL0     H40128   0.846   3.062   3.037 -1.1131  0.0970  0.1345
  305MOL0     O40129   9.743   1.473   5.228  0.7319 -0.8837 -0.1952
  305MOL0     C40130   9.758   1.495   5.110 -0.4429 -0.4811 -1.0437
  305MOL0     O40131   9.849   1.581   5.051  0.1412 -0.6491 -0.7027
  305MOL0     C40132   9.948   1.643   5.116  0.6505 -0.9316 -0.5887
  305MOL0     C40133  10.009   1.598   5.229 -0.3172  0.9621 -0.8351
  305MOL0     C40134  10.130   1.666   5.273  0.2303  1.0673  0.1944
  305MOL0     C40135  10.177   1.785   5.206 -0.3595 -0.2354 -0.1624
  305MOL0     O40136  10.275   1.842   5.273  0.5309 -0.3378  0.1671
  305MOL0     C40137  10.318   1.976   5.236  0.4568  0.4862 -0.1308
  305MOL0     C40138  10.463   1.999   5.296 -0.2813  0.4403  0.8906
  305MOL0     C40139  10.463   1.993   5.446  0.0504 -0.6751  0.3932
  305MOL0     C40140  10.414   2.129   5.507  0.8196  0.4454  0.7002
  305MOL0     C40141  10.459   2.138   5.655 -0.4092  0.1122  1.1573
  305MOL0     C40142  10.546   2.265   5.673  0.2461 -1.2390 -0.1212
  305MOL0     C40143  10.600   2.278   5.817 -0.5557 -0.4569  0.3273
  305MOL0     C40144  10.645   2.424   5.831 -0.1806  0.0615  0.3088
  305MOL0     N40145  10.635   2.468   5.968  0.1579 -0.1172 -0.3145
  305MOL0     C40146  10.720   2.431   6.063 -0.1804  0.5758  0.6338
  305MOL0     C40147  10.684   2.489   6.179 -0.5753 -0.2344 -0.3372
  305MOL0     C40148  10.756   2.476   6.312 -0.0435 -0.2682  0.4878
  305MOL0     C40149  10.700   2.357   6.392 -0.5448  0.5627  0.2695
  305MOL0     C40150  10.552   2.377   6.422 -0.4248 -0.2868  0.1023
  305MOL0     C40151  10.502   2.267   6.524 -0.1661  0.0113 -0.3727
  305MOL0     O40152  10.560   2.288   6.653  0.0842  0.0458  0.2362
  305MOL0     C40153  10.536   2.193   6.750  0.6858 -0.0810 -0.1426
  305MOL0     C40154  10.451   2.089   6.760  0.4752  0.4777  0.4503
  305MOL0     C40155  10.462   2.005   6.869 -0.4382 -1.0032  0.1054
  305MOL0     C40156  10.565   2.018   6.964  0.6438  0.6347 -0.7764
  305MOL0     C40157  10.584   1.922   7.075 -0.2075  0.1833 -0.1471
  305MOL0     O40158  10.674   1.949   7.170  0.7949 -0.9806 -0.7466
  305MOL0     C40159  10.668   1.881   7.296 -0.2058 -0.1655  1.2263
  305MOL0     C40160  10.555   1.905   7.371  0.2439 -0.0600 -0.3534
  305MOL0     C40161  10.544   1.841   7.498 -0.1765 -0.2288 -0.5401
  305MOL0     C40162  10.642   1.739   7.546  1.0101  1.0356 -0.3256
  305MOL0     O40163  10.630   1.666   7.664 -0.1201  0.1515  0.2538
  305MOL0     C40164  10.503   1.684   7.739  0.6980  0.0461 -0.1059
  305MOL0     C40165  10.513   1.573   7.843  0.6117  0.4487 -0.2087
  305MOL0     C40166  10.403   1.569   7.953 -0.5147  0.5222 -0.3314
  305MOL0     C40167  10.399   1.441   8.037 -0.3929 -1.0573  0.8974
  305MOL0     C40168  10.292   1.435   8.140  0.4716  0.9297 -1.1983
  305MOL0     C40169  10.156   1.466   8.082 -0.8674  0.0110 -0.3031
  305MOL0     C40170  10.028   1.403   8.137 -0.5460  0.1104 -0.8485
  305MOL0     C40171   9.905   1.420   8.048 -0.6884 -0.3279 -0.0853
  305MOL0    Cl40172   9.840   1.249   8.008 -0.3264  0.2576 -0.1612
  305MOL0     C40173  10.739   1.701   7.442  0.9675 -0.3574  0.2321
  305MOL0     C40174  10.755   1.781   7.332  0.3429  0.0352 -0.5557
  305MOL0     O40175  10.508   1.826   7.083  0.1623 -0.1840 -0.2827
  305MOL0     C40176  10.657   2.120   6.949  0.2656 -0.4065 -0.8665
  305MOL0     C40177  10.637   2.203   6.848 -0.0408 -1.1177 -0.7107
  305MOL0     N40178  10.576   2.583   6.151 -0.0036  0.3549  0.1308
  305MOL0     N40179  10.551   2.565   6.025  0.4398  0.2255  0.8879
  305MOL0     C40180  10.104   1.833   5.094  0.8912  0.5714 -0.2165
  305MOL0     C40181   9.991   1.762   5.058  0.5864  0.8789 -0.3899
  305MOL0     C40182   9.654   1.437   5.028 -0.3318 -0.1421  0.7816
  305MOL0     C40183   9.658   1.418   4.890  0.3352 -0.3657 -0.1715
  305MOL0     C40184   9.547   1.379   4.823 -0.3750  0.6738 -0.0718
  305MOL0     C40185   9.423   1.375   4.874 -0.1712  0.1096 -0.1283
  305MOL0     O40186   9.321   1.336   4.788 -0.0939 -0.7197 -0.1244
  305MOL0     C40187   9.185   1.387   4.820 -0.4645  0.0420 -0.1899
  305MOL0     C40188   9.106   1.273   4.889  0.0754  0.1473  0.4961
  305MOL0     C40189   8.993   1.338   4.963 -0.0693  0.0937 -0.2366
  305MOL0     C40190   8.895   1.240   5.017  0.8567  0.0852 -0.7887
  305MOL0     C40191   8.818   1.197   4.910 -0.6835 -0.0956  0.0385
  305MOL0     C40192   8.762   1.158   4.812  1.0715  0.3616  0.9456
  305MOL0     C40193   9.405   1.393   5.013 -0.8210 -0.8300  1.0505
  305MOL0     C40194   9.521   1.426   5.081 -0.3398  0.4184  0.3832
  305MOL0     H40195   9.971   1.515   5.288 -0.8375 -0.6942 -3.3277
  305MOL0     H40196  10.193   1.617   5.345  1.5248  1.6600 -0.5048
  305MOL0     H40197  10.240   2.039   5.280 -1.5702 -1.6322 -0.5570
  305MOL0     H40198  10.321   1.990   5.128  2.0191 -1.6993 -0.4200
  305MOL0     H40199  10.501   2.094   5.257  2.4485 -1.9187 -2.9656
  305MOL0     H40200  10.528   1.920   5.257 -0.0840 -1.0350  3.9449
  305MOL0     H40201  10.568   1.972   5.472  1.0863  0.5738 -2.4340
  305MOL0     H40202  10.407   1.905   5.478 -1.1140  0.5683  1.9922
  305MOL0     H40203  10.446   2.215   5.447  3.0399  1.4026  3.0977
  305MOL0     H40204  10.305   2.139   5.505  0.9775  2.9078  1.3190
  305MOL0     H40205  10.524   2.055   5.682 -1.9392 -1.0934  1.3067
  305MOL0     H40206  10.375   2.130   5.726 -0.6885 -3.3072  0.6096
  305MOL0     H40207  10.482   2.349   5.646  2.7020  1.1653  1.0950
  305MOL0     H40208  10.629   2.271   5.602  1.9754  0.7121  1.9266
  305MOL0     H40209  10.524   2.259   5.894  0.8864  2.8785  2.8129
  305MOL0     H40210  10.697   2.233   5.840 -1.1521 -0.2006  3.9677
  305MOL0     H40211  10.588   2.491   5.766  1.2645  0.8268 -0.2045
  305MOL0     H40212  10.749   2.428   5.799 -0.2516 -1.3395 -0.1922
  305MOL0     H40213  10.795   2.354   6.050 -1.4106 -0.6403  0.4625
  305MOL0     H40214  10.748   2.573   6.361  2.5810 -0.4127  1.3685
  305MOL0     H40215  10.864   2.462   6.306  0.0659  0.0548  1.5251
  305MOL0     H40216  10.763   2.346   6.480 -1.0344  2.5197  0.9225
  305MOL0     H40217  10.713   2.269   6.329 -0.3334  0.9679 -0.2637
  305MOL0     H40218  10.547   2.470   6.478 -0.8812 -0.2593  0.0205
  305MOL0     H40219  10.493   2.373   6.330  0.8065  0.5208 -0.7437
  305MOL0     H40220  10.526   2.167   6.487  0.2746 -0.0669  0.1068
  305MOL0     H40221  10.393   2.275   6.525 -0.3648 -2.0636 -1.2098
  305MOL0     H40222  10.384   2.066   6.677 -0.4602  0.6260  1.1527
  305MOL0     H40223  10.407   1.912   6.872  0.5578 -1.5958  1.6647
  305MOL0     H40224  10.481   1.974   7.333 -3.3807 -2.0738  2.4518
  305MOL0     H40225  10.458   1.863   7.560  1.0793  3.7051  0.1225
  305MOL0     H40226  10.413   1.654   7.686  1.1521  1.5350 -1.7899
  305MOL0     H40227  10.487   1.781   7.786  1.2553 -0.4478  1.1534
  305MOL0     H40228  10.609   1.594   7.892  0.5093 -3.5382  2.1655
  305MOL0     H40229  10.519   1.474   7.798 -2.9463  0.2029 -0.4213
  305MOL0     H40230  10.311   1.588   7.898  0.2219  2.5899 -0.9212
  305MOL0     H40231  10.428   1.656   8.013 -3.0140  2.1101 -1.4195
  305MOL0     H40232  10.366   1.366   7.965  0.2905 -0.7369  0.2333
  305MOL0     H40233  10.502   1.420   8.069 -0.2092 -0.8492  0.4561
  305MOL0     H40234  10.316   1.508   8.217  1.5668 -0.8579  0.2472
  305MOL0     H40235  10.285   1.336   8.187  0.4099  1.4545 -0.0622
  305MOL0     H40236  10.155   1.454   7.974  2.2809 -0.5452 -0.3684
  305MOL0     H40237  10.147   1.575   8.095  0.9107  0.0332  1.2748
  305MOL0     H40238  10.055   1.298   8.146  0.6442  0.0842 -3.5449
  305MOL0     H40239  10.009   1.444   8.236  3.7050 -2.2814  1.2515
  305MOL0     H40240   9.940   1.460   7.952  2.1885 -1.6872  0.2916
  305MOL0     H40241   9.829   1.487   8.088 -0.6836  0.2498 -0.9949
  305MOL0     H40242  10.808   1.618   7.461  2.4430  0.3335 -1.8099
  305MOL0     H40243  10.835   1.750   7.264 -0.3757 -0.4569 -1.1952
  305MOL0     H40244  10.742   2.128   7.016  0.1768 -3.2111 -0.3075
  305MOL0     H40245  10.705   2.287   6.838 -1.2917  0.2161  1.1623
  305MOL0     H40246  10.132   1.912   5.025  1.0868  1.1537  0.5150
  305MOL0     H40247   9.932   1.785   4.970 -0.4984 -1.1614 -0.2640
  305MOL0     H40248   9.756   1.436   4.846  0.0300 -2.0428 -1.6738
  305MOL0     H40249   9.555   1.337   4.723  1.0462  1.1402 -0.1798
  305MOL0     H40250   9.135   1.421   4.729  0.4847 -1.2528 -1.2402
  305MOL0     H40251   9.182   1.476   4.883 -1.9884  0.9181 -1.4421
  305MOL0     H40252   9.069   1.201   4.816 -0.7739  0.5636  0.5036
  305MOL0     H40253   9.174   1.224   4.961 -0.7772  1.2655  2.1218
  305MOL0     H40254   8.932   1.404   4.900 -1.0553 -0.1068  0.4862
  305MOL0     H40255   9.020   1.403   5.046 -0.9873 -0.5792  0.6110
  305MOL0     H40256   8.950   1.158   5.065  2.0014  0.7994 -0.8413
  305MOL0     H40257   8.836   1.296   5.090  0.5496 -4.3131  2.7890
  305MOL0     H40258   8.710   1.143   4.719  0.3505  3.1103  0.8051
  305MOL0     H40259   9.313   1.404   5.068 -0.4838  4.6445  1.0355
  305MOL0     H40260   9.507   1.460   5.184 -1.4182 -2.9037  1.4827
  306MOL0     O40261   9.907  10.753   1.726  0.9514  0.0190  0.2635
  306MOL0     C40262   9.896  10.628   1.725 -0.4765  0.8339  0.0136
  306MOL0     O40263   9.996  10.544   1.682  0.3131  0.0135 -0.1762
  306MOL0     C40264  10.095  10.613   1.607 -0.0531  0.0299 -0.1215
  306MOL0     C40265  10.205  10.659   1.670 -0.4236 -0.4661  0.3517
  306MOL0     C40266  10.300  10.738   1.612 -0.6602 -0.3395 -0.4577
  306MOL0     C40267  10.299  10.758   1.472  0.0454 -0.8867 -0.1138
  306MOL0     O40268  10.404  10.821   1.404  0.6084  0.0957  0.3986
  306MOL0     C40269  10.505  10.892   1.478 -0.5803 -0.0466 -0.1104
  306MOL0     C40270  10.601  10.946   1.373 -0.0624  0.0199 -0.1889
  306MOL0     C40271  10.661  10.826   1.304 -0.6544  0.2866 -0.0479
  306MOL0     C40272  10.759  10.862   1.182 -0.0518  0.2819 -0.4814
  306MOL0     C40273  10.765  10.752   1.078  0.0219 -0.3906  0.0799
  306MOL0     C40274  10.878  10.792   0.978 -0.4356  0.0355 -0.3758
  306MOL0     C40275  10.854  10.721   0.844 -0.1884  0.6218  0.9254
  306MOL0     C40276  10.981  10.712   0.756  0.0954  0.2980 -1.2312
  306MOL0     N40277  10.944  10.778   0.632 -0.0762  0.0607  0.4821
  306MOL0     C40278  10.903  10.711   0.522 -0.7308 -0.4545  0.6251
  306MOL0     C40279  10.867  10.818   0.437  0.0733 -0.4353  0.0750
  306MOL0     C40280  10.815  10.800   0.298  0.0885 -0.7778  0.2536
  306MOL0     C40281  10.903  10.716   0.203 -0.0228 -0.8318 -0.5274
  306MOL0     C40282  10.823  10.640   0.106  0.6970  0.5583  0.2113
  306MOL0     C40283  10.905  10.568   0.001 -0.9204 -0.9250 -1.9833
  306MOL0     O40284  11.002  10.660  -0.064  0.4806  0.3680 -0.1264
  306MOL0     C40285  11.087  10.611  -0.152  0.2762  0.2410  0.2238
  306MOL0     C40286  11.087  10.475  -0.193 -0.5206  0.4065  0.1910
  306MOL0     C40287  11.204  10.417  -0.251 -0.6961  0.4395  0.6689
  306MOL0     C40288  11.304  10.507  -0.301 -0.2798 -0.2440  1.3063
  306MOL0     C40289  11.422  10.463  -0.379  0.1949 -0.2668  0.5454
  306MOL0     O40290  11.470  10.336  -0.365  0.1160  0.1638  0.2109
  306MOL0     C40291  11.564  10.288  -0.453  0.8270 -1.0069 -0.0530
  306MOL0     C40292  11.536  10.252  -0.579  0.0127 -0.7201  0.6313
  306MOL0     C40293  11.635  10.189  -0.665  0.4403  0.0398 -0.2364
  306MOL0     C40294  11.762  10.166  -0.616 -0.5123  0.1312 -1.3277
  306MOL0     O40295  11.865  10.110  -0.690 -0.2178 -0.0851 -0.4361
  306MOL0     C40296  11.824   9.990  -0.753  0.6402  0.6903 -0.7293
  306MOL0     C40297  11.771   9.888  -0.651 -0.3400  0.2719 -0.4149
  306MOL0     C40298  11.782   9.755  -0.703 -0.3213  0.5172 -0.0152
  306MOL0     C40299  11.710   9.658  -0.600  0.4833  0.0399  0.7585
  306MOL0     C40300  11.695   9.521  -0.663 -0.4580 -0.9209  0.0499
  306MOL0     C40301  11.663   9.419  -0.549 -0.2196  0.4843  1.2971
  306MOL0     C40302  11.662   9.277  -0.611  0.4021  0.0930  0.4356
  306MOL0     C40303  11.632   9.160  -0.518 -0.5852 -0.4944  0.3473
  306MOL0    Cl40304  11.452   9.154  -0.467  0.0165 -0.1069 -0.5223
  306MOL0     C40305  11.792  10.214  -0.483  0.6935  2.0770  0.0145
  306MOL0     C40306  11.692  10.261  -0.392  0.7649 -0.9698  0.5743
  306MOL0     O40307  11.471  10.543  -0.461 -0.1396  0.3870  0.4793
  306MOL0     C40308  11.280  10.644  -0.288 -0.3675  0.1252 -0.5281
  306MOL0     C40309  11.184  10.693  -0.204  0.2540  0.9289 -0.8411
  306MOL0     N40310  10.898  10.932   0.495  0.2107 -0.1467  0.8636
  306MOL0     N40311  10.952  10.912   0.606  0.4172  0.4655 -0.6787
  306MOL0     C40312  10.193  10.707   1.399 -1.2386 -0.1261  0.8566
  306MOL0     C40313  10.096  10.636   1.469  0.0418  0.9710  0.4033
  306MOL0     C40314   9.769  10.575   1.786 -0.0881  1.1298  0.4216
  306MOL0     C40315   9.662  10.650   1.809 -0.0508 -0.3676 -0.3048
  306MOL0     C40316   9.548  10.588   1.860  0.0389 -0.1348  0.5646
  306MOL0     C40317   9.533  10.448   1.887  0.5287  0.6348 -0.7509
  306MOL0     O40318   9.414  10.394   1.938 -0.1095 -1.0768  0.2610
  306MOL0     C40319   9.419  10.274   2.010  0.5331 -0.6050 -0.0636
  306MOL0     C40320   9.296  10.254   2.079 -0.6437  0.2766  0.3699
  306MOL0     C40321   9.324  10.153   2.189 -0.3207  1.3614 -0.3597
  306MOL0     C40322   9.229  10.164   2.310  0.3598  0.0337 -0.1455
  306MOL0     C40323   9.087  10.171   2.267  0.2051  0.8443  0.5508
  306MOL0     C40324   8.967  10.171   2.243 -0.8230  0.3335 -0.0380
  306MOL0     C40325   9.648  10.377   1.862 -0.1048  0.5293 -0.4721
  306MOL0     C40326   9.765  10.436   1.807  0.2330 -0.1293 -0.0575
  306MOL0     H40327  10.218  10.656   1.777  1.7109 -1.1549  0.1309
  306MOL0     H40328  10.382  10.784   1.666 -1.2905  2.5740 -1.8094
  306MOL0     H40329  10.565  10.831   1.547  0.9348  0.6858 -0.7339
  306MOL0     H40330  10.461  10.976   1.532 -2.0029 -1.5880  1.2272
  306MOL0     H40331  10.680  11.008   1.417  1.9924 -1.2557 -1.8892
  306MOL0     H40332  10.544  11.008   1.304 -0.0173 -0.7811 -0.9593
  306MOL0     H40333  10.590  10.748   1.273  0.1904 -0.6518  0.2968
  306MOL0     H40334  10.733  10.778   1.372  1.7796  1.6319 -1.5364
  306MOL0     H40335  10.725  10.951   1.127 -1.4486 -1.0254 -1.8338
  306MOL0     H40336  10.859  10.878   1.224 -0.8204  3.3731  0.4736
  306MOL0     H40337  10.673  10.737   1.021  1.3769 -1.2666 -1.9734
  306MOL0     H40338  10.780  10.655   1.126 -0.6069  0.6858  2.6061
  306MOL0     H40339  10.974  10.762   1.023 -0.1832 -2.3634 -2.3224
  306MOL0     H40340  10.888  10.899   0.958  0.1066 -0.2396 -1.6484
  306MOL0     H40341  10.801  10.626   0.853 -1.9120  1.5457  0.8565
  306MOL0     H40342  10.777  10.779   0.793 -0.9431  1.4057  2.8485
  306MOL0     H40343  11.000  10.605   0.746  0.4832  0.0999  1.0935
  306MOL0     H40344  11.065  10.767   0.799  0.9957 -1.2631 -0.9074
  306MOL0     H40345  10.909  10.604   0.504  3.9409 -0.2978 -0.0053
  306MOL0     H40346  10.793  10.896   0.252  1.2236 -0.5561  0.1524
  306MOL0     H40347  10.716  10.755   0.312  0.5810 -1.1465  3.2417
  306MOL0     H40348  10.984  10.665   0.255  0.9566 -0.4667 -1.6421
  306MOL0     H40349  10.967  10.785   0.147 -0.0777 -1.0982 -0.9250
  306MOL0     H40350  10.763  10.568   0.163  0.2066 -0.4041 -1.4474
  306MOL0     H40351  10.763  10.719   0.059  0.6899 -0.6539 -1.9351
  306MOL0     H40352  10.843  10.523  -0.077 -0.6644 -0.6824 -2.3283
  306MOL0     H40353  10.958  10.490   0.056 -0.0788  1.8299  1.4570
  306MOL0     H40354  11.022  10.388  -0.180 -0.8422  0.4563 -0.9953
  306MOL0     H40355  11.211  10.313  -0.278  0.7860  1.0225 -1.5033
  306MOL0     H40356  11.439  10.269  -0.625  0.8073  0.0636 -0.8279
  306MOL0     H40357  11.612  10.148  -0.762 -0.6517  0.3665 -0.1353
  306MOL0     H40358  11.912   9.942  -0.797 -0.5074 -2.2426 -0.0645
  306MOL0     H40359  11.751  10.016  -0.831 -2.4379 -0.4441  1.5860
  306MOL0     H40360  11.666   9.910  -0.629 -0.3092 -0.6348  0.7074
  306MOL0     H40361  11.833   9.903  -0.562  1.4569 -1.0966 -1.3615
  306MOL0     H40362  11.888   9.728  -0.703 -0.6199 -0.8360  1.9977
  306MOL0     H40363  11.740   9.748  -0.804 -0.4758 -2.2218  0.1661
  306MOL0     H40364  11.766   9.647  -0.507  0.4618 -0.0107  0.7657
  306MOL0     H40365  11.607   9.689  -0.580 -0.6311 -2.0836 -1.1352
  306MOL0     H40366  11.790   9.490  -0.707 -1.0108 -2.1663 -0.3180
  306MOL0     H40367  11.629   9.507  -0.750  1.7440 -1.6670 -1.6056
  306MOL0     H40368  11.564   9.451  -0.514 -1.4823 -0.9023 -0.8177
  306MOL0     H40369  11.734   9.433  -0.467  3.4074 -2.6966 -1.0153
  306MOL0     H40370  11.603   9.277  -0.703  1.3828 -1.5856 -0.2284
  306MOL0     H40371  11.764   9.246  -0.637 -0.3890 -3.8737  1.4728
  306MOL0     H40372  11.676   9.181  -0.420 -0.5754  0.2457  0.1901
  306MOL0     H40373  11.657   9.062  -0.560 -1.5900 -0.5605 -0.1354
  306MOL0     H40374  11.888  10.208  -0.434  1.2993 -2.1475 -1.2629
  306MOL0     H40375  11.694  10.285  -0.286 -2.0499 -1.0815  0.7364
  306MOL0     H40376  11.340  10.718  -0.340 -2.1759  2.1198  0.0549
  306MOL0     H40377  11.189  10.800  -0.185  2.5844  0.7143  0.1385
  306MOL0     H40378  10.188  10.723   1.292  1.1845  3.4287  1.0853
  306MOL0     H40379  10.028  10.592   1.397  1.6761  3.7802 -3.2195
  306MOL0     H40380   9.668  10.759   1.812 -0.8835 -0.3148  1.9812
  306MOL0     H40381   9.471  10.663   1.871  1.1227  1.0203  0.5227
  306MOL0     H40382   9.505  10.268   2.077  1.3899 -2.0950 -1.2158
  306MOL0     H40383   9.426  10.185   1.947 -0.5354 -1.8946  1.5635
  306MOL0     H40384   9.277  10.351   2.125  1.8378  0.8792  0.2623
  306MOL0     H40385   9.219  10.222   2.008  1.5271 -1.4633 -1.3611
  306MOL0     H40386   9.428  10.158   2.221  0.2734 -1.3053 -1.6608
  306MOL0     H40387   9.308  10.050   2.157 -2.1224  0.8642  1.8400
  306MOL0     H40388   9.241  10.077   2.374  0.0489 -1.3178 -1.8471
  306MOL0     H40389   9.245  10.261   2.359  3.2083 -1.0355  1.2869
  306MOL0     H40390   8.862  10.154   2.230 -0.5391 -1.3698 -0.3311
  306MOL0     H40391   9.652  10.272   1.888  3.5206  1.3378  3.4376
  306MOL0     H40392   9.849  10.374   1.776 -0.1285 -0.9477  0.5630
  307MOL0     O40393   1.274  10.567   3.759  0.0270  0.0039  0.4579
  307MOL0     C40394   1.178  10.594   3.831 -0.4832 -1.0444 -0.2863
  307MOL0     O40395   1.168  10.574   3.968 -0.3046 -0.8786  0.0390
  307MOL0     C40396   1.229  10.470   4.033 -0.0010 -0.8542 -0.1463
  307MOL0     C40397   1.295  10.357   3.979 -0.0303 -0.4274  0.0210
  307MOL0     C40398   1.376  10.280   4.066  1.0601  0.4018 -0.1029
  307MOL0     C40399   1.375  10.302   4.201  0.0859 -0.7310 -0.4595
  307MOL0     O40400   1.433  10.215   4.291 -0.0551 -0.1229 -0.1487
  307MOL0     C40401   1.342  10.141   4.368 -0.2814  0.1960  0.0370
  307MOL0     C40402   1.248  10.050   4.269  1.1297 -0.5503 -1.3310
  307MOL0     C40403   1.118  10.007   4.336  0.2060  0.1340  0.2962
  307MOL0     C40404   1.152   9.882   4.417  0.6664 -0.8082  0.6144
  307MOL0     C40405   1.063   9.856   4.549  0.2900 -1.0263  0.1534
  307MOL0     C40406   1.074   9.706   4.584  0.5713  0.0307  0.0891
  307MOL0     C40407   1.008   9.677   4.721  1.1564  0.0428 -1.1312
  307MOL0     C40408   1.027   9.524   4.753  0.6991  0.6879  0.1932
  307MOL0     N40409   0.935   9.479   4.855  0.8299  0.9851  0.2633
  307MOL0     C40410   0.845   9.383   4.836  0.2757  0.7054  1.1156
  307MOL0     C40411   0.817   9.334   4.956  0.2454  0.6963 -0.5102
  307MOL0     C40412   0.718   9.232   4.997 -0.3689 -0.4606 -0.4591
  307MOL0     C40413   0.578   9.281   4.974  1.3111 -0.5415 -0.4822
  307MOL0     C40414   0.467   9.193   5.037  0.0898 -0.9242 -0.2330
  307MOL0     C40415   0.409   9.108   4.928 -0.7407 -0.7386  0.3855
  307MOL0     O40416   0.314   9.025   4.991  0.6382 -0.3898  0.6107
  307MOL0     C40417   0.234   8.942   4.920  0.8454 -0.2972 -0.8828
  307MOL0     C40418   0.121   8.885   4.978 -0.7368 -1.1601 -0.3818
  307MOL0     C40419   0.026   8.802   4.920 -0.1033 -1.0160  0.0301
  307MOL0     C40420   0.054   8.781   4.783  0.9222 -0.6470 -1.1509
  307MOL0     C40421  -0.021   8.675   4.722 -0.9322  0.9084  0.5606
  307MOL0     O40422  -0.027   8.672   4.586 -0.0378  0.3583 -0.2186
  307MOL0     C40423  -0.096   8.571   4.517  1.2532 -0.4770 -0.6009
  307MOL0     C40424  -0.115   8.443   4.570 -0.1612 -0.4209  0.2964
  307MOL0     C40425  -0.193   8.355   4.490 -0.7750 -0.6551 -0.1915
  307MOL0     C40426  -0.234   8.384   4.367 -0.2411  1.1836 -0.2989
  307MOL0     O40427  -0.287   8.288   4.285  0.1134  0.3010 -0.7351
  307MOL0     C40428  -0.407   8.209   4.328 -0.4546  0.0780 -0.7796
  307MOL0     C40429  -0.467   8.137   4.209  0.2649 -0.3520  1.2673
  307MOL0     C40430  -0.607   8.079   4.233 -0.3650  0.3512  0.7844
  307MOL0     C40431  -0.650   8.009   4.090  0.0987  0.4785 -0.0875
  307MOL0     C40432  -0.795   7.942   4.085 -0.5528  0.1656 -0.0403
  307MOL0     C40433  -0.838   7.854   4.201  0.5225  0.3799 -0.1690
  307MOL0     C40434  -0.975   7.787   4.190 -0.2062 -0.2771  0.1138
  307MOL0     C40435  -1.004   7.720   4.319 -0.2831  0.4084 -0.6015
  307MOL0    Cl40436  -1.175   7.685   4.343  0.2160 -0.1539 -0.4170
  307MOL0     C40437  -0.214   8.504   4.312  0.9671 -0.1093  0.1432
  307MOL0     C40438  -0.159   8.604   4.392 -0.2424 -1.1392  0.9715
  307MOL0     O40439  -0.092   8.614   4.796  0.6020  0.4741  0.1715
  307MOL0     C40440   0.161   8.838   4.715  1.1182 -0.1616  0.1670
  307MOL0     C40441   0.251   8.912   4.781 -0.6299 -0.5763  0.5152
  307MOL0     N40442   0.890   9.407   5.049 -0.2540  0.2285  0.2388
  307MOL0     N40443   0.963   9.488   4.985  0.2725  0.0134 -0.1757
  307MOL0     C40444   1.307  10.412   4.255  0.0806  0.2736  0.4185
  307MOL0     C40445   1.245  10.500   4.170  1.4798 -0.9725 -0.5154
  307MOL0     C40446   1.060  10.651   3.765 -0.1981 -0.5085  0.7412
  307MOL0     C40447   1.056  10.672   3.620  0.1052  0.9858 -0.0188
  307MOL0     C40448   0.942  10.720   3.561  1.0721  0.6169  0.2520
  307MOL0     C40449   0.827  10.746   3.640 -0.6356  0.3685 -0.0816
  307MOL0     O40450   0.719  10.802   3.588  0.1341 -0.0351  0.0663
  307MOL0     C40451   0.681  10.749   3.456 -0.1511 -0.9720  0.0954
  307MOL0     C40452   0.529  10.757   3.442  0.5909  0.8165  0.7848
  307MOL0     C40453   0.462  10.681   3.553  0.7647  0.5303 -0.6009
  307MOL0     C40454   0.316  10.642   3.536  0.4547  0.7738 -0.3944
  307MOL0     C40455   0.263  10.557   3.648  0.6970 -0.1788  0.9223
  307MOL0     C40456   0.213  10.484   3.736 -0.9404  0.8493  0.4138
  307MOL0     C40457   0.830  10.730   3.774  0.3343 -0.1845  0.0568
  307MOL0     C40458   0.942  10.673   3.833  0.0969 -0.6504 -0.6619
  307MOL0     H40459   1.267  10.331   3.878 -3.4939  1.0795  0.4285
  307MOL0     H40460   1.426  10.198   4.017  1.9487  0.7295  0.2339
  307MOL0     H40461   1.276  10.212   4.418  2.0805  0.3903  3.1838
  307MOL0     H40462   1.384  10.076   4.445 -0.8180  1.7034  1.6677
  307MOL0     H40463   1.315   9.974   4.227  2.1668 -0.6048  0.3165
  307MOL0     H40464   1.204  10.099   4.182 -0.0559 -0.1516 -0.5283
  307MOL0     H40465   1.046   9.992   4.255  0.4064  1.9473 -0.2675
  307MOL0     H40466   1.076  10.079   4.408 -0.1529 -0.4820  0.7160
  307MOL0     H40467   1.135   9.797   4.350 -2.6217  0.0933  0.1267
  307MOL0     H40468   1.258   9.887   4.441  1.4207  1.3126 -2.5819
  307MOL0     H40469   0.960   9.885   4.529 -0.2654 -3.3647 -0.6864
  307MOL0     H40470   1.110   9.926   4.619  0.0228 -1.6596  0.9840
  307MOL0     H40471   1.178   9.674   4.593  0.9148  1.1554  0.3744
  307MOL0     H40472   1.022   9.643   4.511  0.4108 -1.6645  1.5968
  307MOL0     H40473   1.054   9.738   4.800 -1.0317 -0.8913  0.9792
  307MOL0     H40474   0.901   9.698   4.719  1.2184  0.3102 -2.0958
  307MOL0     H40475   1.129   9.498   4.782 -0.1178 -0.7574  1.9438
  307MOL0     H40476   1.000   9.464   4.666 -1.7813 -0.1803  1.4706
  307MOL0     H40477   0.810   9.344   4.741  2.1746 -0.2758  0.7743
  307MOL0     H40478   0.730   9.200   5.101 -2.1204  0.3108  0.0189
  307MOL0     H40479   0.725   9.139   4.940 -1.8726 -0.4200 -0.7608
  307MOL0     H40480   0.560   9.302   4.868 -1.7138  0.7571  0.1771
  307MOL0     H40481   0.563   9.376   5.026  2.1527 -0.9422  0.5359
  307MOL0     H40482   0.520   9.140   5.117  1.7061 -1.4547 -1.5899
  307MOL0     H40483   0.388   9.249   5.088  1.3910  1.1795 -0.4025
  307MOL0     H40484   0.478   9.049   4.867 -2.2750 -1.2609 -0.9430
  307MOL0     H40485   0.357   9.174   4.859 -0.7318 -1.8880 -0.7681
  307MOL0     H40486   0.113   8.894   5.086 -3.8268 -0.5446 -0.5766
  307MOL0     H40487  -0.056   8.762   4.979 -1.7878  2.5031  0.3389
  307MOL0     H40488  -0.059   8.410   4.657 -0.5676  0.7092  1.0179
  307MOL0     H40489  -0.196   8.252   4.522 -0.9722 -0.2688  1.0678
  307MOL0     H40490  -0.477   8.271   4.384  0.4587 -1.2472  1.9801
  307MOL0     H40491  -0.375   8.133   4.399  1.6459 -0.6849 -2.4306
  307MOL0     H40492  -0.395   8.067   4.165 -1.4664 -1.0031 -0.6607
  307MOL0     H40493  -0.468   8.221   4.139  4.1104  0.4628  1.9434
  307MOL0     H40494  -0.676   8.158   4.263  1.4955  0.6988  4.7335
  307MOL0     H40495  -0.597   7.995   4.301  0.4521 -2.5440 -2.6078
  307MOL0     H40496  -0.647   8.077   4.004  1.2210  2.4311  1.4117
  307MOL0     H40497  -0.583   7.924   4.074  0.8698  1.3155 -1.4607
  307MOL0     H40498  -0.800   7.873   4.001 -1.9656  0.9102 -0.6096
  307MOL0     H40499  -0.864   8.024   4.061 -0.0581  0.6928  0.3089
  307MOL0     H40500  -0.838   7.916   4.292 -0.5869  2.1206 -1.2969
  307MOL0     H40501  -0.760   7.778   4.218  0.8186  0.8830  0.8375
  307MOL0     H40502  -1.057   7.858   4.174 -0.7896 -0.5262  1.8109
  307MOL0     H40503  -0.978   7.720   4.104  1.5160  0.4556 -0.5804
  307MOL0     H40504  -0.990   7.793   4.400 -2.8261  1.0415 -0.6423
  307MOL0     H40505  -0.951   7.624   4.322 -1.6738 -0.4179 -1.7855
  307MOL0     H40506  -0.252   8.530   4.214  0.9375  3.3976  0.9523
  307MOL0     H40507  -0.161   8.702   4.347  1.1687 -1.3762  0.3627
  307MOL0     H40508   0.171   8.837   4.607  0.5539 -2.3507  0.0854
  307MOL0     H40509   0.336   8.951   4.725 -1.8759  1.4620 -0.0731
  307MOL0     H40510   1.303  10.422   4.363  0.6558 -2.8998  0.8472
  307MOL0     H40511   1.183  10.586   4.196 -0.2311 -2.6624  1.4596
  307MOL0     H40512   1.140  10.638   3.560  2.4753 -0.6326  3.8550
  307MOL0     H40513   0.949  10.722   3.453  0.7938 -2.9483  0.0571
  307MOL0     H40514   0.707  10.643   3.448 -1.8210 -1.4456  0.4056
  307MOL0     H40515   0.727  10.800   3.371  0.7052 -3.2802 -0.9269
  307MOL0     H40516   0.492  10.858   3.459 -1.4787  0.2235  0.0613
  307MOL0     H40517   0.503  10.712   3.345  3.4710 -0.4829  0.5037
  307MOL0     H40518   0.454  10.746   3.641  0.1466  0.0294 -0.2831
  307MOL0     H40519   0.502  10.583   3.582 -4.0594 -1.6898 -0.5174
  307MOL0     H40520   0.245  10.721   3.512 -2.4436 -1.7449 -0.8303
  307MOL0     H40521   0.315  10.582   3.445 -2.3547 -0.6732  0.4402
  307MOL0     H40522   0.183  10.426   3.821 -0.1737 -1.3628 -0.7606
  307MOL0     H40523   0.742  10.771   3.822  0.5856 -0.3474  0.6551
  307MOL0     H40524   0.939  10.662   3.941  2.8964  0.1155 -0.4365
  308MOL0     O40525   9.629   4.632   8.910  0.2685  0.1850  0.1943
  308MOL0     C40526   9.653   4.703   8.812 -0.3311 -0.1339 -0.0809
  308MOL0     O40527   9.565   4.738   8.715 -0.0183 -0.5681  0.5965
  308MOL0     C40528   9.436   4.682   8.721 -1.2535 -0.0454 -0.3002
  308MOL0     C40529   9.331   4.757   8.779  0.1367 -0.2344  1.3584
  308MOL0     C40530   9.200   4.705   8.761 -0.4746  0.6644  0.3151
  308MOL0     C40531   9.177   4.584   8.693  1.3505  0.4589 -0.1033
  308MOL0     O40532   9.049   4.556   8.676  0.5499  0.0505 -0.3389
  308MOL0     C40533   8.947   4.590   8.780 -0.6321 -0.1013  0.2308
  308MOL0     C40534   8.860   4.691   8.718  0.0307 -0.3213 -0.5489
  308MOL0     C40535   8.781   4.774   8.822  1.0446 -0.0078  0.5141
  308MOL0     C40536   8.700   4.683   8.904  0.7808  0.1165 -0.3282
  308MOL0     C40537   8.613   4.762   9.008  0.3450  0.0091  0.4224
  308MOL0     C40538   8.698   4.852   9.108  0.8287  0.3146  0.6783
  308MOL0     C40539   8.627   4.857   9.246 -0.1808  0.7062  0.9423
  308MOL0     C40540   8.693   4.943   9.356  0.8027  0.2662 -0.5844
  308MOL0     N40541   8.784   4.860   9.436  0.3311 -0.0367  0.7630
  308MOL0     C40542   8.751   4.777   9.533 -0.4756 -0.5187  0.0925
  308MOL0     C40543   8.853   4.759   9.609  0.2282 -0.0337  0.0565
  308MOL0     C40544   8.869   4.670   9.730  0.5283  0.7739 -0.2881
  308MOL0     C40545   8.743   4.629   9.818 -0.4304 -0.7054  0.1760
  308MOL0     C40546   8.657   4.524   9.760  0.2282 -0.1051  0.4518
  308MOL0     C40547   8.535   4.499   9.847 -0.2975 -0.1426 -0.2779
  308MOL0     O40548   8.575   4.435   9.961 -0.4984  0.5461 -0.5148
  308MOL0     C40549   8.483   4.413  10.063  0.0986  0.1604  0.3726
  308MOL0     C40550   8.511   4.304  10.149 -0.0136 -0.1594  0.0974
  308MOL0     C40551   8.447   4.300  10.275  0.2435 -0.2323 -0.3983
  308MOL0     C40552   8.354   4.405  10.310 -0.4117  0.4781  0.3208
  308MOL0     C40553   8.266   4.388  10.424 -0.4313  0.0989 -0.1513
  308MOL0     O40554   8.284   4.275  10.490  0.5953  0.3467 -0.1780
  308MOL0     C40555   8.208   4.235  10.600  0.3805 -0.7152  0.1445
  308MOL0     C40556   8.175   4.100  10.616 -1.6619  0.5470 -0.0871
  308MOL0     C40557   8.114   4.052  10.728 -0.1843 -0.2315  0.2213
  308MOL0     C40558   8.084   4.137  10.834  0.3976  0.7630  0.5627
  308MOL0     O40559   8.044   4.103  10.961 -0.2217  0.2625  0.4991
  308MOL0     C40560   8.008   3.965  10.978  0.8808  0.3612  0.0858
  308MOL0     C40561   8.007   3.927  11.128 -0.6835  0.2871  0.0833
  308MOL0     C40562   7.973   3.779  11.159  0.0158 -0.5548  0.7605
  308MOL0     C40563   7.937   3.761  11.312  0.9998 -1.0630  0.4551
  308MOL0     C40564   7.911   3.612  11.345  1.3945 -0.5369 -0.8121
  308MOL0     C40565   7.765   3.558  11.328 -0.1486  0.5480  0.2295
  308MOL0     C40566   7.665   3.634  11.420 -0.3929  0.5019  0.1179
  308MOL0     C40567   7.562   3.534  11.472 -0.8345 -0.2095 -0.1667
  308MOL0    Cl40568   7.444   3.486  11.350  0.3858  0.1079  0.0785
  308MOL0     C40569   8.122   4.272  10.827 -0.6788  0.2197 -0.4152
  308MOL0     C40570   8.196   4.317  10.714  0.5423  1.0266 -0.1830
  308MOL0     O40571   8.200   4.482  10.469  0.2298 -0.0196 -0.3988
  308MOL0     C40572   8.335   4.511  10.224  0.4166  0.3729 -0.2764
  308MOL0     C40573   8.396   4.519  10.103 -0.5141  0.4566  0.7651
  308MOL0     N40574   8.956   4.831   9.548  0.3234  0.4416 -0.5019
  308MOL0     N40575   8.915   4.890   9.446 -0.4643  0.4867  0.2278
  308MOL0     C40576   9.282   4.503   8.653  0.0903 -0.3954  0.1325
  308MOL0     C40577   9.410   4.556   8.665 -1.0270 -0.1323  0.9346
  308MOL0     C40578   9.790   4.760   8.816 -0.8942 -0.5072  0.2705
  308MOL0     C40579   9.879   4.759   8.931 -0.1747  1.2625  0.3384
  308MOL0     C40580  10.006   4.806   8.914  0.7614 -0.6782 -0.5156
  308MOL0     C40581  10.050   4.865   8.797 -0.1995 -0.4886 -0.5797
  308MOL0     O40582  10.174   4.919   8.779 -0.0797  0.1809  0.3858
  308MOL0     C40583  10.274   4.913   8.884  0.4410  0.8524  0.1611
  308MOL0     C40584  10.412   4.978   8.845  1.2976 -0.0556 -0.8262
  308MOL0     C40585  10.381   5.132   8.842  0.5080  0.0923 -0.4637
  308MOL0     C40586  10.510   5.208   8.810  0.3176  0.8954  0.3534
  308MOL0     C40587  10.481   5.349   8.836  0.3374 -0.4831 -0.4107
  308MOL0     C40588  10.474   5.469   8.872  0.3064  0.1516  1.1979
  308MOL0     C40589   9.966   4.883   8.691 -0.0093  0.5693  0.0481
  308MOL0     C40590   9.841   4.830   8.699 -0.6193  0.6028  0.5450
  308MOL0     H40591   9.364   4.850   8.824  2.4996  0.9170 -2.3040
  308MOL0     H40592   9.121   4.777   8.779  1.2598  3.7788 -3.2166
  308MOL0     H40593   8.988   4.631   8.872 -3.2699 -0.0875  1.4787
  308MOL0     H40594   8.896   4.497   8.808  0.2844 -0.8077 -0.3880
  308MOL0     H40595   8.792   4.628   8.659 -0.8493 -1.5681  1.6869
  308MOL0     H40596   8.915   4.766   8.661  1.4078  0.8397  2.1310
  308MOL0     H40597   8.717   4.848   8.773  3.7596  1.3415 -1.1892
  308MOL0     H40598   8.850   4.835   8.881  2.7635 -2.0330  0.7208
  308MOL0     H40599   8.634   4.629   8.835 -0.8797  1.9169 -0.1984
  308MOL0     H40600   8.765   4.615   8.961 -1.2981 -2.4729 -0.8716
  308MOL0     H40601   8.545   4.695   9.062 -0.0970  1.0345  1.1702
  308MOL0     H40602   8.547   4.828   8.950 -1.2204  1.2156  3.3305
  308MOL0     H40603   8.709   4.954   9.071  3.2837  0.4847  1.6788
  308MOL0     H40604   8.793   4.797   9.117 -0.5918 -2.1842  1.3235
  308MOL0     H40605   8.531   4.909   9.243 -2.5714 -3.2498  1.7670
  308MOL0     H40606   8.603   4.757   9.281 -1.7908  0.4723 -0.6588
  308MOL0     H40607   8.622   5.001   9.416 -0.1591 -2.9593  1.6800
  308MOL0     H40608   8.756   5.022   9.315 -0.6230  1.0953 -1.2504
  308MOL0     H40609   8.652   4.734   9.532 -0.9401  0.5344 -1.0217
  308MOL0     H40610   8.931   4.733   9.795 -0.3969  2.6745 -1.1687
  308MOL0     H40611   8.916   4.576   9.701 -2.3374 -0.7717 -0.2273
  308MOL0     H40612   8.679   4.717   9.823 -0.0818 -0.5156  1.9599
  308MOL0     H40613   8.779   4.614   9.920 -0.6564  1.6526  0.6392
  308MOL0     H40614   8.632   4.549   9.656 -1.4536 -0.8128  0.6509
  308MOL0     H40615   8.717   4.433   9.749  0.0320  0.0337 -2.5479
  308MOL0     H40616   8.466   4.435   9.792  0.5981 -1.5054  0.1353
  308MOL0     H40617   8.479   4.593   9.863  1.4751  1.1790 -1.4821
  308MOL0     H40618   8.583   4.225  10.130 -0.5551 -0.5409 -0.4239
  308MOL0     H40619   8.477   4.216  10.338 -1.2493  0.0826  0.8057
  308MOL0     H40620   8.203   4.041  10.529  3.6699  0.7257  1.1622
  308MOL0     H40621   8.097   3.945  10.730 -3.8709  0.2406  2.0984
  308MOL0     H40622   8.088   3.906  10.931 -0.8301 -1.7333 -0.3457
  308MOL0     H40623   7.918   3.925  10.932  0.9121 -0.9844  1.1266
  308MOL0     H40624   7.934   3.989  11.180  1.3791  1.6934  1.4855
  308MOL0     H40625   8.109   3.958  11.155  1.5270 -1.7771 -4.6315
  308MOL0     H40626   8.065   3.726  11.132  1.8603  1.6026  2.5188
  308MOL0     H40627   7.883   3.744  11.106 -0.9065  0.6218  1.5054
  308MOL0     H40628   8.029   3.787  11.366  2.7151 -1.2709 -2.2177
  308MOL0     H40629   7.858   3.830  11.345  0.3763 -0.7293 -1.6046
  308MOL0     H40630   7.933   3.602  11.451  0.6444 -3.0690 -0.8382
  308MOL0     H40631   7.978   3.533  11.312 -0.4704 -3.4924  1.8777
  308MOL0     H40632   7.767   3.455  11.363 -3.5141 -0.3637 -1.8337
  308MOL0     H40633   7.734   3.570  11.224 -0.6459 -0.9473  0.1865
  308MOL0     H40634   7.722   3.677  11.503 -1.1358  2.2683 -0.2567
  308MOL0     H40635   7.620   3.721  11.373  0.6913  1.1828  0.2957
  308MOL0     H40636   7.508   3.583  11.553 -0.7883  0.7883 -0.7253
  308MOL0     H40637   7.619   3.451  11.516  0.5598  1.4697  1.3458
  308MOL0     H40638   8.109   4.342  10.908 -1.3427  0.7825 -0.9997
  308MOL0     H40639   8.227   4.421  10.713 -0.9035  1.4830 -0.4813
  308MOL0     H40640   8.275   4.601  10.236  0.7014  0.4707  0.4128
  308MOL0     H40641   8.378   4.611  10.048  0.1041  0.2029  0.1234
  308MOL0     H40642   9.265   4.410   8.600 -0.4257 -0.3931  0.2941
  308MOL0     H40643   9.499   4.510   8.624 -0.8500 -0.2212  1.4131
  308MOL0     H40644   9.855   4.716   9.028 -2.4518  1.4259 -0.1004
  308MOL0     H40645  10.055   4.788   9.010 -3.2717 -0.3771  1.8122
  308MOL0     H40646  10.289   4.810   8.916  1.4568  0.9830  0.1429
  308MOL0     H40647  10.236   4.971   8.969 -0.6519 -2.6247  2.2305
  308MOL0     H40648  10.487   4.957   8.922  1.1251  2.3143  0.0731
  308MOL0     H40649  10.459   4.940   8.754  0.8427 -2.4105 -0.1391
  308MOL0     H40650  10.340   5.160   8.940  2.2444  1.8343 -0.1804
  308MOL0     H40651  10.306   5.148   8.764  0.0420  1.5709  0.2393
  308MOL0     H40652  10.578   5.167   8.886  0.3947 -1.5466 -0.9452
  308MOL0     H40653  10.552   5.195   8.710  2.5914  0.3750  1.3017
  308MOL0     H40654  10.462   5.568   8.911 -0.0885  0.3244  0.6568
  308MOL0     H40655   9.981   4.952   8.609  0.4542  2.6754  1.8110
  308MOL0     H40656   9.771   4.853   8.620 -0.6404  0.2881  0.4716
  309MOL0     O40657   8.633   3.749   5.627 -0.7354  0.4174 -1.0394
  309MOL0     C40658   8.684   3.822   5.716  1.0776 -0.1337  0.0749
  309MOL0     O40659   8.624   3.937   5.761  0.0711  0.0349 -0.5769
  309MOL0     C40660   8.505   3.978   5.714  0.7821  0.9600 -0.4565
  309MOL0     C40661   8.502   4.056   5.597  0.5807  0.9383  0.6428
  309MOL0     C40662   8.378   4.118   5.558 -0.1940 -0.8215  0.5001
  309MOL0     C40663   8.261   4.083   5.622 -0.0338  0.3045 -0.2218
  309MOL0     O40664   8.139   4.135   5.592  0.0638  0.7695  0.3369
  309MOL0     C40665   8.053   4.040   5.538 -0.6333  0.3330  0.2460
  309MOL0     C40666   7.920   4.098   5.511  0.3854  0.4666  0.3525
  309MOL0     C40667   7.862   4.173   5.631 -0.4801  0.3803 -0.1640
  309MOL0     C40668   7.714   4.215   5.608 -0.5492 -0.5085  0.1048
  309MOL0     C40669   7.613   4.101   5.612  0.5401 -0.1148 -0.4291
  309MOL0     C40670   7.472   4.157   5.639 -0.2903  1.1589 -0.6170
  309MOL0     C40671   7.358   4.059   5.647 -0.7449  0.9164  0.6441
  309MOL0     C40672   7.221   4.115   5.689 -0.6854 -0.9051  0.2954
  309MOL0     N40673   7.218   4.252   5.746 -0.6699 -0.4253 -0.5889
  309MOL0     C40674   7.247   4.275   5.877  0.1120  0.4100 -0.8211
  309MOL0     C40675   7.215   4.398   5.897  0.1306  0.0657 -0.7713
  309MOL0     C40676   7.185   4.436   6.039  0.1092 -0.6926  0.5993
  309MOL0     C40677   7.176   4.593   6.050  0.4673  0.3289  0.3741
  309MOL0     C40678   7.042   4.656   6.035 -0.4332  0.3046 -1.2384
  309MOL0     C40679   6.970   4.687   6.166  0.2439  0.3225 -0.2927
  309MOL0     O40680   6.840   4.627   6.176  0.3082 -0.1843  0.1082
  309MOL0     C40681   6.810   4.528   6.262 -0.0879  0.7087 -0.5581
  309MOL0     C40682   6.685   4.467   6.233 -0.0097 -0.1880 -0.0400
  309MOL0     C40683   6.638   4.365   6.312 -0.5725 -0.2981 -0.0424
  309MOL0     C40684   6.718   4.315   6.424  1.1217 -1.1632  0.8276
  309MOL0     C40685   6.670   4.210   6.510  0.2553  0.7163 -1.1186
  309MOL0     O40686   6.556   4.137   6.472  0.9595 -0.0340 -0.2553
  309MOL0     C40687   6.499   4.054   6.572  0.5696 -0.1117 -0.6709
  309MOL0     C40688   6.465   3.930   6.526  0.8524  0.8406 -0.1581
  309MOL0     C40689   6.399   3.842   6.610 -0.3963  0.1292 -0.0705
  309MOL0     C40690   6.382   3.870   6.744 -0.0389  0.2950 -0.6446
  309MOL0     O40691   6.317   3.773   6.819 -0.0082 -0.4372  0.8820
  309MOL0     C40692   6.249   3.819   6.940 -0.0055  0.5421 -0.0640
  309MOL0     C40693   6.116   3.893   6.894  0.1203  0.1957  0.5329
  309MOL0     C40694   6.017   3.930   6.998 -0.5754 -0.2853  0.4677
  309MOL0     C40695   6.063   4.033   7.089  0.1085  0.0160 -0.5760
  309MOL0     C40696   5.978   4.045   7.212 -0.6064 -0.5349 -0.6140
  309MOL0     C40697   5.853   4.128   7.215  0.0853  0.2112  0.1338
  309MOL0     C40698   5.788   4.152   7.350 -0.7894  0.4650 -0.8158
  309MOL0     C40699   5.641   4.196   7.327  0.1289  0.4712  0.3135
  309MOL0    Cl40700   5.580   4.273   7.487 -0.5846 -0.0924 -0.2849
  309MOL0     C40701   6.439   3.984   6.795  0.0324 -0.3521  0.7073
  309MOL0     C40702   6.493   4.076   6.711  0.2025  0.0410  0.7379
  309MOL0     O40703   6.737   4.191   6.614  0.6387  0.3181  0.4697
  309MOL0     C40704   6.832   4.388   6.457  0.9109 -1.0592 -0.1632
  309MOL0     C40705   6.880   4.484   6.372 -0.8168  0.2536 -0.2056
  309MOL0     N40706   7.179   4.457   5.778  0.4364 -0.2035 -0.6307
  309MOL0     N40707   7.164   4.367   5.685 -1.0247 -0.1609 -0.2403
  309MOL0     C40708   8.272   3.997   5.737  1.1663  0.5411  0.7315
  309MOL0     C40709   8.388   3.950   5.789 -0.4516 -0.1701  1.2445
  309MOL0     C40710   8.805   3.772   5.775 -0.0381 -1.2129 -0.6822
  309MOL0     C40711   8.855   3.649   5.747  0.1486  0.0221 -0.5689
  309MOL0     C40712   8.959   3.598   5.819 -0.7819 -0.9732  0.1636
  309MOL0     C40713   9.022   3.679   5.920  0.3118  0.6434  0.1036
  309MOL0     O40714   9.136   3.630   5.995  0.2105 -0.7602  0.3145
  309MOL0     C40715   9.192   3.708   6.109 -0.3002  0.3111  0.0493
  309MOL0     C40716   9.327   3.649   6.143 -0.4264  1.1692  0.3800
  309MOL0     C40717   9.303   3.513   6.202  0.7673  1.1876 -0.1184
  309MOL0     C40718   9.403   3.460   6.312  0.7844  0.1179  0.1894
  309MOL0     C40719   9.372   3.534   6.436 -0.5792  0.2367  0.4443
  309MOL0     C40720   9.365   3.596   6.543 -0.3123 -0.3047 -0.5969
  309MOL0     C40721   8.967   3.799   5.957  0.2058 -0.6020 -0.3186
  309MOL0     C40722   8.858   3.845   5.880 -0.4114 -0.7013  0.2013
  309MOL0     H40723   8.588   4.095   5.543 -0.3785  3.6518  0.8767
  309MOL0     H40724   8.381   4.195   5.481  0.0953 -1.9355 -0.6311
  309MOL0     H40725   8.041   3.945   5.591 -0.3931 -0.2731 -0.7706
  309MOL0     H40726   8.099   4.009   5.444  2.6366  0.8780  1.5308
  309MOL0     H40727   7.845   4.023   5.484 -0.9758  1.5456  0.9828
  309MOL0     H40728   7.927   4.168   5.428 -3.0014  1.8216  1.0168
  309MOL0     H40729   7.926   4.259   5.652  2.7070 -1.1247 -2.8388
  309MOL0     H40730   7.870   4.105   5.717 -2.9806  0.2686  0.0679
  309MOL0     H40731   7.701   4.295   5.681  0.6519  1.0613 -1.3173
  309MOL0     H40732   7.708   4.269   5.513 -0.2224  0.2192  0.4902
  309MOL0     H40733   7.628   4.021   5.685 -3.0291  1.2354  2.0259
  309MOL0     H40734   7.611   4.040   5.521 -0.3385  0.2011 -0.6296
  309MOL0     H40735   7.454   4.227   5.557  0.3257 -0.4534 -2.2086
  309MOL0     H40736   7.483   4.206   5.736 -1.5265  1.6573 -0.7165
  309MOL0     H40737   7.347   4.001   5.554  1.5830 -1.1786  1.5499
  309MOL0     H40738   7.384   3.987   5.725  2.8995 -2.2012 -2.9431
  309MOL0     H40739   7.182   4.043   5.761  2.2315 -4.0087 -0.9430
  309MOL0     H40740   7.155   4.119   5.602 -1.2234 -0.2253  0.7293
  309MOL0     H40741   7.268   4.201   5.953  0.8056  1.8288  0.4146
  309MOL0     H40742   7.255   4.388   6.107  0.0563  1.5497  2.3376
  309MOL0     H40743   7.089   4.397   6.074 -0.7731  1.0462  0.2117
  309MOL0     H40744   7.233   4.634   5.967 -1.2063  2.6624  0.2838
  309MOL0     H40745   7.226   4.613   6.145  1.3718  3.5219 -0.6671
  309MOL0     H40746   7.055   4.750   5.981 -1.9996 -0.6549 -3.4734
  309MOL0     H40747   6.987   4.601   5.957  2.0647 -2.3885 -1.2768
  309MOL0     H40748   6.944   4.793   6.165  0.9847  0.5062 -1.3787
  309MOL0     H40749   7.021   4.654   6.256 -1.3321  0.2063  0.6011
  309MOL0     H40750   6.634   4.480   6.138 -2.1357 -1.8032  0.8069
  309MOL0     H40751   6.532   4.341   6.300 -1.2200  1.5849  1.4092
  309MOL0     H40752   6.469   3.908   6.419 -0.8729  0.6357 -0.2094
  309MOL0     H40753   6.346   3.752   6.580  0.3877 -0.8624  1.3983
  309MOL0     H40754   6.315   3.882   7.000  2.7232 -0.1970 -2.0709
  309MOL0     H40755   6.208   3.736   6.998  0.1807  1.4054  1.3331
  309MOL0     H40756   6.068   3.831   6.818  0.3258 -1.6870  1.8775
  309MOL0     H40757   6.138   3.991   6.850  2.0013  0.1099  1.1947
  309MOL0     H40758   5.993   3.838   7.052 -0.9665 -1.3808 -1.4842
  309MOL0     H40759   5.938   3.976   6.938  0.3919 -1.0234 -1.4435
  309MOL0     H40760   6.167   4.009   7.115  1.2420  1.4092 -3.3769
  309MOL0     H40761   6.060   4.118   7.020 -0.1950 -0.9647 -1.8028
  309MOL0     H40762   6.042   4.098   7.284 -0.9738  3.8454 -3.1227
  309MOL0     H40763   5.951   3.945   7.247 -2.3523  0.5276  1.2691
  309MOL0     H40764   5.785   4.080   7.145  2.7589 -1.8277 -1.2557
  309MOL0     H40765   5.863   4.230   7.176 -1.6415 -0.1184 -1.3331
  309MOL0     H40766   5.794   4.061   7.410  0.0815  0.3031 -1.1412
  309MOL0     H40767   5.840   4.230   7.406  0.7608 -2.5742  2.3767
  309MOL0     H40768   5.583   4.108   7.299  0.7942  0.1886 -0.1955
  309MOL0     H40769   5.629   4.261   7.240 -0.0189 -1.2924 -1.0122
  309MOL0     H40770   6.436   4.016   6.899 -2.1927  1.3510  0.2157
  309MOL0     H40771   6.525   4.168   6.760 -1.7699  1.8096 -1.0517
  309MOL0     H40772   6.881   4.379   6.554  1.7186 -0.5560 -0.5158
  309MOL0     H40773   6.969   4.530   6.413 -2.2861  1.9064  1.2874
  309MOL0     H40774   8.185   3.982   5.800 -0.1922  3.9481 -0.1486
  309MOL0     H40775   8.390   3.879   5.871  0.2944  1.0017  2.2745
  309MOL0     H40776   8.812   3.588   5.668  0.5197  2.5405 -2.8629
  309MOL0     H40777   8.997   3.498   5.799 -1.4152 -1.8615  2.9002
  309MOL0     H40778   9.123   3.705   6.195 -1.3899 -0.6018 -0.8198
  309MOL0     H40779   9.216   3.810   6.081  1.3879 -0.4375 -1.3786
  309MOL0     H40780   9.381   3.625   6.051  0.5549  0.8089  1.0313
  309MOL0     H40781   9.395   3.701   6.211  1.5637 -0.6797 -0.0868
  309MOL0     H40782   9.308   3.435   6.125 -0.0396 -0.4149  1.3559
  309MOL0     H40783   9.206   3.502   6.252  0.6885 -0.4708 -0.5673
  309MOL0     H40784   9.381   3.353   6.323  1.0156  0.1081  0.5769
  309MOL0     H40785   9.507   3.465   6.280  0.8488 -0.8401  0.2200
  309MOL0     H40786   9.363   3.658   6.630  0.5130 -1.2623  0.1189
  309MOL0     H40787   9.008   3.858   6.038 -0.2243 -0.4474 -0.2088
  309MOL0     H40788   8.828   3.947   5.903 -2.8376 -1.6049  1.3730
  310MOL0     O40789   9.215   9.895   6.542  0.8339 -0.2787 -0.0685
  310MOL0     C40790   9.136   9.889   6.449  1.3282  0.6066 -0.6269
  310MOL0     O40791   9.145   9.815   6.337  0.6820  0.3858 -0.1790
  310MOL0     C40792   9.236   9.717   6.316 -0.5283  0.0578 -0.5293
  310MOL0     C40793   9.234   9.668   6.183  0.1358  0.1675  0.8073
  310MOL0     C40794   9.303   9.553   6.148 -0.1586 -0.2888  0.4687
  310MOL0     C40795   9.372   9.479   6.252 -0.6873  0.3787  0.1835
  310MOL0     O40796   9.443   9.362   6.231 -0.6110  0.1989 -0.2709
  310MOL0     C40797   9.376   9.271   6.149 -0.2578 -0.1242 -0.7211
  310MOL0     C40798   9.411   9.124   6.194 -1.1243 -1.3853 -0.1480
  310MOL0     C40799   9.308   9.064   6.278 -0.3111 -0.6446  0.5907
  310MOL0     C40800   9.283   9.135   6.414  1.3126 -0.4798 -0.1119
  310MOL0     C40801   9.201   9.046   6.509 -0.5818 -0.6051  0.2861
  310MOL0     C40802   9.241   8.890   6.503 -0.1005 -0.2570  0.1493
  310MOL0     C40803   9.186   8.819   6.629  0.3840  0.0488 -0.6832
  310MOL0     C40804   9.032   8.833   6.642  0.7799 -0.6854 -0.8020
  310MOL0     N40805   8.961   8.764   6.758 -0.5728  0.1946  1.0284
  310MOL0     C40806   8.903   8.824   6.867 -0.2039  0.2257 -0.4749
  310MOL0     C40807   8.811   8.739   6.920 -0.0405 -0.0041 -0.3817
  310MOL0     C40808   8.726   8.773   7.034 -0.3925  0.2047 -0.2378
  310MOL0     C40809   8.572   8.772   7.000 -0.0553 -0.7274  1.1541
  310MOL0     C40810   8.549   8.824   6.848 -0.3645 -0.4060  0.0225
  310MOL0     C40811   8.397   8.857   6.836  0.8463  0.5396  1.0179
  310MOL0     O40812   8.383   8.924   6.710  0.5817 -0.4586 -0.3527
  310MOL0     C40813   8.253   8.938   6.663  0.5211  0.1234  0.3850
  310MOL0     C40814   8.220   9.020   6.549 -0.1265 -0.4425 -0.7443
  310MOL0     C40815   8.090   9.040   6.509 -0.3650  0.2435  0.0665
  310MOL0     C40816   7.979   8.983   6.571 -0.6381 -0.2596 -0.4235
  310MOL0     C40817   7.838   9.018   6.533  0.9746 -0.3563 -0.8905
  310MOL0     O40818   7.738   8.924   6.561 -0.2900  0.0126 -0.3516
  310MOL0     C40819   7.621   8.945   6.511 -0.4876  0.9623  0.7518
  310MOL0     C40820   7.599   8.910   6.372  0.3827  0.1161  0.0203
  310MOL0     C40821   7.464   8.925   6.322 -0.0988 -0.3312 -0.7826
  310MOL0     C40822   7.359   8.975   6.403 -0.0963 -0.4321 -0.5286
  310MOL0     O40823   7.242   8.992   6.338 -0.3613 -0.5873  0.3945
  310MOL0     C40824   7.154   9.085   6.403  1.0403  1.3607 -0.2924
  310MOL0     C40825   7.048   9.134   6.297  0.0947 -0.6976 -0.0780
  310MOL0     C40826   6.964   9.016   6.251  0.4357  0.0418 -0.2650
  310MOL0     C40827   6.845   9.056   6.154 -0.2604 -0.1612  0.1061
  310MOL0     C40828   6.732   9.097   6.253 -0.7631  0.1586 -0.4843
  310MOL0     C40829   6.590   9.078   6.198  0.5631 -0.6706  0.6458
  310MOL0     C40830   6.486   9.042   6.315 -0.1618  0.2287  0.2563
  310MOL0     C40831   6.349   8.999   6.268 -0.2018  0.7318 -0.6778
  310MOL0    Cl40832   6.280   9.124   6.154  0.0121 -0.1806  0.0551
  310MOL0     C40833   7.392   9.003   6.544 -0.4184  0.1333  0.2525
  310MOL0     C40834   7.519   8.968   6.595  1.0308 -0.1170 -0.4023
  310MOL0     O40835   7.815   9.130   6.494 -0.2161  0.8118 -0.0885
  310MOL0     C40836   8.012   8.886   6.670  0.1810  0.5640 -0.5000
  310MOL0     C40837   8.142   8.863   6.708 -0.1872  0.2926  0.6799
  310MOL0     N40838   8.811   8.624   6.841  0.1230  0.1775 -0.5546
  310MOL0     N40839   8.911   8.638   6.749 -0.4993 -0.2234 -0.6270
  310MOL0     C40840   9.355   9.514   6.382 -0.4893 -0.4589 -0.8220
  310MOL0     C40841   9.288   9.632   6.417 -0.0795  0.2516 -0.2804
  310MOL0     C40842   9.020   9.974   6.475  1.1198 -0.3982 -0.0316
  310MOL0     C40843   8.989  10.041   6.589  0.1147 -0.3309 -1.1853
  310MOL0     C40844   8.872  10.122   6.599 -0.7416 -0.1487  0.3790
  310MOL0     C40845   8.779  10.136   6.497  0.5324  0.1646 -0.5160
  310MOL0     O40846   8.677  10.223   6.512 -0.0642  0.1135  0.1368
  310MOL0     C40847   8.565  10.224   6.420 -0.3233 -0.3130 -0.2581
  310MOL0     C40848   8.485  10.348   6.456  0.2535  0.8176 -0.2962
  310MOL0     C40849   8.433  10.324   6.599  0.0840 -0.0155 -0.1913
  310MOL0     C40850   8.299  10.240   6.597  0.3715  1.0812 -0.4409
  310MOL0     C40851   8.190  10.321   6.556  0.5875  0.8605 -0.1907
  310MOL0     C40852   8.090  10.385   6.520 -1.0599 -0.7807  0.8952
  310MOL0     C40853   8.813  10.069   6.377 -0.2633 -0.1593  0.1549
  310MOL0     C40854   8.921   9.985   6.372 -0.5933 -0.0084  0.0491
  310MOL0     H40855   9.171   9.718   6.110 -1.5589  2.0680  3.4027
  310MOL0     H40856   9.308   9.531   6.041  1.6042 -0.1162  0.4759
  310MOL0     H40857   9.414   9.295   6.049 -0.8556 -0.5467 -1.0577
  310MOL0     H40858   9.267   9.282   6.159  0.1002  1.6719  3.2000
  310MOL0     H40859   9.507   9.115   6.245  0.0650 -2.2383 -2.3892
  310MOL0     H40860   9.427   9.069   6.101 -0.0014  0.3422 -1.0081
  310MOL0     H40861   9.356   8.968   6.296 -1.4432 -1.3681 -0.1188
  310MOL0     H40862   9.208   9.057   6.234 -0.7725  3.1937  0.6785
  310MOL0     H40863   9.380   9.150   6.461  0.6361  1.7490  0.6668
  310MOL0     H40864   9.235   9.230   6.389 -1.0763 -0.8090  2.6196
  310MOL0     H40865   9.093   9.049   6.488 -0.3772 -0.6390 -0.8601
  310MOL0     H40866   9.216   9.097   6.605  2.2854  1.8965 -1.2813
  310MOL0     H40867   9.348   8.868   6.502  0.1107  0.6850 -1.4778
  310MOL0     H40868   9.189   8.846   6.417 -0.6758 -0.5740  0.6522
  310MOL0     H40869   9.209   8.712   6.620  1.4626  0.0338  1.5570
  310MOL0     H40870   9.237   8.862   6.716 -1.3108 -0.5497  0.6681
  310MOL0     H40871   8.996   8.778   6.555  3.2680 -1.4213 -1.4555
  310MOL0     H40872   8.984   8.931   6.636 -1.1909 -1.4574  1.0721
  310MOL0     H40873   8.934   8.923   6.901 -1.2625 -0.5748  3.3051
  310MOL0     H40874   8.744   8.873   7.074 -1.7964  0.0594  0.8657
  310MOL0     H40875   8.756   8.717   7.123 -0.5829  1.3501  0.5681
  310MOL0     H40876   8.524   8.851   7.058  0.2982 -0.6844  1.3918
  310MOL0     H40877   8.520   8.677   7.016 -1.2493 -0.1077  1.0146
  310MOL0     H40878   8.601   8.919   6.837  1.7388 -0.9867  3.3795
  310MOL0     H40879   8.581   8.753   6.771 -2.2243 -0.8026 -0.4433
  310MOL0     H40880   8.350   8.913   6.918 -0.3449  3.3152 -1.3736
  310MOL0     H40881   8.351   8.758   6.845 -1.8470  1.5090 -0.6832
  310MOL0     H40882   8.291   9.079   6.493 -0.8559  2.7442  1.4184
  310MOL0     H40883   8.058   9.111   6.433 -1.9401 -0.6168 -0.1328
  310MOL0     H40884   7.686   8.890   6.310 -1.0012 -0.8624 -1.7059
  310MOL0     H40885   7.443   8.910   6.217 -2.7893 -0.3693 -0.3061
  310MOL0     H40886   7.199   9.164   6.463  1.7791  0.1092  0.8647
  310MOL0     H40887   7.103   9.021   6.477  4.5499 -2.8066 -1.0440
  310MOL0     H40888   7.105   9.177   6.214 -0.2285  0.5500  0.3155
  310MOL0     H40889   6.982   9.208   6.342 -0.9402 -2.1967  0.9586
  310MOL0     H40890   6.936   8.962   6.343 -0.2147  1.6837  0.5468
  310MOL0     H40891   7.035   8.947   6.205  2.0977  1.1721  0.5334
  310MOL0     H40892   6.889   9.135   6.094  2.6231 -1.3633  0.4127
  310MOL0     H40893   6.816   8.976   6.085 -0.9187  0.2142 -0.0590
  310MOL0     H40894   6.746   9.202   6.277  0.7308 -0.0994 -0.1483
  310MOL0     H40895   6.730   9.034   6.343 -1.7020  0.0447 -0.5795
  310MOL0     H40896   6.591   8.995   6.127 -1.1790 -1.5030  1.5113
  310MOL0     H40897   6.555   9.168   6.146 -1.2207 -0.5586  1.9481
  310MOL0     H40898   6.525   8.973   6.390 -0.6527 -1.7497 -1.2336
  310MOL0     H40899   6.467   9.136   6.367 -0.4225 -1.0371  2.5903
  310MOL0     H40900   6.296   9.000   6.364 -1.1432  0.4338 -1.1825
  310MOL0     H40901   6.342   8.899   6.222 -1.1417  0.4897 -0.0515
  310MOL0     H40902   7.326   9.041   6.621  0.4938  1.2416  0.5146
  310MOL0     H40903   7.546   8.994   6.696  1.8371 -1.1143 -0.3429
  310MOL0     H40904   7.922   8.838   6.708  0.1385  0.6357 -0.5093
  310MOL0     H40905   8.155   8.787   6.785 -0.2204 -0.3473  0.0651
  310MOL0     H40906   9.409   9.448   6.449 -0.3142 -0.8301 -1.3239
  310MOL0     H40907   9.277   9.653   6.523 -1.2976 -5.2577  0.9572
  310MOL0     H40908   9.058  10.046   6.673 -0.9364 -1.6349 -0.2125
  310MOL0     H40909   8.866  10.174   6.694  0.7827 -1.1001  1.0360
  310MOL0     H40910   8.503  10.133   6.429 -1.0259  0.3322  3.0102
  310MOL0     H40911   8.592  10.222   6.315 -1.0125 -0.9250 -0.4355
  310MOL0     H40912   8.556  10.431   6.450  1.5882 -0.3834 -1.8589
  310MOL0     H40913   8.397  10.368   6.393 -1.8017 -0.8593  1.8667
  310MOL0     H40914   8.431  10.419   6.654 -5.0272 -0.3225  0.5915
  310MOL0     H40915   8.503  10.258   6.650  0.8194 -0.3448 -1.5826
  310MOL0     H40916   8.303  10.172   6.512  1.2242  1.2999 -0.5871
  310MOL0     H40917   8.276  10.187   6.690  0.8398  2.0896  0.2687
  310MOL0     H40918   8.004  10.444   6.498  1.1086  2.2818  0.0345
  310MOL0     H40919   8.755  10.082   6.286  0.1251 -2.9965 -0.5960
  310MOL0     H40920   8.941   9.920   6.287  5.2312  0.4392  0.6315
  311MOL0     O40921   8.699   5.127   0.038  0.5421 -0.0299  0.8401
  311MOL0     C40922   8.744   5.215   0.118 -0.1326  0.5430  0.3804
  311MOL0     O40923   8.676   5.328   0.157 -0.1645 -0.5991  0.9639
  311MOL0     C40924   8.534   5.346   0.141 -1.2476 -1.1249 -1.2469
  311MOL0     C40925   8.456   5.281   0.050 -0.2431  0.2170  0.3901
  311MOL0     C40926   8.322   5.310   0.040  0.0832 -0.0531  0.0853
  311MOL0     C40927   8.255   5.388   0.131 -1.3517 -0.0145  0.4006
  311MOL0     O40928   8.129   5.429   0.116  0.0271 -0.7045  0.1492
  311MOL0     C40929   8.031   5.331   0.141 -0.1281 -0.5293 -0.2732
  311MOL0     C40930   7.936   5.359   0.268  0.7633 -0.4120  0.3438
  311MOL0     C40931   7.875   5.500   0.268 -0.4273 -0.1796  0.1913
  311MOL0     C40932   7.948   5.606   0.340  0.2240 -0.0321  0.0767
  311MOL0     C40933   7.856   5.734   0.345  0.2739 -0.0854  0.2994
  311MOL0     C40934   7.951   5.859   0.382  0.6341  0.1133 -0.4447
  311MOL0     C40935   7.885   5.996   0.365  0.1434 -0.8397 -0.5107
  311MOL0     C40936   7.788   6.022   0.494  0.1970  0.9687  1.7832
  311MOL0     N40937   7.710   6.145   0.477 -0.9150  0.4301 -0.1144
  311MOL0     C40938   7.624   6.196   0.574  0.4272 -0.8523 -0.1969
  311MOL0     C40939   7.556   6.303   0.520  0.1852 -0.4116  0.0926
  311MOL0     C40940   7.425   6.360   0.575 -0.2724 -1.5726 -1.0464
  311MOL0     C40941   7.441   6.435   0.707  0.8780 -0.6684  0.2350
  311MOL0     C40942   7.563   6.524   0.710  0.6223 -0.8582 -0.2846
  311MOL0     C40943   7.558   6.648   0.618  0.5024  0.5985 -0.1227
  311MOL0     O40944   7.685   6.716   0.616  0.5363  0.2287  0.2099
  311MOL0     C40945   7.696   6.851   0.641 -0.8330 -0.3221  0.4436
  311MOL0     C40946   7.779   6.937   0.565  0.3708 -0.2511  0.3942
  311MOL0     C40947   7.808   7.076   0.600 -0.0867 -0.4867 -0.5893
  311MOL0     C40948   7.750   7.132   0.715 -0.0045 -0.6851  0.5596
  311MOL0     C40949   7.759   7.278   0.750 -0.2595  0.5353  0.0127
  311MOL0     O40950   7.686   7.317   0.858 -0.1389  0.6758 -0.4881
  311MOL0     C40951   7.637   7.449   0.853  0.2513  0.6131  0.8142
  311MOL0     C40952   7.704   7.552   0.912 -0.0136  0.4081  0.5105
  311MOL0     C40953   7.665   7.686   0.896  1.1845  0.1479 -1.3486
  311MOL0     C40954   7.550   7.719   0.830 -0.2816  0.4453 -0.8000
  311MOL0     O40955   7.525   7.852   0.837 -0.8761  0.5239  0.1468
  311MOL0     C40956   7.421   7.892   0.750  0.2652 -0.0116  0.6990
  311MOL0     C40957   7.461   8.036   0.703 -0.2188  0.5630  0.0592
  311MOL0     C40958   7.434   8.143   0.811 -0.3112  0.6734 -0.0654
  311MOL0     C40959   7.526   8.252   0.762  0.5961  0.8088  0.3125
  311MOL0     C40960   7.506   8.378   0.845  1.1874 -0.1620  0.3047
  311MOL0     C40961   7.585   8.500   0.799 -0.3654 -0.3488 -0.2187
  311MOL0     C40962   7.631   8.588   0.917  0.4662 -0.6817 -0.5558
  311MOL0     C40963   7.516   8.683   0.981  0.7054  0.0231 -0.3703
  311MOL0    Cl40964   7.472   8.807   0.863  0.4891  0.4000  0.7880
  311MOL0     C40965   7.491   7.605   0.755 -0.5082 -0.9381  0.0961
  311MOL0     C40966   7.531   7.477   0.769 -0.4318  0.3880 -0.3654
  311MOL0     O40967   7.822   7.346   0.674 -0.1867 -0.5311 -0.4693
  311MOL0     C40968   7.663   7.047   0.793 -0.6786  0.9357 -0.5959
  311MOL0     C40969   7.634   6.915   0.753 -0.1516  0.8606  0.2842
  311MOL0     N40970   7.599   6.304   0.383 -0.1485 -0.0006 -0.0647
  311MOL0     N40971   7.683   6.213   0.359  0.0030 -0.1178 -0.3357
  311MOL0     C40972   8.341   5.456   0.215  0.4734  0.7546 -0.7840
  311MOL0     C40973   8.480   5.439   0.216  0.2218 -0.3004  0.2244
  311MOL0     C40974   8.885   5.204   0.166 -0.7629  0.2515  0.0977
  311MOL0     C40975   8.966   5.323   0.192  0.0660  0.3627 -0.2081
  311MOL0     C40976   9.101   5.316   0.224 -1.0302 -0.3193  0.4486
  311MOL0     C40977   9.162   5.191   0.228 -0.2577 -0.9022 -1.0009
  311MOL0     O40978   9.296   5.192   0.248 -0.1158 -0.2465 -0.2523
  311MOL0     C40979   9.365   5.065   0.273  0.6986 -0.5557 -0.4707
  311MOL0     C40980   9.518   5.080   0.285  0.6289 -0.3968 -1.3642
  311MOL0     C40981   9.576   4.957   0.341 -0.6777 -0.1593  0.1190
  311MOL0     C40982   9.615   4.856   0.231  0.1920  1.0937  0.6533
  311MOL0     C40983   9.699   4.752   0.276  0.2673  0.7717  0.2680
  311MOL0     C40984   9.744   4.650   0.316 -0.7450  0.6536 -0.1207
  311MOL0     C40985   9.091   5.075   0.196  0.1950  0.2409  0.0957
  311MOL0     C40986   8.958   5.078   0.159  0.5970 -0.8676 -0.3218
  311MOL0     H40987   8.489   5.214  -0.029  0.1183  2.1396 -1.1728
  311MOL0     H40988   8.267   5.257  -0.037  1.0314 -1.2450  0.2032
  311MOL0     H40989   8.077   5.232   0.144 -0.5575 -0.7130  1.0478
  311MOL0     H40990   7.963   5.325   0.055 -0.3466 -0.6113 -0.0950
  311MOL0     H40991   7.995   5.353   0.360 -0.3911 -0.6332  1.0843
  311MOL0     H40992   7.861   5.279   0.277  0.5872 -0.4685 -1.2714
  311MOL0     H40993   7.788   5.486   0.333 -1.3927  0.1602 -0.9858
  311MOL0     H40994   7.854   5.539   0.168 -0.3270  2.1709  0.9994
  311MOL0     H40995   7.982   5.574   0.439 -1.7718  1.7704  1.4514
  311MOL0     H40996   8.038   5.630   0.284 -2.0987  0.2454 -3.9588
  311MOL0     H40997   7.778   5.708   0.417 -0.3800 -1.1790 -0.7626
  311MOL0     H40998   7.815   5.750   0.245  2.0364 -1.5750 -0.7327
  311MOL0     H40999   8.035   5.858   0.311 -1.2080 -0.0982 -2.7645
  311MOL0     H41000   7.987   5.852   0.485  0.4832  2.1347 -0.2120
  311MOL0     H41001   7.963   6.073   0.362  0.2717 -0.9959 -1.2880
  311MOL0     H41002   7.836   6.012   0.269  1.7449 -1.1188 -1.4034
  311MOL0     H41003   7.837   6.023   0.592  0.8967 -0.0775  1.4637
  311MOL0     H41004   7.718   5.938   0.497  0.7849  0.4377  1.0618
  311MOL0     H41005   7.601   6.146   0.667 -1.6395 -1.6236 -1.0681
  311MOL0     H41006   7.364   6.271   0.596 -0.1554 -0.7364  3.9794
  311MOL0     H41007   7.364   6.412   0.501 -2.6828 -2.4323  0.2269
  311MOL0     H41008   7.439   6.359   0.786 -0.0007  2.2450  3.2447
  311MOL0     H41009   7.350   6.494   0.718 -0.2885 -2.2774 -0.3822
  311MOL0     H41010   7.560   6.557   0.814 -0.1365 -1.7769 -0.0075
  311MOL0     H41011   7.654   6.464   0.694  0.4964 -1.0315 -0.3478
  311MOL0     H41012   7.481   6.718   0.652 -1.1355 -2.3683  2.9030
  311MOL0     H41013   7.542   6.608   0.518  3.0744 -3.8029  0.9435
  311MOL0     H41014   7.831   6.871   0.497 -0.7734 -2.5452  1.5906
  311MOL0     H41015   7.861   7.132   0.524 -0.3547 -0.9241 -1.0995
  311MOL0     H41016   7.796   7.528   0.964  0.6162  3.1001  0.7524
  311MOL0     H41017   7.730   7.769   0.922  1.5375 -0.0796 -1.4979
  311MOL0     H41018   7.329   7.905   0.807  1.2950  1.0293  2.1760
  311MOL0     H41019   7.414   7.820   0.667 -1.6036  3.7147 -2.7029
  311MOL0     H41020   7.399   8.068   0.619 -2.8523  1.3346  2.1730
  311MOL0     H41021   7.568   8.026   0.679  0.7372 -0.1379  3.9942
  311MOL0     H41022   7.463   8.108   0.910 -2.7240 -1.7923 -0.1284
  311MOL0     H41023   7.329   8.174   0.816 -0.4009  0.2836  0.5272
  311MOL0     H41024   7.628   8.213   0.770 -0.3180 -1.7541  0.5230
  311MOL0     H41025   7.489   8.275   0.662 -0.8219  1.2638  0.9250
  311MOL0     H41026   7.542   8.357   0.946 -0.9536 -3.3173  0.5790
  311MOL0     H41027   7.401   8.407   0.841  1.6330  1.4356 -1.0369
  311MOL0     H41028   7.521   8.565   0.739 -0.5100  0.3884  0.7210
  311MOL0     H41029   7.672   8.470   0.738  1.5021  2.5222  0.8445
  311MOL0     H41030   7.666   8.520   0.995  0.5825  2.1991  2.0997
  311MOL0     H41031   7.721   8.642   0.885 -0.6062  0.7125 -1.3318
  311MOL0     H41032   7.549   8.745   1.065 -0.1978  0.7269 -0.5190
  311MOL0     H41033   7.429   8.632   1.023  0.8119 -2.0765 -2.5359
  311MOL0     H41034   7.409   7.608   0.684 -0.8065 -1.8592  0.3826
  311MOL0     H41035   7.472   7.399   0.722  1.1966 -1.1260 -0.0214
  311MOL0     H41036   7.625   7.072   0.891 -2.8010  1.2395 -1.4379
  311MOL0     H41037   7.562   6.855   0.807 -1.4383 -0.0525 -2.3117
  311MOL0     H41038   8.302   5.537   0.274 -1.8818 -1.3289  0.7059
  311MOL0     H41039   8.541   5.493   0.288  0.8856 -1.7596  0.7932
  311MOL0     H41040   8.905   5.412   0.200 -2.1122 -0.8184 -2.3097
  311MOL0     H41041   9.154   5.410   0.234  3.1606 -2.4424  0.3799
  311MOL0     H41042   9.354   4.988   0.196 -1.4704 -2.4541  1.5967
  311MOL0     H41043   9.312   5.030   0.362  0.5556 -2.5579 -1.2730
  311MOL0     H41044   9.565   5.112   0.192  2.9061 -1.2100 -0.5746
  311MOL0     H41045   9.531   5.152   0.366 -0.9702  2.2420 -3.2955
  311MOL0     H41046   9.502   4.905   0.402  0.8059  0.7521  2.8628
  311MOL0     H41047   9.672   4.980   0.389 -1.0831  0.6364  0.5734
  311MOL0     H41048   9.529   4.807   0.185  0.3531  1.2481  0.1835
  311MOL0     H41049   9.655   4.902   0.140 -3.6395  3.8628  0.1592
  311MOL0     H41050   9.794   4.568   0.363 -1.5210  0.1636 -0.1326
  311MOL0     H41051   9.138   4.978   0.202 -0.9141 -0.4084 -1.2399
  311MOL0     H41052   8.910   4.986   0.129 -0.2478 -0.5892  0.1402
  312MOL0     O41053   3.138   5.928   0.745  0.0031 -0.2267  0.1090
  312MOL0     C41054   3.031   5.938   0.803  0.3167  1.2054 -0.1575
  312MOL0     O41055   2.980   6.051   0.877 -0.0150  0.5660 -0.3772
  312MOL0     C41056   3.039   6.175   0.846  0.3537  0.4921  0.5045
  312MOL0     C41057   2.955   6.267   0.793 -0.1785 -0.5493 -0.9654
  312MOL0     C41058   3.009   6.392   0.758 -0.1236 -0.2189 -0.2067
  312MOL0     C41059   3.141   6.428   0.782 -0.1937  1.0239  0.5326
  312MOL0     O41060   3.181   6.551   0.745 -0.0822  0.0908  0.0741
  312MOL0     C41061   3.329   6.589   0.760  0.1681  0.4896 -0.9210
  312MOL0     C41062   3.363   6.719   0.676 -0.6004  1.0380 -0.0182
  312MOL0     C41063   3.302   6.721   0.546  0.1865 -0.0200  0.7319
  312MOL0     C41064   3.340   6.824   0.446  0.6912  0.5010  0.6794
  312MOL0     C41065   3.239   6.841   0.327 -0.2524 -0.0626  1.0938
  312MOL0     C41066   3.288   6.958   0.233 -1.1916 -0.3734 -0.0388
  312MOL0     C41067   3.199   6.962   0.107  0.1275 -0.5046  0.3671
  312MOL0     C41068   3.236   7.077   0.015 -0.8530 -0.2598 -2.3803
  312MOL0     N41069   3.367   7.058  -0.041 -0.0494 -0.5415 -0.8861
  312MOL0     C41070   3.483   7.103   0.017 -1.3229  0.0072 -0.4471
  312MOL0     C41071   3.583   7.070  -0.075  0.1973 -0.5259 -0.4277
  312MOL0     C41072   3.737   7.068  -0.065  0.3236  0.4220 -0.2593
  312MOL0     C41073   3.807   7.155  -0.174 -0.5884 -0.3606 -0.4480
  312MOL0     C41074   3.939   7.105  -0.234 -0.2996 -0.1080 -0.1146
  312MOL0     C41075   4.062   7.131  -0.146  0.1908 -0.3733  0.0576
  312MOL0     O41076   4.035   7.091  -0.011  0.4382 -0.1986 -0.2065
  312MOL0     C41077   4.136   7.098   0.082 -0.1386 -0.7498 -0.6815
  312MOL0     C41078   4.106   7.079   0.226  0.8852  0.4221  0.1908
  312MOL0     C41079   4.208   7.081   0.318 -0.2029  0.1597  0.7162
  312MOL0     C41080   4.341   7.108   0.277 -0.7065  0.5989  0.1846
  312MOL0     C41081   4.452   7.115   0.369  0.3741 -0.0369  0.2040
  312MOL0     O41082   4.416   7.086   0.500  0.8734 -0.3693  0.4262
  312MOL0     C41083   4.496   7.096   0.607 -0.5929 -0.1125  0.5316
  312MOL0     C41084   4.588   7.201   0.636  1.5506 -0.2604 -0.3130
  312MOL0     C41085   4.674   7.195   0.731 -0.7515  0.5400  0.0669
  312MOL0     C41086   4.678   7.086   0.823  0.3993  0.9542  0.0401
  312MOL0     O41087   4.779   7.083   0.917  0.1838  0.3368 -1.0403
  312MOL0     C41088   4.835   6.959   0.951 -0.9311 -0.4506 -0.3122
  312MOL0     C41089   4.973   6.980   1.005  0.1598 -0.2810  0.5378
  312MOL0     C41090   5.095   7.004   0.910 -0.3365  0.3259  0.1202
  312MOL0     C41091   5.227   7.005   0.976 -0.3163 -1.1656  0.1033
  312MOL0     C41092   5.250   7.103   1.097 -0.1608  0.7432 -0.5373
  312MOL0     C41093   5.392   7.116   1.136  1.0675 -0.3624 -0.2630
  312MOL0     C41094   5.467   6.991   1.186  0.3422  0.8126 -0.1693
  312MOL0     C41095   5.536   6.910   1.069 -0.2896  0.1866  0.6701
  312MOL0    Cl41096   5.677   6.811   1.133 -0.0069  0.2208  0.0646
  312MOL0     C41097   4.583   6.977   0.803  0.1634  0.6228  0.8024
  312MOL0     C41098   4.490   6.984   0.698 -0.9694  0.1844  0.1196
  312MOL0     O41099   4.554   7.160   0.324 -0.2200  0.4719 -0.1465
  312MOL0     C41100   4.364   7.140   0.147 -0.7688  0.9545  0.2317
  312MOL0     C41101   4.264   7.138   0.051  0.0899 -0.3128 -0.4632
  312MOL0     N41102   3.521   7.022  -0.185 -1.1618  0.1829 -0.1853
  312MOL0     N41103   3.394   7.014  -0.165 -0.1793 -0.0892 -0.4520
  312MOL0     C41104   3.216   6.338   0.845 -0.3307 -0.4662 -0.5445
  312MOL0     C41105   3.174   6.206   0.867  0.0602  0.5079  0.5066
  312MOL0     C41106   2.959   5.801   0.816 -0.3910  0.4464  0.0887
  312MOL0     C41107   2.835   5.799   0.882 -0.0294 -1.0717 -0.0145
  312MOL0     C41108   2.752   5.689   0.872 -0.0629  0.0565 -0.2159
  312MOL0     C41109   2.801   5.562   0.830 -1.0678 -0.2345  0.7643
  312MOL0     O41110   2.727   5.448   0.831 -0.3564  0.3204 -0.5337
  312MOL0     C41111   2.601   5.455   0.898  0.8603  0.2565 -0.2712
  312MOL0     C41112   2.535   5.312   0.886  0.4965 -0.2834 -0.6777
  312MOL0     C41113   2.394   5.294   0.939 -0.0309 -0.7714 -0.3609
  312MOL0     C41114   2.405   5.257   1.095  0.9040 -0.0823  0.2170
  312MOL0     C41115   2.289   5.309   1.170  0.0263 -0.9533 -0.1924
  312MOL0     C41116   2.196   5.357   1.229  0.5524 -0.3831  0.4919
  312MOL0     C41117   2.930   5.570   0.770  0.5984  0.7030  0.1783
  312MOL0     C41118   3.012   5.682   0.756 -0.2656 -0.1938  0.2445
  312MOL0     H41119   2.850   6.239   0.792 -0.1288 -0.9355  0.9462
  312MOL0     H41120   2.952   6.467   0.704 -1.5577 -0.4352  0.9707
  312MOL0     H41121   3.373   6.500   0.714 -1.0889 -1.0453  0.7113
  312MOL0     H41122   3.368   6.598   0.862 -1.1795  0.8136 -0.4108
  312MOL0     H41123   3.472   6.727   0.676  0.0055 -3.4207 -3.4077
  312MOL0     H41124   3.328   6.800   0.740  6.2174  3.7036  1.1957
  312MOL0     H41125   3.195   6.743   0.553  0.5309  3.0110 -1.5782
  312MOL0     H41126   3.311   6.624   0.497 -4.4384  0.0004 -0.6279
  312MOL0     H41127   3.346   6.920   0.497 -1.8983  0.8917  0.3854
  312MOL0     H41128   3.441   6.806   0.410 -0.1008 -0.0336 -1.4061
  312MOL0     H41129   3.139   6.862   0.365 -1.0624  0.4607 -1.1638
  312MOL0     H41130   3.231   6.749   0.269 -0.4199  1.0493 -0.7449
  312MOL0     H41131   3.391   6.943   0.200 -1.2052 -0.0851 -0.2122
  312MOL0     H41132   3.286   7.053   0.287 -1.5790 -0.8445  0.8005
  312MOL0     H41133   3.208   6.873   0.045  0.7306  3.0316 -5.2993
  312MOL0     H41134   3.093   6.967   0.134 -0.5109  2.9831 -2.1403
  312MOL0     H41135   3.236   7.167   0.078 -1.7735  0.3638 -3.2492
  312MOL0     H41136   3.174   7.101  -0.071  1.2966  1.2525 -3.5936
  312MOL0     H41137   3.482   7.147   0.116 -3.1150 -0.4121 -0.2395
  312MOL0     H41138   3.763   6.963  -0.084  0.0309  0.1046  1.0170
  312MOL0     H41139   3.769   7.096   0.036 -0.4666 -0.5761  0.2915
  312MOL0     H41140   3.832   7.257  -0.144 -1.5262  0.1326 -1.3079
  312MOL0     H41141   3.744   7.174  -0.261  0.0401  0.8465 -0.6534
  312MOL0     H41142   3.924   6.997  -0.241  1.0752 -0.4326  1.2559
  312MOL0     H41143   3.941   7.154  -0.332  0.4778  2.5327  1.1380
  312MOL0     H41144   4.090   7.237  -0.143 -1.0140 -0.0576  0.5417
  312MOL0     H41145   4.158   7.087  -0.177  2.9335  2.1644  3.9052
  312MOL0     H41146   4.001   7.075   0.253  1.5309  0.0280  2.9480
  312MOL0     H41147   4.180   7.073   0.422 -0.0593  1.3507  0.8588
  312MOL0     H41148   4.592   7.289   0.573  2.2668 -0.4871 -0.5901
  312MOL0     H41149   4.749   7.273   0.740 -2.0841  1.7326  1.2213
  312MOL0     H41150   4.849   6.890   0.868 -4.1655  0.3749 -1.6843
  312MOL0     H41151   4.772   6.917   1.030  1.5817 -4.6506 -0.2064
  312MOL0     H41152   4.995   6.901   1.077  0.0109  1.7835  3.0168
  312MOL0     H41153   4.957   7.074   1.059 -2.6169 -0.0019 -0.5946
  312MOL0     H41154   5.084   7.091   0.844 -0.6862 -0.3808 -0.7563
  312MOL0     H41155   5.088   6.922   0.839 -0.0489 -0.5750  1.1037
  312MOL0     H41156   5.248   6.908   1.022  3.1358 -1.0231 -0.8827
  312MOL0     H41157   5.310   7.023   0.906  4.3735 -0.2490  5.2260
  312MOL0     H41158   5.185   7.061   1.174 -0.1631 -1.7559 -1.7820
  312MOL0     H41159   5.215   7.199   1.058  1.0949  0.7773 -1.7044
  312MOL0     H41160   5.386   7.193   1.213 -0.6195 -0.3651 -0.3622
  312MOL0     H41161   5.461   7.155   1.060  1.5796  1.3796  1.0241
  312MOL0     H41162   5.546   7.022   1.255 -1.4788 -1.0269  2.9752
  312MOL0     H41163   5.402   6.923   1.241  0.0598  0.7632 -0.5645
  312MOL0     H41164   5.569   6.978   0.990 -1.8397  0.5071  0.2575
  312MOL0     H41165   5.463   6.847   1.018 -1.1943  1.3206  0.5313
  312MOL0     H41166   4.578   6.898   0.877  1.2346  2.7738  3.3371
  312MOL0     H41167   4.433   6.894   0.676 -0.7322  0.1995 -0.6000
  312MOL0     H41168   4.461   7.163   0.106 -1.4964 -0.6348 -2.6472
  312MOL0     H41169   4.286   7.170  -0.050 -2.7093 -1.2145 -1.4423
  312MOL0     H41170   3.316   6.358   0.881 -1.0899  1.3576  0.6630
  312MOL0     H41171   3.243   6.131   0.905 -0.8526 -1.4316 -1.4246
  312MOL0     H41172   2.801   5.896   0.916 -0.4114 -0.4969 -1.9719
  312MOL0     H41173   2.649   5.699   0.903 -0.8708 -1.0385 -2.3262
  312MOL0     H41174   2.535   5.531   0.855 -0.2358 -0.1573  0.6273
  312MOL0     H41175   2.606   5.489   1.002 -5.2186  0.9829  0.1669
  312MOL0     H41176   2.537   5.286   0.779  2.1052 -2.7058 -0.1344
  312MOL0     H41177   2.590   5.230   0.932 -0.3389 -0.9093 -0.7646
  312MOL0     H41178   2.349   5.213   0.880 -0.4030  1.0957 -2.7976
  312MOL0     H41179   2.342   5.387   0.915  0.4548 -1.2225 -3.6840
  312MOL0     H41180   2.399   5.150   1.116 -0.0020 -0.2279 -0.7363
  312MOL0     H41181   2.498   5.297   1.138  1.0493 -1.1348  0.9109
  312MOL0     H41182   2.124   5.415   1.283 -1.5824  0.9133 -3.3309
  312MOL0     H41183   2.944   5.473   0.725  1.5968  0.7604  0.3384
  312MOL0     H41184   3.100   5.677   0.693 -0.2580  0.3051  0.2143
  313MOL0     O41185  10.908   7.951   9.482 -0.3748  1.0457  0.0303
  313MOL0     C41186  10.962   7.950   9.596 -0.5121 -0.0690  1.1799
  313MOL0     O41187  11.072   8.029   9.635  0.0037 -0.3370 -0.0705
  313MOL0     C41188  11.109   8.143   9.565  0.2838 -0.9965  0.2853
  313MOL0     C41189  11.013   8.236   9.513 -0.4352  0.6942 -0.3476
  313MOL0     C41190  11.049   8.360   9.450  0.3978 -0.6750  0.2595
  313MOL0     C41191  11.184   8.389   9.449  0.5333 -0.0985  0.5955
  313MOL0     O41192  11.211   8.506   9.376 -0.2734  0.3695 -0.0360
  313MOL0     C41193  11.308   8.598   9.424  0.2247  0.6580 -0.9298
  313MOL0     C41194  11.379   8.665   9.308 -0.1867  0.0094  1.0700
  313MOL0     C41195  11.303   8.788   9.249  0.3812 -0.1755  0.0277
  313MOL0     C41196  11.364   8.841   9.119  1.4887  0.3328 -0.1268
  313MOL0     C41197  11.291   8.957   9.044 -0.3348 -0.2497 -0.2454
  313MOL0     C41198  11.277   9.074   9.140 -0.6253 -0.0107  0.1982
  313MOL0     C41199  11.247   9.209   9.071  0.1311 -0.5429  0.4633
  313MOL0     C41200  11.265   9.339   9.165  0.1799 -0.3763  0.4394
  313MOL0     N41201  11.234   9.450   9.074 -0.5339  0.6242  0.5842
  313MOL0     C41202  11.113   9.479   9.011  0.1147 -0.4750  0.4701
  313MOL0     C41203  11.136   9.599   8.952  1.0754 -0.2668  1.0311
  313MOL0     C41204  11.023   9.656   8.864  0.0924  0.4536  0.2188
  313MOL0     C41205  10.894   9.695   8.937  0.7673 -0.0717 -0.5039
  313MOL0     C41206  10.854   9.841   8.921 -0.5943  0.5115  1.4535
  313MOL0     C41207  10.756   9.862   8.804  0.2596 -0.8733 -0.3655
  313MOL0     O41208  10.809   9.822   8.678 -0.5108  1.0301 -0.6810
  313MOL0     C41209  10.825   9.919   8.586  0.6234 -0.1424  0.6401
  313MOL0     C41210  10.710   9.982   8.535  0.4678  0.1202 -0.4402
  313MOL0     C41211  10.725  10.086   8.443 -0.5565 -0.1759 -0.3052
  313MOL0     C41212  10.856  10.135   8.425  0.0383  0.0064  0.7918
  313MOL0     C41213  10.856  10.264   8.338 -1.3901 -0.3067  0.0188
  313MOL0     O41214  10.973  10.339   8.345  0.5765  0.0740 -0.3320
  313MOL0     C41215  11.000  10.458   8.284  0.5299 -0.5372  0.2746
  313MOL0     C41216  11.127  10.502   8.294 -0.5488  0.2075 -0.1564
  313MOL0     C41217  11.182  10.603   8.220 -0.5777 -0.1451 -0.0581
  313MOL0     C41218  11.094  10.683   8.142  0.3527 -0.0686  1.0729
  313MOL0     O41219  11.135  10.782   8.052  0.0326  0.2886 -0.0121
  313MOL0     C41220  11.266  10.754   7.987  0.3546 -0.3823 -0.0239
  313MOL0     C41221  11.372  10.826   8.061 -0.4768 -1.4209  0.7137
  313MOL0     C41222  11.421  10.955   7.984  0.8228  0.1487  0.8641
  313MOL0     C41223  11.529  10.928   7.874 -0.2456 -0.4908  0.1046
  313MOL0     C41224  11.615  11.048   7.822  0.4934 -0.1812  0.5913
  313MOL0     C41225  11.736  11.084   7.902 -0.8610  1.0522 -1.2639
  313MOL0     C41226  11.793  11.223   7.877 -0.4485  0.5898  0.1516
  313MOL0     C41227  11.788  11.262   7.719 -0.3919 -0.1713 -0.8406
  313MOL0    Cl41228  11.885  11.414   7.695 -0.5274  0.3704 -0.5770
  313MOL0     C41229  10.963  10.646   8.131  1.1100 -0.3735 -0.8509
  313MOL0     C41230  10.910  10.534   8.208 -0.7706 -0.2841  0.7502
  313MOL0     O41231  10.761  10.291   8.272 -0.1555 -0.1009  0.5921
  313MOL0     C41232  10.972  10.076   8.475  0.9457  0.1160  0.3952
  313MOL0     C41233  10.956   9.957   8.550 -1.3972  0.4432 -0.4188
  313MOL0     N41234  11.256   9.650   8.994  0.3221  0.7427 -1.0203
  313MOL0     N41235  11.317   9.562   9.064 -0.6241  0.6056 -0.0184
  313MOL0     C41236  11.286   8.304   9.501 -0.3428 -0.1553  0.1317
  313MOL0     C41237  11.247   8.183   9.553  0.3330  0.0812  0.6053
  313MOL0     C41238  10.914   7.861   9.695  0.4701  0.7596  0.2635
  313MOL0     C41239  10.803   7.778   9.677  0.7451 -0.7368 -0.1289
  313MOL0     C41240  10.746   7.709   9.790 -0.7346  0.4195  0.6717
  313MOL0     C41241  10.810   7.704   9.915  0.6616 -0.0026  0.9669
  313MOL0     O41242  10.762   7.630  10.026  0.1757 -0.4876 -0.8941
  313MOL0     C41243  10.771   7.687  10.160  0.3336  0.4023  0.1714
  313MOL0     C41244  10.620   7.682  10.211  0.6939 -0.0371 -0.3351
  313MOL0     C41245  10.507   7.746  10.122 -0.3886 -0.3972 -0.0306
  313MOL0     C41246  10.503   7.900  10.150 -0.3795  0.1919  0.3827
  313MOL0     C41247  10.419   7.979  10.062  0.2453  0.0720  0.3571
  313MOL0     C41248  10.341   8.030   9.988  0.3720 -0.5087  0.3126
  313MOL0     C41249  10.932   7.775   9.917 -0.3286  0.1887  0.6694
  313MOL0     C41250  10.985   7.851   9.819 -0.1333 -0.6503  0.6515
  313MOL0     H41251  10.906   8.219   9.525 -0.2986  1.0678  1.7469
  313MOL0     H41252  10.978   8.431   9.410  1.3416  0.6918  0.9077
  313MOL0     H41253  11.382   8.546   9.486 -2.9085 -0.9090  1.8340
  313MOL0     H41254  11.269   8.677   9.489  3.1143  0.7831  0.8375
  313MOL0     H41255  11.395   8.593   9.227  1.3615 -1.7007  2.7917
  313MOL0     H41256  11.476   8.708   9.335  0.7428  0.9949 -3.0548
  313MOL0     H41257  11.308   8.872   9.319 -1.8169  1.9012 -2.1368
  313MOL0     H41258  11.198   8.765   9.230  0.6411  0.9528 -3.6803
  313MOL0     H41259  11.469   8.868   9.127  1.7939 -0.9506  0.3428
  313MOL0     H41260  11.359   8.756   9.050 -2.5665  1.9123 -2.1275
  313MOL0     H41261  11.195   8.932   8.997 -0.4368  0.3462 -0.3619
  313MOL0     H41262  11.361   8.980   8.963 -1.4898  1.0331 -0.9167
  313MOL0     H41263  11.362   9.078   9.208 -2.6585  0.5081  2.8679
  313MOL0     H41264  11.195   9.052   9.208 -1.1221 -1.7853 -0.8892
  313MOL0     H41265  11.309   9.211   8.980 -2.1425 -0.2882 -1.1532
  313MOL0     H41266  11.146   9.196   9.032  0.3112 -2.6051  0.5578
  313MOL0     H41267  11.363   9.345   9.214  0.8141  3.4389 -0.9814
  313MOL0     H41268  11.193   9.331   9.247  0.9404 -0.5655  1.0997
  313MOL0     H41269  11.028   9.411   9.003 -0.1977  0.0315 -0.8333
  313MOL0     H41270  11.000   9.572   8.798 -1.1206  1.1794 -0.3092
  313MOL0     H41271  11.072   9.736   8.807  2.9229 -0.4095  1.2565
  313MOL0     H41272  10.906   9.678   9.044  2.3396  0.0811 -0.6361
  313MOL0     H41273  10.800   9.650   8.904 -1.0029  1.6936  1.7578
  313MOL0     H41274  10.806   9.868   9.015 -1.8216 -1.7074  1.5269
  313MOL0     H41275  10.939   9.910   8.917  0.4427 -0.6241 -3.4704
  313MOL0     H41276  10.714   9.963   8.805  3.5326  0.7405  3.2091
  313MOL0     H41277  10.666   9.801   8.816 -0.4012  0.3031  0.7932
  313MOL0     H41278  10.609   9.954   8.561  1.3143 -2.7948  0.0980
  313MOL0     H41279  10.637  10.128   8.397  1.0551  0.6766 -2.8562
  313MOL0     H41280  11.195  10.441   8.353  0.8607  0.7523 -1.1667
  313MOL0     H41281  11.290  10.607   8.207 -0.6594  0.5643 -0.6459
  313MOL0     H41282  11.266  10.800   7.888  1.6443 -2.8378 -1.2478
  313MOL0     H41283  11.287  10.648   7.969 -0.8242 -0.7917  0.9039
  313MOL0     H41284  11.459  10.762   8.077  0.8121 -0.1290 -0.7173
  313MOL0     H41285  11.342  10.855   8.162  2.8806  1.8966  0.9848
  313MOL0     H41286  11.480  11.008   8.060  4.8864 -3.0087  0.2382
  313MOL0     H41287  11.338  11.012   7.940  0.6729 -1.8212 -1.6212
  313MOL0     H41288  11.598  10.852   7.912 -0.4356  0.8766  3.6509
  313MOL0     H41289  11.464  10.898   7.791  0.5477  0.4645 -0.8894
  313MOL0     H41290  11.557  11.140   7.812  2.7379  1.2820  0.1478
  313MOL0     H41291  11.646  11.016   7.721 -2.3764  1.3295 -0.8938
  313MOL0     H41292  11.815  11.010   7.884 -1.5224 -0.0016 -0.0278
  313MOL0     H41293  11.709  11.081   8.008  4.6929 -0.9855  0.4699
  313MOL0     H41294  11.742  11.306   7.926 -2.1416 -0.9613  1.1697
  313MOL0     H41295  11.899  11.215   7.904 -0.7357  0.2042  1.2600
  313MOL0     H41296  11.687  11.262   7.677 -1.4859 -1.2875  1.6053
  313MOL0     H41297  11.843  11.192   7.656 -3.1870 -2.1352 -1.2876
  313MOL0     H41298  10.897  10.711   8.074  0.6137 -1.4848 -1.6045
  313MOL0     H41299  10.808  10.501   8.193  0.2268 -1.8150 -5.5594
  313MOL0     H41300  11.071  10.118   8.455  0.8376  0.4755  0.6078
  313MOL0     H41301  11.037   9.904   8.599 -3.1507 -1.7779  0.2793
  313MOL0     H41302  11.392   8.316   9.486 -0.6331  0.4987 -1.5965
  313MOL0     H41303  11.331   8.118   9.578  0.6231  0.2530  0.1000
  313MOL0     H41304  10.754   7.787   9.581  0.6373 -0.5182 -0.0544
  313MOL0     H41305  10.661   7.644   9.774  1.1413 -2.8414  2.8084
  313MOL0     H41306  10.792   7.794  10.145 -0.9638  0.5193 -1.0233
  313MOL0     H41307  10.819   7.632  10.241 -3.3944 -0.4611  1.9944
  313MOL0     H41308  10.594   7.578  10.236  1.9972  0.4981  4.1325
  313MOL0     H41309  10.631   7.744  10.301  1.3719  0.6303 -0.8670
  313MOL0     H41310  10.412   7.709  10.161  0.6579  0.7044  4.0179
  313MOL0     H41311  10.522   7.733  10.014 -1.7497  0.7530 -0.3858
  313MOL0     H41312  10.483   7.917  10.257  2.2468 -0.4322  1.0235
  313MOL0     H41313  10.603   7.940  10.131 -0.8398  0.4277 -1.7148
  313MOL0     H41314  10.257   8.059   9.928 -0.9705 -0.1031  2.2796
  313MOL0     H41315  10.998   7.767  10.003  0.7798 -1.1354 -0.2469
  313MOL0     H41316  11.079   7.900   9.842  1.8920 -1.7824 -3.9844
  314MOL0     O41317   4.153   2.063   9.024 -0.5081  0.0372 -0.3170
  314MOL0     C41318   4.081   2.134   8.957  0.0075 -0.3314  0.3514
  314MOL0     O41319   4.128   2.231   8.870 -0.3123 -0.0999 -0.1064
  314MOL0     C41320   4.260   2.260   8.866 -1.0012 -0.1688  0.0801
  314MOL0     C41321   4.338   2.274   8.985 -0.4077 -0.5890  0.3999
  314MOL0     C41322   4.468   2.319   8.979 -0.2806  0.8285 -0.4852
  314MOL0     C41323   4.542   2.313   8.862 -0.5944  0.2799 -1.3832
  314MOL0     O41324   4.680   2.326   8.875 -0.2272 -0.5024  0.8597
  314MOL0     C41325   4.741   2.414   8.780 -0.2376 -0.1179  0.5719
  314MOL0     C41326   4.847   2.502   8.840  0.8262 -0.8497  0.3075
  314MOL0     C41327   4.835   2.650   8.800  0.4857  0.2730 -0.0588
  314MOL0     C41328   4.939   2.749   8.869  0.1447  0.5066  0.2438
  314MOL0     C41329   4.884   2.886   8.818  0.5550 -0.8248  0.0645
  314MOL0     C41330   4.979   2.997   8.880 -0.1039  0.7728  0.0874
  314MOL0     C41331   4.941   3.140   8.840 -0.5353 -1.0831  0.2411
  314MOL0     C41332   4.993   3.260   8.921  0.8126  0.1668  0.2487
  314MOL0     N41333   5.137   3.275   8.928 -0.2295  0.6134  0.1209
  314MOL0     C41334   5.218   3.232   9.039  0.0822 -0.4110  0.3602
  314MOL0     C41335   5.339   3.291   9.024 -0.8848 -0.5768  0.0185
  314MOL0     C41336   5.444   3.287   9.128 -0.4598 -0.4474  0.1077
  314MOL0     C41337   5.549   3.188   9.088 -0.9656  0.5221 -0.0396
  314MOL0     C41338   5.603   3.227   8.948 -0.1640  0.2327  0.3345
  314MOL0     C41339   5.750   3.180   8.936  0.5162  0.1190 -0.0918
  314MOL0     O41340   5.832   3.244   9.042 -0.4859 -0.4107 -0.9443
  314MOL0     C41341   5.965   3.217   9.025 -0.2952  0.2600  0.3338
  314MOL0     C41342   6.049   3.292   9.103  0.6115  0.3190 -0.2360
  314MOL0     C41343   6.189   3.277   9.090 -0.2268  0.7909 -0.3223
  314MOL0     C41344   6.239   3.182   8.993 -0.5234 -0.3096 -0.0963
  314MOL0     C41345   6.388   3.166   8.979 -0.3213 -0.5525  0.2793
  314MOL0     O41346   6.426   3.159   8.846 -0.0226 -0.4486  0.1624
  314MOL0     C41347   6.545   3.103   8.826 -0.6486  0.4795 -0.0853
  314MOL0     C41348   6.672   3.144   8.874 -0.0117 -0.3647  0.3479
  314MOL0     C41349   6.784   3.080   8.816  0.8264  0.9089 -0.6412
  314MOL0     C41350   6.780   2.972   8.733 -1.2908 -0.7521  0.9286
  314MOL0     O41351   6.894   2.902   8.694 -0.5336 -0.2156  0.4139
  314MOL0     C41352   7.028   2.955   8.705 -1.0334 -0.7844  0.1267
  314MOL0     C41353   7.078   2.959   8.847 -0.1474  0.3737  0.2764
  314MOL0     C41354   7.230   2.934   8.858  0.4507  0.2470  0.1135
  314MOL0     C41355   7.263   2.915   9.005  0.0912 -0.2242 -0.2892
  314MOL0     C41356   7.412   2.924   9.027 -0.4020  0.8779  0.4457
  314MOL0     C41357   7.486   2.818   8.940  0.3172 -0.9947  1.3125
  314MOL0     C41358   7.473   2.679   9.001  1.0314 -0.2585  0.3490
  314MOL0     C41359   7.537   2.577   8.905 -0.0248 -0.5410  0.2022
  314MOL0    Cl41360   7.449   2.564   8.743  0.1850 -0.2087  0.0819
  314MOL0     C41361   6.656   2.938   8.695  0.0292 -0.0306 -0.2742
  314MOL0     C41362   6.540   2.994   8.735 -0.3963 -0.4690 -0.2654
  314MOL0     O41363   6.452   3.148   9.079  0.1412  0.1231 -0.0680
  314MOL0     C41364   6.149   3.126   8.899 -0.3394 -1.0448 -0.7317
  314MOL0     C41365   6.017   3.144   8.913 -0.1092 -0.0476 -0.1084
  314MOL0     N41366   5.336   3.370   8.919  1.0668  0.6325 -0.2237
  314MOL0     N41367   5.212   3.365   8.870 -0.1496  0.2708 -0.0737
  314MOL0     C41368   4.463   2.305   8.743 -1.2640 -0.0049  0.0825
  314MOL0     C41369   4.324   2.286   8.747  0.6354 -0.0706  1.0546
  314MOL0     C41370   3.940   2.107   8.948 -0.1976  0.6248  0.6251
  314MOL0     C41371   3.873   2.009   9.023 -0.0757 -0.8035  0.3455
  314MOL0     C41372   3.735   2.005   9.023 -0.3827 -0.3230  0.5227
  314MOL0     C41373   3.661   2.099   8.953 -0.5388  0.0379 -0.2149
  314MOL0     O41374   3.530   2.107   8.986  0.1482 -0.9676 -0.0307
  314MOL0     C41375   3.440   2.172   8.902  0.4188  0.0028 -0.6292
  314MOL0     C41376   3.304   2.098   8.916  0.0267 -0.2468 -0.5691
  314MOL0     C41377   3.205   2.177   8.996  0.1761 -0.5092 -0.2393
  314MOL0     C41378   3.201   2.155   9.150  0.4365 -0.3601 -0.2079
  314MOL0     C41379   3.113   2.047   9.191  0.2465  0.0326 -0.1654
  314MOL0     C41380   3.052   1.949   9.216 -0.1542 -0.6720 -0.3259
  314MOL0     C41381   3.721   2.184   8.863 -0.3300 -0.5139  1.1057
  314MOL0     C41382   3.866   2.195   8.864 -0.2471  0.9483 -0.0078
  314MOL0     H41383   4.306   2.253   9.086 -0.7575  0.0640  0.4340
  314MOL0     H41384   4.522   2.321   9.073  0.2252  0.6785 -0.7666
  314MOL0     H41385   4.672   2.469   8.716 -0.8257 -0.1149  1.1874
  314MOL0     H41386   4.793   2.348   8.711  2.5984 -0.7081  3.0300
  314MOL0     H41387   4.943   2.461   8.805  0.0145 -1.7236 -0.9929
  314MOL0     H41388   4.837   2.478   8.947 -1.2086  1.4379  0.6996
  314MOL0     H41389   4.732   2.681   8.818 -1.1237 -3.3979 -1.9708
  314MOL0     H41390   4.860   2.657   8.693  0.5738 -0.4814 -0.0890
  314MOL0     H41391   4.937   2.749   8.978 -1.7412 -2.7215  0.3709
  314MOL0     H41392   5.042   2.728   8.840  1.6132  0.0094  4.9724
  314MOL0     H41393   4.783   2.894   8.859  0.6988 -1.0175  0.4550
  314MOL0     H41394   4.877   2.893   8.709 -1.5793 -0.8228  0.1670
  314MOL0     H41395   5.075   2.963   8.839 -2.6684 -5.5843 -1.9377
  314MOL0     H41396   4.991   3.000   8.988  1.3350  3.8819 -0.0320
  314MOL0     H41397   4.971   3.159   8.736 -0.7746 -0.7496  0.2292
  314MOL0     H41398   4.833   3.147   8.856 -0.8074 -2.8360 -0.5513
  314MOL0     H41399   4.962   3.243   9.024  0.2654  1.3323  0.2921
  314MOL0     H41400   4.940   3.350   8.890 -0.5791 -1.8724 -4.1141
  314MOL0     H41401   5.185   3.169   9.122 -1.6397 -0.5438 -0.3792
  314MOL0     H41402   5.405   3.256   9.225  2.2289 -1.9375  0.8215
  314MOL0     H41403   5.484   3.389   9.135  0.6009 -0.9410  1.8077
  314MOL0     H41404   5.506   3.088   9.088 -1.9771  0.9293  1.8531
  314MOL0     H41405   5.625   3.199   9.165  0.6804 -1.8638 -1.1802
  314MOL0     H41406   5.546   3.179   8.868  2.2670 -0.5150 -1.0326
  314MOL0     H41407   5.601   3.336   8.936 -0.6656  0.0471 -1.6533
  314MOL0     H41408   5.785   3.207   8.836 -1.0499 -1.6285 -1.1942
  314MOL0     H41409   5.770   3.073   8.948  0.1890  0.1964  1.2048
  314MOL0     H41410   6.024   3.369   9.175  1.0730 -1.2125  1.6722
  314MOL0     H41411   6.243   3.323   9.172 -2.0993  0.3712  1.2393
  314MOL0     H41412   6.685   3.220   8.950 -0.5055 -0.6538  0.7268
  314MOL0     H41413   6.882   3.115   8.847  0.4389  1.0058  0.4995
  314MOL0     H41414   7.050   3.054   8.663 -1.1280 -0.9627 -0.3512
  314MOL0     H41415   7.091   2.891   8.643  1.2041  0.9303  0.5037
  314MOL0     H41416   7.031   2.878   8.905 -0.4590  0.4259  0.0986
  314MOL0     H41417   7.063   3.059   8.889 -1.1611  1.9647 -3.4576
  314MOL0     H41418   7.277   3.015   8.801 -3.3715  1.3558 -1.8182
  314MOL0     H41419   7.245   2.836   8.813 -1.3475 -0.1109  0.2317
  314MOL0     H41420   7.215   3.003   9.049 -0.3435  0.4638 -2.0439
  314MOL0     H41421   7.217   2.821   9.038 -0.5484 -0.9824 -3.0907
  314MOL0     H41422   7.454   2.908   9.127  0.2011  1.4608  0.2993
  314MOL0     H41423   7.441   3.025   8.998 -0.1626 -0.1560 -3.4567
  314MOL0     H41424   7.593   2.841   8.939  0.5645 -2.0215  2.5431
  314MOL0     H41425   7.471   2.835   8.833  0.0806  0.8780  1.6135
  314MOL0     H41426   7.523   2.697   9.097  1.7892  1.8291 -0.3617
  314MOL0     H41427   7.367   2.656   9.003  0.5342  1.7127 -0.5928
  314MOL0     H41428   7.542   2.478   8.952 -1.5771 -1.2826 -1.0751
  314MOL0     H41429   7.644   2.592   8.887 -0.1961 -0.6893 -1.0210
  314MOL0     H41430   6.632   2.882   8.605 -1.6729  4.4552 -2.9323
  314MOL0     H41431   6.453   2.967   8.676 -2.7252  3.4386  1.0157
  314MOL0     H41432   6.180   3.058   8.820  0.3711 -1.0357 -0.4664
  314MOL0     H41433   5.954   3.085   8.848 -2.7935  3.5857 -1.1156
  314MOL0     H41434   4.498   2.312   8.641  1.1850  1.2137  0.9287
  314MOL0     H41435   4.273   2.289   8.651  2.2764  1.3807  0.1744
  314MOL0     H41436   3.939   1.956   9.090  4.4025  3.9228  0.3194
  314MOL0     H41437   3.688   1.918   9.069  3.1619 -3.1465 -0.7508
  314MOL0     H41438   3.479   2.151   8.802 -0.4758  4.0145 -2.0312
  314MOL0     H41439   3.439   2.281   8.916 -0.2753 -0.1713  0.7540
  314MOL0     H41440   3.264   2.080   8.815  0.1189 -1.0298 -0.4745
  314MOL0     H41441   3.329   1.996   8.948  0.8547 -0.8806 -2.9995
  314MOL0     H41442   3.106   2.165   8.950 -0.0029 -0.3472  0.1014
  314MOL0     H41443   3.237   2.278   8.971 -0.0552 -1.2865 -4.3467
  314MOL0     H41444   3.299   2.134   9.194  0.0875 -3.6592 -0.7067
  314MOL0     H41445   3.148   2.241   9.191 -4.2820 -2.5065 -1.0938
  314MOL0     H41446   2.972   1.877   9.224 -0.1923 -0.5109  0.9550
  314MOL0     H41447   3.666   2.259   8.807  1.6034 -1.6448 -2.5735
  314MOL0     H41448   3.918   2.279   8.820  2.5718  0.3009  1.8042
  315MOL0     O41449  10.659   9.086   3.296 -0.3046 -0.8737  0.6150
  315MOL0     C41450  10.652   9.128   3.181 -0.4002 -0.2536  0.5050
  315MOL0     O41451  10.540   9.187   3.120 -0.8126  0.1567 -0.5291
  315MOL0     C41452  10.413   9.148   3.158 -0.6702 -0.4743 -0.1162
  315MOL0     C41453  10.365   9.013   3.151 -0.1549  0.2069  1.0047
  315MOL0     C41454  10.235   8.992   3.194 -0.2458  0.5031  0.1506
  315MOL0     C41455  10.150   9.091   3.238  0.2976 -0.6783 -0.1316
  315MOL0     O41456  10.024   9.063   3.272  1.0172 -0.0450 -0.1948
  315MOL0     C41457  10.002   8.960   3.366  0.0993 -0.1948  0.6705
  315MOL0     C41458   9.929   8.840   3.308  0.0431  0.2824  0.4895
  315MOL0     C41459   9.801   8.872   3.237  0.6820  0.4188  0.1235
  315MOL0     C41460   9.758   8.753   3.148 -0.2269 -0.0525  0.2933
  315MOL0     C41461   9.623   8.768   3.074  0.5812  0.3278  0.1161
  315MOL0     C41462   9.505   8.791   3.162 -0.7505 -0.5621 -0.4701
  315MOL0     C41463   9.377   8.790   3.097 -0.1526  0.3415  1.0129
  315MOL0     C41464   9.262   8.825   3.195 -0.5198 -0.0085 -0.4924
  315MOL0     N41465   9.131   8.809   3.124 -1.1230  0.2296 -0.3597
  315MOL0     C41466   9.093   8.874   3.003 -0.0363  0.0834 -1.0615
  315MOL0     C41467   8.964   8.829   2.993  0.6172 -0.5567 -0.2807
  315MOL0     C41468   8.882   8.866   2.872 -0.0019 -0.1987  0.2024
  315MOL0     C41469   8.888   8.750   2.771 -1.0871 -0.0664 -1.3576
  315MOL0     C41470   8.806   8.785   2.648 -0.4072  0.4901  0.0073
  315MOL0     C41471   8.820   8.689   2.530 -0.3626  0.1114  0.0221
  315MOL0     O41472   8.753   8.715   2.411 -0.1169 -0.2952 -0.7081
  315MOL0     C41473   8.617   8.692   2.402 -0.6255 -0.4530  0.0578
  315MOL0     C41474   8.558   8.748   2.290 -0.1666 -0.6039 -0.7718
  315MOL0     C41475   8.422   8.723   2.262 -0.2379 -0.6562  0.2204
  315MOL0     C41476   8.342   8.641   2.347  0.5096  0.4430 -0.3783
  315MOL0     C41477   8.207   8.594   2.304 -0.1728  1.0161 -1.3126
  315MOL0     O41478   8.199   8.565   2.170  0.2839  0.2785 -0.4935
  315MOL0     C41479   8.086   8.567   2.099 -0.4518  1.3603 -0.5997
  315MOL0     C41480   7.958   8.601   2.139 -0.5968 -0.3366 -0.7687
  315MOL0     C41481   7.854   8.593   2.051  0.0101 -1.0650  0.1624
  315MOL0     C41482   7.866   8.538   1.921 -0.4176  0.7462 -0.6301
  315MOL0     O41483   7.758   8.515   1.841  0.8481  1.0539  0.1632
  315MOL0     C41484   7.754   8.380   1.780  0.7530  0.9525 -0.2183
  315MOL0     C41485   7.609   8.365   1.721  0.3357  0.0216  0.4869
  315MOL0     C41486   7.570   8.236   1.661 -0.0723  0.5591  0.4632
  315MOL0     C41487   7.595   8.114   1.750  0.8148  0.1287  0.7407
  315MOL0     C41488   7.498   7.991   1.700  1.0359 -0.7105 -0.0173
  315MOL0     C41489   7.429   7.919   1.815  0.0528 -0.0513 -0.4545
  315MOL0     C41490   7.324   7.807   1.773 -1.1404 -0.2583  0.9240
  315MOL0     C41491   7.190   7.875   1.743 -0.2774  0.2709 -0.0037
  315MOL0    Cl41492   7.157   7.869   1.554  0.3541  0.2877  0.0766
  315MOL0     C41493   7.996   8.491   1.888 -0.1857 -0.2328  0.5013
  315MOL0     C41494   8.108   8.512   1.972  0.6543  0.4264 -0.2373
  315MOL0     O41495   8.118   8.579   2.395  0.0011  0.4185 -0.2832
  315MOL0     C41496   8.400   8.604   2.476 -0.1449 -0.4643  0.4814
  315MOL0     C41497   8.536   8.630   2.502  0.7643  0.1620  0.9151
  315MOL0     N41498   8.929   8.755   3.106  0.4994  0.4601  0.0134
  315MOL0     N41499   9.027   8.751   3.192 -0.4207 -0.1904 -0.4629
  315MOL0     C41500  10.188   9.225   3.234 -0.6679  0.1358  0.1126
  315MOL0     C41501  10.327   9.253   3.198  0.7043 -0.0151  0.2690
  315MOL0     C41502  10.770   9.113   3.089 -0.2896  0.4362  0.1060
  315MOL0     C41503  10.891   9.067   3.136 -0.2904  0.4987 -0.9860
  315MOL0     C41504  11.000   9.051   3.040 -0.5527  1.4172 -0.4826
  315MOL0     C41505  10.994   9.080   2.907  0.6152 -0.4576 -0.2616
  315MOL0     O41506  11.088   9.088   2.813  1.0283  0.6701  0.8201
  315MOL0     C41507  11.216   9.044   2.854  0.6760 -0.9108  0.6957
  315MOL0     C41508  11.310   9.089   2.736 -0.1581  0.5615  0.3900
  315MOL0     C41509  11.457   9.136   2.766 -0.6509  0.4148  0.1117
  315MOL0     C41510  11.549   9.046   2.838  0.5889  0.8036  0.3484
  315MOL0     C41511  11.686   9.091   2.828  0.3813  0.0407  0.1118
  315MOL0     C41512  11.800   9.123   2.824 -0.1456 -0.5959  0.9639
  315MOL0     C41513  10.864   9.123   2.864 -0.7365 -0.2759 -0.6741
  315MOL0     C41514  10.759   9.142   2.950  0.5484 -0.1994 -0.4213
  315MOL0     H41515  10.444   8.941   3.130  2.3171  1.8265  3.9289
  315MOL0     H41516  10.191   8.892   3.192  1.4560 -0.3212  1.6105
  315MOL0     H41517   9.943   8.998   3.450 -1.3691 -2.0574  0.5329
  315MOL0     H41518  10.087   8.925   3.427 -1.9388 -1.3659  3.0163
  315MOL0     H41519   9.910   8.765   3.386 -1.2282 -0.6569 -0.6817
  315MOL0     H41520   9.998   8.799   3.233 -2.3984  0.1951 -1.8590
  315MOL0     H41521   9.803   8.958   3.170 -0.4870 -0.5127 -1.1718
  315MOL0     H41522   9.720   8.886   3.308  1.4538  0.6159  0.9885
  315MOL0     H41523   9.833   8.745   3.068 -0.7293  0.9186 -0.2929
  315MOL0     H41524   9.746   8.661   3.205  0.0392  0.1648  0.6992
  315MOL0     H41525   9.599   8.680   3.014 -0.2966 -0.2060  1.2136
  315MOL0     H41526   9.637   8.854   3.008 -2.6936  2.7881  2.3233
  315MOL0     H41527   9.517   8.891   3.204 -0.2867 -0.7030 -0.2678
  315MOL0     H41528   9.509   8.728   3.251  0.6915  0.3683  0.1705
  315MOL0     H41529   9.379   8.867   3.019 -0.4109 -1.0048 -0.3735
  315MOL0     H41530   9.371   8.698   3.039  2.4038 -0.1351  1.4129
  315MOL0     H41531   9.272   8.930   3.224 -2.2572 -0.0993  0.5581
  315MOL0     H41532   9.265   8.758   3.281  2.2937  1.4267  0.6602
  315MOL0     H41533   9.158   8.926   2.935 -0.1995  1.3936 -0.2458
  315MOL0     H41534   8.917   8.957   2.822  0.9849 -1.3191 -1.2116
  315MOL0     H41535   8.777   8.883   2.897 -0.4292  1.4472 -2.3332
  315MOL0     H41536   8.845   8.668   2.830  0.1937  0.4239  0.3446
  315MOL0     H41537   8.990   8.732   2.737 -0.2129  2.6559 -0.4308
  315MOL0     H41538   8.699   8.785   2.673 -0.5361  2.2422 -0.4083
  315MOL0     H41539   8.831   8.882   2.603  2.8041 -1.0074 -1.7818
  315MOL0     H41540   8.799   8.585   2.559  4.3487 -0.9788  0.3475
  315MOL0     H41541   8.926   8.698   2.503  0.4837 -0.5220  2.7591
  315MOL0     H41542   8.607   8.809   2.215 -0.2801 -2.3297 -2.3203
  315MOL0     H41543   8.380   8.766   2.171 -2.9824 -2.1845  0.6449
  315MOL0     H41544   7.949   8.637   2.241  3.2375 -0.5587 -0.2217
  315MOL0     H41545   7.757   8.620   2.089  1.0719  2.0086  0.9574
  315MOL0     H41546   7.771   8.298   1.851 -1.2369  0.0711 -0.6985
  315MOL0     H41547   7.827   8.360   1.701  0.3373 -0.3515 -0.3063
  315MOL0     H41548   7.618   8.436   1.638  0.5915 -0.0576  0.4442
  315MOL0     H41549   7.538   8.406   1.794  1.6488  0.7357  1.4108
  315MOL0     H41550   7.639   8.219   1.578 -1.1683 -1.5424 -0.0722
  315MOL0     H41551   7.463   8.237   1.636  0.4911 -0.6496 -2.3133
  315MOL0     H41552   7.698   8.080   1.758  0.8091  0.2301  1.3462
  315MOL0     H41553   7.573   8.142   1.854  3.8430 -1.3771  1.8915
  315MOL0     H41554   7.563   7.919   1.648  2.4667  0.5217 -0.0130
  315MOL0     H41555   7.428   8.036   1.629  1.0515  1.4292  1.2641
  315MOL0     H41556   7.384   7.998   1.876  0.9928  0.0670  0.1097
  315MOL0     H41557   7.507   7.879   1.880  1.4210  1.9897 -0.7217
  315MOL0     H41558   7.347   7.749   1.683 -0.7086 -0.4337  1.1433
  315MOL0     H41559   7.318   7.742   1.861  0.8397  3.1604  3.8607
  315MOL0     H41560   7.194   7.978   1.779 -0.9357 -0.0623  1.0704
  315MOL0     H41561   7.114   7.828   1.807 -0.5134  0.0200 -0.4667
  315MOL0     H41562   8.012   8.448   1.790  0.6748  1.3202 -0.0797
  315MOL0     H41563   8.207   8.482   1.942 -0.5896 -0.8210 -3.6232
  315MOL0     H41564   8.345   8.543   2.547 -0.9967 -2.1954 -1.5691
  315MOL0     H41565   8.571   8.595   2.598  0.2872 -0.3944  0.8905
  315MOL0     H41566  10.127   9.311   3.260  0.5818  1.3104 -0.6731
  315MOL0     H41567  10.365   9.355   3.207  1.6924 -0.1255 -2.1071
  315MOL0     H41568  10.925   9.040   3.235 -2.9751  1.0645  0.1698
  315MOL0     H41569  11.096   9.019   3.080 -0.7942  1.7443  0.3836
  315MOL0     H41570  11.215   8.934   2.861 -0.5757 -1.0846 -1.4834
  315MOL0     H41571  11.247   9.098   2.944 -2.0778  3.9214 -0.9194
  315MOL0     H41572  11.317   9.013   2.658 -0.6992  2.2927 -1.4211
  315MOL0     H41573  11.263   9.172   2.683 -0.4845  0.7733  1.0092
  315MOL0     H41574  11.450   9.229   2.822  1.1322  2.4352 -2.7663
  315MOL0     H41575  11.506   9.174   2.676  1.8061 -2.1641  0.2042
  315MOL0     H41576  11.516   9.041   2.943  2.2880 -1.0348  0.8494
  315MOL0     H41577  11.548   8.946   2.794  2.2283  0.4272  1.1068
  315MOL0     H41578  11.902   9.156   2.821 -0.9206  2.5404  3.4137
  315MOL0     H41579  10.851   9.167   2.766  0.0008 -0.7446 -0.9851
  315MOL0     H41580  10.666   9.174   2.905  0.6303  3.4492  1.6712
  316MOL0     O41581   4.921   2.920   7.558  0.1794 -0.4962  0.1969
  316MOL0     C41582   4.950   3.021   7.624 -0.4384 -0.5773  0.2055
  316MOL0     O41583   4.884   3.067   7.738 -1.1234  0.5478  0.3613
  316MOL0     C41584   4.780   3.000   7.801 -0.1365 -0.2328 -0.3874
  316MOL0     C41585   4.758   2.861   7.803 -0.2365 -0.5204 -0.2168
  316MOL0     C41586   4.657   2.816   7.874 -0.0553  0.1824 -0.5150
  316MOL0     C41587   4.571   2.890   7.946  0.8812 -0.1514 -0.1839
  316MOL0     O41588   4.461   2.841   8.014 -0.2621 -0.4065  0.0615
  316MOL0     C41589   4.411   2.706   8.021  0.3499 -0.4198 -0.3836
  316MOL0     C41590   4.355   2.652   7.884  0.5384 -0.6515 -0.1335
  316MOL0     C41591   4.270   2.532   7.919  0.1662  0.0141  0.0981
  316MOL0     C41592   4.311   2.408   7.835  0.4354  0.3494 -0.3985
  316MOL0     C41593   4.253   2.283   7.905  0.4756 -0.8891 -0.4306
  316MOL0     C41594   4.096   2.274   7.891 -0.1850  0.1382 -0.1485
  316MOL0     C41595   4.044   2.127   7.930 -0.5459  0.1444  0.0145
  316MOL0     C41596   3.889   2.126   7.942 -1.2661 -0.9144  0.6693
  316MOL0     N41597   3.835   2.000   7.998 -0.0094  0.1223 -0.5071
  316MOL0     C41598   3.831   1.987   8.130 -0.6905  0.0573 -0.1337
  316MOL0     C41599   3.797   1.855   8.137 -0.3918 -0.0468  0.4576
  316MOL0     C41600   3.769   1.780   8.267  0.2586  0.1508  0.3338
  316MOL0     C41601   3.649   1.685   8.266  0.7025 -0.1761 -0.0724
  316MOL0     C41602   3.524   1.758   8.324 -0.3027  0.2730  1.0017
  316MOL0     C41603   3.453   1.832   8.202 -0.2460 -0.9096  0.2919
  316MOL0     O41604   3.354   1.935   8.236 -0.0958 -0.6330 -0.7158
  316MOL0     C41605   3.407   2.046   8.305  0.9943  0.2557  0.6243
  316MOL0     C41606   3.358   2.074   8.434  0.2615  0.5175  0.7799
  316MOL0     C41607   3.411   2.179   8.505  0.1057 -0.0703 -0.1156
  316MOL0     C41608   3.513   2.259   8.451 -0.0364  0.2712 -0.2695
  316MOL0     C41609   3.553   2.379   8.526 -0.3502 -0.5427 -0.7218
  316MOL0     O41610   3.640   2.474   8.471  0.9781  0.0059 -0.5379
  316MOL0     C41611   3.694   2.578   8.538  0.1142  0.1618 -0.1949
  316MOL0     C41612   3.722   2.690   8.465  0.7860  0.0956 -0.4072
  316MOL0     C41613   3.766   2.804   8.539  0.4478  0.1527  0.6935
  316MOL0     C41614   3.781   2.801   8.681  0.1330  0.1273  0.4192
  316MOL0     O41615   3.806   2.909   8.764 -0.7900  0.5569 -0.2093
  316MOL0     C41616   3.848   3.031   8.716  0.1084  0.7510 -0.2815
  316MOL0     C41617   3.991   3.014   8.667  0.0047 -0.1388 -0.4462
  316MOL0     C41618   4.053   3.152   8.668 -0.1813  0.0820  0.0130
  316MOL0     C41619   4.201   3.123   8.636 -0.5078  0.1723  0.9349
  316MOL0     C41620   4.268   3.258   8.645 -0.8343 -0.3672  0.4283
  316MOL0     C41621   4.419   3.245   8.622 -0.6385  0.3291 -0.7740
  316MOL0     C41622   4.505   3.382   8.642  0.6471  0.0481 -1.2635
  316MOL0     C41623   4.538   3.425   8.791  0.2658 -0.3570 -0.3154
  316MOL0    Cl41624   4.599   3.309   8.908  0.0304  0.1540  0.6293
  316MOL0     C41625   3.755   2.685   8.742  0.9267  0.0331  0.1788
  316MOL0     C41626   3.717   2.572   8.677 -0.4078  0.0628 -0.0642
  316MOL0     O41627   3.497   2.395   8.636 -0.0024  0.2954 -0.3936
  316MOL0     C41628   3.562   2.235   8.319  0.1142 -0.3882 -0.0324
  316MOL0     C41629   3.503   2.124   8.248 -0.2518 -0.4991  0.4771
  316MOL0     N41630   3.795   1.795   8.015  0.1060  0.2796 -0.5075
  316MOL0     N41631   3.823   1.881   7.933 -0.2347  0.3837  0.0144
  316MOL0     C41632   4.588   3.027   7.933 -0.8650  0.2755 -0.2818
  316MOL0     C41633   4.689   3.084   7.858 -0.0331 -0.4695 -0.2524
  316MOL0     C41634   5.047   3.109   7.566 -0.1924  0.3386 -0.4339
  316MOL0     C41635   5.120   3.086   7.445  1.1035 -0.6099 -0.8903
  316MOL0     C41636   5.202   3.191   7.397  0.9958 -0.4658 -0.0819
  316MOL0     C41637   5.234   3.299   7.470 -0.1675 -0.8939  0.4657
  316MOL0     O41638   5.335   3.372   7.418 -0.9414  0.4917  0.4999
  316MOL0     C41639   5.376   3.496   7.485 -0.0714  0.4488 -0.0765
  316MOL0     C41640   5.493   3.554   7.397  0.5116  0.0273 -0.1688
  316MOL0     C41641   5.436   3.633   7.282 -0.3777 -0.4027  0.1668
  316MOL0     C41642   5.545   3.700   7.192 -0.4567 -0.1526  0.2230
  316MOL0     C41643   5.672   3.713   7.265  0.5172 -0.5761 -0.3779
  316MOL0     C41644   5.782   3.734   7.310  0.1076  0.5100 -0.0421
  316MOL0     C41645   5.174   3.323   7.594  0.2544  0.5731  0.0824
  316MOL0     C41646   5.083   3.225   7.636  0.1986 -1.3163  0.2872
  316MOL0     H41647   4.827   2.806   7.740 -0.7976  0.5878 -1.8561
  316MOL0     H41648   4.648   2.710   7.855 -3.8491  0.5284 -1.3786
  316MOL0     H41649   4.340   2.707   8.103  0.6069 -1.5993 -0.1266
  316MOL0     H41650   4.482   2.638   8.068 -0.9928 -0.0872  2.2853
  316MOL0     H41651   4.439   2.642   7.815  2.0571  3.1145  0.9337
  316MOL0     H41652   4.294   2.727   7.832  0.2815 -0.0589  0.9969
  316MOL0     H41653   4.163   2.543   7.900  0.4769 -0.5547 -2.3526
  316MOL0     H41654   4.284   2.508   8.025 -1.4963  0.9081  0.5581
  316MOL0     H41655   4.281   2.405   7.730 -0.0794 -2.9177 -0.2534
  316MOL0     H41656   4.419   2.393   7.843  0.1589 -0.6036  3.0171
  316MOL0     H41657   4.300   2.278   8.004 -0.0109 -1.0209 -0.1984
  316MOL0     H41658   4.300   2.196   7.858  3.4212 -0.0467  0.7404
  316MOL0     H41659   4.070   2.299   7.788  1.2180  1.6085 -0.1985
  316MOL0     H41660   4.052   2.345   7.962  2.2707  0.8460  0.7902
  316MOL0     H41661   4.074   2.047   7.861 -1.4597 -2.3966  2.3797
  316MOL0     H41662   4.079   2.100   8.029 -0.2199 -2.1723 -0.6817
  316MOL0     H41663   3.848   2.151   7.844  3.1149 -0.0916 -1.2004
  316MOL0     H41664   3.851   2.204   8.009 -2.2503  0.1962 -1.1187
  316MOL0     H41665   3.856   2.049   8.215  4.5422 -2.4770  0.5761
  316MOL0     H41666   3.766   1.852   8.350 -1.4275 -0.0750  0.5145
  316MOL0     H41667   3.856   1.720   8.295  1.5872  1.7318 -0.2342
  316MOL0     H41668   3.671   1.605   8.338  1.4303 -1.0318 -1.2122
  316MOL0     H41669   3.635   1.635   8.170 -1.2210 -1.2276  0.6980
  316MOL0     H41670   3.453   1.681   8.355  1.6231 -1.2263  1.9281
  316MOL0     H41671   3.561   1.819   8.406 -0.6601  0.6520  0.8819
  316MOL0     H41672   3.416   1.749   8.141 -1.9870 -1.5415  2.1108
  316MOL0     H41673   3.530   1.882   8.142  2.6164  1.9566  5.5592
  316MOL0     H41674   3.276   2.019   8.479 -1.1726  2.0856  0.1961
  316MOL0     H41675   3.367   2.204   8.601 -3.5846 -0.5659 -1.4988
  316MOL0     H41676   3.706   2.708   8.359 -4.8155  0.2178  0.1684
  316MOL0     H41677   3.775   2.899   8.488 -3.6418  0.8538  0.8876
  316MOL0     H41678   3.846   3.098   8.803  0.2393 -2.7016  2.6412
  316MOL0     H41679   3.780   3.073   8.642 -0.7712  1.6948  1.0199
  316MOL0     H41680   3.993   2.968   8.568  1.0810  0.2856 -0.6298
  316MOL0     H41681   4.037   2.946   8.739  0.2869  0.2785 -0.2268
  316MOL0     H41682   4.043   3.208   8.761 -1.6995  0.2448 -0.2234
  316MOL0     H41683   3.998   3.200   8.586  0.5762 -0.7473 -1.0103
  316MOL0     H41684   4.243   3.049   8.704  1.3471  0.2750 -0.0140
  316MOL0     H41685   4.215   3.092   8.532 -0.7791  0.1199  0.9129
  316MOL0     H41686   4.251   3.313   8.738 -1.8980  0.2137 -0.0959
  316MOL0     H41687   4.234   3.317   8.559  0.8580  0.6886  0.4216
  316MOL0     H41688   4.443   3.204   8.524  1.4305  0.0819 -0.2139
  316MOL0     H41689   4.472   3.172   8.684 -0.3701  1.3024  0.1719
  316MOL0     H41690   4.602   3.356   8.598  1.1918  0.6737 -0.4431
  316MOL0     H41691   4.463   3.465   8.584 -0.4966  0.8500  0.6279
  316MOL0     H41692   4.446   3.472   8.826 -0.0394  0.4981 -2.1402
  316MOL0     H41693   4.607   3.510   8.787 -0.9847  0.8349  1.6775
  316MOL0     H41694   3.769   2.674   8.850  1.4514  0.2537  0.1402
  316MOL0     H41695   3.697   2.491   8.746 -1.6038  1.0957  0.8576
  316MOL0     H41696   3.643   2.301   8.288  0.4279 -0.4794  0.5877
  316MOL0     H41697   3.522   2.093   8.146 -0.9171  1.4652 -0.2876
  316MOL0     H41698   4.527   3.108   7.971  0.0115  1.8710 -2.1062
  316MOL0     H41699   4.684   3.189   7.829  0.1455 -0.3997 -0.0319
  316MOL0     H41700   5.099   2.995   7.390 -2.9984  0.0202 -0.6874
  316MOL0     H41701   5.238   3.171   7.296  0.8055  2.9111 -0.9518
  316MOL0     H41702   5.406   3.481   7.589  1.0571  1.1114 -0.2829
  316MOL0     H41703   5.294   3.568   7.495  0.8019  1.1502  3.3291
  316MOL0     H41704   5.548   3.624   7.460 -2.9915  0.5295  2.7083
  316MOL0     H41705   5.569   3.479   7.374  0.3235  0.0690 -0.9528
  316MOL0     H41706   5.370   3.715   7.313  0.2190  1.4099 -2.9402
  316MOL0     H41707   5.374   3.567   7.222 -0.2724  0.3606 -0.8005
  316MOL0     H41708   5.557   3.642   7.100 -3.3151  0.1628 -0.4581
  316MOL0     H41709   5.518   3.794   7.142  2.2115 -0.1621 -1.4343
  316MOL0     H41710   5.866   3.745   7.376 -1.6138  2.4730  1.9826
  316MOL0     H41711   5.188   3.406   7.663  0.1667  1.5930 -1.0983
  316MOL0     H41712   5.037   3.247   7.733 -3.4785 -0.5087 -1.4606
  317MOL0     O41713   9.884   8.230   9.143  0.7858 -0.1747  0.8442
  317MOL0     C41714   9.875   8.351   9.120 -0.6280 -0.8518  0.2086
  317MOL0     O41715   9.780   8.435   9.178  0.0234 -0.0480  0.8101
  317MOL0     C41716   9.677   8.373   9.242  0.8826  0.7077 -0.3681
  317MOL0     C41717   9.666   8.387   9.376  0.5675 -0.2924 -0.8384
  317MOL0     C41718   9.550   8.328   9.436 -0.5939  0.4101  1.1053
  317MOL0     C41719   9.458   8.242   9.375 -0.2810 -0.6195  0.1408
  317MOL0     O41720   9.352   8.194   9.444  0.2729 -0.2056  0.3675
  317MOL0     C41721   9.255   8.108   9.387 -0.1839  0.7159 -0.5692
  317MOL0     C41722   9.136   8.180   9.326  0.6771 -0.4170 -0.1921
  317MOL0     C41723   9.068   8.296   9.400  0.1967  0.6315 -0.6987
  317MOL0     C41724   9.022   8.270   9.548  0.2251  0.1609 -0.3420
  317MOL0     C41725   8.985   8.396   9.630 -0.1950  0.0841  0.2378
  317MOL0     C41726   8.975   8.374   9.787 -0.5121 -0.4615  0.1564
  317MOL0     C41727   8.898   8.482   9.861 -0.7864  0.0425 -0.6096
  317MOL0     C41728   8.913   8.489  10.013  0.1764 -0.1579 -0.3661
  317MOL0     N41729   8.872   8.611  10.084  0.7772 -0.7384 -0.0433
  317MOL0     C41730   8.744   8.638  10.115  0.1265  0.1892  0.0793
  317MOL0     C41731   8.742   8.758  10.173 -0.1990 -0.2083  0.7931
  317MOL0     C41732   8.617   8.833  10.200 -0.9223  0.3679 -0.4281
  317MOL0     C41733   8.607   8.843  10.356 -0.8733  0.1036 -0.4702
  317MOL0     C41734   8.490   8.932  10.403 -1.0244 -0.3938 -0.6423
  317MOL0     C41735   8.356   8.880  10.348  0.1340  0.3318  0.2010
  317MOL0     O41736   8.343   8.740  10.391  0.1763  0.1945 -0.3613
  317MOL0     C41737   8.213   8.691  10.409 -0.4659  0.5951 -0.6894
  317MOL0     C41738   8.198   8.545  10.414  0.3201 -0.8229  0.1849
  317MOL0     C41739   8.069   8.490  10.401  0.6867  0.3523  0.0658
  317MOL0     C41740   7.950   8.576  10.420  0.4406  0.5247  0.9412
  317MOL0     C41741   7.812   8.518  10.445 -0.3942  0.6327 -0.3100
  317MOL0     O41742   7.801   8.382  10.429  0.0458  0.0646  0.6003
  317MOL0     C41743   7.681   8.321  10.444 -1.3153 -0.4216 -1.1450
  317MOL0     C41744   7.655   8.231  10.352  0.8657  0.6544 -0.4537
  317MOL0     C41745   7.542   8.142  10.369  0.4775  0.2178 -0.3574
  317MOL0     C41746   7.473   8.144  10.491 -0.7808  0.0691  0.5234
  317MOL0     O41747   7.385   8.055  10.531 -0.0985  0.0940  0.0814
  317MOL0     C41748   7.368   7.931  10.457 -0.1843  0.7979  1.2590
  317MOL0     C41749   7.262   7.929  10.358  0.3250  0.9482 -0.2448
  317MOL0     C41750   7.123   7.932  10.422 -0.2865  0.0245 -1.0193
  317MOL0     C41751   7.076   8.070  10.441 -0.0014 -0.1469 -0.8756
  317MOL0     C41752   6.949   8.084  10.520 -0.4350 -0.0460 -0.3784
  317MOL0     C41753   6.821   8.099  10.441  0.6722 -0.1972 -0.6114
  317MOL0     C41754   6.684   8.064  10.514 -0.3021  0.2507 -0.6748
  317MOL0     C41755   6.646   8.177  10.607  0.3393  0.2631  0.8427
  317MOL0    Cl41756   6.503   8.122  10.711 -0.3129 -0.1747  0.0926
  317MOL0     C41757   7.499   8.245  10.583  0.2833 -0.0762  0.6570
  317MOL0     C41758   7.606   8.331  10.564  0.2664  0.1901 -0.2409
  317MOL0     O41759   7.720   8.598  10.463 -0.5965  0.8550 -0.0675
  317MOL0     C41760   7.968   8.714  10.427  0.3055 -0.5073 -0.4733
  317MOL0     C41761   8.098   8.769  10.427 -0.6989 -0.5334 -0.1925
  317MOL0     N41762   8.874   8.809  10.168  0.0964 -0.0133 -0.6794
  317MOL0     N41763   8.954   8.715  10.115 -0.7751 -0.1785  1.3513
  317MOL0     C41764   9.489   8.212   9.234  0.4872 -0.1057 -1.1171
  317MOL0     C41765   9.597   8.276   9.170 -0.3040  0.6766 -0.8464
  317MOL0     C41766   9.983   8.408   9.029 -0.7064 -0.1212  1.3085
  317MOL0     C41767  10.026   8.342   8.915 -0.1131  0.5637  0.2169
  317MOL0     C41768  10.116   8.409   8.823  0.3422 -0.0113  0.1189
  317MOL0     C41769  10.154   8.541   8.835  0.1165  1.6199 -0.5861
  317MOL0     O41770  10.244   8.599   8.744  0.6491  0.3308  0.0101
  317MOL0     C41771  10.252   8.743   8.750 -0.1277  0.1386 -0.3799
  317MOL0     C41772  10.375   8.787   8.673 -0.7521 -0.7316  0.5131
  317MOL0     C41773  10.368   8.756   8.520 -0.6746 -0.2402 -0.3581
  317MOL0     C41774  10.493   8.752   8.441 -0.0020  1.4350 -0.1854
  317MOL0     C41775  10.529   8.889   8.409 -0.6342  0.0848  0.2580
  317MOL0     C41776  10.554   9.007   8.381  0.8600  0.6546 -0.3298
  317MOL0     C41777  10.092   8.611   8.941  0.1994 -0.3168  0.1981
  317MOL0     C41778  10.015   8.546   9.039 -0.4821  0.2831  0.5771
  317MOL0     H41779   9.727   8.448   9.441 -0.6298  2.4053 -2.1031
  317MOL0     H41780   9.541   8.343   9.543 -0.5601 -0.9822  1.3259
  317MOL0     H41781   9.239   8.044   9.474  1.0535  1.0119 -0.0913
  317MOL0     H41782   9.302   8.048   9.308  0.0879  1.4268 -0.9591
  317MOL0     H41783   9.070   8.098   9.296 -2.3468  1.3501  1.1817
  317MOL0     H41784   9.166   8.234   9.236  1.3952 -1.7727 -0.7995
  317MOL0     H41785   8.984   8.326   9.337 -1.5671  0.9953  1.6855
  317MOL0     H41786   9.132   8.385   9.401  0.6637  0.3203  0.9973
  317MOL0     H41787   8.937   8.201   9.548  1.2496 -1.1537 -0.8298
  317MOL0     H41788   9.102   8.222   9.605  0.3697  2.6810  1.7212
  317MOL0     H41789   8.887   8.434   9.599 -0.4300  0.6305  1.5920
  317MOL0     H41790   9.060   8.475   9.623  1.2266 -1.1296  1.1202
  317MOL0     H41791   9.079   8.366   9.820  0.5495  1.9069 -2.2070
  317MOL0     H41792   8.926   8.279   9.806  1.2091 -1.5658 -0.6476
  317MOL0     H41793   8.951   8.574   9.831  1.6922  0.0705  3.1100
  317MOL0     H41794   8.793   8.486   9.831 -1.1004 -1.3978  0.2275
  317MOL0     H41795   9.019   8.480  10.040  0.1598 -1.1809 -0.5897
  317MOL0     H41796   8.855   8.409  10.060  0.7874 -0.0890  0.5353
  317MOL0     H41797   8.663   8.567  10.102  0.4384 -0.2243  0.3484
  317MOL0     H41798   8.526   8.793  10.153  0.3634  0.4665 -3.2181
  317MOL0     H41799   8.638   8.935  10.167  1.5959  0.1654  0.3187
  317MOL0     H41800   8.701   8.886  10.393 -1.1722 -0.9595  1.7206
  317MOL0     H41801   8.589   8.750  10.411  2.4825  0.1690  0.9621
  317MOL0     H41802   8.491   8.933  10.512  1.0361  1.3049 -0.6277
  317MOL0     H41803   8.506   9.038  10.382  1.1628 -0.1515  1.7252
  317MOL0     H41804   8.353   8.883  10.239  1.9229 -0.9153  0.0741
  317MOL0     H41805   8.279   8.943  10.394  1.0644  0.5460  1.5327
  317MOL0     H41806   8.290   8.490  10.403  0.5464 -0.4325  0.1107
  317MOL0     H41807   8.042   8.385  10.388 -1.5448  1.0878 -2.0403
  317MOL0     H41808   7.709   8.225  10.258 -3.0068 -0.2726 -2.8431
  317MOL0     H41809   7.508   8.071  10.294 -1.2811  1.5220 -0.8522
  317MOL0     H41810   7.359   7.843  10.523  1.8901 -1.0497 -0.7652
  317MOL0     H41811   7.462   7.903  10.410 -0.5624 -1.7305  1.8176
  317MOL0     H41812   7.262   7.829  10.314 -2.1020  1.0714 -0.6295
  317MOL0     H41813   7.271   8.004  10.278 -0.7634  2.7102  1.2106
  317MOL0     H41814   7.132   7.893  10.524 -4.2846  0.3287 -0.4059
  317MOL0     H41815   7.046   7.872  10.373 -0.4824  1.0255 -1.9694
  317MOL0     H41816   7.161   8.121  10.486  1.9074 -2.4987 -1.5716
  317MOL0     H41817   7.065   8.127  10.348 -2.9232  0.8407 -0.0268
  317MOL0     H41818   6.935   8.174  10.581  0.8618  1.0610 -1.6497
  317MOL0     H41819   6.952   7.998  10.587 -0.5790  0.1074 -0.1732
  317MOL0     H41820   6.824   8.028  10.359 -3.5615 -1.7150  0.2819
  317MOL0     H41821   6.813   8.201  10.402  0.0241 -0.2535 -0.6345
  317MOL0     H41822   6.592   8.051  10.455 -1.0566  1.6656  0.1241
  317MOL0     H41823   6.696   7.970  10.568  0.1709 -0.2684 -1.6679
  317MOL0     H41824   6.617   8.271  10.560  1.7554  2.6900  4.4413
  317MOL0     H41825   6.730   8.205  10.671 -0.8912  0.8683  2.2423
  317MOL0     H41826   7.446   8.242  10.678  1.2296  1.3587  1.2629
  317MOL0     H41827   7.628   8.396  10.648 -3.0743  4.0207 -2.0071
  317MOL0     H41828   7.889   8.784  10.449  0.3923 -0.0969 -1.4054
  317MOL0     H41829   8.107   8.877  10.435 -1.8261 -0.3999 -0.6001
  317MOL0     H41830   9.425   8.153   9.169  0.0217  0.0356 -0.7924
  317MOL0     H41831   9.619   8.266   9.064  2.6110  1.1590 -0.3665
  317MOL0     H41832   9.970   8.254   8.885  1.4217 -2.1199  4.3478
  317MOL0     H41833  10.146   8.351   8.736 -1.1820 -1.8092  0.7231
  317MOL0     H41834  10.268   8.784   8.850 -0.1292 -1.8829  0.4830
  317MOL0     H41835  10.158   8.777   8.706  1.4041  0.3675 -3.7606
  317MOL0     H41836  10.386   8.894   8.692  0.0555 -0.2942 -2.0908
  317MOL0     H41837  10.466   8.739   8.709  3.2013  2.1656 -4.3733
  317MOL0     H41838  10.294   8.817   8.466  0.1999 -0.9182 -2.4022
  317MOL0     H41839  10.336   8.654   8.499 -3.4601  0.5637 -0.4827
  317MOL0     H41840  10.568   8.693   8.492 -1.7008 -1.2047 -0.5559
  317MOL0     H41841  10.477   8.704   8.344 -1.4569  1.0420  0.2197
  317MOL0     H41842  10.595   9.101   8.348  2.6553  0.0971  0.2047
  317MOL0     H41843  10.096   8.717   8.965 -1.4341 -0.2791  0.4297
  317MOL0     H41844   9.967   8.606   9.116  0.3636  3.5819 -1.2924
  318MOL0     O41845   8.297   4.599   7.164 -0.6015  0.3847 -0.0212
  318MOL0     C41846   8.244   4.557   7.267 -0.0457  0.1662  0.9490
  318MOL0     O41847   8.303   4.495   7.373  0.0703 -0.3249 -0.4036
  318MOL0     C41848   8.440   4.494   7.368 -0.1283 -0.5049  0.0634
  318MOL0     C41849   8.504   4.386   7.328 -0.0054  0.7420 -0.0860
  318MOL0     C41850   8.636   4.391   7.282  0.0970  0.4183  0.6438
  318MOL0     C41851   8.712   4.508   7.305 -0.6282  0.5164 -1.4079
  318MOL0     O41852   8.839   4.531   7.252  0.7125 -0.0150 -0.4259
  318MOL0     C41853   8.910   4.410   7.205 -1.0198 -0.5451 -0.4340
  318MOL0     C41854   9.055   4.445   7.248  0.1029 -0.0714  0.1371
  318MOL0     C41855   9.167   4.351   7.204  0.2912  0.9520  0.4766
  318MOL0     C41856   9.168   4.217   7.279 -0.6661 -0.3170 -0.2735
  318MOL0     C41857   9.307   4.142   7.271  0.1204  0.4226  0.0942
  318MOL0     C41858   9.436   4.211   7.301 -0.5990 -0.2959  0.4577
  318MOL0     C41859   9.432   4.272   7.444  0.6922  0.1516  0.5845
  318MOL0     C41860   9.557   4.335   7.499  0.1218 -0.0021  0.5085
  318MOL0     N41861   9.632   4.236   7.580  0.1417 -0.1256 -0.1952
  318MOL0     C41862   9.772   4.240   7.601  0.4946 -0.4847 -0.1385
  318MOL0     C41863   9.798   4.169   7.717  0.3302 -0.2886  0.1938
  318MOL0     C41864   9.930   4.135   7.792  0.6257  0.7339  0.3229
  318MOL0     C41865   9.908   4.123   7.949  0.0936 -0.0952  1.0692
  318MOL0     C41866  10.040   4.095   8.021  0.6492 -0.1157  0.9731
  318MOL0     C41867  10.024   4.110   8.168 -0.9440  0.0422  0.1565
  318MOL0     O41868  10.149   4.101   8.237  0.3292  0.1589 -0.6538
  318MOL0     C41869  10.210   3.976   8.249 -0.4431  0.5579  0.2955
  318MOL0     C41870  10.137   3.853   8.247 -0.1220  0.3083  0.1342
  318MOL0     C41871  10.194   3.726   8.250  0.1791  0.6619 -0.2932
  318MOL0     C41872  10.335   3.721   8.253 -0.1706 -0.5262  0.3017
  318MOL0     C41873  10.413   3.597   8.258  0.3294 -0.0201  0.0549
  318MOL0     O41874  10.553   3.607   8.285  0.2102 -0.6052  0.1482
  318MOL0     C41875  10.635   3.496   8.262  0.2510 -0.1917 -0.0654
  318MOL0     C41876  10.614   3.380   8.337 -0.5420 -0.2811 -0.4030
  318MOL0     C41877  10.682   3.265   8.308 -0.7103 -1.3933 -0.1861
  318MOL0     C41878  10.778   3.261   8.207 -0.6002  0.2476  0.3382
  318MOL0     O41879  10.827   3.137   8.177  0.4462  0.0360  0.7578
  318MOL0     C41880  10.869   3.129   8.044  0.5428  0.9806 -0.1053
  318MOL0     C41881  10.895   2.978   8.025  0.0954  0.2088 -0.1184
  318MOL0     C41882  11.011   2.924   8.113 -0.4975  0.3828 -0.8441
  318MOL0     C41883  11.032   2.783   8.096  0.2360  0.4345  0.4308
  318MOL0     C41884  11.153   2.720   8.170 -0.7997 -0.8379  0.2027
  318MOL0     C41885  11.292   2.735   8.096 -0.0105 -0.0426  0.0668
  318MOL0     C41886  11.392   2.640   8.160 -0.1393  0.3463 -0.4155
  318MOL0     C41887  11.405   2.653   8.307  0.4483 -0.3123  0.2839
  318MOL0    Cl41888  11.536   2.564   8.373 -0.0388  0.1778 -0.5145
  318MOL0     C41889  10.804   3.382   8.141 -0.0249 -0.7038 -0.2590
  318MOL0     C41890  10.730   3.501   8.168  0.1031  0.9568  0.4021
  318MOL0     O41891  10.362   3.484   8.249 -0.7640 -0.2949  0.5716
  318MOL0     C41892  10.409   3.840   8.258  0.4770 -0.0403  0.1725
  318MOL0     C41893  10.352   3.970   8.239  0.3787  0.2466 -1.1372
  318MOL0     N41894   9.668   4.135   7.763 -0.4645  0.1005 -0.4647
  318MOL0     N41895   9.572   4.161   7.682 -1.2173 -0.7212 -0.2865
  318MOL0     C41896   8.656   4.613   7.381  0.9869 -1.5659 -0.5322
  318MOL0     C41897   8.515   4.608   7.405  0.4032 -0.2092  0.4809
  318MOL0     C41898   8.100   4.601   7.284 -0.8073  0.7255  0.5285
  318MOL0     C41899   8.020   4.543   7.381  0.4963  0.3372 -0.4239
  318MOL0     C41900   7.889   4.585   7.392  0.7807 -0.6056 -0.2121
  318MOL0     C41901   7.832   4.689   7.311 -0.2835  0.3038  0.6098
  318MOL0     O41902   7.694   4.708   7.307 -0.2765 -0.6525  0.6321
  318MOL0     C41903   7.634   4.790   7.204 -0.9619 -0.4817 -0.2842
  318MOL0     C41904   7.483   4.787   7.211 -0.0872 -0.0145 -0.1577
  318MOL0     C41905   7.431   4.648   7.196  0.0118  1.0662 -0.7043
  318MOL0     C41906   7.299   4.636   7.122 -0.0141  0.0339  0.9332
  318MOL0     C41907   7.195   4.708   7.184 -0.1385 -0.0884  0.2617
  318MOL0     C41908   7.099   4.766   7.227 -0.8252  0.2127  0.2893
  318MOL0     C41909   7.926   4.757   7.227 -0.0985  0.8445  0.5591
  318MOL0     C41910   8.061   4.717   7.209 -0.1345  0.6028 -0.7877
  318MOL0     H41911   8.441   4.298   7.316  1.3291 -0.3260  0.4109
  318MOL0     H41912   8.684   4.309   7.231 -1.4834  1.1043 -2.1869
  318MOL0     H41913   8.888   4.395   7.099 -0.0515  0.7932 -0.8528
  318MOL0     H41914   8.883   4.320   7.262 -0.9262 -0.3479 -0.0723
  318MOL0     H41915   9.059   4.460   7.356 -0.3011 -2.6030  0.5797
  318MOL0     H41916   9.074   4.544   7.205 -1.4871  1.2440  2.2802
  318MOL0     H41917   9.263   4.403   7.212  0.4952  1.3623 -2.9461
  318MOL0     H41918   9.152   4.336   7.097  0.0219 -1.2282  0.7866
  318MOL0     H41919   9.143   4.217   7.386 -1.7115 -0.6897 -0.5001
  318MOL0     H41920   9.092   4.155   7.230 -2.2287  1.2341  0.0815
  318MOL0     H41921   9.317   4.120   7.164 -0.5501 -0.0607  0.1231
  318MOL0     H41922   9.305   4.043   7.318  2.6992 -0.8800 -2.1881
  318MOL0     H41923   9.455   4.293   7.232  1.9448 -0.8860  0.3770
  318MOL0     H41924   9.524   4.147   7.292 -0.0717  0.4938 -0.0977
  318MOL0     H41925   9.372   4.363   7.436  2.6213  1.5462  1.1843
  318MOL0     H41926   9.392   4.193   7.509 -0.3892  0.5555  0.4283
  318MOL0     H41927   9.536   4.420   7.564 -3.1468  0.2196 -0.6289
  318MOL0     H41928   9.608   4.380   7.413  1.2647 -1.1442  0.5563
  318MOL0     H41929   9.848   4.296   7.548  1.5044 -0.7451  0.9791
  318MOL0     H41930  10.001   4.216   7.772  1.0183  0.6932  1.4808
  318MOL0     H41931   9.973   4.047   7.742  2.6255  2.8503 -1.9412
  318MOL0     H41932   9.844   4.034   7.955  0.8487 -1.1028 -2.7548
  318MOL0     H41933   9.866   4.218   7.981  1.8975  0.9438  0.4666
  318MOL0     H41934  10.079   3.999   7.988  4.6682  2.0373 -1.3375
  318MOL0     H41935  10.117   4.166   7.988 -1.9322  3.1873  1.4508
  318MOL0     H41936   9.947   4.039   8.201 -1.0843 -1.1295 -2.4785
  318MOL0     H41937   9.979   4.204   8.202 -0.1381  0.3979  0.2629
  318MOL0     H41938  10.029   3.855   8.233  0.0570 -0.5477 -1.5476
  318MOL0     H41939  10.132   3.638   8.232  2.1521 -0.7263 -0.6358
  318MOL0     H41940  10.538   3.382   8.414  1.3030 -0.9404  1.5395
  318MOL0     H41941  10.659   3.173   8.361 -0.4642 -1.5320 -0.3184
  318MOL0     H41942  10.956   3.191   8.021 -0.1925  4.6157  4.9696
  318MOL0     H41943  10.790   3.157   7.974 -0.7857 -0.3733  0.7852
  318MOL0     H41944  10.925   2.960   7.922  1.6891  0.4057  0.2866
  318MOL0     H41945  10.796   2.935   8.041 -0.3924  0.7933 -1.4770
  318MOL0     H41946  10.994   2.938   8.220 -2.3786  1.6469 -1.2588
  318MOL0     H41947  11.108   2.971   8.095 -0.8481  1.0463 -1.0094
  318MOL0     H41948  10.943   2.750   8.151  0.1773 -2.8957 -1.3854
  318MOL0     H41949  11.032   2.755   7.991 -1.1721 -1.6142  0.9005
  318MOL0     H41950  11.130   2.613   8.171  1.4362 -1.3709  1.5656
  318MOL0     H41951  11.148   2.752   8.274 -0.2396 -2.4761  0.7537
  318MOL0     H41952  11.335   2.835   8.092 -2.7166  1.1528 -2.0023
  318MOL0     H41953  11.274   2.709   7.992 -0.7316 -0.4928  0.2943
  318MOL0     H41954  11.385   2.535   8.128  2.6622  0.0087 -0.1386
  318MOL0     H41955  11.489   2.673   8.121  0.7662 -1.0833  0.5148
  318MOL0     H41956  11.318   2.606   8.355 -0.0308  3.1728  3.2496
  318MOL0     H41957  11.403   2.759   8.332  0.4658 -0.2845  0.1689
  318MOL0     H41958  10.875   3.386   8.059  2.1910  1.9796  1.6287
  318MOL0     H41959  10.747   3.589   8.107 -4.1105  1.1747 -0.7318
  318MOL0     H41960  10.517   3.849   8.259  0.8048 -2.9425 -0.1851
  318MOL0     H41961  10.422   4.052   8.247  0.9809 -0.3522 -0.1208
  318MOL0     H41962   8.718   4.699   7.400  0.3259 -0.5105 -2.8759
  318MOL0     H41963   8.475   4.696   7.454  2.4885  0.7636  0.5317
  318MOL0     H41964   8.060   4.462   7.441 -2.3657  0.1493  1.4235
  318MOL0     H41965   7.824   4.537   7.464 -0.8031 -1.6027 -2.2076
  318MOL0     H41966   7.663   4.751   7.105  2.1214 -2.2200  1.1457
  318MOL0     H41967   7.676   4.889   7.221 -2.5557  0.3030 -0.7198
  318MOL0     H41968   7.460   4.829   7.309 -1.3177  1.5692 -1.0756
  318MOL0     H41969   7.451   4.858   7.133  3.0427 -0.4358 -1.9828
  318MOL0     H41970   7.419   4.605   7.296 -0.5599 -0.8372 -1.5375
  318MOL0     H41971   7.494   4.575   7.143  0.5526  0.3283  0.9024
  318MOL0     H41972   7.321   4.686   7.027 -0.3035  1.3453  1.5287
  318MOL0     H41973   7.274   4.531   7.104  0.0726  0.5321 -2.8373
  318MOL0     H41974   7.004   4.807   7.256 -0.8108 -0.2819  1.0801
  318MOL0     H41975   7.894   4.846   7.172  1.6828  0.4880 -1.1433
  318MOL0     H41976   8.111   4.775   7.132 -0.1184  1.1666 -0.3571
  319MOL0     O41977  10.645  10.037  10.007 -0.2972 -0.3937 -0.2240
  319MOL0     C41978  10.746   9.996  10.064  0.0633  0.0277 -0.7361
  319MOL0     O41979  10.845  10.066  10.123 -0.6146  0.1502  0.0194
  319MOL0     C41980  10.844  10.201  10.153  0.6773  0.7496  0.6349
  319MOL0     C41981  10.962  10.255  10.198 -0.3632  1.1110 -0.3542
  319MOL0     C41982  10.965  10.386  10.255 -0.2536  0.1893 -0.4432
  319MOL0     C41983  10.857  10.474  10.258 -0.5921  0.2855  0.0405
  319MOL0     O41984  10.879  10.602  10.297  0.0485 -0.0595  0.7836
  319MOL0     C41985  10.785  10.649  10.389  0.5467 -0.4259 -0.3833
  319MOL0     C41986  10.843  10.770  10.464 -0.2006 -0.2652  0.1085
  319MOL0     C41987  10.741  10.859  10.538  0.3325 -0.0429 -0.0622
  319MOL0     C41988  10.632  10.929  10.449  0.8476 -0.0814  0.2555
  319MOL0     C41989  10.536  11.021  10.519 -0.2800 -0.8644 -0.1512
  319MOL0     C41990  10.400  10.961  10.537  0.4270  0.1168 -0.1292
  319MOL0     C41991  10.295  11.056  10.562  0.1368 -1.2989 -0.4464
  319MOL0     C41992  10.304  11.128  10.696  0.5492  0.0417 -0.0399
  319MOL0     N41993  10.259  11.055  10.808  0.3230 -0.1752 -0.6010
  319MOL0     C41994  10.129  11.057  10.864 -1.1050  0.6219  0.6318
  319MOL0     C41995  10.134  10.966  10.962  0.3190  0.4708 -0.8532
  319MOL0     C41996  10.015  10.936  11.053  1.4180 -0.8141 -0.9992
  319MOL0     C41997   9.910  10.858  10.978  0.3526  0.4031  0.1976
  319MOL0     C41998   9.810  10.938  10.906  0.0885 -0.9572 -0.5511
  319MOL0     C41999   9.673  10.876  10.904  0.3715 -0.1235 -0.2947
  319MOL0     O42000   9.686  10.748  10.839  0.2660 -1.3854  0.8072
  319MOL0     C42001   9.595  10.651  10.868 -0.4068  0.1934 -0.9976
  319MOL0     C42002   9.460  10.685  10.873  1.2797 -1.1458 -0.5000
  319MOL0     C42003   9.366  10.591  10.914  0.6142  0.1133 -0.7915
  319MOL0     C42004   9.395  10.455  10.926 -0.4049 -0.6778 -0.0017
  319MOL0     C42005   9.289  10.357  10.949  0.1444 -0.1783  0.0505
  319MOL0     O42006   9.176  10.400  11.005 -0.3840  0.5909  0.2242
  319MOL0     C42007   9.064  10.325  11.003  0.5715 -0.1085  0.0030
  319MOL0     C42008   8.976  10.324  11.108  0.8432 -0.5299 -0.7425
  319MOL0     C42009   8.849  10.255  11.100 -1.1491  0.4944 -0.7176
  319MOL0     C42010   8.805  10.188  10.987  0.2868  0.0862 -0.3474
  319MOL0     O42011   8.672  10.146  10.992 -0.3149 -0.0293 -0.7759
  319MOL0     C42012   8.616  10.168  10.864 -0.6767  0.2854  0.1959
  319MOL0     C42013   8.470  10.130  10.874  1.2195  1.2458 -0.0589
  319MOL0     C42014   8.396  10.183  10.996  0.5082  0.1576 -0.5588
  319MOL0     C42015   8.249  10.148  10.987  0.1494  0.2121 -0.8571
  319MOL0     C42016   8.226  10.003  10.946 -0.3101  0.1233  0.2916
  319MOL0     C42017   8.083   9.936  10.975 -0.0306 -0.0787 -0.7310
  319MOL0     C42018   8.082   9.786  10.957 -1.0974  0.5168 -0.2608
  319MOL0     C42019   7.949   9.716  10.957  0.4325 -0.8414  0.2119
  319MOL0    Cl42020   7.825   9.785  10.832 -0.7775  0.4010  0.0929
  319MOL0     C42021   8.898  10.170  10.887 -0.1943  0.1050  0.9071
  319MOL0     C42022   9.021  10.244  10.894 -0.9948  0.0933  0.9237
  319MOL0     O42023   9.315  10.247  10.908  0.4512 -0.5129 -0.8473
  319MOL0     C42024   9.536  10.431  10.913 -0.4391  0.2076  0.2149
  319MOL0     C42025   9.630  10.521  10.878 -0.1361  0.0939  0.1046
  319MOL0     N42026  10.254  10.904  10.968 -0.0560  0.7626  0.6738
  319MOL0     N42027  10.331  10.968  10.879  0.0856  0.4417  0.3841
  319MOL0     C42028  10.741  10.419  10.197  0.6307 -0.2207  0.7681
  319MOL0     C42029  10.734  10.291  10.151  0.0957 -0.3242 -0.3842
  319MOL0     C42030  10.740   9.852  10.074 -0.5830  0.0882  0.3787
  319MOL0     C42031  10.820   9.785  10.171  0.7837 -0.3044 -0.5328
  319MOL0     C42032  10.807   9.644  10.196  0.5068 -0.2059  0.6001
  319MOL0     C42033  10.740   9.565  10.108 -0.2723  0.9710 -0.1315
  319MOL0     O42034  10.753   9.428  10.106  0.1909 -0.0470 -0.1369
  319MOL0     C42035  10.826   9.374   9.994 -0.1340 -0.4620  0.7800
  319MOL0     C42036  10.928   9.281  10.051  0.5347  1.1632 -0.7943
  319MOL0     C42037  10.866   9.148  10.116  0.2037 -0.5035 -0.4858
  319MOL0     C42038  10.971   9.048  10.153  0.2269  0.3694 -0.6859
  319MOL0     C42039  11.015   8.978  10.036  0.6031  0.1607  0.6640
  319MOL0     C42040  11.052   8.926   9.932 -0.1695 -0.4502  0.5755
  319MOL0     C42041  10.660   9.631  10.013 -0.2869  1.1815 -0.9799
  319MOL0     C42042  10.664   9.768   9.991  0.6352  0.4151 -0.2964
  319MOL0     H42043  11.046  10.186  10.206 -0.3739  1.1640  0.2365
  319MOL0     H42044  11.051  10.430  10.304  0.4865 -1.7846  0.1612
  319MOL0     H42045  10.765  10.574  10.465 -3.7099  1.3151  0.5472
  319MOL0     H42046  10.688  10.677  10.344  0.5007 -2.9076 -2.0141
  319MOL0     H42047  10.899  10.829  10.389 -2.8381  0.6731 -1.2677
  319MOL0     H42048  10.916  10.728  10.533 -1.4177 -2.4206  0.1637
  319MOL0     H42049  10.801  10.924  10.602  2.7765 -1.4680 -0.7559
  319MOL0     H42050  10.686  10.789  10.602  4.8284 -1.0537  3.2099
  319MOL0     H42051  10.684  11.000  10.384 -0.4246  1.8537  1.2538
  319MOL0     H42052  10.581  10.858  10.383 -2.1237  2.6649 -0.6859
  319MOL0     H42053  10.532  11.112  10.459  3.5282 -1.0828 -1.0264
  319MOL0     H42054  10.578  11.030  10.619 -1.9960  0.1585  0.5156
  319MOL0     H42055  10.408  10.890  10.620  2.8812 -1.5140 -1.6296
  319MOL0     H42056  10.371  10.912  10.444 -0.9098  2.3502 -0.9797
  319MOL0     H42057  10.296  11.134  10.486 -0.6003 -0.0171  0.8093
  319MOL0     H42058  10.202  11.001  10.547 -0.3339 -0.8042  0.5483
  319MOL0     H42059  10.248  11.222  10.692  2.5783  1.2887 -2.1078
  319MOL0     H42060  10.407  11.158  10.718  0.5048 -0.0301  0.2660
  319MOL0     H42061  10.050  11.125  10.835 -0.7410  0.7073 -0.1678
  319MOL0     H42062   9.978  11.023  11.108  0.9552 -0.1137 -2.3583
  319MOL0     H42063  10.054  10.865  11.126 -0.7474  1.1661  2.3380
  319MOL0     H42064   9.856  10.804  11.057 -1.9161  1.2880 -0.6526
  319MOL0     H42065   9.951  10.794  10.900 -1.5107 -1.1854  0.4286
  319MOL0     H42066   9.796  11.036  10.955 -1.9922 -2.0220  1.1799
  319MOL0     H42067   9.848  10.954  10.805  2.6536  0.4222  0.5299
  319MOL0     H42068   9.605  10.946  10.855 -0.1616 -1.8441 -2.1552
  319MOL0     H42069   9.634  10.867  11.006  0.8193  0.6846 -0.0458
  319MOL0     H42070   9.423  10.786  10.859 -0.0663 -1.5281  0.0412
  319MOL0     H42071   9.261  10.615  10.930  0.3960 -2.1488  2.0409
  319MOL0     H42072   8.989  10.386  11.196 -0.0410 -0.7728 -0.4259
  319MOL0     H42073   8.781  10.263  11.184  0.4097  2.2861  0.4626
  319MOL0     H42074   8.658  10.116  10.778 -2.6665  0.0901 -0.7203
  319MOL0     H42075   8.619  10.275  10.839  0.6361  0.8623  2.5154
  319MOL0     H42076   8.471  10.021  10.864  0.2345  1.3690 -1.7789
  319MOL0     H42077   8.419  10.158  10.782 -4.1341 -0.5030  1.9801
  319MOL0     H42078   8.401  10.292  11.008 -1.1060  0.0449  2.0339
  319MOL0     H42079   8.440  10.159  11.093 -0.7888 -0.1398 -0.0242
  319MOL0     H42080   8.194  10.172  11.079  2.3001 -2.5971  1.3787
  319MOL0     H42081   8.202  10.219  10.919 -0.5998  1.6580  1.0645
  319MOL0     H42082   8.298   9.953  11.011 -1.6322 -1.0479  0.8974
  319MOL0     H42083   8.254   9.989  10.840 -1.7934  1.2805 -0.2796
  319MOL0     H42084   8.014   9.978  10.901  1.0806  3.1606 -0.1159
  319MOL0     H42085   8.033   9.965  11.068  0.8229 -0.5404 -0.1128
  319MOL0     H42086   8.125   9.762  10.859  0.9418 -5.0270  1.5890
  319MOL0     H42087   8.157   9.739  11.021 -3.3933 -2.8903  0.2268
  319MOL0     H42088   7.910   9.752  11.052  3.7844  0.0241  1.3882
  319MOL0     H42089   7.957   9.607  10.956 -0.0650 -0.8765 -0.2123
  319MOL0     H42090   8.898  10.115  10.794  2.5452  0.8692  0.3664
  319MOL0     H42091   9.084  10.243  10.806  0.9062 -0.8834  2.2335
  319MOL0     H42092   9.569  10.330  10.934 -1.9967 -0.0387  1.6919
  319MOL0     H42093   9.723  10.465  10.874 -1.7928 -3.3073  3.1476
  319MOL0     H42094  10.654  10.480  10.175 -1.1289 -2.8064  0.1467
  319MOL0     H42095  10.640  10.260  10.107  1.5777 -3.2048 -1.8394
  319MOL0     H42096  10.873   9.842  10.247  1.2588  2.2791 -2.6751
  319MOL0     H42097  10.858   9.586  10.273  0.5325 -1.4375 -0.3039
  319MOL0     H42098  10.865   9.456   9.934 -1.9226  2.1125  2.9117
  319MOL0     H42099  10.753   9.322   9.931  3.0419  0.3927 -4.1757
  319MOL0     H42100  11.004   9.259   9.976  1.0285 -2.1745  0.5422
  319MOL0     H42101  10.987   9.331  10.128 -2.6342  2.0017  1.3247
  319MOL0     H42102  10.784   9.116  10.052 -3.1002  5.4290  0.0578
  319MOL0     H42103  10.816   9.183  10.207 -1.1891 -0.2891 -1.3093
  319MOL0     H42104  11.060   9.097  10.193  1.2506 -2.8899  1.4074
  319MOL0     H42105  10.925   8.970  10.214 -1.3514  0.0501 -2.1836
  319MOL0     H42106  11.074   8.889   9.834 -0.4391 -1.8570  1.0275
  319MOL0     H42107  10.592   9.569   9.955 -1.8204  1.6784  0.2268
  319MOL0     H42108  10.600   9.802   9.909 -0.6420  0.7421  0.7915
  320MOL0     O42109   8.952   7.062   5.591 -0.2179  0.0800 -0.7777
  320MOL0     C42110   8.836   7.020   5.560  0.3173 -0.2041 -0.1424
  320MOL0     O42111   8.812   6.966   5.435  0.3381 -0.2350  0.4316
  320MOL0     C42112   8.907   6.889   5.370 -0.4489 -0.5225 -0.6290
  320MOL0     C42113   8.956   6.765   5.423 -0.8209 -0.2433 -0.0596
  320MOL0     C42114   9.062   6.703   5.361  1.2681  0.8745  0.0062
  320MOL0     C42115   9.104   6.750   5.238  0.1316  0.2096  0.7879
  320MOL0     O42116   9.197   6.680   5.169 -0.0135  0.5490  0.1971
  320MOL0     C42117   9.309   6.761   5.109 -0.0850  0.5165  0.4747
  320MOL0     C42118   9.428   6.670   5.109  1.0762 -0.3472  0.6948
  320MOL0     C42119   9.496   6.634   5.242 -0.4186  0.1270  1.2385
  320MOL0     C42120   9.559   6.754   5.321  0.2100 -0.1055  0.5328
  320MOL0     C42121   9.622   6.709   5.453  0.9810  0.6607  0.0959
  320MOL0     C42122   9.759   6.643   5.439 -1.3284  0.0616 -0.5619
  320MOL0     C42123   9.852   6.761   5.391  0.6565 -0.6007 -0.7506
  320MOL0     C42124   9.992   6.722   5.422 -0.8638 -0.1252  0.4945
  320MOL0     N42125  10.070   6.835   5.395  0.5294 -0.1597 -0.5226
  320MOL0     C42126  10.140   6.906   5.496 -0.4553 -0.0999  0.4446
  320MOL0     C42127  10.211   6.999   5.421 -0.3080  1.0803  0.3301
  320MOL0     C42128  10.321   7.086   5.466  0.3135 -0.4187  0.7507
  320MOL0     C42129  10.367   7.086   5.609 -0.1026 -0.1880 -0.3136
  320MOL0     C42130  10.486   7.184   5.645  0.2429 -0.2505  0.0415
  320MOL0     C42131  10.484   7.317   5.569  0.4866  0.1215 -0.0279
  320MOL0     O42132  10.565   7.404   5.646  0.1543 -0.0679 -0.2077
  320MOL0     C42133  10.691   7.423   5.609 -1.0666 -0.7496 -0.5173
  320MOL0     C42134  10.757   7.530   5.674  0.0942  0.4883 -0.1163
  320MOL0     C42135  10.884   7.566   5.648 -0.2159  0.1572 -0.5428
  320MOL0     C42136  10.973   7.482   5.577  0.4733 -0.2121  0.3328
  320MOL0     C42137  11.117   7.523   5.574 -1.1481  0.3592 -0.1438
  320MOL0     O42138  11.172   7.608   5.672 -0.4096 -0.1860  0.0477
  320MOL0     C42139  11.305   7.624   5.671 -0.0010 -1.0485  0.3222
  320MOL0     C42140  11.397   7.519   5.700 -0.3566  0.3461  0.1284
  320MOL0     C42141  11.531   7.539   5.719 -0.0269 -0.4761 -0.3686
  320MOL0     C42142  11.574   7.670   5.706 -0.6794  0.3905  0.0715
  320MOL0     O42143  11.702   7.667   5.716  0.4117  0.1762  0.3690
  320MOL0     C42144  11.774   7.786   5.681 -0.3307 -0.1532  0.0251
  320MOL0     C42145  11.915   7.787   5.733  0.0008 -0.1027 -0.0879
  320MOL0     C42146  12.007   7.660   5.696 -0.1670 -0.2288 -0.3304
  320MOL0     C42147  12.117   7.642   5.789 -0.2193  0.1935 -0.0787
  320MOL0     C42148  12.221   7.754   5.779  0.3564  0.2741  0.1174
  320MOL0     C42149  12.336   7.749   5.867 -0.7535  0.7502 -0.5466
  320MOL0     C42150  12.301   7.804   6.014  0.2771 -0.1611  0.4264
  320MOL0     C42151  12.391   7.754   6.124 -0.1272 -0.3120 -0.2312
  320MOL0    Cl42152  12.428   7.885   6.248  0.4949  0.0264 -0.6278
  320MOL0     C42153  11.491   7.772   5.661 -0.0065  0.5199 -0.1554
  320MOL0     C42154  11.355   7.750   5.640  0.4482 -0.0023 -0.0762
  320MOL0     O42155  11.177   7.473   5.477 -0.4780  0.3739 -0.2764
  320MOL0     C42156  10.917   7.377   5.504  0.6139 -0.7683 -0.4907
  320MOL0     C42157  10.777   7.348   5.522  1.0480 -0.2691 -0.2995
  320MOL0     N42158  10.177   6.979   5.285  0.6802 -0.0523 -0.2844
  320MOL0     N42159  10.103   6.873   5.269 -0.6616 -0.1006  0.8418
  320MOL0     C42160   9.055   6.865   5.181  0.7039 -0.3727  0.1466
  320MOL0     C42161   8.955   6.941   5.247 -0.5829 -0.6206 -1.0113
  320MOL0     C42162   8.716   7.030   5.649 -0.7692  0.3639 -0.4873
  320MOL0     C42163   8.593   7.062   5.590 -0.1608 -1.2250 -0.6506
  320MOL0     C42164   8.479   7.072   5.662  0.1846  0.5926 -0.7085
  320MOL0     C42165   8.480   7.066   5.803  1.3715  0.6078 -0.9709
  320MOL0     O42166   8.366   7.064   5.882  0.1429  0.2621  0.4343
  320MOL0     C42167   8.241   7.102   5.814 -0.1361 -0.2535 -0.1538
  320MOL0     C42168   8.120   7.090   5.916 -0.9242 -0.2981  0.4439
  320MOL0     C42169   8.010   7.186   5.875  0.2148 -0.7054 -0.0280
  320MOL0     C42170   7.880   7.183   5.955  0.7425 -0.2735  0.0030
  320MOL0     C42171   7.793   7.068   5.938  0.2749 -0.3134  0.6029
  320MOL0     C42172   7.745   6.954   5.923 -0.3778  0.2476  0.1045
  320MOL0     C42173   8.603   7.051   5.867 -0.6705 -0.5939  0.7801
  320MOL0     C42174   8.710   7.025   5.794 -0.1323 -0.2234  1.5201
  320MOL0     H42175   8.909   6.722   5.511  0.7106 -3.8115 -0.7923
  320MOL0     H42176   9.099   6.621   5.422  0.4673  0.7150  0.2971
  320MOL0     H42177   9.334   6.844   5.175  1.4881  0.6344 -0.2319
  320MOL0     H42178   9.292   6.796   5.007  0.7511  1.9887  0.8140
  320MOL0     H42179   9.503   6.711   5.041 -0.1364  2.0086  0.6726
  320MOL0     H42180   9.389   6.579   5.061  1.2799 -0.6468  1.0857
  320MOL0     H42181   9.579   6.567   5.219  1.9249  3.4682 -0.9251
  320MOL0     H42182   9.437   6.575   5.312  2.9056 -1.8077  2.6421
  320MOL0     H42183   9.640   6.807   5.270 -2.0227  3.1542  0.1235
  320MOL0     H42184   9.480   6.827   5.339  0.6223  0.8376 -1.2745
  320MOL0     H42185   9.556   6.638   5.504  1.4960 -0.5699 -0.8652
  320MOL0     H42186   9.625   6.797   5.518  1.1343  1.6885 -1.2731
  320MOL0     H42187   9.760   6.560   5.368  2.5918  0.2367 -0.9628
  320MOL0     H42188   9.788   6.613   5.540 -1.1217 -2.7811 -1.3643
  320MOL0     H42189   9.851   6.781   5.284  2.0864  0.5198 -0.5816
  320MOL0     H42190   9.833   6.859   5.438  4.3340 -0.2241  0.2760
  320MOL0     H42191  10.019   6.637   5.358  1.3790 -0.0742  1.3049
  320MOL0     H42192  10.003   6.686   5.525 -0.9442 -0.2809  0.4494
  320MOL0     H42193  10.163   6.881   5.599  3.5440  1.7953  0.2271
  320MOL0     H42194  10.281   7.186   5.447  3.9397  1.1719  0.6648
  320MOL0     H42195  10.401   7.086   5.392 -0.7379  0.1412 -0.4393
  320MOL0     H42196  10.384   6.980   5.628  0.7994 -0.7427 -3.5038
  320MOL0     H42197  10.279   7.114   5.668  0.1028 -1.9775  0.9226
  320MOL0     H42198  10.505   7.197   5.752  2.8719 -3.8198  0.1691
  320MOL0     H42199  10.572   7.124   5.616 -1.5549 -3.3499  0.7047
  320MOL0     H42200  10.389   7.370   5.569  0.1797 -0.4058 -0.9324
  320MOL0     H42201  10.508   7.305   5.462 -0.8754  0.6625 -0.4131
  320MOL0     H42202  10.697   7.590   5.742 -1.9225  0.8410 -2.0628
  320MOL0     H42203  10.919   7.649   5.708 -2.7451  0.2474  0.9753
  320MOL0     H42204  11.358   7.418   5.708  1.5937 -0.3672  1.4700
  320MOL0     H42205  11.602   7.461   5.743  1.1274 -0.3475 -3.0021
  320MOL0     H42206  11.724   7.875   5.718 -0.1317  0.3779 -0.9506
  320MOL0     H42207  11.784   7.790   5.572  3.5194 -0.5364  0.2310
  320MOL0     H42208  11.901   7.782   5.842  3.7977 -2.6603  0.4688
  320MOL0     H42209  11.960   7.876   5.689  1.2185 -1.5046 -1.8462
  320MOL0     H42210  12.050   7.665   5.595  2.3415 -1.3994  0.6096
  320MOL0     H42211  11.945   7.570   5.703  0.4392 -0.6380 -0.1166
  320MOL0     H42212  12.070   7.637   5.888 -2.2686 -3.5317 -1.0520
  320MOL0     H42213  12.156   7.552   5.740 -0.1143  1.1611 -1.8713
  320MOL0     H42214  12.166   7.840   5.816  1.4627  0.9985  0.1179
  320MOL0     H42215  12.263   7.765   5.678  2.8281  2.0083  1.2464
  320MOL0     H42216  12.418   7.804   5.819  1.6506 -0.9633  1.3618
  320MOL0     H42217  12.376   7.648   5.873  0.2735  0.9807 -2.6658
  320MOL0     H42218  12.295   7.913   6.009 -1.9201 -0.2928 -0.9464
  320MOL0     H42219  12.199   7.775   6.041 -1.1237  0.9513 -3.1171
  320MOL0     H42220  12.487   7.721   6.082 -0.5972 -3.9821  1.2684
  320MOL0     H42221  12.352   7.661   6.165  0.7271 -0.5178  0.1434
  320MOL0     H42222  11.529   7.872   5.641  2.6290 -0.6316 -1.2734
  320MOL0     H42223  11.291   7.833   5.612  1.8934  0.5928 -1.8339
  320MOL0     H42224  10.983   7.317   5.441  0.8264 -0.8537 -0.1857
  320MOL0     H42225  10.737   7.262   5.471 -2.4035  0.7408  0.4624
  320MOL0     H42226   9.103   6.912   5.095  4.0073 -0.3211  1.8479
  320MOL0     H42227   8.907   7.031   5.213  0.3471 -0.0196 -0.7756
  320MOL0     H42228   8.591   7.063   5.481 -0.0148  0.0430 -0.6567
  320MOL0     H42229   8.388   7.057   5.605 -0.1111 -3.0451  0.4925
  320MOL0     H42230   8.218   7.031   5.733 -0.6237 -0.4063  0.1092
  320MOL0     H42231   8.256   7.200   5.769  1.7324 -1.3106 -1.9921
  320MOL0     H42232   8.083   6.987   5.913  0.0245 -0.6889  1.4505
  320MOL0     H42233   8.154   7.115   6.017 -1.6940 -1.8981  1.1328
  320MOL0     H42234   7.993   7.149   5.773  0.4245 -1.8247  0.3335
  320MOL0     H42235   8.037   7.292   5.876  0.1377 -0.6443 -1.5925
  320MOL0     H42236   7.921   7.189   6.057  0.3119  2.3310  0.1130
  320MOL0     H42237   7.816   7.270   5.936  1.6684  0.6413  0.9579
  320MOL0     H42238   7.693   6.862   5.908  0.0386  0.2936 -2.0244
  320MOL0     H42239   8.604   7.055   5.975  4.1209  0.3323  0.9170
  320MOL0     H42240   8.801   7.016   5.853  2.2835  0.8725 -1.7452
  321MOL0     O42241   9.398   9.889   7.222  0.1964 -0.6528 -0.3462
  321MOL0     C42242   9.438   9.806   7.302  0.2293  0.2373 -0.1064
  321MOL0     O42243   9.567   9.770   7.329  0.2774  1.1316  0.3405
  321MOL0     C42244   9.662   9.853   7.274  1.1033 -0.7158  0.2002
  321MOL0     C42245   9.765   9.803   7.195 -0.3157  0.7345 -0.1498
  321MOL0     C42246   9.860   9.884   7.139 -0.1927 -0.2384 -0.4409
  321MOL0     C42247   9.884  10.013   7.179  0.0269 -0.4326 -0.9218
  321MOL0     O42248  10.000  10.080   7.155 -0.7201  0.6927  0.5276
  321MOL0     C42249   9.988  10.212   7.097 -0.6998 -0.5670 -0.5106
  321MOL0     C42250  10.128  10.264   7.069  0.1227 -0.2459 -0.3827
  321MOL0     C42251  10.220  10.271   7.191  0.6301  0.5929 -0.0072
  321MOL0     C42252  10.363  10.300   7.173  0.6949 -0.6811  0.3096
  321MOL0     C42253  10.434  10.262   7.316  0.2455  0.4449  0.7824
  321MOL0     C42254  10.584  10.314   7.319  1.5051  0.2538 -0.3611
  321MOL0     C42255  10.599  10.467   7.309 -0.7584 -0.2701 -0.1029
  321MOL0     C42256  10.742  10.516   7.337  0.3950  0.5328 -0.2784
  321MOL0     N42257  10.744  10.652   7.287  0.3739  0.3039  0.8294
  321MOL0     C42258  10.699  10.768   7.343 -0.1952  0.8131 -0.4193
  321MOL0     C42259  10.744  10.866   7.266  0.0360 -1.0742  0.2985
  321MOL0     C42260  10.726  11.020   7.297 -0.2234  0.3601 -0.3572
  321MOL0     C42261  10.600  11.090   7.257  0.7537 -0.4277 -0.0514
  321MOL0     C42262  10.584  11.233   7.328 -0.3908 -0.2969  0.1622
  321MOL0     C42263  10.446  11.282   7.296 -0.0092 -0.3143 -0.1998
  321MOL0     O42264  10.356  11.219   7.387 -0.8249  0.5625 -0.5900
  321MOL0     C42265  10.218  11.211   7.367  0.3261 -0.1591 -0.4567
  321MOL0     C42266  10.156  11.186   7.248 -0.6664 -0.0207  0.4943
  321MOL0     C42267  10.022  11.196   7.232  0.2047 -0.2962  0.3173
  321MOL0     C42268   9.939  11.224   7.342  0.5414 -0.4381 -0.3165
  321MOL0     C42269   9.792  11.208   7.333 -0.3079 -0.5139  0.1134
  321MOL0     O42270   9.740  11.170   7.218  0.4008 -0.4836  0.5447
  321MOL0     C42271   9.608  11.127   7.209 -0.8621 -0.0604  0.8287
  321MOL0     C42272   9.531  11.056   7.307 -0.1260 -0.3407 -0.0844
  321MOL0     C42273   9.395  11.041   7.292 -0.3364 -1.1671 -0.0331
  321MOL0     C42274   9.323  11.088   7.177 -0.4236  0.1900  0.5900
  321MOL0     O42275   9.188  11.065   7.175 -0.2005  0.4457  0.5157
  321MOL0     C42276   9.104  11.097   7.063 -0.3449 -0.5313  0.5797
  321MOL0     C42277   8.969  11.039   7.078  0.4777 -0.1977 -0.8787
  321MOL0     C42278   8.889  11.103   7.199  0.9982 -0.5708 -0.6946
  321MOL0     C42279   8.738  11.066   7.179 -1.0578 -0.9779  0.0122
  321MOL0     C42280   8.644  11.152   7.270  0.9269 -0.3676  1.1859
  321MOL0     C42281   8.600  11.293   7.211 -0.2252 -0.4509 -0.6638
  321MOL0     C42282   8.493  11.348   7.301  0.6002 -0.2532  0.1804
  321MOL0     C42283   8.412  11.465   7.237 -0.5333 -0.8204 -0.3187
  321MOL0    Cl42284   8.298  11.539   7.357 -0.1197 -0.2462 -0.3467
  321MOL0     C42285   9.395  11.161   7.076  0.2267 -0.3967 -0.2165
  321MOL0     C42286   9.532  11.177   7.094 -0.0463  0.3450  0.1303
  321MOL0     O42287   9.726  11.241   7.431 -0.4002 -0.3702 -0.1707
  321MOL0     C42288   9.994  11.247   7.471 -0.6415  0.0520 -0.0162
  321MOL0     C42289  10.132  11.245   7.481 -0.3367  0.0974  1.5752
  321MOL0     N42290  10.791  10.804   7.149 -0.3490  0.1102  0.1252
  321MOL0     N42291  10.800  10.676   7.166  0.0136  0.4778 -0.4456
  321MOL0     C42292   9.782  10.067   7.258  1.2438  0.3513 -0.5382
  321MOL0     C42293   9.674   9.989   7.308 -0.9200  0.2529  0.2015
  321MOL0     C42294   9.332   9.727   7.378 -0.1112  0.3718 -0.0582
  321MOL0     C42295   9.348   9.598   7.428 -0.2910  0.1638 -0.6450
  321MOL0     C42296   9.254   9.538   7.510  0.0621 -0.3093 -0.3813
  321MOL0     C42297   9.141   9.608   7.545  0.2943 -1.0090  0.0493
  321MOL0     O42298   9.061   9.540   7.628 -0.2989 -0.4601  0.6628
  321MOL0     C42299   8.964   9.601   7.716 -0.9927 -0.0391  0.5861
  321MOL0     C42300   8.944   9.528   7.850 -0.2822 -0.1075 -0.5730
  321MOL0     C42301   8.832   9.423   7.841  0.3363  0.0454  0.3339
  321MOL0     C42302   8.877   9.307   7.758  0.1423  0.0853  0.3437
  321MOL0     C42303   8.985   9.230   7.821  0.6108  0.3303 -0.2614
  321MOL0     C42304   9.077   9.170   7.864  0.4405 -0.0033  0.6534
  321MOL0     C42305   9.114   9.732   7.492  0.3026 -0.1112 -0.0322
  321MOL0     C42306   9.214   9.797   7.414  0.4972  0.2018 -1.0655
  321MOL0     H42307   9.759   9.700   7.162  2.4800 -0.0591  1.4156
  321MOL0     H42308   9.934   9.835   7.077  1.0098  0.9891 -0.0407
  321MOL0     H42309   9.942  10.283   7.165 -0.8097 -1.5899  0.5085
  321MOL0     H42310   9.934  10.211   7.001 -0.5178  1.3969 -0.6625
  321MOL0     H42311  10.125  10.366   7.030 -0.6047  0.3313  1.0821
  321MOL0     H42312  10.179  10.207   6.991  0.1116  1.5333 -1.7230
  321MOL0     H42313  10.218  10.170   7.232  2.8611 -0.2774 -1.7943
  321MOL0     H42314  10.169  10.335   7.264 -1.0641 -3.3248  2.5671
  321MOL0     H42315  10.421  10.235   7.106 -1.0483 -1.6264 -0.3499
  321MOL0     H42316  10.365  10.404   7.139 -3.7457  0.0164  1.6042
  321MOL0     H42317  10.428  10.154   7.328  1.0988  0.4923  1.7471
  321MOL0     H42318  10.374  10.294   7.402 -1.7630  0.1978 -0.4490
  321MOL0     H42319  10.638  10.262   7.239  2.1062  1.8550 -1.0468
  321MOL0     H42320  10.638  10.284   7.409  3.3956  1.9544 -0.8606
  321MOL0     H42321  10.570  10.499   7.208 -2.4418 -0.7004  0.2028
  321MOL0     H42322  10.531  10.518   7.378  0.0014  2.7574 -1.4206
  321MOL0     H42323  10.817  10.455   7.286 -0.5612  1.2296 -2.6563
  321MOL0     H42324  10.755  10.514   7.446 -0.2555 -0.0408 -0.2057
  321MOL0     H42325  10.648  10.773   7.439  2.4715  1.0924  1.0632
  321MOL0     H42326  10.809  11.075   7.252  0.9463 -1.9344 -1.1683
  321MOL0     H42327  10.725  11.032   7.406 -1.3921 -0.6998 -0.2299
  321MOL0     H42328  10.515  11.027   7.283 -1.5900  0.8464 -3.7234
  321MOL0     H42329  10.599  11.098   7.148  1.8917 -0.6423 -0.0877
  321MOL0     H42330  10.600  11.217   7.435 -5.9476 -4.2975  0.8068
  321MOL0     H42331  10.666  11.293   7.288  2.4068 -2.2752  2.4567
  321MOL0     H42332  10.415  11.269   7.192  0.9077  0.9827 -0.6539
  321MOL0     H42333  10.449  11.389   7.318 -1.3079 -0.3641  0.3186
  321MOL0     H42334  10.221  11.167   7.163 -0.1763  3.1959  0.0290
  321MOL0     H42335   9.989  11.166   7.133  1.6240  0.2685 -0.3618
  321MOL0     H42336   9.576  11.029   7.402 -2.4819  1.2235  1.5542
  321MOL0     H42337   9.338  10.992   7.371  0.8271  2.2146  3.2202
  321MOL0     H42338   9.157  11.060   6.975 -2.8137 -1.0164 -0.8204
  321MOL0     H42339   9.090  11.206   7.057  2.0486 -0.2313 -1.2039
  321MOL0     H42340   8.972  10.930   7.087 -1.3927 -0.1716  0.6481
  321MOL0     H42341   8.919  11.063   6.983  1.4469 -0.5230 -1.4882
  321MOL0     H42342   8.899  11.211   7.211 -0.4734 -0.5117  0.2215
  321MOL0     H42343   8.924  11.075   7.299  2.8054  1.0463 -0.8082
  321MOL0     H42344   8.710  11.076   7.074  0.8998 -0.6011 -0.5064
  321MOL0     H42345   8.728  10.962   7.212 -0.4558 -0.8014  0.8031
  321MOL0     H42346   8.677  11.174   7.371  1.5436  0.5482  0.7952
  321MOL0     H42347   8.553  11.092   7.279 -0.2375  1.5309  2.8341
  321MOL0     H42348   8.566  11.276   7.108  0.1759  1.1853 -1.1062
  321MOL0     H42349   8.681  11.366   7.202 -0.2213 -0.4988 -1.0376
  321MOL0     H42350   8.421  11.267   7.315  0.4182 -0.1997 -0.4053
  321MOL0     H42351   8.521  11.372   7.404 -3.7487  1.3870  1.2076
  321MOL0     H42352   8.344  11.440   7.155 -0.9523  1.0558 -0.5951
  321MOL0     H42353   8.469  11.540   7.182 -3.0550 -0.7634 -3.1080
  321MOL0     H42354   9.345  11.203   6.989 -1.4676 -0.6855  0.5927
  321MOL0     H42355   9.589  11.251   7.040  0.2557 -0.9782 -1.4286
  321MOL0     H42356   9.924  11.285   7.545  0.5162  2.3431 -0.0208
  321MOL0     H42357  10.182  11.273   7.572  1.0551  0.2399  0.7891
  321MOL0     H42358   9.786  10.173   7.283 -2.1395  0.6434 -0.7725
  321MOL0     H42359   9.610  10.043   7.377 -2.3031 -2.5028  1.2363
  321MOL0     H42360   9.440   9.549   7.398  0.4023 -0.2366  1.8662
  321MOL0     H42361   9.273   9.441   7.556  1.7605  0.9039  1.6699
  321MOL0     H42362   8.872   9.587   7.660  0.5987 -2.1232 -1.6901
  321MOL0     H42363   8.982   9.709   7.724  2.0782 -0.2214 -1.8038
  321MOL0     H42364   9.038   9.477   7.870 -0.7400 -2.4366 -3.6790
  321MOL0     H42365   8.914   9.599   7.928 -1.3154 -0.4942 -0.5953
  321MOL0     H42366   8.749   9.467   7.786  1.0667 -0.8630 -1.5712
  321MOL0     H42367   8.795   9.383   7.936 -0.6995 -0.6846 -0.3593
  321MOL0     H42368   8.795   9.237   7.740  1.7751 -1.8952  0.1040
  321MOL0     H42369   8.906   9.351   7.661  2.2713 -0.6127  0.5998
  321MOL0     H42370   9.160   9.115   7.904  0.9999 -0.7109 -1.3542
  321MOL0     H42371   9.021   9.783   7.516 -0.6265 -1.9764  0.4949
  321MOL0     H42372   9.201   9.899   7.380 -1.8639  0.2313 -0.2595
  322MOL0     O42373   5.165   3.597   6.964 -0.7048  0.1234  0.4105
  322MOL0     C42374   5.151   3.507   6.886 -0.9487  0.3188  0.5642
  322MOL0     O42375   5.215   3.504   6.760  1.4198  0.1584 -0.2911
  322MOL0     C42376   5.318   3.580   6.731  0.6903  0.5337  0.0981
  322MOL0     C42377   5.414   3.629   6.818  0.3458 -0.5259 -0.2761
  322MOL0     C42378   5.513   3.709   6.763  0.2649 -0.1298  1.0010
  322MOL0     C42379   5.520   3.744   6.626 -0.6240  0.4200 -0.0029
  322MOL0     O42380   5.628   3.815   6.594 -0.5548 -0.3258  0.0323
  322MOL0     C42381   5.673   3.815   6.463  0.3900 -0.3065 -0.8975
  322MOL0     C42382   5.828   3.804   6.477  0.1644  0.3790 -0.1176
  322MOL0     C42383   5.872   3.667   6.521  0.2796  0.5477  0.4387
  322MOL0     C42384   6.030   3.655   6.495  0.7490  0.0644 -0.0978
  322MOL0     C42385   6.093   3.510   6.493  0.4662  0.4648 -0.1278
  322MOL0     C42386   6.048   3.426   6.613 -0.1454  0.9848 -0.2968
  322MOL0     C42387   6.083   3.480   6.752 -0.1045  0.2973 -0.2617
  322MOL0     C42388   6.222   3.460   6.804  0.7086 -0.0040  1.1746
  322MOL0     N42389   6.260   3.321   6.837 -0.3770 -0.4788  0.4259
  322MOL0     C42390   6.330   3.249   6.754 -0.1779  0.0573 -0.0617
  322MOL0     C42391   6.361   3.142   6.830 -0.1428  0.2068  1.5142
  322MOL0     C42392   6.466   3.034   6.797 -0.0420  0.7208 -0.5580
  322MOL0     C42393   6.403   2.944   6.693 -0.3092 -0.5369 -0.5589
  322MOL0     C42394   6.273   2.872   6.742 -0.6679 -0.5247  0.0515
  322MOL0     C42395   6.293   2.801   6.875  0.2512  0.0910 -0.2368
  322MOL0     O42396   6.424   2.738   6.878  0.0653 -0.3132 -0.3307
  322MOL0     C42397   6.499   2.723   6.994 -0.2219  0.2368  0.0102
  322MOL0     C42398   6.637   2.703   6.995  0.4392  0.0395  0.0901
  322MOL0     C42399   6.711   2.672   7.109 -0.4767  0.1433 -0.0944
  322MOL0     C42400   6.646   2.657   7.232 -0.2977 -0.1393  0.0136
  322MOL0     C42401   6.710   2.622   7.359  0.0924 -0.3167 -0.2181
  322MOL0     O42402   6.635   2.643   7.475 -0.0173  0.0300 -0.0594
  322MOL0     C42403   6.668   2.607   7.599  0.1691 -1.0165 -0.7923
  322MOL0     C42404   6.560   2.614   7.690 -0.7145  0.3590 -0.4740
  322MOL0     C42405   6.571   2.556   7.817  0.8954  0.2185  0.0747
  322MOL0     C42406   6.695   2.510   7.861  0.8858 -0.1968  1.0146
  322MOL0     O42407   6.718   2.443   7.972 -0.1106  0.4928 -0.5877
  322MOL0     C42408   6.617   2.411   8.071  0.9437 -0.1517 -0.6320
  322MOL0     C42409   6.650   2.304   8.172 -1.1187 -0.7411 -0.9188
  322MOL0     C42410   6.710   2.182   8.110 -0.2624 -0.9652  0.0939
  322MOL0     C42411   6.819   2.128   8.195  0.1404 -0.2189 -0.4628
  322MOL0     C42412   6.866   1.987   8.160 -0.9596 -0.2575 -0.1581
  322MOL0     C42413   6.766   1.879   8.221  0.0319  0.1297  0.1654
  322MOL0     C42414   6.824   1.741   8.250 -0.0735 -0.7051 -0.0531
  322MOL0     C42415   6.742   1.651   8.356 -0.5024 -1.5391  0.7082
  322MOL0    Cl42416   6.793   1.687   8.525 -0.3419 -0.2193  0.1406
  322MOL0     C42417   6.793   2.501   7.769  0.1863 -0.1663 -0.9352
  322MOL0     C42418   6.788   2.552   7.634 -0.2214  0.1407 -0.1958
  322MOL0     O42419   6.822   2.582   7.355  0.3196 -0.8098  0.1113
  322MOL0     C42420   6.509   2.694   7.238 -0.0927  0.0463 -0.0541
  322MOL0     C42421   6.436   2.720   7.119 -0.1649  0.0716  0.0458
  322MOL0     N42422   6.301   3.147   6.949  0.3910 -0.6831  0.1143
  322MOL0     N42423   6.244   3.257   6.958 -0.2942 -0.5521 -0.6114
  322MOL0     C42424   5.422   3.690   6.536 -0.2533  0.9221 -0.1656
  322MOL0     C42425   5.327   3.604   6.592  0.2483  0.1764 -0.3245
  322MOL0     C42426   5.061   3.402   6.927 -0.1223 -0.3826  1.2495
  322MOL0     C42427   4.976   3.350   6.828 -0.2158  0.2300  0.7418
  322MOL0     C42428   4.883   3.249   6.861 -0.0933  0.5490  0.2310
  322MOL0     C42429   4.864   3.209   6.995 -0.2926  0.6595 -0.2396
  322MOL0     O42430   4.772   3.120   7.033  0.5731 -0.2295  0.2044
  322MOL0     C42431   4.708   3.035   6.936  0.6716  0.0155 -0.3734
  322MOL0     C42432   4.629   2.925   7.012 -0.0121  0.2774 -0.0554
  322MOL0     C42433   4.540   2.842   6.914  0.1702 -0.3591 -1.1343
  322MOL0     C42434   4.618   2.748   6.829  0.0259 -0.7283  0.4843
  322MOL0     C42435   4.530   2.680   6.730 -0.4273  0.0816  0.3462
  322MOL0     C42436   4.471   2.613   6.645 -0.7494  0.3745  0.3605
  322MOL0     C42437   4.945   3.278   7.092  0.3588  0.0312 -0.9890
  322MOL0     C42438   5.044   3.362   7.059  0.1166  0.5188  0.2161
  322MOL0     H42439   5.402   3.624   6.925  1.6548 -2.3689 -0.1706
  322MOL0     H42440   5.590   3.756   6.822 -1.1250  0.6305  2.2820
  322MOL0     H42441   5.654   3.911   6.416 -1.2609  2.8872  5.1939
  322MOL0     H42442   5.630   3.739   6.397 -2.3989 -1.1663  1.6873
  322MOL0     H42443   5.863   3.880   6.548  2.1028 -0.3665 -0.2033
  322MOL0     H42444   5.862   3.822   6.375  2.2774 -0.2474  0.4054
  322MOL0     H42445   5.827   3.587   6.461 -1.8422  2.7095 -1.0433
  322MOL0     H42446   5.848   3.640   6.624  2.2509 -1.7983  0.3859
  322MOL0     H42447   6.053   3.704   6.400  0.1070 -1.6754 -1.1928
  322MOL0     H42448   6.094   3.712   6.562  3.0557 -2.5795  0.1377
  322MOL0     H42449   6.199   3.534   6.485  1.3982 -1.4411  4.1004
  322MOL0     H42450   6.070   3.456   6.401  0.0342 -1.0876  0.8602
  322MOL0     H42451   6.063   3.318   6.608  2.0984  1.2355 -0.0505
  322MOL0     H42452   5.939   3.422   6.616 -0.2006  1.9184  3.0977
  322MOL0     H42453   6.055   3.586   6.756 -0.8046  0.1688 -1.3051
  322MOL0     H42454   6.010   3.435   6.820  0.7562  2.5123  2.3364
  322MOL0     H42455   6.230   3.527   6.890 -0.2833 -2.4023  3.2746
  322MOL0     H42456   6.294   3.482   6.724 -0.9225 -0.0150 -0.3487
  322MOL0     H42457   6.356   3.254   6.649  2.9102 -1.1176  0.5385
  322MOL0     H42458   6.485   2.973   6.886 -1.7133 -0.6427 -1.0908
  322MOL0     H42459   6.559   3.081   6.765  0.7332 -1.1399 -1.2291
  322MOL0     H42460   6.471   2.869   6.650 -1.5907 -2.0989  0.0165
  322MOL0     H42461   6.385   3.011   6.609  2.9949  0.0866 -0.9118
  322MOL0     H42462   6.191   2.944   6.746 -0.6045 -0.4193 -0.4821
  322MOL0     H42463   6.243   2.805   6.661 -0.7605  1.4425 -1.6550
  322MOL0     H42464   6.209   2.734   6.898  0.3235 -0.2586 -0.9636
  322MOL0     H42465   6.303   2.879   6.951  1.6178  0.1766 -0.4872
  322MOL0     H42466   6.702   2.725   6.910  2.5940 -2.1125  1.0441
  322MOL0     H42467   6.818   2.653   7.098 -0.3317  0.9162 -0.0901
  322MOL0     H42468   6.458   2.651   7.679 -1.6256 -1.9823 -0.5714
  322MOL0     H42469   6.483   2.551   7.880 -1.0671 -0.3525 -2.5428
  322MOL0     H42470   6.524   2.382   8.022 -0.1445  0.7127  0.8436
  322MOL0     H42471   6.591   2.494   8.137 -1.7994 -3.7649  3.3598
  322MOL0     H42472   6.566   2.259   8.226 -2.0504 -3.5317 -4.3056
  322MOL0     H42473   6.729   2.351   8.230  2.1241 -1.2227 -4.5740
  322MOL0     H42474   6.762   2.209   8.018 -0.0740 -0.6280  0.2980
  322MOL0     H42475   6.638   2.106   8.078  2.1560 -2.1108 -3.2157
  322MOL0     H42476   6.911   2.178   8.163 -0.3978 -1.7862 -5.3190
  322MOL0     H42477   6.807   2.135   8.303 -0.8313 -0.6589 -0.5329
  322MOL0     H42478   6.968   1.979   8.200 -0.7054  2.3153 -0.1162
  322MOL0     H42479   6.879   1.978   8.052  0.2603  1.5588 -0.2131
  322MOL0     H42480   6.695   1.873   8.137  2.2035  1.3115 -1.8645
  322MOL0     H42481   6.709   1.919   8.305 -0.8175 -2.5033  0.9439
  322MOL0     H42482   6.823   1.690   8.153 -0.4010  0.4728 -0.6896
  322MOL0     H42483   6.929   1.751   8.280 -0.0365 -1.5195  0.1118
  322MOL0     H42484   6.768   1.546   8.341 -0.0416 -1.4620  0.9597
  322MOL0     H42485   6.633   1.661   8.356 -0.4247  0.5301 -2.2991
  322MOL0     H42486   6.882   2.460   7.816 -1.2185 -2.6909 -0.3396
  322MOL0     H42487   6.878   2.556   7.574  1.0873  2.3392  1.7340
  322MOL0     H42488   6.446   2.686   7.327  1.0849  0.7945  0.8727
  322MOL0     H42489   6.329   2.735   7.121  0.0797  1.9833  0.9453
  322MOL0     H42490   5.426   3.726   6.434 -3.4334  1.2954 -0.2624
  322MOL0     H42491   5.271   3.545   6.520  2.7895 -1.1747 -1.3250
  322MOL0     H42492   4.986   3.394   6.729  0.4530  0.5636  0.9544
  322MOL0     H42493   4.829   3.205   6.778  0.8732 -2.2526  0.9570
  322MOL0     H42494   4.779   2.994   6.864  0.0464 -1.7084 -0.0694
  322MOL0     H42495   4.638   3.098   6.880 -1.3962 -1.6535  0.1705
  322MOL0     H42496   4.686   2.850   7.068 -0.5537 -0.4516 -0.4605
  322MOL0     H42497   4.564   2.972   7.086  1.9595  2.5816  0.3401
  322MOL0     H42498   4.485   2.913   6.852 -0.3784  0.1642 -0.0854
  322MOL0     H42499   4.468   2.791   6.978  0.7140 -0.2155 -0.3868
  322MOL0     H42500   4.687   2.800   6.763  1.7582 -4.5176 -0.9352
  322MOL0     H42501   4.682   2.687   6.894  1.7106  2.2165  1.7706
  322MOL0     H42502   4.413   2.563   6.570 -0.5699  0.7956 -0.0652
  322MOL0     H42503   4.928   3.254   7.197 -0.7067 -0.1314 -1.1826
  322MOL0     H42504   5.105   3.389   7.144  3.2041 -2.3548 -0.8773
  323MOL0     O42505   1.077   1.345   3.009  1.0640  0.6339 -0.6969
  323MOL0     C42506   0.998   1.358   2.914 -0.4047  0.5287 -0.1803
  323MOL0     O42507   1.028   1.380   2.784  0.3425 -0.2504  0.5242
  323MOL0     C42508   1.160   1.356   2.749  0.8825 -0.6090  0.1500
  323MOL0     C42509   1.229   1.244   2.790  0.2024  0.2695 -1.2144
  323MOL0     C42510   1.360   1.224   2.754 -0.2937  1.0603  0.0452
  323MOL0     C42511   1.431   1.323   2.679 -0.2147 -0.6931 -0.0616
  323MOL0     O42512   1.566   1.303   2.663  0.0303 -0.9557  1.0694
  323MOL0     C42513   1.640   1.406   2.592 -0.2442  0.1229  0.3059
  323MOL0     C42514   1.785   1.361   2.576 -0.0412  0.0969  0.9887
  323MOL0     C42515   1.789   1.241   2.481 -0.5951 -0.0634 -0.7592
  323MOL0     C42516   1.938   1.209   2.476  1.4453 -0.4368  0.2887
  323MOL0     C42517   1.984   1.133   2.361  0.2786 -0.6134  0.5522
  323MOL0     C42518   2.135   1.112   2.343  0.4264 -0.6654 -0.7969
  323MOL0     C42519   2.170   1.017   2.225 -0.2110  0.2074  0.5502
  323MOL0     C42520   2.310   1.035   2.181 -0.2658  0.7157 -0.2691
  323MOL0     N42521   2.370   0.903   2.127  0.5674 -0.4927 -0.1508
  323MOL0     C42522   2.297   0.791   2.080  0.3128 -1.0011  0.3728
  323MOL0     C42523   2.392   0.705   2.028 -0.7343 -0.3149 -1.2565
  323MOL0     C42524   2.373   0.565   1.973  0.3777  0.3062 -0.4644
  323MOL0     C42525   2.237   0.544   1.908  0.9209 -0.7706 -0.1289
  323MOL0     C42526   2.220   0.396   1.859 -0.4862 -0.0577  0.1131
  323MOL0     C42527   2.163   0.301   1.970 -0.3473  0.2563 -0.2204
  323MOL0     O42528   2.023   0.278   1.961 -1.1451 -0.2154  0.0756
  323MOL0     C42529   1.944   0.383   2.004  0.5547 -0.7442 -0.1221
  323MOL0     C42530   1.875   0.465   1.914 -0.1390  0.5057 -0.3776
  323MOL0     C42531   1.798   0.572   1.965  0.1550  0.2614 -0.6488
  323MOL0     C42532   1.764   0.581   2.101  0.1003 -0.8971 -0.1200
  323MOL0     C42533   1.659   0.665   2.158  1.1735 -0.3458 -0.2944
  323MOL0     O42534   1.618   0.764   2.076 -0.2978 -0.1234  0.2047
  323MOL0     C42535   1.507   0.838   2.117  0.2225 -0.0936 -0.2460
  323MOL0     C42536   1.377   0.782   2.120 -0.8047  0.8084  0.4937
  323MOL0     C42537   1.269   0.854   2.176  0.3063  0.4872  0.3632
  323MOL0     C42538   1.291   0.982   2.231  0.5395  0.5743 -0.1148
  323MOL0     O42539   1.184   1.051   2.277 -0.2051 -0.5567  0.5402
  323MOL0     C42540   1.202   1.053   2.418  0.0626 -1.2631 -0.2737
  323MOL0     C42541   1.215   0.915   2.497  0.2071  0.2728 -0.1824
  323MOL0     C42542   1.212   0.922   2.644  0.6525  0.4132  0.5706
  323MOL0     C42543   1.203   0.779   2.700  0.0052 -0.2262  0.1850
  323MOL0     C42544   1.112   0.753   2.824 -0.7373 -0.0102 -0.4181
  323MOL0     C42545   1.168   0.818   2.949 -0.4894  0.5257 -0.2861
  323MOL0     C42546   1.100   0.799   3.085 -0.9951  0.7828 -0.0836
  323MOL0     C42547   0.956   0.850   3.079 -0.0313  0.0845 -0.5215
  323MOL0    Cl42548   0.886   0.863   3.260  0.0644 -0.1039 -0.1577
  323MOL0     C42549   1.416   1.036   2.228 -1.1243  0.6577  0.4302
  323MOL0     C42550   1.522   0.967   2.172 -0.8993  0.4914  0.6852
  323MOL0     O42551   1.597   0.630   2.255  0.6140 -0.8378  0.7188
  323MOL0     C42552   1.837   0.499   2.187  0.1540 -0.2845  0.2355
  323MOL0     C42553   1.925   0.401   2.140 -0.3843 -0.3089  0.5600
  323MOL0     N42554   2.510   0.775   2.037  0.5279  0.2416 -0.0381
  323MOL0     N42555   2.496   0.894   2.094 -0.9481  0.4887 -0.4252
  323MOL0     C42556   1.357   1.442   2.651 -0.7274  0.6174  0.4250
  323MOL0     C42557   1.225   1.467   2.690  0.7342  0.1756  0.3369
  323MOL0     C42558   0.853   1.365   2.955 -0.0821  0.2884  0.5787
  323MOL0     C42559   0.811   1.330   3.083  0.6676 -0.3154 -0.9759
  323MOL0     C42560   0.673   1.353   3.113  0.1535  0.4851 -0.0763
  323MOL0     C42561   0.573   1.372   3.020  0.1695  0.2532  0.9440
  323MOL0     O42562   0.441   1.385   3.056  0.0505  0.2176  0.6523
  323MOL0     C42563   0.401   1.503   3.124 -0.8961 -0.0641 -0.4990
  323MOL0     C42564   0.416   1.635   3.041  1.4336 -1.4908  0.7575
  323MOL0     C42565   0.334   1.641   2.915 -0.5895  1.2184  0.8865
  323MOL0     C42566   0.173   1.633   2.928 -0.4264  0.4538  0.0629
  323MOL0     C42567   0.118   1.698   3.048  0.2374 -0.2055 -0.0549
  323MOL0     C42568   0.078   1.761   3.142  0.6484  0.2723  1.6316
  323MOL0     C42569   0.615   1.377   2.886  0.0622  0.2629  0.4196
  323MOL0     C42570   0.753   1.374   2.855 -0.5289 -0.3938  1.2183
  323MOL0     H42571   1.177   1.168   2.848 -0.8614  3.5438  2.5498
  323MOL0     H42572   1.413   1.135   2.785 -1.5849 -0.8791 -2.8264
  323MOL0     H42573   1.649   1.502   2.643 -1.5469 -1.4614  3.8765
  323MOL0     H42574   1.594   1.424   2.494 -1.0461 -1.5735  0.3277
  323MOL0     H42575   1.810   1.323   2.675 -1.9849  0.6645  1.7432
  323MOL0     H42576   1.848   1.443   2.539  1.0706 -1.1055  0.1369
  323MOL0     H42577   1.754   1.286   2.388 -2.5409  0.4183  0.1407
  323MOL0     H42578   1.718   1.164   2.513  1.0181 -1.3596 -0.1687
  323MOL0     H42579   2.002   1.298   2.483  0.9861  0.0162 -0.9451
  323MOL0     H42580   1.960   1.158   2.570 -1.9095  2.2286  2.7437
  323MOL0     H42581   1.943   1.176   2.269 -0.5743 -0.5734  0.9403
  323MOL0     H42582   1.931   1.038   2.369 -2.5244  0.4486 -2.8614
  323MOL0     H42583   2.172   1.078   2.441 -0.1089 -0.0417 -0.3746
  323MOL0     H42584   2.196   1.202   2.331  4.0446 -2.3369  2.6604
  323MOL0     H42585   2.139   0.914   2.247 -2.2673  0.0592 -2.3779
  323MOL0     H42586   2.104   1.041   2.141  1.0138 -0.8267 -0.7577
  323MOL0     H42587   2.370   1.082   2.259  2.0465 -0.9692 -0.9149
  323MOL0     H42588   2.308   1.098   2.091  1.6091 -0.0041 -0.8555
  323MOL0     H42589   2.190   0.779   2.062  0.5947 -0.5860 -1.8626
  323MOL0     H42590   2.377   0.516   2.071  0.2642 -2.0147 -1.5639
  323MOL0     H42591   2.457   0.530   1.913  0.8562  0.5599  0.0423
  323MOL0     H42592   2.234   0.603   1.816  2.5400 -1.5049 -0.7031
  323MOL0     H42593   2.148   0.570   1.965  1.9990 -0.7596  1.6326
  323MOL0     H42594   2.143   0.404   1.782  1.3566  2.8460 -1.6538
  323MOL0     H42595   2.309   0.357   1.807  0.0484 -0.2965  1.1853
  323MOL0     H42596   2.191   0.352   2.063  2.4879  2.2946 -2.0318
  323MOL0     H42597   2.212   0.203   1.964  0.5345  0.7860 -3.5619
  323MOL0     H42598   1.894   0.450   1.808  0.9142  1.3391 -0.3221
  323MOL0     H42599   1.740   0.630   1.894 -2.9401  0.3979  1.7216
  323MOL0     H42600   1.359   0.682   2.082  1.8760  1.7713 -4.0553
  323MOL0     H42601   1.168   0.816   2.183  0.3871  0.2149  0.0253
  323MOL0     H42602   1.114   1.085   2.474 -2.7927 -2.4172 -3.6730
  323MOL0     H42603   1.287   1.115   2.446 -1.1164  0.3323 -0.1192
  323MOL0     H42604   1.306   0.863   2.467  1.0256  2.4888 -1.7590
  323MOL0     H42605   1.132   0.853   2.462  1.4864  0.0809 -3.1180
  323MOL0     H42606   1.122   0.974   2.677 -3.1749 -1.8213 -4.8625
  323MOL0     H42607   1.300   0.972   2.685  1.5916 -0.2137 -0.6267
  323MOL0     H42608   1.151   0.721   2.624 -0.1886  0.1106  0.0604
  323MOL0     H42609   1.308   0.750   2.712  1.3477  2.4979 -3.3265
  323MOL0     H42610   1.097   0.646   2.845 -2.9652  0.4361  0.4368
  323MOL0     H42611   1.013   0.787   2.794 -0.9401 -0.6836 -0.5404
  323MOL0     H42612   1.178   0.924   2.927  2.5416  0.4234  0.1904
  323MOL0     H42613   1.267   0.774   2.964 -0.9941  0.2644  3.1444
  323MOL0     H42614   1.100   0.693   3.110  1.8072 -0.7233 -4.9899
  323MOL0     H42615   1.157   0.849   3.165  3.3591 -3.1609 -0.2802
  323MOL0     H42616   0.890   0.789   3.017 -1.0412  0.7340 -0.1138
  323MOL0     H42617   0.962   0.950   3.035 -0.3251  0.4328  0.2081
  323MOL0     H42618   1.415   1.141   2.255  0.5483  0.4484  1.4602
  323MOL0     H42619   1.618   1.017   2.169 -1.1781  1.2002  2.3187
  323MOL0     H42620   1.824   0.501   2.295  0.0670  3.3287  0.2774
  323MOL0     H42621   1.991   0.337   2.198  2.7655  2.1297 -0.0787
  323MOL0     H42622   1.405   1.532   2.612 -1.0605 -0.3598 -2.4984
  323MOL0     H42623   1.195   1.569   2.668  1.1173  0.4959  1.2565
  323MOL0     H42624   0.878   1.311   3.167  0.0027  5.6292  1.4094
  323MOL0     H42625   0.640   1.349   3.217 -0.1169  1.1697 -0.1337
  323MOL0     H42626   0.446   1.508   3.223  0.3421 -0.3024 -1.0266
  323MOL0     H42627   0.294   1.511   3.143 -0.7980  1.2533 -0.3457
  323MOL0     H42628   0.377   1.724   3.091  0.7449  0.4669 -2.8717
  323MOL0     H42629   0.519   1.657   3.010  0.6081  4.3041  1.0831
  323MOL0     H42630   0.365   1.562   2.847 -1.7847  2.4887 -1.2738
  323MOL0     H42631   0.363   1.739   2.874 -1.8515  1.8035  1.3207
  323MOL0     H42632   0.128   1.681   2.841  1.1792 -2.3684 -2.5146
  323MOL0     H42633   0.145   1.527   2.930  0.9324  0.0682 -0.7509
  323MOL0     H42634   0.046   1.823   3.224 -1.1688  0.3497  0.9173
  323MOL0     H42635   0.537   1.412   2.818  1.4188  1.3669 -0.6540
  323MOL0     H42636   0.783   1.383   2.751 -2.8323 -1.7172  0.3618
  324MOL0     O42637   9.542   9.617   5.605  0.3918  0.0303  0.7904
  324MOL0     C42638   9.507   9.654   5.720 -0.4411 -0.2050 -0.5027
  324MOL0     O42639   9.433   9.582   5.807 -0.5016 -0.4161 -0.7855
  324MOL0     C42640   9.397   9.453   5.759 -0.3257 -0.1565 -0.0328
  324MOL0     C42641   9.262   9.412   5.736  0.3582 -0.2486  0.0475
  324MOL0     C42642   9.239   9.282   5.699  0.2505 -0.2538 -0.8256
  324MOL0     C42643   9.339   9.188   5.681 -0.0107 -0.9925 -0.0318
  324MOL0     O42644   9.305   9.063   5.637  0.0653 -0.0447  0.2508
  324MOL0     C42645   9.390   8.965   5.584 -0.1475  0.1231  0.3888
  324MOL0     C42646   9.312   8.837   5.558  0.1875 -0.8562 -0.1646
  324MOL0     C42647   9.239   8.787   5.688 -0.6092  0.3600 -0.4114
  324MOL0     C42648   9.124   8.696   5.637 -0.1158 -0.9456 -0.9087
  324MOL0     C42649   9.046   8.640   5.747  0.5321 -0.2319  0.0748
  324MOL0     C42650   8.939   8.548   5.694 -0.2843 -0.8160 -0.4067
  324MOL0     C42651   8.879   8.459   5.808 -0.2596  0.4871  0.3357
  324MOL0     C42652   8.740   8.406   5.778 -0.2389  0.6427 -0.5038
  324MOL0     N42653   8.635   8.499   5.816 -0.1146  0.2071  0.5478
  324MOL0     C42654   8.551   8.481   5.916  0.8478  0.0648  0.0844
  324MOL0     C42655   8.476   8.590   5.935 -0.0964 -0.0334  0.4643
  324MOL0     C42656   8.378   8.614   6.051  0.7118 -0.4693 -0.2819
  324MOL0     C42657   8.413   8.742   6.119  0.7811  0.7250 -0.3132
  324MOL0     C42658   8.323   8.787   6.239 -0.9740 -0.2590  0.2587
  324MOL0     C42659   8.196   8.844   6.190 -0.3964 -1.1122 -0.2685
  324MOL0     O42660   8.123   8.731   6.156  0.1258  0.2052 -0.2998
  324MOL0     C42661   8.002   8.747   6.092 -0.0654  0.2299  0.3519
  324MOL0     C42662   7.965   8.651   6.000 -0.0936  0.0869 -0.1092
  324MOL0     C42663   7.838   8.663   5.938  0.8905  0.2773 -0.1933
  324MOL0     C42664   7.748   8.771   5.961  1.3930 -0.7343  0.8251
  324MOL0     C42665   7.608   8.772   5.912  0.3057 -0.0576  1.0167
  324MOL0     O42666   7.517   8.853   5.959 -0.2429 -0.1071 -0.0878
  324MOL0     C42667   7.392   8.872   5.900 -0.5030 -0.5186  0.1214
  324MOL0     C42668   7.320   8.972   5.971 -0.5737 -0.1187  0.7544
  324MOL0     C42669   7.186   8.991   5.944  0.6987 -0.3679  0.0988
  324MOL0     C42670   7.116   8.914   5.857  0.3274 -0.5952  0.0119
  324MOL0     O42671   6.984   8.946   5.851  0.0183 -0.5287  0.1010
  324MOL0     C42672   6.892   8.872   5.776  0.8863 -0.2387 -0.1422
  324MOL0     C42673   6.749   8.922   5.798 -0.0151 -0.4324  0.0198
  324MOL0     C42674   6.747   9.076   5.797  0.2578  0.6305 -0.0888
  324MOL0     C42675   6.602   9.125   5.830 -0.1630  0.5940 -0.0930
  324MOL0     C42676   6.569   9.266   5.783 -0.5344  0.5825  0.0706
  324MOL0     C42677   6.427   9.297   5.833 -0.1955 -0.7477  0.6714
  324MOL0     C42678   6.392   9.439   5.785 -0.1087 -0.0305 -0.0196
  324MOL0     C42679   6.317   9.430   5.653  0.3989  0.5583  0.6785
  324MOL0    Cl42680   6.160   9.364   5.700  0.4952  0.2997 -0.0293
  324MOL0     C42681   7.187   8.827   5.776  0.2974  0.6264 -0.3190
  324MOL0     C42682   7.318   8.801   5.794 -0.7106  0.7199  0.1966
  324MOL0     O42683   7.597   8.689   5.828  0.1629 -0.0116 -0.8984
  324MOL0     C42684   7.797   8.874   6.041  0.1612 -0.7047 -0.7251
  324MOL0     C42685   7.919   8.865   6.106 -0.6568  0.5827 -0.1448
  324MOL0     N42686   8.506   8.680   5.832  0.9976  0.3418  0.3762
  324MOL0     N42687   8.610   8.623   5.765 -0.2803 -0.5300 -0.5249
  324MOL0     C42688   9.473   9.229   5.696 -0.8175  0.1968 -0.3438
  324MOL0     C42689   9.503   9.360   5.736 -0.2964  0.6667  0.1029
  324MOL0     C42690   9.579   9.767   5.781  0.2082  0.0644  0.1508
  324MOL0     C42691   9.662   9.846   5.706  0.5359  0.2864  0.5908
  324MOL0     C42692   9.745   9.944   5.759  0.0059 -0.4229  0.6830
  324MOL0     C42693   9.738   9.979   5.887  0.1132  0.2619 -0.3768
  324MOL0     O42694   9.786  10.081   5.955 -0.1929  0.0034 -0.3128
  324MOL0     C42695   9.873  10.178   5.907  0.6173  0.0492  0.5905
  324MOL0     C42696   9.806  10.313   5.867 -0.2466 -0.1829 -0.7577
  324MOL0     C42697   9.895  10.415   5.787 -0.0884  0.2844  0.4768
  324MOL0     C42698   9.862  10.567   5.795 -0.5212 -0.1755 -0.6937
  324MOL0     C42699   9.970  10.643   5.731 -0.1805 -0.6042 -1.3968
  324MOL0     C42700  10.066  10.705   5.681 -0.4111  0.8449 -0.0236
  324MOL0     C42701   9.649   9.901   5.971  0.3050 -0.6862 -0.7218
  324MOL0     C42702   9.577   9.795   5.918  0.3605 -0.8252  0.1080
  324MOL0     H42703   9.181   9.485   5.736  0.0250 -0.4011 -4.2790
  324MOL0     H42704   9.135   9.262   5.675  0.7078 -1.9554 -1.5919
  324MOL0     H42705   9.470   8.941   5.654 -2.2509 -2.7726  2.0182
  324MOL0     H42706   9.429   9.004   5.489  0.1769  4.4463  2.0907
  324MOL0     H42707   9.381   8.759   5.526 -1.1596 -2.4736  0.7432
  324MOL0     H42708   9.241   8.862   5.479 -1.3968  1.3720  1.8168
  324MOL0     H42709   9.205   8.870   5.751 -1.9554  0.1221 -0.7780
  324MOL0     H42710   9.300   8.730   5.760  0.2580  2.7855  0.8733
  324MOL0     H42711   9.058   8.763   5.579  0.7038  2.0799  1.4292
  324MOL0     H42712   9.163   8.616   5.573 -0.0925 -0.5770 -1.3575
  324MOL0     H42713   9.008   8.723   5.806  0.7231 -0.4112  0.4575
  324MOL0     H42714   9.112   8.583   5.814  0.7433  0.0901  0.1434
  324MOL0     H42715   8.979   8.495   5.607  2.7825  2.1751 -1.0262
  324MOL0     H42716   8.855   8.610   5.662 -0.8180 -1.3072  0.0216
  324MOL0     H42717   8.951   8.381   5.835  0.1289  0.4415 -0.7769
  324MOL0     H42718   8.858   8.514   5.900 -0.1367 -1.0023  1.2775
  324MOL0     H42719   8.726   8.314   5.836 -0.1557  0.9282 -0.0270
  324MOL0     H42720   8.736   8.367   5.676 -1.6485 -3.1593  0.7938
  324MOL0     H42721   8.547   8.394   5.982  2.2043 -0.1772 -0.1232
  324MOL0     H42722   8.362   8.527   6.116  1.0633 -1.3341 -1.3306
  324MOL0     H42723   8.275   8.617   6.015  0.2193 -0.9835  1.0113
  324MOL0     H42724   8.422   8.816   6.039  0.5124  0.3562 -0.6880
  324MOL0     H42725   8.512   8.723   6.163 -0.0809  1.4583  2.0687
  324MOL0     H42726   8.301   8.699   6.300 -6.1417 -0.7178 -1.7558
  324MOL0     H42727   8.386   8.855   6.297  0.1686 -2.4392  1.7211
  324MOL0     H42728   8.206   8.911   6.104 -0.4844  0.7028  1.0941
  324MOL0     H42729   8.154   8.903   6.272 -1.9395 -1.0584 -1.0462
  324MOL0     H42730   8.022   8.560   5.987 -3.8937 -2.3608 -1.0857
  324MOL0     H42731   7.806   8.579   5.877 -0.8754  1.6252 -1.2487
  324MOL0     H42732   7.365   9.033   6.049  0.0033  2.3256 -1.3647
  324MOL0     H42733   7.117   9.059   5.993 -0.2609 -0.4950 -1.0329
  324MOL0     H42734   6.883   8.768   5.811  0.3057 -0.4001 -0.7567
  324MOL0     H42735   6.898   8.868   5.667 -2.8556  1.9184 -0.5764
  324MOL0     H42736   6.727   8.896   5.902  1.9763 -0.6720  0.4158
  324MOL0     H42737   6.677   8.880   5.726  0.9270 -1.0853 -0.5670
  324MOL0     H42738   6.765   9.100   5.692 -1.1865 -0.7375 -0.6952
  324MOL0     H42739   6.817   9.118   5.870  1.1088 -1.7293  0.5598
  324MOL0     H42740   6.524   9.053   5.806  1.3234 -1.5167  1.1520
  324MOL0     H42741   6.600   9.129   5.939 -1.3036 -0.9883 -0.0290
  324MOL0     H42742   6.563   9.275   5.674 -1.2425  2.7936  0.2431
  324MOL0     H42743   6.646   9.335   5.819  1.0801 -0.8214 -0.5827
  324MOL0     H42744   6.435   9.293   5.942 -2.8038  0.0328  0.9657
  324MOL0     H42745   6.355   9.219   5.809  0.8404 -1.3753 -0.5139
  324MOL0     H42746   6.330   9.495   5.855  2.6103  2.6172  0.4976
  324MOL0     H42747   6.474   9.509   5.764  1.1908 -0.0041  4.2235
  324MOL0     H42748   6.373   9.355   5.596  0.6519  0.4303  1.0984
  324MOL0     H42749   6.308   9.525   5.599  2.4956 -1.3993 -3.6406
  324MOL0     H42750   7.130   8.777   5.699 -1.3412  0.8896  0.6876
  324MOL0     H42751   7.360   8.715   5.744 -1.0464  1.1856 -0.9250
  324MOL0     H42752   7.717   8.947   6.058  1.8429  1.1498 -0.3904
  324MOL0     H42753   7.937   8.939   6.182 -0.8375  0.0141  0.4622
  324MOL0     H42754   9.559   9.164   5.687 -0.0028  0.8269  2.1041
  324MOL0     H42755   9.602   9.402   5.754 -0.9190  1.7010  1.2775
  324MOL0     H42756   9.662   9.825   5.600 -4.5187 -1.4190  0.6689
  324MOL0     H42757   9.813   9.997   5.694  0.1658  0.1811  1.3325
  324MOL0     H42758   9.913  10.131   5.817  1.6896 -2.1099  2.1281
  324MOL0     H42759   9.951  10.198   5.981 -1.6376 -0.2781  3.2054
  324MOL0     H42760   9.711  10.297   5.815 -1.0571  0.3767  0.4898
  324MOL0     H42761   9.797  10.365   5.963  2.6752 -4.4226  2.1547
  324MOL0     H42762   9.900  10.387   5.681 -2.8861 -1.9290  0.7946
  324MOL0     H42763   9.991  10.404   5.838  1.2175  1.6883 -1.5222
  324MOL0     H42764   9.763  10.597   5.760  0.2283  2.0098 -1.1417
  324MOL0     H42765   9.869  10.595   5.900  2.1897  1.7871 -1.2676
  324MOL0     H42766  10.156  10.756   5.652 -0.7082  1.0851 -0.5231
  324MOL0     H42767   9.636   9.923   6.077  1.9566  2.2308 -1.0037
  324MOL0     H42768   9.519   9.727   5.981  0.7824 -0.9898  0.3229
  325MOL0     O42769   3.488   0.544   4.635 -0.6568 -0.0483  0.7649
  325MOL0     C42770   3.403   0.457   4.600 -0.0405  0.2834 -0.0721
  325MOL0     O42771   3.422   0.327   4.581 -0.0661  0.0368 -0.4588
  325MOL0     C42772   3.523   0.253   4.618 -0.2589  0.8518 -0.3950
  325MOL0     C42773   3.617   0.289   4.707 -0.4749 -0.4050 -1.0317
  325MOL0     C42774   3.723   0.205   4.756  0.6037 -0.2574 -0.1448
  325MOL0     C42775   3.728   0.072   4.702  0.0607  0.3963 -0.5210
  325MOL0     O42776   3.830  -0.006   4.750  0.6506  0.0648  0.5286
  325MOL0     C42777   3.831  -0.047   4.883  0.0209  0.4112  0.5529
  325MOL0     C42778   3.950  -0.134   4.898  1.0852 -0.1328  0.4450
  325MOL0     C42779   3.920  -0.293   4.913  0.7207 -0.6254 -0.5036
  325MOL0     C42780   3.894  -0.332   4.765 -0.0097  0.0857 -0.3567
  325MOL0     C42781   3.855  -0.488   4.747  0.4781  0.0733  0.6259
  325MOL0     C42782   3.714  -0.511   4.782  0.1241 -0.5989 -0.1025
  325MOL0     C42783   3.659  -0.647   4.752  0.3593  0.7877 -0.0745
  325MOL0     C42784   3.509  -0.655   4.731  0.3273  0.2143 -0.4136
  325MOL0     N42785   3.472  -0.594   4.606  0.2262  0.1330  0.6833
  325MOL0     C42786   3.491  -0.648   4.477  0.4643 -0.3482 -0.2686
  325MOL0     C42787   3.436  -0.558   4.393 -0.0638  0.6447 -0.6329
  325MOL0     C42788   3.443  -0.556   4.242  0.7107 -0.3611 -0.6026
  325MOL0     C42789   3.366  -0.659   4.156  0.4332  0.0618 -0.4670
  325MOL0     C42790   3.448  -0.704   4.035  0.0955  0.2958 -0.1396
  325MOL0     C42791   3.412  -0.855   4.008  1.3649 -0.1806  1.4395
  325MOL0     O42792   3.472  -0.941   4.102  0.3564  0.5187  0.2389
  325MOL0     C42793   3.602  -0.972   4.081  0.1608 -0.2504  0.1873
  325MOL0     C42794   3.695  -0.912   3.993 -0.1283 -0.3990 -0.6394
  325MOL0     C42795   3.838  -0.946   4.010  0.2902 -0.0213  0.0162
  325MOL0     C42796   3.887  -1.053   4.086  0.7257 -0.6126 -0.2712
  325MOL0     C42797   4.039  -1.083   4.085  0.1315 -0.6239 -0.6162
  325MOL0     O42798   4.079  -1.188   4.160 -0.1687 -0.1953  0.0058
  325MOL0     C42799   4.212  -1.237   4.166  0.5752 -0.5561 -0.0975
  325MOL0     C42800   4.282  -1.244   4.044  0.1343 -0.3230  0.0061
  325MOL0     C42801   4.419  -1.282   4.054  0.3259 -1.5106  1.1260
  325MOL0     C42802   4.481  -1.334   4.161 -0.1301 -0.5528 -0.3667
  325MOL0     O42803   4.604  -1.394   4.135  0.5055 -0.6664 -0.2381
  325MOL0     C42804   4.651  -1.476   4.237  0.1303 -0.1347 -0.3509
  325MOL0     C42805   4.777  -1.546   4.180 -0.0808  0.2736 -0.4785
  325MOL0     C42806   4.853  -1.627   4.294  0.6977 -0.6087  0.9682
  325MOL0     C42807   4.976  -1.693   4.235 -0.6866 -0.1174 -0.3274
  325MOL0     C42808   4.942  -1.804   4.139  1.0285 -0.0174 -0.2601
  325MOL0     C42809   5.060  -1.888   4.093  0.6083  0.9373 -0.2422
  325MOL0     C42810   5.146  -1.955   4.203 -0.2369 -0.8198 -0.0410
  325MOL0     C42811   5.249  -2.059   4.152  0.3802 -0.0782  0.1373
  325MOL0    Cl42812   5.150  -2.186   4.068  0.2347 -0.4696  0.2029
  325MOL0     C42813   4.409  -1.324   4.283 -0.5592  0.3639 -0.2113
  325MOL0     C42814   4.277  -1.278   4.286 -0.0957 -1.0821 -0.2105
  325MOL0     O42815   4.110  -1.009   4.021  0.0485 -0.0737  0.3334
  325MOL0     C42816   3.784  -1.123   4.153 -1.2688 -0.4756 -0.4237
  325MOL0     C42817   3.652  -1.083   4.154  0.0225 -0.7478  0.0202
  325MOL0     N42818   3.385  -0.451   4.474 -0.2376 -0.3567  1.3254
  325MOL0     N42819   3.400  -0.478   4.599 -0.4811 -0.7139  0.2371
  325MOL0     C42820   3.634   0.028   4.613 -0.0326  0.4246  1.1142
  325MOL0     C42821   3.534   0.120   4.567  0.0522 -0.3270 -0.3207
  325MOL0     C42822   3.262   0.498   4.573  0.0397 -0.3645  0.3228
  325MOL0     C42823   3.235   0.643   4.577  0.0549  1.2492 -0.0241
  325MOL0     C42824   3.104   0.691   4.555  0.3443  0.6253 -0.9182
  325MOL0     C42825   3.003   0.590   4.528  0.4662 -0.5567  0.5266
  325MOL0     O42826   2.872   0.626   4.519  0.5537  0.6096  0.2266
  325MOL0     C42827   2.845   0.768   4.521  0.0953 -0.2897 -0.0846
  325MOL0     C42828   2.695   0.785   4.489 -0.0316  0.3694 -0.1699
  325MOL0     C42829   2.634   0.931   4.504 -0.9927 -0.4584  0.1287
  325MOL0     C42830   2.676   1.015   4.620 -0.5484  0.2399 -0.5245
  325MOL0     C42831   2.583   1.121   4.649 -1.2633 -0.0971  1.0442
  325MOL0     C42832   2.519   1.221   4.667 -0.1226  0.3897  0.4226
  325MOL0     C42833   3.028   0.457   4.539 -0.6860 -0.4344  0.3358
  325MOL0     C42834   3.153   0.411   4.574 -0.7753  0.0073  0.8712
  325MOL0     H42835   3.622   0.388   4.750 -0.5340 -0.4618 -0.8922
  325MOL0     H42836   3.794   0.243   4.828  2.6544 -2.2078 -1.0118
  325MOL0     H42837   3.743  -0.108   4.903  0.7513 -1.9890 -2.6652
  325MOL0     H42838   3.840   0.036   4.955 -3.0595  0.6879  0.7186
  325MOL0     H42839   3.996  -0.101   4.992  0.0247  2.3855  0.1520
  325MOL0     H42840   4.019  -0.122   4.814  0.8762 -1.6710  0.0207
  325MOL0     H42841   3.829  -0.317   4.968  0.7924  1.0553  0.4014
  325MOL0     H42842   3.998  -0.353   4.960 -0.1491 -1.2446  0.1790
  325MOL0     H42843   3.816  -0.272   4.717  0.4294  0.6998 -0.3158
  325MOL0     H42844   3.978  -0.306   4.700 -2.0259  2.4691 -2.2422
  325MOL0     H42845   3.927  -0.551   4.799  3.4512  2.6136 -0.1144
  325MOL0     H42846   3.864  -0.520   4.642 -3.2756 -1.1317  0.5224
  325MOL0     H42847   3.647  -0.439   4.734 -3.0747 -1.4540  2.6906
  325MOL0     H42848   3.689  -0.485   4.885 -0.0867  0.9467 -0.5181
  325MOL0     H42849   3.707  -0.676   4.658  1.8337  0.2602  0.8178
  325MOL0     H42850   3.679  -0.717   4.834  0.6824 -1.6015 -2.0650
  325MOL0     H42851   3.440  -0.623   4.810 -1.0293 -3.0130 -0.1421
  325MOL0     H42852   3.494  -0.762   4.718  2.8256 -0.1738 -0.4960
  325MOL0     H42853   3.539  -0.741   4.446 -1.1296 -1.9676  1.7926
  325MOL0     H42854   3.548  -0.552   4.212  1.2790 -1.3755  1.1214
  325MOL0     H42855   3.407  -0.456   4.212 -2.7140 -0.6495  1.8968
  325MOL0     H42856   3.263  -0.630   4.133  0.1899 -1.3445 -1.2914
  325MOL0     H42857   3.343  -0.749   4.213  2.2650  0.1536  0.4884
  325MOL0     H42858   3.417  -0.644   3.949 -1.5471  1.8194  1.4154
  325MOL0     H42859   3.555  -0.696   4.054  0.2544  0.3350 -0.9985
  325MOL0     H42860   3.428  -0.889   3.905 -0.5150 -0.1523  1.1114
  325MOL0     H42861   3.303  -0.858   4.018  1.3135 -2.1998  0.8728
  325MOL0     H42862   3.673  -0.842   3.913  1.5012  0.6164 -0.2631
  325MOL0     H42863   3.903  -0.895   3.939  1.4580  0.7657  1.6141
  325MOL0     H42864   4.243  -1.218   3.946 -2.7982  0.1723  1.2190
  325MOL0     H42865   4.474  -1.272   3.961 -1.5596  4.4161  0.2279
  325MOL0     H42866   4.585  -1.550   4.283  0.7748  1.6635  3.9963
  325MOL0     H42867   4.681  -1.407   4.317  3.5620 -0.4601 -1.2013
  325MOL0     H42868   4.842  -1.465   4.146  0.5906  0.0835  0.3327
  325MOL0     H42869   4.737  -1.604   4.096 -1.4503  1.1442 -0.4444
  325MOL0     H42870   4.785  -1.692   4.351 -1.5033 -0.5592 -1.3993
  325MOL0     H42871   4.881  -1.563   4.379 -1.0501  1.8679 -0.1850
  325MOL0     H42872   5.039  -1.616   4.189  0.7928 -1.0646  0.0217
  325MOL0     H42873   5.034  -1.741   4.315 -3.4766 -1.4077  1.0498
  325MOL0     H42874   4.889  -1.756   4.056  0.0231 -1.4024 -0.4548
  325MOL0     H42875   4.865  -1.871   4.178 -0.4347  2.2367  0.9686
  325MOL0     H42876   5.124  -1.826   4.029 -1.0201  1.5305 -1.3510
  325MOL0     H42877   5.010  -1.967   4.036 -1.0617  1.5960  0.2609
  325MOL0     H42878   5.204  -1.889   4.269  0.8051 -2.5850  0.8820
  325MOL0     H42879   5.071  -2.008   4.262 -1.9532  0.6935 -0.7709
  325MOL0     H42880   5.302  -2.110   4.234 -0.6630 -2.8778 -0.8231
  325MOL0     H42881   5.331  -2.019   4.092  1.4349 -0.1143  1.5021
  325MOL0     H42882   4.457  -1.357   4.375  1.3677  1.3455 -0.8356
  325MOL0     H42883   4.204  -1.273   4.366  0.1103 -0.2265 -0.0652
  325MOL0     H42884   3.821  -1.207   4.210 -2.2035 -0.5910  0.0275
  325MOL0     H42885   3.579  -1.147   4.201 -0.9558 -1.4152 -2.2485
  325MOL0     H42886   3.641  -0.068   4.562 -2.9968  1.3609 -1.3555
  325MOL0     H42887   3.458   0.078   4.502 -0.3321  0.4419 -0.3820
  325MOL0     H42888   3.305   0.725   4.593 -1.0801  2.0374  1.0252
  325MOL0     H42889   3.088   0.798   4.561 -1.0210  0.4858 -1.7293
  325MOL0     H42890   2.907   0.806   4.439  1.7865  0.7517  1.5962
  325MOL0     H42891   2.871   0.814   4.617 -1.2394  0.0936  0.1089
  325MOL0     H42892   2.669   0.757   4.387  0.7945 -0.1981 -0.2326
  325MOL0     H42893   2.649   0.719   4.564  2.3111 -1.4156 -0.1923
  325MOL0     H42894   2.528   0.906   4.517 -0.8976  0.3466  3.2511
  325MOL0     H42895   2.644   0.994   4.415  1.5065 -2.4473 -1.1388
  325MOL0     H42896   2.682   0.947   4.705 -1.4883 -0.5061 -1.0289
  325MOL0     H42897   2.777   1.052   4.603 -0.3673  0.2513  0.4904
  325MOL0     H42898   2.460   1.305   4.698 -1.2347 -0.4165  0.5808
  325MOL0     H42899   2.951   0.380   4.536 -1.6562  0.1365  4.5764
  325MOL0     H42900   3.157   0.304   4.593 -1.4109 -0.3603 -0.8163
  326MOL0     O42901   7.055   0.604   2.665 -1.0460  0.2954  0.3741
  326MOL0     C42902   7.037   0.607   2.538  0.6658 -0.7268 -0.9312
  326MOL0     O42903   6.918   0.655   2.490 -0.3834 -0.3221 -0.9484
  326MOL0     C42904   6.808   0.649   2.570  0.5654 -0.2478 -0.0890
  326MOL0     C42905   6.791   0.703   2.695 -0.3125 -0.3431  0.0612
  326MOL0     C42906   6.663   0.705   2.760 -0.8052 -0.1750  0.3039
  326MOL0     C42907   6.555   0.634   2.700 -0.4391  0.6414 -0.5394
  326MOL0     O42908   6.436   0.627   2.775  0.3583  0.0521 -0.2362
  326MOL0     C42909   6.317   0.575   2.709  0.1934  0.6218  0.4467
  326MOL0     C42910   6.210   0.578   2.811  0.5750 -0.3959  0.8811
  326MOL0     C42911   6.060   0.590   2.762 -0.3118  0.0414 -0.6764
  326MOL0     C42912   6.016   0.478   2.674  0.3035  1.0903  0.0452
  326MOL0     C42913   5.873   0.487   2.642 -0.1029 -0.5463 -0.0678
  326MOL0     C42914   5.843   0.386   2.525 -0.5843  0.6118  0.3643
  326MOL0     C42915   5.703   0.384   2.487  0.1910  0.3993 -0.6907
  326MOL0     C42916   5.604   0.304   2.585  0.1202 -0.2252  0.6411
  326MOL0     N42917   5.464   0.296   2.548  0.3261  0.5471  0.0529
  326MOL0     C42918   5.360   0.358   2.613 -0.0595 -0.4213 -0.0023
  326MOL0     C42919   5.261   0.361   2.528  0.0122 -0.2669 -0.8490
  326MOL0     C42920   5.130   0.427   2.567 -0.2394 -0.2175  0.7239
  326MOL0     C42921   5.013   0.348   2.501  0.4211  0.8996  0.1237
  326MOL0     C42922   4.865   0.409   2.511  0.9422 -0.3684  0.1641
  326MOL0     C42923   4.778   0.421   2.383  0.4749  0.4861  0.3102
  326MOL0     O42924   4.672   0.505   2.426 -0.3239  0.0956  0.6961
  326MOL0     C42925   4.567   0.531   2.342  0.2611  1.1932  0.2757
  326MOL0     C42926   4.541   0.463   2.231  0.3903 -0.5482  0.5819
  326MOL0     C42927   4.437   0.498   2.143  0.9068  0.4701  0.0421
  326MOL0     C42928   4.351   0.603   2.177  0.3537  0.0216 -0.0923
  326MOL0     C42929   4.246   0.653   2.080 -0.1221 -0.0491 -0.9158
  326MOL0     O42930   4.225   0.590   1.965 -0.2866  0.2063 -0.7318
  326MOL0     C42931   4.131   0.638   1.882  0.5261 -0.3988  0.8292
  326MOL0     C42932   3.993   0.634   1.914 -0.5180 -0.9331  0.2443
  326MOL0     C42933   3.901   0.696   1.821  0.4126  1.3263 -0.7066
  326MOL0     C42934   3.937   0.756   1.708  0.0276 -0.1758  0.2216
  326MOL0     O42935   3.854   0.803   1.615 -0.3458 -0.1209  0.4106
  326MOL0     C42936   3.723   0.837   1.665 -0.6295 -0.3090  0.9653
  326MOL0     C42937   3.655   0.932   1.568 -0.1390 -0.1209 -0.1041
  326MOL0     C42938   3.499   0.953   1.578  0.1561 -0.5525 -0.4095
  326MOL0     C42939   3.425   0.824   1.596 -0.2544 -0.0453 -0.8293
  326MOL0     C42940   3.278   0.839   1.579  1.6724  0.4168 -0.6962
  326MOL0     C42941   3.237   0.837   1.434 -0.0132 -1.3386 -0.0548
  326MOL0     C42942   3.097   0.893   1.411 -1.0098 -0.9753 -0.1099
  326MOL0     C42943   3.060   0.893   1.263 -0.5000 -0.5283 -0.6906
  326MOL0    Cl42944   3.044   0.735   1.193 -0.0355  0.0162  0.4809
  326MOL0     C42945   4.076   0.780   1.691 -0.3081 -0.4551 -0.4828
  326MOL0     C42946   4.172   0.710   1.767  1.1125  0.5195 -0.2259
  326MOL0     O42947   4.186   0.756   2.118  0.1516 -0.3429  0.5107
  326MOL0     C42948   4.372   0.664   2.298 -0.1863 -0.5545 -0.0848
  326MOL0     C42949   4.485   0.634   2.378 -0.1550 -0.1263  0.4562
  326MOL0     N42950   5.288   0.285   2.418 -0.3350  0.2668 -0.2480
  326MOL0     N42951   5.413   0.251   2.429 -0.4585  0.0574 -0.2129
  326MOL0     C42952   6.566   0.592   2.568 -0.5126 -0.0552 -0.2989
  326MOL0     C42953   6.688   0.597   2.511 -0.0104 -0.0042 -0.1608
  326MOL0     C42954   7.133   0.580   2.432 -0.8850 -0.3775  0.0491
  326MOL0     C42955   7.226   0.483   2.455  0.2484  1.5265  0.2523
  326MOL0     C42956   7.306   0.436   2.356  0.3905 -0.5658 -1.1974
  326MOL0     C42957   7.299   0.489   2.229 -0.1895  0.6882 -0.4262
  326MOL0     O42958   7.374   0.423   2.135 -0.7269 -0.6879  0.4392
  326MOL0     C42959   7.475   0.508   2.064  0.5285  0.0234  0.2215
  326MOL0     C42960   7.591   0.546   2.153  0.3764  0.4104  0.0241
  326MOL0     C42961   7.706   0.622   2.082  0.6462  0.5617 -0.3005
  326MOL0     C42962   7.820   0.528   2.062  0.5111  0.6617 -1.1795
  326MOL0     C42963   7.787   0.394   1.999 -0.0213 -0.8403 -0.2233
  326MOL0     C42964   7.752   0.289   1.954 -0.6087 -0.1927  0.4372
  326MOL0     C42965   7.212   0.582   2.198 -0.5880 -1.1318  0.0603
  326MOL0     C42966   7.126   0.641   2.302 -0.8277  0.0062  0.0265
  326MOL0     H42967   6.874   0.758   2.736 -0.7399  0.8786 -0.6458
  326MOL0     H42968   6.657   0.764   2.851  1.5676 -1.2391  1.2112
  326MOL0     H42969   6.341   0.472   2.683  1.7964  0.4876  2.1941
  326MOL0     H42970   6.279   0.633   2.624 -0.0734  0.1483  0.2426
  326MOL0     H42971   6.221   0.668   2.873  0.7068  0.8035 -0.8356
  326MOL0     H42972   6.223   0.491   2.877  3.2650 -0.2257  0.6961
  326MOL0     H42973   6.036   0.687   2.718 -1.3372  0.5866  0.9778
  326MOL0     H42974   5.997   0.581   2.851 -1.1140  1.2148 -1.0872
  326MOL0     H42975   6.072   0.499   2.582 -2.2847  0.4518 -1.7913
  326MOL0     H42976   6.028   0.372   2.700 -6.7795  0.2321  1.9643
  326MOL0     H42977   5.850   0.591   2.619  1.1134 -0.1577  0.4491
  326MOL0     H42978   5.811   0.456   2.727 -1.4582 -2.8662 -1.7807
  326MOL0     H42979   5.863   0.286   2.565 -1.1519 -0.9694 -3.0169
  326MOL0     H42980   5.903   0.409   2.437  0.2235 -1.4963  0.2978
  326MOL0     H42981   5.682   0.491   2.489  1.5233  0.6679  0.9756
  326MOL0     H42982   5.680   0.349   2.385 -4.6144 -0.0736  0.3192
  326MOL0     H42983   5.604   0.349   2.685 -0.3997  0.2074  0.4524
  326MOL0     H42984   5.636   0.200   2.597 -0.1964 -0.2199  1.5958
  326MOL0     H42985   5.360   0.384   2.718  0.0528  1.5426 -0.4576
  326MOL0     H42986   5.137   0.531   2.534  3.8023 -0.5979 -0.0885
  326MOL0     H42987   5.122   0.433   2.676  2.3579  1.6421  0.8909
  326MOL0     H42988   5.006   0.252   2.553 -1.8763  1.8834  1.8221
  326MOL0     H42989   5.026   0.331   2.394 -0.8364 -0.9151  0.2047
  326MOL0     H42990   4.813   0.344   2.582 -2.5525  1.7530 -0.2134
  326MOL0     H42991   4.886   0.508   2.552  2.5810  0.3733 -2.2518
  326MOL0     H42992   4.758   0.325   2.336  2.6383  0.4510 -0.6676
  326MOL0     H42993   4.824   0.480   2.303  1.0540 -1.3373 -0.7643
  326MOL0     H42994   4.609   0.388   2.192  1.6185  0.9254 -0.2098
  326MOL0     H42995   4.437   0.450   2.046 -2.8636  1.3082 -0.5504
  326MOL0     H42996   3.962   0.595   2.011  2.2130 -1.8638  0.8277
  326MOL0     H42997   3.800   0.674   1.856  0.3636  1.2585 -0.8912
  326MOL0     H42998   3.728   0.895   1.757  2.6706  1.6273 -0.2714
  326MOL0     H42999   3.666   0.743   1.666 -0.7525 -0.2330  1.0338
  326MOL0     H43000   3.683   0.892   1.470 -0.8059  2.5023 -1.4553
  326MOL0     H43001   3.707   1.028   1.572 -0.9238  0.2840  2.4047
  326MOL0     H43002   3.460   1.014   1.496  1.2381 -1.0027 -1.2800
  326MOL0     H43003   3.492   1.012   1.670 -0.0107 -1.6316  0.2877
  326MOL0     H43004   3.453   0.749   1.522 -1.7650 -1.3402 -0.1497
  326MOL0     H43005   3.444   0.783   1.696 -2.4239  0.9877  0.0919
  326MOL0     H43006   3.239   0.936   1.611  0.0461 -0.7374  0.9575
  326MOL0     H43007   3.232   0.760   1.639  0.8580  0.3935 -1.3322
  326MOL0     H43008   3.246   0.737   1.391 -1.4830 -0.5365 -2.4652
  326MOL0     H43009   3.304   0.899   1.375 -1.3915  0.8516  0.5533
  326MOL0     H43010   3.022   0.832   1.462 -2.8357  0.6772 -0.6940
  326MOL0     H43011   3.091   0.991   1.458 -1.3752 -2.1055  2.3514
  326MOL0     H43012   3.149   0.942   1.223  0.8622 -0.9399  1.6406
  326MOL0     H43013   2.976   0.961   1.246 -0.2852  0.0381  0.3871
  326MOL0     H43014   4.120   0.840   1.611  1.1019 -0.0732  0.5312
  326MOL0     H43015   4.278   0.723   1.749  1.7103 -1.3361  1.5159
  326MOL0     H43016   4.316   0.754   2.322 -2.0237 -1.0927 -2.0475
  326MOL0     H43017   4.503   0.682   2.474 -2.9839 -1.7420  1.9551
  326MOL0     H43018   6.492   0.538   2.510  1.5952 -2.6826 -0.7063
  326MOL0     H43019   6.708   0.562   2.410  0.1802 -2.6417  0.7029
  326MOL0     H43020   7.222   0.423   2.546  0.7854  0.3839 -0.4560
  326MOL0     H43021   7.377   0.356   2.375 -0.2987 -0.2455  4.6386
  326MOL0     H43022   7.417   0.585   2.013  0.4750 -0.4867 -0.5058
  326MOL0     H43023   7.526   0.461   1.980  0.0597  1.5103 -0.9365
  326MOL0     H43024   7.545   0.600   2.236  1.7126  2.8579 -0.7280
  326MOL0     H43025   7.626   0.453   2.198 -2.3252 -0.0010  1.4900
  326MOL0     H43026   7.730   0.702   2.152 -2.7998  0.4345  1.2377
  326MOL0     H43027   7.672   0.659   1.985 -1.7613  0.0263  0.2836
  326MOL0     H43028   7.893   0.577   1.998 -0.8565  1.5272 -2.1201
  326MOL0     H43029   7.871   0.507   2.156 -0.5981  1.3719 -0.3940
  326MOL0     H43030   7.689   0.206   1.928 -0.1008 -0.1973 -0.8506
  326MOL0     H43031   7.196   0.612   2.095 -2.4674  1.4904  1.0208
  326MOL0     H43032   7.055   0.719   2.274  1.2918  1.3204 -2.1171
  327MOL0     O43033   1.098   0.417   6.475  0.3115  0.0837 -0.5620
  327MOL0     C43034   1.180   0.338   6.415  0.8571 -0.2338 -0.4889
  327MOL0     O43035   1.138   0.216   6.360  0.2500 -0.1132  0.5736
  327MOL0     C43036   1.003   0.182   6.364  0.2388 -0.3144  0.1170
  327MOL0     C43037   0.984   0.076   6.447  1.0853  0.3303  0.3383
  327MOL0     C43038   0.858   0.024   6.468 -0.2390  0.1580 -0.2428
  327MOL0     C43039   0.751   0.085   6.400  0.6922  0.0177 -0.4227
  327MOL0     O43040   0.621   0.038   6.407 -0.3712  0.6676 -0.0059
  327MOL0     C43041   0.607  -0.103   6.431  0.6392  0.0833 -0.0387
  327MOL0     C43042   0.472  -0.155   6.407  0.4180 -0.0373 -0.5000
  327MOL0     C43043   0.411  -0.097   6.282  0.7415 -0.5416  0.3427
  327MOL0     C43044   0.503  -0.101   6.160 -0.4700 -0.4935  0.5094
  327MOL0     C43045   0.434  -0.046   6.029 -0.4325  1.1603 -0.0229
  327MOL0     C43046   0.476   0.100   6.005  0.4338 -0.6734 -0.3899
  327MOL0     C43047   0.429   0.140   5.864 -0.7685 -0.8484 -0.2672
  327MOL0     C43048   0.481   0.286   5.837  0.1954 -0.3667  1.3806
  327MOL0     N43049   0.610   0.320   5.881 -0.4598 -1.2114  0.2377
  327MOL0     C43050   0.725   0.246   5.864  0.7035  1.1706 -0.0599
  327MOL0     C43051   0.822   0.314   5.932  0.9416  0.0656 -0.2944
  327MOL0     C43052   0.973   0.305   5.902  0.1281  0.2252 -0.4197
  327MOL0     C43053   1.053   0.435   5.938 -0.3471 -0.8956  0.2080
  327MOL0     C43054   1.186   0.426   5.866  0.2207 -0.8043 -0.3699
  327MOL0     C43055   1.307   0.494   5.928  0.0232  0.1152  1.0013
  327MOL0     O43056   1.337   0.623   5.873  0.1390 -0.4192  0.1468
  327MOL0     C43057   1.463   0.681   5.902  0.6762 -0.2565  0.8099
  327MOL0     C43058   1.476   0.815   5.862  0.1330  0.8932 -0.2638
  327MOL0     C43059   1.607   0.876   5.882  0.0285  0.1981 -0.8192
  327MOL0     C43060   1.713   0.811   5.941 -0.0758 -0.0649  0.3177
  327MOL0     C43061   1.847   0.876   5.952  0.0663  1.0540 -0.7393
  327MOL0     O43062   1.954   0.787   5.972 -0.4789 -0.2605 -0.6939
  327MOL0     C43063   2.084   0.830   5.981 -0.2640  0.6727 -0.3950
  327MOL0     C43064   2.135   0.916   5.894 -0.5761 -0.7000  0.6175
  327MOL0     C43065   2.272   0.947   5.888  0.9551 -0.3869 -0.3139
  327MOL0     C43066   2.362   0.888   5.972  0.6543 -0.1770 -0.7124
  327MOL0     O43067   2.494   0.912   5.951  0.0288 -0.2742 -0.2342
  327MOL0     C43068   2.599   0.852   6.036 -0.6889  0.2086  0.5660
  327MOL0     C43069   2.742   0.842   5.970  0.1467  0.0556  0.4667
  327MOL0     C43070   2.764   0.718   5.885 -0.4971 -0.0422  0.5054
  327MOL0     C43071   2.691   0.714   5.748 -0.3971  0.1408 -0.3034
  327MOL0     C43072   2.745   0.597   5.661  0.3204 -0.2835 -0.3697
  327MOL0     C43073   2.671   0.573   5.541  0.2846  0.6077  0.3017
  327MOL0     C43074   2.754   0.506   5.431  0.8529  0.3101  0.7804
  327MOL0     C43075   2.847   0.605   5.355  0.4176  0.1307  0.0101
  327MOL0    Cl43076   2.954   0.528   5.243  0.4082 -0.0750  0.2832
  327MOL0     C43077   2.310   0.788   6.058 -0.3239 -1.0900 -0.8964
  327MOL0     C43078   2.171   0.772   6.068 -0.2199 -0.4337 -0.3022
  327MOL0     O43079   1.855   0.999   5.948  0.0214  0.4121 -0.3219
  327MOL0     C43080   1.689   0.677   5.985  0.1297  0.0280  1.0327
  327MOL0     C43081   1.569   0.612   5.963  0.3388 -0.6264  0.1639
  327MOL0     N43082   0.750   0.420   5.999  0.7412 -0.3235 -0.6291
  327MOL0     N43083   0.628   0.423   5.973  0.2894  0.4730  0.1617
  327MOL0     C43084   0.774   0.198   6.321 -0.3061 -1.2369 -0.5078
  327MOL0     C43085   0.899   0.245   6.295  0.7950 -0.5016 -0.2812
  327MOL0     C43086   1.311   0.388   6.396 -0.7779 -0.2734  0.1912
  327MOL0     C43087   1.386   0.316   6.295 -0.3303  0.7506 -0.1740
  327MOL0     C43088   1.516   0.354   6.275  0.2003  0.5191  0.1106
  327MOL0     C43089   1.578   0.466   6.346  0.2922 -0.1336  0.0119
  327MOL0     O43090   1.708   0.481   6.309  0.3896 -0.0241 -0.1096
  327MOL0     C43091   1.776   0.594   6.361 -0.2328 -0.2312  0.8419
  327MOL0     C43092   1.921   0.564   6.329 -0.9983 -1.6695 -0.8163
  327MOL0     C43093   2.021   0.669   6.394  0.4556 -0.6842  0.5886
  327MOL0     C43094   2.017   0.694   6.542  0.2058  0.8013  0.2691
  327MOL0     C43095   2.034   0.566   6.616  0.2100 -0.1558  0.5778
  327MOL0     C43096   2.060   0.465   6.669  0.3607  0.0575  1.2480
  327MOL0     C43097   1.503   0.542   6.444  0.1896  0.3145  0.1638
  327MOL0     C43098   1.365   0.503   6.465  0.0678  0.2074 -0.8400
  327MOL0     H43099   1.061   0.018   6.498  0.0182 -3.3347 -1.8300
  327MOL0     H43100   0.861  -0.062   6.534 -1.0787 -1.6835 -2.4750
  327MOL0     H43101   0.635  -0.117   6.536 -0.9829 -0.8286  0.3040
  327MOL0     H43102   0.677  -0.148   6.360  2.0307 -1.3287  2.1202
  327MOL0     H43103   0.417  -0.125   6.497  0.0384 -2.8159  0.2792
  327MOL0     H43104   0.471  -0.264   6.405 -1.4747 -0.1004  0.7339
  327MOL0     H43105   0.362   0.000   6.297 -5.7315 -3.0298 -1.1555
  327MOL0     H43106   0.325  -0.154   6.244  0.0268  1.6866 -1.6791
  327MOL0     H43107   0.596  -0.046   6.181 -0.3601 -0.1919 -0.7068
  327MOL0     H43108   0.529  -0.206   6.146 -2.6087 -1.1610  1.1117
  327MOL0     H43109   0.327  -0.062   6.038  0.1135 -2.5803  1.8851
  327MOL0     H43110   0.472  -0.102   5.943  0.3849  3.5191 -1.2983
  327MOL0     H43111   0.585   0.095   6.014  0.6665  0.3729 -2.1448
  327MOL0     H43112   0.442   0.162   6.088  2.8980  2.0413 -1.2276
  327MOL0     H43113   0.482   0.082   5.788  0.9081 -0.1143  0.2896
  327MOL0     H43114   0.321   0.131   5.849 -0.5932 -5.6530  0.0083
  327MOL0     H43115   0.400   0.351   5.872  0.9352  1.3000  0.1494
  327MOL0     H43116   0.490   0.299   5.729 -0.1082  1.6232  1.5559
  327MOL0     H43117   0.731   0.155   5.805 -0.4931 -0.9824  2.8773
  327MOL0     H43118   0.981   0.293   5.793 -2.7347 -0.0689 -0.6606
  327MOL0     H43119   1.022   0.217   5.944 -1.0544  0.2209  1.0183
  327MOL0     H43120   1.089   0.429   6.042  1.7161 -0.4396 -0.4247
  327MOL0     H43121   0.995   0.525   5.916  3.0298  1.5162  0.3212
  327MOL0     H43122   1.213   0.323   5.840  2.8341 -0.2364 -0.1301
  327MOL0     H43123   1.171   0.484   5.775 -0.2124  2.1759  1.4724
  327MOL0     H43124   1.393   0.435   5.894 -0.4431  1.2845 -2.5770
  327MOL0     H43125   1.299   0.489   6.037 -2.9239 -1.5445  0.8259
  327MOL0     H43126   1.390   0.868   5.821 -2.1925 -2.3564 -0.0607
  327MOL0     H43127   1.632   0.974   5.843  1.0330  0.0154 -0.6616
  327MOL0     H43128   2.066   0.956   5.820  1.4945  0.5777 -0.7354
  327MOL0     H43129   2.311   1.021   5.818  1.3104 -0.1349  0.1468
  327MOL0     H43130   2.561   0.752   6.057 -2.0508  0.1209 -1.7996
  327MOL0     H43131   2.597   0.905   6.131 -3.0835 -1.2179  1.4013
  327MOL0     H43132   2.814   0.845   6.052  0.7835 -1.2716 -0.0213
  327MOL0     H43133   2.754   0.917   5.891  1.2066 -0.6895 -0.1020
  327MOL0     H43134   2.738   0.632   5.948  0.6809  0.4596  1.7364
  327MOL0     H43135   2.871   0.710   5.862 -0.7534  0.5968 -1.0010
  327MOL0     H43136   2.583   0.704   5.762 -0.0755  0.7955  3.7675
  327MOL0     H43137   2.705   0.809   5.695 -1.7330 -1.9243 -4.8484
  327MOL0     H43138   2.757   0.509   5.724 -2.0063 -0.9703 -0.8229
  327MOL0     H43139   2.850   0.617   5.636  0.1291  2.4651  0.6836
  327MOL0     H43140   2.626   0.667   5.505 -0.2906  0.9012  1.6864
  327MOL0     H43141   2.586   0.513   5.575 -0.0268  1.4954  1.1855
  327MOL0     H43142   2.814   0.434   5.487 -0.9298 -0.3284  1.9552
  327MOL0     H43143   2.687   0.446   5.370  1.7783  3.2456 -3.5909
  327MOL0     H43144   2.909   0.659   5.427  0.4931  2.6376 -1.7869
  327MOL0     H43145   2.795   0.689   5.308  2.5257  1.1034 -0.7253
  327MOL0     H43146   2.375   0.738   6.129 -0.2325  0.8358  0.4746
  327MOL0     H43147   2.135   0.688   6.127 -0.9041  0.1949  0.1907
  327MOL0     H43148   1.762   0.622   6.044 -0.4406 -1.8449  0.0742
  327MOL0     H43149   1.564   0.511   6.003  1.7830 -0.3954  1.0057
  327MOL0     H43150   0.699   0.246   6.259  1.4232 -1.8518 -3.2793
  327MOL0     H43151   0.923   0.320   6.220  0.7403  1.3415  1.4576
  327MOL0     H43152   1.345   0.237   6.233 -4.2758  3.8309 -1.9952
  327MOL0     H43153   1.571   0.315   6.191 -1.8177 -3.7840  0.5314
  327MOL0     H43154   1.767   0.594   6.470  0.6281  4.1340  1.0876
  327MOL0     H43155   1.746   0.693   6.325  2.2358 -0.4386 -2.2233
  327MOL0     H43156   1.963   0.468   6.362  2.1600 -1.3067 -3.3040
  327MOL0     H43157   1.939   0.570   6.222  1.3417  0.1534 -0.3916
  327MOL0     H43158   2.005   0.768   6.350 -1.8342 -0.9316  0.7494
  327MOL0     H43159   2.120   0.643   6.356  0.6417  0.6172  0.1198
  327MOL0     H43160   2.108   0.751   6.565  0.7960  1.1412 -2.5702
  327MOL0     H43161   1.923   0.744   6.567 -1.0136  0.1191 -2.6169
  327MOL0     H43162   2.113   0.375   6.689  0.3673 -0.0512  0.7654
  327MOL0     H43163   1.540   0.627   6.499 -2.4143  0.2231  2.2276
  327MOL0     H43164   1.314   0.560   6.541  1.2074  0.9397 -0.5926
  328MOL0     O43165   1.413   1.033   7.623 -0.5232  0.6268  0.3084
  328MOL0     C43166   1.526   0.992   7.607 -0.0703  1.1020 -0.4016
  328MOL0     O43167   1.584   0.962   7.488 -0.0425 -0.0618 -0.8994
  328MOL0     C43168   1.543   1.020   7.366 -0.1804 -0.1777  0.0655
  328MOL0     C43169   1.513   0.931   7.263 -0.2125 -0.1741 -1.0563
  328MOL0     C43170   1.459   0.978   7.143 -0.9330 -0.0510  0.4922
  328MOL0     C43171   1.439   1.114   7.121 -0.1027  1.0450 -0.9510
  328MOL0     O43172   1.399   1.157   7.004  0.2726  0.1753  0.2945
  328MOL0     C43173   1.499   1.180   6.902 -0.3798  0.2384  1.3598
  328MOL0     C43174   1.434   1.108   6.778  0.3120  0.6643  1.1113
  328MOL0     C43175   1.515   1.133   6.652 -0.6243  0.1583  0.1909
  328MOL0     C43176   1.468   1.041   6.532 -0.2307 -0.2842 -0.8489
  328MOL0     C43177   1.511   1.102   6.403  0.0948 -0.0523  0.7907
  328MOL0     C43178   1.458   1.041   6.274 -0.8720 -0.0398 -0.8419
  328MOL0     C43179   1.518   1.081   6.141 -1.1223 -0.0973  0.4337
  328MOL0     C43180   1.460   1.212   6.090  0.6887 -0.6535 -0.6155
  328MOL0     N43181   1.417   1.205   5.945  0.5119  0.1435  0.6786
  328MOL0     C43182   1.440   1.297   5.846  0.4748 -0.3300  0.3449
  328MOL0     C43183   1.346   1.261   5.750 -0.9745 -0.4459 -0.7049
  328MOL0     C43184   1.312   1.346   5.634 -1.0447  0.4051  1.2034
  328MOL0     C43185   1.173   1.407   5.635  1.3812 -0.3653  0.0279
  328MOL0     C43186   1.118   1.475   5.509 -0.1576 -1.1661  0.7963
  328MOL0     C43187   1.188   1.605   5.462  0.2523  0.1889  0.6327
  328MOL0     O43188   1.213   1.708   5.564  0.0074 -0.3592 -0.2695
  328MOL0     C43189   1.145   1.832   5.569  0.5294  1.1389  0.0445
  328MOL0     C43190   1.196   1.946   5.627  1.3836 -0.5673  1.3321
  328MOL0     C43191   1.135   2.069   5.621 -0.2809  0.0834 -1.2417
  328MOL0     C43192   1.006   2.076   5.570 -0.7018 -0.2943  0.4197
  328MOL0     C43193   0.923   2.197   5.593 -0.0694 -0.9906 -0.6258
  328MOL0     O43194   0.803   2.206   5.517 -0.1636 -0.0228 -0.5992
  328MOL0     C43195   0.702   2.296   5.551 -0.1540  0.7661 -0.0931
  328MOL0     C43196   0.655   2.383   5.456  0.4723 -1.1872  0.7488
  328MOL0     C43197   0.547   2.472   5.483  0.4215  0.3746  0.8171
  328MOL0     C43198   0.488   2.491   5.609  0.5964  0.8629 -0.4975
  328MOL0     O43199   0.375   2.565   5.628  0.2912  0.3813  0.0505
  328MOL0     C43200   0.334   2.599   5.760  0.2921  0.7468 -0.5451
  328MOL0     C43201   0.245   2.724   5.752 -0.0147  0.2060  0.4267
  328MOL0     C43202   0.301   2.854   5.702 -0.4549  0.4196  0.6734
  328MOL0     C43203   0.416   2.896   5.796  0.0182  0.2475  0.4624
  328MOL0     C43204   0.457   3.043   5.773 -0.5330 -0.0185 -0.3939
  328MOL0     C43205   0.601   3.044   5.848  0.2687 -0.1846  0.8005
  328MOL0     C43206   0.657   3.188   5.831 -0.6961  0.7029 -0.5311
  328MOL0     C43207   0.808   3.191   5.885 -0.4684 -0.2237 -0.4999
  328MOL0    Cl43208   0.876   3.359   5.892 -0.5365  0.8227  0.0819
  328MOL0     C43209   0.543   2.407   5.710  0.4271  1.1106 -0.0871
  328MOL0     C43210   0.638   2.313   5.680  0.1682  0.3209 -0.5411
  328MOL0     O43211   0.950   2.269   5.688 -0.0805  0.7975  0.4379
  328MOL0     C43212   0.952   1.962   5.504  0.5717 -0.1267  0.2998
  328MOL0     C43213   1.020   1.839   5.512  0.6486  0.3157 -0.1852
  328MOL0     N43214   1.278   1.149   5.788  0.9033  0.1087  0.2918
  328MOL0     N43215   1.312   1.132   5.908  0.6521 -0.6018  0.1073
  328MOL0     C43216   1.480   1.197   7.216 -0.2938 -0.1766 -0.6944
  328MOL0     C43217   1.532   1.159   7.340 -1.0391  0.8680  0.1094
  328MOL0     C43218   1.615   0.985   7.723 -0.1516 -0.5284  0.4245
  328MOL0     C43219   1.746   0.938   7.710 -0.1477 -0.6609  0.4774
  328MOL0     C43220   1.829   0.923   7.824 -0.5626 -0.1531  1.1811
  328MOL0     C43221   1.771   0.962   7.947  0.7379  1.0944 -0.0272
  328MOL0     O43222   1.846   0.963   8.056  0.5424 -0.2055  0.2605
  328MOL0     C43223   1.890   0.840   8.115 -0.2794 -0.3524 -0.6660
  328MOL0     C43224   2.013   0.866   8.208  0.8956 -0.0457 -0.7372
  328MOL0     C43225   2.108   0.739   8.192 -0.3202 -0.7804  1.0320
  328MOL0     C43226   2.240   0.770   8.251  0.0851 -0.1625  0.2000
  328MOL0     C43227   2.312   0.882   8.183 -0.5501  0.1805  0.8458
  328MOL0     C43228   2.391   0.963   8.142  0.2866  0.4210 -0.2896
  328MOL0     C43229   1.636   1.000   7.963  0.8917 -0.7811  1.3528
  328MOL0     C43230   1.558   1.003   7.855  0.2661 -0.3810 -0.0712
  328MOL0     H43231   1.534   0.826   7.274  3.9586  0.6913  1.4402
  328MOL0     H43232   1.420   0.913   7.066  0.9429  2.4345 -2.8203
  328MOL0     H43233   1.595   1.133   6.926 -0.1408 -0.2847 -0.4955
  328MOL0     H43234   1.518   1.286   6.882 -0.8793 -0.3998 -3.4986
  328MOL0     H43235   1.334   1.147   6.762 -0.1896  1.0890  4.5331
  328MOL0     H43236   1.424   0.999   6.786  0.2343  0.7030  1.5741
  328MOL0     H43237   1.621   1.106   6.663 -0.6953  0.4787  1.9074
  328MOL0     H43238   1.512   1.242   6.637  2.7201  0.1600 -1.5118
  328MOL0     H43239   1.498   0.938   6.550 -0.3864 -0.1168  0.5295
  328MOL0     H43240   1.360   1.054   6.521 -0.2649 -2.1905 -3.7825
  328MOL0     H43241   1.619   1.106   6.385  0.1897 -2.9089  0.2478
  328MOL0     H43242   1.474   1.205   6.399 -0.4138 -0.2242 -3.3430
  328MOL0     H43243   1.351   1.059   6.278 -0.6155  1.7673  3.7429
  328MOL0     H43244   1.464   0.932   6.283 -2.2443  0.0229  2.2636
  328MOL0     H43245   1.626   1.084   6.125 -1.2149 -0.1173 -0.2360
  328MOL0     H43246   1.487   1.005   6.069 -1.3865  1.2213 -0.8945
  328MOL0     H43247   1.522   1.301   6.103  2.3423 -1.8905  0.3646
  328MOL0     H43248   1.377   1.237   6.156  0.7316  1.6447 -1.3653
  328MOL0     H43249   1.503   1.385   5.842 -0.1387  0.1230  0.5633
  328MOL0     H43250   1.332   1.278   5.550  0.0099  2.5296 -0.3642
  328MOL0     H43251   1.389   1.423   5.623 -3.0287  2.2938 -0.7515
  328MOL0     H43252   1.163   1.475   5.720  2.0154  1.2050 -1.0903
  328MOL0     H43253   1.095   1.332   5.643  1.3547 -0.5617 -1.6853
  328MOL0     H43254   1.123   1.406   5.424  4.9285  0.9492 -1.0554
  328MOL0     H43255   1.011   1.497   5.509  0.3047  1.4528  1.4642
  328MOL0     H43256   1.133   1.646   5.377 -0.9680  1.5840  2.0180
  328MOL0     H43257   1.287   1.576   5.428  0.9369  4.5767 -1.8774
  328MOL0     H43258   1.300   1.934   5.658  1.7890  1.6142  0.9594
  328MOL0     H43259   1.181   2.154   5.670 -3.9093  1.0785  0.8432
  328MOL0     H43260   0.694   2.389   5.355 -1.0532  1.8853  0.2164
  328MOL0     H43261   0.501   2.527   5.401 -0.9364 -0.3595  1.0502
  328MOL0     H43262   0.418   2.628   5.824 -0.2661  2.7745 -0.6684
  328MOL0     H43263   0.272   2.520   5.802  0.9765  0.8571  0.7141
  328MOL0     H43264   0.204   2.736   5.852 -0.8744 -4.6815  0.8691
  328MOL0     H43265   0.150   2.709   5.700  0.0582 -2.4542  0.9249
  328MOL0     H43266   0.218   2.925   5.697 -0.4368  0.3654 -3.0180
  328MOL0     H43267   0.335   2.826   5.602 -1.4687  1.1076  0.1232
  328MOL0     H43268   0.376   2.900   5.898 -0.2019  2.4399  0.3538
  328MOL0     H43269   0.498   2.827   5.774 -0.9522 -0.5949 -0.5695
  328MOL0     H43270   0.382   3.117   5.805 -1.4787 -0.8496 -0.6197
  328MOL0     H43271   0.483   3.062   5.669 -0.4905 -0.2121 -0.4183
  328MOL0     H43272   0.669   2.980   5.791 -1.4142 -0.4150 -1.0759
  328MOL0     H43273   0.599   3.001   5.948 -1.9546 -0.8263  0.5322
  328MOL0     H43274   0.647   3.235   5.733  1.1949  1.3338 -0.4530
  328MOL0     H43275   0.597   3.246   5.903 -0.3528  2.1767 -1.4014
  328MOL0     H43276   0.855   3.106   5.834  1.3797  1.1178 -1.1885
  328MOL0     H43277   0.824   3.172   5.991 -1.2732 -0.1645 -0.3610
  328MOL0     H43278   0.501   2.402   5.810 -0.6179  1.4015 -0.5007
  328MOL0     H43279   0.666   2.255   5.767  2.0744  0.5859 -0.9278
  328MOL0     H43280   0.860   1.973   5.448  1.1464 -0.5368 -0.7580
  328MOL0     H43281   0.974   1.750   5.471  1.2233 -0.9800  1.8285
  328MOL0     H43282   1.484   1.304   7.198  2.2624 -0.0154  0.2964
  328MOL0     H43283   1.549   1.246   7.403  0.7188  1.3880 -1.0108
  328MOL0     H43284   1.777   0.915   7.609 -1.6752  0.0402 -0.1793
  328MOL0     H43285   1.935   0.901   7.815  0.8770  5.8274 -2.3291
  328MOL0     H43286   1.924   0.767   8.041  0.3085  0.4436 -1.1944
  328MOL0     H43287   1.811   0.790   8.172 -2.1849  2.7613 -0.3445
  328MOL0     H43288   2.059   0.961   8.182  1.5812 -0.1122  0.1879
  328MOL0     H43289   1.968   0.885   8.306  0.6772 -0.4932 -0.7478
  328MOL0     H43290   2.127   0.722   8.086 -2.3321 -1.1460  0.6991
  328MOL0     H43291   2.054   0.653   8.232 -3.3617  0.9595  0.9740
  328MOL0     H43292   2.218   0.779   8.358  2.8049  0.2549  0.8009
  328MOL0     H43293   2.310   0.686   8.246  0.8873  0.5529 -0.9559
  328MOL0     H43294   2.450   1.047   8.111  0.1665  0.5168 -0.2620
  328MOL0     H43295   1.603   1.023   8.064 -0.1196  0.5091  0.7499
  328MOL0     H43296   1.453   1.023   7.874  0.1440 -0.2094 -0.9030
  329MOL0     O43297   0.287   7.103   1.311  0.3800  0.3635 -0.1480
  329MOL0     C43298   0.352   6.999   1.287 -0.2129  1.0277  0.7369
  329MOL0     O43299   0.392   6.908   1.378 -0.0322 -0.9013 -0.5017
  329MOL0     C43300   0.381   6.941   1.506 -0.8208 -0.3861  0.1104
  329MOL0     C43301   0.268   6.914   1.591 -0.4041  0.4350  0.5251
  329MOL0     C43302   0.276   6.933   1.720 -0.2585 -1.0110 -1.6473
  329MOL0     C43303   0.388   6.985   1.783  0.1130 -0.1011  0.2006
  329MOL0     O43304   0.373   6.996   1.920 -0.1963  0.5216  0.7098
  329MOL0     C43305   0.467   7.055   2.003  0.3120  0.8887  0.6002
  329MOL0     C43306   0.406   7.037   2.146 -0.3462  0.4032 -0.3291
  329MOL0     C43307   0.290   7.128   2.181  0.1154 -0.6284  0.8032
  329MOL0     C43308   0.356   7.269   2.216  0.4590  0.0159 -0.2608
  329MOL0     C43309   0.247   7.381   2.200 -0.5627  0.3407 -0.5484
  329MOL0     C43310   0.127   7.362   2.301  0.0899 -0.8332 -0.0929
  329MOL0     C43311   0.018   7.469   2.302 -0.4122 -0.4300  0.0955
  329MOL0     C43312  -0.094   7.441   2.404 -0.9518 -0.3997  0.3193
  329MOL0     N43313  -0.214   7.517   2.380 -0.6789 -0.1969  0.4463
  329MOL0     C43314  -0.244   7.641   2.428 -0.1863  0.4127  0.1650
  329MOL0     C43315  -0.376   7.669   2.389 -0.4982  0.4907  0.0107
  329MOL0     C43316  -0.445   7.802   2.384 -0.4310  1.1873 -0.3115
  329MOL0     C43317  -0.575   7.798   2.461 -0.1273  0.2146  0.0157
  329MOL0     C43318  -0.639   7.941   2.453  0.3591 -0.6689  0.5211
  329MOL0     C43319  -0.770   7.928   2.536  0.2149  0.0875  0.0178
  329MOL0     O43320  -0.882   7.835   2.474 -0.6127 -0.6775 -0.2881
  329MOL0     C43321  -0.963   7.870   2.369  0.4068  0.2923 -0.6603
  329MOL0     C43322  -1.064   7.783   2.335  0.3473  0.1293  0.2313
  329MOL0     C43323  -1.145   7.796   2.218  0.0343  0.3561 -0.0861
  329MOL0     C43324  -1.140   7.919   2.145 -0.2967  0.1039  0.0990
  329MOL0     C43325  -1.243   7.956   2.043  0.3067  0.9341  1.3264
  329MOL0     O43326  -1.363   7.909   2.059  0.6135 -0.5302  0.4072
  329MOL0     C43327  -1.467   7.947   1.978  0.3339  0.6905  0.3338
  329MOL0     C43328  -1.501   7.868   1.879  0.5070  0.4376  0.1927
  329MOL0     C43329  -1.617   7.894   1.800 -0.0555  0.0225  0.2581
  329MOL0     C43330  -1.702   7.999   1.832  0.0454 -0.5203 -0.0308
  329MOL0     O43331  -1.822   8.036   1.773 -0.1945  0.2407 -0.6436
  329MOL0     C43332  -1.890   7.964   1.670  0.7924 -0.7067 -0.9623
  329MOL0     C43333  -1.846   8.031   1.542  0.4252 -0.9190  1.0542
  329MOL0     C43334  -1.923   8.161   1.510 -0.2329 -0.4318  0.3015
  329MOL0     C43335  -1.864   8.259   1.416 -1.0129 -0.1312  0.4119
  329MOL0     C43336  -1.707   8.284   1.457 -0.8983 -0.2298  0.1705
  329MOL0     C43337  -1.637   8.411   1.414 -1.1954  0.5254  0.1602
  329MOL0     C43338  -1.618   8.429   1.257  0.3339  0.4816  0.6593
  329MOL0     C43339  -1.585   8.578   1.219  0.0213  0.0439  0.2432
  329MOL0    Cl43340  -1.704   8.692   1.267 -0.6617  0.3306 -0.0128
  329MOL0     C43341  -1.651   8.092   1.928  0.2637  0.1530  0.2592
  329MOL0     C43342  -1.532   8.069   1.999 -0.2266 -0.1731 -0.4366
  329MOL0     O43343  -1.214   8.025   1.946  0.1434 -0.6414  1.1949
  329MOL0     C43344  -1.042   8.005   2.182 -0.0938  0.3328  0.7917
  329MOL0     C43345  -0.955   7.986   2.293 -0.0025  0.9721 -0.8622
  329MOL0     N43346  -0.415   7.565   2.311 -0.6169  0.1622  0.1052
  329MOL0     N43347  -0.318   7.476   2.301 -0.2458  0.0071  0.9600
  329MOL0     C43348   0.491   7.045   1.701 -0.5873 -0.0908 -0.0679
  329MOL0     C43349   0.490   7.018   1.562 -0.4551 -0.2357  0.0407
  329MOL0     C43350   0.367   6.960   1.145  0.4313 -0.7039 -0.5454
  329MOL0     C43351   0.375   6.821   1.115  0.2613 -0.3802 -0.3455
  329MOL0     C43352   0.380   6.785   0.980 -1.6766  0.1515  0.3160
  329MOL0     C43353   0.382   6.880   0.873 -0.4655  0.3071  0.5952
  329MOL0     O43354   0.397   6.809   0.757 -0.4532  0.0006 -0.0237
  329MOL0     C43355   0.405   6.884   0.630 -0.3407  0.4681 -0.1664
  329MOL0     C43356   0.375   6.779   0.523  0.4172  0.2009  0.2243
  329MOL0     C43357   0.493   6.757   0.434  0.7666 -0.5447  0.1385
  329MOL0     C43358   0.454   6.673   0.315 -0.4637 -0.0953 -0.5793
  329MOL0     C43359   0.576   6.651   0.229  0.2404 -0.7387 -0.1277
  329MOL0     C43360   0.671   6.635   0.162  1.2526 -0.6906  0.3284
  329MOL0     C43361   0.370   7.025   0.900  0.5996 -0.1231 -0.0949
  329MOL0     C43362   0.357   7.055   1.037  0.2546 -1.0655  0.4721
  329MOL0     H43363   0.185   6.866   1.541  1.7689 -1.8444 -1.1100
  329MOL0     H43364   0.188   6.919   1.782  1.0652  0.1901  0.6186
  329MOL0     H43365   0.496   7.155   1.971 -0.0022  0.3029 -1.7026
  329MOL0     H43366   0.557   6.993   1.997 -2.1085 -2.9776  0.4333
  329MOL0     H43367   0.491   7.039   2.214  0.9892 -0.7895 -1.8587
  329MOL0     H43368   0.362   6.936   2.153 -1.4305  0.9437  1.3135
  329MOL0     H43369   0.214   7.100   2.254 -0.6403 -0.2980  0.1628
  329MOL0     H43370   0.244   7.131   2.082 -0.3989 -0.7569  1.0340
  329MOL0     H43371   0.386   7.259   2.321 -2.8083 -1.7491  0.6106
  329MOL0     H43372   0.440   7.293   2.150  1.9260 -2.7458  0.4507
  329MOL0     H43373   0.210   7.380   2.097 -0.2684  1.9776 -0.6901
  329MOL0     H43374   0.289   7.480   2.218 -3.8985  1.6616  0.8611
  329MOL0     H43375   0.172   7.358   2.401 -0.1251 -0.8481  0.0042
  329MOL0     H43376   0.076   7.268   2.280 -0.0042 -0.3288 -2.3654
  329MOL0     H43377   0.069   7.564   2.318  1.3361 -0.3648 -4.4442
  329MOL0     H43378  -0.040   7.483   2.210 -0.1732 -0.2817 -0.0339
  329MOL0     H43379  -0.066   7.475   2.504  0.1768 -1.3200  0.3376
  329MOL0     H43380  -0.125   7.337   2.408 -2.3118 -0.0596 -0.5741
  329MOL0     H43381  -0.169   7.701   2.478  0.3372 -1.3624  1.5920
  329MOL0     H43382  -0.467   7.814   2.278 -0.0017 -0.2089 -0.5741
  329MOL0     H43383  -0.366   7.868   2.422  0.7669 -0.3216 -0.1138
  329MOL0     H43384  -0.543   7.773   2.562  1.5708  1.2194 -0.2349
  329MOL0     H43385  -0.638   7.713   2.431  1.4054 -1.9553  2.4916
  329MOL0     H43386  -0.575   8.018   2.498 -0.9920  0.1762  1.0704
  329MOL0     H43387  -0.665   7.963   2.350  2.1921 -3.8079 -0.7636
  329MOL0     H43388  -0.809   8.026   2.563 -2.3801 -1.3123  1.8607
  329MOL0     H43389  -0.738   7.884   2.631  0.3291 -0.7974 -0.4174
  329MOL0     H43390  -1.069   7.683   2.378  1.3358  0.1207  0.3490
  329MOL0     H43391  -1.211   7.712   2.199  1.2124 -0.6800  0.2979
  329MOL0     H43392  -1.440   7.784   1.848 -1.1300 -0.9729  0.6788
  329MOL0     H43393  -1.632   7.846   1.704  0.3983  1.1454 -0.3906
  329MOL0     H43394  -1.998   7.971   1.684  1.0794  0.6874  1.0273
  329MOL0     H43395  -1.867   7.858   1.659 -0.2282 -0.7392 -3.1763
  329MOL0     H43396  -1.868   7.975   1.451  0.0542 -1.1597  1.2864
  329MOL0     H43397  -1.742   8.061   1.555  0.4887 -0.9162  0.5354
  329MOL0     H43398  -1.933   8.207   1.609  0.1111  2.0346 -0.7576
  329MOL0     H43399  -2.023   8.132   1.475 -1.3906  3.4761 -0.1125
  329MOL0     H43400  -1.885   8.242   1.310  0.2088  0.3236  0.0821
  329MOL0     H43401  -1.909   8.355   1.440  0.5638  0.1944  2.3266
  329MOL0     H43402  -1.650   8.192   1.436  0.4708  0.4955  0.5535
  329MOL0     H43403  -1.705   8.299   1.566 -1.4533  1.4626 -0.0227
  329MOL0     H43404  -1.538   8.418   1.461 -1.2378 -1.8020  0.6919
  329MOL0     H43405  -1.694   8.498   1.448  1.6470  1.9631  1.6720
  329MOL0     H43406  -1.543   8.360   1.217 -2.1708 -2.1965  0.3145
  329MOL0     H43407  -1.716   8.407   1.214  0.6775  2.1835 -1.2018
  329MOL0     H43408  -1.551   8.576   1.115  0.4869 -0.9867  0.4013
  329MOL0     H43409  -1.502   8.602   1.285 -1.1878 -2.4093  2.8741
  329MOL0     H43410  -1.702   8.187   1.940 -0.5256 -0.2919  0.4875
  329MOL0     H43411  -1.501   8.145   2.070 -0.4770 -0.9787  0.5602
  329MOL0     H43412  -1.024   8.094   2.124 -0.5199  0.1277  0.3318
  329MOL0     H43413  -0.874   8.055   2.317  0.4887 -0.0505  0.5111
  329MOL0     H43414   0.576   7.097   1.743 -1.0072  0.5326  0.0285
  329MOL0     H43415   0.572   7.046   1.497 -0.0792  0.4170  0.7915
  329MOL0     H43416   0.379   6.746   1.194 -2.1424 -2.1332 -1.7490
  329MOL0     H43417   0.407   6.684   0.950  0.4925  1.2741 -1.8689
  329MOL0     H43418   0.494   6.940   0.603  0.5905 -2.5996 -4.6002
  329MOL0     H43419   0.321   6.954   0.622 -0.5307  0.1015 -1.5441
  329MOL0     H43420   0.353   6.688   0.580  0.0766  1.1236  1.6199
  329MOL0     H43421   0.296   6.819   0.458  1.2813  2.6301  0.5697
  329MOL0     H43422   0.582   6.724   0.488  1.6014  5.1939  3.0971
  329MOL0     H43423   0.526   6.849   0.384  3.1023 -0.9409  0.8629
  329MOL0     H43424   0.419   6.574   0.344 -2.3739  0.3988 -1.0547
  329MOL0     H43425   0.369   6.716   0.261 -1.7147 -1.2932  0.3908
  329MOL0     H43426   0.756   6.617   0.100  1.0398 -2.2729  0.4684
  329MOL0     H43427   0.392   7.088   0.814  4.0990 -2.8192 -1.3972
  329MOL0     H43428   0.331   7.158   1.058  1.1493 -1.0803  1.7470
  330MOL0     O43429   9.419   2.444   1.089  0.0037  0.1510  0.0146
  330MOL0     C43430   9.386   2.334   1.128  0.1649  0.2522  0.4344
  330MOL0     O43431   9.276   2.314   1.214  0.1432 -0.4436  0.3109
  330MOL0     C43432   9.201   2.427   1.236 -0.0100  1.0970  0.4696
  330MOL0     C43433   9.094   2.469   1.159  0.3422 -0.6460  0.8046
  330MOL0     C43434   9.026   2.580   1.200  0.3001 -1.2642  0.2546
  330MOL0     C43435   9.047   2.650   1.320  0.2829  0.2516 -0.3065
  330MOL0     O43436   8.968   2.753   1.361  0.6753  0.2829 -0.5473
  330MOL0     C43437   9.033   2.858   1.433  0.8054 -0.2927 -0.0895
  330MOL0     C43438   8.936   2.984   1.412 -0.1504  0.3767  1.3636
  330MOL0     C43439   8.978   3.045   1.280  0.1339 -1.2641  1.0709
  330MOL0     C43440   8.895   3.168   1.247  0.4731 -0.5028  0.6308
  330MOL0     C43441   8.754   3.130   1.213  1.0403  0.6483  0.8225
  330MOL0     C43442   8.666   3.223   1.129 -0.4715  1.0305 -0.2638
  330MOL0     C43443   8.654   3.353   1.197 -0.0623 -0.7689  0.5364
  330MOL0     C43444   8.564   3.454   1.120 -0.4357 -0.0823 -0.6638
  330MOL0     N43445   8.630   3.500   1.003  0.3251 -0.4776 -0.0992
  330MOL0     C43446   8.720   3.608   0.987 -0.1178  0.9221 -0.6478
  330MOL0     C43447   8.761   3.600   0.858 -0.3144 -0.4532  0.7071
  330MOL0     C43448   8.856   3.707   0.794 -0.8046  0.1762  1.1381
  330MOL0     C43449   8.857   3.702   0.636  0.2173  0.1300 -0.4486
  330MOL0     C43450   8.942   3.579   0.584  0.1831  0.9135  1.0185
  330MOL0     C43451   9.097   3.597   0.630  0.5766  0.5694 -0.0762
  330MOL0     O43452   9.172   3.496   0.561 -0.2354  0.0882 -0.0582
  330MOL0     C43453   9.289   3.554   0.509  0.6721 -0.3504  1.2036
  330MOL0     C43454   9.295   3.639   0.395  0.6202  0.9586 -0.3671
  330MOL0     C43455   9.424   3.675   0.343  0.4195 -0.1158  0.5670
  330MOL0     C43456   9.535   3.647   0.421  0.0729  0.6268 -0.2543
  330MOL0     C43457   9.677   3.681   0.388  0.3834  0.8334 -0.1969
  330MOL0     O43458   9.787   3.647   0.483 -0.6296 -0.0723 -0.1547
  330MOL0     C43459   9.913   3.666   0.441  0.3548 -1.0997  0.3268
  330MOL0     C43460   9.972   3.788   0.409 -0.2495  1.1752  0.1036
  330MOL0     C43461  10.110   3.794   0.384  1.2898  0.4866  0.2140
  330MOL0     C43462  10.186   3.679   0.396 -0.7864 -0.8537 -0.2703
  330MOL0     O43463  10.327   3.675   0.395  0.5662  0.1284 -0.3768
  330MOL0     C43464  10.407   3.744   0.309  0.5683  0.3846 -0.1238
  330MOL0     C43465  10.553   3.727   0.329 -0.0908 -0.4093 -0.3928
  330MOL0     C43466  10.609   3.584   0.298 -0.1582 -0.4249 -0.5600
  330MOL0     C43467  10.761   3.564   0.316  0.6133  0.8446 -0.3478
  330MOL0     C43468  10.848   3.629   0.217  0.4541  0.1996  0.3806
  330MOL0     C43469  10.993   3.580   0.206 -0.5892  0.5742  0.7698
  330MOL0     C43470  11.054   3.622   0.338 -0.4682 -0.3947  0.6835
  330MOL0     C43471  11.083   3.769   0.343 -0.5027  0.3027 -0.3993
  330MOL0    Cl43472  10.976   3.837   0.460  0.3859 -0.0604 -0.4245
  330MOL0     C43473  10.129   3.552   0.410  0.1854 -0.3575 -0.7644
  330MOL0     C43474   9.989   3.546   0.421  0.8672 -0.4800 -0.5383
  330MOL0     O43475   9.694   3.731   0.279 -0.5999  0.3640 -0.2843
  330MOL0     C43476   9.520   3.584   0.549  0.5111  0.7084  0.3582
  330MOL0     C43477   9.399   3.526   0.578  0.3572 -0.3062 -0.3639
  330MOL0     N43478   8.685   3.503   0.791 -0.2199 -0.5327 -0.1643
  330MOL0     N43479   8.611   3.445   0.884  0.7408 -0.4769  0.0557
  330MOL0     C43480   9.150   2.598   1.393 -0.4938  0.2641 -0.8528
  330MOL0     C43481   9.231   2.492   1.356 -0.5760 -0.7217  0.5079
  330MOL0     C43482   9.454   2.215   1.067 -1.4078 -0.5763 -0.3856
  330MOL0     C43483   9.395   2.086   1.085 -0.1540 -0.1992  0.9562
  330MOL0     C43484   9.460   1.974   1.029  0.3454  0.5277 -0.3792
  330MOL0     C43485   9.583   1.987   0.956 -0.0832  0.0112 -0.2928
  330MOL0     O43486   9.637   1.865   0.914  0.5966  0.5427 -0.2130
  330MOL0     C43487   9.763   1.857   0.848  0.5916  0.2801 -0.0880
  330MOL0     C43488   9.877   1.892   0.941  1.6317  0.1591 -0.4074
  330MOL0     C43489  10.014   1.864   0.882  0.6880 -0.0803  1.3126
  330MOL0     C43490  10.122   1.928   0.972 -0.5313 -0.0359 -0.0904
  330MOL0     C43491  10.126   1.868   1.107  0.7556 -0.0120  0.8402
  330MOL0     C43492  10.126   1.814   1.214  0.1045 -0.5184 -0.2160
  330MOL0     C43493   9.633   2.111   0.939 -0.1237 -0.0061  0.1837
  330MOL0     C43494   9.569   2.217   0.987 -0.6551 -0.4487 -0.4429
  330MOL0     H43495   9.059   2.419   1.069 -0.6083 -2.5697  2.1794
  330MOL0     H43496   8.933   2.610   1.152  1.1680 -1.8390 -1.9061
  330MOL0     H43497   9.136   2.875   1.399  0.6736 -2.1027 -1.5343
  330MOL0     H43498   9.045   2.843   1.541  0.5787  0.4853  0.0542
  330MOL0     H43499   8.968   3.057   1.487 -0.6628 -0.3637  2.3307
  330MOL0     H43500   8.832   2.954   1.426  0.1864 -3.0404 -1.7397
  330MOL0     H43501   8.973   2.967   1.204  0.2787  0.4310 -0.7381
  330MOL0     H43502   9.083   3.075   1.283  0.5808 -0.9993 -5.0948
  330MOL0     H43503   8.904   3.230   1.336  3.1763 -1.6784  1.2875
  330MOL0     H43504   8.942   3.218   1.161  0.9727 -0.7856  0.7330
  330MOL0     H43505   8.706   3.093   1.304  0.9959  0.0752  0.5715
  330MOL0     H43506   8.762   3.042   1.148 -1.2896  1.1101 -0.2093
  330MOL0     H43507   8.565   3.180   1.123  0.5318 -1.5957  0.2596
  330MOL0     H43508   8.722   3.229   1.035 -0.5623 -0.5800 -0.4391
  330MOL0     H43509   8.609   3.346   1.296 -0.0374  3.3155  0.9991
  330MOL0     H43510   8.757   3.389   1.207  0.6625 -0.5214 -4.8577
  330MOL0     H43511   8.525   3.533   1.184  0.2305 -0.6083  0.4142
  330MOL0     H43512   8.477   3.395   1.087  0.7627 -2.0824 -0.4465
  330MOL0     H43513   8.749   3.682   1.060 -0.4842  0.7618 -0.3336
  330MOL0     H43514   8.961   3.695   0.825 -0.3110 -0.7067 -0.7000
  330MOL0     H43515   8.832   3.807   0.831  1.0040  1.2259 -0.3311
  330MOL0     H43516   8.904   3.797   0.608 -1.1015  0.4308 -1.8189
  330MOL0     H43517   8.754   3.697   0.598 -0.0968  1.6557  0.1166
  330MOL0     H43518   8.922   3.485   0.636  3.1558 -0.0320  0.6669
  330MOL0     H43519   8.940   3.562   0.476  0.4636 -2.5214  1.4406
  330MOL0     H43520   9.107   3.585   0.738  0.9741 -3.5501 -0.3929
  330MOL0     H43521   9.134   3.696   0.602 -0.6689  1.2989  0.7449
  330MOL0     H43522   9.208   3.673   0.340  0.6392 -1.2910 -1.9516
  330MOL0     H43523   9.437   3.715   0.243  4.7309 -0.9915  0.5976
  330MOL0     H43524   9.920   3.883   0.412  1.3600  2.1036 -0.4544
  330MOL0     H43525  10.155   3.892   0.372 -2.8421  2.6238  0.3169
  330MOL0     H43526  10.385   3.851   0.311  0.7412  0.4150  0.2125
  330MOL0     H43527  10.382   3.708   0.208 -1.0663  0.8085  0.1102
  330MOL0     H43528  10.576   3.777   0.423  0.4505 -1.1363 -0.1300
  330MOL0     H43529  10.591   3.795   0.251 -1.8305 -1.4804 -2.2811
  330MOL0     H43530  10.584   3.554   0.196 -2.1345 -2.2417  0.3858
  330MOL0     H43531  10.555   3.518   0.367 -2.0824  2.4533  0.8683
  330MOL0     H43532  10.779   3.598   0.418  1.8416 -4.3444  1.4848
  330MOL0     H43533  10.793   3.459   0.316  4.8807  1.8837 -2.5516
  330MOL0     H43534  10.856   3.736   0.236  3.9056  0.8401 -3.2371
  330MOL0     H43535  10.807   3.632   0.115  1.2306  1.3687  0.0849
  330MOL0     H43536  11.043   3.634   0.125  0.3390 -0.3774  0.6931
  330MOL0     H43537  11.001   3.471   0.194  3.2634  0.8519 -0.2903
  330MOL0     H43538  10.998   3.596   0.428  0.6853  0.2235  1.6122
  330MOL0     H43539  11.147   3.565   0.349 -0.9090 -1.2152  0.2781
  330MOL0     H43540  11.084   3.817   0.245  0.4827  1.3959  0.1292
  330MOL0     H43541  11.184   3.778   0.385 -0.5099  0.1305 -0.3438
  330MOL0     H43542  10.195   3.469   0.428  1.4342  0.8224  0.3201
  330MOL0     H43543   9.938   3.452   0.438  1.6153 -0.4460  2.4557
  330MOL0     H43544   9.609   3.577   0.610  0.9889  1.5063 -0.2288
  330MOL0     H43545   9.394   3.477   0.674 -0.4884 -0.3314 -0.4199
  330MOL0     H43546   9.182   2.641   1.487  0.8388 -1.4284 -0.4680
  330MOL0     H43547   9.313   2.469   1.424  0.7152  0.5423 -0.5382
  330MOL0     H43548   9.308   2.067   1.147  0.3554  0.3578  1.8632
  330MOL0     H43549   9.422   1.873   1.039 -0.3074  0.3396 -3.5035
  330MOL0     H43550   9.751   1.927   0.765  1.4025  0.4671 -0.0486
  330MOL0     H43551   9.771   1.755   0.809 -1.1171 -0.4141  1.2282
  330MOL0     H43552   9.878   1.993   0.983  0.2523 -1.0772  2.9543
  330MOL0     H43553   9.877   1.825   1.027  2.9316  1.0985  0.3464
  330MOL0     H43554  10.013   1.909   0.782 -1.4374  2.9482  2.5304
  330MOL0     H43555  10.036   1.757   0.876  1.9482  0.2357 -0.1246
  330MOL0     H43556  10.222   1.923   0.928  1.5144  0.3105  4.0887
  330MOL0     H43557  10.105   2.035   0.985 -1.0392 -0.3517  2.4030
  330MOL0     H43558  10.142   1.776   1.312 -2.0904  0.0637  0.4128
  330MOL0     H43559   9.711   2.139   0.869 -0.5264  1.8105  0.4039
  330MOL0     H43560   9.616   2.311   0.959 -0.3052 -0.1871  0.9408
  331MOL0     O43561   4.120   7.219   5.789  0.8371 -0.2526 -0.0963
  331MOL0     C43562   4.241   7.218   5.775  0.2467 -0.3458  0.2710
  331MOL0     O43563   4.311   7.178   5.662 -0.2798 -0.0845 -0.2484
  331MOL0     C43564   4.244   7.119   5.559  0.2172 -0.1986 -0.1019
  331MOL0     C43565   4.277   7.150   5.437 -0.9277 -0.1108 -0.7147
  331MOL0     C43566   4.231   7.084   5.324  0.9772 -0.4818  0.5592
  331MOL0     C43567   4.134   6.995   5.334  0.8197 -0.2766 -0.4695
  331MOL0     O43568   4.087   6.934   5.222 -0.5684 -0.0725 -0.5860
  331MOL0     C43569   3.978   6.841   5.224 -0.2775  0.1211  0.1223
  331MOL0     C43570   3.973   6.776   5.087 -0.3363  0.0750  0.3161
  331MOL0     C43571   3.881   6.651   5.080  0.4769 -0.0895 -0.1366
  331MOL0     C43572   3.944   6.516   5.128  0.5853  0.3787  0.2194
  331MOL0     C43573   3.840   6.412   5.175 -0.2074  0.2927 -0.0809
  331MOL0     C43574   3.916   6.282   5.195  0.4384 -0.8809  1.0176
  331MOL0     C43575   3.833   6.179   5.261  0.3891  1.0385  0.3250
  331MOL0     C43576   3.781   6.207   5.401  0.5739 -0.6433 -0.6582
  331MOL0     N43577   3.713   6.089   5.461  0.0155  0.2666 -0.0530
  331MOL0     C43578   3.773   6.009   5.561 -1.1614  0.0676  0.5641
  331MOL0     C43579   3.669   5.943   5.615  0.1177  0.0848  0.7613
  331MOL0     C43580   3.672   5.851   5.736  0.1376  0.7343  0.0336
  331MOL0     C43581   3.816   5.812   5.770  0.6374  0.4296 -0.0159
  331MOL0     C43582   3.883   5.912   5.862  0.4879  0.9306  0.3402
  331MOL0     C43583   4.029   5.876   5.890 -0.2629  0.2049  0.6005
  331MOL0     O43584   4.100   5.837   5.768 -0.0776 -0.7424 -0.8230
  331MOL0     C43585   4.236   5.848   5.756  1.7128  1.0477  0.9635
  331MOL0     C43586   4.295   5.795   5.644  0.3925 -0.0816 -0.0651
  331MOL0     C43587   4.435   5.826   5.615  0.3728 -0.1361  0.2420
  331MOL0     C43588   4.521   5.890   5.711  0.2222 -0.8820 -0.3170
  331MOL0     C43589   4.661   5.908   5.701 -0.5290  0.1165 -1.2214
  331MOL0     O43590   4.735   5.950   5.817  0.6186 -0.7866 -0.1847
  331MOL0     C43591   4.869   5.960   5.805  0.2575 -0.2981  0.1848
  331MOL0     C43592   4.923   6.086   5.774 -0.0691  0.6251  0.1164
  331MOL0     C43593   5.061   6.092   5.768  0.1370  0.3505  0.0703
  331MOL0     C43594   5.143   5.981   5.784  0.7054  0.0019 -0.4330
  331MOL0     O43595   5.280   5.995   5.781  0.4776 -0.2894  0.3354
  331MOL0     C43596   5.342   6.019   5.654 -1.0539 -0.4313  0.1965
  331MOL0     C43597   5.469   6.104   5.671  0.3144 -0.5440 -0.0645
  331MOL0     C43598   5.430   6.250   5.677 -0.9156 -0.4828  0.2701
  331MOL0     C43599   5.523   6.351   5.757 -0.1901 -0.1052 -1.0044
  331MOL0     C43600   5.445   6.483   5.744  0.2327  0.6290 -0.8734
  331MOL0     C43601   5.499   6.585   5.858 -0.4866 -0.0897 -0.3796
  331MOL0     C43602   5.644   6.627   5.843 -0.6532 -0.0966  0.8730
  331MOL0     C43603   5.754   6.549   5.919 -0.3579  0.0985  0.3456
  331MOL0    Cl43604   5.916   6.638   5.932  0.0446 -0.1441 -0.1379
  331MOL0     C43605   5.101   5.859   5.825  0.5674  0.1918 -0.4250
  331MOL0     C43606   4.954   5.850   5.836  0.3137 -0.6418 -0.2251
  331MOL0     O43607   4.717   5.898   5.588  0.7684 -0.4006  0.5947
  331MOL0     C43608   4.457   5.912   5.827 -0.6825 -0.6531 -0.8480
  331MOL0     C43609   4.321   5.907   5.844 -0.0528 -0.2777  0.2011
  331MOL0     N43610   3.549   5.973   5.540 -0.2995 -0.0306  0.0723
  331MOL0     N43611   3.580   6.067   5.454  1.1041 -0.7714  0.5785
  331MOL0     C43612   4.095   6.962   5.464 -1.3152  0.4598 -0.8516
  331MOL0     C43613   4.152   7.016   5.582 -0.2305 -0.6728 -0.5562
  331MOL0     C43614   4.321   7.251   5.896  0.4534 -0.2140  0.3565
  331MOL0     C43615   4.281   7.344   5.999  0.2920 -0.3709  0.8873
  331MOL0     C43616   4.363   7.356   6.112 -0.4091 -0.7569 -0.0669
  331MOL0     C43617   4.493   7.295   6.114 -0.0584  0.1438 -0.2243
  331MOL0     O43618   4.567   7.317   6.224  0.0866 -0.2419  0.1158
  331MOL0     C43619   4.709   7.278   6.226 -0.5378 -0.5846 -0.4943
  331MOL0     C43620   4.779   7.308   6.364  0.0703  0.0798  1.2134
  331MOL0     C43621   4.924   7.249   6.374  0.9773  0.1947 -0.0180
  331MOL0     C43622   4.992   7.279   6.506  0.1182  0.4147 -1.1610
  331MOL0     C43623   5.115   7.197   6.530 -0.5234  0.5019 -0.0779
  331MOL0     C43624   5.224   7.145   6.522  0.3265 -0.8469 -0.3217
  331MOL0     C43625   4.537   7.218   6.008 -0.1934  0.7627 -0.2055
  331MOL0     C43626   4.448   7.196   5.902  0.5677 -0.0945 -0.1166
  331MOL0     H43627   4.355   7.225   5.429 -0.0414 -1.0036 -0.6469
  331MOL0     H43628   4.274   7.095   5.225 -1.8827 -1.4759 -0.9113
  331MOL0     H43629   3.880   6.887   5.241 -0.4225 -0.7078  1.6991
  331MOL0     H43630   3.992   6.769   5.305 -3.1695  0.4458  1.0254
  331MOL0     H43631   4.073   6.740   5.061  0.4793  1.2558  1.7559
  331MOL0     H43632   3.940   6.855   5.019  0.1222  1.9195  2.1444
  331MOL0     H43633   3.858   6.627   4.975 -1.2235  1.4286 -0.1535
  331MOL0     H43634   3.800   6.674   5.149  0.6345  1.4193 -0.4274
  331MOL0     H43635   3.995   6.482   5.037  1.3803  2.6466 -0.2628
  331MOL0     H43636   4.015   6.531   5.210  1.1039 -1.8604  0.2419
  331MOL0     H43637   3.757   6.398   5.106 -0.6386  1.0444  0.2731
  331MOL0     H43638   3.788   6.446   5.265  0.2079  1.0278 -0.1111
  331MOL0     H43639   4.012   6.300   5.243 -0.4285  0.8476  2.1839
  331MOL0     H43640   3.943   6.249   5.094  0.6756 -1.7106  1.3438
  331MOL0     H43641   3.741   6.168   5.203  1.3600 -1.3346 -0.8792
  331MOL0     H43642   3.880   6.080   5.262 -0.2342  0.6711 -1.9761
  331MOL0     H43643   3.705   6.285   5.406 -0.0131 -1.0495 -2.4455
  331MOL0     H43644   3.868   6.241   5.458  2.2828 -2.9424 -1.7338
  331MOL0     H43645   3.879   6.012   5.581 -1.1160 -1.1581  0.5884
  331MOL0     H43646   3.607   5.767   5.708  0.0546  1.1861 -1.2140
  331MOL0     H43647   3.624   5.896   5.823 -0.1796 -0.5286  0.5328
  331MOL0     H43648   3.873   5.789   5.680 -0.4835 -2.1929 -0.1259
  331MOL0     H43649   3.820   5.718   5.825  0.0239 -0.6068 -1.7030
  331MOL0     H43650   3.886   6.014   5.821 -5.1368  2.2914  2.3609
  331MOL0     H43651   3.831   5.914   5.959  1.6416 -1.4010  1.0735
  331MOL0     H43652   4.032   5.790   5.958 -0.1844 -0.7580 -0.5680
  331MOL0     H43653   4.083   5.960   5.934  2.3642 -1.6740  1.2257
  331MOL0     H43654   4.234   5.739   5.574 -1.1810  0.1843  1.0458
  331MOL0     H43655   4.481   5.788   5.524  1.3730 -0.2218  0.7632
  331MOL0     H43656   4.850   6.162   5.747 -2.1253 -1.3266 -0.1420
  331MOL0     H43657   5.093   6.192   5.740 -4.3598  2.1656  0.5907
  331MOL0     H43658   5.275   6.071   5.586 -1.5047  0.7707  1.4990
  331MOL0     H43659   5.377   5.929   5.604  1.9012  1.3900 -1.2909
  331MOL0     H43660   5.550   6.078   5.603 -0.0937  1.1076 -1.2626
  331MOL0     H43661   5.506   6.077   5.771 -0.4045 -0.6108  0.1921
  331MOL0     H43662   5.330   6.263   5.719 -0.5587  4.4515  0.2416
  331MOL0     H43663   5.417   6.285   5.574  1.0404 -4.5084 -1.5670
  331MOL0     H43664   5.525   6.310   5.858  2.1222 -2.5075 -1.8884
  331MOL0     H43665   5.628   6.354   5.727 -0.1004 -0.1782 -0.7032
  331MOL0     H43666   5.339   6.458   5.760  1.1150 -2.7137  0.5729
  331MOL0     H43667   5.465   6.523   5.644  2.2674 -1.2833 -1.3206
  331MOL0     H43668   5.495   6.543   5.959  0.9936  3.4469  1.3204
  331MOL0     H43669   5.425   6.665   5.847  0.6314  0.8611 -1.1822
  331MOL0     H43670   5.672   6.613   5.738  0.7283  0.5070  1.1374
  331MOL0     H43671   5.653   6.729   5.880 -4.8923  0.2955  1.2696
  331MOL0     H43672   5.777   6.450   5.881 -1.5405 -0.2822  0.5627
  331MOL0     H43673   5.716   6.525   6.019  0.2072 -0.9635  0.3129
  331MOL0     H43674   5.168   5.776   5.847  0.9006  0.3470 -0.8390
  331MOL0     H43675   4.904   5.755   5.851  1.5021 -1.8910 -3.3090
  331MOL0     H43676   4.508   5.957   5.912  0.5575  1.8559 -2.7700
  331MOL0     H43677   4.277   5.954   5.932 -1.9079 -1.0012 -0.2901
  331MOL0     H43678   4.011   6.897   5.486 -1.3556  1.3820  2.2949
  331MOL0     H43679   4.099   7.004   5.676 -0.6570 -0.1326 -0.7163
  331MOL0     H43680   4.185   7.389   6.021  0.4945  0.7024 -0.2613
  331MOL0     H43681   4.324   7.411   6.197 -1.8919 -1.3668 -0.3161
  331MOL0     H43682   4.765   7.315   6.139 -0.8221 -0.8624 -0.7983
  331MOL0     H43683   4.721   7.170   6.224  1.6725 -0.5361  2.6985
  331MOL0     H43684   4.792   7.414   6.387  0.9398 -0.2820  2.5070
  331MOL0     H43685   4.715   7.256   6.436 -0.4167 -1.0615 -0.0124
  331MOL0     H43686   4.979   7.288   6.289  0.2420  0.3225 -0.4459
  331MOL0     H43687   4.923   7.140   6.364  0.2699  0.3502 -2.2023
  331MOL0     H43688   5.017   7.385   6.519  4.1673 -0.4970 -0.1333
  331MOL0     H43689   4.939   7.249   6.597  2.4703  0.3647  0.2963
  331MOL0     H43690   5.316   7.095   6.503 -0.0959 -1.3179 -1.2320
  331MOL0     H43691   4.629   7.161   6.008 -1.7893 -2.1382  2.6267
  331MOL0     H43692   4.483   7.126   5.827 -1.3116 -0.9237 -0.2907
  332MOL0     O43693   2.922   1.426   8.737 -0.2088  0.5740  0.3039
  332MOL0     C43694   2.888   1.443   8.621 -0.5899 -0.0969  0.9514
  332MOL0     O43695   2.774   1.494   8.570 -0.7844 -0.1028 -0.5308
  332MOL0     C43696   2.681   1.555   8.650 -0.8744  0.0970  0.1128
  332MOL0     C43697   2.613   1.495   8.751 -0.5077  0.6491  0.5176
  332MOL0     C43698   2.508   1.554   8.821 -0.1900  0.1131 -0.4820
  332MOL0     C43699   2.479   1.681   8.783  0.6621  0.7970  0.4668
  332MOL0     O43700   2.370   1.735   8.839 -0.0957 -0.5905  0.3590
  332MOL0     C43701   2.291   1.834   8.785 -0.8909  1.1005  0.3376
  332MOL0     C43702   2.174   1.857   8.878 -0.2593  0.0696  0.6701
  332MOL0     C43703   2.074   1.741   8.884 -0.1381  0.1659  0.2011
  332MOL0     C43704   2.025   1.692   8.752  0.4390 -0.6133  0.6449
  332MOL0     C43705   1.955   1.807   8.660  0.5068  0.3346  0.0060
  332MOL0     C43706   1.899   1.739   8.535  0.6040  0.8331 -0.3322
  332MOL0     C43707   1.800   1.838   8.464 -0.1438 -0.0386 -0.2408
  332MOL0     C43708   1.791   1.820   8.317  0.2884  0.2823  0.5556
  332MOL0     N43709   1.717   1.691   8.288  0.0526 -0.3370  0.1061
  332MOL0     C43710   1.777   1.573   8.257 -0.6404 -0.2594 -1.3106
  332MOL0     C43711   1.675   1.484   8.256 -0.0371  0.7779 -0.6631
  332MOL0     C43712   1.671   1.338   8.236  0.2590 -0.1999  0.5351
  332MOL0     C43713   1.704   1.260   8.364  0.0224 -0.4841 -0.3233
  332MOL0     C43714   1.725   1.116   8.337 -0.0049  0.7960 -0.4783
  332MOL0     C43715   1.735   1.030   8.466 -0.2939  0.1178 -1.3029
  332MOL0     O43716   1.751   0.896   8.433  0.2081  0.2565  0.2160
  332MOL0     C43717   1.809   0.814   8.538 -0.7969 -0.2095 -0.1168
  332MOL0     C43718   1.830   0.860   8.673 -0.2730  0.1107 -0.3004
  332MOL0     C43719   1.857   0.776   8.779  1.2144 -0.6998  0.2924
  332MOL0     C43720   1.879   0.638   8.759  0.1184  0.2039  0.0124
  332MOL0     C43721   1.915   0.548   8.871 -0.1751  0.4389  0.4927
  332MOL0     O43722   1.890   0.416   8.854  0.2734 -0.4452 -0.2175
  332MOL0     C43723   1.916   0.315   8.944  0.8777 -0.0267 -0.4285
  332MOL0     C43724   1.826   0.209   8.961  0.0048 -0.0847 -0.0888
  332MOL0     C43725   1.862   0.104   9.049  0.0856  0.9236 -0.4258
  332MOL0     C43726   1.980   0.102   9.127 -0.0800 -0.8402  1.5032
  332MOL0     O43727   1.990  -0.009   9.199  0.0105 -0.2566 -0.4390
  332MOL0     C43728   2.107  -0.024   9.279 -0.8845  0.3173 -0.8359
  332MOL0     C43729   2.225  -0.058   9.190 -0.4696 -0.6267  0.5186
  332MOL0     C43730   2.337  -0.121   9.263 -0.3090 -0.2121  0.0831
  332MOL0     C43731   2.445  -0.166   9.157  0.0205 -0.1102 -0.0919
  332MOL0     C43732   2.570  -0.213   9.227 -0.4183 -0.3266  0.2333
  332MOL0     C43733   2.673  -0.272   9.130 -0.2794  0.1152 -0.4836
  332MOL0     C43734   2.809  -0.296   9.200 -0.0740 -0.5266  0.1830
  332MOL0     C43735   2.815  -0.391   9.321  0.4579 -0.4482 -0.0616
  332MOL0    Cl43736   2.688  -0.509   9.336 -0.0161  0.3921  0.9425
  332MOL0     C43737   2.061   0.211   9.116  0.1659  0.0256  1.0130
  332MOL0     C43738   2.027   0.305   9.018 -1.0016  0.3934 -0.1474
  332MOL0     O43739   1.966   0.589   8.973  0.3376  0.4271 -0.4055
  332MOL0     C43740   1.888   0.591   8.629  0.3720 -0.3777  0.4948
  332MOL0     C43741   1.839   0.671   8.520  0.9190  0.5372 -1.0261
  332MOL0     N43742   1.554   1.564   8.274 -0.3080 -0.1252  0.7629
  332MOL0     N43743   1.586   1.681   8.300  0.3606  0.4827 -0.3565
  332MOL0     C43744   2.560   1.744   8.690  0.1174 -0.4684  0.2727
  332MOL0     C43745   2.662   1.694   8.613 -0.5016  1.0724 -0.8952
  332MOL0     C43746   2.981   1.390   8.515  0.3997 -0.3882  0.8715
  332MOL0     C43747   2.967   1.438   8.388 -0.0207  0.4599 -0.3953
  332MOL0     C43748   3.066   1.422   8.289 -0.8714  0.1116  0.2015
  332MOL0     C43749   3.179   1.337   8.313 -0.4102 -0.0697 -0.1827
  332MOL0     O43750   3.294   1.318   8.226 -0.2449  0.3926 -0.0237
  332MOL0     C43751   3.307   1.401   8.111 -0.2600  0.1471 -0.1161
  332MOL0     C43752   3.403   1.349   8.009  0.4194 -0.0123 -0.1522
  332MOL0     C43753   3.544   1.328   8.065  0.4174 -0.3090 -0.3566
  332MOL0     C43754   3.625   1.224   7.978  0.5634 -0.4303 -1.1163
  332MOL0     C43755   3.762   1.226   8.011 -0.0724 -1.2997 -0.7040
  332MOL0     C43756   3.880   1.228   8.041  0.4984  0.1100 -0.3413
  332MOL0     C43757   3.181   1.267   8.438  0.5689 -0.2094  0.5549
  332MOL0     C43758   3.083   1.296   8.534 -0.2177  0.2693  0.3779
  332MOL0     H43759   2.642   1.393   8.774  2.4182  0.9241 -1.4938
  332MOL0     H43760   2.451   1.497   8.894 -3.3878  2.0704 -1.2986
  332MOL0     H43761   2.272   1.797   8.684  0.8489 -3.7027  1.4574
  332MOL0     H43762   2.347   1.927   8.780  0.0723  0.5375  0.4035
  332MOL0     H43763   2.113   1.944   8.851  0.6224  0.7242  0.7198
  332MOL0     H43764   2.220   1.870   8.976  1.4599  0.1131 -0.1080
  332MOL0     H43765   1.987   1.768   8.944  1.1164 -0.3649  2.3821
  332MOL0     H43766   2.124   1.654   8.928 -0.0221  0.5340  0.8181
  332MOL0     H43767   2.114   1.660   8.698  0.2142 -0.1946  0.0164
  332MOL0     H43768   1.947   1.615   8.760 -2.5870  1.1184 -5.7505
  332MOL0     H43769   2.036   1.878   8.640  1.0744  0.2439  1.8236
  332MOL0     H43770   1.881   1.861   8.720 -1.3855 -0.4076 -1.5510
  332MOL0     H43771   1.835   1.651   8.548 -0.5301  1.5545 -0.8551
  332MOL0     H43772   1.986   1.718   8.473  1.5254 -1.3482  1.5651
  332MOL0     H43773   1.696   1.836   8.497 -0.1693 -0.9769 -0.3545
  332MOL0     H43774   1.835   1.940   8.483  1.2911 -0.1030 -2.2639
  332MOL0     H43775   1.898   1.820   8.291 -0.3770  3.3049 -3.1462
  332MOL0     H43776   1.740   1.901   8.264 -5.0408 -1.7422  1.9478
  332MOL0     H43777   1.883   1.551   8.248 -0.4344  0.4048 -0.6622
  332MOL0     H43778   1.747   1.312   8.162 -1.6031  1.1502 -2.0106
  332MOL0     H43779   1.569   1.313   8.206 -0.1547 -1.3363  2.6382
  332MOL0     H43780   1.617   1.266   8.430 -0.8819 -1.5039 -1.3669
  332MOL0     H43781   1.797   1.303   8.402  0.6220  2.8022 -4.6663
  332MOL0     H43782   1.646   1.080   8.270  1.9962 -2.3156 -1.3568
  332MOL0     H43783   1.820   1.103   8.284  0.9593 -0.8179  1.5023
  332MOL0     H43784   1.644   1.035   8.526 -1.0208 -2.1244 -2.1031
  332MOL0     H43785   1.817   1.074   8.524 -0.8633 -3.5811  2.8593
  332MOL0     H43786   1.811   0.962   8.706 -1.7113 -0.4438  0.6821
  332MOL0     H43787   1.857   0.818   8.879  0.7679  0.9103 -0.3579
  332MOL0     H43788   1.731   0.228   8.912 -0.3654  0.1083  0.6781
  332MOL0     H43789   1.788   0.026   9.068 -0.6743  1.8194  0.4039
  332MOL0     H43790   2.104  -0.107   9.351 -1.5596  1.1807  0.1709
  332MOL0     H43791   2.127   0.072   9.327 -1.5134  0.4799 -0.8939
  332MOL0     H43792   2.265   0.034   9.149  1.0756 -1.2570  0.5416
  332MOL0     H43793   2.187  -0.129   9.115  0.2331  0.1830 -0.6256
  332MOL0     H43794   2.306  -0.214   9.311  1.4971 -0.7985  0.1672
  332MOL0     H43795   2.381  -0.053   9.336  4.1074 -1.1851 -1.3625
  332MOL0     H43796   2.399  -0.248   9.101  1.4657 -0.7854 -0.3598
  332MOL0     H43797   2.469  -0.078   9.097 -0.9816  0.0960 -0.2073
  332MOL0     H43798   2.540  -0.286   9.303  0.3724 -0.5772  0.3162
  332MOL0     H43799   2.626  -0.129   9.268  1.1529  0.5193 -3.2549
  332MOL0     H43800   2.667  -0.215   9.037 -3.6917 -2.1286 -1.8583
  332MOL0     H43801   2.629  -0.367   9.098 -2.1910  0.0924  1.9415
  332MOL0     H43802   2.881  -0.331   9.125 -2.6506 -0.7554 -2.3588
  332MOL0     H43803   2.859  -0.205   9.234  3.3408 -1.6326 -1.4392
  332MOL0     H43804   2.819  -0.327   9.409  1.8002  0.1503 -0.5221
  332MOL0     H43805   2.909  -0.448   9.315  1.5889  0.7772  3.3850
  332MOL0     H43806   2.143   0.229   9.186  1.4879  0.0132 -0.4750
  332MOL0     H43807   2.095   0.389   9.015  0.2553 -0.6140 -1.1666
  332MOL0     H43808   1.916   0.488   8.609  2.4133 -0.6070  3.8459
  332MOL0     H43809   1.817   0.634   8.420  0.1138  0.7282 -0.9233
  332MOL0     H43810   2.520   1.839   8.657 -2.1235 -1.8325 -1.1797
  332MOL0     H43811   2.720   1.753   8.544  3.3377 -0.7214  0.4817
  332MOL0     H43812   2.896   1.516   8.362  0.3133  1.4503  1.5455
  332MOL0     H43813   3.055   1.479   8.198 -0.4208  1.9886  1.2594
  332MOL0     H43814   3.347   1.496   8.147 -1.6933  0.8985 -0.4179
  332MOL0     H43815   3.213   1.421   8.059  0.1288  4.4107  0.4525
  332MOL0     H43816   3.372   1.249   7.978  1.8537 -0.7234  0.6227
  332MOL0     H43817   3.411   1.415   7.921  1.7066  2.8493  1.9481
  332MOL0     H43818   3.540   1.297   8.170  2.2723  1.8264  0.4438
  332MOL0     H43819   3.593   1.426   8.059 -3.7396  2.0037 -0.2072
  332MOL0     H43820   3.580   1.126   7.998 -2.0567  0.7602 -0.8256
  332MOL0     H43821   3.602   1.250   7.874 -5.1537  3.3155  0.6140
  332MOL0     H43822   3.986   1.241   8.048  1.1377 -3.0585 -2.2191
  332MOL0     H43823   3.270   1.211   8.466  2.0635  1.2916 -0.9171
  332MOL0     H43824   3.099   1.254   8.632  3.5070 -2.7383 -1.2855
  333MOL0     O43825   0.658   4.729   8.787  0.2814 -0.1513 -0.8685
  333MOL0     C43826   0.653   4.849   8.785  0.4095  0.1188  0.5496
  333MOL0     O43827   0.764   4.935   8.781 -0.6629  0.4840 -0.1376
  333MOL0     C43828   0.899   4.897   8.781  0.7476 -1.2961  0.0777
  333MOL0     C43829   0.959   4.806   8.873 -0.3164  0.2478 -0.0292
  333MOL0     C43830   1.099   4.775   8.867 -0.2016 -0.6188  0.0343
  333MOL0     C43831   1.178   4.832   8.766  0.2721  0.5712  0.4611
  333MOL0     O43832   1.321   4.804   8.750 -0.9189 -0.3169 -0.8449
  333MOL0     C43833   1.397   4.763   8.864  0.3242  0.8964  0.4421
  333MOL0     C43834   1.538   4.732   8.818  0.6323  0.6402 -0.1658
  333MOL0     C43835   1.662   4.749   8.918 -0.2716  0.2137  0.4648
  333MOL0     C43836   1.800   4.707   8.876  0.2115  0.5380 -0.5014
  333MOL0     C43837   1.904   4.708   8.988  0.8704 -0.0454 -0.1166
  333MOL0     C43838   2.037   4.635   8.946  0.6905 -0.4095 -0.0274
  333MOL0     C43839   2.122   4.586   9.066 -0.0595  0.7412  0.2182
  333MOL0     C43840   2.103   4.679   9.191 -0.6488 -0.1803  0.1594
  333MOL0     N43841   2.203   4.657   9.302 -0.7733  0.6518  0.3759
  333MOL0     C43842   2.211   4.539   9.372 -0.6190  0.0584  0.3220
  333MOL0     C43843   2.269   4.575   9.486 -0.0382 -0.5636  0.0623
  333MOL0     C43844   2.291   4.476   9.590  0.2452 -0.7944  0.1367
  333MOL0     C43845   2.440   4.483   9.638  0.5184  0.6863  0.6347
  333MOL0     C43846   2.540   4.412   9.540 -0.3602 -0.1508 -0.4002
  333MOL0     C43847   2.692   4.417   9.584  0.4782 -1.1722  0.7582
  333MOL0     O43848   2.781   4.334   9.504 -1.0875  0.3684 -0.8116
  333MOL0     C43849   2.896   4.386   9.454 -0.5955 -0.8501  0.7887
  333MOL0     C43850   2.985   4.302   9.391 -0.7996  0.5010 -0.6807
  333MOL0     C43851   3.106   4.344   9.342 -0.1975  0.4357 -0.0113
  333MOL0     C43852   3.136   4.487   9.336  0.4478  0.0165 -0.3207
  333MOL0     C43853   3.249   4.544   9.262  0.4627  0.5350 -0.2588
  333MOL0     O43854   3.252   4.679   9.243 -0.0667  0.7327 -0.2505
  333MOL0     C43855   3.353   4.722   9.168 -1.2039  0.3396 -0.3700
  333MOL0     C43856   3.458   4.794   9.235 -0.0720 -0.5708  0.2179
  333MOL0     C43857   3.569   4.838   9.165  0.3908 -0.3999 -0.3878
  333MOL0     C43858   3.592   4.817   9.032  0.4958  0.1762  1.1687
  333MOL0     O43859   3.706   4.855   8.960  0.2933 -0.6301  0.0076
  333MOL0     C43860   3.812   4.759   8.956  0.2457  0.6347  0.2324
  333MOL0     C43861   3.900   4.745   9.082 -0.1339 -0.3706  0.7841
  333MOL0     C43862   3.985   4.865   9.118 -1.1484 -0.4479  0.1738
  333MOL0     C43863   4.106   4.830   9.204  0.6901 -0.3329  0.1821
  333MOL0     C43864   4.176   4.953   9.235  0.0629 -0.0523 -0.8546
  333MOL0     C43865   4.289   4.923   9.323  0.1563 -0.1579  0.5196
  333MOL0     C43866   4.400   4.825   9.264  0.1451 -0.2939  0.1293
  333MOL0     C43867   4.543   4.867   9.296 -0.5324 -0.1299 -0.4136
  333MOL0    Cl43868   4.656   4.766   9.211  0.0122 -0.1133  0.0607
  333MOL0     C43869   3.485   4.753   8.969  0.3590  0.9750  0.5933
  333MOL0     C43870   3.368   4.706   9.030  0.1983 -0.1403  0.2089
  333MOL0     O43871   3.327   4.458   9.220 -0.0536  0.4612  0.4482
  333MOL0     C43872   3.056   4.570   9.417 -0.3415 -0.1395  0.0443
  333MOL0     C43873   2.935   4.522   9.470 -0.4252 -0.2509  0.0328
  333MOL0     N43874   2.320   4.697   9.475 -0.1474  0.3076  0.3442
  333MOL0     N43875   2.275   4.749   9.369  0.9291 -0.6785  0.1816
  333MOL0     C43876   1.117   4.925   8.671  0.1762  0.0146 -0.0199
  333MOL0     C43877   0.980   4.949   8.684  0.3445  0.4644  0.4365
  333MOL0     C43878   0.521   4.911   8.793 -0.3561  0.8512 -0.3154
  333MOL0     C43879   0.511   5.037   8.855  0.2131 -0.0406 -0.5474
  333MOL0     C43880   0.384   5.103   8.886  0.4819  0.7699  0.1041
  333MOL0     C43881   0.268   5.039   8.852  0.3139  0.2338  0.2395
  333MOL0     O43882   0.154   5.089   8.905  0.7322  0.2274  1.0904
  333MOL0     C43883   0.024   5.060   8.838 -0.9537 -0.9261  0.2398
  333MOL0     C43884  -0.056   4.951   8.916  0.3965 -0.3172  0.0471
  333MOL0     C43885  -0.201   4.982   8.895 -0.1325 -0.4845  0.9797
  333MOL0     C43886  -0.282   4.867   8.962 -0.1909 -0.4497 -0.0747
  333MOL0     C43887  -0.418   4.908   8.971  0.0191  0.3797 -0.4813
  333MOL0     C43888  -0.521   4.966   8.974 -0.4118 -0.1579  0.3861
  333MOL0     C43889   0.274   4.909   8.790 -0.4627 -0.4044  0.1427
  333MOL0     C43890   0.404   4.844   8.758  0.2463 -0.2140  0.3161
  333MOL0     H43891   0.885   4.776   8.947 -0.1951  0.8862  0.3607
  333MOL0     H43892   1.137   4.702   8.938  0.1357  0.5120  1.0491
  333MOL0     H43893   1.350   4.668   8.892  2.3058  0.0675  1.1230
  333MOL0     H43894   1.391   4.821   8.957  0.4674  1.4873  0.0831
  333MOL0     H43895   1.562   4.799   8.736 -0.6131 -0.8186 -1.8048
  333MOL0     H43896   1.530   4.639   8.761 -2.6539  0.0366  1.0507
  333MOL0     H43897   1.640   4.697   9.012 -1.0528 -2.0825 -0.9030
  333MOL0     H43898   1.672   4.856   8.940  0.1151  0.9623 -2.8691
  333MOL0     H43899   1.795   4.602   8.848 -1.4982 -0.3903  2.7132
  333MOL0     H43900   1.834   4.769   8.792 -2.1062  2.2638 -0.2670
  333MOL0     H43901   1.859   4.665   9.079 -0.6562 -0.4281 -1.0169
  333MOL0     H43902   1.931   4.810   9.017  0.7113  0.5146 -1.8335
  333MOL0     H43903   2.101   4.691   8.876  1.7845 -1.1841  0.3198
  333MOL0     H43904   2.013   4.544   8.889  2.5024 -1.7188  1.1686
  333MOL0     H43905   2.091   4.486   9.094  1.9538 -0.1394 -0.4610
  333MOL0     H43906   2.224   4.579   9.027 -1.0968  0.1433 -2.6222
  333MOL0     H43907   2.005   4.668   9.239  0.4611 -0.5934  2.4640
  333MOL0     H43908   2.126   4.780   9.157  3.7989 -0.6307  1.1932
  333MOL0     H43909   2.176   4.447   9.327  2.0106 -1.0822  0.4468
  333MOL0     H43910   2.262   4.377   9.553 -0.1769 -1.2092  1.5134
  333MOL0     H43911   2.228   4.501   9.675 -0.1398 -0.7275 -0.1686
  333MOL0     H43912   2.438   4.430   9.734 -1.4561  0.3961  0.4797
  333MOL0     H43913   2.476   4.584   9.659 -2.1140  1.8379  0.0738
  333MOL0     H43914   2.527   4.303   9.531  2.5578 -0.7005  0.6553
  333MOL0     H43915   2.522   4.461   9.444  0.9505 -2.5397 -1.9772
  333MOL0     H43916   2.693   4.384   9.688 -3.2011 -0.7546  1.0552
  333MOL0     H43917   2.715   4.524   9.584  1.0716 -1.2938  1.3923
  333MOL0     H43918   2.949   4.201   9.380 -2.0245  0.9176 -0.6736
  333MOL0     H43919   3.174   4.276   9.293  0.5128  2.1589 -1.5446
  333MOL0     H43920   3.460   4.825   9.339  0.3062  0.4267 -0.0697
  333MOL0     H43921   3.653   4.882   9.220  0.8629 -1.3579 -0.3246
  333MOL0     H43922   3.879   4.770   8.870 -0.6917 -0.6823 -0.6941
  333MOL0     H43923   3.752   4.672   8.929 -0.5127  1.9220 -2.7492
  333MOL0     H43924   3.963   4.657   9.066  0.2842 -0.2528  1.7607
  333MOL0     H43925   3.846   4.731   9.176  0.4888  1.9380  1.5614
  333MOL0     H43926   3.925   4.944   9.164  2.4036  1.3703  2.1230
  333MOL0     H43927   4.024   4.914   9.028 -0.6067 -0.5180  0.3649
  333MOL0     H43928   4.062   4.792   9.297 -2.5870  1.4112 -0.4865
  333MOL0     H43929   4.175   4.758   9.160  1.6383  1.2548 -1.0159
  333MOL0     H43930   4.114   5.023   9.293 -0.2695 -0.7576 -0.3511
  333MOL0     H43931   4.202   4.987   9.134  0.1493 -0.2379 -0.8946
  333MOL0     H43932   4.257   4.897   9.425 -2.4033 -1.1175 -0.4430
  333MOL0     H43933   4.353   5.011   9.327  2.4377 -1.7387  0.2963
  333MOL0     H43934   4.388   4.720   9.293  2.0058 -0.6947 -0.3535
  333MOL0     H43935   4.389   4.818   9.155  1.2138 -2.0695  0.0929
  333MOL0     H43936   4.549   4.877   9.405 -1.4137 -0.9302 -0.2819
  333MOL0     H43937   4.573   4.969   9.268 -0.4662  0.1534  0.6453
  333MOL0     H43938   3.488   4.728   8.863  0.5874  0.0472  0.8179
  333MOL0     H43939   3.290   4.652   8.976 -1.7443  0.8801  1.8489
  333MOL0     H43940   3.089   4.670   9.442 -0.2795  0.0197 -0.6579
  333MOL0     H43941   2.876   4.598   9.522  1.7845  3.5284 -2.4854
  333MOL0     H43942   1.174   4.964   8.587 -0.8462  0.7352 -0.3988
  333MOL0     H43943   0.926   4.995   8.602 -1.2279 -3.0586 -0.7141
  333MOL0     H43944   0.602   5.088   8.883  0.2551 -0.9449  1.1304
  333MOL0     H43945   0.379   5.205   8.923 -0.4838  0.1511  1.7571
  333MOL0     H43946   0.035   5.024   8.736  6.3172 -3.6263  1.3413
  333MOL0     H43947  -0.030   5.154   8.821  0.8165 -0.1296 -1.3510
  333MOL0     H43948  -0.022   4.849   8.897  2.4570  0.9030 -3.9590
  333MOL0     H43949  -0.044   4.967   9.023 -0.6162  3.4168 -0.2381
  333MOL0     H43950  -0.213   4.979   8.787  2.8733 -2.1001  0.5693
  333MOL0     H43951  -0.225   5.084   8.925 -3.1389  0.3152 -3.2500
  333MOL0     H43952  -0.264   4.772   8.912  0.6998  0.1966 -1.0411
  333MOL0     H43953  -0.242   4.849   9.062 -1.6521  0.5067  0.7268
  333MOL0     H43954  -0.611   5.022   8.957 -0.1287 -0.3339 -1.9708
  333MOL0     H43955   0.180   4.856   8.774 -0.9335  0.6615 -0.8196
  333MOL0     H43956   0.395   4.742   8.725 -1.4958  0.1476 -0.4292
  334MOL0     O43957   5.930   0.317   4.491 -0.4180 -0.5419 -0.8690
  334MOL0     C43958   5.987   0.210   4.483  0.0281 -0.7680 -0.5322
  334MOL0     O43959   5.916   0.088   4.487  0.4633 -0.8418 -0.6531
  334MOL0     C43960   5.786   0.087   4.527  0.1596 -0.2414  0.5650
  334MOL0     C43961   5.682   0.148   4.457  0.5785  0.0585 -0.4049
  334MOL0     C43962   5.546   0.134   4.493  0.1320 -0.0062 -0.5068
  334MOL0     C43963   5.512   0.056   4.601  0.0697  0.3574 -0.4059
  334MOL0     O43964   5.379   0.048   4.628 -0.6847  0.3030  0.5811
  334MOL0     C43965   5.329   0.034   4.758  0.4328  0.6797  0.0508
  334MOL0     C43966   5.239  -0.092   4.769  0.4267 -0.1129  0.1273
  334MOL0     C43967   5.245  -0.124   4.917 -0.2307 -0.2779 -0.5373
  334MOL0     C43968   5.163  -0.249   4.944  0.8803 -0.3603 -0.1894
  334MOL0     C43969   5.205  -0.324   5.074 -0.4494  0.0390  0.9896
  334MOL0     C43970   5.159  -0.254   5.208  0.1114 -0.2971 -0.8945
  334MOL0     C43971   5.167  -0.369   5.330  0.1478  0.1779 -0.8203
  334MOL0     C43972   5.164  -0.312   5.474 -0.1455 -0.1865  0.0994
  334MOL0     N43973   5.026  -0.315   5.525 -0.0744 -0.0125  0.6183
  334MOL0     C43974   4.911  -0.262   5.480 -0.5546 -0.3072  0.1546
  334MOL0     C43975   4.810  -0.302   5.567  0.3813 -0.0356 -0.1465
  334MOL0     C43976   4.670  -0.245   5.562 -0.6165 -0.3960  0.5737
  334MOL0     C43977   4.669  -0.111   5.633  0.2884  0.3805 -1.1594
  334MOL0     C43978   4.570  -0.005   5.575 -0.0994 -0.6701 -0.1385
  334MOL0     C43979   4.416  -0.019   5.600 -0.8940 -0.1987 -0.4402
  334MOL0     O43980   4.367  -0.152   5.590 -0.6337  0.4273  0.4453
  334MOL0     C43981   4.233  -0.175   5.623  0.0753  0.4696 -0.0728
  334MOL0     C43982   4.204  -0.310   5.577 -0.3054 -0.0090 -0.9366
  334MOL0     C43983   4.074  -0.358   5.597 -0.1277 -0.0115 -0.6857
  334MOL0     C43984   3.980  -0.281   5.664  0.4286 -0.2984 -0.0334
  334MOL0     C43985   3.848  -0.323   5.706  0.2405 -0.2710  0.0010
  334MOL0     O43986   3.834  -0.453   5.728  0.3431  0.3746 -0.4716
  334MOL0     C43987   3.718  -0.521   5.686 -0.5244  0.1067  0.1551
  334MOL0     C43988   3.626  -0.462   5.600  0.4663 -0.1853  0.1849
  334MOL0     C43989   3.504  -0.520   5.580 -0.0288 -0.2204 -0.2506
  334MOL0     C43990   3.460  -0.641   5.639 -1.1468  0.1417  0.8550
  334MOL0     O43991   3.340  -0.697   5.622 -0.1641  0.1319 -0.9287
  334MOL0     C43992   3.244  -0.692   5.511 -0.3299  0.1867  0.5456
  334MOL0     C43993   3.105  -0.709   5.557  1.2135  0.2656  0.0629
  334MOL0     C43994   3.007  -0.652   5.458  0.7182  0.2662  0.2415
  334MOL0     C43995   2.860  -0.659   5.498 -0.9080 -0.0060 -0.3840
  334MOL0     C43996   2.777  -0.559   5.422 -0.3235  0.5489 -0.8693
  334MOL0     C43997   2.630  -0.590   5.440  0.5088  0.6004  0.0060
  334MOL0     C43998   2.539  -0.492   5.373 -0.2349 -0.1814  0.3733
  334MOL0     C43999   2.395  -0.511   5.416 -0.3256 -0.5222 -0.0080
  334MOL0    Cl44000   2.342  -0.676   5.392  0.3351 -0.2768 -0.4656
  334MOL0     C44001   3.563  -0.705   5.716  0.5528  0.5433  0.4091
  334MOL0     C44002   3.688  -0.646   5.744 -0.8376 -0.3546  0.0617
  334MOL0     O44003   3.761  -0.239   5.723  0.0693 -0.6101 -0.0183
  334MOL0     C44004   4.018  -0.145   5.704  0.7442 -0.2890 -0.4808
  334MOL0     C44005   4.145  -0.092   5.684 -0.0773  0.6607 -0.0431
  334MOL0     N44006   4.870  -0.397   5.658 -0.5481  0.3124 -1.2998
  334MOL0     N44007   5.001  -0.392   5.635  0.6884  0.1631 -0.1769
  334MOL0     C44008   5.614  -0.017   4.672 -0.2981 -0.1737  0.0515
  334MOL0     C44009   5.753   0.008   4.634  0.3923 -0.1415 -0.1414
  334MOL0     C44010   6.133   0.235   4.448 -0.3037 -0.2473  0.4199
  334MOL0     C44011   6.199   0.127   4.396 -0.2649 -0.1964 -0.0067
  334MOL0     C44012   6.334   0.128   4.362  0.0956 -1.0323 -0.7362
  334MOL0     C44013   6.407   0.249   4.369 -0.3440 -0.1481  0.0063
  334MOL0     O44014   6.537   0.259   4.330  0.1826 -0.8412 -0.1379
  334MOL0     C44015   6.621   0.175   4.402 -0.2360 -0.9960 -0.5847
  334MOL0     C44016   6.761   0.218   4.382  0.0845  0.3518 -0.3047
  334MOL0     C44017   6.785   0.354   4.443  0.6010 -0.1398 -0.7278
  334MOL0     C44018   6.930   0.425   4.420  0.8862  0.2495 -0.5725
  334MOL0     C44019   6.925   0.567   4.431 -0.0707 -0.7591 -0.6151
  334MOL0     C44020   6.903   0.686   4.426 -0.9365 -0.0520 -0.0074
  334MOL0     C44021   6.335   0.366   4.405 -0.8618  0.8559  0.4746
  334MOL0     C44022   6.200   0.365   4.456  0.7435  0.8810  0.3749
  334MOL0     H44023   5.700   0.204   4.366 -3.2863 -0.9505 -1.9984
  334MOL0     H44024   5.467   0.178   4.433  0.0984  1.5578  0.6075
  334MOL0     H44025   5.271   0.125   4.772  0.4080  0.7150 -0.2865
  334MOL0     H44026   5.416   0.038   4.825  0.9204  2.7117 -0.6351
  334MOL0     H44027   5.280  -0.171   4.706  3.4145  0.1326  1.5490
  334MOL0     H44028   5.138  -0.059   4.742  0.6676  0.0961 -0.5470
  334MOL0     H44029   5.206  -0.039   4.974 -0.6334 -0.4576 -0.5433
  334MOL0     H44030   5.348  -0.142   4.950 -0.9401  1.6036  3.3315
  334MOL0     H44031   5.058  -0.224   4.958  0.5321 -1.9993  0.3234
  334MOL0     H44032   5.164  -0.306   4.850 -0.6848  0.3125 -0.6498
  334MOL0     H44033   5.312  -0.330   5.054 -0.8287  1.9134 -2.2562
  334MOL0     H44034   5.162  -0.424   5.059  4.5666 -2.1498 -1.4400
  334MOL0     H44035   5.060  -0.208   5.200 -0.1995 -1.0069 -1.1238
  334MOL0     H44036   5.238  -0.179   5.224  1.7221 -2.1879  0.5253
  334MOL0     H44037   5.097  -0.452   5.315 -0.7068 -0.0242  3.1873
  334MOL0     H44038   5.260  -0.423   5.308  0.7810  0.4412  1.0180
  334MOL0     H44039   5.192  -0.206   5.476 -2.4828  0.5093 -0.6042
  334MOL0     H44040   5.240  -0.361   5.535 -0.6272  0.7523  1.4868
  334MOL0     H44041   4.904  -0.182   5.407  2.2132  1.5623  1.7622
  334MOL0     H44042   4.600  -0.317   5.605 -2.6238 -1.6944 -4.2848
  334MOL0     H44043   4.657  -0.226   5.455 -0.9285  2.5318  1.0350
  334MOL0     H44044   4.764  -0.059   5.620  0.2682  0.4298 -1.1047
  334MOL0     H44045   4.629  -0.117   5.735 -2.3170  0.1842 -2.1299
  334MOL0     H44046   4.599   0.096   5.606 -0.1474 -1.0831  1.2893
  334MOL0     H44047   4.582  -0.014   5.466  0.1104 -1.8630 -0.0264
  334MOL0     H44048   4.374   0.042   5.519  1.7159  0.7455 -1.1857
  334MOL0     H44049   4.390   0.018   5.699  0.0916  0.7882 -0.5290
  334MOL0     H44050   4.278  -0.378   5.537  0.5438  0.1292  0.3421
  334MOL0     H44051   4.064  -0.462   5.568 -1.7113 -0.4574  1.2563
  334MOL0     H44052   3.643  -0.372   5.543  3.5619 -0.6076  0.2695
  334MOL0     H44053   3.430  -0.471   5.517 -2.5376 -2.4129  0.7861
  334MOL0     H44054   3.264  -0.771   5.439 -1.1123  0.5997 -0.1455
  334MOL0     H44055   3.255  -0.599   5.455  0.6215 -1.5341 -2.3251
  334MOL0     H44056   3.094  -0.659   5.654  1.2125  2.6238 -1.0994
  334MOL0     H44057   3.070  -0.812   5.575 -0.5800  0.5865 -1.3120
  334MOL0     H44058   3.029  -0.703   5.364 -1.7487  1.4082 -1.0436
  334MOL0     H44059   3.025  -0.545   5.440  0.9825  0.4936  1.7370
  334MOL0     H44060   2.820  -0.761   5.499  0.9314 -0.7708  0.7620
  334MOL0     H44061   2.868  -0.631   5.604  1.1990 -1.0049 -0.2201
  334MOL0     H44062   2.817  -0.560   5.320 -0.7847  2.6456 -1.1183
  334MOL0     H44063   2.800  -0.455   5.447  0.5307  0.3684 -0.8733
  334MOL0     H44064   2.603  -0.590   5.546 -0.6136 -0.9010 -0.2397
  334MOL0     H44065   2.600  -0.690   5.407 -1.2673  1.1304 -0.1018
  334MOL0     H44066   2.567  -0.387   5.386  2.1144 -0.1928 -3.0167
  334MOL0     H44067   2.537  -0.520   5.267 -1.6160 -1.7062  0.7669
  334MOL0     H44068   2.328  -0.441   5.365 -2.3352 -1.8662  0.6705
  334MOL0     H44069   2.386  -0.488   5.523  3.5162 -1.9347  0.7742
  334MOL0     H44070   3.540  -0.806   5.747  1.9552 -0.5307 -1.8231
  334MOL0     H44071   3.754  -0.692   5.817  1.6573 -0.4121 -2.0973
  334MOL0     H44072   3.946  -0.076   5.747 -0.8746 -1.6853 -0.8589
  334MOL0     H44073   4.180   0.011   5.694 -0.4406  0.9575 -1.6586
  334MOL0     H44074   5.596  -0.065   4.768 -3.0062  1.1424  0.3062
  334MOL0     H44075   5.844  -0.027   4.682  0.7425 -0.7673 -1.2131
  334MOL0     H44076   6.154   0.030   4.374  1.8501 -0.6624 -2.8822
  334MOL0     H44077   6.390   0.036   4.350 -2.7095 -3.2075  1.4596
  334MOL0     H44078   6.607   0.067   4.386 -1.4262 -1.0676  0.7429
  334MOL0     H44079   6.596   0.188   4.508  2.5106 -0.3991  0.0549
  334MOL0     H44080   6.823   0.140   4.427 -2.7140 -1.3514  0.8522
  334MOL0     H44081   6.791   0.221   4.277  3.1051  2.7369  0.4807
  334MOL0     H44082   6.780   0.358   4.552  1.1881  2.2194 -0.7333
  334MOL0     H44083   6.707   0.421   4.405  0.2880 -0.7598 -1.1973
  334MOL0     H44084   6.996   0.371   4.488  0.0921  2.3178  1.9897
  334MOL0     H44085   6.954   0.396   4.317  2.0917 -2.6655  0.4362
  334MOL0     H44086   6.897   0.787   4.391  0.8342 -0.9143 -3.2323
  334MOL0     H44087   6.381   0.463   4.387 -0.4704  0.5344 -0.2991
  334MOL0     H44088   6.137   0.446   4.490 -3.2133 -1.9237  0.4079
  335MOL0     O44089   6.054   7.855   0.752  0.2004  0.4569  0.3325
  335MOL0     C44090   6.020   7.819   0.864  0.1114  0.2510 -0.3004
  335MOL0     O44091   6.056   7.691   0.917  0.7265 -0.3368  0.4297
  335MOL0     C44092   6.125   7.604   0.834 -0.5314  0.5248  0.9669
  335MOL0     C44093   6.262   7.613   0.811  0.2637 -0.2632  0.0806
  335MOL0     C44094   6.332   7.522   0.728  0.2349  0.3585  0.5103
  335MOL0     C44095   6.257   7.424   0.667  0.3790  0.5821 -0.5204
  335MOL0     O44096   6.314   7.331   0.586  1.4595  0.3779  0.0989
  335MOL0     C44097   6.326   7.197   0.649 -0.0522 -0.1638 -0.7598
  335MOL0     C44098   6.449   7.129   0.593 -0.5669  0.4903  0.0302
  335MOL0     C44099   6.440   7.076   0.450  0.2187  0.2603 -0.0754
  335MOL0     C44100   6.403   7.169   0.334  0.3274  0.1740 -0.4264
  335MOL0     C44101   6.434   7.116   0.185  0.2326  0.0379  0.6812
  335MOL0     C44102   6.380   6.969   0.161 -0.0419 -0.0110 -0.0315
  335MOL0     C44103   6.425   6.918   0.017 -0.3122 -0.0020 -0.7677
  335MOL0     C44104   6.390   6.765  -0.010  0.5024 -0.1563 -0.6239
  335MOL0     N44105   6.406   6.740  -0.152  0.5958  0.1424 -0.0413
  335MOL0     C44106   6.317   6.786  -0.257 -0.3153 -0.7300  0.0695
  335MOL0     C44107   6.329   6.696  -0.354 -0.1779  0.1485  0.2093
  335MOL0     C44108   6.253   6.687  -0.483 -0.4149 -0.2936  1.0576
  335MOL0     C44109   6.131   6.599  -0.459  0.5234 -0.6390 -0.5084
  335MOL0     C44110   6.023   6.664  -0.373  0.4333  0.6544 -0.3378
  335MOL0     C44111   5.880   6.611  -0.411  0.1087 -0.6316  1.0547
  335MOL0     O44112   5.838   6.668  -0.535  0.0210  0.3023 -0.0319
  335MOL0     C44113   5.810   6.801  -0.543  0.7053 -0.1904 -0.4944
  335MOL0     C44114   5.816   6.860  -0.671  0.3171  0.5073 -0.4703
  335MOL0     C44115   5.804   6.997  -0.685  0.3447 -1.0329  0.3181
  335MOL0     C44116   5.761   7.063  -0.571 -0.6764 -0.5479 -0.6229
  335MOL0     C44117   5.739   7.215  -0.584  0.1688 -1.0482  0.2246
  335MOL0     O44118   5.668   7.285  -0.489 -1.0031  0.2310 -0.6108
  335MOL0     C44119   5.664   7.422  -0.486  0.4059  0.0206 -0.2671
  335MOL0     C44120   5.536   7.480  -0.465  0.4413 -0.3904 -0.9438
  335MOL0     C44121   5.530   7.623  -0.475  0.2066 -0.7128 -0.4235
  335MOL0     C44122   5.635   7.704  -0.494  0.5788 -0.0067 -0.4167
  335MOL0     O44123   5.617   7.837  -0.524 -0.3108 -0.3565  0.1620
  335MOL0     C44124   5.721   7.896  -0.609  0.0746  0.4181  0.7643
  335MOL0     C44125   5.676   8.037  -0.658  0.1588 -0.2789  0.7299
  335MOL0     C44126   5.552   8.049  -0.744 -0.6424 -0.7924  0.1249
  335MOL0     C44127   5.521   8.189  -0.791 -0.2680  0.7406 -0.6193
  335MOL0     C44128   5.372   8.205  -0.808 -0.7278 -0.5856  1.0353
  335MOL0     C44129   5.313   8.108  -0.911 -0.0410 -0.6738 -0.3657
  335MOL0     C44130   5.179   8.157  -0.979 -0.3280 -1.1420  0.2604
  335MOL0     C44131   5.131   8.052  -1.070  0.8745  0.1398 -0.0492
  335MOL0    Cl44132   5.093   7.893  -0.974 -0.2298  0.6896  0.1981
  335MOL0     C44133   5.760   7.646  -0.507 -0.4285  0.8605  0.4293
  335MOL0     C44134   5.771   7.508  -0.510 -0.1010  0.4219 -0.3649
  335MOL0     O44135   5.814   7.270  -0.662 -0.0447 -1.0213  0.6600
  335MOL0     C44136   5.726   7.007  -0.450  0.1588  0.6123  0.3324
  335MOL0     C44137   5.757   6.872  -0.435  0.1062 -0.9313  0.4529
  335MOL0     N44138   6.443   6.617  -0.324  0.1367  0.6270  0.4749
  335MOL0     N44139   6.486   6.645  -0.199  0.1712  0.4300 -0.2633
  335MOL0     C44140   6.116   7.406   0.697  0.7355 -0.5413 -0.4873
  335MOL0     C44141   6.051   7.501   0.784 -0.2776  0.4824 -0.1889
  335MOL0     C44142   5.933   7.906   0.950  0.3402 -0.4098  0.6196
  335MOL0     C44143   5.889   7.868   1.080 -0.8092 -0.0752 -0.9126
  335MOL0     C44144   5.806   7.951   1.159  0.3316  0.3172 -0.3525
  335MOL0     C44145   5.744   8.070   1.108 -0.1410 -0.2041 -0.4025
  335MOL0     O44146   5.663   8.155   1.179  0.1406  0.1296  0.2514
  335MOL0     C44147   5.732   8.251   1.269 -0.3149  0.4779  1.0708
  335MOL0     C44148   5.641   8.307   1.387  1.0445  0.1505  0.1869
  335MOL0     C44149   5.531   8.390   1.316  0.8931 -0.1751  0.7993
  335MOL0     C44150   5.429   8.447   1.423 -0.4729 -1.0991  0.7922
  335MOL0     C44151   5.303   8.490   1.360  0.7711 -0.3880  0.0380
  335MOL0     C44152   5.196   8.511   1.316  0.3162 -0.0395 -0.1749
  335MOL0     C44153   5.787   8.107   0.978 -0.9421 -0.0421 -1.1864
  335MOL0     C44154   5.884   8.034   0.902  0.0722 -0.6318  0.1480
  335MOL0     H44155   6.315   7.686   0.871  1.1226 -1.8870  1.3938
  335MOL0     H44156   6.440   7.525   0.724  0.1884  0.6912 -0.7273
  335MOL0     H44157   6.238   7.138   0.623  1.0456 -2.0712 -0.2988
  335MOL0     H44158   6.324   7.205   0.758 -0.5139 -0.1194 -0.7698
  335MOL0     H44159   6.462   7.041   0.656 -1.0244  1.6732  1.8404
  335MOL0     H44160   6.539   7.190   0.608 -1.6115  2.0654  0.1943
  335MOL0     H44161   6.373   6.990   0.444 -0.0444  0.5108 -0.8225
  335MOL0     H44162   6.538   7.039   0.418 -0.7788 -2.0500 -0.6727
  335MOL0     H44163   6.297   7.188   0.354  0.4312 -2.6162  4.5173
  335MOL0     H44164   6.461   7.262   0.338 -1.2078  1.1505  2.4204
  335MOL0     H44165   6.538   7.129   0.152 -0.3745  0.5596 -1.1360
  335MOL0     H44166   6.384   7.186   0.117  0.4971 -1.1278 -0.7679
  335MOL0     H44167   6.271   6.974   0.164 -0.2591 -3.0634  0.4200
  335MOL0     H44168   6.421   6.904   0.239 -3.2639 -1.0129  1.0048
  335MOL0     H44169   6.381   6.975  -0.065  1.7885  1.2940 -1.0847
  335MOL0     H44170   6.533   6.936   0.020 -0.3759  0.4224  2.1213
  335MOL0     H44171   6.288   6.744   0.023 -0.2373  3.0552 -0.4674
  335MOL0     H44172   6.454   6.699   0.048  1.0256  1.4899  0.7746
  335MOL0     H44173   6.235   6.856  -0.244 -0.1182 -0.7393  1.5395
  335MOL0     H44174   6.320   6.647  -0.560  0.0748 -1.7880  2.2172
  335MOL0     H44175   6.224   6.786  -0.519 -2.3595 -0.4264  2.1352
  335MOL0     H44176   6.171   6.511  -0.407  0.4042  0.0727  0.8378
  335MOL0     H44177   6.090   6.574  -0.557 -0.8467  0.8780 -0.3583
  335MOL0     H44178   6.039   6.633  -0.269 -0.7993 -2.1923 -0.9053
  335MOL0     H44179   6.028   6.772  -0.384 -0.8389  0.8824  1.0654
  335MOL0     H44180   5.815   6.636  -0.326 -0.6668  1.1478 -0.0052
  335MOL0     H44181   5.882   6.502  -0.407  1.3785 -0.5955  2.2979
  335MOL0     H44182   5.843   6.798  -0.757 -1.3744 -2.1852  0.7995
  335MOL0     H44183   5.816   7.054  -0.777  1.9900 -1.1412  0.4476
  335MOL0     H44184   5.450   7.422  -0.433  0.2969  0.7347  0.8086
  335MOL0     H44185   5.434   7.673  -0.469  0.5706  0.1750 -1.5557
  335MOL0     H44186   5.738   7.843  -0.703  0.4946  1.7169  0.0740
  335MOL0     H44187   5.821   7.905  -0.566  0.7306 -2.1047 -0.0712
  335MOL0     H44188   5.763   8.079  -0.710 -1.4424  1.1400 -0.9466
  335MOL0     H44189   5.652   8.093  -0.568 -4.3777 -1.0225  0.1941
  335MOL0     H44190   5.477   8.005  -0.677  0.7450 -0.9650  1.6310
  335MOL0     H44191   5.562   7.984  -0.832  0.2310  0.2863 -0.5886
  335MOL0     H44192   5.560   8.255  -0.712  3.2442 -1.6372 -0.1533
  335MOL0     H44193   5.574   8.213  -0.884  0.2320  3.7450  0.3292
  335MOL0     H44194   5.352   8.307  -0.842  2.1961 -0.1906  0.2445
  335MOL0     H44195   5.321   8.181  -0.714  0.5716 -4.0504  1.0040
  335MOL0     H44196   5.299   8.015  -0.854  1.4947  1.0860  3.2613
  335MOL0     H44197   5.391   8.093  -0.986 -0.0852 -1.5350 -0.2493
  335MOL0     H44198   5.108   8.185  -0.901 -2.3676 -2.7912 -0.9059
  335MOL0     H44199   5.207   8.245  -1.037 -1.6165  0.6845  2.2762
  335MOL0     H44200   5.200   8.038  -1.154 -1.2157 -0.5537 -1.7656
  335MOL0     H44201   5.048   8.100  -1.123  0.8936 -2.0550 -2.2508
  335MOL0     H44202   5.846   7.699  -0.545  0.2937 -1.7946 -1.9891
  335MOL0     H44203   5.867   7.463  -0.534 -0.6889 -0.9718 -0.1414
  335MOL0     H44204   5.695   7.059  -0.360  0.8973  1.0323  0.3466
  335MOL0     H44205   5.725   6.830  -0.340 -3.9743  0.2603 -0.2196
  335MOL0     H44206   6.048   7.333   0.655  1.8148 -1.7297 -0.2339
  335MOL0     H44207   5.946   7.495   0.813 -1.3860  2.9467 -3.1115
  335MOL0     H44208   5.909   7.768   1.120 -0.4347 -0.9317 -3.1153
  335MOL0     H44209   5.768   7.902   1.248 -4.1104 -0.5379 -2.4546
  335MOL0     H44210   5.767   8.338   1.213 -0.2424  0.3352  0.8902
  335MOL0     H44211   5.815   8.193   1.311 -0.2510 -0.9242 -0.8562
  335MOL0     H44212   5.589   8.233   1.448 -1.4078 -1.0076 -2.9901
  335MOL0     H44213   5.704   8.367   1.453  1.2546 -1.2201  1.2615
  335MOL0     H44214   5.474   8.335   1.241  0.0051  1.9896 -0.2076
  335MOL0     H44215   5.584   8.470   1.264 -1.7455  0.3958 -1.2547
  335MOL0     H44216   5.401   8.367   1.493 -1.6454 -2.4372 -1.0858
  335MOL0     H44217   5.479   8.529   1.475  0.6559 -1.3242  0.1102
  335MOL0     H44218   5.102   8.533   1.271 -0.4876  0.1061  1.4999
  335MOL0     H44219   5.731   8.191   0.937 -3.0324 -1.4350 -1.3416
  335MOL0     H44220   5.916   8.074   0.807 -0.4025  4.8087  1.9085
  336MOL0     O44221   0.402   1.121   5.785 -0.5158 -0.4499 -0.3182
  336MOL0     C44222   0.369   1.027   5.719  0.4715 -0.1024  0.1176
  336MOL0     O44223   0.443   0.908   5.708  0.7990  0.4213  0.3332
  336MOL0     C44224   0.558   0.887   5.784  0.2552  0.3901  0.2791
  336MOL0     C44225   0.661   0.979   5.766  0.2349 -0.0026 -0.1560
  336MOL0     C44226   0.797   0.949   5.808  0.5200  0.6022  0.3174
  336MOL0     C44227   0.823   0.843   5.892  0.6694  0.3081  0.5861
  336MOL0     O44228   0.942   0.815   5.960  0.8552 -0.1317  0.1663
  336MOL0     C44229   1.018   0.934   5.997  0.3683 -0.5370 -0.3589
  336MOL0     C44230   1.132   0.908   6.096 -0.2954  0.3759 -0.2318
  336MOL0     C44231   1.101   0.807   6.199  0.0402 -0.7007 -0.1470
  336MOL0     C44232   1.026   0.854   6.325 -0.0850  0.6704  0.6414
  336MOL0     C44233   0.937   0.763   6.409  0.4450  0.1504 -0.7388
  336MOL0     C44234   0.820   0.707   6.326 -0.6281  0.7174 -0.3529
  336MOL0     C44235   0.696   0.688   6.411 -0.1891 -0.4363 -0.0622
  336MOL0     C44236   0.722   0.570   6.510  0.2028 -0.2464  0.0292
  336MOL0     N44237   0.593   0.526   6.562 -0.2652 -0.5122  0.2103
  336MOL0     C44238   0.521   0.416   6.523  0.3615 -0.7004  0.5399
  336MOL0     C44239   0.421   0.401   6.612  0.0121  0.3189 -0.4592
  336MOL0     C44240   0.308   0.295   6.608  0.4144 -0.7066 -0.2888
  336MOL0     C44241   0.194   0.330   6.699 -0.8886 -0.0489  0.2059
  336MOL0     C44242   0.229   0.270   6.838 -0.0904  0.0482  1.0717
  336MOL0     C44243   0.100   0.258   6.922 -0.0775 -0.0641 -1.6382
  336MOL0     O44244  -0.010   0.205   6.854  0.3538 -0.2096 -0.6666
  336MOL0     C44245  -0.115   0.164   6.932  0.7820  0.8363  0.3523
  336MOL0     C44246  -0.149   0.230   7.050  0.8262  0.0600  0.2753
  336MOL0     C44247  -0.243   0.178   7.138 -0.1253 -0.0130  0.8466
  336MOL0     C44248  -0.323   0.058   7.113 -0.5358 -0.3829 -0.6033
  336MOL0     C44249  -0.410   0.013   7.216  0.4502 -0.6339  0.3232
  336MOL0     O44250  -0.399   0.072   7.342  0.6947  0.6546  0.2754
  336MOL0     C44251  -0.495   0.031   7.439  0.6184  0.1403 -0.0525
  336MOL0     C44252  -0.493  -0.088   7.525 -0.4733 -0.5229  1.0487
  336MOL0     C44253  -0.594  -0.109   7.616 -0.7161  0.0482  0.6788
  336MOL0     C44254  -0.702  -0.017   7.629  0.5562  0.4211  0.2798
  336MOL0     O44255  -0.812  -0.032   7.710  0.5963  0.4040  0.5862
  336MOL0     C44256  -0.817  -0.160   7.769 -0.0856  0.0568 -0.8931
  336MOL0     C44257  -0.943  -0.156   7.845 -0.3158  0.3682  0.0492
  336MOL0     C44258  -0.918  -0.085   7.989  0.0223  0.4139 -0.1917
  336MOL0     C44259  -1.026  -0.134   8.088  0.6042  0.1226  0.5590
  336MOL0     C44260  -1.024  -0.042   8.214 -0.9604  0.3861 -0.0105
  336MOL0     C44261  -1.097  -0.100   8.336  0.1397 -0.7496  0.6259
  336MOL0     C44262  -1.024  -0.226   8.388  0.0979  1.0708  0.3050
  336MOL0     C44263  -1.036  -0.265   8.535 -0.2580 -0.6042 -0.1014
  336MOL0    Cl44264  -1.207  -0.306   8.563 -0.6880  0.6799 -0.0494
  336MOL0     C44265  -0.709   0.095   7.547 -0.8643 -0.5193  0.0069
  336MOL0     C44266  -0.610   0.120   7.452 -0.6897 -0.5032 -0.2608
  336MOL0     O44267  -0.482  -0.081   7.184  0.4675  0.1544  0.0706
  336MOL0     C44268  -0.300  -0.004   6.991 -0.2461  0.4914  0.1763
  336MOL0     C44269  -0.193   0.046   6.906  0.0595  0.4093 -0.6118
  336MOL0     N44270   0.433   0.495   6.713  0.7523  0.3247  0.7588
  336MOL0     N44271   0.534   0.569   6.678 -0.7324  0.7637  0.1094
  336MOL0     C44272   0.713   0.756   5.922 -0.5121 -1.7829 -1.0262
  336MOL0     C44273   0.585   0.768   5.860 -1.2240  0.2286  0.1735
  336MOL0     C44274   0.246   1.056   5.641 -0.5337  0.4491 -0.0306
  336MOL0     C44275   0.171   1.174   5.665 -0.2357  0.0029 -0.1913
  336MOL0     C44276   0.056   1.209   5.599 -0.6344  0.0300 -0.3082
  336MOL0     C44277   0.012   1.124   5.495  0.2702  0.4121  0.1230
  336MOL0     O44278  -0.098   1.144   5.410  0.4318 -0.1036  0.0030
  336MOL0     C44279  -0.208   1.223   5.460 -0.2968 -0.6514 -0.2592
  336MOL0     C44280  -0.313   1.226   5.347 -0.1150 -0.2283  0.5533
  336MOL0     C44281  -0.300   1.121   5.238  0.4075 -0.1728 -0.0521
  336MOL0     C44282  -0.421   1.126   5.130 -0.5798 -0.0070  0.3501
  336MOL0     C44283  -0.462   1.262   5.104  0.4057 -1.5416 -0.1079
  336MOL0     C44284  -0.520   1.369   5.088  0.3815  0.4263 -0.3777
  336MOL0     C44285   0.091   1.013   5.464 -0.1200 -0.2344  0.3008
  336MOL0     C44286   0.202   0.969   5.536 -0.3634 -0.5354 -0.0422
  336MOL0     H44287   0.651   1.065   5.701 -1.4228 -0.8691 -1.1319
  336MOL0     H44288   0.871   1.018   5.769 -0.0037  1.9893  1.6929
  336MOL0     H44289   0.945   0.994   6.052  1.1171 -0.3889  0.4896
  336MOL0     H44290   1.049   0.996   5.913  1.8184  0.8019  1.0920
  336MOL0     H44291   1.160   0.997   6.153 -0.1770 -0.8757  1.7205
  336MOL0     H44292   1.223   0.872   6.049  0.8150 -0.2736  2.2718
  336MOL0     H44293   1.196   0.776   6.243 -0.3509 -1.1149  0.4388
  336MOL0     H44294   1.049   0.724   6.150  0.6942 -0.1877 -1.7663
  336MOL0     H44295   1.090   0.912   6.392 -3.1485  2.4581  2.2684
  336MOL0     H44296   0.957   0.932   6.289 -0.4496 -0.1610 -0.5139
  336MOL0     H44297   0.898   0.827   6.488  1.8070 -0.0336  0.1118
  336MOL0     H44298   0.999   0.692   6.465  0.1539 -0.3496 -1.0386
  336MOL0     H44299   0.849   0.606   6.295 -2.1441  0.9848 -2.9311
  336MOL0     H44300   0.805   0.773   6.239  1.0743  1.6939  0.0439
  336MOL0     H44301   0.671   0.775   6.473 -1.8512 -2.5660  2.4910
  336MOL0     H44302   0.609   0.664   6.350  0.4614 -0.6233 -0.9208
  336MOL0     H44303   0.785   0.604   6.593 -2.2305  2.1138  1.0882
  336MOL0     H44304   0.772   0.480   6.476  0.2531 -1.2621  2.5367
  336MOL0     H44305   0.533   0.365   6.428 -1.9004 -1.7591  0.7629
  336MOL0     H44306   0.329   0.190   6.630 -5.0290 -1.5633  2.5552
  336MOL0     H44307   0.265   0.296   6.507  0.2876 -1.9918 -0.2694
  336MOL0     H44308   0.106   0.279   6.659 -2.0568 -0.0069  2.5252
  336MOL0     H44309   0.164   0.435   6.696 -0.0682  0.1830 -0.6181
  336MOL0     H44310   0.265   0.167   6.832 -0.8647 -0.2651  1.5296
  336MOL0     H44311   0.302   0.335   6.886 -1.4063  0.7064  2.2452
  336MOL0     H44312   0.070   0.355   6.963  0.8310 -0.6424  0.5813
  336MOL0     H44313   0.135   0.193   7.003  0.4613  0.8563 -1.1111
  336MOL0     H44314  -0.096   0.317   7.087  3.6795 -2.4304  2.5459
  336MOL0     H44315  -0.275   0.235   7.225  2.1386 -0.3124  1.9350
  336MOL0     H44316  -0.407  -0.153   7.526  0.0259  0.1336  1.3351
  336MOL0     H44317  -0.590  -0.191   7.686 -1.2159  0.2522  0.9525
  336MOL0     H44318  -0.736  -0.163   7.842  0.3177  2.5945 -1.1529
  336MOL0     H44319  -0.820  -0.244   7.699 -2.1302 -1.0730  0.4315
  336MOL0     H44320  -0.973  -0.258   7.872 -1.9666  0.9879  0.6622
  336MOL0     H44321  -1.014  -0.095   7.788  1.4909  1.1496 -1.4997
  336MOL0     H44322  -0.935   0.021   7.970 -0.8511  0.2955 -0.1463
  336MOL0     H44323  -0.816  -0.106   8.023 -0.5156 -1.9847  0.1519
  336MOL0     H44324  -1.125  -0.120   8.045 -1.4780 -1.0881  4.4125
  336MOL0     H44325  -1.006  -0.236   8.124 -0.4458  0.5025  2.3727
  336MOL0     H44326  -1.072   0.053   8.190 -0.2684 -0.1143 -4.1020
  336MOL0     H44327  -0.920  -0.017   8.240 -0.3448 -1.0463 -0.9289
  336MOL0     H44328  -1.197  -0.129   8.301  1.2980 -3.2529 -0.9265
  336MOL0     H44329  -1.108  -0.027   8.416 -0.3510  3.2274 -2.7673
  336MOL0     H44330  -1.053  -0.317   8.334 -0.3557  1.2348  0.2679
  336MOL0     H44331  -0.917  -0.211   8.369  0.1766 -0.1609 -0.3729
  336MOL0     H44332  -1.011  -0.178   8.596 -2.3469  0.2085 -0.3297
  336MOL0     H44333  -0.961  -0.341   8.558  0.9412  0.7894  0.7677
  336MOL0     H44334  -0.785   0.172   7.554 -1.3729 -0.7439 -2.1824
  336MOL0     H44335  -0.623   0.206   7.388 -1.5951 -0.9224 -0.6710
  336MOL0     H44336  -0.335  -0.106   6.975  1.4182  0.1050 -1.4641
  336MOL0     H44337  -0.152  -0.014   6.825 -0.5536 -1.3067  0.2849
  336MOL0     H44338   0.727   0.671   5.988 -0.2542 -2.5021 -1.9857
  336MOL0     H44339   0.514   0.687   5.871 -0.0140 -0.6397  2.2425
  336MOL0     H44340   0.210   1.242   5.739 -1.0768 -0.7098  0.9388
  336MOL0     H44341   0.008   1.304   5.621  1.5131  1.6726 -2.2256
  336MOL0     H44342  -0.176   1.320   5.500  2.3771 -1.9053  0.8832
  336MOL0     H44343  -0.244   1.179   5.553 -1.5583 -0.1433 -0.4892
  336MOL0     H44344  -0.411   1.200   5.389  0.0249 -0.9955  0.4288
  336MOL0     H44345  -0.306   1.327   5.306  2.8187 -0.0790  1.1815
  336MOL0     H44346  -0.296   1.023   5.286 -1.7392  0.2544  1.1371
  336MOL0     H44347  -0.202   1.132   5.192  1.3784  0.4861  2.0350
  336MOL0     H44348  -0.368   1.085   5.044 -1.8109 -3.1737  0.9717
  336MOL0     H44349  -0.500   1.055   5.157  0.1058  0.3038  3.6785
  336MOL0     H44350  -0.578   1.459   5.083  1.8225  1.4760  0.9379
  336MOL0     H44351   0.057   0.968   5.371 -1.2692  4.3761 -1.7897
  336MOL0     H44352   0.252   0.880   5.498  2.5939  0.6856  0.6599
  337MOL0     O44353   1.491   1.589   9.612  0.5444  0.4131 -0.0550
  337MOL0     C44354   1.495   1.660   9.714 -0.2063 -0.3877 -0.7424
  337MOL0     O44355   1.605   1.665   9.796  0.2385 -0.1105  0.0492
  337MOL0     C44356   1.713   1.591   9.761 -0.5472  0.7403  0.4238
  337MOL0     C44357   1.834   1.658   9.748 -1.0781 -0.0954  0.3103
  337MOL0     C44358   1.950   1.590   9.733  0.2287 -1.1043  0.2780
  337MOL0     C44359   1.948   1.456   9.714 -0.2544  0.4409  0.7817
  337MOL0     O44360   2.063   1.393   9.671 -0.1520  0.2407 -0.6238
  337MOL0     C44361   2.193   1.457   9.661  0.2908 -0.1913  0.9315
  337MOL0     C44362   2.305   1.377   9.616  0.2116  0.3586  0.2171
  337MOL0     C44363   2.419   1.483   9.597 -0.2806  0.0031 -0.4867
  337MOL0     C44364   2.547   1.416   9.557  1.0538  0.5172 -0.0108
  337MOL0     C44365   2.548   1.338   9.429 -0.2541  0.1251  0.0690
  337MOL0     C44366   2.696   1.320   9.380  0.9295 -0.2014  0.8695
  337MOL0     C44367   2.765   1.200   9.452 -0.8048 -0.3154  0.4442
  337MOL0     C44368   2.897   1.155   9.385  0.0160  1.5889  0.3609
  337MOL0     N44369   2.891   1.100   9.244  0.2936  0.0961 -0.2022
  337MOL0     C44370   2.780   1.063   9.170  0.4811  0.5505  0.5162
  337MOL0     C44371   2.834   1.002   9.058  0.7501 -0.5736 -0.5147
  337MOL0     C44372   2.749   0.957   8.939 -0.6702 -0.2795  0.2141
  337MOL0     C44373   2.780   1.039   8.813 -0.7499  0.5079  0.9737
  337MOL0     C44374   2.906   1.026   8.738  0.2461 -0.2484 -0.2286
  337MOL0     C44375   2.934   0.873   8.718 -0.2691 -0.0058  0.0492
  337MOL0     O44376   3.015   0.848   8.601  0.6756 -0.8894  0.2327
  337MOL0     C44377   3.080   0.731   8.580  0.0524 -0.1992 -0.4276
  337MOL0     C44378   3.049   0.620   8.656  0.1211  0.5065 -0.6571
  337MOL0     C44379   3.117   0.503   8.639  0.8066  0.6578 -0.9195
  337MOL0     C44380   3.199   0.488   8.528 -0.3208  0.3180 -0.1144
  337MOL0     C44381   3.259   0.355   8.494  1.0730  0.1666 -0.3304
  337MOL0     O44382   3.372   0.350   8.411  1.0850 -0.3584 -0.3163
  337MOL0     C44383   3.436   0.228   8.396  0.3712  0.0024  0.4265
  337MOL0     C44384   3.551   0.191   8.466 -0.4664  0.2500  0.6450
  337MOL0     C44385   3.619   0.074   8.445 -0.2061 -0.3719  0.5566
  337MOL0     C44386   3.570  -0.006   8.331  0.2629 -0.4299 -0.0650
  337MOL0     O44387   3.632  -0.129   8.310 -1.4811  0.5265 -0.0243
  337MOL0     C44388   3.678  -0.162   8.178  0.0351 -0.7771 -0.2781
  337MOL0     C44389   3.700  -0.309   8.157 -0.1983 -0.3181 -0.2652
  337MOL0     C44390   3.599  -0.393   8.087 -0.3242 -0.5989 -0.7158
  337MOL0     C44391   3.482  -0.432   8.180 -0.2643 -0.7705  0.1602
  337MOL0     C44392   3.406  -0.561   8.141 -0.2082  0.8152  0.9626
  337MOL0     C44393   3.289  -0.591   8.235  0.1135  0.0141 -0.2712
  337MOL0     C44394   3.222  -0.733   8.216  0.1634 -0.8435 -0.6861
  337MOL0     C44395   3.137  -0.746   8.093  0.3482 -0.8937  0.1834
  337MOL0    Cl44396   3.034  -0.896   8.092  0.1379 -0.2981  0.5125
  337MOL0     C44397   3.456   0.027   8.268  0.6069 -0.0822 -0.0138
  337MOL0     C44398   3.397   0.150   8.287  0.6522 -0.3885  0.5886
  337MOL0     O44399   3.218   0.260   8.560  0.7301 -0.4563  0.0859
  337MOL0     C44400   3.226   0.598   8.447  0.4945 -0.0998 -0.0546
  337MOL0     C44401   3.160   0.717   8.467 -1.2001 -0.2533  0.1373
  337MOL0     N44402   2.977   1.005   9.062  0.4718  0.8932  0.1616
  337MOL0     N44403   3.005   1.063   9.176 -0.6231 -0.4733  0.8072
  337MOL0     C44404   1.831   1.384   9.732 -0.9336  0.0569 -0.6040
  337MOL0     C44405   1.710   1.445   9.747 -0.8851  0.8111  0.0841
  337MOL0     C44406   1.387   1.759   9.735  0.3951 -0.0181  0.0831
  337MOL0     C44407   1.284   1.763   9.633  1.3059  0.4787 -0.3659
  337MOL0     C44408   1.162   1.824   9.659  0.2445 -0.6139  0.1999
  337MOL0     C44409   1.147   1.888   9.781  0.2631  0.9108 -0.8689
  337MOL0     O44410   1.035   1.959   9.828  0.0306  0.3183  0.3361
  337MOL0     C44411   0.912   1.956   9.760  0.2014 -0.4320  0.2108
  337MOL0     C44412   0.805   2.039   9.828  1.2159  0.4851 -0.4346
  337MOL0     C44413   0.755   1.968   9.958  0.1199  0.1852  0.1155
  337MOL0     C44414   0.623   2.032  10.011  0.4571 -0.4990 -0.1429
  337MOL0     C44415   0.507   1.993   9.924 -0.4635 -0.5084 -0.4400
  337MOL0     C44416   0.425   1.941   9.857 -0.1594 -1.2038 -0.2803
  337MOL0     C44417   1.257   1.904   9.868  0.4316 -0.5539  0.4066
  337MOL0     C44418   1.374   1.834   9.845 -0.8628  0.2331  0.0376
  337MOL0     H44419   1.833   1.765   9.760 -1.8356  0.0887 -1.1258
  337MOL0     H44420   2.042   1.646   9.720 -0.3055 -0.4096 -0.6474
  337MOL0     H44421   2.216   1.485   9.764 -0.3079  3.4149  0.2361
  337MOL0     H44422   2.189   1.547   9.599  0.6132  1.4642  3.1840
  337MOL0     H44423   2.286   1.321   9.524  1.2641 -1.9123  1.2754
  337MOL0     H44424   2.338   1.305   9.692  0.4956 -1.8856 -1.9205
  337MOL0     H44425   2.440   1.532   9.693 -1.9892 -0.0444 -0.0658
  337MOL0     H44426   2.392   1.564   9.530  1.3656  1.2312  0.2522
  337MOL0     H44427   2.603   1.508   9.539  2.4054 -0.2603  0.1076
  337MOL0     H44428   2.598   1.354   9.632  3.1095  2.5013  0.3438
  337MOL0     H44429   2.489   1.393   9.356  1.0871 -1.1443 -2.0971
  337MOL0     H44430   2.507   1.237   9.443  0.6422 -0.2183  0.3377
  337MOL0     H44431   2.746   1.415   9.400  0.0762  0.9788 -2.0605
  337MOL0     H44432   2.694   1.295   9.274  0.8980  0.1071  0.7971
  337MOL0     H44433   2.775   1.225   9.558  3.0135 -1.6071  0.5760
  337MOL0     H44434   2.693   1.118   9.454 -3.9150  2.1942 -0.3070
  337MOL0     H44435   2.945   1.077   9.444 -0.9893  1.5413  1.1445
  337MOL0     H44436   2.964   1.241   9.390  1.2310  0.6257  1.3683
  337MOL0     H44437   2.673   1.067   9.185  0.1403 -1.4448 -1.1123
  337MOL0     H44438   2.643   0.956   8.967 -0.9318 -2.9687 -0.6104
  337MOL0     H44439   2.771   0.852   8.919  1.7243  0.2676 -0.3933
  337MOL0     H44440   2.772   1.146   8.832  0.0241  0.9562 -1.0763
  337MOL0     H44441   2.701   1.024   8.738 -0.6185  0.0215  0.9270
  337MOL0     H44442   2.918   1.090   8.651  1.5220 -0.8937 -0.5596
  337MOL0     H44443   2.981   1.062   8.809  0.0341  1.3718 -0.7891
  337MOL0     H44444   2.840   0.827   8.686  0.0360 -0.8499  0.3427
  337MOL0     H44445   2.982   0.843   8.812  1.4174  3.3711  0.4288
  337MOL0     H44446   2.972   0.629   8.731 -1.0313 -3.7052 -1.1042
  337MOL0     H44447   3.084   0.428   8.709  0.5246 -1.6507 -3.3588
  337MOL0     H44448   3.575   0.248   8.555  3.4685 -0.3267  0.1325
  337MOL0     H44449   3.710   0.063   8.503 -1.5905  0.4562  3.0377
  337MOL0     H44450   3.775  -0.118   8.155 -0.1780  1.8390  2.9951
  337MOL0     H44451   3.601  -0.128   8.107  1.0620 -0.4638 -1.2691
  337MOL0     H44452   3.748  -0.349   8.246  2.3131  1.4795 -0.6797
  337MOL0     H44453   3.778  -0.315   8.080  0.9205 -3.3266  0.9493
  337MOL0     H44454   3.643  -0.483   8.043 -2.3916 -0.8072 -2.5912
  337MOL0     H44455   3.549  -0.345   8.001 -0.9423 -0.3902 -0.2468
  337MOL0     H44456   3.520  -0.439   8.282  0.7743 -2.2665 -0.3084
  337MOL0     H44457   3.403  -0.356   8.178  2.1335  1.8769 -0.2030
  337MOL0     H44458   3.482  -0.640   8.135 -0.9968  0.0875  0.2401
  337MOL0     H44459   3.359  -0.558   8.042 -1.3717 -2.0678  1.3172
  337MOL0     H44460   3.222  -0.505   8.221  0.2538  0.0356 -0.8325
  337MOL0     H44461   3.325  -0.578   8.337 -1.0336 -2.4967  0.5302
  337MOL0     H44462   3.296  -0.813   8.214  1.6138  0.2624  2.6742
  337MOL0     H44463   3.159  -0.754   8.303  0.7266 -2.9299 -0.7140
  337MOL0     H44464   3.203  -0.741   8.005  1.9847  1.7954  1.4518
  337MOL0     H44465   3.072  -0.659   8.083  2.4457  0.6143 -1.1124
  337MOL0     H44466   3.423  -0.039   8.189  0.4993  0.3613 -0.3463
  337MOL0     H44467   3.325   0.178   8.211  0.0727 -2.8699  0.1365
  337MOL0     H44468   3.278   0.594   8.352  1.2833 -3.9259  0.3437
  337MOL0     H44469   3.182   0.803   8.405 -3.6259  1.0963  1.0245
  337MOL0     H44470   1.839   1.277   9.717 -0.7915  0.1664 -1.3142
  337MOL0     H44471   1.618   1.388   9.755 -0.5814 -0.0253 -1.8131
  337MOL0     H44472   1.299   1.709   9.540 -0.3663 -1.7019  0.5424
  337MOL0     H44473   1.068   1.802   9.608  1.3402 -1.5541 -1.5461
  337MOL0     H44474   0.877   1.852   9.757  0.5475 -0.5287 -1.4292
  337MOL0     H44475   0.918   1.984   9.654  0.9190  1.1142  0.6429
  337MOL0     H44476   0.841   2.142   9.839 -0.5995  1.2488 -1.0491
  337MOL0     H44477   0.725   2.039   9.752  0.1163 -2.5058  0.5961
  337MOL0     H44478   0.832   1.987  10.034 -0.6648  2.5923  0.3757
  337MOL0     H44479   0.748   1.861   9.938  2.9392  0.2038 -1.5348
  337MOL0     H44480   0.607   1.997  10.114 -1.9951  0.7904 -0.0074
  337MOL0     H44481   0.626   2.141  10.001 -0.2227 -0.6696 -3.4902
  337MOL0     H44482   0.357   1.903   9.783 -0.5434 -0.3365 -0.3813
  337MOL0     H44483   1.243   1.970   9.953 -0.4512 -0.8516  0.4983
  337MOL0     H44484   1.456   1.853   9.914 -1.7736 -0.0114  1.2432
  338MOL0     O44485   9.881   2.794   9.652  0.6277  0.2326 -0.3059
  338MOL0     C44486  10.007   2.801   9.639  0.7561  0.1678 -0.4230
  338MOL0     O44487  10.078   2.881   9.715  0.2531  0.4245 -0.2357
  338MOL0     C44488  10.044   3.013   9.762  0.2106 -0.2373  0.4502
  338MOL0     C44489   9.943   3.094   9.707 -0.2928  0.5437 -0.3108
  338MOL0     C44490   9.928   3.226   9.763 -0.0881  0.4597 -0.3596
  338MOL0     C44491  10.008   3.264   9.881  0.3173  0.6358  0.1838
  338MOL0     O44492   9.978   3.385   9.930 -0.1000 -1.1313 -0.2217
  338MOL0     C44493  10.093   3.464   9.975  0.7911  0.4485  0.5813
  338MOL0     C44494  10.053   3.605  10.004 -0.9276 -0.6988 -0.7068
  338MOL0     C44495  10.065   3.688   9.877  0.4411  0.4309  0.2430
  338MOL0     C44496  10.069   3.830   9.905 -0.4184 -0.1455  0.5492
  338MOL0     C44497  10.064   3.920   9.773  0.6831  0.9168  0.1603
  338MOL0     C44498  10.200   3.911   9.690 -0.1603 -0.4233  0.6183
  338MOL0     C44499  10.209   4.041   9.614 -0.1038 -0.2836  0.5543
  338MOL0     C44500  10.343   4.084   9.559 -0.4396 -0.1644  1.0894
  338MOL0     N44501  10.404   3.969   9.479  0.9382 -0.0051 -1.2110
  338MOL0     C44502  10.433   3.994   9.347  0.4028  0.9018  0.4954
  338MOL0     C44503  10.523   3.900   9.312 -0.0779  0.1971 -0.1191
  338MOL0     C44504  10.576   3.876   9.175 -0.9930 -0.2022 -0.5707
  338MOL0     C44505  10.713   3.951   9.157 -0.1975  0.3495 -0.6355
  338MOL0     C44506  10.746   3.955   9.012  0.4009  0.4871 -0.2622
  338MOL0     C44507  10.886   4.005   8.994 -0.5156 -0.0570 -0.1703
  338MOL0     O44508  10.914   4.020   8.848  0.4407  0.4966  0.0053
  338MOL0     C44509  11.042   4.034   8.802 -0.2200 -0.3550 -1.4545
  338MOL0     C44510  11.081   3.952   8.698  0.5117  0.4489  0.5005
  338MOL0     C44511  11.209   3.955   8.642 -0.1033  0.7719  0.0094
  338MOL0     C44512  11.311   4.035   8.705  0.2078  0.8461  0.0114
  338MOL0     C44513  11.449   4.042   8.659  0.1099 -0.7382  0.2309
  338MOL0     O44514  11.530   4.139   8.729  0.4079  0.3550 -0.6264
  338MOL0     C44515  11.656   4.181   8.693  0.3355  0.2477  0.7640
  338MOL0     C44516  11.738   4.095   8.626  0.2503 -0.5703 -0.1334
  338MOL0     C44517  11.871   4.129   8.602  0.7952  0.7239 -0.3072
  338MOL0     C44518  11.916   4.256   8.655  0.0868 -0.8989 -0.0304
  338MOL0     O44519  12.036   4.311   8.619 -0.4759 -0.0991  0.4849
  338MOL0     C44520  12.153   4.227   8.620  0.4602  0.2234  0.1662
  338MOL0     C44521  12.206   4.223   8.479  0.0376  0.5525  0.5712
  338MOL0     C44522  12.359   4.197   8.480  1.0969  0.0498  0.3729
  338MOL0     C44523  12.398   4.057   8.514  0.1435 -0.6530  0.6497
  338MOL0     C44524  12.551   4.036   8.541  1.1178  0.6510 -0.0966
  338MOL0     C44525  12.597   3.895   8.524 -0.2097  0.1952  0.6989
  338MOL0     C44526  12.575   3.826   8.393 -0.9125  0.3153 -0.1658
  338MOL0     C44527  12.594   3.913   8.271  0.8685  0.5243  0.3470
  338MOL0    Cl44528  12.770   3.979   8.267 -0.2347  0.2312 -0.1059
  338MOL0     C44529  11.839   4.334   8.730 -0.3295 -0.1088 -0.4169
  338MOL0     C44530  11.707   4.301   8.742 -0.4495 -0.2815  0.4407
  338MOL0     O44531  11.479   3.975   8.557  0.1492 -0.3185  0.3382
  338MOL0     C44532  11.264   4.108   8.824  0.0326  1.2935  0.0469
  338MOL0     C44533  11.138   4.106   8.875  0.0019  0.0212 -0.2200
  338MOL0     N44534  10.563   3.824   9.427  0.1633 -0.1073  0.2406
  338MOL0     N44535  10.497   3.882   9.527  0.3318  0.3894 -0.1939
  338MOL0     C44536  10.107   3.179   9.937  0.4094  0.2809  0.0533
  338MOL0     C44537  10.130   3.055   9.869 -0.0447 -0.8865 -0.0942
  338MOL0     C44538  10.061   2.712   9.544 -0.0949 -0.2466  1.2735
  338MOL0     C44539   9.979   2.645   9.451  0.9460  0.8554  1.1394
  338MOL0     C44540  10.039   2.576   9.339  0.0505  0.1512  0.3331
  338MOL0     C44541  10.178   2.553   9.340  0.8034 -0.6085  0.5881
  338MOL0     O44542  10.225   2.458   9.247 -0.3360 -0.2543 -0.4405
  338MOL0     C44543  10.361   2.420   9.235  1.0266  0.1345  0.4210
  338MOL0     C44544  10.443   2.535   9.184  0.2532 -1.1088 -0.0752
  338MOL0     C44545  10.579   2.540   9.249  0.2308  0.5399 -0.5500
  338MOL0     C44546  10.674   2.645   9.184 -0.9909  0.1021 -0.0071
  338MOL0     C44547  10.779   2.682   9.278 -0.7610  0.0375 -0.1653
  338MOL0     C44548  10.853   2.702   9.369  0.1024 -1.0369  0.0642
  338MOL0     C44549  10.251   2.610   9.437  0.0383 -0.2373  0.0799
  338MOL0     C44550  10.200   2.690   9.546 -0.0278 -0.0975  1.3741
  338MOL0     H44551   9.878   3.045   9.636  0.3425 -1.5585  0.4921
  338MOL0     H44552   9.861   3.300   9.721 -0.5327  0.4141  0.2542
  338MOL0     H44553  10.174   3.458   9.903 -0.9653  0.1795 -1.4803
  338MOL0     H44554  10.132   3.415  10.065  1.4084 -1.3842 -0.6286
  338MOL0     H44555  10.113   3.658  10.079 -2.4396  0.2825 -0.1665
  338MOL0     H44556   9.957   3.608  10.056 -0.1673 -2.1424  0.8822
  338MOL0     H44557   9.981   3.657   9.813  1.3109 -0.0787 -0.6830
  338MOL0     H44558  10.150   3.660   9.814 -1.0007 -2.8215 -0.4649
  338MOL0     H44559   9.983   3.852   9.969 -0.3096  2.8405 -0.1624
  338MOL0     H44560  10.154   3.856   9.969 -1.2777 -1.9283  2.5212
  338MOL0     H44561  10.040   4.023   9.803 -4.8568 -0.5319  1.9470
  338MOL0     H44562   9.975   3.889   9.717  1.1348  1.5893 -0.9481
  338MOL0     H44563  10.196   3.836   9.611  1.8909  1.9275 -1.9564
  338MOL0     H44564  10.287   3.887   9.753  0.2146  0.2864  0.3820
  338MOL0     H44565  10.138   4.031   9.532 -0.3642 -0.1872  0.7671
  338MOL0     H44566  10.162   4.118   9.675 -1.1606  1.1896 -1.9943
  338MOL0     H44567  10.415   4.102   9.640  0.0849 -0.4925  0.7028
  338MOL0     H44568  10.327   4.173   9.499  1.2197  0.2271  1.1712
  338MOL0     H44569  10.404   4.078   9.285 -2.4594  0.9582  1.7080
  338MOL0     H44570  10.503   3.920   9.106 -4.1508 -3.7672  0.1440
  338MOL0     H44571  10.579   3.769   9.151 -1.0817 -0.3297 -0.0307
  338MOL0     H44572  10.786   3.896   9.217 -2.8457 -0.8760  1.6867
  338MOL0     H44573  10.722   4.044   9.213  0.1827 -1.0057  1.7168
  338MOL0     H44574  10.724   3.858   8.967  0.7802 -2.0681  4.4757
  338MOL0     H44575  10.686   4.034   8.964 -2.5579 -1.6676 -0.3374
  338MOL0     H44576  10.951   3.928   9.035  0.4389  0.4250 -0.7564
  338MOL0     H44577  10.902   4.100   9.047 -2.6038 -1.3281  3.1105
  338MOL0     H44578  10.994   3.896   8.665  0.0948  2.7927 -2.9265
  338MOL0     H44579  11.236   3.892   8.558 -0.1280  0.1949  0.4307
  338MOL0     H44580  11.710   3.997   8.589 -0.1630  0.2588 -2.1890
  338MOL0     H44581  11.935   4.061   8.547 -3.8619 -5.0420  0.4025
  338MOL0     H44582  12.116   4.128   8.647 -0.4489  0.0862 -1.4352
  338MOL0     H44583  12.229   4.265   8.689  1.4344 -1.0698 -0.1560
  338MOL0     H44584  12.185   4.307   8.413  0.9693  2.4898  2.6162
  338MOL0     H44585  12.173   4.130   8.432  0.4210  1.3443 -1.3845
  338MOL0     H44586  12.413   4.248   8.560  0.5455 -2.0423  2.2075
  338MOL0     H44587  12.406   4.226   8.386  2.3349  0.1924  1.0138
  338MOL0     H44588  12.345   4.022   8.603 -1.2928  1.4248  0.6695
  338MOL0     H44589  12.366   3.991   8.432  0.3191  0.4318 -0.3144
  338MOL0     H44590  12.576   4.062   8.644  1.6488 -0.4749  0.0710
  338MOL0     H44591  12.604   4.103   8.472  1.0187 -0.0706 -0.9003
  338MOL0     H44592  12.553   3.838   8.606  1.5329 -3.5917 -0.7700
  338MOL0     H44593  12.704   3.892   8.546  0.3158  1.4000 -1.3871
  338MOL0     H44594  12.652   3.749   8.396  1.6672  2.5664 -2.9738
  338MOL0     H44595  12.473   3.786   8.402 -0.8466  0.4612  1.8569
  338MOL0     H44596  12.521   3.994   8.278 -2.7912 -2.4506 -0.5946
  338MOL0     H44597  12.584   3.857   8.178  3.5669  0.7738 -0.1749
  338MOL0     H44598  11.893   4.425   8.754  2.5544 -1.5154 -1.0788
  338MOL0     H44599  11.645   4.376   8.788 -0.0330  2.1844 -2.6441
  338MOL0     H44600  11.327   4.179   8.877 -2.1806  4.0884 -0.8156
  338MOL0     H44601  11.119   4.148   8.973  2.5920 -2.0763  1.3340
  338MOL0     H44602  10.160   3.208  10.027  0.4534  1.4414 -0.3304
  338MOL0     H44603  10.202   2.989   9.917  0.4131 -0.8723 -0.7322
  338MOL0     H44604   9.873   2.662   9.467  0.6989  3.8272 -2.2494
  338MOL0     H44605   9.968   2.520   9.278 -1.6394  1.2362  1.2295
  338MOL0     H44606  10.384   2.337   9.168  1.6495  0.9283 -0.3910
  338MOL0     H44607  10.385   2.394   9.338  2.7864 -1.2434 -0.2851
  338MOL0     H44608  10.452   2.544   9.075 -0.6770 -0.0037 -0.0792
  338MOL0     H44609  10.393   2.628   9.212  0.3578 -1.5695  1.7600
  338MOL0     H44610  10.614   2.437   9.251 -1.8557 -0.2221  1.3275
  338MOL0     H44611  10.557   2.549   9.356 -3.1524 -2.2022 -0.8549
  338MOL0     H44612  10.730   2.609   9.097  0.5019  2.9523 -0.3461
  338MOL0     H44613  10.602   2.725   9.164 -0.4106  0.4189 -0.9262
  338MOL0     H44614  10.917   2.722   9.453  0.3423 -0.4119 -0.2550
  338MOL0     H44615  10.359   2.597   9.440  0.4788  2.8151  2.5835
  338MOL0     H44616  10.257   2.743   9.621  0.4405  1.9500 -0.3047
  339MOL0     O44617   9.673   8.521   1.966 -0.3804  0.2312  0.6565
  339MOL0     C44618   9.667   8.443   2.064 -0.4371  0.4209 -1.3018
  339MOL0     O44619   9.547   8.385   2.108  0.1241  0.6775  0.1126
  339MOL0     C44620   9.434   8.401   2.031 -0.6200 -0.0635  0.8065
  339MOL0     C44621   9.354   8.518   2.034  0.4359  0.9084 -1.2063
  339MOL0     C44622   9.246   8.522   1.939 -0.3649 -0.1333  0.5375
  339MOL0     C44623   9.207   8.414   1.862 -0.7439  0.5805  0.3464
  339MOL0     O44624   9.101   8.420   1.774  0.6418  0.2870  0.5025
  339MOL0     C44625   9.054   8.548   1.748 -0.2241  0.1968 -0.4028
  339MOL0     C44626   8.967   8.534   1.626 -0.4140  0.0543 -0.0603
  339MOL0     C44627   8.915   8.670   1.590  0.4417 -0.4167  0.2167
  339MOL0     C44628   8.796   8.668   1.499  0.7042 -1.3640 -0.2114
  339MOL0     C44629   8.753   8.800   1.436 -0.9251  0.5393 -0.1503
  339MOL0     C44630   8.646   8.776   1.346 -0.4931  0.8582  0.2691
  339MOL0     C44631   8.617   8.908   1.287  0.3970  0.2498  0.5757
  339MOL0     C44632   8.513   8.884   1.172 -0.6216 -0.1972  0.4307
  339MOL0     N44633   8.504   9.006   1.091 -0.2238  0.7056  0.3584
  339MOL0     C44634   8.602   9.049   1.003 -0.4281  0.1106 -0.8811
  339MOL0     C44635   8.559   9.178   0.971 -0.3342  0.2162 -0.8831
  339MOL0     C44636   8.641   9.261   0.872 -0.0861  0.8152 -0.3615
  339MOL0     C44637   8.590   9.252   0.731 -0.2271  0.6159  0.4515
  339MOL0     C44638   8.579   9.385   0.653  0.3700 -0.1544  0.3447
  339MOL0     C44639   8.709   9.442   0.610 -0.4067  0.9677  0.6729
  339MOL0     O44640   8.817   9.429   0.701 -0.4243  0.9983 -0.3953
  339MOL0     C44641   8.921   9.520   0.696  0.2454 -0.1322 -0.2670
  339MOL0     C44642   8.952   9.611   0.602 -0.2879 -0.4891  0.6492
  339MOL0     C44643   9.076   9.676   0.598  0.8866 -0.9054  0.0133
  339MOL0     C44644   9.170   9.656   0.707 -0.6733 -0.0209  0.4624
  339MOL0     C44645   9.294   9.739   0.716 -0.6023 -0.3314 -0.6353
  339MOL0     O44646   9.372   9.718   0.824  0.0050  0.0713  0.4744
  339MOL0     C44647   9.502   9.779   0.827 -0.1498 -0.4935  0.1593
  339MOL0     C44648   9.529   9.922   0.845  0.5596  0.0318  0.3045
  339MOL0     C44649   9.653   9.974   0.863  0.0529  0.7464  0.5001
  339MOL0     C44650   9.765   9.894   0.852  0.6003  1.4208  0.6358
  339MOL0     O44651   9.892   9.939   0.850  0.8296  0.3016 -0.5601
  339MOL0     C44652   9.939   9.968   0.714 -0.5903  0.3986 -0.5553
  339MOL0     C44653  10.060  10.054   0.698 -0.5213  0.7066 -0.3595
  339MOL0     C44654  10.043  10.197   0.739 -0.2170 -0.1185  0.0360
  339MOL0     C44655   9.934  10.277   0.677 -0.9542 -0.7253 -0.0804
  339MOL0     C44656   9.967  10.427   0.710 -0.0897 -0.3089 -0.3160
  339MOL0     C44657   9.853  10.516   0.675  0.1311 -1.1002 -0.3421
  339MOL0     C44658   9.866  10.670   0.660  0.2137 -0.5098  0.6294
  339MOL0     C44659   9.895  10.718   0.513 -0.0892 -0.3245  0.5364
  339MOL0    Cl44660   9.936  10.896   0.500  0.0017 -0.2672 -0.3986
  339MOL0     C44661   9.740   9.753   0.832  0.9270 -0.9197 -0.6143
  339MOL0     C44662   9.614   9.696   0.806  0.4091  0.2889 -0.2781
  339MOL0     O44663   9.324   9.819   0.628 -0.1583 -0.3699  1.1808
  339MOL0     C44664   9.133   9.562   0.805  0.8184  0.2372  1.3481
  339MOL0     C44665   9.008   9.496   0.800 -0.5726  0.4860 -0.0417
  339MOL0     N44666   8.451   9.212   1.043  0.7926  0.6049 -0.7537
  339MOL0     N44667   8.415   9.109   1.117  0.2326  0.4988  0.2807
  339MOL0     C44668   9.294   8.302   1.862  0.1933 -0.6426  0.7265
  339MOL0     C44669   9.407   8.294   1.942 -0.1597  1.3685 -0.5436
  339MOL0     C44670   9.786   8.410   2.158  0.8678 -0.2334 -0.7439
  339MOL0     C44671   9.752   8.373   2.290 -0.8956  0.2075 -0.1342
  339MOL0     C44672   9.857   8.345   2.381 -0.2029 -0.1483 -0.0781
  339MOL0     C44673   9.990   8.361   2.350  0.0669 -0.2836 -0.1022
  339MOL0     O44674  10.089   8.338   2.445 -0.2954  1.0290  0.6576
  339MOL0     C44675  10.074   8.229   2.534  0.4753 -0.3008 -0.1335
  339MOL0     C44676  10.206   8.203   2.601 -0.3493 -0.8338  0.5000
  339MOL0     C44677  10.186   8.121   2.729 -0.0824 -0.5437  0.0990
  339MOL0     C44678  10.239   8.184   2.856 -0.0215 -1.0038 -0.3149
  339MOL0     C44679  10.387   8.167   2.875 -0.2968  0.4659 -0.7876
  339MOL0     C44680  10.506   8.144   2.877 -0.1167 -0.2310  0.6154
  339MOL0     C44681  10.028   8.408   2.228 -0.3848 -0.1702 -0.7708
  339MOL0     C44682   9.923   8.436   2.135 -0.2148 -0.1225  0.3676
  339MOL0     H44683   9.381   8.606   2.091 -0.9152 -1.1017  2.9233
  339MOL0     H44684   9.197   8.618   1.948 -0.1951 -0.0110  0.2050
  339MOL0     H44685   9.133   8.623   1.737 -2.3427  2.8173  0.9783
  339MOL0     H44686   9.001   8.585   1.836  0.5036 -0.1470  0.1905
  339MOL0     H44687   8.878   8.480   1.657  0.0786  1.0500  3.5278
  339MOL0     H44688   9.018   8.484   1.543  1.7638 -0.1559  1.3379
  339MOL0     H44689   8.991   8.726   1.535  0.8374 -4.5664 -4.0983
  339MOL0     H44690   8.878   8.726   1.676  0.6611  0.2429 -0.1183
  339MOL0     H44691   8.823   8.597   1.420 -1.0130 -2.6543  0.3140
  339MOL0     H44692   8.708   8.623   1.545 -0.7025  1.3098 -0.0729
  339MOL0     H44693   8.843   8.847   1.397  0.2080  1.3853  3.1671
  339MOL0     H44694   8.713   8.856   1.521 -0.6969  1.3067 -0.5446
  339MOL0     H44695   8.563   8.731   1.401 -0.4940  1.3414  0.6690
  339MOL0     H44696   8.681   8.707   1.269 -1.7845 -0.1968  0.5905
  339MOL0     H44697   8.572   8.970   1.366 -0.6295 -1.5091  1.4287
  339MOL0     H44698   8.709   8.951   1.248  1.2371 -0.8861  1.2469
  339MOL0     H44699   8.423   8.864   1.232 -0.0661  2.0260  2.1436
  339MOL0     H44700   8.533   8.802   1.102  0.2472  0.5535 -0.2193
  339MOL0     H44701   8.690   8.991   0.976  0.3989  0.8461  0.1952
  339MOL0     H44702   8.748   9.242   0.885 -0.2974 -0.4009 -0.2223
  339MOL0     H44703   8.631   9.367   0.896 -0.3846  0.9968 -1.2307
  339MOL0     H44704   8.490   9.209   0.728 -0.2195  0.4367 -4.3871
  339MOL0     H44705   8.648   9.173   0.682 -4.3278 -1.8196 -0.9535
  339MOL0     H44706   8.516   9.362   0.566 -1.6739  1.8373  1.2234
  339MOL0     H44707   8.523   9.453   0.717  2.1486 -2.6062  4.9898
  339MOL0     H44708   8.703   9.544   0.570  0.1531  0.5310 -0.5743
  339MOL0     H44709   8.740   9.389   0.519 -0.5048  0.7239  0.7835
  339MOL0     H44710   8.877   9.633   0.527 -1.8574 -1.0235  2.0110
  339MOL0     H44711   9.102   9.751   0.524  2.0768  0.4277  1.6999
  339MOL0     H44712   9.441   9.985   0.841 -0.1466 -0.9770 -2.8556
  339MOL0     H44713   9.643  10.082   0.870  0.4387  0.8460 -0.3550
  339MOL0     H44714   9.858   9.997   0.647  0.2192  0.0180 -1.7216
  339MOL0     H44715   9.975   9.869   0.686 -3.5774 -0.1098 -3.1868
  339MOL0     H44716  10.088  10.053   0.592 -0.4381  0.1701 -0.3333
  339MOL0     H44717  10.138  10.010   0.761  0.6630  4.5108  1.1111
  339MOL0     H44718  10.144  10.236   0.727  0.7020 -2.3332  0.1535
  339MOL0     H44719  10.022  10.188   0.847 -0.7210 -1.1014 -0.1303
  339MOL0     H44720   9.926  10.260   0.569 -0.0455  0.9954 -0.4589
  339MOL0     H44721   9.839  10.253   0.724 -1.3658 -2.0716 -1.5066
  339MOL0     H44722  10.055  10.459   0.653 -0.2877  0.8326 -0.0036
  339MOL0     H44723   9.978  10.436   0.818 -1.5336  1.0226 -0.2507
  339MOL0     H44724   9.777  10.491   0.749 -0.9422  3.6772  0.4621
  339MOL0     H44725   9.814  10.492   0.576  1.9388 -0.7568 -1.1966
  339MOL0     H44726   9.770  10.719   0.680 -0.0993 -1.7532  2.4362
  339MOL0     H44727   9.942  10.705   0.731  1.1466 -1.0496 -0.0808
  339MOL0     H44728   9.805  10.704   0.452 -0.5745  2.1887  0.5295
  339MOL0     H44729   9.977  10.664   0.465  0.9393  1.6687 -0.1021
  339MOL0     H44730   9.829   9.692   0.819  2.8092  1.5016  0.1281
  339MOL0     H44731   9.603   9.589   0.799 -0.6047  0.4059 -0.6334
  339MOL0     H44732   9.200   9.535   0.886  2.7833 -1.0203 -0.5669
  339MOL0     H44733   8.983   9.415   0.868  2.5914  0.3920  1.2030
  339MOL0     H44734   9.265   8.222   1.795  0.3470  0.5794 -0.8550
  339MOL0     H44735   9.472   8.207   1.936 -2.6341 -0.5447 -1.0151
  339MOL0     H44736   9.650   8.349   2.320  0.1525 -3.1510  1.2586
  339MOL0     H44737   9.831   8.308   2.480 -0.0022 -1.6405 -0.5591
  339MOL0     H44738  10.041   8.140   2.480  1.0718  0.0786 -1.1478
  339MOL0     H44739  10.007   8.251   2.618  1.7937 -2.2724  1.5508
  339MOL0     H44740  10.268   8.159   2.522 -0.8560  1.9508 -1.6237
  339MOL0     H44741  10.244   8.303   2.624 -0.6516  0.4823 -3.7717
  339MOL0     H44742  10.231   8.022   2.716  1.5792  0.1101  0.5529
  339MOL0     H44743  10.080   8.118   2.752  0.4671  0.1758  3.1089
  339MOL0     H44744  10.206   8.288   2.860  2.1034 -0.2866 -0.0385
  339MOL0     H44745  10.194   8.135   2.943 -2.7475  2.4289  0.4261
  339MOL0     H44746  10.605   8.109   2.901 -0.1956  0.8147  2.7032
  339MOL0     H44747  10.134   8.430   2.223 -0.0160 -1.5577  0.3600
  339MOL0     H44748   9.951   8.489   2.045 -1.7313 -1.7160 -1.0900
  340MOL0     O44749   6.817   0.985   0.784  0.0300  0.4644  0.8718
  340MOL0     C44750   6.773   0.971   0.899 -0.7738  0.3475  0.3707
  340MOL0     O44751   6.843   0.912   1.002 -0.0952 -0.1816  0.1596
  340MOL0     C44752   6.982   0.898   0.983  0.5497  0.6219 -0.4237
  340MOL0     C44753   7.067   1.006   1.017  0.6640  0.4376  0.0790
  340MOL0     C44754   7.198   0.996   0.987 -0.3602  0.3215 -0.9371
  340MOL0     C44755   7.254   0.872   0.956 -0.7796  0.0613 -0.0601
  340MOL0     O44756   7.395   0.865   0.944  0.4666  0.0941  0.5793
  340MOL0     C44757   7.453   0.772   0.848  0.3263 -0.0035 -0.0651
  340MOL0     C44758   7.596   0.818   0.816  0.6536  0.3055 -0.4869
  340MOL0     C44759   7.674   0.726   0.723 -0.3322 -0.1604 -1.1308
  340MOL0     C44760   7.732   0.614   0.800  0.7336  1.0686 -0.6032
  340MOL0     C44761   7.806   0.528   0.709 -0.0629  1.0226 -0.1076
  340MOL0     C44762   7.847   0.398   0.769  0.1394  1.0368  0.1507
  340MOL0     C44763   7.935   0.311   0.668  0.6543  0.0059  0.9584
  340MOL0     C44764   7.986   0.167   0.712 -0.7561 -0.0093  0.6914
  340MOL0     N44765   7.875   0.088   0.750 -0.6124 -0.0411  2.0062
  340MOL0     C44766   7.768   0.042   0.665 -0.3884 -0.0674 -0.2509
  340MOL0     C44767   7.689  -0.034   0.745  0.0278 -0.3982 -0.3795
  340MOL0     C44768   7.560  -0.091   0.711 -0.1324 -0.4282 -0.1028
  340MOL0     C44769   7.450  -0.044   0.806  0.4555  0.4635 -0.2155
  340MOL0     C44770   7.435   0.109   0.828  1.2656  0.5004 -0.1696
  340MOL0     C44771   7.447   0.163   0.966  0.9094 -0.2796  0.4349
  340MOL0     O44772   7.429   0.312   0.943  0.2019  0.0171  0.0018
  340MOL0     C44773   7.345   0.373   1.036 -0.3800  0.2973  0.2241
  340MOL0     C44774   7.389   0.489   1.100 -0.3494 -0.9216  0.3987
  340MOL0     C44775   7.299   0.557   1.191  0.8238 -0.4326  1.0253
  340MOL0     C44776   7.182   0.512   1.225 -0.4340  0.8006  1.0847
  340MOL0     C44777   7.093   0.586   1.328 -0.1002  0.7191 -0.9511
  340MOL0     O44778   6.962   0.583   1.308  0.7760  0.1874  0.1754
  340MOL0     C44779   6.876   0.633   1.406  0.3468 -0.5889 -0.2731
  340MOL0     C44780   6.852   0.570   1.523  0.5332 -0.2098 -0.2010
  340MOL0     C44781   6.756   0.618   1.616  0.4519 -0.6765  0.7140
  340MOL0     C44782   6.670   0.721   1.584  0.5926  0.1960 -0.5758
  340MOL0     O44783   6.563   0.761   1.664  0.6766  0.3504 -0.5873
  340MOL0     C44784   6.533   0.681   1.783  0.1288  0.5841  0.3797
  340MOL0     C44785   6.415   0.725   1.859 -0.6829 -0.0335 -0.1212
  340MOL0     C44786   6.396   0.636   1.988 -0.8473 -0.5951 -0.1156
  340MOL0     C44787   6.266   0.560   1.971 -0.6258 -0.0187  0.2951
  340MOL0     C44788   6.284   0.409   2.014 -0.1507 -0.3684  0.8978
  340MOL0     C44789   6.319   0.387   2.156 -0.5226 -0.8957 -0.9018
  340MOL0     C44790   6.347   0.247   2.211 -0.8309  0.1606  0.4234
  340MOL0     C44791   6.460   0.242   2.318  0.1482 -0.2168  0.2889
  340MOL0    Cl44792   6.616   0.290   2.257 -0.0562  0.2900  0.4731
  340MOL0     C44793   6.682   0.776   1.459  0.3219  0.2946 -0.2564
  340MOL0     C44794   6.788   0.739   1.377 -0.4728 -0.1790 -0.2413
  340MOL0     O44795   7.148   0.645   1.424  0.5034  0.3798 -0.1181
  340MOL0     C44796   7.131   0.397   1.161 -0.1094  0.8597 -0.4909
  340MOL0     C44797   7.205   0.331   1.055  0.0494  0.8678 -0.1826
  340MOL0     N44798   7.743  -0.028   0.876 -0.4310  0.4104  0.7103
  340MOL0     N44799   7.848   0.045   0.874 -0.3373  0.3286 -0.6230
  340MOL0     C44800   7.179   0.757   0.927 -0.0021 -0.3610 -0.3977
  340MOL0     C44801   7.042   0.776   0.940  0.8122 -0.6381  0.2328
  340MOL0     C44802   6.636   1.021   0.929 -0.9553 -0.1037  0.3578
  340MOL0     C44803   6.566   1.100   0.832 -0.1210 -0.5333  0.7182
  340MOL0     C44804   6.440   1.159   0.859 -0.1215  0.2953  0.4138
  340MOL0     C44805   6.380   1.138   0.981  0.7089 -0.8513 -0.1922
  340MOL0     O44806   6.263   1.210   1.011  0.2385  0.6116 -0.3685
  340MOL0     C44807   6.170   1.229   0.900  0.4721 -0.2875  1.2971
  340MOL0     C44808   6.019   1.265   0.956  0.0053  0.0775  0.4191
  340MOL0     C44809   6.001   1.395   1.022  0.3917 -1.8888 -0.3494
  340MOL0     C44810   5.889   1.481   0.957  0.3764 -0.3828 -0.0989
  340MOL0     C44811   5.754   1.425   0.982  0.1197  0.9396 -0.1847
  340MOL0     C44812   5.639   1.390   0.979 -0.0130 -0.2401  0.3383
  340MOL0     C44813   6.442   1.059   1.080  0.1089  0.4977  0.7545
  340MOL0     C44814   6.572   1.004   1.062 -1.4731 -0.1804  0.1320
  340MOL0     H44815   7.015   1.095   1.051 -0.3253 -0.0239 -0.1849
  340MOL0     H44816   7.257   1.087   0.990  1.1612 -0.3085 -5.1943
  340MOL0     H44817   7.391   0.791   0.760 -2.1090  2.0293  1.9267
  340MOL0     H44818   7.463   0.670   0.884 -1.8512 -1.2761 -2.6397
  340MOL0     H44819   7.651   0.849   0.905 -2.6221  2.4825  0.9791
  340MOL0     H44820   7.589   0.912   0.761 -2.3493 -0.4119 -1.5602
  340MOL0     H44821   7.761   0.775   0.681  1.4644 -2.4733 -0.3702
  340MOL0     H44822   7.615   0.698   0.635 -0.5316  0.1759 -1.1046
  340MOL0     H44823   7.799   0.637   0.883  1.1978  0.2230 -0.7343
  340MOL0     H44824   7.647   0.559   0.841  2.1486  0.2688  1.4264
  340MOL0     H44825   7.895   0.583   0.678 -1.4034  1.8815 -2.6895
  340MOL0     H44826   7.748   0.506   0.619 -1.1473  0.0321  0.7944
  340MOL0     H44827   7.755   0.339   0.781 -0.2993  1.6789  0.0536
  340MOL0     H44828   7.901   0.413   0.862 -0.7693  0.6393  0.7613
  340MOL0     H44829   7.883   0.299   0.573 -0.8588 -1.1855  1.8972
  340MOL0     H44830   8.020   0.377   0.645  2.9546 -2.4605  1.7993
  340MOL0     H44831   8.057   0.164   0.795 -1.3340 -1.4817  1.1665
  340MOL0     H44832   8.043   0.116   0.633 -1.8703  0.8316 -0.7024
  340MOL0     H44833   7.767   0.072   0.561 -0.3305  3.5120  0.6442
  340MOL0     H44834   7.565  -0.199   0.729 -3.1663 -0.5443  0.6457
  340MOL0     H44835   7.527  -0.076   0.608  0.5658 -1.3775 -0.4851
  340MOL0     H44836   7.471  -0.091   0.903  1.6413  3.2810  1.0025
  340MOL0     H44837   7.357  -0.093   0.777 -0.6834  2.4907 -0.1838
  340MOL0     H44838   7.499   0.153   0.752  1.6215 -0.3008 -0.3496
  340MOL0     H44839   7.334   0.133   0.794  1.1596 -0.8158 -0.8398
  340MOL0     H44840   7.542   0.129   1.007  0.5251  0.0989  1.6936
  340MOL0     H44841   7.366   0.127   1.030  1.5786  0.0246  1.4741
  340MOL0     H44842   7.486   0.532   1.075 -0.7692  1.6049  2.6214
  340MOL0     H44843   7.334   0.647   1.240  1.5700 -0.5094  0.6534
  340MOL0     H44844   6.899   0.477   1.554 -2.5669 -1.2658  1.7286
  340MOL0     H44845   6.744   0.566   1.711 -0.2878  0.7897  1.4523
  340MOL0     H44846   6.620   0.698   1.847  0.7417 -1.2915  0.1178
  340MOL0     H44847   6.530   0.576   1.752 -1.1797  0.3013  1.3706
  340MOL0     H44848   6.335   0.732   1.785 -0.3819 -0.1514 -0.4624
  340MOL0     H44849   6.431   0.827   1.894 -3.7693 -0.2206  2.2246
  340MOL0     H44850   6.381   0.697   2.077 -0.6706  1.6410 -1.5565
  340MOL0     H44851   6.483   0.570   1.999  0.3282  0.2401 -3.3238
  340MOL0     H44852   6.184   0.596   2.033 -0.4159 -2.1366  1.9141
  340MOL0     H44853   6.231   0.552   1.868 -1.1963  0.4140  0.4531
  340MOL0     H44854   6.352   0.358   1.945 -0.7851  0.3462 -0.2874
  340MOL0     H44855   6.185   0.364   2.006 -1.5045  2.2651  1.7777
  340MOL0     H44856   6.240   0.424   2.222  0.0829 -0.2789 -0.5216
  340MOL0     H44857   6.415   0.436   2.170  0.0460 -2.0262 -0.7024
  340MOL0     H44858   6.258   0.201   2.254  0.2178 -1.2345  1.1898
  340MOL0     H44859   6.372   0.187   2.123 -2.1899  0.0093  0.1103
  340MOL0     H44860   6.469   0.145   2.368  0.3273  0.5499  1.7912
  340MOL0     H44861   6.441   0.308   2.402 -0.4853 -0.1141  0.0751
  340MOL0     H44862   6.608   0.851   1.435 -0.1986 -0.5620 -1.4736
  340MOL0     H44863   6.812   0.789   1.283 -0.0168 -1.7776 -0.9986
  340MOL0     H44864   7.036   0.361   1.200 -0.1853 -0.8395 -2.0592
  340MOL0     H44865   7.162   0.243   1.009 -4.0574  2.4762  0.1586
  340MOL0     H44866   7.217   0.663   0.889 -1.5580 -1.4594  0.6705
  340MOL0     H44867   6.967   0.698   0.928 -3.9808  3.6622 -1.6668
  340MOL0     H44868   6.620   1.136   0.745 -1.6821 -0.9639 -0.4757
  340MOL0     H44869   6.406   1.219   0.775 -1.4733 -1.7362 -0.5971
  340MOL0     H44870   6.172   1.138   0.839  0.2357  1.9248 -2.2966
  340MOL0     H44871   6.190   1.317   0.839 -4.9133  1.9667  2.1959
  340MOL0     H44872   5.953   1.255   0.869  0.8857 -2.1158 -0.0623
  340MOL0     H44873   5.989   1.190   1.030  0.4551 -0.3577  0.1730
  340MOL0     H44874   6.088   1.461   1.018 -2.1852  1.9371  0.7258
  340MOL0     H44875   5.989   1.393   1.131  1.9179 -1.0824 -0.1413
  340MOL0     H44876   5.878   1.581   0.998 -3.0453 -0.4844 -0.4824
  340MOL0     H44877   5.908   1.488   0.849 -2.3329 -2.6343 -0.8504
  340MOL0     H44878   5.535   1.367   0.973  0.2264 -1.0206 -2.9913
  340MOL0     H44879   6.387   1.051   1.173 -0.3306  1.1439  0.5526
  340MOL0     H44880   6.612   0.945   1.145  0.2662  1.6192  0.6634
  341MOL0     O44881   4.012   9.383   4.747 -0.3253 -0.5738 -1.1315
  341MOL0     C44882   4.030   9.401   4.628  0.3455 -0.3780  0.2096
  341MOL0     O44883   3.936   9.454   4.547  0.6766 -0.0558 -0.2644
  341MOL0     C44884   3.804   9.477   4.590  0.2724  0.3655 -0.3318
  341MOL0     C44885   3.700   9.405   4.533  0.1029 -0.7798 -0.8287
  341MOL0     C44886   3.569   9.433   4.567  1.4142 -0.8328 -0.6488
  341MOL0     C44887   3.531   9.538   4.658 -0.2567 -0.3685  0.2278
  341MOL0     O44888   3.390   9.565   4.674 -0.3453  0.4040 -0.3713
  341MOL0     C44889   3.339   9.608   4.798  0.5291 -0.5081 -0.1028
  341MOL0     C44890   3.352   9.502   4.906  0.0020 -0.0428 -0.0286
  341MOL0     C44891   3.279   9.550   5.031 -1.1049  0.5765 -1.1397
  341MOL0     C44892   3.345   9.495   5.163  0.1869  0.9321  0.1128
  341MOL0     C44893   3.266   9.541   5.285  0.1873  0.0277 -1.3090
  341MOL0     C44894   3.369   9.555   5.397  0.4302 -0.0816  0.1734
  341MOL0     C44895   3.308   9.572   5.532 -0.3686 -0.2542 -0.4799
  341MOL0     C44896   3.406   9.606   5.644  0.5773 -0.9723 -0.3611
  341MOL0     N44897   3.490   9.503   5.706 -0.2597  0.0619  0.1265
  341MOL0     C44898   3.558   9.403   5.637 -0.3956 -0.2171 -0.1584
  341MOL0     C44899   3.615   9.333   5.739  0.3115  0.4061  0.2767
  341MOL0     C44900   3.700   9.216   5.710 -0.7251  0.1399  0.4225
  341MOL0     C44901   3.843   9.223   5.760 -0.9585  0.7358 -0.5742
  341MOL0     C44902   3.940   9.138   5.674  0.4577 -0.1933 -0.0950
  341MOL0     C44903   3.982   9.216   5.550 -0.8053 -0.2918 -0.0440
  341MOL0     O44904   4.097   9.301   5.576  0.2735 -0.4213 -0.5333
  341MOL0     C44905   4.220   9.252   5.544 -0.3561  0.1482 -0.1467
  341MOL0     C44906   4.249   9.114   5.534  0.8756  0.2255  0.0211
  341MOL0     C44907   4.375   9.061   5.498 -0.7582 -0.2394 -0.5195
  341MOL0     C44908   4.487   9.152   5.502  1.0817  0.4084  0.0121
  341MOL0     C44909   4.629   9.105   5.489  0.8746  1.0627 -0.2134
  341MOL0     O44910   4.724   9.184   5.446  0.6832 -0.4792 -0.4829
  341MOL0     C44911   4.858   9.156   5.463 -0.2146 -0.0960 -0.1093
  341MOL0     C44912   4.944   9.108   5.364  1.0227 -0.4104  0.0263
  341MOL0     C44913   5.078   9.075   5.388  0.8318  0.3264 -0.4354
  341MOL0     C44914   5.129   9.081   5.516 -0.5331 -0.5356 -0.0697
  341MOL0     O44915   5.256   9.045   5.538 -0.9382 -0.0117  0.1582
  341MOL0     C44916   5.339   9.107   5.646  1.4435  0.3045 -0.3439
  341MOL0     C44917   5.492   9.088   5.635 -0.7810  0.1205  0.5738
  341MOL0     C44918   5.573   9.135   5.754  0.3432 -0.6870 -0.8484
  341MOL0     C44919   5.606   9.285   5.738  1.0243  0.3382  0.2939
  341MOL0     C44920   5.693   9.329   5.848  0.5330 -0.0782 -0.2123
  341MOL0     C44921   5.741   9.473   5.820 -0.0235  0.7509 -0.1855
  341MOL0     C44922   5.632   9.581   5.809 -0.7174  0.5408  0.0170
  341MOL0     C44923   5.710   9.714   5.781  0.6055  1.0672 -0.5620
  341MOL0    Cl44924   5.628   9.850   5.840 -0.0522  0.2372  0.0954
  341MOL0     C44925   5.046   9.132   5.615 -0.8396  1.5183 -0.0989
  341MOL0     C44926   4.915   9.181   5.590 -0.6420 -0.4010 -0.0079
  341MOL0     O44927   4.640   8.988   5.522  0.1533  0.0680  0.1663
  341MOL0     C44928   4.454   9.285   5.512  0.1033 -0.8101  0.2770
  341MOL0     C44929   4.325   9.337   5.529  0.2967  0.4628 -0.1220
  341MOL0     N44930   3.587   9.393   5.863  0.5016  0.4528  1.1437
  341MOL0     N44931   3.506   9.490   5.848  0.4017 -0.5485 -0.1357
  341MOL0     C44932   3.645   9.600   4.721 -0.5861  1.2373 -0.2815
  341MOL0     C44933   3.776   9.580   4.683  0.2246  0.1461  1.4100
  341MOL0     C44934   4.162   9.360   4.584 -0.5725 -0.7442 -0.1659
  341MOL0     C44935   4.250   9.279   4.666  1.1963 -0.7912  0.2616
  341MOL0     C44936   4.368   9.231   4.622  0.4053  0.2123 -0.2089
  341MOL0     C44937   4.421   9.268   4.503  0.3567  1.1976 -0.1242
  341MOL0     O44938   4.551   9.253   4.464  0.7525 -0.5403  0.4885
  341MOL0     C44939   4.634   9.177   4.552 -0.6813  0.0294  0.5558
  341MOL0     C44940   4.778   9.153   4.506 -0.5181 -0.1093  0.3020
  341MOL0     C44941   4.863   9.290   4.491 -0.3310 -0.3781 -0.5868
  341MOL0     C44942   4.914   9.333   4.631  0.0760  0.3281  0.0454
  341MOL0     C44943   5.011   9.440   4.623  0.0950  0.6316  0.5651
  341MOL0     C44944   5.093   9.533   4.620  0.4637  0.2988  0.0031
  341MOL0     C44945   4.341   9.338   4.419 -0.0403  1.4137  1.1084
  341MOL0     C44946   4.210   9.381   4.459 -0.7208 -0.2736 -0.0406
  341MOL0     H44947   3.711   9.331   4.454  1.6975 -2.4392  0.8357
  341MOL0     H44948   3.490   9.370   4.528  0.2972 -1.0299  1.7012
  341MOL0     H44949   3.235   9.642   4.789  1.3617  1.8493 -2.0233
  341MOL0     H44950   3.395   9.696   4.832 -0.1999  0.2582 -0.8443
  341MOL0     H44951   3.453   9.478   4.940 -1.3886 -1.5351  3.5029
  341MOL0     H44952   3.304   9.416   4.859 -0.3015  2.1994 -4.4250
  341MOL0     H44953   3.179   9.505   5.024 -1.1622  0.3415  0.6780
  341MOL0     H44954   3.285   9.659   5.035  2.7868  0.5159  3.6142
  341MOL0     H44955   3.354   9.386   5.164  3.0077  1.0923 -0.3912
  341MOL0     H44956   3.450   9.525   5.161  0.6810 -0.6781 -0.5066
  341MOL0     H44957   3.196   9.463   5.316 -0.5368  1.1713  0.0497
  341MOL0     H44958   3.210   9.634   5.276 -1.0811 -0.3753  1.4201
  341MOL0     H44959   3.443   9.636   5.389 -0.1274  0.4245  0.0610
  341MOL0     H44960   3.427   9.462   5.394 -1.1211 -1.0694 -0.3047
  341MOL0     H44961   3.225   9.643   5.524  0.5715  1.0285  0.7755
  341MOL0     H44962   3.253   9.482   5.563  0.7904 -0.0733  2.4358
  341MOL0     H44963   3.341   9.643   5.724 -0.2588 -1.0312 -1.0001
  341MOL0     H44964   3.465   9.694   5.615 -0.5923 -0.9175 -2.8307
  341MOL0     H44965   3.572   9.378   5.532  1.3698 -1.3022  0.3022
  341MOL0     H44966   3.707   9.200   5.602 -0.0251 -0.1425  0.5048
  341MOL0     H44967   3.668   9.127   5.764  1.0952  0.1886  1.7084
  341MOL0     H44968   3.842   9.176   5.858 -1.3991 -1.8114 -1.7270
  341MOL0     H44969   3.883   9.324   5.777  0.9511 -0.0587 -0.0337
  341MOL0     H44970   4.034   9.105   5.720  1.5732 -0.5567 -2.4970
  341MOL0     H44971   3.895   9.043   5.644 -1.4176  0.1397  1.4049
  341MOL0     H44972   3.901   9.265   5.495 -1.1166 -3.0727 -2.2432
  341MOL0     H44973   4.013   9.138   5.480 -0.2151  1.2067 -1.5189
  341MOL0     H44974   4.171   9.039   5.538 -1.0560  2.2227  2.0513
  341MOL0     H44975   4.388   8.954   5.494  2.9820  0.1508 -3.0404
  341MOL0     H44976   4.899   9.108   5.265  1.1109  1.0675 -0.0301
  341MOL0     H44977   5.125   9.021   5.306 -1.4161 -2.3655 -0.0875
  341MOL0     H44978   5.306   9.068   5.743  2.3340  1.6589  0.5559
  341MOL0     H44979   5.334   9.217   5.642 -1.3454  0.2128 -2.8012
  341MOL0     H44980   5.522   9.135   5.541  1.8186 -0.9992  0.7669
  341MOL0     H44981   5.519   8.984   5.616  4.4012  1.0044  1.4876
  341MOL0     H44982   5.664   9.076   5.772  1.7358  1.4958 -0.3306
  341MOL0     H44983   5.525   9.120   5.851  1.6836  3.3797  0.6608
  341MOL0     H44984   5.660   9.310   5.647  0.0991 -0.2901 -0.4463
  341MOL0     H44985   5.511   9.335   5.719  0.5338 -1.7222 -3.7847
  341MOL0     H44986   5.782   9.264   5.845 -1.3503 -2.7865 -2.5783
  341MOL0     H44987   5.641   9.317   5.944 -0.4184  0.1066 -0.7021
  341MOL0     H44988   5.810   9.479   5.735  0.6537  6.1043  0.3621
  341MOL0     H44989   5.810   9.490   5.903 -0.6446 -1.4346  0.8501
  341MOL0     H44990   5.555   9.555   5.735 -2.8316  1.0785  1.9192
  341MOL0     H44991   5.586   9.583   5.908  3.6975 -1.9412  2.4012
  341MOL0     H44992   5.705   9.719   5.672 -0.4767 -1.1344 -0.6704
  341MOL0     H44993   5.807   9.705   5.831  0.2434  0.6914  0.0859
  341MOL0     H44994   5.099   9.127   5.709 -1.2761 -0.4717  0.0744
  341MOL0     H44995   4.859   9.224   5.671  1.4271  1.4573  0.5282
  341MOL0     H44996   4.531   9.360   5.526 -0.8147 -0.1705  2.2728
  341MOL0     H44997   4.327   9.442   5.557  0.7158  0.8649 -1.5686
  341MOL0     H44998   3.637   9.674   4.800 -3.3193  2.2774 -1.4488
  341MOL0     H44999   3.854   9.644   4.724  0.2631 -0.6074  2.5571
  341MOL0     H45000   4.214   9.253   4.765  3.8569 -3.6292  0.6509
  341MOL0     H45001   4.422   9.177   4.699  4.0574 -0.3297 -2.8899
  341MOL0     H45002   4.579   9.083   4.569 -0.6385 -0.3488 -1.2618
  341MOL0     H45003   4.654   9.228   4.647  0.3324  2.2787 -0.7974
  341MOL0     H45004   4.837   9.099   4.581  0.0341  2.9132  2.2500
  341MOL0     H45005   4.769   9.098   4.413 -2.9305  1.1572 -0.3099
  341MOL0     H45006   4.795   9.358   4.439 -0.3199 -2.2993 -3.3236
  341MOL0     H45007   4.950   9.278   4.426  1.1700  3.2567  0.4804
  341MOL0     H45008   4.828   9.363   4.692 -0.6130 -1.9360  0.2621
  341MOL0     H45009   4.961   9.243   4.673 -1.7786  0.1221  1.8612
  341MOL0     H45010   5.154   9.618   4.600 -0.3511  0.5128 -1.8832
  341MOL0     H45011   4.379   9.353   4.318  0.5398  0.3246  1.1553
  341MOL0     H45012   4.152   9.448   4.398 -1.1624 -0.0437  0.6161
  342MOL0     O45013   4.605   1.433  10.265 -0.5906 -0.6319  0.6923
  342MOL0     C45014   4.633   1.520  10.340 -0.0977 -0.0151 -0.2330
  342MOL0     O45015   4.752   1.584  10.344  0.0728 -0.2979 -0.2977
  342MOL0     C45016   4.856   1.566  10.251  0.0987  0.1955  0.1719
  342MOL0     C45017   4.875   1.450  10.164 -0.7673  0.3284  0.3017
  342MOL0     C45018   4.965   1.447  10.062  0.4570 -0.3397 -0.1134
  342MOL0     C45019   5.048   1.554  10.040 -0.4606 -0.4120 -0.1781
  342MOL0     O45020   5.137   1.554   9.937  0.4483  0.3730 -0.1727
  342MOL0     C45021   5.263   1.616   9.948  0.5216 -0.5668  1.1502
  342MOL0     C45022   5.355   1.542   9.848  0.0852 -0.1424 -0.7578
  342MOL0     C45023   5.496   1.574   9.891  0.0013  0.0388  0.3320
  342MOL0     C45024   5.523   1.717   9.842 -0.6850 -0.4364  0.4532
  342MOL0     C45025   5.645   1.796   9.894  0.0761  0.0769  0.1485
  342MOL0     C45026   5.757   1.689   9.917 -0.6393 -0.0262  0.8515
  342MOL0     C45027   5.890   1.767   9.934 -0.1119 -0.0476  1.0521
  342MOL0     C45028   6.004   1.667   9.927 -0.0984  0.4080  0.0794
  342MOL0     N45029   6.136   1.730   9.935  0.2870 -1.0201  0.3168
  342MOL0     C45030   6.225   1.749   9.831 -0.8557 -0.4904  1.0307
  342MOL0     C45031   6.333   1.808   9.889 -0.8665 -0.2857 -0.1513
  342MOL0     C45032   6.473   1.839   9.826 -0.4633  0.1128  0.5013
  342MOL0     C45033   6.598   1.830   9.935 -0.3945 -0.2073 -0.9912
  342MOL0     C45034   6.704   1.913   9.862  0.1999 -0.2737  0.0910
  342MOL0     C45035   6.844   1.889   9.909  0.2480 -0.8685  0.2081
  342MOL0     O45036   6.943   1.943   9.818  0.1373  0.1199 -0.0268
  342MOL0     C45037   7.059   1.975   9.872  0.7411  0.3240  0.4568
  342MOL0     C45038   7.091   1.942  10.006 -0.2293  0.6109 -0.0797
  342MOL0     C45039   7.221   1.961  10.060 -0.5882 -0.0001  0.3360
  342MOL0     C45040   7.311   2.031   9.974 -0.9127 -0.4283  0.0493
  342MOL0     C45041   7.450   2.061  10.026 -0.2116  0.5977 -0.1081
  342MOL0     O45042   7.537   2.120   9.943 -0.3974  0.0204  0.2884
  342MOL0     C45043   7.677   2.131   9.986  0.3979 -0.0563  0.1429
  342MOL0     C45044   7.745   2.248   9.970  0.5586 -0.5689  0.1752
  342MOL0     C45045   7.873   2.263  10.018  0.7111 -0.5440 -0.0415
  342MOL0     C45046   7.937   2.161  10.083  0.7593  0.6968 -0.2738
  342MOL0     O45047   8.061   2.192  10.129 -0.1830 -0.4804  0.3035
  342MOL0     C45048   8.163   2.086  10.132  0.1164 -0.8851  1.1730
  342MOL0     C45049   8.310   2.135  10.141  0.0643  0.3514  0.1798
  342MOL0     C45050   8.413   2.032  10.186 -0.6476  0.5552 -0.0062
  342MOL0     C45051   8.531   2.101  10.257 -0.1243  0.8291  0.0199
  342MOL0     C45052   8.663   2.020  10.252 -0.0331  0.6234  0.1878
  342MOL0     C45053   8.770   2.084  10.331  0.7021 -0.1388 -0.6794
  342MOL0     C45054   8.865   1.979  10.387  0.9565 -0.0882  0.5310
  342MOL0     C45055   9.010   2.025  10.395 -0.5724 -0.2592 -0.2142
  342MOL0    Cl45056   9.103   1.888  10.463  0.2794 -0.6350 -0.4568
  342MOL0     C45057   7.867   2.042  10.097 -0.3653 -0.4233 -0.8692
  342MOL0     C45058   7.740   2.026  10.044  0.3856  0.8272  0.3275
  342MOL0     O45059   7.470   2.043  10.145  0.4787 -0.1933 -0.1031
  342MOL0     C45060   7.270   2.072   9.844 -0.4440 -0.3775  0.5922
  342MOL0     C45061   7.143   2.045   9.799 -0.6217 -0.6229  0.3657
  342MOL0     N45062   6.301   1.823  10.025  0.7417  0.3159  0.5993
  342MOL0     N45063   6.181   1.781  10.051  0.3989  0.1369 -0.7117
  342MOL0     C45064   5.018   1.671  10.115 -0.0611  0.1508  0.1686
  342MOL0     C45065   4.927   1.680  10.224 -0.4578 -0.4657  0.6328
  342MOL0     C45066   4.521   1.576  10.423  0.0715 -0.5369 -0.1285
  342MOL0     C45067   4.403   1.497  10.450  1.0332 -0.6352 -0.7588
  342MOL0     C45068   4.310   1.545  10.542  0.6162 -0.3647  0.0230
  342MOL0     C45069   4.328   1.666  10.604 -0.3532  0.0746 -0.9121
  342MOL0     O45070   4.235   1.718  10.698 -1.6312  0.5793 -0.1934
  342MOL0     C45071   4.265   1.681  10.832  0.4876 -0.1105  0.1097
  342MOL0     C45072   4.147   1.716  10.918  0.1718 -0.7793  0.8317
  342MOL0     C45073   4.143   1.655  11.053 -0.3147 -0.9358  0.6950
  342MOL0     C45074   4.156   1.510  11.053 -0.0328  0.4278 -0.5828
  342MOL0     C45075   4.161   1.472  11.194 -0.9100 -0.3139  0.9759
  342MOL0     C45076   4.171   1.442  11.314 -0.9417 -0.2024  0.6353
  342MOL0     C45077   4.444   1.744  10.575 -0.2009  0.3093  0.2078
  342MOL0     C45078   4.541   1.695  10.493  0.5370 -0.2371  0.4793
  342MOL0     H45079   4.823   1.357  10.186  1.2863 -0.5576  1.7319
  342MOL0     H45080   4.971   1.358  10.000  2.1024  0.3494 -1.0181
  342MOL0     H45081   5.302   1.616  10.050  1.1352  1.6925  0.9744
  342MOL0     H45082   5.250   1.719   9.911  0.2169 -1.0478 -0.1387
  342MOL0     H45083   5.332   1.560   9.742 -1.6788  3.0741  0.0407
  342MOL0     H45084   5.338   1.434   9.855  2.9331 -0.6402 -0.5418
  342MOL0     H45085   5.567   1.501   9.850  1.7468 -0.1061  3.3051
  342MOL0     H45086   5.511   1.569   9.999 -0.3414 -2.0838  0.3214
  342MOL0     H45087   5.543   1.702   9.736  1.9449 -2.3068  1.1105
  342MOL0     H45088   5.436   1.782   9.848 -0.9277 -0.4607 -2.0147
  342MOL0     H45089   5.621   1.847   9.987 -0.6996 -3.1874  1.9131
  342MOL0     H45090   5.683   1.871   9.824  0.5371 -0.7129 -0.4760
  342MOL0     H45091   5.764   1.623   9.830 -1.3286 -0.8881  1.4386
  342MOL0     H45092   5.745   1.623  10.003 -2.6535 -2.4550 -1.1353
  342MOL0     H45093   5.911   1.834   9.850  0.9426 -1.8594 -0.1903
  342MOL0     H45094   5.904   1.828  10.024  0.1144  1.3461  0.1074
  342MOL0     H45095   6.002   1.612   9.832 -1.2464 -2.0312  1.4259
  342MOL0     H45096   6.006   1.590  10.005  0.7450 -0.8560 -1.1262
  342MOL0     H45097   6.217   1.737   9.724  0.5261  0.9901  0.7338
  342MOL0     H45098   6.467   1.945   9.800 -2.0166 -0.4274 -1.6654
  342MOL0     H45099   6.482   1.777   9.736  1.2504  0.3236  0.4987
  342MOL0     H45100   6.637   1.728   9.944  2.2997  0.8292 -0.1661
  342MOL0     H45101   6.562   1.868  10.031 -3.0436  0.7724 -2.2562
  342MOL0     H45102   6.707   1.896   9.754  2.9031  2.7482 -0.4809
  342MOL0     H45103   6.661   2.013   9.876 -1.2307 -0.7128 -0.9180
  342MOL0     H45104   6.873   1.784   9.913  1.4175 -0.8189 -3.1554
  342MOL0     H45105   6.851   1.921  10.013  0.2416  0.6255 -0.2290
  342MOL0     H45106   7.031   1.902  10.087 -3.2964  1.5661 -1.7230
  342MOL0     H45107   7.245   1.933  10.162 -0.5603  1.0956  0.6510
  342MOL0     H45108   7.699   2.337   9.929  3.1492 -0.0486 -1.8580
  342MOL0     H45109   7.910   2.365  10.017  1.2966 -0.7478  0.5988
  342MOL0     H45110   8.150   2.026  10.041 -0.8466  0.1545  0.6097
  342MOL0     H45111   8.145   2.023  10.220  2.2421 -2.0113  0.8712
  342MOL0     H45112   8.299   2.211  10.219  1.7179  0.2103  0.5826
  342MOL0     H45113   8.339   2.197  10.056 -2.9251  3.6351  1.3042
  342MOL0     H45114   8.461   1.976  10.105  2.5777  2.1586  0.6430
  342MOL0     H45115   8.371   1.955  10.251 -1.7284  1.3003  0.1978
  342MOL0     H45116   8.539   2.207  10.231 -1.2406  0.5302 -1.6636
  342MOL0     H45117   8.495   2.085  10.359  0.4254 -3.5343 -0.2700
  342MOL0     H45118   8.694   2.012  10.148  1.5757  1.1187  0.5957
  342MOL0     H45119   8.635   1.918  10.281  1.0424  0.1777 -0.2972
  342MOL0     H45120   8.733   2.124  10.426  0.6036 -2.2927  0.2486
  342MOL0     H45121   8.811   2.168  10.274 -0.0314  1.0313  0.4507
  342MOL0     H45122   8.834   1.933  10.482 -1.6270 -2.1326 -1.1534
  342MOL0     H45123   8.863   1.899  10.312  0.5854  0.4692 -0.0692
  342MOL0     H45124   9.012   2.118  10.452  4.4760 -0.0669 -0.2953
  342MOL0     H45125   9.052   2.054  10.297  4.2829 -3.6426  0.5091
  342MOL0     H45126   7.923   1.970  10.157  0.0054  0.1322 -0.5391
  342MOL0     H45127   7.700   1.927  10.064 -0.5119  0.4967 -2.6249
  342MOL0     H45128   7.333   2.126   9.774 -1.1401  0.7514  0.8141
  342MOL0     H45129   7.115   2.069   9.697  0.9748  0.1018  0.0523
  342MOL0     H45130   5.080   1.756  10.085  3.2789 -1.0909  2.8739
  342MOL0     H45131   4.907   1.776  10.270  3.4536  1.5344 -1.3088
  342MOL0     H45132   4.392   1.399  10.404  2.3087 -1.4494  0.5916
  342MOL0     H45133   4.220   1.487  10.561 -1.4211  2.3788 -0.5370
  342MOL0     H45134   4.359   1.711  10.879 -0.5629  0.9637  1.6382
  342MOL0     H45135   4.279   1.572  10.832 -0.2310 -0.2361  1.5999
  342MOL0     H45136   4.162   1.822  10.938  0.9132 -1.0210  1.6387
  342MOL0     H45137   4.052   1.701  10.866  0.1522  1.2068  0.2022
  342MOL0     H45138   4.048   1.680  11.101 -1.3223  3.1477 -2.8314
  342MOL0     H45139   4.231   1.700  11.101  0.6739 -0.9179 -1.0480
  342MOL0     H45140   4.076   1.454  11.004  0.9063 -1.1510 -0.4025
  342MOL0     H45141   4.249   1.471  11.010 -0.6942 -1.6598 -0.2559
  342MOL0     H45142   4.196   1.434  11.418 -0.8277 -2.4119  0.4884
  342MOL0     H45143   4.461   1.838  10.627  0.7308  0.3878 -0.2240
  342MOL0     H45144   4.632   1.753  10.480  0.4645  0.2346  1.9165
  343MOL0     O45145  11.252   4.264   3.620  0.5184  0.0389  0.9316
  343MOL0     C45146  11.232   4.288   3.732 -0.2270  0.0007 -0.5794
  343MOL0     O45147  11.304   4.235   3.835  0.1546  0.9604  0.7410
  343MOL0     C45148  11.437   4.218   3.819  0.4505 -0.5960 -0.1603
  343MOL0     C45149  11.500   4.096   3.845  1.0818 -0.8689  1.1027
  343MOL0     C45150  11.642   4.084   3.815  0.4569 -0.0165 -0.5216
  343MOL0     C45151  11.719   4.185   3.765 -0.2941 -0.9335  0.6022
  343MOL0     O45152  11.859   4.164   3.750  0.6946  0.0758  1.0352
  343MOL0     C45153  11.938   4.257   3.674 -0.0615 -0.3949 -0.2248
  343MOL0     C45154  12.080   4.193   3.666  0.3258 -0.5126  0.3949
  343MOL0     C45155  12.080   4.050   3.617  0.3379 -0.3387 -1.2352
  343MOL0     C45156  12.216   3.985   3.626 -0.3768 -0.5982 -0.1638
  343MOL0     C45157  12.195   3.838   3.579  0.4128 -0.6588 -0.2868
  343MOL0     C45158  12.320   3.763   3.600  0.2690 -0.3909  0.5709
  343MOL0     C45159  12.307   3.610   3.598 -0.1991  0.1632  0.1946
  343MOL0     C45160  12.442   3.541   3.563  1.0347 -0.0404 -0.8292
  343MOL0     N45161  12.415   3.395   3.569 -0.1104 -0.3565  0.5393
  343MOL0     C45162  12.333   3.312   3.488  0.2725 -0.4378  0.3985
  343MOL0     C45163  12.317   3.193   3.554  0.8006  0.5020  0.2977
  343MOL0     C45164  12.255   3.061   3.511  0.8207 -0.4040  0.1222
  343MOL0     C45165  12.334   2.953   3.431  0.7192 -1.0490 -0.6898
  343MOL0     C45166  12.452   2.903   3.519  0.3925 -0.7505  0.1587
  343MOL0     C45167  12.402   2.838   3.648 -0.1058 -0.4427 -0.9865
  343MOL0     O45168  12.510   2.770   3.715 -0.6030 -0.1637 -0.0276
  343MOL0     C45169  12.601   2.843   3.796  0.9846 -0.4345  0.2485
  343MOL0     C45170  12.590   2.979   3.827 -0.2389 -0.1595 -0.0101
  343MOL0     C45171  12.696   3.042   3.891 -0.1000  0.4441 -0.4634
  343MOL0     C45172  12.825   2.982   3.901 -1.0800 -0.1932 -0.3774
  343MOL0     C45173  12.938   3.063   3.951 -1.3475  0.3575  0.0293
  343MOL0     O45174  12.907   3.179   4.029 -0.0734 -0.2028  0.2360
  343MOL0     C45175  13.012   3.248   4.080 -0.0368 -0.7013 -0.8028
  343MOL0     C45176  13.072   3.358   4.013  0.8834 -0.1513  0.5711
  343MOL0     C45177  13.178   3.408   4.074  0.5230 -0.6052  0.0949
  343MOL0     C45178  13.222   3.383   4.207  0.3887  0.1204  0.5800
  343MOL0     O45179  13.318   3.459   4.257 -0.2713 -0.5967  0.4605
  343MOL0     C45180  13.271   3.534   4.372  0.2116 -0.0958 -0.3444
  343MOL0     C45181  13.336   3.671   4.392  0.5380  0.7141  0.0781
  343MOL0     C45182  13.486   3.679   4.411  0.1116  0.2268  0.3676
  343MOL0     C45183  13.550   3.819   4.434  0.4180 -0.4027  0.4759
  343MOL0     C45184  13.699   3.808   4.441 -0.1248  0.7639 -0.3547
  343MOL0     C45185  13.772   3.945   4.452 -0.4805  1.5584 -0.9085
  343MOL0     C45186  13.756   4.049   4.338  0.5480 -0.9141 -0.2904
  343MOL0     C45187  13.784   3.976   4.209 -0.3519 -0.3267  0.1574
  343MOL0    Cl45188  13.958   3.931   4.208 -0.3265 -0.4968 -0.3044
  343MOL0     C45189  13.168   3.272   4.274 -0.3713  0.8877 -0.1436
  343MOL0     C45190  13.065   3.208   4.201  0.6305 -0.0806 -0.4927
  343MOL0     O45191  13.056   3.022   3.930  0.2357  0.7273  0.8442
  343MOL0     C45192  12.841   2.848   3.865 -0.8050  0.1647  0.3871
  343MOL0     C45193  12.730   2.783   3.816 -0.0120  0.1459 -0.4987
  343MOL0     N45194  12.379   3.208   3.683 -0.6873  1.0797  0.2738
  343MOL0     N45195  12.433   3.321   3.681  0.2884 -0.1369  0.3615
  343MOL0     C45196  11.655   4.320   3.759  0.5787 -0.2252  0.1154
  343MOL0     C45197  11.515   4.330   3.774 -0.0004  0.0505 -0.3149
  343MOL0     C45198  11.103   4.377   3.754  0.2236 -0.4058 -1.7792
  343MOL0     C45199  11.025   4.427   3.653  0.3783 -0.2805  0.0296
  343MOL0     C45200  10.939   4.533   3.672  0.2555  0.0334  0.3430
  343MOL0     C45201  10.898   4.569   3.800 -0.3092 -0.3166 -0.7314
  343MOL0     O45202  10.786   4.650   3.802  0.0218  0.1713  0.2969
  343MOL0     C45203  10.702   4.649   3.914 -0.4031  0.4297  0.3045
  343MOL0     C45204  10.749   4.757   4.008 -0.3546  0.2990 -0.1304
  343MOL0     C45205  10.738   4.906   3.962 -0.5463  0.8806 -0.0493
  343MOL0     C45206  10.764   5.021   4.069  0.4219 -0.5776  0.6999
  343MOL0     C45207  10.886   5.017   4.135 -0.0700 -0.2982  0.7278
  343MOL0     C45208  10.991   5.016   4.188  0.3523 -0.3781  0.5013
  343MOL0     C45209  10.969   4.514   3.910  0.1807 -0.4190  0.7098
  343MOL0     C45210  11.070   4.420   3.882  0.9232  0.0833  0.0500
  343MOL0     H45211  11.441   4.006   3.863  0.2818 -0.8618 -1.1462
  343MOL0     H45212  11.686   3.986   3.830 -0.4091 -0.2455  0.7077
  343MOL0     H45213  11.951   4.357   3.715  3.3680 -1.0340  0.5481
  343MOL0     H45214  11.894   4.255   3.574 -2.5993  1.4337  0.7403
  343MOL0     H45215  12.142   4.197   3.755  0.3541  3.9294  0.4162
  343MOL0     H45216  12.132   4.257   3.594 -0.3699 -1.6493 -1.1860
  343MOL0     H45217  12.036   4.029   3.519  2.8601  1.1883 -2.8233
  343MOL0     H45218  12.023   4.000   3.695  2.4623  0.4370  0.9552
  343MOL0     H45219  12.283   4.037   3.557 -1.4337  3.1310  1.3671
  343MOL0     H45220  12.249   4.008   3.727 -6.3639  2.7892  1.4839
  343MOL0     H45221  12.185   3.838   3.470  1.9800 -4.7015 -0.6163
  343MOL0     H45222  12.106   3.790   3.621  0.1322  1.4680  1.7575
  343MOL0     H45223  12.386   3.793   3.682  2.4655  1.8037 -1.8382
  343MOL0     H45224  12.379   3.789   3.511 -2.1375  0.0024 -0.9960
  343MOL0     H45225  12.263   3.588   3.696  2.2719 -2.0436  0.9142
  343MOL0     H45226  12.234   3.579   3.522  1.2647 -0.1135 -1.1566
  343MOL0     H45227  12.527   3.578   3.620 -1.7687  0.3991  3.4955
  343MOL0     H45228  12.468   3.563   3.459  0.4963 -0.3870 -1.0454
  343MOL0     H45229  12.305   3.344   3.388 -0.7724  0.9756  1.1121
  343MOL0     H45230  12.175   3.099   3.448  0.9285  0.9978  0.7887
  343MOL0     H45231  12.204   3.020   3.600  0.1283  0.5691  0.1883
  343MOL0     H45232  12.373   2.989   3.336 -3.0598 -1.7081 -2.6641
  343MOL0     H45233  12.279   2.861   3.409 -2.0424  0.2894  0.2086
  343MOL0     H45234  12.495   2.822   3.460 -1.2903 -1.5955  0.0292
  343MOL0     H45235  12.526   2.982   3.534  0.7597 -0.9098 -0.7645
  343MOL0     H45236  12.336   2.758   3.611 -2.0537  1.7570 -2.5392
  343MOL0     H45237  12.343   2.898   3.718 -0.2196 -1.4760 -0.1686
  343MOL0     H45238  12.502   3.040   3.808 -0.1779  0.0625  0.4173
  343MOL0     H45239  12.692   3.146   3.921  1.3536 -0.0428  1.6084
  343MOL0     H45240  13.044   3.393   3.915 -0.6466 -1.3186  0.5569
  343MOL0     H45241  13.248   3.471   4.020 -3.3971  1.4689 -3.1839
  343MOL0     H45242  13.294   3.471   4.458  4.1831  0.0453 -1.1022
  343MOL0     H45243  13.164   3.556   4.362 -0.3015 -2.0412  0.4144
  343MOL0     H45244  13.290   3.723   4.477  2.4013 -1.4203  2.5803
  343MOL0     H45245  13.322   3.727   4.299  0.2913  4.6000  2.2454
  343MOL0     H45246  13.542   3.628   4.332  3.1189  0.7969  1.9918
  343MOL0     H45247  13.503   3.633   4.508  1.8128  0.2849  0.1311
  343MOL0     H45248  13.527   3.875   4.343  5.7880  0.8958 -0.4682
  343MOL0     H45249  13.506   3.857   4.526  1.1323 -1.3074  1.2084
  343MOL0     H45250  13.742   3.755   4.357  1.4864  1.7803 -0.2092
  343MOL0     H45251  13.737   3.756   4.530 -2.7722 -1.0206 -0.1557
  343MOL0     H45252  13.876   3.919   4.470 -1.2911 -0.0702  2.1075
  343MOL0     H45253  13.731   3.990   4.543 -2.7128 -2.6914  0.4565
  343MOL0     H45254  13.651   4.077   4.347  1.1109  2.2093 -2.0193
  343MOL0     H45255  13.823   4.134   4.352 -0.8484  0.2386 -0.5131
  343MOL0     H45256  13.748   4.047   4.134 -1.1200  0.7351  1.4838
  343MOL0     H45257  13.716   3.891   4.195 -0.5598 -0.2667  0.7599
  343MOL0     H45258  13.193   3.235   4.373  2.0037 -1.2022 -1.4105
  343MOL0     H45259  13.018   3.119   4.243  0.8337 -0.5962 -1.3234
  343MOL0     H45260  12.943   2.813   3.878 -0.6395  0.6367  0.3981
  343MOL0     H45261  12.736   2.677   3.794 -2.6648 -0.3863  0.8793
  343MOL0     H45262  11.701   4.416   3.737 -0.2853 -0.1918 -1.7119
  343MOL0     H45263  11.467   4.424   3.750 -0.5785  0.0918  0.9015
  343MOL0     H45264  11.051   4.419   3.548  0.3687  1.8553 -0.1793
  343MOL0     H45265  10.896   4.556   3.575  1.4704 -0.6205 -0.3783
  343MOL0     H45266  10.710   4.548   3.956  1.9743  0.7127  0.6707
  343MOL0     H45267  10.598   4.657   3.882 -1.6297 -3.1803  2.7727
  343MOL0     H45268  10.691   4.751   4.101  0.3434  0.4895  0.3203
  343MOL0     H45269  10.852   4.742   4.041 -0.1615  0.3200 -0.7119
  343MOL0     H45270  10.640   4.919   3.916 -0.0700 -0.4012 -1.5477
  343MOL0     H45271  10.801   4.919   3.873 -0.0702 -0.4808  0.0667
  343MOL0     H45272  10.767   5.118   4.018  3.4785  0.0172  1.8019
  343MOL0     H45273  10.679   5.022   4.138 -2.0480  1.9901 -2.0827
  343MOL0     H45274  11.083   5.007   4.242  0.9617 -0.3287 -0.5066
  343MOL0     H45275  10.962   4.549   4.013  1.3956 -4.0552  2.2197
  343MOL0     H45276  11.130   4.386   3.965  0.6548  2.1961  1.1576
  344MOL0     O45277   9.907   2.221   3.108  0.0184 -0.5014 -0.2904
  344MOL0     C45278   9.942   2.109   3.093  1.1658  0.0787  1.0919
  344MOL0     O45279  10.066   2.067   3.059  0.8616  0.2256  0.0662
  344MOL0     C45280  10.188   2.132   3.078 -0.1789 -0.8823 -0.3853
  344MOL0     C45281  10.209   2.259   3.149 -0.0219  0.0989  0.5956
  344MOL0     C45282  10.338   2.318   3.147 -0.3305  0.5803 -0.2299
  344MOL0     C45283  10.446   2.256   3.076  0.3584  0.4526  0.5107
  344MOL0     O45284  10.573   2.306   3.055  0.6191  0.3396  0.1306
  344MOL0     C45285  10.622   2.415   3.133  0.3282  0.3294 -0.4566
  344MOL0     C45286  10.741   2.478   3.054 -0.3919  0.2980  1.0209
  344MOL0     C45287  10.786   2.606   3.129 -0.9952 -0.5992 -0.3150
  344MOL0     C45288  10.898   2.678   3.057  0.9681 -1.2780  0.3680
  344MOL0     C45289  10.950   2.811   3.123  0.2635  0.2581  0.0559
  344MOL0     C45290  11.049   2.873   3.024 -0.1256 -0.0501 -0.7952
  344MOL0     C45291  11.183   2.801   2.988  0.7759  0.1572 -0.0531
  344MOL0     C45292  11.275   2.805   3.111  0.6667 -0.7095 -0.5312
  344MOL0     N45293  11.410   2.781   3.063  0.0216 -0.2164  0.8452
  344MOL0     C45294  11.462   2.654   3.031 -0.3682 -0.2381  0.1537
  344MOL0     C45295  11.597   2.680   3.015  0.5165 -0.2808 -0.1899
  344MOL0     C45296  11.700   2.581   2.972  0.0642  0.1040 -0.0833
  344MOL0     C45297  11.692   2.452   3.063  0.8624  0.0446  1.1129
  344MOL0     C45298  11.793   2.362   2.999  0.2684 -0.2642  0.1763
  344MOL0     C45299  11.934   2.421   2.978  0.0452 -0.1230  0.3432
  344MOL0     O45300  11.977   2.468   3.106  0.5563  0.0732 -0.3373
  344MOL0     C45301  12.112   2.506   3.102  1.0739 -0.6589  0.5852
  344MOL0     C45302  12.222   2.433   3.051  0.3114 -0.3290 -0.1828
  344MOL0     C45303  12.352   2.483   3.076 -0.0162 -0.1950  0.3456
  344MOL0     C45304  12.371   2.606   3.145 -0.2677  0.8699 -0.5628
  344MOL0     C45305  12.500   2.670   3.141 -0.1495 -0.4758 -1.1921
  344MOL0     O45306  12.603   2.586   3.104 -0.7720 -0.1840  0.3578
  344MOL0     C45307  12.731   2.633   3.107 -0.1673 -0.5075 -0.4593
  344MOL0     C45308  12.829   2.546   3.061  0.4699 -0.2886  0.4740
  344MOL0     C45309  12.966   2.583   3.058  0.6957  0.5816  0.4090
  344MOL0     C45310  13.016   2.696   3.124  0.4658 -0.2184  0.6301
  344MOL0     O45311  13.151   2.720   3.160 -0.5502 -0.3347  0.2505
  344MOL0     C45312  13.241   2.608   3.141  0.0916 -1.1882 -0.5288
  344MOL0     C45313  13.373   2.666   3.196 -0.3283 -0.9417  1.0574
  344MOL0     C45314  13.506   2.606   3.136  1.3480 -0.0273 -0.1123
  344MOL0     C45315  13.631   2.676   3.192  0.1065  1.0488  0.9143
  344MOL0     C45316  13.727   2.735   3.085 -0.4015  0.1808  0.3898
  344MOL0     C45317  13.863   2.794   3.132 -0.1013 -0.1820 -0.4745
  344MOL0     C45318  13.841   2.901   3.232  0.0657  0.1549  0.1211
  344MOL0     C45319  13.973   2.936   3.302 -1.1508 -0.5825 -0.2376
  344MOL0    Cl45320  14.013   2.800   3.407  0.0556 -0.1436  0.0283
  344MOL0     C45321  12.916   2.780   3.176 -0.1605  0.7073 -0.3152
  344MOL0     C45322  12.783   2.756   3.151 -0.0010 -0.2053 -0.3250
  344MOL0     O45323  12.507   2.783   3.201 -0.0877  0.2013  0.9788
  344MOL0     C45324  12.262   2.674   3.190  0.1560 -0.6422 -0.0718
  344MOL0     C45325  12.130   2.630   3.167  0.6797  0.9471  0.2877
  344MOL0     N45326  11.623   2.817   3.044  0.5420  0.1996  0.5165
  344MOL0     N45327  11.508   2.871   3.080  0.1693  0.1176 -0.2326
  344MOL0     C45328  10.434   2.127   3.030  0.7371  0.3547  0.7910
  344MOL0     C45329  10.305   2.070   3.029  0.6893 -0.4165 -0.3426
  344MOL0     C45330   9.837   1.998   3.094 -1.1623 -0.6565  0.1804
  344MOL0     C45331   9.865   1.870   3.037 -0.5713  0.6077 -0.2630
  344MOL0     C45332   9.765   1.762   3.045 -0.6570 -0.0350 -0.6381
  344MOL0     C45333   9.649   1.786   3.103  0.9806 -0.2537 -0.2656
  344MOL0     O45334   9.575   1.662   3.107 -0.1803 -0.0498  0.0519
  344MOL0     C45335   9.444   1.675   3.170  0.5439  0.3256 -0.1134
  344MOL0     C45336   9.366   1.546   3.139 -0.2518  0.0493  0.0565
  344MOL0     C45337   9.244   1.519   3.232 -0.5402 -0.9221  0.7921
  344MOL0     C45338   9.283   1.457   3.373 -0.2787  0.1943 -0.7532
  344MOL0     C45339   9.367   1.335   3.352 -0.3939 -0.4088 -0.1817
  344MOL0     C45340   9.431   1.236   3.338 -1.0848 -0.4580 -0.2148
  344MOL0     C45341   9.612   1.912   3.162  0.5334  0.8997 -0.4128
  344MOL0     C45342   9.705   2.022   3.143  0.5408  0.4758 -0.9984
  344MOL0     H45343  10.128   2.311   3.198 -1.7821 -0.1571 -1.8916
  344MOL0     H45344  10.347   2.421   3.180  2.3478 -0.3393  2.3565
  344MOL0     H45345  10.646   2.399   3.238  2.9711  1.2949 -0.8534
  344MOL0     H45346  10.547   2.494   3.124 -0.1928 -0.1547 -0.3948
  344MOL0     H45347  10.729   2.508   2.950 -0.0081  1.4437  1.2886
  344MOL0     H45348  10.814   2.398   3.039 -1.4028 -0.7892  1.6879
  344MOL0     H45349  10.826   2.570   3.225 -1.9130 -1.0364 -0.0858
  344MOL0     H45350  10.698   2.669   3.144 -1.2143 -1.0303  0.2307
  344MOL0     H45351  10.975   2.604   3.033 -0.0123 -1.4778 -2.5083
  344MOL0     H45352  10.844   2.710   2.968 -1.8449 -1.0996  2.0059
  344MOL0     H45353  10.998   2.785   3.217 -2.2397 -1.5752  0.9217
  344MOL0     H45354  10.859   2.870   3.142 -1.1626 -1.6665 -0.4787
  344MOL0     H45355  11.084   2.966   3.069 -2.2063 -0.3790  1.7562
  344MOL0     H45356  10.991   2.901   2.935 -2.3710 -0.5057  0.4394
  344MOL0     H45357  11.162   2.697   2.961 -0.1471  0.6055 -1.1536
  344MOL0     H45358  11.232   2.845   2.901  1.9425  0.1344  0.5671
  344MOL0     H45359  11.251   2.734   3.192  0.3342 -1.0518 -0.9258
  344MOL0     H45360  11.255   2.906   3.147 -1.0011 -0.6772 -1.4306
  344MOL0     H45361  11.411   2.559   3.017 -1.1119  0.4056 -1.9348
  344MOL0     H45362  11.799   2.623   2.994  1.5656 -2.8043 -0.7892
  344MOL0     H45363  11.694   2.570   2.864  1.1337 -0.9052 -0.0534
  344MOL0     H45364  11.588   2.417   3.056  0.2430  2.0624 -1.5363
  344MOL0     H45365  11.723   2.476   3.165  4.1184  1.4749 -0.0955
  344MOL0     H45366  11.794   2.269   3.055  1.4515  1.2037  2.7425
  344MOL0     H45367  11.758   2.341   2.897 -2.4669 -1.3552  1.2428
  344MOL0     H45368  11.943   2.497   2.900  2.7156 -0.2555  0.4309
  344MOL0     H45369  11.997   2.334   2.954  1.3034  1.1042 -1.0615
  344MOL0     H45370  12.200   2.334   3.013  0.1544 -0.8035  1.0788
  344MOL0     H45371  12.435   2.427   3.033 -0.8829 -1.7023  0.5510
  344MOL0     H45372  12.806   2.447   3.024  2.5744 -0.3416 -0.8722
  344MOL0     H45373  13.025   2.498   3.027 -1.5418 -2.0201  2.7103
  344MOL0     H45374  13.239   2.598   3.032  1.7162  0.7024 -0.7850
  344MOL0     H45375  13.209   2.516   3.191  0.4589 -1.0883 -0.1053
  344MOL0     H45376  13.375   2.661   3.306 -2.9460  0.9847  1.2779
  344MOL0     H45377  13.393   2.770   3.169  0.2500 -1.5705 -1.1248
  344MOL0     H45378  13.501   2.618   3.027 -1.3274 -1.3313 -0.2187
  344MOL0     H45379  13.498   2.498   3.152 -2.9946 -0.2657 -2.5072
  344MOL0     H45380  13.591   2.748   3.264 -0.9626  0.6159  0.7731
  344MOL0     H45381  13.692   2.606   3.251 -0.9407  0.3997  1.2444
  344MOL0     H45382  13.671   2.820   3.043  0.3380  0.2778 -0.4271
  344MOL0     H45383  13.748   2.667   3.002 -2.9405  0.7433 -0.8391
  344MOL0     H45384  13.916   2.831   3.044 -1.2512  1.7033 -0.4336
  344MOL0     H45385  13.927   2.718   3.176  1.1142  0.7286 -0.6335
  344MOL0     H45386  13.802   2.987   3.178  3.0360  0.3979 -1.8865
  344MOL0     H45387  13.771   2.878   3.313  2.2060  0.2165  2.0989
  344MOL0     H45388  13.963   3.031   3.356  3.6448  0.2951 -0.4527
  344MOL0     H45389  14.050   2.957   3.228  0.6264  0.2348  1.7376
  344MOL0     H45390  12.941   2.873   3.227 -0.0680  0.8127 -0.5501
  344MOL0     H45391  12.727   2.841   3.188  3.0730  0.6555  2.9459
  344MOL0     H45392  12.271   2.767   3.246  1.0311  0.3973 -1.8556
  344MOL0     H45393  12.041   2.671   3.213  0.4547  1.5183 -0.6394
  344MOL0     H45394  10.516   2.076   2.983  3.0513  0.6176  4.1871
  344MOL0     H45395  10.300   1.983   2.964  0.2426 -1.1920  0.7011
  344MOL0     H45396   9.953   1.842   2.980 -2.7335 -1.4898 -2.8672
  344MOL0     H45397   9.783   1.661   3.010 -1.8915 -1.3444  2.1645
  344MOL0     H45398   9.386   1.764   3.145 -2.4703 -1.0379  1.4710
  344MOL0     H45399   9.451   1.678   3.279 -0.2743 -1.5360  0.0334
  344MOL0     H45400   9.316   1.562   3.043 -1.2591  0.3629  0.6217
  344MOL0     H45401   9.431   1.459   3.128 -1.6532 -1.0360  0.1948
  344MOL0     H45402   9.173   1.456   3.178  3.8503 -2.3726 -4.0034
  344MOL0     H45403   9.194   1.609   3.268 -0.1682 -1.7098  3.5623
  344MOL0     H45404   9.352   1.523   3.427  1.5172 -2.4772  0.4344
  344MOL0     H45405   9.199   1.445   3.442 -0.2937  3.8692  0.0534
  344MOL0     H45406   9.482   1.143   3.325 -1.0032 -0.2912 -1.2541
  344MOL0     H45407   9.515   1.933   3.207 -1.4421 -1.8558 -2.9869
  344MOL0     H45408   9.683   2.120   3.184 -0.2711  0.8421 -2.2623
  345MOL0     O45409   6.330   2.009   6.825  0.3887  0.5262 -0.2842
  345MOL0     C45410   6.309   1.884   6.816 -0.1507  0.2132 -0.6305
  345MOL0     O45411   6.264   1.809   6.916 -0.2956  0.3626 -0.3028
  345MOL0     C45412   6.253   1.859   7.049  0.5436 -0.3216 -0.1913
  345MOL0     C45413   6.197   1.987   7.072  0.5364 -0.3294 -0.3645
  345MOL0     C45414   6.181   2.042   7.200  0.7042  0.0735 -0.2510
  345MOL0     C45415   6.213   1.967   7.312 -1.0806  0.7151 -0.3077
  345MOL0     O45416   6.195   2.021   7.437  0.5238  0.2537  0.0213
  345MOL0     C45417   6.061   2.063   7.487 -0.4653  0.1078  0.4129
  345MOL0     C45418   6.042   2.085   7.634 -0.4425  0.3775  0.2564
  345MOL0     C45419   6.118   2.198   7.699  0.1413  0.5540 -0.2676
  345MOL0     C45420   6.084   2.224   7.853  0.9332  0.1740  0.7183
  345MOL0     C45421   6.175   2.346   7.904 -1.0351 -0.1603  1.1635
  345MOL0     C45422   6.170   2.351   8.058 -0.0079  0.8159 -0.1803
  345MOL0     C45423   6.238   2.229   8.131  0.5326 -0.5078  0.3792
  345MOL0     C45424   6.253   2.242   8.287  0.6072 -0.1010 -0.0706
  345MOL0     N45425   6.128   2.206   8.354 -0.2493 -0.1971 -0.2858
  345MOL0     C45426   6.044   2.106   8.324  0.3099  0.5257  0.2471
  345MOL0     C45427   5.931   2.132   8.393  0.4548  0.8394  0.3280
  345MOL0     C45428   5.816   2.032   8.378 -0.5583 -0.9304 -0.4046
  345MOL0     C45429   5.763   2.020   8.240  0.0457 -0.1370  0.1526
  345MOL0     C45430   5.711   2.155   8.185  0.3679  0.6308 -0.4321
  345MOL0     C45431   5.627   2.123   8.063 -0.1661  0.4371  0.5557
  345MOL0     O45432   5.704   2.114   7.944  0.4333  0.5369 -0.0265
  345MOL0     C45433   5.640   2.061   7.838  0.3630  0.0832 -0.0765
  345MOL0     C45434   5.499   2.069   7.807  0.0380  0.6831 -0.2140
  345MOL0     C45435   5.465   2.022   7.676  0.0534 -0.8226 -0.2985
  345MOL0     C45436   5.552   1.960   7.586 -0.1180 -0.3270  0.9820
  345MOL0     C45437   5.502   1.898   7.458  0.6350 -0.7805 -0.2583
  345MOL0     O45438   5.364   1.869   7.446  0.3977 -0.0692 -0.5405
  345MOL0     C45439   5.327   1.809   7.331 -0.3642 -0.3117 -0.7693
  345MOL0     C45440   5.261   1.890   7.247  0.0778  0.2070  0.1737
  345MOL0     C45441   5.201   1.846   7.130 -0.0519  0.2225 -0.1348
  345MOL0     C45442   5.204   1.705   7.103 -0.2353  0.8214 -0.0450
  345MOL0     O45443   5.141   1.638   7.003  0.6085  0.3643 -0.4352
  345MOL0     C45444   5.092   1.718   6.887 -0.5078 -0.7389  0.1768
  345MOL0     C45445   5.045   1.635   6.766  0.3629  1.2797 -0.7195
  345MOL0     C45446   4.906   1.576   6.800 -0.9067 -0.2269 -0.0986
  345MOL0     C45447   4.838   1.500   6.685  0.3404  0.2627  0.4739
  345MOL0     C45448   4.675   1.492   6.701 -0.8479 -0.4820  0.7077
  345MOL0     C45449   4.623   1.457   6.852  0.0546  0.6461  0.5136
  345MOL0     C45450   4.475   1.444   6.854  0.4901  0.5917 -0.0111
  345MOL0     C45451   4.407   1.324   6.793 -0.2742 -0.4142  0.4488
  345MOL0    Cl45452   4.462   1.166   6.857 -0.1102 -0.2703  0.1490
  345MOL0     C45453   5.266   1.621   7.193 -0.5765 -0.3514 -0.0018
  345MOL0     C45454   5.316   1.672   7.311 -0.0107  0.1083  0.2648
  345MOL0     O45455   5.586   1.878   7.375  0.3881 -0.0278 -0.1468
  345MOL0     C45456   5.684   1.949   7.627  0.0463 -0.9092 -0.5474
  345MOL0     C45457   5.731   1.997   7.758 -0.1162  0.2362 -0.1461
  345MOL0     N45458   5.949   2.234   8.478 -0.1745  0.1906 -0.3005
  345MOL0     N45459   6.064   2.289   8.447 -0.8371  0.4935  0.0270
  345MOL0     C45460   6.263   1.838   7.300 -0.3242 -0.2736  0.0834
  345MOL0     C45461   6.283   1.785   7.164  0.8888 -0.1449 -0.3519
  345MOL0     C45462   6.349   1.824   6.690 -0.4057 -1.0236 -0.0206
  345MOL0     C45463   6.434   1.890   6.603 -0.2974 -0.7398  0.0702
  345MOL0     C45464   6.486   1.824   6.486  0.6883  0.5942  0.3826
  345MOL0     C45465   6.450   1.692   6.453  0.2930 -0.1772  0.2369
  345MOL0     O45466   6.480   1.617   6.338 -0.3133 -0.9875  0.1604
  345MOL0     C45467   6.575   1.670   6.249 -0.8165  0.0267 -0.0715
  345MOL0     C45468   6.551   1.586   6.120 -0.2194 -0.5166  0.1975
  345MOL0     C45469   6.604   1.645   5.990  0.3637  0.1279  0.3772
  345MOL0     C45470   6.580   1.791   5.976  0.0087  0.2349  0.0371
  345MOL0     C45471   6.438   1.823   5.973  0.2660  0.4190  0.2684
  345MOL0     C45472   6.328   1.878   5.955  0.1179  0.0827  0.2825
  345MOL0     C45473   6.348   1.636   6.532 -0.5903  0.2218  0.3204
  345MOL0     C45474   6.302   1.694   6.646  0.1676 -1.1208  0.3242
  345MOL0     H45475   6.157   2.051   6.993 -3.5865 -1.1401  0.8656
  345MOL0     H45476   6.153   2.147   7.208  1.8454  0.3122  0.8995
  345MOL0     H45477   5.974   2.003   7.457  0.4516 -1.2450  0.3879
  345MOL0     H45478   6.050   2.159   7.435  1.0341 -0.5630 -1.2574
  345MOL0     H45479   6.048   1.998   7.700 -1.6278  1.0426  1.3031
  345MOL0     H45480   5.935   2.108   7.643 -0.1304  2.0830  0.0028
  345MOL0     H45481   6.111   2.296   7.651  1.5574  1.3259  1.0011
  345MOL0     H45482   6.225   2.172   7.695  0.5383  2.2522 -2.6247
  345MOL0     H45483   5.977   2.242   7.845  0.9300 -0.4190 -0.9469
  345MOL0     H45484   6.114   2.139   7.914 -2.1403  0.8757  3.5004
  345MOL0     H45485   6.139   2.440   7.860  2.4484  0.0058 -1.8141
  345MOL0     H45486   6.281   2.333   7.883 -1.1438 -2.3113  1.7463
  345MOL0     H45487   6.065   2.352   8.092 -0.3511  2.1102 -1.1807
  345MOL0     H45488   6.220   2.439   8.099 -0.6382 -0.1287  2.9184
  345MOL0     H45489   6.193   2.129   8.122  3.2646 -1.9748  1.7447
  345MOL0     H45490   6.334   2.227   8.078 -1.2814 -2.0019 -3.1940
  345MOL0     H45491   6.289   2.339   8.324  5.1222 -0.4083 -2.8293
  345MOL0     H45492   6.335   2.177   8.319  1.6012  1.7449  1.3496
  345MOL0     H45493   6.056   2.034   8.243  1.0949  1.1900 -0.2364
  345MOL0     H45494   5.737   2.051   8.452 -1.2301  1.6846 -1.6622
  345MOL0     H45495   5.860   1.933   8.392 -0.2114 -0.3696  3.9849
  345MOL0     H45496   5.684   1.944   8.250 -0.2089 -0.1958 -1.9374
  345MOL0     H45497   5.846   1.976   8.184  0.8732 -0.4343  1.5627
  345MOL0     H45498   5.656   2.209   8.263  2.1012  1.8263  0.0294
  345MOL0     H45499   5.788   2.227   8.155  1.6327 -0.2796  0.5000
  345MOL0     H45500   5.570   2.215   8.050 -2.1476 -1.1056 -3.8063
  345MOL0     H45501   5.552   2.044   8.076 -0.8369  1.1021  0.7508
  345MOL0     H45502   5.427   2.100   7.882  0.1844  1.3680 -0.3560
  345MOL0     H45503   5.358   2.027   7.659 -0.2478  1.0466  1.6471
  345MOL0     H45504   5.261   1.995   7.276 -1.9110  0.0538  0.9115
  345MOL0     H45505   5.152   1.904   7.052 -0.7216  1.1955  0.9725
  345MOL0     H45506   5.174   1.782   6.854 -1.4584  2.2619  3.0869
  345MOL0     H45507   5.025   1.796   6.923  1.1139 -0.6553  3.3782
  345MOL0     H45508   5.122   1.559   6.745 -1.3356 -0.3498 -1.3710
  345MOL0     H45509   5.038   1.696   6.676  0.2953  4.2287  1.1598
  345MOL0     H45510   4.842   1.658   6.833 -0.8779 -0.4500  0.5242
  345MOL0     H45511   4.924   1.513   6.887  2.6657  1.0427  0.2334
  345MOL0     H45512   4.859   1.554   6.592  1.8745  0.7033  1.0419
  345MOL0     H45513   4.876   1.399   6.666  0.7852 -0.6712  5.0480
  345MOL0     H45514   4.648   1.415   6.629  2.0684 -0.7918 -0.2036
  345MOL0     H45515   4.628   1.587   6.676  1.6624  0.2022 -2.0368
  345MOL0     H45516   4.655   1.528   6.928  0.2354 -0.6473  1.7028
  345MOL0     H45517   4.654   1.361   6.894 -0.7940  0.7689  1.4716
  345MOL0     H45518   4.448   1.436   6.960 -1.1273  0.3177 -0.4159
  345MOL0     H45519   4.434   1.536   6.811 -2.4296 -0.7232 -0.2740
  345MOL0     H45520   4.419   1.335   6.685 -0.4265 -0.8965  0.3792
  345MOL0     H45521   4.301   1.340   6.815  0.5125  2.0151  3.1601
  345MOL0     H45522   5.263   1.514   7.177 -4.2690 -0.8345  2.6603
  345MOL0     H45523   5.348   1.593   7.379 -0.0552  0.4547  0.6900
  345MOL0     H45524   5.750   1.888   7.565  1.6804  2.0209 -1.8965
  345MOL0     H45525   5.832   1.980   7.796 -1.6544  0.0953  4.4492
  345MOL0     H45526   6.288   1.775   7.385  0.2943  1.6562  1.4084
  345MOL0     H45527   6.314   1.682   7.148 -0.1312 -0.7491  1.3687
  345MOL0     H45528   6.467   1.990   6.629  0.3332 -1.5358  2.5673
  345MOL0     H45529   6.558   1.876   6.424 -0.9475  0.4888 -1.7232
  345MOL0     H45530   6.676   1.647   6.283 -0.6766 -1.5528 -1.4318
  345MOL0     H45531   6.557   1.778   6.242 -2.4602 -0.0422  1.9498
  345MOL0     H45532   6.594   1.486   6.133  2.4156  0.4300 -0.6577
  345MOL0     H45533   6.447   1.565   6.097  0.4485 -1.3798 -2.3659
  345MOL0     H45534   6.569   1.597   5.898  1.9975 -0.0624 -0.1632
  345MOL0     H45535   6.712   1.628   5.989  0.2553 -0.6401 -0.9731
  345MOL0     H45536   6.636   1.852   6.048  0.4409 -0.3470  0.1975
  345MOL0     H45537   6.619   1.828   5.881  3.5040 -1.3864  0.6701
  345MOL0     H45538   6.240   1.930   5.924  0.2409  1.4407  2.0482
  345MOL0     H45539   6.315   1.537   6.504  3.1915 -1.3789  0.7829
  345MOL0     H45540   6.226   1.640   6.700  0.8692 -0.0092  2.5277
  346MOL0     O45541   2.739   8.242   3.224 -0.6515 -0.4718  0.3092
  346MOL0     C45542   2.709   8.318   3.316  0.2646  0.3158  0.6780
  346MOL0     O45543   2.703   8.287   3.447  0.4848 -1.0990 -0.6242
  346MOL0     C45544   2.770   8.175   3.487  0.2301  0.7539 -0.0735
  346MOL0     C45545   2.696   8.086   3.561  0.0061 -0.3796 -0.0290
  346MOL0     C45546   2.754   7.978   3.618  0.1972 -0.4233  0.1640
  346MOL0     C45547   2.896   7.953   3.608  1.5223 -0.6071 -0.3789
  346MOL0     O45548   2.943   7.853   3.684 -0.4452  0.5277 -0.2519
  346MOL0     C45549   3.083   7.857   3.724 -0.4490  0.5930 -0.3131
  346MOL0     C45550   3.094   7.723   3.797 -0.2435 -0.0158  0.8582
  346MOL0     C45551   3.201   7.709   3.916  0.2871 -0.5998  0.0656
  346MOL0     C45552   3.344   7.708   3.862  1.0766 -0.3505  0.3539
  346MOL0     C45553   3.449   7.697   3.971 -0.2468 -0.9566 -0.0928
  346MOL0     C45554   3.486   7.554   4.008  0.8394  0.5575  0.5066
  346MOL0     C45555   3.592   7.556   4.106 -0.1723  0.3667 -0.5281
  346MOL0     C45556   3.524   7.584   4.250 -0.1911 -0.5989  0.3218
  346MOL0     N45557   3.623   7.591   4.355  0.5398  0.4551  0.4920
  346MOL0     C45558   3.728   7.675   4.371  0.2100 -0.2999 -0.0054
  346MOL0     C45559   3.783   7.629   4.486  0.3558  0.0559 -0.1006
  346MOL0     C45560   3.920   7.678   4.549  1.2806  0.5213  0.2877
  346MOL0     C45561   3.906   7.811   4.626 -0.7593  0.1999 -0.7802
  346MOL0     C45562   3.820   7.792   4.748 -0.0671  0.1910  0.0682
  346MOL0     C45563   3.698   7.883   4.744  0.6980 -0.6399 -0.2181
  346MOL0     O45564   3.615   7.849   4.853  1.0718 -0.3782 -0.3516
  346MOL0     C45565   3.480   7.889   4.842 -0.5259  0.5345  0.4032
  346MOL0     C45566   3.392   7.803   4.896  0.2760 -0.4113  0.4234
  346MOL0     C45567   3.250   7.828   4.896 -0.1035 -0.4664  0.5741
  346MOL0     C45568   3.202   7.951   4.843  0.0236 -0.1628  1.9587
  346MOL0     C45569   3.065   7.989   4.825 -0.5608  1.0434  0.7090
  346MOL0     O45570   3.027   8.111   4.779  0.0157  0.1916  0.7694
  346MOL0     C45571   2.896   8.153   4.781  1.0017  0.6364 -1.1578
  346MOL0     C45572   2.805   8.120   4.679  0.4317 -0.8360  0.7784
  346MOL0     C45573   2.667   8.161   4.677 -0.8067 -0.5405  0.7576
  346MOL0     C45574   2.622   8.224   4.792  0.4019 -0.3405 -0.0824
  346MOL0     O45575   2.501   8.287   4.776 -0.2915  0.5719  0.3039
  346MOL0     C45576   2.496   8.429   4.813 -1.0030 -0.8420  0.8285
  346MOL0     C45577   2.601   8.505   4.728 -0.1826  0.8443  0.0370
  346MOL0     C45578   2.583   8.485   4.574  0.4024  0.1163 -0.4524
  346MOL0     C45579   2.705   8.571   4.519 -0.0279 -0.1707  0.2014
  346MOL0     C45580   2.741   8.533   4.376  0.1330 -0.5844 -0.1479
  346MOL0     C45581   2.617   8.509   4.291  0.5109 -0.5101 -0.9798
  346MOL0     C45582   2.654   8.514   4.144 -0.4404 -0.1909 -0.4076
  346MOL0     C45583   2.533   8.515   4.048  0.5757  0.3635  0.4059
  346MOL0    Cl45584   2.427   8.653   4.060 -0.0230  0.4642 -0.3850
  346MOL0     C45585   2.701   8.228   4.910 -0.8213  0.0577 -0.2412
  346MOL0     C45586   2.836   8.191   4.898  0.2509 -0.6391  0.1757
  346MOL0     O45587   2.992   7.903   4.867 -0.0600  0.2490  0.7888
  346MOL0     C45588   3.297   8.049   4.805  0.5032  0.6425  0.3336
  346MOL0     C45589   3.438   8.016   4.804 -0.5894  0.3826  0.3880
  346MOL0     N45590   3.702   7.527   4.537 -0.4092  0.0404 -0.4620
  346MOL0     N45591   3.609   7.503   4.458 -0.2626 -0.1752  0.3146
  346MOL0     C45592   2.970   8.040   3.524 -0.1672  0.5156  0.0874
  346MOL0     C45593   2.905   8.156   3.486 -0.9084 -0.2491 -0.2972
  346MOL0     C45594   2.663   8.451   3.281 -0.2737  0.5970 -0.0800
  346MOL0     C45595   2.532   8.493   3.320  0.3383 -0.1165  0.4132
  346MOL0     C45596   2.485   8.609   3.246 -0.4386 -0.3087 -0.1171
  346MOL0     C45597   2.563   8.677   3.153  0.6197 -0.2580  0.1253
  346MOL0     O45598   2.515   8.792   3.091  0.2644 -0.2669  0.1283
  346MOL0     C45599   2.502   8.785   2.951 -0.0559  0.7133  0.0802
  346MOL0     C45600   2.408   8.897   2.898 -0.9444  0.5863  0.2443
  346MOL0     C45601   2.429   9.040   2.959 -0.1702  0.2325  0.0818
  346MOL0     C45602   2.340   9.156   2.901 -0.0570 -0.6730  0.4275
  346MOL0     C45603   2.199   9.113   2.921 -0.3281 -0.1385  0.1696
  346MOL0     C45604   2.081   9.101   2.946  0.3301  0.3849 -0.4668
  346MOL0     C45605   2.697   8.635   3.129  0.2468  0.8134  0.0635
  346MOL0     C45606   2.740   8.519   3.191  0.1462  0.2181 -0.1673
  346MOL0     H45607   2.590   8.110   3.567  0.4140  2.1770 -1.4174
  346MOL0     H45608   2.698   7.899   3.667  0.2762 -1.4481 -1.3196
  346MOL0     H45609   3.111   7.945   3.782 -0.7178  0.4181  0.0810
  346MOL0     H45610   3.155   7.840   3.643  0.4613 -1.2736  0.8116
  346MOL0     H45611   3.108   7.646   3.721 -2.3861 -0.3117  0.6898
  346MOL0     H45612   2.998   7.685   3.834  0.5928 -2.0133  1.1448
  346MOL0     H45613   3.187   7.611   3.961  0.0506 -0.0368  1.2545
  346MOL0     H45614   3.188   7.786   3.993 -3.2981 -0.7548 -0.2348
  346MOL0     H45615   3.346   7.627   3.788  0.6451 -0.3336  0.3245
  346MOL0     H45616   3.364   7.795   3.798 -3.9146 -1.7351 -3.7908
  346MOL0     H45617   3.421   7.754   4.060 -2.3975 -0.7957 -0.7962
  346MOL0     H45618   3.534   7.753   3.931 -2.6353  0.7026 -3.2872
  346MOL0     H45619   3.518   7.498   3.919 -1.2655 -0.3477  0.2518
  346MOL0     H45620   3.398   7.496   4.039  0.6152 -1.4858 -3.3979
  346MOL0     H45621   3.649   7.464   4.124 -0.6360  0.4564  1.7684
  346MOL0     H45622   3.676   7.620   4.079 -0.0943  0.6182  0.2727
  346MOL0     H45623   3.453   7.506   4.278 -1.1759  0.6847  1.4885
  346MOL0     H45624   3.470   7.679   4.254 -1.8719 -1.5664  1.7558
  346MOL0     H45625   3.762   7.758   4.311  0.5117 -1.1888 -1.1061
  346MOL0     H45626   3.996   7.690   4.472 -0.6494  1.9420 -1.5184
  346MOL0     H45627   3.943   7.598   4.620 -1.2724  0.3696  1.0461
  346MOL0     H45628   3.872   7.882   4.549  1.5920  0.7748 -1.3799
  346MOL0     H45629   4.004   7.852   4.654 -1.0465  3.2978 -3.6139
  346MOL0     H45630   3.797   7.688   4.773 -1.8842  0.3523 -0.7797
  346MOL0     H45631   3.878   7.832   4.832 -0.8437  0.5207  0.4545
  346MOL0     H45632   3.639   7.871   4.652 -1.2441 -0.8562  0.9844
  346MOL0     H45633   3.724   7.988   4.759 -1.3147 -0.4184  2.4909
  346MOL0     H45634   3.432   7.716   4.947 -1.2612 -0.1595  2.1790
  346MOL0     H45635   3.191   7.744   4.931 -1.2007  0.2963  0.6042
  346MOL0     H45636   2.852   8.064   4.599  0.3840  1.3958 -0.9197
  346MOL0     H45637   2.614   8.151   4.583 -1.1322  3.0982  0.3965
  346MOL0     H45638   2.538   8.449   4.912  0.5496 -0.1992  0.0734
  346MOL0     H45639   2.394   8.468   4.802 -0.4426  0.4237 -0.0613
  346MOL0     H45640   2.696   8.457   4.750 -0.7348 -1.5470 -2.3464
  346MOL0     H45641   2.617   8.610   4.756  0.8940  0.5503  0.5747
  346MOL0     H45642   2.486   8.527   4.547  0.3408  1.1128  1.1614
  346MOL0     H45643   2.587   8.380   4.544 -1.6550  0.1959 -1.1780
  346MOL0     H45644   2.678   8.675   4.537 -1.8103 -0.6881  0.7330
  346MOL0     H45645   2.798   8.546   4.571  0.0194 -3.0736 -1.0724
  346MOL0     H45646   2.777   8.429   4.379  3.0257  0.3075 -1.0262
  346MOL0     H45647   2.809   8.600   4.324 -1.8916  0.1440 -2.0475
  346MOL0     H45648   2.549   8.595   4.300 -0.0508 -1.0984  0.7167
  346MOL0     H45649   2.565   8.417   4.320 -3.5649  1.8212 -0.1797
  346MOL0     H45650   2.713   8.603   4.124 -0.4906 -0.4292 -1.7253
  346MOL0     H45651   2.718   8.429   4.119 -2.4011 -2.2289  1.0014
  346MOL0     H45652   2.475   8.425   4.069  2.2845 -0.5821  1.3104
  346MOL0     H45653   2.577   8.516   3.948  1.3732 -0.8768  0.7139
  346MOL0     H45654   2.662   8.266   5.004  1.0509 -0.3598  0.7651
  346MOL0     H45655   2.910   8.200   4.977 -1.3251  1.9183  1.4952
  346MOL0     H45656   3.248   8.135   4.761 -1.6390 -0.2934  0.7806
  346MOL0     H45657   3.502   8.090   4.758  0.1924  0.0363  0.8909
  346MOL0     H45658   3.077   8.030   3.509  0.1844  0.1673  2.3804
  346MOL0     H45659   2.962   8.230   3.431  1.4338 -3.3333 -2.3348
  346MOL0     H45660   2.465   8.432   3.380 -2.5896  0.5646 -1.9310
  346MOL0     H45661   2.380   8.634   3.255  0.0587  1.5704  0.9175
  346MOL0     H45662   2.469   8.683   2.929  0.4996  0.8270 -1.4190
  346MOL0     H45663   2.597   8.792   2.896 -0.6154 -2.0892 -1.4710
  346MOL0     H45664   2.431   8.899   2.791 -0.0752  1.8638  0.4376
  346MOL0     H45665   2.304   8.865   2.906 -1.7758  2.6020 -1.4581
  346MOL0     H45666   2.532   9.074   2.944 -0.5523  0.9182 -1.1351
  346MOL0     H45667   2.403   9.028   3.065 -1.0533 -0.9384 -0.2425
  346MOL0     H45668   2.363   9.250   2.951  0.2061 -1.8559  2.6753
  346MOL0     H45669   2.363   9.164   2.794 -0.4118 -4.1698 -0.0395
  346MOL0     H45670   1.977   9.098   2.971  1.0072 -1.7091  2.7442
  346MOL0     H45671   2.760   8.693   3.063  1.2638  0.3442  0.6063
  346MOL0     H45672   2.839   8.481   3.172 -0.3883  0.0555 -3.0510
  347MOL0     O45673   0.322  11.298   2.999  0.1256  0.3043  0.0364
  347MOL0     C45674   0.270  11.261   2.895  0.1478 -0.7095 -0.0459
  347MOL0     O45675   0.338  11.245   2.775  0.4829  0.2707 -0.2247
  347MOL0     C45676   0.476  11.255   2.778 -0.9909 -0.0882  0.3285
  347MOL0     C45677   0.551  11.140   2.809 -0.2386 -0.7240  0.5548
  347MOL0     C45678   0.689  11.151   2.787  0.0929  0.4174  0.8186
  347MOL0     C45679   0.754  11.266   2.752 -0.0654 -1.3188 -0.2074
  347MOL0     O45680   0.883  11.285   2.731  0.1101  0.8238 -0.4578
  347MOL0     C45681   0.958  11.162   2.714  0.5047 -0.6539  0.1962
  347MOL0     C45682   0.948  11.107   2.575  1.3892 -0.7381 -0.4685
  347MOL0     C45683   1.046  11.174   2.478 -0.3280  0.4573 -0.4137
  347MOL0     C45684   1.023  11.325   2.443 -0.8359 -0.4941  0.3674
  347MOL0     C45685   1.058  11.328   2.294  0.2522  0.7573 -0.0618
  347MOL0     C45686   1.055  11.460   2.213 -0.0544 -0.5600 -0.0477
  347MOL0     C45687   0.928  11.548   2.233  0.2549 -0.7688  0.0071
  347MOL0     C45688   0.815  11.509   2.132 -0.0722  0.0236 -0.3260
  347MOL0     N45689   0.737  11.383   2.161 -1.1478 -0.6784 -0.3157
  347MOL0     C45690   0.665  11.357   2.270  0.1156 -0.2095  0.1610
  347MOL0     C45691   0.610  11.239   2.269  0.0416 -0.5212  0.2609
  347MOL0     C45692   0.519  11.177   2.373  1.5517 -0.0197  0.0862
  347MOL0     C45693   0.375  11.138   2.331 -0.4947  0.6733 -0.4064
  347MOL0     C45694   0.334  11.019   2.420 -0.2734  0.0726 -0.4071
  347MOL0     C45695   0.190  10.964   2.383 -0.0087  0.3769 -0.0105
  347MOL0     O45696   0.103  11.064   2.434  0.1540  0.3113  0.3504
  347MOL0     C45697  -0.028  11.061   2.409 -0.1008 -0.0126 -0.4037
  347MOL0     C45698  -0.107  11.170   2.448  0.2395  0.1532  0.3771
  347MOL0     C45699  -0.251  11.165   2.441  1.0203 -0.5048 -0.6061
  347MOL0     C45700  -0.305  11.062   2.370 -0.4815 -0.6000 -0.1614
  347MOL0     C45701  -0.456  11.049   2.351 -0.4761 -0.4857  0.2093
  347MOL0     O45702  -0.497  10.952   2.264  0.4538 -0.1367  0.8872
  347MOL0     C45703  -0.621  10.956   2.206 -0.5381  0.0632 -0.2302
  347MOL0     C45704  -0.694  10.842   2.194  0.1776 -0.2488  0.8999
  347MOL0     C45705  -0.820  10.830   2.133  0.4720  0.3964  0.9868
  347MOL0     C45706  -0.877  10.951   2.087 -0.0496 -1.5075  0.2710
  347MOL0     O45707  -1.005  10.947   2.029 -0.2120  0.0891  0.6374
  347MOL0     C45708  -1.089  11.060   2.074  0.7458  1.1365  0.2661
  347MOL0     C45709  -1.238  11.019   2.060 -0.2750 -0.2669  1.3222
  347MOL0     C45710  -1.274  10.899   2.139  0.6203  0.0347  0.0950
  347MOL0     C45711  -1.439  10.858   2.115 -0.5293  0.9865  0.5870
  347MOL0     C45712  -1.461  10.716   2.168  0.4059 -0.4214  0.1585
  347MOL0     C45713  -1.609  10.694   2.157  0.0414 -0.5548  0.1315
  347MOL0     C45714  -1.638  10.543   2.171  0.0345  0.3439 -1.0495
  347MOL0     C45715  -1.764  10.514   2.246 -0.2265  0.5491 -1.0197
  347MOL0    Cl45716  -1.741  10.329   2.285  0.1367  0.5832  0.0420
  347MOL0     C45717  -0.799  11.073   2.097  0.9324  0.6251  0.0536
  347MOL0     C45718  -0.673  11.077   2.151  0.1132 -0.2007  0.0268
  347MOL0     O45719  -0.536  11.126   2.407 -0.4198 -0.0249  0.7965
  347MOL0     C45720  -0.225  10.951   2.333 -0.2690 -0.9297 -0.1504
  347MOL0     C45721  -0.092  10.948   2.358 -0.2898 -0.0156 -0.9524
  347MOL0     N45722   0.647  11.189   2.148  0.2104  0.8649  0.1901
  347MOL0     N45723   0.711  11.279   2.080 -1.0343  0.1342 -0.2382
  347MOL0     C45724   0.674  11.380   2.725  0.6678  0.2861 -0.1729
  347MOL0     C45725   0.536  11.370   2.739 -0.2867 -0.3447  0.5750
  347MOL0     C45726   0.129  11.236   2.898 -0.2785 -0.2893 -0.2837
  347MOL0     C45727   0.047  11.254   3.018  0.5952 -0.4948  0.6550
  347MOL0     C45728  -0.086  11.218   3.023  0.2653  0.6361  0.9231
  347MOL0     C45729  -0.149  11.148   2.912  1.2263 -1.0843 -0.3193
  347MOL0     O45730  -0.284  11.114   2.931  0.4449  0.5705  1.1996
  347MOL0     C45731  -0.351  11.028   2.829  0.1820 -0.2702  0.5617
  347MOL0     C45732  -0.489  10.974   2.888  0.4034  1.0655  0.2508
  347MOL0     C45733  -0.624  11.021   2.828  0.2071 -1.4101 -0.2896
  347MOL0     C45734  -0.742  10.959   2.915 -0.2764  0.1236 -0.1538
  347MOL0     C45735  -0.780  10.827   2.873 -0.9378 -0.0673 -0.0609
  347MOL0     C45736  -0.794  10.718   2.829  0.2429  0.3558 -0.9291
  347MOL0     C45737  -0.075  11.146   2.791 -1.3483  0.6761  1.0892
  347MOL0     C45738   0.064  11.179   2.789  0.1308 -0.0622  0.1141
  347MOL0     H45739   0.511  11.044   2.840 -1.4318  0.4262  2.8597
  347MOL0     H45740   0.734  11.058   2.819 -0.1262  0.4344  1.1804
  347MOL0     H45741   0.929  11.082   2.782  1.4365 -1.1088  0.0690
  347MOL0     H45742   1.062  11.188   2.735  0.9181 -2.3201  0.3331
  347MOL0     H45743   0.845  11.111   2.539  0.5617 -2.8801  1.3986
  347MOL0     H45744   0.965  10.999   2.587  0.1758 -1.1154 -1.8305
  347MOL0     H45745   1.035  11.107   2.392  2.8211 -2.0777  0.9358
  347MOL0     H45746   1.141  11.142   2.523 -1.4176 -1.8010  0.4534
  347MOL0     H45747   0.919  11.357   2.460  0.3249  4.1079 -0.0099
  347MOL0     H45748   1.089  11.390   2.501  3.1709 -1.4086 -2.7767
  347MOL0     H45749   1.005  11.254   2.233  3.0353 -2.8083  1.4624
  347MOL0     H45750   1.162  11.294   2.290 -0.0391 -0.3071  0.9494
  347MOL0     H45751   1.080  11.442   2.108  1.5190  1.5216 -0.0788
  347MOL0     H45752   1.134  11.523   2.253 -0.2764 -0.0337 -0.4210
  347MOL0     H45753   0.894  11.540   2.337  0.6237 -3.2202 -0.0062
  347MOL0     H45754   0.953  11.652   2.210  1.5811 -1.2157 -0.6257
  347MOL0     H45755   0.866  11.494   2.036  3.1448 -0.0572  1.2432
  347MOL0     H45756   0.739  11.587   2.125 -0.3706 -0.0595  1.3940
  347MOL0     H45757   0.641  11.440   2.336  0.4520  2.6257 -3.0137
  347MOL0     H45758   0.520  11.244   2.459  3.5082  1.0073 -0.6574
  347MOL0     H45759   0.563  11.080   2.397 -2.2949 -2.4990 -1.8073
  347MOL0     H45760   0.377  11.109   2.225  0.1138 -0.9633  0.0263
  347MOL0     H45761   0.307  11.218   2.363  1.1344  1.1046  2.2895
  347MOL0     H45762   0.407  10.937   2.414 -0.0877  0.1547  0.5498
  347MOL0     H45763   0.333  11.053   2.524  2.4564 -1.0031  0.0583
  347MOL0     H45764   0.162  10.878   2.445 -0.6688  0.9374  0.4860
  347MOL0     H45765   0.173  10.940   2.278  0.6207  1.8025 -0.4621
  347MOL0     H45766  -0.062  11.256   2.496  1.2157 -0.1241 -0.0139
  347MOL0     H45767  -0.315  11.245   2.476  1.4734 -0.0317 -0.8468
  347MOL0     H45768  -0.653  10.746   2.226  3.8378  0.2469 -1.7069
  347MOL0     H45769  -0.883  10.741   2.128 -0.5837  1.2072 -0.6170
  347MOL0     H45770  -1.071  11.147   2.010 -2.7788  2.3971  0.7420
  347MOL0     H45771  -1.062  11.075   2.178  0.6854 -2.1045  0.8588
  347MOL0     H45772  -1.256  10.990   1.956  1.2703 -1.4672  1.3519
  347MOL0     H45773  -1.299  11.105   2.090 -3.5804 -0.4866 -3.6043
  347MOL0     H45774  -1.258  10.913   2.246 -1.1651 -1.3008  0.5856
  347MOL0     H45775  -1.208  10.823   2.096  4.6035  2.6877  0.9804
  347MOL0     H45776  -1.498  10.936   2.164 -0.2326 -0.1732  2.9386
  347MOL0     H45777  -1.463  10.853   2.008 -1.1216 -2.9981  0.7299
  347MOL0     H45778  -1.435  10.721   2.274 -1.5613 -0.4468  0.6806
  347MOL0     H45779  -1.403  10.638   2.119 -1.3392 -1.1351 -0.8750
  347MOL0     H45780  -1.641  10.726   2.058  2.0894  0.4191 -0.2736
  347MOL0     H45781  -1.665  10.755   2.228  0.5561  2.4264 -1.8739
  347MOL0     H45782  -1.652  10.495   2.074 -2.1992  2.2362 -1.7692
  347MOL0     H45783  -1.557  10.494   2.225 -0.9085  1.1894  1.2641
  347MOL0     H45784  -1.853  10.526   2.184 -1.0146  0.1184  0.0048
  347MOL0     H45785  -1.786  10.565   2.341 -3.9701 -1.9420 -0.3291
  347MOL0     H45786  -0.852  11.157   2.055 -1.8547 -0.8181  0.4226
  347MOL0     H45787  -0.624  11.174   2.153 -2.6295  1.2609  1.1878
  347MOL0     H45788  -0.268  10.871   2.272  1.9579  0.1058 -3.3421
  347MOL0     H45789  -0.035  10.860   2.333 -1.4596 -1.2374  0.4665
  347MOL0     H45790   0.707  11.480   2.699  0.2451  0.5829  0.4068
  347MOL0     H45791   0.469  11.449   2.709  0.2512 -1.0468 -2.8991
  347MOL0     H45792   0.101  11.300   3.101  0.8093  2.0844 -0.7989
  347MOL0     H45793  -0.151  11.230   3.109 -2.6720  0.4443 -1.1206
  347MOL0     H45794  -0.286  10.947   2.798  0.6198 -1.8693  4.9757
  347MOL0     H45795  -0.382  11.079   2.737 -0.2295  0.1888  0.9452
  347MOL0     H45796  -0.480  10.866   2.872  0.0999  1.5888 -6.7954
  347MOL0     H45797  -0.488  11.009   2.992 -1.3645  1.7150  0.0812
  347MOL0     H45798  -0.626  11.001   2.720 -0.1288 -1.9493 -0.1871
  347MOL0     H45799  -0.635  11.129   2.843  0.1549 -1.5905  1.0028
  347MOL0     H45800  -0.704  10.953   3.018 -2.8709 -0.1029  0.8654
  347MOL0     H45801  -0.838  11.012   2.924 -1.4376 -2.0451  1.1292
  347MOL0     H45802  -0.791  10.623   2.780 -0.5915  0.2054 -0.6945
  347MOL0     H45803  -0.127  11.099   2.708 -0.2495  1.5770 -0.1671
  347MOL0     H45804   0.122  11.174   2.697  2.8653  1.1610  1.6613
  348MOL0     O45805   9.453   5.665   2.055  0.7148  0.1037 -0.0474
  348MOL0     C45806   9.498   5.583   2.138  0.1070 -0.6321 -0.1874
  348MOL0     O45807   9.611   5.587   2.211 -0.1450 -0.3013 -0.1868
  348MOL0     C45808   9.708   5.685   2.186  0.0190 -0.5726 -1.1954
  348MOL0     C45809   9.744   5.724   2.055  0.5544 -0.3131 -0.4970
  348MOL0     C45810   9.851   5.814   2.042  0.6204  0.4044  0.4752
  348MOL0     C45811   9.913   5.873   2.156  1.0848  1.1993  0.1113
  348MOL0     O45812   9.996   5.982   2.145  0.4830 -0.6365  0.7125
  348MOL0     C45813  10.009   6.048   2.008 -0.1246 -0.3209  0.0394
  348MOL0     C45814  10.142   6.134   2.017 -0.1126 -0.3899 -0.5670
  348MOL0     C45815  10.096   6.274   2.065  0.7511  1.3251  0.7507
  348MOL0     C45816  10.204   6.367   2.122 -0.7392 -0.5296 -1.1311
  348MOL0     C45817  10.303   6.416   2.015  0.1708 -0.0623 -0.2894
  348MOL0     C45818  10.221   6.493   1.918  0.4173  0.0038 -0.1775
  348MOL0     C45819  10.302   6.582   1.814 -0.4207 -0.1857  0.5361
  348MOL0     C45820  10.427   6.512   1.745  0.5242  0.0423  0.4698
  348MOL0     N45821  10.369   6.416   1.638  0.1385 -0.0954  0.3181
  348MOL0     C45822  10.289   6.303   1.663  0.0086  0.5365 -0.5147
  348MOL0     C45823  10.257   6.250   1.545  0.6447 -0.4608 -0.3056
  348MOL0     C45824  10.174   6.126   1.507  0.9962 -0.5272  0.5496
  348MOL0     C45825  10.062   6.105   1.612 -0.2022  0.3869  0.6673
  348MOL0     C45826   9.952   6.024   1.559  0.7470  0.6259 -0.0432
  348MOL0     C45827   9.992   5.878   1.526  1.1183  0.2296  0.0984
  348MOL0     O45828  10.035   5.831   1.657  0.3484 -0.4142 -0.0130
  348MOL0     C45829  10.098   5.706   1.650  0.2927 -0.2012  0.7354
  348MOL0     C45830  10.082   5.610   1.554  0.4288 -0.3008 -0.2166
  348MOL0     C45831  10.163   5.493   1.546 -0.1656  0.1312 -0.3217
  348MOL0     C45832  10.268   5.476   1.633 -0.1768  0.0821  0.2831
  348MOL0     C45833  10.362   5.362   1.622  0.7147  0.2104  0.3267
  348MOL0     O45834  10.456   5.338   1.718 -0.0343 -0.4504 -0.2978
  348MOL0     C45835  10.554   5.249   1.713  0.2779 -0.1551 -1.4702
  348MOL0     C45836  10.647   5.250   1.616  0.2378  0.2170  0.5809
  348MOL0     C45837  10.757   5.163   1.624  0.0427 -0.2250 -0.0943
  348MOL0     C45838  10.778   5.079   1.734 -0.1336 -0.0131 -0.2128
  348MOL0     O45839  10.910   5.030   1.739  0.5192  0.1319  0.3630
  348MOL0     C45840  10.966   4.960   1.854 -0.7399  0.5474  0.6988
  348MOL0     C45841  11.098   4.895   1.805 -0.3860 -0.3437 -0.2362
  348MOL0     C45842  11.167   4.832   1.922  0.1946  0.1624 -0.0566
  348MOL0     C45843  11.286   4.752   1.868 -0.3423 -0.9060  0.4119
  348MOL0     C45844  11.366   4.690   1.986  0.2109  0.2126  0.5129
  348MOL0     C45845  11.501   4.635   1.935 -0.4479 -0.2232 -0.2135
  348MOL0     C45846  11.495   4.501   1.869  0.1021  0.1762  0.0406
  348MOL0     C45847  11.409   4.395   1.930  0.0966 -0.8578 -0.0856
  348MOL0    Cl45848  11.445   4.373   2.109 -0.0179  0.2821  0.5352
  348MOL0     C45849  10.683   5.082   1.835  0.4286 -0.2121  0.6665
  348MOL0     C45850  10.565   5.162   1.827 -0.2817 -0.1303  0.3652
  348MOL0     O45851  10.339   5.287   1.526  0.0327  0.5431  0.0410
  348MOL0     C45852  10.280   5.569   1.735 -0.2364 -0.7284  0.4502
  348MOL0     C45853  10.200   5.682   1.739  0.2688  0.4495  0.5294
  348MOL0     N45854  10.319   6.327   1.450  0.2783  0.0528  0.6019
  348MOL0     N45855  10.380   6.434   1.500 -1.2603 -0.1845 -0.1392
  348MOL0     C45856   9.868   5.831   2.280 -0.4885 -0.5901 -0.3582
  348MOL0     C45857   9.779   5.733   2.302  0.1387 -0.0549  0.0610
  348MOL0     C45858   9.421   5.456   2.155  0.8661  0.1683  0.5890
  348MOL0     C45859   9.299   5.438   2.096 -0.1172  0.0730 -0.2238
  348MOL0     C45860   9.218   5.327   2.111 -0.2326  0.2360 -0.4916
  348MOL0     C45861   9.263   5.223   2.192 -0.2730  0.6087 -0.0226
  348MOL0     O45862   9.211   5.100   2.226 -0.4872 -0.3399 -0.2511
  348MOL0     C45863   9.119   5.052   2.126  0.0847 -0.3655  0.5233
  348MOL0     C45864   9.092   4.904   2.138  0.2941  0.3301  0.2865
  348MOL0     C45865   9.225   4.823   2.109 -0.0406  0.5722  0.2254
  348MOL0     C45866   9.338   4.835   2.210 -0.1157 -0.1814  0.9905
  348MOL0     C45867   9.458   4.755   2.172 -0.1205 -0.5399  0.6614
  348MOL0     C45868   9.552   4.680   2.159 -0.1568  0.3755 -0.6344
  348MOL0     C45869   9.387   5.239   2.263  0.2850  0.7324  0.5298
  348MOL0     C45870   9.457   5.358   2.254 -0.2990 -0.1074 -0.5063
  348MOL0     H45871   9.696   5.700   1.961 -0.8912  0.7228 -0.0588
  348MOL0     H45872   9.870   5.839   1.938 -3.0488 -2.7667 -1.1912
  348MOL0     H45873   9.923   6.109   1.980 -1.6070 -1.9818  0.8225
  348MOL0     H45874  10.038   5.988   1.922  0.8156  1.1855 -0.7425
  348MOL0     H45875  10.184   6.138   1.916 -1.5606  2.7187 -1.1434
  348MOL0     H45876  10.219   6.096   2.084  0.0643 -0.0850 -0.5974
  348MOL0     H45877  10.028   6.259   2.150  1.8832  3.7152  2.1788
  348MOL0     H45878  10.036   6.323   1.987 -2.5401 -1.3906  1.2993
  348MOL0     H45879  10.156   6.452   2.170  2.5472 -0.2674  2.1196
  348MOL0     H45880  10.246   6.299   2.197 -3.9245 -1.5387 -0.0923
  348MOL0     H45881  10.352   6.338   1.956 -0.1339 -0.3835 -0.1201
  348MOL0     H45882  10.374   6.489   2.053 -1.4417  1.0957  0.6187
  348MOL0     H45883  10.165   6.575   1.964  2.4689  0.9944  0.6861
  348MOL0     H45884  10.162   6.431   1.850  2.9973 -1.4449 -1.2572
  348MOL0     H45885  10.244   6.620   1.729  1.4015 -0.0977 -0.7152
  348MOL0     H45886  10.346   6.664   1.871  2.3876 -1.4321  0.3266
  348MOL0     H45887  10.487   6.464   1.823 -1.2442 -2.1293  0.6046
  348MOL0     H45888  10.479   6.594   1.697 -5.7460  3.6015 -1.4417
  348MOL0     H45889  10.272   6.263   1.763  1.9604 -0.4441 -0.5139
  348MOL0     H45890  10.239   6.040   1.492  2.5541  1.0440 -2.6984
  348MOL0     H45891  10.132   6.145   1.408  1.5299  3.0018  0.8544
  348MOL0     H45892  10.011   6.201   1.624  0.7941  0.8867  1.0727
  348MOL0     H45893  10.101   6.070   1.708  0.3685 -2.5604 -0.5288
  348MOL0     H45894   9.867   6.017   1.627  2.6397 -0.3682  2.3312
  348MOL0     H45895   9.922   6.072   1.465  0.0176 -1.4047 -0.8925
  348MOL0     H45896  10.066   5.863   1.447  0.2403  1.2213 -0.9438
  348MOL0     H45897   9.900   5.824   1.504  2.5041 -1.2145 -2.6199
  348MOL0     H45898  10.000   5.616   1.484  0.4646 -3.7991 -0.7372
  348MOL0     H45899  10.139   5.426   1.464 -2.5032  3.3376 -2.5071
  348MOL0     H45900  10.635   5.309   1.526 -1.0734 -1.0859 -0.1448
  348MOL0     H45901  10.815   5.160   1.532 -0.1851  0.3230 -0.2640
  348MOL0     H45902  10.895   4.883   1.885 -0.0178  0.4786  2.2879
  348MOL0     H45903  11.001   5.027   1.933  2.8778 -0.6433  0.3071
  348MOL0     H45904  11.171   4.969   1.772 -1.1504  0.5389  0.0210
  348MOL0     H45905  11.078   4.825   1.724  4.7571 -1.5382 -0.8238
  348MOL0     H45906  11.094   4.771   1.977  0.7444  0.3502  0.9091
  348MOL0     H45907  11.208   4.908   1.989  1.8693  1.1857 -2.1102
  348MOL0     H45908  11.244   4.675   1.802  0.0023  0.8855 -2.0414
  348MOL0     H45909  11.355   4.816   1.813  1.1339 -0.9935  2.0932
  348MOL0     H45910  11.305   4.621   2.045  0.9323  0.6330  1.7870
  348MOL0     H45911  11.396   4.773   2.050  1.0692  0.0444  0.3402
  348MOL0     H45912  11.573   4.631   2.017  0.2671  0.0538 -0.8121
  348MOL0     H45913  11.554   4.710   1.875  1.6769 -0.3394  1.4226
  348MOL0     H45914  11.465   4.507   1.764  1.4280  1.9994 -0.2877
  348MOL0     H45915  11.598   4.466   1.885  0.5395  2.1239  1.9845
  348MOL0     H45916  11.429   4.299   1.881  0.1048 -1.1076  0.4069
  348MOL0     H45917  11.303   4.415   1.913  0.8057  1.0615 -2.9511
  348MOL0     H45918  10.688   5.023   1.926  1.2249 -1.3590 -0.0839
  348MOL0     H45919  10.487   5.160   1.903  0.8201  2.2508  1.6564
  348MOL0     H45920  10.364   5.556   1.804  0.3025 -0.4343 -0.1392
  348MOL0     H45921  10.223   5.754   1.817 -0.0228  1.6512 -0.4691
  348MOL0     H45922   9.892   5.896   2.363 -0.5823  1.0645 -1.5677
  348MOL0     H45923   9.739   5.703   2.399  2.2213 -2.0493  0.3927
  348MOL0     H45924   9.254   5.518   2.038  0.5373 -0.4954 -1.5634
  348MOL0     H45925   9.121   5.318   2.064 -2.0271  2.4490  2.4943
  348MOL0     H45926   9.164   5.079   2.030  0.2345 -3.1888 -0.3163
  348MOL0     H45927   9.022   5.102   2.120  0.3882  0.2603  0.8652
  348MOL0     H45928   9.061   4.882   2.240  1.5892  1.4548  0.9491
  348MOL0     H45929   9.009   4.887   2.068  0.8459  2.3592 -0.9616
  348MOL0     H45930   9.266   4.816   2.008  0.6160  0.0934  0.5172
  348MOL0     H45931   9.178   4.725   2.121 -0.4911  0.9765  2.1724
  348MOL0     H45932   9.374   4.932   2.245  1.2396 -1.3713  3.0732
  348MOL0     H45933   9.283   4.800   2.297 -0.4869 -0.0275  0.8202
  348MOL0     H45934   9.636   4.614   2.150 -0.5583  0.0398 -2.0940
  348MOL0     H45935   9.420   5.162   2.332  0.2665  1.0908  0.9466
  348MOL0     H45936   9.539   5.369   2.324 -1.0842  1.1616  0.2541
  349MOL0     O45937   5.092   6.693   3.549  0.0808  0.5289 -0.0153
  349MOL0     C45938   5.049   6.647   3.442 -0.3460 -0.2616 -0.1388
  349MOL0     O45939   4.918   6.621   3.403 -0.0601  0.3320 -0.1400
  349MOL0     C45940   4.824   6.620   3.508 -1.1424  0.3626  1.2445
  349MOL0     C45941   4.710   6.692   3.497  0.4847  0.5487 -0.4994
  349MOL0     C45942   4.622   6.703   3.604 -0.1314  0.6339 -0.9006
  349MOL0     C45943   4.644   6.622   3.721  0.9684 -0.4075  0.0080
  349MOL0     O45944   4.551   6.621   3.816 -0.1796 -0.6917  0.3168
  349MOL0     C45945   4.549   6.527   3.918  0.5042 -0.5770  0.1302
  349MOL0     C45946   4.431   6.557   4.002  0.0092  0.1781  0.5966
  349MOL0     C45947   4.327   6.442   3.980 -0.2465  0.5413 -0.1684
  349MOL0     C45948   4.249   6.408   4.113 -0.6049 -0.3765  0.5145
  349MOL0     C45949   4.170   6.523   4.161  0.7354 -0.2015  0.4568
  349MOL0     C45950   4.075   6.461   4.269  0.9993  0.0340  0.4744
  349MOL0     C45951   4.149   6.436   4.404  0.3301 -0.6487 -0.7350
  349MOL0     C45952   4.173   6.564   4.490  0.0215  0.5063 -0.8947
  349MOL0     N45953   4.051   6.610   4.554 -0.7133  0.1425 -0.7811
  349MOL0     C45954   3.986   6.726   4.527 -0.2568 -0.6885  0.4090
  349MOL0     C45955   3.884   6.731   4.629 -0.6471  0.0839 -0.2742
  349MOL0     C45956   3.804   6.853   4.645 -0.1458 -0.8711  0.2754
  349MOL0     C45957   3.875   6.975   4.704  0.1687 -0.4363 -0.6317
  349MOL0     C45958   3.783   7.087   4.770  0.5536  1.1264  0.8764
  349MOL0     C45959   3.689   7.158   4.677 -0.4155  0.5535  0.5018
  349MOL0     O45960   3.585   7.070   4.619 -1.0551 -0.0933 -0.4141
  349MOL0     C45961   3.503   7.128   4.532  0.2171  0.7721 -0.1437
  349MOL0     C45962   3.538   7.177   4.416  0.0886  0.7252  1.1627
  349MOL0     C45963   3.447   7.225   4.330  1.1733 -0.4838  0.5941
  349MOL0     C45964   3.307   7.226   4.366 -0.4198 -0.2650  0.3698
  349MOL0     C45965   3.195   7.283   4.279 -0.6743 -0.0123 -0.1597
  349MOL0     O45966   3.065   7.277   4.335  0.0661  1.6453  0.0641
  349MOL0     C45967   2.959   7.349   4.278 -0.3468  0.4568  0.1973
  349MOL0     C45968   2.846   7.286   4.299 -0.9544  0.5140 -0.1633
  349MOL0     C45969   2.730   7.347   4.250  0.2908 -0.3302  0.3203
  349MOL0     C45970   2.729   7.458   4.166 -0.5403 -0.8428 -0.3625
  349MOL0     O45971   2.612   7.520   4.121 -0.3969  0.0636 -0.3265
  349MOL0     C45972   2.503   7.431   4.098 -0.1155 -0.2909  0.0497
  349MOL0     C45973   2.395   7.511   4.024 -0.5219  0.2646 -0.3479
  349MOL0     C45974   2.451   7.554   3.887 -0.2695  0.5756  0.6729
  349MOL0     C45975   2.350   7.647   3.815  0.7730 -0.2959 -0.0900
  349MOL0     C45976   2.428   7.736   3.720  0.0613  0.3527  0.4543
  349MOL0     C45977   2.336   7.807   3.619  0.1634  0.0646  0.8392
  349MOL0     C45978   2.393   7.916   3.528 -1.0313  0.0660  0.0763
  349MOL0     C45979   2.297   7.940   3.413  0.4911  0.0980 -0.4513
  349MOL0    Cl45980   2.381   8.050   3.303 -0.3751  0.5167 -0.3499
  349MOL0     C45981   2.860   7.515   4.142  0.3888 -0.6529  0.4767
  349MOL0     C45982   2.971   7.473   4.212 -0.2881  0.8151 -0.2883
  349MOL0     O45983   3.225   7.320   4.165 -0.0085 -0.3485  0.3032
  349MOL0     C45984   3.269   7.171   4.493 -0.0888 -0.0723  0.4756
  349MOL0     C45985   3.370   7.135   4.580 -0.6338  0.3059 -0.3098
  349MOL0     N45986   3.901   6.623   4.708  1.2861  0.1115  0.1154
  349MOL0     N45987   3.997   6.546   4.659  0.0990 -0.4783  0.0397
  349MOL0     C45988   4.752   6.539   3.723 -0.0529  0.6386 -0.0649
  349MOL0     C45989   4.841   6.536   3.617  0.2937  0.9979 -0.0119
  349MOL0     C45990   5.142   6.601   3.337  0.1267 -0.0143 -0.9830
  349MOL0     C45991   5.281   6.577   3.361 -0.9004 -0.2614  0.0890
  349MOL0     C45992   5.373   6.560   3.257 -0.1540 -0.0768 -0.1715
  349MOL0     C45993   5.340   6.564   3.124 -0.2193  0.5774 -0.9323
  349MOL0     O45994   5.417   6.552   3.017  0.0355  0.4520  0.7002
  349MOL0     C45995   5.552   6.511   3.041  0.2788  0.3851 -0.0633
  349MOL0     C45996   5.632   6.489   2.909  0.3454  0.2645  0.8071
  349MOL0     C45997   5.590   6.357   2.852  0.2764  0.2451 -0.0632
  349MOL0     C45998   5.650   6.332   2.714 -0.0952 -0.4062  0.3785
  349MOL0     C45999   5.796   6.338   2.716  0.2119  0.1969  1.3010
  349MOL0     C46000   5.913   6.360   2.735  0.2924  0.2687 -0.5076
  349MOL0     C46001   5.204   6.590   3.099 -0.3166 -0.0402 -0.2164
  349MOL0     C46002   5.107   6.597   3.202 -0.3322  0.0107  0.6914
  349MOL0     H46003   4.693   6.750   3.407  1.1193 -0.9811 -1.6475
  349MOL0     H46004   4.532   6.763   3.595 -0.2304  0.8766  1.2121
  349MOL0     H46005   4.641   6.547   3.975 -0.6179  0.0530  1.7817
  349MOL0     H46006   4.543   6.420   3.895 -3.3745 -0.7779  1.4462
  349MOL0     H46007   4.386   6.653   3.973  1.3655  0.6115 -0.1392
  349MOL0     H46008   4.451   6.575   4.108 -0.0862  1.9072  0.3573
  349MOL0     H46009   4.374   6.350   3.944 -2.0978 -0.9615  0.9951
  349MOL0     H46010   4.251   6.463   3.904  0.0864 -2.0146 -1.3132
  349MOL0     H46011   4.184   6.321   4.098 -3.1466  1.6868 -1.4907
  349MOL0     H46012   4.322   6.377   4.189  1.2166  2.0419 -0.1204
  349MOL0     H46013   4.119   6.574   4.078 -0.0533 -3.1096 -0.9986
  349MOL0     H46014   4.252   6.586   4.195  1.6956 -0.8344 -0.5716
  349MOL0     H46015   4.020   6.372   4.236 -0.7769  1.2674 -0.0322
  349MOL0     H46016   4.000   6.539   4.283  0.3985 -0.7640  1.8432
  349MOL0     H46017   4.091   6.365   4.465  2.1094  0.3729  2.3730
  349MOL0     H46018   4.240   6.378   4.392 -0.7031 -1.9481 -2.8770
  349MOL0     H46019   4.227   6.644   4.438  1.5164  1.3625  1.7176
  349MOL0     H46020   4.244   6.542   4.571 -0.3841  3.7985  0.5204
  349MOL0     H46021   4.022   6.795   4.451  3.1162 -0.9920  1.5650
  349MOL0     H46022   3.719   6.828   4.709  0.5404  1.5666  2.3231
  349MOL0     H46023   3.777   6.890   4.545  0.8628  0.7665  0.5752
  349MOL0     H46024   3.935   7.022   4.625  0.3154  4.1361  1.8548
  349MOL0     H46025   3.940   6.934   4.782  0.7202  0.2862 -0.6922
  349MOL0     H46026   3.724   7.048   4.853 -2.6478  4.8715  0.6977
  349MOL0     H46027   3.841   7.159   4.828  1.7543 -0.1829  1.3475
  349MOL0     H46028   3.753   7.206   4.602 -0.5128 -1.3712 -0.8999
  349MOL0     H46029   3.635   7.241   4.723  1.9658  2.7393 -0.3882
  349MOL0     H46030   3.643   7.181   4.391 -0.2329 -1.6126 -0.9469
  349MOL0     H46031   3.474   7.276   4.238  0.3433  4.4425  2.7289
  349MOL0     H46032   2.835   7.194   4.356 -2.3990  1.0831  0.5499
  349MOL0     H46033   2.653   7.290   4.302  1.3035 -0.8663  1.2717
  349MOL0     H46034   2.462   7.389   4.190  1.3185 -4.1425 -0.8760
  349MOL0     H46035   2.527   7.344   4.036  0.3350  2.3682 -3.8348
  349MOL0     H46036   2.375   7.598   4.087  0.1244  0.9957 -1.1435
  349MOL0     H46037   2.306   7.448   4.014  0.1482 -0.7411 -0.1577
  349MOL0     H46038   2.454   7.459   3.833 -1.3581  0.8078  0.1702
  349MOL0     H46039   2.555   7.584   3.894  0.0040 -0.5454  1.8239
  349MOL0     H46040   2.273   7.591   3.762 -0.9503 -0.3518  2.3589
  349MOL0     H46041   2.304   7.712   3.890 -0.9774  3.1914 -3.7912
  349MOL0     H46042   2.497   7.665   3.674 -2.9091 -0.6032 -3.0250
  349MOL0     H46043   2.488   7.803   3.782 -0.7508 -1.2412  3.1797
  349MOL0     H46044   2.246   7.841   3.671  0.8317  0.3782  1.8263
  349MOL0     H46045   2.298   7.726   3.556 -2.3191  0.5863  1.5711
  349MOL0     H46046   2.397   8.011   3.583  0.4472  0.7415 -1.1213
  349MOL0     H46047   2.490   7.874   3.498 -0.5418  0.4330  1.0793
  349MOL0     H46048   2.203   7.988   3.442 -0.1921 -0.0310 -2.2834
  349MOL0     H46049   2.260   7.849   3.364 -2.2239 -0.4726  2.3995
  349MOL0     H46050   2.857   7.611   4.092 -1.8154 -0.4572  0.8744
  349MOL0     H46051   3.065   7.526   4.203 -0.1167  0.3527 -1.3494
  349MOL0     H46052   3.165   7.164   4.523  0.3774  1.6296  2.6913
  349MOL0     H46053   3.354   7.101   4.682  3.6938  0.6797  0.6922
  349MOL0     H46054   4.782   6.472   3.804 -2.1969 -0.6185 -0.2445
  349MOL0     H46055   4.917   6.459   3.615  0.7315  1.2841  2.5250
  349MOL0     H46056   5.330   6.595   3.457 -1.3877 -0.8570  0.4589
  349MOL0     H46057   5.478   6.555   3.284  1.0284  0.1312 -4.1255
  349MOL0     H46058   5.563   6.423   3.104  3.9751  0.5137 -0.3351
  349MOL0     H46059   5.607   6.591   3.090  0.6102 -1.3467  2.5771
  349MOL0     H46060   5.606   6.572   2.842 -0.5823 -0.6148  0.0503
  349MOL0     H46061   5.738   6.507   2.925  0.5870  1.8402 -2.0084
  349MOL0     H46062   5.481   6.352   2.839  0.0482  3.0356  0.1487
  349MOL0     H46063   5.621   6.277   2.921  5.8314  2.8102  0.9392
  349MOL0     H46064   5.618   6.234   2.675  1.8204 -2.0191  2.6117
  349MOL0     H46065   5.623   6.409   2.641 -0.6184 -0.1296  0.8583
  349MOL0     H46066   6.018   6.361   2.757  0.2425 -0.7434 -0.1865
  349MOL0     H46067   5.171   6.588   2.996  2.0720  2.8481 -1.1657
  349MOL0     H46068   5.009   6.621   3.162  0.1027 -1.0879 -1.1565
  350MOL0     O46069   7.939   2.579   0.566  0.0846  0.4364 -0.5995
  350MOL0     C46070   7.997   2.589   0.460  0.1135 -0.9128  0.5032
  350MOL0     O46071   7.940   2.582   0.334 -0.0550  0.3545 -0.6067
  350MOL0     C46072   7.806   2.535   0.308 -1.0013  0.1838  0.1144
  350MOL0     C46073   7.730   2.461   0.403 -0.3026 -0.4023 -0.6261
  350MOL0     C46074   7.603   2.402   0.374  0.4598  0.2144 -0.1231
  350MOL0     C46075   7.543   2.436   0.246 -0.6170  0.2535  0.5315
  350MOL0     O46076   7.420   2.390   0.222 -0.5584  0.2914  0.2435
  350MOL0     C46077   7.317   2.484   0.228 -0.0335 -0.1340 -0.1824
  350MOL0     C46078   7.200   2.417   0.166 -0.4669 -0.5293  1.1940
  350MOL0     C46079   7.068   2.507   0.174  0.3894  1.1330 -0.0889
  350MOL0     C46080   6.990   2.494   0.040  0.6729  0.7081 -0.8116
  350MOL0     C46081   6.847   2.546   0.048  0.0230 -0.2809 -0.3755
  350MOL0     C46082   6.820   2.703   0.057  0.7081  0.5559 -0.2313
  350MOL0     C46083   6.668   2.739   0.076 -0.2893 -0.1140 -0.6379
  350MOL0     C46084   6.622   2.754   0.225  0.3769 -0.6789  0.1716
  350MOL0     N46085   6.481   2.757   0.262  1.0022  0.6651  0.8023
  350MOL0     C46086   6.397   2.859   0.291 -0.5283  0.1335  0.0461
  350MOL0     C46087   6.276   2.811   0.318 -0.0871 -0.4279 -0.2259
  350MOL0     C46088   6.158   2.890   0.352  0.0631 -0.5257  0.9490
  350MOL0     C46089   6.042   2.832   0.261  1.2935  0.4537  0.2066
  350MOL0     C46090   5.905   2.829   0.319  0.6223 -0.3102 -0.6609
  350MOL0     C46091   5.873   2.727   0.426  0.2839 -0.7384  0.3223
  350MOL0     O46092   5.738   2.756   0.473 -0.4018 -0.1833  0.0071
  350MOL0     C46093   5.691   2.700   0.590 -0.3392 -0.7830  0.1000
  350MOL0     C46094   5.570   2.754   0.619  0.7591 -0.1983  0.1572
  350MOL0     C46095   5.494   2.681   0.713  0.0462 -0.0143 -1.2476
  350MOL0     C46096   5.533   2.555   0.767 -0.3272 -0.5056 -0.6425
  350MOL0     C46097   5.452   2.476   0.861 -0.7568 -0.5633 -0.0149
  350MOL0     O46098   5.514   2.380   0.933  0.3435 -0.7160  0.2744
  350MOL0     C46099   5.437   2.316   1.030  0.7657 -0.1848  0.0897
  350MOL0     C46100   5.496   2.294   1.148  0.0563 -0.6140  0.4522
  350MOL0     C46101   5.420   2.237   1.255  0.2250 -0.1807 -0.0423
  350MOL0     C46102   5.295   2.185   1.230  0.2164 -0.1859  0.6385
  350MOL0     O46103   5.231   2.112   1.328  0.2777  0.6159  0.4658
  350MOL0     C46104   5.085   2.102   1.320  0.2025 -0.7335  0.0180
  350MOL0     C46105   5.049   1.957   1.274 -0.3442 -0.0863 -0.3969
  350MOL0     C46106   4.906   1.926   1.253  0.1634  0.2005  0.0912
  350MOL0     C46107   4.874   1.776   1.260 -0.5798  1.5839  0.0992
  350MOL0     C46108   4.932   1.693   1.374 -0.7220 -0.5725 -0.9253
  350MOL0     C46109   4.878   1.551   1.382 -1.7856 -0.2427  0.4632
  350MOL0     C46110   4.727   1.528   1.343 -0.0516  0.8809 -0.1807
  350MOL0     C46111   4.627   1.599   1.440  0.6054  0.2442 -0.3373
  350MOL0    Cl46112   4.606   1.494   1.578 -0.5024  0.2134  0.0537
  350MOL0     C46113   5.236   2.201   1.104  0.2109 -0.5545 -0.2758
  350MOL0     C46114   5.312   2.264   1.005  0.9450 -1.1932 -0.9450
  350MOL0     O46115   5.336   2.513   0.868  0.4547 -0.3320  0.1850
  350MOL0     C46116   5.661   2.513   0.732 -0.2837 -0.8926  0.8538
  350MOL0     C46117   5.736   2.586   0.647 -0.7473  0.3361  0.9017
  350MOL0     N46118   6.302   2.671   0.322  0.6088 -0.0326 -0.2240
  350MOL0     N46119   6.422   2.637   0.299  0.2527 -0.6381  0.3378
  350MOL0     C46120   7.612   2.507   0.159 -0.2430  0.1518  0.4520
  350MOL0     C46121   7.748   2.552   0.180  0.0871  0.5477  0.8814
  350MOL0     C46122   8.142   2.626   0.472  0.5949  0.2045  0.1708
  350MOL0     C46123   8.212   2.686   0.363  0.1536  1.7084 -0.0234
  350MOL0     C46124   8.355   2.697   0.366 -0.6773 -0.5609  0.1346
  350MOL0     C46125   8.421   2.684   0.484 -0.5106  0.1935 -0.5475
  350MOL0     O46126   8.558   2.714   0.487 -0.6680  0.1561  0.0829
  350MOL0     C46127   8.647   2.666   0.584 -0.6713  0.7186  0.2644
  350MOL0     C46128   8.783   2.686   0.520 -0.9007 -0.1908 -0.4596
  350MOL0     C46129   8.903   2.658   0.621  1.4814  0.0296 -0.0423
  350MOL0     C46130   9.024   2.594   0.563  0.1676 -0.0196 -0.8824
  350MOL0     C46131   9.086   2.672   0.459 -0.2711  0.4665  0.0997
  350MOL0     C46132   9.137   2.731   0.373 -0.3303 -0.0503 -0.6223
  350MOL0     C46133   8.350   2.635   0.604 -1.2055 -1.0187  0.1830
  350MOL0     C46134   8.214   2.606   0.588  0.2606 -0.5815  0.4653
  350MOL0     H46135   7.778   2.436   0.498  0.2009 -3.0038 -1.4902
  350MOL0     H46136   7.562   2.351   0.460  2.9977  1.0072  1.6948
  350MOL0     H46137   7.346   2.575   0.173  1.4349 -1.5476 -1.8765
  350MOL0     H46138   7.297   2.503   0.334  2.5787 -0.8558  0.5057
  350MOL0     H46139   7.170   2.325   0.218  0.1025 -0.3002  1.9470
  350MOL0     H46140   7.227   2.393   0.063  4.3409  3.0406  1.2837
  350MOL0     H46141   7.091   2.611   0.202  0.4931  0.0093  5.0937
  350MOL0     H46142   6.992   2.473   0.245 -1.5065  1.1855 -2.0163
  350MOL0     H46143   7.051   2.527  -0.045  1.7391 -1.7657 -1.0941
  350MOL0     H46144   6.986   2.385   0.038  0.0768  0.6031  2.1272
  350MOL0     H46145   6.798   2.505   0.136 -0.6182 -0.2849 -0.7269
  350MOL0     H46146   6.779   2.524  -0.035 -0.0601 -0.2024 -0.3279
  350MOL0     H46147   6.853   2.749  -0.037  2.3257  2.1937  1.0538
  350MOL0     H46148   6.881   2.747   0.137 -1.0293  0.9406  0.9212
  350MOL0     H46149   6.659   2.842   0.040  2.2653  0.2672 -0.3591
  350MOL0     H46150   6.597   2.676   0.022 -3.2886  3.3067 -1.1024
  350MOL0     H46151   6.668   2.849   0.254  0.1266  0.1471 -1.9321
  350MOL0     H46152   6.669   2.669   0.275  3.0555  0.2462 -0.6183
  350MOL0     H46153   6.427   2.963   0.285 -2.5113  0.9471  2.6484
  350MOL0     H46154   6.159   2.999   0.349 -0.3207 -0.5057  1.3815
  350MOL0     H46155   6.135   2.867   0.457  2.5861 -1.5014  1.3541
  350MOL0     H46156   6.064   2.728   0.233 -2.9936 -0.6134  0.1439
  350MOL0     H46157   6.037   2.887   0.167  0.9896 -1.6576 -1.0963
  350MOL0     H46158   5.900   2.931   0.358  3.4485  1.2310 -3.8031
  350MOL0     H46159   5.835   2.820   0.235 -1.4153  0.6118  0.8611
  350MOL0     H46160   5.952   2.737   0.501  1.1862  1.7200 -0.8216
  350MOL0     H46161   5.888   2.628   0.381  2.9348  0.1191 -0.9200
  350MOL0     H46162   5.533   2.842   0.568  1.4952 -1.7649 -3.4389
  350MOL0     H46163   5.397   2.723   0.737  0.6827  0.3950  0.8043
  350MOL0     H46164   5.598   2.324   1.173 -0.1212 -2.1596  3.5118
  350MOL0     H46165   5.466   2.229   1.354 -0.5094 -2.6708  0.1661
  350MOL0     H46166   5.032   2.184   1.271 -0.5851 -1.4614 -0.3651
  350MOL0     H46167   5.042   2.122   1.419  1.0750  0.7369  0.1307
  350MOL0     H46168   5.087   1.890   1.352 -1.4990  0.7087  0.9027
  350MOL0     H46169   5.101   1.926   1.183 -1.8743 -2.1831 -0.6209
  350MOL0     H46170   4.880   1.966   1.155 -0.4457 -0.2486  0.0642
  350MOL0     H46171   4.843   1.976   1.328  0.0156  0.1456  0.0034
  350MOL0     H46172   4.765   1.777   1.259 -0.6062  0.9864  1.1936
  350MOL0     H46173   4.918   1.738   1.167  2.8830  3.6676  0.7106
  350MOL0     H46174   4.909   1.741   1.469  0.5570 -1.3206 -0.2151
  350MOL0     H46175   5.039   1.689   1.351 -0.8401  1.5681 -2.1085
  350MOL0     H46176   4.903   1.514   1.481 -0.1336  3.6224  1.7111
  350MOL0     H46177   4.934   1.494   1.308 -2.5055 -0.5740  0.1568
  350MOL0     H46178   4.703   1.577   1.247  0.0577  0.2832 -0.5162
  350MOL0     H46179   4.711   1.421   1.328  2.4026  0.7836 -3.2635
  350MOL0     H46180   4.535   1.601   1.382  0.1258 -0.2270  0.3961
  350MOL0     H46181   4.653   1.703   1.461 -0.6217  0.5371 -0.2358
  350MOL0     H46182   5.148   2.147   1.071  0.0553 -0.2604 -0.3462
  350MOL0     H46183   5.272   2.281   0.905 -1.7433  0.2200  0.2538
  350MOL0     H46184   5.698   2.418   0.769 -1.3799 -0.2983  3.7811
  350MOL0     H46185   5.836   2.555   0.621 -0.5251  0.3495  1.7203
  350MOL0     H46186   7.561   2.532   0.066  1.0680  3.0805  0.3982
  350MOL0     H46187   7.798   2.622   0.113  0.7493  0.2926  1.0951
  350MOL0     H46188   8.160   2.712   0.272  0.6606 -0.8019 -1.1414
  350MOL0     H46189   8.394   2.735   0.272 -4.0333  2.1346 -0.3683
  350MOL0     H46190   8.620   2.564   0.613 -0.5037  0.2295 -1.2137
  350MOL0     H46191   8.644   2.733   0.670 -1.7675  0.0829  0.7458
  350MOL0     H46192   8.792   2.601   0.451 -3.6521 -3.2061  2.5052
  350MOL0     H46193   8.795   2.769   0.451 -2.0494  0.3288 -0.0467
  350MOL0     H46194   8.861   2.600   0.704 -1.1094  0.5931 -0.8888
  350MOL0     H46195   8.935   2.751   0.671  0.6358 -0.0648  0.6948
  350MOL0     H46196   9.101   2.569   0.636 -0.9506 -1.5872 -0.1826
  350MOL0     H46197   8.975   2.510   0.513 -4.3594  1.1232  1.1290
  350MOL0     H46198   9.180   2.775   0.286 -2.2017  1.3417 -0.8949
  350MOL0     H46199   8.400   2.623   0.699 -0.1873  0.4220 -0.1435
  350MOL0     H46200   8.159   2.564   0.672 -1.0240 -2.2632 -1.1097
  351MOL0     O46201   3.048   9.369   6.510  0.0391  0.0437 -0.1108
  351MOL0     C46202   2.971   9.457   6.471  0.0205 -0.0562  0.1883
  351MOL0     O46203   3.003   9.556   6.379 -0.3072 -0.7140  0.6514
  351MOL0     C46204   3.128   9.554   6.324 -0.1266 -0.4356  0.0816
  351MOL0     C46205   3.153   9.537   6.190 -0.7650 -0.4235  0.1665
  351MOL0     C46206   3.283   9.544   6.133  0.3316  0.9448 -0.8518
  351MOL0     C46207   3.396   9.583   6.208  0.3944 -0.3195 -0.4683
  351MOL0     O46208   3.524   9.596   6.155 -0.4291 -0.9362  0.0322
  351MOL0     C46209   3.631   9.647   6.243  0.8615  0.3433  0.6219
  351MOL0     C46210   3.756   9.612   6.164 -0.1274  0.2962 -0.1410
  351MOL0     C46211   3.885   9.659   6.230  0.0075 -1.2684  0.9672
  351MOL0     C46212   3.912   9.628   6.375  0.0024 -0.8495  0.1842
  351MOL0     C46213   4.056   9.683   6.414 -0.0649  0.1960  0.5464
  351MOL0     C46214   4.061   9.719   6.567 -0.1353  0.0351 -0.2802
  351MOL0     C46215   4.029   9.593   6.650 -0.9668 -0.2635 -0.3894
  351MOL0     C46216   4.041   9.605   6.808  0.7859  0.4312  0.4886
  351MOL0     N46217   3.977   9.726   6.862  0.4531  0.1712 -0.6062
  351MOL0     C46218   3.857   9.782   6.827  0.1935  0.7925 -0.1289
  351MOL0     C46219   3.850   9.896   6.900 -0.2865  0.5499  0.7437
  351MOL0     C46220   3.733   9.980   6.899  0.4514 -0.2953 -0.5804
  351MOL0     C46221   3.754  10.128   6.865  0.6727 -0.2999  0.5609
  351MOL0     C46222   3.810  10.162   6.728  0.4913  0.1817 -0.0778
  351MOL0     C46223   3.848  10.313   6.726  0.7779 -0.4668  0.2702
  351MOL0     O46224   3.973  10.333   6.788 -0.6017  0.8987 -0.3583
  351MOL0     C46225   4.077  10.270   6.738 -0.0790  0.5400  0.3513
  351MOL0     C46226   4.130  10.155   6.796  0.7909 -0.4903  0.4442
  351MOL0     C46227   4.223  10.079   6.718  0.1197  0.2067 -0.0268
  351MOL0     C46228   4.281  10.133   6.597  0.4872  0.1621  0.4396
  351MOL0     C46229   4.382  10.057   6.525 -0.3939 -0.5641 -0.7820
  351MOL0     O46230   4.435  10.127   6.423 -0.7495 -0.1761  0.1211
  351MOL0     C46231   4.543  10.084   6.353  0.3751 -0.4803  0.0209
  351MOL0     C46232   4.665  10.039   6.415  0.6759 -0.8910 -0.6281
  351MOL0     C46233   4.771  10.023   6.324 -0.2800  0.1843  0.1995
  351MOL0     C46234   4.767  10.030   6.181 -0.4526 -0.4454  1.2777
  351MOL0     O46235   4.860   9.980   6.094 -0.1589 -0.0520  0.1715
  351MOL0     C46236   4.981  10.048   6.107  0.4878  0.1703 -0.0548
  351MOL0     C46237   5.068  10.034   5.984 -0.5352 -0.3010  0.0730
  351MOL0     C46238   5.153   9.904   5.979 -0.5009 -0.2728 -0.1458
  351MOL0     C46239   5.259   9.893   6.088  1.1807  0.1798  0.7437
  351MOL0     C46240   5.285   9.748   6.118  0.3272 -0.0451 -0.2383
  351MOL0     C46241   5.426   9.738   6.190 -0.4750  0.7817 -0.3735
  351MOL0     C46242   5.445   9.605   6.261 -0.3787 -0.0723 -0.1874
  351MOL0     C46243   5.454   9.479   6.173  0.4654 -0.5980  0.9369
  351MOL0    Cl46244   5.515   9.341   6.285  0.2412  0.4532  0.0449
  351MOL0     C46245   4.639  10.062   6.127 -0.8417  0.5197  0.3378
  351MOL0     C46246   4.533  10.098   6.214  0.6349  0.6151 -0.2355
  351MOL0     O46247   4.413   9.951   6.572  0.2426 -0.4222  0.7804
  351MOL0     C46248   4.224  10.256   6.546 -0.5753 -0.2269  0.4928
  351MOL0     C46249   4.125  10.320   6.615 -0.3667 -0.0301  0.5545
  351MOL0     N46250   3.964   9.898   6.982  0.7642 -0.0347  0.1936
  351MOL0     N46251   4.030   9.794   6.969  1.3027 -0.3296 -0.2478
  351MOL0     C46252   3.371   9.602   6.350  0.1830 -0.3753  0.5303
  351MOL0     C46253   3.242   9.590   6.404 -0.1303  0.6961 -0.4672
  351MOL0     C46254   2.839   9.455   6.534  0.4546 -0.4706 -0.0566
  351MOL0     C46255   2.739   9.534   6.468 -0.1411  0.3028  0.4260
  351MOL0     C46256   2.608   9.534   6.510  0.3480 -0.8171  0.6096
  351MOL0     C46257   2.569   9.459   6.621  0.5098 -0.0791 -0.1873
  351MOL0     O46258   2.431   9.459   6.651 -0.6370 -0.2695 -0.0493
  351MOL0     C46259   2.393   9.389   6.771  0.2409 -1.2468  0.4698
  351MOL0     C46260   2.428   9.447   6.904 -0.3459  0.3985 -0.0962
  351MOL0     C46261   2.378   9.591   6.927  0.5102 -0.2501  0.3958
  351MOL0     C46262   2.324   9.634   7.068 -0.4602 -0.3560 -0.2618
  351MOL0     C46263   2.419   9.615   7.180  0.6684 -0.7159  1.5532
  351MOL0     C46264   2.503   9.598   7.269  0.6603  0.6696 -0.1766
  351MOL0     C46265   2.666   9.380   6.684 -0.5281 -0.2929 -0.3660
  351MOL0     C46266   2.796   9.374   6.635 -0.6194  1.0758 -0.2268
  351MOL0     H46267   3.075   9.513   6.119  0.3668  0.9103 -1.6220
  351MOL0     H46268   3.293   9.517   6.029  0.7528 -0.4082 -0.4838
  351MOL0     H46269   3.638   9.608   6.345  3.7021 -2.9306 -0.6362
  351MOL0     H46270   3.632   9.755   6.256  1.4277  0.3862  0.2568
  351MOL0     H46271   3.746   9.654   6.063  3.5588  0.3715 -0.6194
  351MOL0     H46272   3.754   9.504   6.148  1.2151  0.3181 -0.6146
  351MOL0     H46273   3.892   9.768   6.218 -0.4575 -1.5414 -3.3321
  351MOL0     H46274   3.969   9.620   6.172  0.5457 -2.6920  2.6443
  351MOL0     H46275   3.834   9.676   6.435  1.7220  3.6345 -0.7546
  351MOL0     H46276   3.915   9.521   6.394 -0.2363 -0.9432 -0.2949
  351MOL0     H46277   4.097   9.753   6.340  2.1574 -1.1497  0.3960
  351MOL0     H46278   4.122   9.598   6.395  2.8683  2.6058 -0.9416
  351MOL0     H46279   4.001   9.810   6.579  2.3385  1.7628 -0.2435
  351MOL0     H46280   4.167   9.738   6.590  0.3848 -1.9211 -0.9092
  351MOL0     H46281   3.931   9.559   6.618 -1.0219  0.2272 -0.7540
  351MOL0     H46282   4.088   9.505   6.623 -0.3786 -0.4007  1.1766
  351MOL0     H46283   4.148   9.615   6.831  0.6418 -2.6163  3.3098
  351MOL0     H46284   3.993   9.517   6.850 -1.3611  1.1331 -0.3670
  351MOL0     H46285   3.789   9.743   6.751  0.5704  0.3990 -0.2685
  351MOL0     H46286   3.694   9.985   7.001  0.9416  1.3180 -0.4418
  351MOL0     H46287   3.659   9.943   6.827  0.7591  2.5195 -2.4882
  351MOL0     H46288   3.826  10.159   6.942  1.6674 -3.5615  1.0956
  351MOL0     H46289   3.657  10.177   6.865  0.1529 -1.2991 -0.2087
  351MOL0     H46290   3.899  10.101   6.710  0.5556  0.6625 -1.5463
  351MOL0     H46291   3.742  10.137   6.646 -0.2874 -1.7889  1.0973
  351MOL0     H46292   3.770  10.368   6.780  0.5048 -1.1455  0.5749
  351MOL0     H46293   3.850  10.342   6.621 -0.4541  1.1105  0.6434
  351MOL0     H46294   4.074  10.112   6.878  1.4144 -0.4692  0.8876
  351MOL0     H46295   4.251   9.990   6.773 -1.2105 -0.1925  0.0278
  351MOL0     H46296   4.670  10.045   6.523  0.4466  0.0416 -0.6607
  351MOL0     H46297   4.869   9.987   6.354 -0.1159 -0.2756 -0.8326
  351MOL0     H46298   5.041  10.032   6.197  1.4141  0.9640 -0.5152
  351MOL0     H46299   4.949  10.152   6.110  2.0290  0.8362 -2.6904
  351MOL0     H46300   5.133  10.121   5.976 -1.3121  0.0853 -3.1705
  351MOL0     H46301   5.002  10.042   5.898 -1.6840  3.5519  1.1493
  351MOL0     H46302   5.197   9.892   5.879 -1.5615  1.1454 -0.8276
  351MOL0     H46303   5.082   9.821   5.986 -1.0889  0.2164 -0.2253
  351MOL0     H46304   5.349   9.950   6.066  1.3458  0.1937  1.4324
  351MOL0     H46305   5.223   9.930   6.185  1.4232 -2.9249  2.1157
  351MOL0     H46306   5.289   9.690   6.025 -2.8222  3.2329 -2.7289
  351MOL0     H46307   5.199   9.703   6.168 -0.1102  1.9392  0.9186
  351MOL0     H46308   5.449   9.818   6.262  1.5430  0.7615 -0.9368
  351MOL0     H46309   5.507   9.741   6.117  0.6949  1.7631  0.9025
  351MOL0     H46310   5.536   9.614   6.320  0.9125  1.4194 -2.2617
  351MOL0     H46311   5.370   9.582   6.338 -1.3676  0.4925 -0.9575
  351MOL0     H46312   5.525   9.492   6.091 -0.0601 -2.9583  0.0259
  351MOL0     H46313   5.360   9.441   6.133  2.4476 -3.0316 -1.8161
  351MOL0     H46314   4.629  10.053   6.020 -2.8191 -0.2835  0.5550
  351MOL0     H46315   4.441  10.138   6.171  1.8672  2.2375 -1.5197
  351MOL0     H46316   4.271  10.300   6.459 -1.5071 -2.8744 -1.4785
  351MOL0     H46317   4.075  10.411   6.583 -0.8387  0.0098  1.3743
  351MOL0     H46318   3.450   9.649   6.410 -1.1038  2.5221  0.1370
  351MOL0     H46319   3.228   9.626   6.505  2.1879  2.0970 -0.5628
  351MOL0     H46320   2.772   9.577   6.374  0.2077 -4.2845 -1.8268
  351MOL0     H46321   2.538   9.595   6.453  2.3975  0.8293 -0.2643
  351MOL0     H46322   2.411   9.281   6.771 -3.1777 -1.9530  1.4767
  351MOL0     H46323   2.286   9.411   6.773  0.5540  0.8386  4.3836
  351MOL0     H46324   2.368   9.390   6.975 -1.1473  3.7838  2.1982
  351MOL0     H46325   2.535   9.450   6.926 -0.3312 -1.4687  0.2547
  351MOL0     H46326   2.293   9.601   6.859  1.3506 -0.5716 -0.7266
  351MOL0     H46327   2.459   9.659   6.901 -0.2847  0.3179 -0.6454
  351MOL0     H46328   2.298   9.740   7.066 -3.1953 -0.9449  0.7225
  351MOL0     H46329   2.239   9.568   7.086 -1.4095  0.4752 -1.5866
  351MOL0     H46330   2.573   9.582   7.349 -1.5862 -0.5824  1.6619
  351MOL0     H46331   2.634   9.313   6.763  0.9606 -1.5383 -0.7713
  351MOL0     H46332   2.872   9.317   6.687 -0.7078  0.9637 -0.2207
  352MOL0     O46333   9.742   7.296   4.384  0.5551  0.7003 -0.2233
  352MOL0     C46334   9.797   7.337   4.488 -0.3932  0.0016  0.8570
  352MOL0     O46335   9.740   7.404   4.582  0.4844 -0.2518  0.1420
  352MOL0     C46336   9.604   7.405   4.590  0.4694  0.6267 -0.0332
  352MOL0     C46337   9.517   7.472   4.502 -0.0687  0.7568 -0.4037
  352MOL0     C46338   9.375   7.476   4.512 -0.3105 -0.4217 -0.5824
  352MOL0     C46339   9.316   7.409   4.615  0.7681 -0.1711 -0.5240
  352MOL0     O46340   9.180   7.419   4.633 -0.0809 -0.5516  1.0251
  352MOL0     C46341   9.105   7.377   4.520 -0.1380  0.5946  1.3329
  352MOL0     C46342   8.964   7.354   4.561 -0.3043 -1.1829  0.2307
  352MOL0     C46343   8.876   7.338   4.437  0.1086  0.2489  0.7516
  352MOL0     C46344   8.731   7.298   4.469 -0.5087 -0.0367 -0.2521
  352MOL0     C46345   8.655   7.272   4.344  0.0723 -0.0063  0.1412
  352MOL0     C46346   8.696   7.165   4.256  0.0652  0.5736  0.1701
  352MOL0     C46347   8.580   7.101   4.183 -0.8853 -1.0941  0.4938
  352MOL0     C46348   8.491   7.206   4.103  0.0274 -0.4881 -1.1541
  352MOL0     N46349   8.470   7.174   3.968 -0.2199  0.0432  0.3828
  352MOL0     C46350   8.425   7.051   3.921 -0.3114 -0.3614 -0.1046
  352MOL0     C46351   8.423   7.056   3.787 -0.1308  0.3879  0.4638
  352MOL0     C46352   8.354   6.949   3.697 -0.0237 -0.1357  0.0339
  352MOL0     C46353   8.416   6.802   3.711 -0.1566 -0.3607  0.2224
  352MOL0     C46354   8.340   6.722   3.812  0.4629  1.8129  0.1478
  352MOL0     C46355   8.215   6.651   3.751  0.3715 -0.6117  0.2937
  352MOL0     O46356   8.114   6.753   3.714  0.2595  0.0730 -0.2354
  352MOL0     C46357   8.006   6.718   3.636  0.4720  1.1599 -0.0676
  352MOL0     C46358   8.002   6.603   3.555 -0.1230 -0.5239  0.1807
  352MOL0     C46359   7.882   6.563   3.489 -0.3568 -0.3545 -0.0474
  352MOL0     C46360   7.767   6.644   3.495 -1.0023 -0.3149  0.2875
  352MOL0     C46361   7.655   6.618   3.414  0.4767  0.8064  0.5208
  352MOL0     O46362   7.673   6.508   3.330  0.0236 -0.9420  0.0974
  352MOL0     C46363   7.566   6.473   3.245 -0.9285 -0.8244 -0.8099
  352MOL0     C46364   7.531   6.339   3.229  0.6621 -0.2108 -0.0573
  352MOL0     C46365   7.440   6.297   3.128  0.3067 -0.1283  0.7453
  352MOL0     C46366   7.369   6.393   3.044  0.0937  0.0216 -0.3008
  352MOL0     O46367   7.289   6.356   2.934 -0.1456  1.2159  0.0488
  352MOL0     C46368   7.249   6.446   2.826 -0.5686 -0.4894  0.2063
  352MOL0     C46369   7.187   6.362   2.706  1.1377 -0.3825  0.1654
  352MOL0     C46370   7.044   6.336   2.732  0.3988  0.2684  0.2347
  352MOL0     C46371   6.973   6.274   2.617  0.8616 -0.2284  0.6800
  352MOL0     C46372   6.846   6.203   2.653 -0.2194  0.4062 -0.6420
  352MOL0     C46373   6.872   6.060   2.704 -1.0819 -0.3165 -0.0965
  352MOL0     C46374   6.741   5.981   2.722 -0.2865 -0.5058  0.6599
  352MOL0     C46375   6.772   5.847   2.792  0.9316 -0.6723 -0.2945
  352MOL0    Cl46376   6.899   5.757   2.694 -0.3103 -0.0287  0.5417
  352MOL0     C46377   7.395   6.525   3.075 -0.9766  0.3513  0.3970
  352MOL0     C46378   7.509   6.563   3.155 -0.2501  0.5548 -0.3056
  352MOL0     O46379   7.546   6.674   3.439  0.4326 -0.0172  0.4433
  352MOL0     C46380   7.772   6.757   3.570  0.5945  0.0769  0.2874
  352MOL0     C46381   7.886   6.792   3.643 -0.0861  0.5957 -0.4475
  352MOL0     N46382   8.465   7.178   3.748 -0.0513 -0.4624  0.2919
  352MOL0     N46383   8.489   7.253   3.859 -0.0525 -0.3494  0.3230
  352MOL0     C46384   9.393   7.337   4.701  0.8502  0.4624  0.0844
  352MOL0     C46385   9.530   7.339   4.689 -0.2606  0.5153 -0.8842
  352MOL0     C46386   9.945   7.327   4.485  0.9836  1.3881  0.5414
  352MOL0     C46387  10.022   7.425   4.526 -0.5226  0.3153 -0.1679
  352MOL0     C46388  10.163   7.397   4.543  0.2149 -0.2867  0.1641
  352MOL0     C46389  10.224   7.268   4.506 -0.2281  0.7243 -1.3960
  352MOL0     O46390  10.354   7.235   4.499  0.2323 -0.6876  0.3933
  352MOL0     C46391  10.456   7.332   4.523 -0.0243 -0.4955  0.0741
  352MOL0     C46392  10.591   7.262   4.545 -1.0048 -0.1211  0.0570
  352MOL0     C46393  10.658   7.217   4.418 -0.3816  0.2201 -0.4938
  352MOL0     C46394  10.776   7.309   4.370 -0.2366  0.3110  0.8172
  352MOL0     C46395  10.884   7.310   4.463 -0.4500 -0.5309  0.4764
  352MOL0     C46396  10.977   7.322   4.543  0.5655  0.9554 -1.0729
  352MOL0     C46397  10.130   7.168   4.468 -0.0930 -0.1202 -0.5389
  352MOL0     C46398   9.996   7.195   4.464 -0.3009 -0.3575 -0.3065
  352MOL0     H46399   9.564   7.526   4.420  1.9537 -0.6887 -0.2973
  352MOL0     H46400   9.324   7.547   4.448 -0.3799  1.3248  1.3244
  352MOL0     H46401   9.158   7.283   4.498 -2.1940 -0.5753  1.1177
  352MOL0     H46402   9.112   7.439   4.431 -1.0930 -1.1330 -0.0169
  352MOL0     H46403   8.933   7.435   4.628 -0.7506 -0.9595 -0.2406
  352MOL0     H46404   8.964   7.262   4.620  0.7565 -0.9226  0.6543
  352MOL0     H46405   8.919   7.263   4.370  1.2840  0.3580  1.3393
  352MOL0     H46406   8.857   7.434   4.389 -0.9456  0.2568  1.1504
  352MOL0     H46407   8.748   7.201   4.518 -1.0931 -0.8106 -1.5451
  352MOL0     H46408   8.678   7.375   4.526  3.4538  3.6751 -1.0434
  352MOL0     H46409   8.664   7.364   4.284 -1.0338 -0.0592 -0.1344
  352MOL0     H46410   8.554   7.246   4.378 -0.2307  1.4374  0.4183
  352MOL0     H46411   8.728   7.080   4.317 -0.7939  0.6362  0.7279
  352MOL0     H46412   8.777   7.196   4.190 -0.9486  1.1434 -0.8218
  352MOL0     H46413   8.633   7.039   4.110  1.9026  0.6274  0.9313
  352MOL0     H46414   8.513   7.038   4.241 -0.9443 -1.5328 -0.0375
  352MOL0     H46415   8.549   7.298   4.104  2.6778 -2.0492 -0.0246
  352MOL0     H46416   8.395   7.226   4.149  0.3871  0.8973 -0.9617
  352MOL0     H46417   8.382   6.977   3.987  0.3916 -0.7584 -0.0803
  352MOL0     H46418   8.375   6.980   3.594  1.7718  0.4690  0.5333
  352MOL0     H46419   8.246   6.959   3.713  0.1212  3.1487 -0.2758
  352MOL0     H46420   8.520   6.822   3.736 -0.1923 -0.2414  0.2748
  352MOL0     H46421   8.417   6.759   3.611  2.4533  3.0210 -1.4087
  352MOL0     H46422   8.404   6.654   3.869 -1.8324 -1.3209 -0.7372
  352MOL0     H46423   8.294   6.787   3.888  0.7113  1.1040  0.9216
  352MOL0     H46424   8.169   6.572   3.811 -1.7469 -1.1707 -1.8879
  352MOL0     H46425   8.248   6.596   3.663 -3.9029  0.2901 -2.1298
  352MOL0     H46426   8.094   6.544   3.552 -0.1926 -0.6016 -1.6956
  352MOL0     H46427   7.872   6.472   3.432 -0.9692 -0.3699  0.0845
  352MOL0     H46428   7.581   6.261   3.286  0.4829 -0.6367 -0.4836
  352MOL0     H46429   7.434   6.188   3.125  1.2097 -0.2090  1.5420
  352MOL0     H46430   7.332   6.510   2.798 -0.5155  0.2798  1.9703
  352MOL0     H46431   7.180   6.524   2.859 -0.4741 -0.4875  0.4001
  352MOL0     H46432   7.241   6.268   2.691 -1.9043 -2.5133  1.7314
  352MOL0     H46433   7.209   6.411   2.610  4.5666 -3.6917 -0.9942
  352MOL0     H46434   6.993   6.429   2.759  0.2871  0.6085 -1.0483
  352MOL0     H46435   7.042   6.272   2.820  3.1431 -3.3924 -2.0894
  352MOL0     H46436   6.939   6.342   2.539 -0.7825 -0.3493  1.2693
  352MOL0     H46437   7.037   6.202   2.564  1.1494 -1.3375  2.4709
  352MOL0     H46438   6.785   6.185   2.564 -2.1283 -1.6838  0.9847
  352MOL0     H46439   6.791   6.259   2.729 -1.3804 -1.6308  0.0971
  352MOL0     H46440   6.928   6.077   2.796 -1.5746  1.6703 -0.1108
  352MOL0     H46441   6.945   6.011   2.641 -0.1775  0.8914 -0.0255
  352MOL0     H46442   6.678   6.042   2.787  1.2403 -0.1500  1.8917
  352MOL0     H46443   6.686   5.973   2.628 -2.1751  1.9059  1.4692
  352MOL0     H46444   6.681   5.787   2.787  1.0739 -1.1591  1.9331
  352MOL0     H46445   6.799   5.866   2.896  1.1100 -0.0607 -0.4432
  352MOL0     H46446   7.352   6.609   3.021  4.1393  4.0071  1.1417
  352MOL0     H46447   7.548   6.664   3.144 -1.1001  0.6381 -3.9021
  352MOL0     H46448   7.694   6.832   3.568  0.9690  0.4745 -1.1342
  352MOL0     H46449   7.888   6.873   3.715  1.0416 -0.8669  1.2613
  352MOL0     H46450   9.350   7.277   4.780  0.0175 -1.9326 -2.0476
  352MOL0     H46451   9.594   7.307   4.770 -1.3401  1.1774  0.2716
  352MOL0     H46452   9.975   7.521   4.541 -0.3290  0.4173 -0.2050
  352MOL0     H46453  10.239   7.468   4.571  2.5079 -1.9076 -1.5737
  352MOL0     H46454  10.442   7.394   4.612 -1.3828 -0.3283 -0.2423
  352MOL0     H46455  10.469   7.401   4.439  1.8367 -0.4780  0.3244
  352MOL0     H46456  10.658   7.332   4.596 -2.7697  0.6077  1.4623
  352MOL0     H46457  10.568   7.171   4.600 -2.7209  0.4780  0.3928
  352MOL0     H46458  10.588   7.216   4.334 -0.1485  1.3252 -0.7214
  352MOL0     H46459  10.695   7.115   4.435 -1.1128  0.0826  0.3261
  352MOL0     H46460  10.814   7.287   4.270  0.4234  1.8507  0.6952
  352MOL0     H46461  10.737   7.410   4.356  1.3753  1.0133  1.1657
  352MOL0     H46462  11.053   7.339   4.616  2.0073 -2.8322 -1.4583
  352MOL0     H46463  10.170   7.078   4.425  0.6349 -0.7756  1.3803
  352MOL0     H46464   9.931   7.116   4.429 -1.9891  1.0235 -0.4734
  353MOL0     O46465   5.891   7.548   7.998 -0.3637 -0.0898  0.0740
  353MOL0     C46466   5.938   7.440   8.038  0.1183  0.0676  0.1623
  353MOL0     O46467   6.032   7.430   8.141  0.7024  0.4362 -0.0220
  353MOL0     C46468   6.059   7.535   8.214  0.8031 -0.4229  0.2053
  353MOL0     C46469   5.976   7.567   8.328 -0.1530  0.9911  0.2518
  353MOL0     C46470   6.011   7.675   8.402  0.5442  0.1797  0.4385
  353MOL0     C46471   6.106   7.762   8.354 -0.1475 -0.6537  0.1624
  353MOL0     O46472   6.136   7.881   8.421  1.0658 -0.2589  0.3515
  353MOL0     C46473   6.043   7.939   8.507  0.7310 -0.0050  0.0960
  353MOL0     C46474   6.097   8.076   8.539 -0.5280  0.0108 -0.5429
  353MOL0     C46475   5.987   8.149   8.618 -1.0311 -0.7944  0.0165
  353MOL0     C46476   6.027   8.288   8.663 -0.6927 -0.2231  0.9921
  353MOL0     C46477   5.912   8.365   8.736  0.0983  0.0220  0.4684
  353MOL0     C46478   5.939   8.515   8.767  0.1975 -0.3804 -0.1955
  353MOL0     C46479   5.808   8.591   8.784  0.2095 -0.3453  1.8020
  353MOL0     C46480   5.819   8.735   8.745  0.0034 -0.1061  0.5252
  353MOL0     N46481   5.922   8.791   8.832  0.2297 -0.2057 -0.0346
  353MOL0     C46482   5.898   8.820   8.965  0.7629 -0.0217  0.0442
  353MOL0     C46483   6.024   8.847   9.002  0.4973 -0.4128 -0.8261
  353MOL0     C46484   6.050   8.907   9.140  0.6552  0.0263 -1.2507
  353MOL0     C46485   6.146   8.811   9.216  0.7215 -0.6012 -0.0464
  353MOL0     C46486   6.292   8.821   9.179  0.2249 -0.2750 -0.2144
  353MOL0     C46487   6.382   8.755   9.288 -0.8093 -0.0279  0.5353
  353MOL0     O46488   6.373   8.843   9.397 -0.3500 -0.1359 -0.0939
  353MOL0     C46489   6.426   8.805   9.519 -0.1350 -0.4304  0.2776
  353MOL0     C46490   6.502   8.691   9.553 -0.4917  0.6940  0.5631
  353MOL0     C46491   6.537   8.669   9.692 -0.2574  0.1872  0.9125
  353MOL0     C46492   6.495   8.759   9.798 -0.9445 -0.8347 -0.7638
  353MOL0     C46493   6.533   8.740   9.944  0.9230 -0.0634 -0.1591
  353MOL0     O46494   6.447   8.803  10.034  0.7417  0.3255 -0.7961
  353MOL0     C46495   6.441   8.774  10.167  0.8372  0.5973 -0.6414
  353MOL0     C46496   6.448   8.640  10.217 -0.9422  0.1007  0.5756
  353MOL0     C46497   6.433   8.620  10.354 -0.9390 -0.4191 -0.4528
  353MOL0     C46498   6.420   8.731  10.450  0.3292  1.4034 -0.2887
  353MOL0     O46499   6.421   8.710  10.590 -0.3523  0.0678  0.3941
  353MOL0     C46500   6.528   8.617  10.632  0.5050 -0.7695  0.1679
  353MOL0     C46501   6.529   8.586  10.780 -0.0340  0.3311  0.0137
  353MOL0     C46502   6.427   8.484  10.816  0.7304 -0.0020  0.2828
  353MOL0     C46503   6.405   8.470  10.968 -0.4247  0.0542 -0.0734
  353MOL0     C46504   6.349   8.333  10.995  0.5565  0.3510  0.0659
  353MOL0     C46505   6.224   8.295  10.908  0.4651  0.5804 -0.5330
  353MOL0     C46506   6.101   8.384  10.936 -0.3460  0.3969  0.0782
  353MOL0     C46507   6.020   8.368  11.077 -0.2621 -0.1954 -0.3009
  353MOL0    Cl46508   5.891   8.222  11.079 -0.0530 -0.3262  0.3402
  353MOL0     C46509   6.411   8.860  10.402 -0.1438 -0.1231 -0.0184
  353MOL0     C46510   6.420   8.885  10.262 -0.0585 -0.0096  0.0712
  353MOL0     O46511   6.632   8.671   9.972  0.1092 -0.4321  0.2313
  353MOL0     C46512   6.425   8.871   9.762  0.5393 -0.5987  1.2297
  353MOL0     C46513   6.400   8.897   9.622  1.1932  0.1533  0.7468
  353MOL0     N46514   6.115   8.857   8.901  0.0260  0.3369  0.3308
  353MOL0     N46515   6.045   8.835   8.793 -0.0846 -0.2520 -0.4884
  353MOL0     C46516   6.174   7.741   8.233  0.2549  0.4908 -0.2173
  353MOL0     C46517   6.164   7.612   8.164  0.0549 -0.0213  1.0049
  353MOL0     C46518   5.913   7.315   7.954 -0.0667 -0.8945  0.1125
  353MOL0     C46519   5.819   7.312   7.845  0.1204  0.3522 -0.3161
  353MOL0     C46520   5.800   7.196   7.779 -0.0773  0.3023 -0.1084
  353MOL0     C46521   5.849   7.073   7.817 -0.7220 -0.5597 -0.0838
  353MOL0     O46522   5.790   6.959   7.770  0.0425  0.0924 -0.1167
  353MOL0     C46523   5.795   6.844   7.860  0.0626  0.6494 -0.6119
  353MOL0     C46524   5.686   6.744   7.842 -0.6075  0.5073  0.0654
  353MOL0     C46525   5.684   6.688   7.696 -0.6877 -1.2512  0.2686
  353MOL0     C46526   5.568   6.578   7.681 -1.7782 -0.5114 -0.0695
  353MOL0     C46527   5.623   6.454   7.738  0.0699 -0.1782  0.1564
  353MOL0     C46528   5.687   6.357   7.777  0.8709  0.0174 -0.4897
  353MOL0     C46529   5.948   7.072   7.924 -0.4347  0.0652  0.8002
  353MOL0     C46530   5.984   7.195   7.985 -0.3186  0.7536  0.2304
  353MOL0     H46531   5.909   7.498   8.378  2.4454 -1.5608  0.4734
  353MOL0     H46532   5.951   7.694   8.491  0.4443 -0.1239  0.4377
  353MOL0     H46533   6.023   7.884   8.599  0.6845 -0.2364 -0.0514
  353MOL0     H46534   5.945   7.949   8.460  0.6375  1.8058  0.6196
  353MOL0     H46535   6.102   8.128   8.443 -3.0981  1.2233 -0.0912
  353MOL0     H46536   6.195   8.071   8.589 -0.0629 -4.3750 -1.5065
  353MOL0     H46537   5.964   8.099   8.713 -1.0352 -0.3853  0.2364
  353MOL0     H46538   5.896   8.138   8.559 -2.4795 -0.1238  2.0112
  353MOL0     H46539   6.121   8.285   8.719 -0.6571 -0.5712  0.9160
  353MOL0     H46540   6.060   8.343   8.574  0.0122 -1.6378  0.3554
  353MOL0     H46541   5.893   8.316   8.832 -0.6897 -2.1786 -0.7505
  353MOL0     H46542   5.826   8.357   8.669  1.1742 -1.2262 -0.8417
  353MOL0     H46543   6.002   8.561   8.690  1.6908 -3.7254 -1.1659
  353MOL0     H46544   5.996   8.534   8.858  0.0056 -0.5374 -0.0413
  353MOL0     H46545   5.721   8.543   8.739 -0.7563  0.0584  3.1675
  353MOL0     H46546   5.788   8.586   8.891 -3.4332 -0.8150  1.2229
  353MOL0     H46547   5.728   8.792   8.768 -2.0405 -2.0716 -2.0100
  353MOL0     H46548   5.845   8.752   8.641 -1.7862  0.7591  0.1825
  353MOL0     H46549   5.803   8.832   9.017  0.8346  0.7958 -0.0099
  353MOL0     H46550   5.957   8.885   9.192  0.3399 -0.5064 -2.0203
  353MOL0     H46551   6.071   9.014   9.144  1.8502 -0.2369  0.7497
  353MOL0     H46552   6.122   8.706   9.196 -0.9993  0.0746 -1.9426
  353MOL0     H46553   6.132   8.833   9.322 -1.1352  3.0627 -0.8913
  353MOL0     H46554   6.315   8.793   9.075  1.3262 -0.0650 -0.0407
  353MOL0     H46555   6.325   8.925   9.173  1.9624 -0.8345 -0.9523
  353MOL0     H46556   6.481   8.737   9.244 -1.4304 -1.7567 -0.2696
  353MOL0     H46557   6.334   8.658   9.304 -0.9723 -0.2428 -1.0460
  353MOL0     H46558   6.511   8.614   9.478 -0.1555  0.9562  0.3326
  353MOL0     H46559   6.604   8.585   9.709  1.6460  1.4531  0.0081
  353MOL0     H46560   6.490   8.558  10.159 -1.1120  0.4400 -0.0336
  353MOL0     H46561   6.430   8.516  10.384 -2.1342 -1.1547 -2.8664
  353MOL0     H46562   6.628   8.654  10.610  0.2104 -0.0381  0.0430
  353MOL0     H46563   6.503   8.523  10.583 -0.9983 -0.1184 -0.3747
  353MOL0     H46564   6.518   8.676  10.842 -0.9181 -1.2530  2.2804
  353MOL0     H46565   6.625   8.541  10.805 -0.9387 -2.5396 -1.2657
  353MOL0     H46566   6.459   8.391  10.768 -0.7246 -0.1406 -0.4566
  353MOL0     H46567   6.330   8.507  10.772 -1.1859 -2.8831  2.6614
  353MOL0     H46568   6.499   8.471  11.023 -1.2071 -4.2959  1.7571
  353MOL0     H46569   6.335   8.547  11.003 -0.0430  0.3800 -0.0313
  353MOL0     H46570   6.318   8.318  11.099  0.6078 -1.1506 -0.1138
  353MOL0     H46571   6.421   8.252  10.977 -0.0401 -0.8563  2.5464
  353MOL0     H46572   6.202   8.191  10.934 -4.0305  1.8593  1.9230
  353MOL0     H46573   6.259   8.281  10.805  1.5337 -0.7631 -0.0163
  353MOL0     H46574   6.126   8.490  10.925 -1.5868  0.5078 -2.5684
  353MOL0     H46575   6.026   8.352  10.862  0.0917  2.5936 -1.4309
  353MOL0     H46576   5.965   8.461  11.093 -1.2956 -0.5153 -1.8211
  353MOL0     H46577   6.095   8.343  11.153 -2.3968  0.0784  2.0293
  353MOL0     H46578   6.414   8.934  10.481  0.5743 -0.6689  0.4762
  353MOL0     H46579   6.420   8.987  10.224  4.6393  0.1984  0.0516
  353MOL0     H46580   6.399   8.950   9.832  0.4815  0.2831  0.2435
  353MOL0     H46581   6.350   8.989   9.596 -1.1358 -1.1097  0.4606
  353MOL0     H46582   6.256   7.810   8.215  1.2694 -0.2561  1.3253
  353MOL0     H46583   6.200   7.585   8.065  2.6447  1.4242  1.4746
  353MOL0     H46584   5.753   7.393   7.818 -0.1760  0.0545 -0.4893
  353MOL0     H46585   5.734   7.204   7.693  0.4438  1.3330 -0.4244
  353MOL0     H46586   5.791   6.875   7.965 -2.8290  0.8906 -0.7104
  353MOL0     H46587   5.895   6.801   7.847 -0.1613 -0.6874  1.6209
  353MOL0     H46588   5.706   6.661   7.909 -3.0824 -0.0347  0.2070
  353MOL0     H46589   5.589   6.784   7.873 -2.4649 -3.8012  0.4489
  353MOL0     H46590   5.780   6.642   7.672 -0.2454 -1.4250  2.1726
  353MOL0     H46591   5.657   6.766   7.624 -3.8918 -0.8489  1.7106
  353MOL0     H46592   5.478   6.602   7.738 -0.4252  0.6118  1.6908
  353MOL0     H46593   5.540   6.576   7.575 -0.7757 -1.6501 -0.3328
  353MOL0     H46594   5.755   6.288   7.823  0.1240 -1.8719 -2.0628
  353MOL0     H46595   5.994   6.980   7.957  3.6350  2.0020  1.1324
  353MOL0     H46596   6.050   7.193   8.071 -0.6487 -0.3301  0.4674
  354MOL0     O46597   3.649   9.919   1.364  0.5741  0.1602  1.2526
  354MOL0     C46598   3.754   9.883   1.422  0.2848 -0.6595 -0.1140
  354MOL0     O46599   3.756   9.795   1.539  0.3086 -0.2508  0.9789
  354MOL0     C46600   3.634   9.756   1.589  0.7424  0.4274  1.3016
  354MOL0     C46601   3.530   9.837   1.627  0.0879 -0.3171 -0.2167
  354MOL0     C46602   3.425   9.790   1.709  0.0992 -0.1253 -0.4515
  354MOL0     C46603   3.421   9.649   1.733 -0.3723  0.9360  0.0192
  354MOL0     O46604   3.319   9.581   1.798  0.2181  0.8411  0.4341
  354MOL0     C46605   3.206   9.660   1.851  0.0198  0.4055 -0.5035
  354MOL0     C46606   3.107   9.602   1.952 -0.0419 -0.1973 -0.7267
  354MOL0     C46607   3.153   9.575   2.093 -0.4855  0.9291  0.4760
  354MOL0     C46608   3.252   9.458   2.095 -0.0339  1.4441 -1.0391
  354MOL0     C46609   3.294   9.395   2.224 -0.3194 -0.0657 -1.5460
  354MOL0     C46610   3.360   9.478   2.330 -0.9190  0.5812 -0.2764
  354MOL0     C46611   3.443   9.381   2.413  0.0161 -0.9625 -0.4051
  354MOL0     C46612   3.492   9.438   2.546 -0.1844 -0.1319 -0.9005
  354MOL0     N46613   3.410   9.382   2.662  0.2064  0.9294  0.0611
  354MOL0     C46614   3.443   9.264   2.728  0.6735 -0.4657  0.4099
  354MOL0     C46615   3.375   9.263   2.842  0.7083 -0.5503  0.7520
  354MOL0     C46616   3.369   9.146   2.932 -0.2791  0.4943  0.4193
  354MOL0     C46617   3.291   9.179   3.057  0.5712 -0.6887 -0.1916
  354MOL0     C46618   3.348   9.290   3.145  0.1828  0.1781  0.2442
  354MOL0     C46619   3.261   9.322   3.265  1.0689  0.0995 -0.1866
  354MOL0     O46620   3.214   9.199   3.323 -0.6232  0.6258 -0.0155
  354MOL0     C46621   3.148   9.199   3.444 -0.0245  0.3430 -0.1905
  354MOL0     C46622   3.071   9.084   3.472 -1.2914 -0.3026  0.2128
  354MOL0     C46623   2.995   9.070   3.585 -0.1951  0.3872  0.0440
  354MOL0     C46624   2.973   9.186   3.668 -1.5352 -0.2693  0.1739
  354MOL0     C46625   2.870   9.183   3.768 -0.0353 -0.0053 -0.3963
  354MOL0     O46626   2.790   9.071   3.783 -0.3277 -0.5189  0.3147
  354MOL0     C46627   2.659   9.085   3.837 -0.9533  0.2973  0.8494
  354MOL0     C46628   2.623   9.002   3.942 -0.0541  0.5434  1.1430
  354MOL0     C46629   2.502   8.996   3.999 -0.0607  0.2431  0.3560
  354MOL0     C46630   2.400   9.088   3.952 -0.3250 -0.0802 -0.4135
  354MOL0     O46631   2.280   9.111   4.018  0.2453 -0.1387  0.5149
  354MOL0     C46632   2.238   9.007   4.106 -0.8068  0.1214  0.6622
  354MOL0     C46633   2.112   9.044   4.180 -0.0193  0.3074 -0.1854
  354MOL0     C46634   1.974   9.046   4.099  0.5281  0.0624  0.0300
  354MOL0     C46635   1.957   9.174   4.012 -0.4892  0.1670  0.0688
  354MOL0     C46636   1.820   9.177   3.946 -0.2843  0.1163 -0.3696
  354MOL0     C46637   1.781   9.320   3.912  0.2083 -0.0413  0.8960
  354MOL0     C46638   1.683   9.298   3.793  0.4974 -0.2971  0.0315
  354MOL0     C46639   1.591   9.412   3.764  0.0059 -0.6490 -0.5544
  354MOL0    Cl46640   1.473   9.449   3.899 -0.2500  0.2834  0.4715
  354MOL0     C46641   2.439   9.183   3.855 -0.2094  0.1541  0.9335
  354MOL0     C46642   2.568   9.179   3.798  1.2677 -0.1980 -0.2530
  354MOL0     O46643   2.866   9.275   3.845 -0.5290  0.2368  0.1752
  354MOL0     C46644   3.045   9.307   3.631  0.2731  0.1596 -0.8136
  354MOL0     C46645   3.137   9.310   3.529  0.0529  0.1147 -0.2857
  354MOL0     N46646   3.298   9.377   2.844  0.4561 -0.0150  0.6358
  354MOL0     N46647   3.317   9.448   2.738  0.4048 -0.1492 -0.3609
  354MOL0     C46648   3.519   9.561   1.683  0.4035 -0.6626 -0.5948
  354MOL0     C46649   3.629   9.620   1.625 -0.4384 -0.2649  0.7184
  354MOL0     C46650   3.889   9.923   1.376 -0.1433 -0.4917 -0.0021
  354MOL0     C46651   3.998   9.895   1.467  0.5364  0.0831  0.4092
  354MOL0     C46652   4.123   9.953   1.440 -0.5359  0.1849  0.4183
  354MOL0     C46653   4.151  10.006   1.315  0.9214 -0.1169  0.2052
  354MOL0     O46654   4.282  10.044   1.270 -0.2252  0.3908  0.0194
  354MOL0     C46655   4.341  10.158   1.341 -1.0738  0.3872  0.6056
  354MOL0     C46656   4.310  10.289   1.269  0.4999  0.1107 -0.2997
  354MOL0     C46657   4.352  10.282   1.121  0.9802  0.7863  0.0336
  354MOL0     C46658   4.359  10.421   1.047 -0.7627  0.1442 -1.1169
  354MOL0     C46659   4.294  10.400   0.918  0.0146 -0.2229  0.3634
  354MOL0     C46660   4.254  10.360   0.812  0.5712  0.3313 -0.6855
  354MOL0     C46661   4.047  10.018   1.227  0.1147  0.4487 -0.1019
  354MOL0     C46662   3.916   9.990   1.256  0.0341 -1.6231  0.3822
  354MOL0     H46663   3.514   9.937   1.590 -2.7151 -1.6623 -3.1061
  354MOL0     H46664   3.351   9.856   1.753 -0.0671  0.4833 -1.6289
  354MOL0     H46665   3.142   9.684   1.766 -2.6494 -2.8515  0.3330
  354MOL0     H46666   3.246   9.750   1.898 -0.5927  0.0949  0.6666
  354MOL0     H46667   3.077   9.506   1.909  1.4400 -0.7885 -0.4934
  354MOL0     H46668   3.017   9.664   1.948 -0.7530 -0.8504  2.5874
  354MOL0     H46669   3.064   9.540   2.146  0.7373 -0.1313  1.9363
  354MOL0     H46670   3.186   9.666   2.144  2.6507  0.2836 -0.1810
  354MOL0     H46671   3.222   9.381   2.023  2.2306 -1.7303  1.1177
  354MOL0     H46672   3.340   9.505   2.053  0.7640  3.1354  2.2139
  354MOL0     H46673   3.365   9.316   2.198 -0.3722 -0.4697 -0.5161
  354MOL0     H46674   3.212   9.334   2.265 -0.7328 -0.3892 -2.7999
  354MOL0     H46675   3.285   9.529   2.390 -1.6030  1.4158 -1.7998
  354MOL0     H46676   3.428   9.557   2.297  3.9883 -2.7527  0.6394
  354MOL0     H46677   3.391   9.285   2.417  1.2014 -1.5814  1.6042
  354MOL0     H46678   3.537   9.362   2.360  1.1315  1.9600  0.3076
  354MOL0     H46679   3.469   9.545   2.551  0.0494 -0.1324  2.5925
  354MOL0     H46680   3.600   9.423   2.554 -0.0866  0.3781 -1.2503
  354MOL0     H46681   3.506   9.185   2.689  0.3427 -0.5186 -0.0115
  354MOL0     H46682   3.473   9.120   2.956  0.4473  2.0892 -0.7908
  354MOL0     H46683   3.320   9.070   2.871 -1.5035  2.4309 -1.1271
  354MOL0     H46684   3.288   9.092   3.123  1.0517  0.1181  0.9259
  354MOL0     H46685   3.191   9.215   3.029 -0.1496  0.4744  3.3551
  354MOL0     H46686   3.452   9.263   3.167  0.4478 -0.1396 -1.3050
  354MOL0     H46687   3.349   9.376   3.077  0.5390 -0.1765 -0.2070
  354MOL0     H46688   3.168   9.372   3.237  0.8118  0.2082  0.8412
  354MOL0     H46689   3.319   9.383   3.334 -0.6204  0.4005  1.0136
  354MOL0     H46690   3.072   8.995   3.410 -3.9345  0.3561 -0.8857
  354MOL0     H46691   2.961   8.968   3.595  1.3231 -0.1798 -0.3519
  354MOL0     H46692   2.701   8.929   3.958  0.3860  0.6399 -0.3435
  354MOL0     H46693   2.489   8.923   4.078  1.2578 -0.7612 -0.3204
  354MOL0     H46694   2.312   8.992   4.185 -0.5895  1.4080  0.7233
  354MOL0     H46695   2.225   8.913   4.053  1.3316  1.0116 -1.6689
  354MOL0     H46696   2.123   9.146   4.217  1.8696  1.0728 -2.5697
  354MOL0     H46697   2.100   8.982   4.269 -1.4658  0.5915 -0.1574
  354MOL0     H46698   1.905   9.048   4.183  1.2968 -4.9791  1.0634
  354MOL0     H46699   1.952   8.960   4.036  0.2895 -0.5804  0.9768
  354MOL0     H46700   1.968   9.257   4.082  3.3922 -0.7496  0.8107
  354MOL0     H46701   2.030   9.170   3.930  0.2534  0.0261  0.7255
  354MOL0     H46702   1.740   9.136   4.007  0.1896  1.2711  1.0751
  354MOL0     H46703   1.811   9.117   3.855 -2.0637  1.2586 -1.0116
  354MOL0     H46704   1.860   9.389   3.879  1.6930 -2.0074  0.1350
  354MOL0     H46705   1.728   9.360   3.998 -2.6893 -3.7459  1.0745
  354MOL0     H46706   1.742   9.276   3.703  2.5225  0.2667  1.1557
  354MOL0     H46707   1.625   9.206   3.807  1.9389 -1.3268 -0.4367
  354MOL0     H46708   1.532   9.389   3.675 -2.3685 -0.8533  0.9692
  354MOL0     H46709   1.643   9.505   3.737  1.0047 -0.7778  0.8224
  354MOL0     H46710   2.374   9.263   3.823  1.5479  1.0305 -0.6988
  354MOL0     H46711   2.580   9.241   3.710 -0.8895 -1.4237 -1.5155
  354MOL0     H46712   3.026   9.392   3.695 -1.1876  0.3466 -1.4569
  354MOL0     H46713   3.183   9.407   3.514 -2.2338  0.9698 -2.5926
  354MOL0     H46714   3.500   9.455   1.692 -2.0275 -0.4528 -2.2670
  354MOL0     H46715   3.713   9.556   1.599  0.9136  1.6109  0.2548
  354MOL0     H46716   3.991   9.840   1.560  2.1568  3.2222  2.5635
  354MOL0     H46717   4.201   9.949   1.516 -0.1503  0.6015  0.0508
  354MOL0     H46718   4.448  10.133   1.349 -0.1802  2.8203 -1.9819
  354MOL0     H46719   4.305  10.170   1.443 -2.0181 -0.2127  0.3508
  354MOL0     H46720   4.202  10.308   1.273  0.9374  2.7720  0.7997
  354MOL0     H46721   4.360  10.371   1.321  1.4677 -1.0756  0.6932
  354MOL0     H46722   4.276  10.226   1.066  1.8231  1.2938 -1.7379
  354MOL0     H46723   4.443  10.221   1.123  0.9095  0.2955 -3.5715
  354MOL0     H46724   4.307  10.503   1.098 -1.1304 -0.5985 -0.2663
  354MOL0     H46725   4.463  10.450   1.036 -0.5144 -1.1336 -2.4448
  354MOL0     H46726   4.219  10.328   0.716  1.4839  2.4447 -1.7970
  354MOL0     H46727   4.067  10.050   1.125  1.1110  0.3704  0.0599
  354MOL0     H46728   3.844  10.020   1.181  1.0789  2.8436  0.8522
  355MOL0     O46729   3.802   5.981  10.480  0.7384  0.3404  0.5990
  355MOL0     C46730   3.863   5.904  10.560  0.0036  0.2515  0.4171
  355MOL0     O46731   3.975   5.820  10.528  0.5981 -0.3811 -0.2232
  355MOL0     C46732   4.018   5.792  10.400  0.5312  0.0990  0.3121
  355MOL0     C46733   4.084   5.675  10.383  0.1154 -0.0934  0.0079
  355MOL0     C46734   4.128   5.626  10.260 -0.4744 -0.3505  0.2237
  355MOL0     C46735   4.113   5.712  10.154  0.0644  0.3004  0.7445
  355MOL0     O46736   4.134   5.683  10.025  0.6116  0.2298  0.3103
  355MOL0     C46737   4.167   5.553   9.978  0.2186 -0.3713 -0.1974
  355MOL0     C46738   4.122   5.546   9.836 -0.1033  0.4409  0.7521
  355MOL0     C46739   3.976   5.541   9.829 -0.1664 -1.0654  0.2109
  355MOL0     C46740   3.912   5.549   9.684  0.0114  0.7280 -0.7508
  355MOL0     C46741   3.762   5.593   9.684 -0.0824  0.0801 -0.5721
  355MOL0     C46742   3.711   5.625   9.546 -0.5145  0.2852  0.4696
  355MOL0     C46743   3.559   5.620   9.544 -0.6732 -0.1311  1.1164
  355MOL0     C46744   3.514   5.675   9.409 -0.7035  0.0940 -0.1940
  355MOL0     N46745   3.373   5.654   9.377 -0.7411 -0.1448 -0.3491
  355MOL0     C46746   3.301   5.728   9.279  0.3327 -0.2153  0.7713
  355MOL0     C46747   3.173   5.693   9.299  0.4624 -0.7574  0.2900
  355MOL0     C46748   3.046   5.738   9.216  0.5718  1.1236  0.4877
  355MOL0     C46749   2.920   5.742   9.302 -0.4133 -0.1146 -0.3294
  355MOL0     C46750   2.786   5.777   9.231 -0.5247 -0.0446 -0.4399
  355MOL0     C46751   2.708   5.664   9.160 -0.5814  0.2388  0.3152
  355MOL0     O46752   2.580   5.726   9.131  0.0350 -0.1201  0.0824
  355MOL0     C46753   2.462   5.653   9.129  0.3071  0.2490 -0.0799
  355MOL0     C46754   2.354   5.698   9.206  0.0175 -0.6559  0.0622
  355MOL0     C46755   2.233   5.631   9.207 -0.3689  0.3237  0.1266
  355MOL0     C46756   2.204   5.525   9.120  1.2039  0.1175 -0.6269
  355MOL0     C46757   2.073   5.464   9.103  0.9444 -0.1203 -0.1159
  355MOL0     O46758   2.052   5.383   8.998  0.0244  0.5622 -0.1185
  355MOL0     C46759   1.930   5.315   8.980  0.9979  0.5468  0.1100
  355MOL0     C46760   1.934   5.173   8.961 -0.3974  0.6708  1.5118
  355MOL0     C46761   1.821   5.109   8.916 -0.7525  0.4708  1.0541
  355MOL0     C46762   1.698   5.169   8.900  0.2309  0.0968  0.2711
  355MOL0     O46763   1.598   5.088   8.846  0.5286  0.0948 -0.3628
  355MOL0     C46764   1.502   5.146   8.766  0.4172 -0.0041  0.2421
  355MOL0     C46765   1.383   5.194   8.844  0.2395  0.1815 -0.2812
  355MOL0     C46766   1.306   5.300   8.766  1.0172 -0.9902  0.6057
  355MOL0     C46767   1.167   5.322   8.824  0.1285  0.2032  0.7272
  355MOL0     C46768   1.084   5.415   8.734  0.2191  0.0201  0.1460
  355MOL0     C46769   1.010   5.342   8.620 -1.0084 -0.5034  0.3136
  355MOL0     C46770   0.923   5.428   8.529  0.4829 -1.3539 -0.2388
  355MOL0     C46771   0.777   5.426   8.569  0.2465 -0.0316  0.9426
  355MOL0    Cl46772   0.695   5.277   8.511 -0.1544 -0.1559 -0.2080
  355MOL0     C46773   1.685   5.307   8.931  0.2151  0.0784 -0.0452
  355MOL0     C46774   1.803   5.377   8.971  0.0779  0.1480  0.7687
  355MOL0     O46775   1.994   5.484   9.195  0.2269 -0.0003  0.2971
  355MOL0     C46776   2.312   5.481   9.046 -1.3589 -0.5464 -0.2907
  355MOL0     C46777   2.444   5.538   9.053  0.2227  0.1906 -0.4757
  355MOL0     N46778   3.174   5.583   9.384  0.3213 -0.6457  0.3096
  355MOL0     N46779   3.294   5.556   9.428 -0.6565 -0.1009  0.2313
  355MOL0     C46780   4.048   5.836  10.167 -0.1140 -0.5829 -0.0195
  355MOL0     C46781   4.006   5.886  10.293  0.5717 -0.1646  0.2634
  355MOL0     C46782   3.811   5.893  10.704  0.3440 -0.4420  0.2490
  355MOL0     C46783   3.701   5.978  10.747  0.5162 -0.0604 -0.3591
  355MOL0     C46784   3.640   5.953  10.866 -0.5464  0.2791 -0.0624
  355MOL0     C46785   3.698   5.869  10.964 -0.0398 -0.3846  1.3177
  355MOL0     O46786   3.626   5.863  11.081  0.2961  0.6991  0.0433
  355MOL0     C46787   3.685   5.921  11.195 -0.5714  0.6190 -0.2506
  355MOL0     C46788   3.692   6.068  11.180  0.6786  0.1239 -0.1456
  355MOL0     C46789   3.549   6.131  11.164  0.6232  0.0176  0.7879
  355MOL0     C46790   3.542   6.278  11.124  0.3928  0.0642 -0.0655
  355MOL0     C46791   3.611   6.311  11.005 -0.6640 -0.1968 -0.5453
  355MOL0     C46792   3.668   6.317  10.901 -0.5691  0.4967  0.8636
  355MOL0     C46793   3.802   5.785  10.920 -0.3598 -1.0473 -0.4426
  355MOL0     C46794   3.862   5.801  10.796 -0.0098 -0.0330  0.3991
  355MOL0     H46795   4.104   5.616  10.472  3.0438  2.1166  0.9780
  355MOL0     H46796   4.169   5.526  10.253 -0.9990 -0.4854 -1.2822
  355MOL0     H46797   4.117   5.474  10.035 -0.2744 -1.1966 -1.7272
  355MOL0     H46798   4.273   5.557  10.002  0.1086  0.1048  0.2216
  355MOL0     H46799   4.167   5.457   9.790 -1.1973 -1.1252  2.5802
  355MOL0     H46800   4.153   5.630   9.773  0.0466 -0.1006  0.0877
  355MOL0     H46801   3.937   5.631   9.877 -1.3226  0.0476 -2.5607
  355MOL0     H46802   3.940   5.461   9.894  1.3924 -3.1571 -1.3662
  355MOL0     H46803   3.962   5.623   9.620  2.6545 -1.4609 -1.4203
  355MOL0     H46804   3.922   5.455   9.630  1.1074  0.4875 -0.1709
  355MOL0     H46805   3.750   5.676   9.754 -1.4938  0.3296 -1.0731
  355MOL0     H46806   3.715   5.507   9.732  1.9985 -0.5019  0.5333
  355MOL0     H46807   3.757   5.563   9.469  0.4871 -0.9471  1.9869
  355MOL0     H46808   3.730   5.731   9.525  0.4567  0.1463  0.6084
  355MOL0     H46809   3.523   5.519   9.566 -3.0584  0.3178 -0.3547
  355MOL0     H46810   3.527   5.688   9.623  1.0036 -0.8104  2.4309
  355MOL0     H46811   3.575   5.635   9.328 -0.6016  0.7905 -0.4578
  355MOL0     H46812   3.535   5.782   9.412  1.7130 -0.3353  1.7988
  355MOL0     H46813   3.339   5.791   9.200  2.4363  0.3336  2.1356
  355MOL0     H46814   3.022   5.673   9.131  0.7354  0.4055  0.9735
  355MOL0     H46815   3.061   5.833   9.165 -3.1572  0.1502 -2.9488
  355MOL0     H46816   2.940   5.817   9.380 -3.3185  1.2287 -0.7309
  355MOL0     H46817   2.910   5.644   9.350 -1.1345 -0.6380 -1.5076
  355MOL0     H46818   2.722   5.810   9.313  1.5157  0.6502  0.9654
  355MOL0     H46819   2.810   5.855   9.158  0.5417 -0.9657 -1.1122
  355MOL0     H46820   2.695   5.577   9.225  1.9937 -0.1337  0.4485
  355MOL0     H46821   2.754   5.616   9.073 -0.1153  1.6507 -0.2525
  355MOL0     H46822   2.363   5.798   9.247 -0.1634  0.3495 -2.2119
  355MOL0     H46823   2.148   5.672   9.260 -1.3955 -3.1841  1.5033
  355MOL0     H46824   2.029   5.123   8.973 -0.6829  0.0205  1.1052
  355MOL0     H46825   1.834   5.003   8.899  2.3167  0.3976  3.0093
  355MOL0     H46826   1.473   5.075   8.689 -1.2998  0.8169  0.0871
  355MOL0     H46827   1.547   5.234   8.719 -3.0864  4.1717  3.7839
  355MOL0     H46828   1.408   5.232   8.943  2.0972  4.7162 -2.1865
  355MOL0     H46829   1.322   5.103   8.849 -2.4554  1.8485 -0.5160
  355MOL0     H46830   1.302   5.265   8.662  1.0642 -1.5045  0.7737
  355MOL0     H46831   1.351   5.399   8.764 -1.3004  0.1171 -0.0812
  355MOL0     H46832   1.127   5.220   8.829 -1.0614  0.7132  3.0369
  355MOL0     H46833   1.179   5.362   8.925 -1.3809 -0.8594  1.3568
  355MOL0     H46834   1.147   5.500   8.707 -0.0080  0.1465  0.0060
  355MOL0     H46835   1.001   5.441   8.801  2.9761  2.3961  2.9617
  355MOL0     H46836   0.952   5.264   8.670  0.5310  0.6292  4.2009
  355MOL0     H46837   1.097   5.293   8.575 -1.3314  0.2113 -1.1728
  355MOL0     H46838   0.958   5.532   8.522 -0.8921 -0.9646 -5.1297
  355MOL0     H46839   0.915   5.379   8.432 -0.4517  2.4373 -2.2491
  355MOL0     H46840   0.716   5.510   8.534  0.0827 -0.4123  0.3030
  355MOL0     H46841   0.784   5.440   8.678 -1.2368  3.1525  0.7476
  355MOL0     H46842   1.589   5.357   8.931 -0.5469 -1.2791 -1.4944
  355MOL0     H46843   1.783   5.479   9.002 -0.5242  0.7514 -1.3971
  355MOL0     H46844   2.302   5.407   8.967  2.0623 -2.9558  1.2850
  355MOL0     H46845   2.520   5.498   8.988  0.4380 -1.0901  0.5276
  355MOL0     H46846   4.036   5.903  10.083 -1.5757  2.0225  2.1177
  355MOL0     H46847   3.959   5.983  10.303 -0.9634 -0.6464 -1.5738
  355MOL0     H46848   3.660   6.055  10.682  0.3335  1.5609  1.5888
  355MOL0     H46849   3.552   6.018  10.869 -2.7986 -2.4752 -1.2480
  355MOL0     H46850   3.785   5.878  11.204  0.4668  2.8977 -0.2638
  355MOL0     H46851   3.625   5.899  11.283 -0.3652 -1.7073 -0.6162
  355MOL0     H46852   3.743   6.115  11.264 -0.1868 -0.6804  0.8573
  355MOL0     H46853   3.752   6.092  11.091  0.1863  0.8759 -0.2887
  355MOL0     H46854   3.493   6.133  11.258 -0.8842 -1.3581 -0.0324
  355MOL0     H46855   3.493   6.083  11.083  0.3341  1.0533  0.3499
  355MOL0     H46856   3.443   6.316  11.100 -0.2948 -1.1084  0.8005
  355MOL0     H46857   3.582   6.344  11.202 -1.9609 -0.8080  2.0172
  355MOL0     H46858   3.698   6.305  10.799 -0.1271 -1.5672  1.1866
  355MOL0     H46859   3.837   5.712  10.993  1.4774 -1.6043 -1.8192
  355MOL0     H46860   3.944   5.732  10.780 -2.5809 -3.5127  0.9344
  356MOL0     O46861   8.886   6.423   0.086  0.0434  0.1082 -0.3547
  356MOL0     C46862   8.896   6.374  -0.031 -0.4814 -0.4702 -0.9916
  356MOL0     O46863   9.004   6.393  -0.109 -0.0511  0.0866 -0.2161
  356MOL0     C46864   9.114   6.433  -0.044  0.5827 -0.6093 -0.7123
  356MOL0     C46865   9.186   6.353   0.038 -1.3234  0.0392  0.6216
  356MOL0     C46866   9.302   6.398   0.098  0.4101  0.0123 -0.0612
  356MOL0     C46867   9.348   6.525   0.077  0.2008 -0.1743 -0.1692
  356MOL0     O46868   9.451   6.571   0.157  0.5550 -0.2801  0.5237
  356MOL0     C46869   9.455   6.698   0.213  0.3979  1.5485  0.3407
  356MOL0     C46870   9.491   6.676   0.364  1.1850  0.2370 -0.6395
  356MOL0     C46871   9.407   6.567   0.442  0.2415  0.9142 -0.5854
  356MOL0     C46872   9.253   6.570   0.425 -0.2157 -0.5219  0.5238
  356MOL0     C46873   9.174   6.470   0.510  0.0172 -0.3839  0.6680
  356MOL0     C46874   9.206   6.334   0.438  0.4859 -0.2319 -1.1658
  356MOL0     C46875   9.149   6.212   0.504 -0.4250  0.7058 -0.4039
  356MOL0     C46876   9.203   6.081   0.439 -0.8081 -1.0020 -0.3697
  356MOL0     N46877   9.351   6.076   0.483  0.5629  0.5043  0.7592
  356MOL0     C46878   9.460   6.090   0.404 -0.4589  0.0615  0.1458
  356MOL0     C46879   9.574   6.074   0.476 -0.6824  0.2598  0.0487
  356MOL0     C46880   9.716   6.069   0.421 -0.0251  0.0172  0.3782
  356MOL0     C46881   9.732   6.195   0.331  0.0225 -0.4203  0.3073
  356MOL0     C46882   9.716   6.329   0.401 -0.6111  0.5626 -0.2819
  356MOL0     C46883   9.837   6.384   0.474 -0.4402 -1.0364 -0.4097
  356MOL0     O46884   9.869   6.306   0.589  0.2014 -0.1431  0.0973
  356MOL0     C46885   9.998   6.295   0.635  0.3273  0.0113 -1.0263
  356MOL0     C46886  10.002   6.179   0.711 -0.2710  1.7793  0.0376
  356MOL0     C46887  10.124   6.159   0.791  0.3096  0.8245 -0.3249
  356MOL0     C46888  10.237   6.247   0.777 -0.5526 -0.9476  0.8819
  356MOL0     C46889  10.358   6.244   0.867 -0.0747 -0.9073 -1.1189
  356MOL0     O46890  10.435   6.357   0.888  0.1807  1.1170  0.2919
  356MOL0     C46891  10.521   6.342   0.994 -0.2269 -0.2582  0.3994
  356MOL0     C46892  10.497   6.379   1.128  0.4638 -1.1307 -0.3343
  356MOL0     C46893  10.594   6.367   1.235 -0.0909  0.4022  0.1609
  356MOL0     C46894  10.717   6.305   1.197 -0.5898 -0.6231 -0.3069
  356MOL0     O46895  10.810   6.260   1.292  0.2781 -0.5948 -0.2917
  356MOL0     C46896  10.827   6.333   1.409  0.5902 -0.2339 -1.0605
  356MOL0     C46897  10.974   6.320   1.439 -0.0451 -0.6321 -0.9185
  356MOL0     C46898  11.062   6.367   1.317 -0.3009 -0.0685 -0.5440
  356MOL0     C46899  11.037   6.517   1.294 -0.4556  0.4818  0.1013
  356MOL0     C46900  11.140   6.563   1.196  0.5568  0.2557 -0.8881
  356MOL0     C46901  11.149   6.496   1.056  0.1048  0.3203  0.1516
  356MOL0     C46902  11.039   6.530   0.952  0.3467 -0.0636 -0.7704
  356MOL0     C46903  11.069   6.451   0.824  0.3312 -0.0815  0.0036
  356MOL0    Cl46904  10.921   6.467   0.723 -0.1309 -0.0324  0.0282
  356MOL0     C46905  10.748   6.284   1.069  0.1117 -0.7268 -0.1440
  356MOL0     C46906  10.649   6.300   0.967  0.5484 -1.4317 -0.5927
  356MOL0     O46907  10.368   6.145   0.939  0.8253  0.5302  0.1849
  356MOL0     C46908  10.217   6.361   0.699  0.0483  0.6316 -0.6652
  356MOL0     C46909  10.091   6.392   0.639 -0.6547  0.8006  0.2316
  356MOL0     N46910   9.527   6.046   0.604  0.2102  0.3329  0.1626
  356MOL0     N46911   9.396   6.050   0.611 -0.7140  0.2056  0.1994
  356MOL0     C46912   9.285   6.611  -0.018  0.1627 -0.5982 -0.4627
  356MOL0     C46913   9.159   6.566  -0.070  0.2224  0.3052  0.7474
  356MOL0     C46914   8.782   6.297  -0.080 -0.1488  0.7160  0.7086
  356MOL0     C46915   8.787   6.162  -0.133  0.1689  1.0656  0.4595
  356MOL0     C46916   8.670   6.102  -0.184  0.8202 -0.1472 -0.2196
  356MOL0     C46917   8.552   6.171  -0.193 -0.1383  0.6767 -0.2098
  356MOL0     O46918   8.446   6.106  -0.256  0.0405 -0.4887 -0.8173
  356MOL0     C46919   8.354   6.188  -0.333  0.3843 -0.1415 -0.7911
  356MOL0     C46920   8.210   6.177  -0.280 -0.6227 -0.4046 -0.6739
  356MOL0     C46921   8.117   6.276  -0.360 -0.0115  0.0022  0.0367
  356MOL0     C46922   8.101   6.249  -0.514 -0.0298  0.1497 -0.2700
  356MOL0     C46923   8.051   6.112  -0.543 -0.0638 -0.1653  0.2261
  356MOL0     C46924   7.998   6.001  -0.561  0.0775 -0.1190  0.0103
  356MOL0     C46925   8.553   6.309  -0.147  0.2624 -0.1421  0.0421
  356MOL0     C46926   8.668   6.365  -0.095 -0.4701  0.3654 -0.1776
  356MOL0     H46927   9.148   6.253   0.058  1.5402 -1.1904  0.4675
  356MOL0     H46928   9.351   6.327   0.164  2.7573  2.0142  0.4785
  356MOL0     H46929   9.357   6.745   0.208 -0.1597  0.4645  0.8308
  356MOL0     H46930   9.537   6.756   0.170 -0.6504  2.3350 -0.6402
  356MOL0     H46931   9.469   6.775   0.406  0.4092  0.5015 -1.6007
  356MOL0     H46932   9.596   6.659   0.385  0.7622  0.6879  2.1888
  356MOL0     H46933   9.416   6.587   0.549 -1.3584  1.4945 -0.5243
  356MOL0     H46934   9.449   6.470   0.415 -1.3215 -0.3329  1.1395
  356MOL0     H46935   9.219   6.674   0.434  3.4823  0.7488  1.7108
  356MOL0     H46936   9.243   6.554   0.317  3.3695  1.9596 -0.3431
  356MOL0     H46937   9.067   6.490   0.520 -0.5054 -3.2997  2.2298
  356MOL0     H46938   9.216   6.447   0.609  3.7932 -2.3486 -1.1719
  356MOL0     H46939   9.315   6.320   0.427  1.0346  1.8773  0.8701
  356MOL0     H46940   9.166   6.337   0.336  2.1178  1.3987 -1.8233
  356MOL0     H46941   9.175   6.220   0.610  2.2368  0.4177 -0.9650
  356MOL0     H46942   9.040   6.206   0.493 -0.6222 -0.0593  1.5719
  356MOL0     H46943   9.182   6.076   0.332 -2.4272 -1.1749 -0.0686
  356MOL0     H46944   9.146   5.997   0.479 -1.9055 -0.6217 -1.1143
  356MOL0     H46945   9.458   6.119   0.299 -1.3494 -0.7699 -0.0816
  356MOL0     H46946   9.730   5.981   0.358 -0.9335 -0.2857  0.5946
  356MOL0     H46947   9.791   6.067   0.500  1.7390 -1.1853 -1.2136
  356MOL0     H46948   9.655   6.201   0.254 -1.2649 -0.0934  1.5870
  356MOL0     H46949   9.828   6.172   0.285 -0.3092 -2.2434  0.4369
  356MOL0     H46950   9.708   6.403   0.321 -0.7721 -0.9781 -1.7451
  356MOL0     H46951   9.629   6.331   0.467  1.0576  3.0760  2.0526
  356MOL0     H46952   9.818   6.484   0.515 -1.1666 -0.7751 -1.3559
  356MOL0     H46953   9.921   6.385   0.404  0.6287 -0.3202  0.8371
  356MOL0     H46954   9.922   6.107   0.725  0.3284  1.3467  1.4474
  356MOL0     H46955  10.120   6.083   0.868 -1.2834  1.9116  0.7242
  356MOL0     H46956  10.399   6.422   1.144  0.4039 -1.1297 -0.6888
  356MOL0     H46957  10.574   6.381   1.340 -0.2307 -1.7658  0.4704
  356MOL0     H46958  10.766   6.285   1.486  1.1439 -0.2169 -0.5998
  356MOL0     H46959  10.801   6.438   1.396 -1.6960 -0.9949 -3.3693
  356MOL0     H46960  10.993   6.214   1.460  3.0130 -0.2273 -1.2416
  356MOL0     H46961  10.995   6.374   1.531 -2.3147 -2.8582  1.0761
  356MOL0     H46962  11.033   6.314   1.226 -4.1604 -0.2280  0.6242
  356MOL0     H46963  11.164   6.350   1.355 -1.5202  2.3843  4.7963
  356MOL0     H46964  10.936   6.536   1.256 -0.8542 -2.0372 -0.2516
  356MOL0     H46965  11.058   6.569   1.388 -1.6342 -0.0514  0.6836
  356MOL0     H46966  11.234   6.556   1.251  0.7268  0.2327 -1.1811
  356MOL0     H46967  11.110   6.666   1.173  0.6405  0.3963 -0.3686
  356MOL0     H46968  11.151   6.387   1.062 -0.8937  0.0216 -2.9865
  356MOL0     H46969  11.243   6.523   1.007 -1.3336  2.3493 -1.6826
  356MOL0     H46970  10.940   6.498   0.985 -0.2324 -0.1056 -2.4436
  356MOL0     H46971  11.043   6.636   0.923  1.6046 -0.0775 -0.6677
  356MOL0     H46972  11.080   6.347   0.856  3.0446  0.6781  1.8689
  356MOL0     H46973  11.162   6.478   0.775 -0.2564  0.1531 -1.0156
  356MOL0     H46974  10.853   6.267   1.046  0.1102 -3.3794  1.4261
  356MOL0     H46975  10.683   6.281   0.866 -0.5326  0.4482 -1.3571
  356MOL0     H46976  10.294   6.438   0.701  1.3982 -0.6002 -2.2802
  356MOL0     H46977  10.073   6.491   0.598  2.9357  1.2800 -0.5546
  356MOL0     H46978   9.314   6.712  -0.045  0.3269 -0.0834  1.4537
  356MOL0     H46979   9.105   6.639  -0.129  3.1524  4.0350  2.2435
  356MOL0     H46980   8.877   6.105  -0.117 -0.2902 -0.3684 -1.6783
  356MOL0     H46981   8.654   5.996  -0.202 -2.5465  0.0094  1.0587
  356MOL0     H46982   8.360   6.151  -0.436  2.7169  2.2633 -1.6220
  356MOL0     H46983   8.374   6.295  -0.331 -3.7987  0.7817  0.1123
  356MOL0     H46984   8.176   6.073  -0.285  0.0051 -0.5670 -1.9869
  356MOL0     H46985   8.214   6.205  -0.174 -0.9309  0.2864 -0.8413
  356MOL0     H46986   8.170   6.371  -0.357  2.2343 -1.1981  1.3132
  356MOL0     H46987   8.022   6.288  -0.309  0.6286 -0.6782  1.4448
  356MOL0     H46988   8.028   6.319  -0.557  0.0931  0.8587  0.6607
  356MOL0     H46989   8.191   6.257  -0.576  0.0622 -3.0685 -0.6887
  356MOL0     H46990   7.945   5.909  -0.578 -1.7776  0.2665  2.9526
  356MOL0     H46991   8.467   6.376  -0.145  0.0443 -0.4043  2.2077
  356MOL0     H46992   8.646   6.461  -0.050 -2.9965  0.8832 -2.2824
  357MOL0     O46993   7.934   4.818  10.770  0.5378  0.2213 -0.3214
  357MOL0     C46994   7.898   4.738  10.858  0.6193  0.3333 -0.0819
  357MOL0     O46995   7.844   4.618  10.833  0.3047  0.9144  0.1253
  357MOL0     C46996   7.797   4.592  10.706 -0.1626 -0.1201  0.1341
  357MOL0     C46997   7.699   4.664  10.629  0.4985  0.1314  0.7048
  357MOL0     C46998   7.673   4.636  10.494  0.4054 -0.3607  0.2435
  357MOL0     C46999   7.766   4.551  10.427  0.8608 -0.2792  0.8401
  357MOL0     O47000   7.759   4.555  10.293  0.1976  0.3418  1.6600
  357MOL0     C47001   7.869   4.507  10.221  0.9526 -0.7048 -0.0907
  357MOL0     C47002   7.842   4.528  10.073 -0.1446  0.9313 -0.0177
  357MOL0     C47003   7.952   4.455   9.993 -0.3929  0.2899 -0.1031
  357MOL0     C47004   7.976   4.521   9.858  0.3582  0.1877 -0.1090
  357MOL0     C47005   8.091   4.614   9.864  0.1275  0.0630 -1.4265
  357MOL0     C47006   8.158   4.654   9.731  0.1583  0.4841  0.4436
  357MOL0     C47007   8.255   4.777   9.747 -0.4893  0.5812  0.6467
  357MOL0     C47008   8.219   4.870   9.634 -0.1262 -0.4279 -0.8136
  357MOL0     N47009   8.111   4.966   9.680  0.9238 -0.0112  0.2729
  357MOL0     C47010   7.975   4.934   9.696 -0.3044  0.3171  0.0974
  357MOL0     C47011   7.920   5.051   9.734  0.2645 -0.3132  0.2202
  357MOL0     C47012   7.775   5.078   9.755 -0.1051 -0.0087  0.4591
  357MOL0     C47013   7.702   5.189   9.670 -0.2056  0.4766  0.2309
  357MOL0     C47014   7.684   5.324   9.749  0.3498 -0.7046 -0.2407
  357MOL0     C47015   7.539   5.353   9.799 -0.6595  0.3280 -0.0503
  357MOL0     O47016   7.442   5.371   9.688 -0.5499  0.2631 -0.5655
  357MOL0     C47017   7.303   5.394   9.715  0.1897 -0.6064 -0.0827
  357MOL0     C47018   7.207   5.385   9.620  0.7381 -0.0770 -0.0605
  357MOL0     C47019   7.072   5.404   9.645  0.2572  0.8639 -0.9423
  357MOL0     C47020   7.019   5.428   9.776 -0.9412  0.8286 -0.1370
  357MOL0     C47021   6.875   5.455   9.796  0.4106  0.3451  0.1220
  357MOL0     O47022   6.845   5.448   9.929  0.5876  0.1129  0.5688
  357MOL0     C47023   6.711   5.466   9.959 -1.2707 -0.4078 -0.2655
  357MOL0     C47024   6.638   5.583   9.950  0.5031  0.2201  0.0589
  357MOL0     C47025   6.493   5.578   9.977 -0.9746  0.4105  0.5944
  357MOL0     C47026   6.441   5.459  10.009 -0.0297  0.0504  0.7968
  357MOL0     O47027   6.301   5.460  10.033  0.3088  0.0017 -0.3063
  357MOL0     C47028   6.233   5.363  10.115 -0.2853  0.3302 -0.2741
  357MOL0     C47029   6.092   5.406  10.141  0.5644 -0.2050 -0.7815
  357MOL0     C47030   6.078   5.526  10.229  0.3266  0.0641  0.8432
  357MOL0     C47031   5.927   5.559  10.247  0.6583  0.2095  0.0584
  357MOL0     C47032   5.916   5.695  10.333  0.6124 -0.5821 -0.5550
  357MOL0     C47033   5.785   5.690  10.417 -0.6467 -0.6384  0.0201
  357MOL0     C47034   5.660   5.641  10.347 -0.9416  0.2928 -0.4646
  357MOL0     C47035   5.614   5.747  10.245 -0.7288 -0.8743 -0.2078
  357MOL0    Cl47036   5.452   5.699  10.200 -0.2997  0.5053 -0.3715
  357MOL0     C47037   6.521   5.349  10.047 -0.5809  0.3072  0.2174
  357MOL0     C47038   6.658   5.347  10.022 -0.3634  0.2691 -0.5800
  357MOL0     O47039   6.801   5.482   9.707  0.0176  0.0574  0.4419
  357MOL0     C47040   7.119   5.434   9.877  1.0214  0.4927 -0.8415
  357MOL0     C47041   7.254   5.419   9.842  0.0346 -0.7718 -0.2429
  357MOL0     N47042   8.021   5.146   9.736 -0.4154  0.0030 -0.6391
  357MOL0     N47043   8.132   5.097   9.707 -0.0937 -0.3890  0.2613
  357MOL0     C47044   7.853   4.473  10.501  0.0377 -0.3629  0.2476
  357MOL0     C47045   7.869   4.490  10.634  0.6529  0.9932  0.4304
  357MOL0     C47046   7.898   4.788  10.994 -1.3685  0.3062  0.0026
  357MOL0     C47047   7.984   4.893  11.034 -0.7893  0.7430  0.3122
  357MOL0     C47048   7.989   4.942  11.158 -0.5014 -0.8361 -0.3671
  357MOL0     C47049   7.918   4.881  11.267 -0.1119 -0.2452  0.2750
  357MOL0     O47050   7.912   4.939  11.388 -0.0717 -0.2701  0.0264
  357MOL0     C47051   7.819   4.908  11.495 -0.0897  0.5780  0.4580
  357MOL0     C47052   7.679   4.956  11.474  0.9791 -0.5965 -0.8124
  357MOL0     C47053   7.594   4.912  11.594 -0.1860 -0.4691  0.3702
  357MOL0     C47054   7.552   4.762  11.597 -1.1575 -0.1354 -0.1807
  357MOL0     C47055   7.608   4.679  11.712 -0.7982 -0.1864 -0.3239
  357MOL0     C47056   7.672   4.616  11.787 -1.1175 -1.0560 -0.5140
  357MOL0     C47057   7.843   4.770  11.232 -0.1151 -0.5910  0.1669
  357MOL0     C47058   7.838   4.719  11.099  1.2094  0.3302 -0.1711
  357MOL0     H47059   7.631   4.725  10.688  0.4647  0.2441  0.5508
  357MOL0     H47060   7.594   4.675  10.431  0.2559 -0.7088  0.2096
  357MOL0     H47061   7.890   4.401  10.233 -0.9146 -1.0517  0.4071
  357MOL0     H47062   7.959   4.562  10.251  3.3661 -3.3762 -1.8413
  357MOL0     H47063   7.855   4.636  10.068  2.0797  0.6889 -0.6536
  357MOL0     H47064   7.743   4.488  10.048  0.5303 -3.0058  2.5665
  357MOL0     H47065   7.916   4.358   9.956  0.3334  0.6542 -1.8570
  357MOL0     H47066   8.030   4.441  10.068 -1.2692 -1.3768  0.5691
  357MOL0     H47067   8.002   4.458   9.771  0.7610 -1.3911  1.1044
  357MOL0     H47068   7.882   4.563   9.822 -0.2845 -1.2804 -0.2316
  357MOL0     H47069   8.176   4.561   9.908  2.1415  1.8932 -2.9064
  357MOL0     H47070   8.058   4.698   9.927 -2.4484 -0.7692 -1.5371
  357MOL0     H47071   8.078   4.693   9.668  0.5778 -0.9621 -1.0416
  357MOL0     H47072   8.201   4.566   9.682 -2.3711 -0.1684 -0.7720
  357MOL0     H47073   8.245   4.817   9.848  0.0317 -0.4750  1.1382
  357MOL0     H47074   8.358   4.743   9.732 -0.0007  1.7475  1.2109
  357MOL0     H47075   8.194   4.825   9.537 -0.7591 -1.0407 -0.3804
  357MOL0     H47076   8.311   4.926   9.620  1.9035 -4.0516 -3.6930
  357MOL0     H47077   7.919   4.842   9.681  0.6830 -0.1640 -0.6836
  357MOL0     H47078   7.763   5.110   9.858  2.6045 -1.4765  1.3434
  357MOL0     H47079   7.717   4.987   9.737 -0.2530 -0.0922  1.3537
  357MOL0     H47080   7.606   5.141   9.654  0.0168 -0.4350  1.4538
  357MOL0     H47081   7.745   5.197   9.570  1.9086  2.9017  1.2114
  357MOL0     H47082   7.751   5.318   9.835 -0.6247 -2.6462  0.4450
  357MOL0     H47083   7.701   5.399   9.671  1.1639  0.3125  0.8917
  357MOL0     H47084   7.553   5.442   9.861 -0.0928  0.5205 -0.4398
  357MOL0     H47085   7.511   5.274   9.869 -0.3896 -0.1454 -0.4669
  357MOL0     H47086   7.248   5.375   9.520  2.3069  5.1075 -0.2059
  357MOL0     H47087   6.993   5.392   9.571 -2.9734  1.5671  2.1474
  357MOL0     H47088   6.681   5.670   9.902 -0.0084  0.1850 -0.4690
  357MOL0     H47089   6.422   5.656   9.954 -0.9635 -0.0403 -1.0931
  357MOL0     H47090   6.279   5.367  10.214 -2.3946 -1.6231  0.8742
  357MOL0     H47091   6.231   5.261  10.076 -2.9582 -1.1612  3.1921
  357MOL0     H47092   6.052   5.321  10.197  3.0931 -0.8988  0.1196
  357MOL0     H47093   6.030   5.414  10.051  0.1078 -1.7662 -0.6393
  357MOL0     H47094   6.139   5.604  10.183  0.2859 -1.6219 -2.3880
  357MOL0     H47095   6.108   5.499  10.331 -0.3218 -2.8625  0.3592
  357MOL0     H47096   5.874   5.573  10.153  2.1375  0.8843 -0.7092
  357MOL0     H47097   5.877   5.471  10.288 -0.5960  1.0243  0.3511
  357MOL0     H47098   5.906   5.786  10.273  1.3960 -0.2233 -0.1563
  357MOL0     H47099   6.004   5.702  10.398 -0.8450  0.0366  1.4819
  357MOL0     H47100   5.758   5.779  10.475  0.9420  1.9206 -2.8295
  357MOL0     H47101   5.806   5.620  10.498  0.5168 -0.1176  0.1922
  357MOL0     H47102   5.668   5.539  10.308 -1.5185  0.0288  0.0775
  357MOL0     H47103   5.583   5.619  10.422  1.3450  0.1667  1.9652
  357MOL0     H47104   5.671   5.758  10.152 -1.3041  2.1492 -0.2857
  357MOL0     H47105   5.603   5.848  10.285  0.3739  0.7357 -3.6204
  357MOL0     H47106   6.477   5.261  10.092  1.7481 -1.7439 -1.2535
  357MOL0     H47107   6.722   5.260  10.034 -3.3236 -2.4922 -2.8861
  357MOL0     H47108   7.100   5.448   9.983  1.4963 -2.4097 -0.2932
  357MOL0     H47109   7.315   5.439   9.929 -2.7730 -1.3898  2.0454
  357MOL0     H47110   7.922   4.402  10.458  2.6327  0.4963  2.6679
  357MOL0     H47111   7.926   4.412  10.683  0.7263  0.4051 -0.5634
  357MOL0     H47112   8.053   4.938  10.964  0.4952 -2.6252 -0.8040
  357MOL0     H47113   8.037   5.034  11.190 -1.8748 -0.7888  1.8038
  357MOL0     H47114   7.873   4.953  11.578 -0.1459  2.0910 -0.2862
  357MOL0     H47115   7.816   4.799  11.495  1.5233  0.4506 -1.9038
  357MOL0     H47116   7.682   5.062  11.445  2.3849 -0.0416  1.1541
  357MOL0     H47117   7.629   4.903  11.392  3.2031 -4.4406  0.0734
  357MOL0     H47118   7.503   4.972  11.595  0.8904  1.2853  2.3836
  357MOL0     H47119   7.659   4.928  11.681 -0.0147 -0.3474  0.2218
  357MOL0     H47120   7.444   4.746  11.608 -1.4002  0.4431 -1.5488
  357MOL0     H47121   7.582   4.715  11.503  1.1050  1.1507 -0.1728
  357MOL0     H47122   7.736   4.548  11.840 -0.5039  1.3161  1.9912
  357MOL0     H47123   7.790   4.710  11.306  2.7980 -1.4165  1.7474
  357MOL0     H47124   7.769   4.642  11.067 -1.5442  2.9623 -0.9679
  358MOL0     O47125   9.851   5.517   1.258  0.2147  0.2028  0.3343
  358MOL0     C47126   9.861   5.535   1.139 -0.1104  0.0017 -0.0208
  358MOL0     O47127   9.779   5.616   1.065  0.5757 -0.3610  0.2444
  358MOL0     C47128   9.684   5.703   1.116  0.8267 -0.0602  0.9672
  358MOL0     C47129   9.621   5.784   1.018  0.9511 -0.1277  0.5849
  358MOL0     C47130   9.509   5.858   1.048 -0.5559 -0.8884  0.9188
  358MOL0     C47131   9.471   5.876   1.182 -1.0387 -0.5030 -0.2555
  358MOL0     O47132   9.367   5.946   1.229  0.2684 -0.7156  0.0693
  358MOL0     C47133   9.275   6.001   1.130  1.0625  0.2326 -0.8926
  358MOL0     C47134   9.333   6.135   1.074 -1.0857 -0.3215 -0.6887
  358MOL0     C47135   9.234   6.247   1.044  0.4549  0.3169  0.4445
  358MOL0     C47136   9.152   6.215   0.918 -0.4270  0.3831 -0.1467
  358MOL0     C47137   9.066   6.319   0.867  0.0276 -0.3149 -0.0951
  358MOL0     C47138   8.970   6.380   0.977 -0.9335  0.9682  0.3971
  358MOL0     C47139   8.857   6.487   0.939  0.8249  0.2872  0.1601
  358MOL0     C47140   8.767   6.428   0.836 -0.3400 -0.9821  0.8737
  358MOL0     N47141   8.671   6.525   0.790  0.0845 -1.2126 -0.7551
  358MOL0     C47142   8.699   6.639   0.713  0.6231  0.2924  0.3747
  358MOL0     C47143   8.573   6.704   0.694  0.3207  0.4549  0.8765
  358MOL0     C47144   8.547   6.817   0.602 -0.7947 -0.0743  0.2842
  358MOL0     C47145   8.506   6.946   0.682 -0.1610  0.3076 -0.4761
  358MOL0     C47146   8.634   7.018   0.745 -0.9894  0.0731  0.6969
  358MOL0     C47147   8.589   7.116   0.852  0.6977  0.1912 -0.6076
  358MOL0     O47148   8.714   7.172   0.912  0.4489 -0.1115  1.2456
  358MOL0     C47149   8.706   7.266   1.016  0.1236  0.6643 -0.2289
  358MOL0     C47150   8.589   7.313   1.078 -0.1177  0.9166  0.1157
  358MOL0     C47151   8.575   7.411   1.174 -0.7900  0.2880 -0.0942
  358MOL0     C47152   8.689   7.483   1.211 -0.0247 -0.0687  0.3586
  358MOL0     C47153   8.681   7.590   1.307  0.0621 -0.2152  0.7716
  358MOL0     O47154   8.801   7.638   1.353  0.1684 -0.1783 -0.3439
  358MOL0     C47155   8.813   7.717   1.461  0.2123  0.1899 -0.5113
  358MOL0     C47156   8.701   7.773   1.540 -0.3404  0.2640  0.1935
  358MOL0     C47157   8.716   7.868   1.637  0.3559  0.3638 -1.0502
  358MOL0     C47158   8.851   7.900   1.671  0.1712 -0.6199 -0.7261
  358MOL0     O47159   8.877   7.977   1.790  0.4361 -0.3403  0.0832
  358MOL0     C47160   8.786   7.965   1.894  0.0280  0.5046  0.4014
  358MOL0     C47161   8.846   8.042   2.012  0.7205  0.5937 -0.7287
  358MOL0     C47162   8.992   8.043   2.024  0.3020  0.0642 -0.3467
  358MOL0     C47163   9.058   7.911   2.045 -0.0813  0.8839  0.3903
  358MOL0     C47164   9.207   7.924   2.056  0.0108 -0.7368 -0.3091
  358MOL0     C47165   9.239   7.992   2.184 -0.6111 -0.0401 -0.3698
  358MOL0     C47166   9.368   7.934   2.246  0.1783  0.2256 -0.2766
  358MOL0     C47167   9.491   7.935   2.151 -0.0845 -0.7124 -1.0617
  358MOL0    Cl47168   9.489   7.772   2.091 -0.5796 -0.3860 -0.5204
  358MOL0     C47169   8.962   7.857   1.594  0.1011 -0.1895 -0.5756
  358MOL0     C47170   8.946   7.761   1.495  0.1169  0.1575  0.0119
  358MOL0     O47171   8.565   7.641   1.318 -1.0078 -0.2763 -0.3708
  358MOL0     C47172   8.815   7.441   1.154 -0.3645 -0.5893  0.4178
  358MOL0     C47173   8.822   7.333   1.065  0.0020  0.3426 -0.2369
  358MOL0     N47174   8.485   6.616   0.748  0.6323 -0.3326 -1.1055
  358MOL0     N47175   8.543   6.509   0.792  0.6987  0.5724 -0.2488
  358MOL0     C47176   9.546   5.811   1.289  0.2665  0.7870  0.0599
  358MOL0     C47177   9.644   5.713   1.252  0.8612 -0.6754  0.8475
  358MOL0     C47178   9.943   5.449   1.072  0.4927  0.1064  0.1031
  358MOL0     C47179  10.044   5.365   1.140  1.3112 -0.0173 -0.0499
  358MOL0     C47180  10.154   5.318   1.076 -0.9795  1.1948 -0.1411
  358MOL0     C47181  10.167   5.326   0.940  1.1956 -0.5903 -0.2594
  358MOL0     O47182  10.276   5.272   0.879 -0.4988 -0.4855  0.6873
  358MOL0     C47183  10.265   5.196   0.756  0.1022  0.1560 -0.0243
  358MOL0     C47184  10.280   5.049   0.794  1.6812 -0.4148  0.7714
  358MOL0     C47185  10.401   5.014   0.878  0.0627  0.2848  0.1213
  358MOL0     C47186  10.363   4.963   1.018  0.2513 -0.8471 -0.0711
  358MOL0     C47187  10.484   4.940   1.094  0.1163 -0.3281 -0.4320
  358MOL0     C47188  10.587   4.929   1.160 -0.4992  0.1116  0.1678
  358MOL0     C47189  10.071   5.406   0.868 -0.0150 -0.0903 -0.6191
  358MOL0     C47190   9.969   5.474   0.934  0.6007  0.2201  0.0356
  358MOL0     H47191   9.669   5.780   0.920 -0.0588  1.8500 -0.0344
  358MOL0     H47192   9.457   5.897   0.962 -1.7798  1.2421  2.5257
  358MOL0     H47193   9.187   6.019   1.194  0.6801 -3.0907 -0.3000
  358MOL0     H47194   9.237   5.927   1.060  0.7529 -1.7177  1.2065
  358MOL0     H47195   9.391   6.121   0.982  4.4475 -1.4014  2.5189
  358MOL0     H47196   9.400   6.174   1.151 -2.1132 -1.1011  0.6382
  358MOL0     H47197   9.298   6.334   1.024  0.2216  0.9629  2.3265
  358MOL0     H47198   9.179   6.264   1.137  1.2157  1.8900  0.6354
  358MOL0     H47199   9.216   6.187   0.835 -2.4225 -0.9459 -1.3151
  358MOL0     H47200   9.089   6.128   0.938  2.0418 -1.4825 -0.0790
  358MOL0     H47201   9.002   6.282   0.786  2.1123  1.3068 -2.6329
  358MOL0     H47202   9.123   6.395   0.813 -2.6284  2.0770  0.2539
  358MOL0     H47203   9.027   6.432   1.054  0.8170  1.8842 -1.4273
  358MOL0     H47204   8.909   6.301   1.021  0.7391 -0.6717 -0.0831
  358MOL0     H47205   8.808   6.512   1.033 -0.8217  1.7421 -1.0331
  358MOL0     H47206   8.913   6.574   0.904  3.3490 -1.9051 -1.6482
  358MOL0     H47207   8.706   6.344   0.869 -1.5443 -1.2185 -1.7205
  358MOL0     H47208   8.817   6.384   0.750  0.1651  3.1157 -1.1688
  358MOL0     H47209   8.797   6.669   0.678  0.0407  0.6644 -1.0147
  358MOL0     H47210   8.471   6.796   0.526 -0.2392  1.1877 -0.6473
  358MOL0     H47211   8.641   6.846   0.555  0.1360  0.9181  2.6261
  358MOL0     H47212   8.436   6.910   0.758 -2.8774  1.6747 -2.1597
  358MOL0     H47213   8.454   7.015   0.615  1.9119  0.0377 -2.4494
  358MOL0     H47214   8.696   6.935   0.780 -0.1287 -0.1305 -1.1994
  358MOL0     H47215   8.687   7.067   0.664  0.0888  1.6686  2.2937
  358MOL0     H47216   8.537   7.047   0.919  0.3215  0.4056 -0.6746
  358MOL0     H47217   8.521   7.192   0.813 -1.1110 -1.6435 -1.1794
  358MOL0     H47218   8.492   7.272   1.051 -0.1985  1.6097 -0.6905
  358MOL0     H47219   8.474   7.433   1.208 -1.7189 -2.9811 -0.3219
  358MOL0     H47220   8.598   7.748   1.513  0.5055 -0.4617 -2.6641
  358MOL0     H47221   8.622   7.899   1.682  0.5853  2.0572 -1.6560
  358MOL0     H47222   8.780   7.861   1.928  1.8581 -0.1805 -1.1765
  358MOL0     H47223   8.689   8.005   1.864  0.1363  0.9717  0.6724
  358MOL0     H47224   8.806   8.007   2.108  1.7994  0.0958 -0.4454
  358MOL0     H47225   8.818   8.148   2.007  1.4026  0.8517  0.5122
  358MOL0     H47226   9.009   8.107   2.111 -2.6575  3.3508 -1.9336
  358MOL0     H47227   9.034   8.096   1.938  1.6812  0.5923  0.6026
  358MOL0     H47228   9.026   7.863   2.138  0.9063  1.5369  1.0929
  358MOL0     H47229   9.034   7.845   1.961 -1.2587  0.0239  1.3746
  358MOL0     H47230   9.241   7.988   1.975 -2.6541  2.3316  0.7616
  358MOL0     H47231   9.236   7.822   2.031 -0.7503 -1.1622  0.4471
  358MOL0     H47232   9.162   7.990   2.261  0.5861  1.4808  0.9378
  358MOL0     H47233   9.262   8.097   2.163 -1.6623 -0.1344 -2.2175
  358MOL0     H47234   9.381   7.990   2.339 -2.6716  0.1586  0.2582
  358MOL0     H47235   9.339   7.833   2.278 -0.5512  0.7378  0.7298
  358MOL0     H47236   9.587   7.946   2.204  0.0717 -2.3638 -0.9444
  358MOL0     H47237   9.489   8.001   2.064 -0.2843 -2.0388 -2.1057
  358MOL0     H47238   9.064   7.875   1.625  0.6839 -0.4709 -2.2225
  358MOL0     H47239   9.031   7.718   1.444 -0.0107  1.6275 -1.5123
  358MOL0     H47240   8.908   7.492   1.178 -1.5956  2.6995 -1.1299
  358MOL0     H47241   8.921   7.312   1.028  0.4779  0.3234  1.0186
  358MOL0     H47242   9.512   5.827   1.391 -1.7553 -1.1799 -0.2263
  358MOL0     H47243   9.684   5.650   1.331  0.8960 -2.4866 -0.5563
  358MOL0     H47244  10.047   5.361   1.248  1.5467  3.9755  0.2641
  358MOL0     H47245  10.240   5.275   1.127  0.5211  0.1304 -3.2988
  358MOL0     H47246  10.332   5.232   0.677 -0.9814 -0.6370 -1.3309
  358MOL0     H47247  10.164   5.211   0.718 -0.3926  2.2396  1.8822
  358MOL0     H47248  10.188   5.016   0.844  2.3906 -1.5847  1.3394
  358MOL0     H47249  10.283   4.996   0.698  1.5512 -0.8658  1.0147
  358MOL0     H47250  10.471   5.097   0.868  1.7454 -1.2812 -2.6505
  358MOL0     H47251  10.456   4.938   0.820 -2.9752 -0.9442 -1.3531
  358MOL0     H47252  10.294   5.037   1.060 -3.1782 -2.7076 -1.9755
  358MOL0     H47253  10.304   4.871   1.011  1.3913 -1.5817 -0.2631
  358MOL0     H47254  10.678   4.929   1.217 -1.1448 -0.0634  1.2219
  358MOL0     H47255  10.092   5.417   0.762 -0.7762 -0.1776 -0.7853
  358MOL0     H47256   9.904   5.540   0.877 -1.6537 -0.0589  2.1057
  359MOL0     O47257   5.691   6.939   0.656  0.3648  0.0293  0.2234
  359MOL0     C47258   5.697   7.049   0.712  0.0762 -0.3745  1.4194
  359MOL0     O47259   5.792   7.095   0.791  0.6647 -0.1027  0.0356
  359MOL0     C47260   5.910   7.036   0.825 -0.9254 -0.3164 -0.0817
  359MOL0     C47261   5.957   6.913   0.788  1.0509  0.4961  0.3752
  359MOL0     C47262   6.099   6.891   0.800 -0.0967 -0.6168  0.7596
  359MOL0     C47263   6.181   6.976   0.868  0.1952 -1.1123 -0.4954
  359MOL0     O47264   6.316   6.952   0.874  0.3371  0.6062  0.0874
  359MOL0     C47265   6.365   6.819   0.889  0.0103  0.1543 -1.0899
  359MOL0     C47266   6.490   6.824   0.975 -0.6448 -0.2073 -0.2413
  359MOL0     C47267   6.563   6.692   0.997  0.2997  0.1564  0.3355
  359MOL0     C47268   6.644   6.686   1.129  0.0699 -0.2755 -0.1351
  359MOL0     C47269   6.671   6.544   1.170 -0.2575  0.8762 -0.0259
  359MOL0     C47270   6.825   6.501   1.178  1.1765  1.0371  0.1856
  359MOL0     C47271   6.918   6.575   1.278  0.2355 -0.6787 -0.3433
  359MOL0     C47272   6.864   6.583   1.419 -0.4220 -0.6693  0.8438
  359MOL0     N47273   6.783   6.697   1.441  0.1702  1.1901 -0.0098
  359MOL0     C47274   6.804   6.826   1.432  0.0433 -0.0394 -0.3593
  359MOL0     C47275   6.683   6.879   1.463  0.2544 -0.1266  0.7595
  359MOL0     C47276   6.655   7.023   1.461  0.3209 -0.2414 -0.2300
  359MOL0     C47277   6.659   7.079   1.601  0.4230 -0.3699 -0.9491
  359MOL0     C47278   6.646   7.232   1.606  0.2574 -0.2793  0.2628
  359MOL0     C47279   6.650   7.266   1.748 -0.2500  0.0301  0.4942
  359MOL0     O47280   6.653   7.411   1.766  0.1228 -0.3518  0.4023
  359MOL0     C47281   6.586   7.452   1.880  0.8337 -0.5914  0.2358
  359MOL0     C47282   6.510   7.564   1.875 -0.6129 -0.0340  0.5734
  359MOL0     C47283   6.438   7.604   1.979 -0.7548  0.2251  0.0456
  359MOL0     C47284   6.446   7.544   2.102  0.4475  0.5429  0.3101
  359MOL0     C47285   6.389   7.594   2.226  0.2847  0.5331  0.0168
  359MOL0     O47286   6.346   7.501   2.315 -0.9302  0.3207  0.9101
  359MOL0     C47287   6.289   7.535   2.437 -1.1581 -0.2729  0.4761
  359MOL0     C47288   6.351   7.487   2.550 -0.4376  0.2164  0.4100
  359MOL0     C47289   6.302   7.512   2.677  0.3874  0.0282  0.2631
  359MOL0     C47290   6.186   7.579   2.699  0.1512  0.6108  0.7604
  359MOL0     O47291   6.111   7.582   2.813 -0.9866  0.1654  0.7619
  359MOL0     C47292   6.174   7.556   2.936 -0.0460 -1.4341  1.0725
  359MOL0     C47293   6.273   7.671   2.979  0.2586 -0.4435 -0.6638
  359MOL0     C47294   6.214   7.805   2.934  0.0509 -0.4858  0.4925
  359MOL0     C47295   6.075   7.835   3.008  0.0952  0.0631  0.3791
  359MOL0     C47296   5.994   7.954   2.950  0.3679  0.0422  0.0503
  359MOL0     C47297   5.966   7.924   2.805  0.7085 -0.2751 -0.5207
  359MOL0     C47298   5.868   8.025   2.747 -0.5110 -0.2898 -1.3159
  359MOL0     C47299   5.792   7.978   2.627 -0.0452 -0.8538 -0.4786
  359MOL0    Cl47300   5.898   7.944   2.490  0.4133  0.2823 -0.1798
  359MOL0     C47301   6.133   7.642   2.582 -0.1270 -0.0625  0.2751
  359MOL0     C47302   6.180   7.623   2.449 -0.0379 -1.6080  0.0381
  359MOL0     O47303   6.378   7.715   2.244 -1.0659 -0.3469  0.8834
  359MOL0     C47304   6.521   7.429   2.112  0.2434  0.4008  0.6274
  359MOL0     C47305   6.590   7.385   2.003 -0.2964  1.7580  0.3567
  359MOL0     N47306   6.594   6.777   1.495 -0.7670 -0.0698 -0.8186
  359MOL0     N47307   6.652   6.668   1.474  0.1297  0.3863 -0.6644
  359MOL0     C47308   6.125   7.096   0.923 -0.2014  0.0570 -0.2602
  359MOL0     C47309   5.996   7.131   0.891  0.8634  0.2019 -0.3358
  359MOL0     C47310   5.579   7.130   0.704  0.0712 -0.3234 -0.3720
  359MOL0     C47311   5.580   7.268   0.750 -0.8630  0.2329 -0.0736
  359MOL0     C47312   5.468   7.353   0.759  0.1711  0.7871  0.4834
  359MOL0     C47313   5.342   7.297   0.722  0.7638 -0.3706 -0.5245
  359MOL0     O47314   5.224   7.374   0.743  0.4667 -0.1559 -0.5952
  359MOL0     C47315   5.205   7.447   0.862 -0.5586 -0.1725  0.4292
  359MOL0     C47316   5.056   7.478   0.889  0.3266  0.1239  0.6503
  359MOL0     C47317   5.032   7.567   1.005 -0.1152  0.2347 -0.0371
  359MOL0     C47318   4.890   7.617   1.015 -0.9087 -0.3559  0.5945
  359MOL0     C47319   4.867   7.729   0.929 -0.4882  1.4533 -0.2335
  359MOL0     C47320   4.865   7.817   0.845 -0.7406 -1.2228  0.0108
  359MOL0     C47321   5.337   7.169   0.674 -0.1454  0.1853  0.9860
  359MOL0     C47322   5.451   7.086   0.659 -0.0873 -0.4948 -0.2736
  359MOL0     H47323   5.899   6.834   0.742  0.4523 -0.7696  3.1416
  359MOL0     H47324   6.132   6.799   0.753  2.5929  0.9805 -0.7095
  359MOL0     H47325   6.388   6.786   0.788 -1.6588 -0.3724 -1.3295
  359MOL0     H47326   6.291   6.751   0.933  2.5076 -0.6080  2.4496
  359MOL0     H47327   6.473   6.871   1.072  2.0437  0.3241  0.0530
  359MOL0     H47328   6.563   6.883   0.919 -0.8595 -0.8771 -1.2627
  359MOL0     H47329   6.630   6.671   0.913  2.7588  1.7116  1.8083
  359MOL0     H47330   6.490   6.611   1.010 -0.1756  0.2745 -1.3765
  359MOL0     H47331   6.737   6.743   1.124  0.1157 -0.3749 -0.4449
  359MOL0     H47332   6.600   6.731   1.219  1.1550 -0.9708  0.7650
  359MOL0     H47333   6.618   6.477   1.101  1.8825 -2.0414  0.9309
  359MOL0     H47334   6.627   6.537   1.270 -0.6191  1.7912 -0.1097
  359MOL0     H47335   6.875   6.514   1.082  1.4492  1.5883  0.3977
  359MOL0     H47336   6.841   6.394   1.195  1.3538  0.4892 -2.9506
  359MOL0     H47337   7.009   6.514   1.281  0.6860 -0.1669 -2.1150
  359MOL0     H47338   6.942   6.674   1.238 -0.7148 -0.9996 -1.7987
  359MOL0     H47339   6.949   6.593   1.486 -0.3194 -1.4800  0.8360
  359MOL0     H47340   6.810   6.494   1.454 -1.0898  0.0794  1.7775
  359MOL0     H47341   6.897   6.879   1.413  0.0432  0.8541  1.9075
  359MOL0     H47342   6.562   7.041   1.407  1.6981  2.6016 -1.8808
  359MOL0     H47343   6.732   7.081   1.409 -0.5320  2.0907  0.9707
  359MOL0     H47344   6.742   7.042   1.662  1.3836  1.7752 -0.8704
  359MOL0     H47345   6.568   7.045   1.652  0.1842 -1.6444 -2.1839
  359MOL0     H47346   6.720   7.273   1.537  0.0697 -0.3565  0.0150
  359MOL0     H47347   6.547   7.258   1.566  0.6948 -0.0817 -0.7091
  359MOL0     H47348   6.747   7.231   1.785  0.9059  1.2540 -1.2184
  359MOL0     H47349   6.578   7.212   1.810 -2.4591  4.1165  1.8985
  359MOL0     H47350   6.528   7.627   1.788 -0.0003  1.1085  1.4902
  359MOL0     H47351   6.376   7.693   1.971  0.6023  1.2046  0.1859
  359MOL0     H47352   6.435   7.420   2.534 -0.5579 -0.0818  0.9986
  359MOL0     H47353   6.351   7.459   2.759 -2.8946 -3.3921  0.2930
  359MOL0     H47354   6.231   7.463   2.938 -1.3799 -2.4077 -1.6281
  359MOL0     H47355   6.099   7.548   3.015  0.7631  0.1636  2.0450
  359MOL0     H47356   6.371   7.655   2.935  0.2945 -1.2373 -0.3199
  359MOL0     H47357   6.284   7.679   3.087 -0.7224  0.6503 -0.6248
  359MOL0     H47358   6.199   7.808   2.826  0.2054 -1.1622  0.4475
  359MOL0     H47359   6.285   7.879   2.974 -1.0349  0.5700  0.5428
  359MOL0     H47360   6.015   7.745   2.990  1.7834 -1.7591  3.2140
  359MOL0     H47361   6.072   7.844   3.117 -2.5458 -1.9353  0.5793
  359MOL0     H47362   6.048   8.046   2.975 -0.6128  0.0551  2.2706
  359MOL0     H47363   5.904   7.969   3.010  1.4619 -2.4507  2.5326
  359MOL0     H47364   5.908   7.832   2.804 -2.5112  1.5917 -1.1464
  359MOL0     H47365   6.053   7.925   2.739 -0.5411  0.5313 -2.2471
  359MOL0     H47366   5.793   8.050   2.823 -1.8502 -0.9004 -2.4035
  359MOL0     H47367   5.915   8.120   2.717  0.3239 -1.3556 -3.6053
  359MOL0     H47368   5.714   8.052   2.611  2.5417  1.8487 -1.4131
  359MOL0     H47369   5.743   7.884   2.656 -0.7099  0.3078  2.5899
  359MOL0     H47370   6.049   7.705   2.609  1.7664  1.8452  2.0329
  359MOL0     H47371   6.136   7.676   2.365  1.6368  1.8960  1.1670
  359MOL0     H47372   6.538   7.360   2.194  2.3453 -0.8234 -0.7419
  359MOL0     H47373   6.650   7.295   1.998 -0.7897  1.5085 -2.7449
  359MOL0     H47374   6.190   7.160   0.981  0.1333 -2.0066  1.7432
  359MOL0     H47375   5.950   7.226   0.919 -2.4269 -1.6060  0.9579
  359MOL0     H47376   5.670   7.319   0.783  0.0041 -2.5045  2.2475
  359MOL0     H47377   5.473   7.449   0.809 -0.8206  1.0763  0.0498
  359MOL0     H47378   5.257   7.543   0.859 -0.0695 -0.4666 -1.1616
  359MOL0     H47379   5.236   7.385   0.947 -0.2929 -1.1482 -0.3614
  359MOL0     H47380   5.014   7.525   0.800  0.1268  2.2173  1.8000
  359MOL0     H47381   5.009   7.383   0.917  1.1719  0.3143  2.9858
  359MOL0     H47382   5.095   7.656   0.999  1.2945 -0.8228 -1.8109
  359MOL0     H47383   5.039   7.519   1.103 -1.8382 -0.3976 -0.1892
  359MOL0     H47384   4.821   7.537   0.985  1.4166 -2.2848  0.0816
  359MOL0     H47385   4.865   7.661   1.112  0.2871  1.7429  0.0014
  359MOL0     H47386   4.859   7.896   0.773 -1.3130 -2.5901 -1.4882
  359MOL0     H47387   5.245   7.125   0.638  0.9595 -2.8349  1.5665
  359MOL0     H47388   5.450   6.985   0.620 -0.6683  0.4218 -2.8471
  360MOL0     O47389  10.496   6.458   4.757 -1.0726  0.1343 -0.2345
  360MOL0     C47390  10.493   6.406   4.871 -0.4792 -0.1670 -0.2675
  360MOL0     O47391  10.407   6.305   4.904 -0.0201  0.2316  0.1306
  360MOL0     C47392  10.321   6.247   4.811  1.3697  0.6925 -0.0852
  360MOL0     C47393  10.319   6.112   4.774  0.2546  0.0225 -0.2813
  360MOL0     C47394  10.239   6.059   4.670 -0.4078  0.0013 -0.2925
  360MOL0     C47395  10.167   6.157   4.601  0.1042  0.5472  1.0435
  360MOL0     O47396  10.081   6.149   4.485  0.2136 -0.4033  0.4994
  360MOL0     C47397  10.065   6.014   4.440 -0.7942  0.1187  0.3158
  360MOL0     C47398   9.987   6.002   4.312  0.1780  0.2168  0.1566
  360MOL0     C47399   9.835   5.988   4.330 -0.0763 -0.2580  0.0787
  360MOL0     C47400   9.784   5.867   4.412 -1.1191 -0.2755  0.9588
  360MOL0     C47401   9.643   5.836   4.392  0.2156  0.0769 -0.1202
  360MOL0     C47402   9.580   5.764   4.521 -0.2683 -0.2234  0.8101
  360MOL0     C47403   9.625   5.623   4.527 -0.0169 -0.1359  0.8531
  360MOL0     C47404   9.550   5.547   4.638  0.2703  0.2543 -0.6588
  360MOL0     N47405   9.408   5.515   4.609 -0.1602  0.6861  0.1836
  360MOL0     C47406   9.303   5.608   4.617 -0.9104  0.3053 -0.3186
  360MOL0     C47407   9.201   5.553   4.548 -0.4275 -0.1522  0.6061
  360MOL0     C47408   9.080   5.613   4.491  0.4255  0.1175  0.0198
  360MOL0     C47409   8.944   5.567   4.548 -1.1631 -0.2583  0.2093
  360MOL0     C47410   8.898   5.435   4.491 -0.4220  0.5497 -0.3820
  360MOL0     C47411   8.757   5.406   4.532  0.1514 -0.2428 -0.6245
  360MOL0     O47412   8.729   5.271   4.486  0.0229 -0.3258  0.5776
  360MOL0     C47413   8.677   5.179   4.563 -0.2736  0.1223 -1.1091
  360MOL0     C47414   8.572   5.202   4.649  0.1080 -0.0895  0.9159
  360MOL0     C47415   8.518   5.099   4.732  0.8549 -0.0323  1.0699
  360MOL0     C47416   8.580   4.970   4.725 -0.7616 -0.5457  0.0324
  360MOL0     C47417   8.521   4.848   4.794  0.0571  0.4131  0.0190
  360MOL0     O47418   8.431   4.882   4.900  0.6967 -0.0651  0.1966
  360MOL0     C47419   8.309   4.827   4.886 -0.2931 -0.7460 -0.2089
  360MOL0     C47420   8.286   4.717   4.970  0.2109 -0.0466  0.0073
  360MOL0     C47421   8.156   4.658   4.967  0.5383 -0.1398 -0.1213
  360MOL0     C47422   8.066   4.697   4.874 -0.2891  0.2839  0.1865
  360MOL0     O47423   7.940   4.656   4.881 -0.2051  0.0349  0.4381
  360MOL0     C47424   7.841   4.750   4.845  0.5498 -0.4303  0.2836
  360MOL0     C47425   7.699   4.703   4.870 -0.4609  1.0982 -0.1223
  360MOL0     C47426   7.682   4.563   4.809  0.9012 -0.5036 -0.2557
  360MOL0     C47427   7.540   4.504   4.812 -0.8285 -0.5502 -0.9685
  360MOL0     C47428   7.433   4.583   4.736 -0.8927 -0.1859 -0.1697
  360MOL0     C47429   7.304   4.505   4.743  0.3175 -0.5964 -0.4533
  360MOL0     C47430   7.198   4.591   4.663 -0.5577 -0.2188  0.1087
  360MOL0     C47431   7.062   4.539   4.697 -0.3378 -0.6499  0.8527
  360MOL0    Cl47432   6.942   4.594   4.574 -0.1992  0.1319 -0.6381
  360MOL0     C47433   8.103   4.784   4.773  0.2407  0.9111  0.6820
  360MOL0     C47434   8.224   4.857   4.780  0.1547 -0.3165 -0.1271
  360MOL0     O47435   8.546   4.733   4.751  0.3043 -0.5793 -0.3136
  360MOL0     C47436   8.697   4.952   4.640  0.2980 -0.9041  0.0488
  360MOL0     C47437   8.740   5.055   4.559 -0.5479 -0.8813  0.2628
  360MOL0     N47438   9.237   5.421   4.505  0.5115  0.0794 -0.2010
  360MOL0     N47439   9.362   5.401   4.545 -0.5786 -0.7697  0.2726
  360MOL0     C47440  10.149   6.287   4.640  0.4418  0.2655  0.5633
  360MOL0     C47441  10.229   6.326   4.745 -0.6918  0.7493 -0.4333
  360MOL0     C47442  10.578   6.453   4.984 -0.8888  0.7420  0.1332
  360MOL0     C47443  10.681   6.542   4.959  0.4521 -0.1839  0.0085
  360MOL0     C47444  10.767   6.585   5.058  0.1511 -0.3107  0.0582
  360MOL0     C47445  10.741   6.536   5.186 -0.2654 -0.5009 -0.8140
  360MOL0     O47446  10.817   6.556   5.297 -0.2211 -0.3379  0.5522
  360MOL0     C47447  10.930   6.647   5.288  0.1370 -1.0800 -1.3155
  360MOL0     C47448  11.062   6.580   5.253  0.3683  0.0068  0.2594
  360MOL0     C47449  11.165   6.679   5.209  0.7713 -0.1737 -0.1414
  360MOL0     C47450  11.171   6.677   5.046 -0.6863 -0.2339 -0.2312
  360MOL0     C47451  11.278   6.772   5.000 -0.2861 -0.8773 -0.0885
  360MOL0     C47452  11.369   6.853   4.981  0.6448 -0.0537  0.4716
  360MOL0     C47453  10.638   6.442   5.214 -0.0228 -0.1425  0.0662
  360MOL0     C47454  10.568   6.390   5.112 -0.4625 -0.5413  0.8305
  360MOL0     H47455  10.393   6.042   4.812  1.1670  0.3117 -1.5078
  360MOL0     H47456  10.244   5.955   4.641 -0.3275  0.4280 -1.9287
  360MOL0     H47457  10.020   5.946   4.513  0.9477 -1.3581  0.0588
  360MOL0     H47458  10.158   5.963   4.415 -1.0684  0.9900 -3.0326
  360MOL0     H47459  10.018   5.910   4.262  0.7831  0.9314 -0.8141
  360MOL0     H47460  10.011   6.081   4.241 -0.9742 -0.9018 -1.5372
  360MOL0     H47461   9.803   5.975   4.226  0.8591 -1.4257 -0.0909
  360MOL0     H47462   9.792   6.077   4.377 -2.5447 -0.3053 -1.8686
  360MOL0     H47463   9.846   5.782   4.384 -0.7162  1.3042 -3.8939
  360MOL0     H47464   9.801   5.873   4.520 -0.4882 -2.2141  1.0002
  360MOL0     H47465   9.627   5.774   4.304 -1.9058 -0.5331  0.6300
  360MOL0     H47466   9.588   5.930   4.379  0.3285  0.3440  1.1542
  360MOL0     H47467   9.472   5.758   4.511 -0.0946  0.3875 -2.6811
  360MOL0     H47468   9.603   5.818   4.613  0.7803  0.2604  0.2855
  360MOL0     H47469   9.601   5.575   4.432 -1.9449  0.7438  0.8559
  360MOL0     H47470   9.732   5.629   4.549 -0.1614  0.7355  1.3948
  360MOL0     H47471   9.566   5.607   4.728 -0.8205 -2.6122  1.6072
  360MOL0     H47472   9.592   5.448   4.655 -0.0648  0.0646 -0.9217
  360MOL0     H47473   9.299   5.707   4.661  0.4629 -0.5109  1.8000
  360MOL0     H47474   9.076   5.599   4.383  0.0490 -1.5939  0.2120
  360MOL0     H47475   9.088   5.719   4.514  0.5388 -0.0945  1.0386
  360MOL0     H47476   8.875   5.645   4.514  1.0552  0.7486 -2.3974
  360MOL0     H47477   8.949   5.566   4.657 -3.6645  0.3348  0.3750
  360MOL0     H47478   8.898   5.450   4.382  0.3462  3.7805 -0.0494
  360MOL0     H47479   8.957   5.350   4.527 -0.1490 -0.5757 -3.2233
  360MOL0     H47480   8.690   5.480   4.488 -4.1294 -3.4933 -0.2252
  360MOL0     H47481   8.744   5.416   4.640  0.9747 -0.3503 -0.5071
  360MOL0     H47482   8.525   5.299   4.647  1.7210  0.7254  0.8903
  360MOL0     H47483   8.431   5.108   4.797 -0.1791 -0.1458 -0.2480
  360MOL0     H47484   8.364   4.666   5.024  1.1225  3.1850  2.0483
  360MOL0     H47485   8.138   4.575   5.035 -0.3042  0.5048  0.4557
  360MOL0     H47486   7.832   4.756   4.736  0.5715 -2.5010  0.1278
  360MOL0     H47487   7.852   4.853   4.881  0.3558 -0.7858  1.3913
  360MOL0     H47488   7.620   4.768   4.831 -4.2328 -1.9097  1.8027
  360MOL0     H47489   7.685   4.694   4.978 -0.9149 -1.7179 -0.3424
  360MOL0     H47490   7.752   4.500   4.864  1.0048 -0.3684 -0.2305
  360MOL0     H47491   7.710   4.570   4.703 -1.6905  0.6404 -0.9473
  360MOL0     H47492   7.546   4.403   4.769  0.4240 -0.5374 -0.8608
  360MOL0     H47493   7.512   4.494   4.918  1.8063  0.1326 -0.1347
  360MOL0     H47494   7.465   4.601   4.633  2.4378  1.4367  0.9989
  360MOL0     H47495   7.428   4.681   4.786 -0.0555 -0.8252  1.2376
  360MOL0     H47496   7.288   4.490   4.850  4.6161 -0.7813  0.3518
  360MOL0     H47497   7.313   4.409   4.690 -4.0599 -1.9757  0.8746
  360MOL0     H47498   7.194   4.699   4.679  0.0524 -0.5673  3.3787
  360MOL0     H47499   7.224   4.576   4.558 -0.2287  0.6134  0.0686
  360MOL0     H47500   7.040   4.590   4.791 -0.1528 -1.0252  1.1042
  360MOL0     H47501   7.070   4.431   4.711  0.5424 -0.5312  1.3680
  360MOL0     H47502   8.047   4.816   4.686  2.8791  1.9658 -0.7374
  360MOL0     H47503   8.250   4.937   4.711 -1.4677  0.7603  0.4561
  360MOL0     H47504   8.742   4.854   4.635 -0.2368 -1.1403 -0.2618
  360MOL0     H47505   8.823   5.050   4.489 -2.2637 -1.2609 -1.8609
  360MOL0     H47506  10.070   6.348   4.597 -1.5058 -2.4789 -0.0203
  360MOL0     H47507  10.241   6.430   4.773  3.4638 -0.1366  1.9433
  360MOL0     H47508  10.716   6.573   4.861  3.0946 -1.3990  0.4772
  360MOL0     H47509  10.850   6.646   5.023  1.9194 -3.5196 -1.8008
  360MOL0     H47510  10.940   6.691   5.387  1.8316 -2.6583 -0.7328
  360MOL0     H47511  10.898   6.729   5.222 -1.9318  0.1961  1.0924
  360MOL0     H47512  11.105   6.533   5.342  0.8178  1.0890  0.6263
  360MOL0     H47513  11.039   6.502   5.180  0.3522  0.0302  0.2389
  360MOL0     H47514  11.258   6.647   5.259  1.3822  0.5222 -0.8066
  360MOL0     H47515  11.134   6.775   5.251  0.5911 -0.7044  0.9865
  360MOL0     H47516  11.204   6.583   5.001 -0.3945  1.4721 -3.8889
  360MOL0     H47517  11.077   6.707   4.999 -0.8813 -1.3180 -0.5715
  360MOL0     H47518  11.451   6.918   4.958  1.4536 -0.9575  0.7247
  360MOL0     H47519  10.606   6.418   5.315 -4.6329  0.7273 -0.9502
  360MOL0     H47520  10.495   6.322   5.154 -0.3627  0.3045  2.4625
  361MOL0     O47521   0.319   8.101   1.612 -1.0798 -0.0986 -0.1267
  361MOL0     C47522   0.288   8.031   1.528  0.4773 -1.0962  0.5418
  361MOL0     O47523   0.193   8.063   1.428 -0.4739 -0.0493  0.0098
  361MOL0     C47524   0.168   8.195   1.408 -0.7165 -0.2588  0.2218
  361MOL0     C47525   0.242   8.269   1.308 -0.7890 -0.6563 -0.7073
  361MOL0     C47526   0.201   8.405   1.288 -0.6880 -0.7125  1.0072
  361MOL0     C47527   0.121   8.474   1.378 -0.7165  0.4274 -0.5924
  361MOL0     O47528   0.103   8.615   1.372 -0.6040  0.3568  0.7555
  361MOL0     C47529   0.009   8.683   1.449 -0.1302  0.5242  0.9133
  361MOL0     C47530  -0.012   8.830   1.412 -0.2421  0.5267 -0.4795
  361MOL0     C47531  -0.094   8.912   1.518 -0.4081  0.6573  0.0638
  361MOL0     C47532  -0.049   9.057   1.529  0.1149 -0.3736 -0.0068
  361MOL0     C47533   0.078   9.072   1.617 -0.8115 -0.5762 -0.1393
  361MOL0     C47534   0.065   9.029   1.767  0.0350  0.2257  0.3143
  361MOL0     C47535   0.204   9.038   1.837 -0.1569  0.5562 -0.5711
  361MOL0     C47536   0.211   8.977   1.973 -0.4097 -0.1370 -0.5258
  361MOL0     N47537   0.214   9.074   2.086 -0.6208 -0.0302 -0.5153
  361MOL0     C47538   0.328   9.104   2.170 -0.6601  0.5260  0.4088
  361MOL0     C47539   0.276   9.177   2.275 -0.0818  0.2283  0.6611
  361MOL0     C47540   0.334   9.230   2.407 -0.5422 -0.5584  0.1720
  361MOL0     C47541   0.301   9.385   2.428  0.5107  0.6287  0.1676
  361MOL0     C47542   0.373   9.465   2.542 -0.0450 -0.6519  0.4635
  361MOL0     C47543   0.382   9.619   2.528 -0.2926 -0.0077  0.6577
  361MOL0     O47544   0.406   9.668   2.663  0.6329  0.0382 -0.1292
  361MOL0     C47545   0.530   9.678   2.715 -1.0262  0.3007  0.3682
  361MOL0     C47546   0.538   9.713   2.852 -0.8148  0.2736 -0.7282
  361MOL0     C47547   0.665   9.725   2.902 -0.1196  0.5294  0.1679
  361MOL0     C47548   0.780   9.717   2.825  0.5490  0.2673 -1.0704
  361MOL0     C47549   0.909   9.726   2.899 -0.2764  0.4331  0.0676
  361MOL0     O47550   1.020   9.775   2.829  0.3040  0.8411 -0.3969
  361MOL0     C47551   1.152   9.779   2.868  1.0649 -0.1911  0.0876
  361MOL0     C47552   1.199   9.707   2.977  0.0218 -0.2879 -0.1803
  361MOL0     C47553   1.342   9.702   2.993 -0.2692 -0.2655  1.3805
  361MOL0     C47554   1.433   9.767   2.901  0.5820  0.3592  1.3252
  361MOL0     O47555   1.572   9.760   2.913 -0.6887 -0.6112 -0.6135
  361MOL0     C47556   1.656   9.854   2.837  0.1807  0.0184  0.0243
  361MOL0     C47557   1.799   9.844   2.890 -0.0196  0.6133  0.6786
  361MOL0     C47558   1.864   9.708   2.904  0.6150  0.9775 -0.3376
  361MOL0     C47559   2.022   9.722   2.907  0.9845 -1.1692 -0.0077
  361MOL0     C47560   2.082   9.583   2.879  0.2037  0.2059  0.5433
  361MOL0     C47561   2.241   9.589   2.895 -0.8273  0.1178  0.5685
  361MOL0     C47562   2.314   9.697   2.805  0.5820 -0.0872 -0.0768
  361MOL0     C47563   2.460   9.684   2.810 -0.4573  0.7045  0.8486
  361MOL0    Cl47564   2.531   9.789   2.678 -0.1553 -0.3490 -0.5265
  361MOL0     C47565   1.371   9.839   2.793  0.3401  0.6851  1.0999
  361MOL0     C47566   1.235   9.843   2.782  0.1077 -0.3096  0.8347
  361MOL0     O47567   0.905   9.671   3.011  0.6099  0.3472 -0.5254
  361MOL0     C47568   0.780   9.687   2.686 -0.0004 -0.5451 -0.8418
  361MOL0     C47569   0.646   9.669   2.634 -0.3917 -0.1819 -0.9457
  361MOL0     N47570   0.146   9.202   2.251  0.2001  1.0349  0.3393
  361MOL0     N47571   0.110   9.148   2.137  0.3378  0.5913 -0.1756
  361MOL0     C47572   0.059   8.390   1.482  0.3254 -0.1648  0.2378
  361MOL0     C47573   0.084   8.259   1.491 -0.2109 -0.1876 -0.7569
  361MOL0     C47574   0.338   7.886   1.548  0.3072 -0.1600 -0.1052
  361MOL0     C47575   0.435   7.846   1.644 -1.0669 -1.0747  0.1803
  361MOL0     C47576   0.468   7.708   1.668  0.0798 -0.1982  0.1996
  361MOL0     C47577   0.398   7.606   1.602  0.4584 -0.9803 -0.1755
  361MOL0     O47578   0.427   7.487   1.649  0.0691  0.3831  0.2025
  361MOL0     C47579   0.361   7.373   1.596  0.0213 -0.1997  0.7077
  361MOL0     C47580   0.230   7.347   1.662  0.4907  0.1953  0.2022
  361MOL0     C47581   0.214   7.351   1.813  0.3583  0.0003 -0.5582
  361MOL0     C47582   0.084   7.277   1.843  1.2506  0.1842  0.6415
  361MOL0     C47583  -0.030   7.330   1.763 -0.9224  0.8097  0.1216
  361MOL0     C47584  -0.125   7.375   1.704  0.0197  0.2374 -0.1031
  361MOL0     C47585   0.311   7.652   1.500  0.7814  1.0871  0.0194
  361MOL0     C47586   0.281   7.781   1.476  0.2733  0.1081 -1.1026
  361MOL0     H47587   0.310   8.225   1.236  1.0656 -2.1378  1.7869
  361MOL0     H47588   0.253   8.472   1.222 -2.4651  4.5903  4.3822
  361MOL0     H47589   0.041   8.674   1.554 -0.7201 -1.7692  0.9392
  361MOL0     H47590  -0.091   8.640   1.441 -0.1593  0.3974  1.7898
  361MOL0     H47591  -0.056   8.848   1.313 -2.1494 -3.1755 -0.4444
  361MOL0     H47592   0.088   8.876   1.411 -0.9087  2.3093  2.3837
  361MOL0     H47593  -0.100   8.863   1.615 -4.1148  0.6163 -0.0637
  361MOL0     H47594  -0.199   8.916   1.488 -0.4317 -2.8826 -0.7345
  361MOL0     H47595  -0.034   9.106   1.433  0.1124  0.0767  0.2199
  361MOL0     H47596  -0.133   9.098   1.585 -1.5986 -2.8460 -0.6066
  361MOL0     H47597   0.110   9.176   1.609 -0.8365 -0.4247  1.4457
  361MOL0     H47598   0.160   9.012   1.576  0.8594  1.1025  0.5903
  361MOL0     H47599   0.025   8.927   1.771 -1.8165  0.3211 -5.6637
  361MOL0     H47600  -0.017   9.086   1.811  1.6298  3.5403 -0.6347
  361MOL0     H47601   0.283   8.994   1.775  0.6241  1.6573 -0.3962
  361MOL0     H47602   0.222   9.146   1.845 -2.3859  0.8255  2.1338
  361MOL0     H47603   0.281   8.894   1.985 -0.9667 -0.2752  2.4985
  361MOL0     H47604   0.113   8.934   1.995 -0.3798  0.7512  1.4804
  361MOL0     H47605   0.434   9.081   2.164 -0.3618  1.6745  0.8676
  361MOL0     H47606   0.443   9.227   2.399 -0.5985 -1.0788 -0.5216
  361MOL0     H47607   0.299   9.167   2.488 -1.7882 -1.0493 -0.7193
  361MOL0     H47608   0.195   9.387   2.456  0.2192 -0.2633 -0.8017
  361MOL0     H47609   0.310   9.437   2.333  0.0593  0.3608 -0.0235
  361MOL0     H47610   0.340   9.421   2.636 -1.5995  1.5842  1.0199
  361MOL0     H47611   0.480   9.441   2.545 -0.3493 -2.1501  0.3023
  361MOL0     H47612   0.297   9.664   2.476  0.1690  0.9195  0.6880
  361MOL0     H47613   0.455   9.634   2.448 -1.3546 -0.9637 -0.5419
  361MOL0     H47614   0.441   9.712   2.900 -0.2625 -0.5958  0.4311
  361MOL0     H47615   0.671   9.719   3.010  1.4792 -0.6109  0.0456
  361MOL0     H47616   1.139   9.657   3.053  1.8549 -0.4997  1.2170
  361MOL0     H47617   1.394   9.652   3.074 -2.0509 -0.0894  2.6892
  361MOL0     H47618   1.620   9.957   2.847  4.0841  1.9393 -2.8293
  361MOL0     H47619   1.650   9.819   2.734 -0.2782 -0.7832  0.3202
  361MOL0     H47620   1.791   9.892   2.988 -2.8994 -2.9493  2.4053
  361MOL0     H47621   1.859   9.909   2.825  0.8632 -1.6666 -0.9136
  361MOL0     H47622   1.836   9.650   2.816  0.5913  0.5116 -0.0301
  361MOL0     H47623   1.814   9.658   2.988  1.7708 -0.4083 -0.4416
  361MOL0     H47624   2.045   9.799   2.834  0.8212 -0.9462  0.1752
  361MOL0     H47625   2.057   9.750   3.007  0.1697 -0.2282  0.0226
  361MOL0     H47626   2.058   9.535   2.783  1.4431 -0.5819  0.6174
  361MOL0     H47627   2.035   9.513   2.949 -3.3127  1.0743 -0.7341
  361MOL0     H47628   2.283   9.490   2.878 -1.2829 -0.8586  4.2958
  361MOL0     H47629   2.261   9.610   3.001  0.3062 -1.5140  0.7217
  361MOL0     H47630   2.278   9.678   2.703  0.9639 -0.7099 -0.0973
  361MOL0     H47631   2.280   9.799   2.823  1.9343  0.1997  0.9929
  361MOL0     H47632   2.504   9.585   2.796  2.6177  2.1602 -0.8529
  361MOL0     H47633   2.497   9.712   2.909 -2.2645  3.0121  0.9604
  361MOL0     H47634   1.431   9.898   2.724  0.1787  0.4806  0.7838
  361MOL0     H47635   1.198   9.901   2.698  1.7303  1.9265  1.5818
  361MOL0     H47636   0.867   9.681   2.621  0.3048 -0.2492 -0.4663
  361MOL0     H47637   0.639   9.641   2.530 -1.3005  0.1684 -0.9883
  361MOL0     H47638  -0.007   8.424   1.561  0.3248  0.7014 -0.1219
  361MOL0     H47639   0.030   8.204   1.567  0.8334  0.4138  0.4687
  361MOL0     H47640   0.477   7.926   1.704 -0.7379 -0.4480 -0.8608
  361MOL0     H47641   0.534   7.670   1.745  0.0805 -1.9208 -0.5915
  361MOL0     H47642   0.434   7.292   1.608  1.2497  0.3999 -2.0559
  361MOL0     H47643   0.348   7.370   1.488 -1.5651 -2.1340  0.9066
  361MOL0     H47644   0.161   7.424   1.624 -0.0620 -0.1514  0.4918
  361MOL0     H47645   0.197   7.254   1.616  1.7713 -0.0939 -0.1675
  361MOL0     H47646   0.216   7.456   1.844  3.1136 -0.4982  1.3231
  361MOL0     H47647   0.295   7.301   1.867  0.6366 -1.4099 -2.2023
  361MOL0     H47648   0.093   7.177   1.801 -1.0294  0.6028 -1.0869
  361MOL0     H47649   0.058   7.264   1.949 -1.7455 -1.3065 -0.1605
  361MOL0     H47650  -0.216   7.402   1.655 -0.6293 -0.1453  0.8480
  361MOL0     H47651   0.265   7.576   1.437  1.2318  1.6175 -0.9808
  361MOL0     H47652   0.218   7.801   1.390 -1.7709 -1.3948 -0.0463
  362MOL0     O47653   6.437   4.366   5.759  0.0463  0.4002 -0.7739
  362MOL0     C47654   6.395   4.468   5.806  0.5912  0.2404 -0.5343
  362MOL0     O47655   6.273   4.507   5.807  0.4011  0.0773  0.8322
  362MOL0     C47656   6.169   4.408   5.834  0.1242  0.4056 -0.6016
  362MOL0     C47657   6.073   4.430   5.934 -0.3240  0.0597 -0.4976
  362MOL0     C47658   5.970   4.332   5.953  0.0473  0.7580 -0.0281
  362MOL0     C47659   5.953   4.217   5.876 -0.6623 -0.3550  0.2796
  362MOL0     O47660   5.858   4.124   5.880  0.2634  0.3049 -0.1323
  362MOL0     C47661   5.752   4.138   5.974 -0.7514 -0.4246  0.2740
  362MOL0     C47662   5.797   4.123   6.110  0.3614  0.7442 -0.5812
  362MOL0     C47663   5.718   4.212   6.208  0.2587  0.6020 -0.7388
  362MOL0     C47664   5.799   4.198   6.339  0.5396  0.7313 -0.0020
  362MOL0     C47665   5.704   4.207   6.458  0.0104 -0.2397 -0.4407
  362MOL0     C47666   5.786   4.230   6.588 -0.7332 -0.4608  0.0369
  362MOL0     C47667   5.694   4.248   6.710 -0.2916 -0.0092 -0.5024
  362MOL0     C47668   5.661   4.105   6.751  0.7535 -0.7252  0.0279
  362MOL0     N47669   5.554   4.111   6.854 -0.8131 -0.3606 -0.0203
  362MOL0     C47670   5.439   4.047   6.840  0.2110  1.0334 -0.0775
  362MOL0     C47671   5.403   4.024   6.968 -0.9008 -0.5523  1.2341
  362MOL0     C47672   5.277   3.939   6.989 -0.1846 -0.3647  0.7410
  362MOL0     C47673   5.158   4.037   6.986 -0.0369  0.5933 -1.1841
  362MOL0     C47674   5.031   3.947   7.026 -0.4673  0.0645 -0.5965
  362MOL0     C47675   5.017   3.917   7.176  0.1680  0.3182 -0.3081
  362MOL0     O47676   4.923   3.818   7.198  0.1427 -0.6320 -0.2276
  362MOL0     C47677   4.898   3.756   7.319  0.0213  0.4144 -0.3922
  362MOL0     C47678   4.836   3.626   7.316 -0.2755  0.5469  0.1398
  362MOL0     C47679   4.827   3.548   7.429  0.3341  0.5260 -0.9160
  362MOL0     C47680   4.882   3.581   7.552  0.0732 -0.2564  0.1838
  362MOL0     C47681   4.867   3.495   7.665 -0.5401  1.1339  0.9789
  362MOL0     O47682   4.881   3.555   7.791 -0.1922 -0.0957 -0.4447
  362MOL0     C47683   4.844   3.479   7.900 -0.3731 -1.0967 -0.1741
  362MOL0     C47684   4.714   3.439   7.919  0.4213 -0.3598  0.4308
  362MOL0     C47685   4.671   3.363   8.035  0.5722  0.0408  0.3074
  362MOL0     C47686   4.754   3.338   8.134 -1.0423 -0.2264 -0.3035
  362MOL0     O47687   4.716   3.289   8.252  1.0449  0.8375 -0.1020
  362MOL0     C47688   4.807   3.201   8.307  0.9581  0.7255 -0.3512
  362MOL0     C47689   4.728   3.106   8.409 -0.4612  0.1459 -0.2247
  362MOL0     C47690   4.609   3.033   8.332 -0.1112  0.2423 -0.3739
  362MOL0     C47691   4.573   2.914   8.433  0.0665 -0.4113  0.0879
  362MOL0     C47692   4.445   2.856   8.374  0.4216  1.0896  0.1001
  362MOL0     C47693   4.387   2.743   8.468  0.2329  0.7598  0.5316
  362MOL0     C47694   4.250   2.679   8.403 -0.2929 -0.2088 -0.4889
  362MOL0     C47695   4.139   2.642   8.502  0.3318  0.4632 -0.4755
  362MOL0    Cl47696   4.201   2.538   8.618  0.4173 -0.5558  0.3108
  362MOL0     C47697   4.891   3.387   8.120  1.1850 -0.1185  0.5159
  362MOL0     C47698   4.933   3.446   7.999 -0.1028 -0.0224  0.1236
  362MOL0     O47699   4.815   3.384   7.641 -0.4333 -0.1041 -0.0943
  362MOL0     C47700   4.945   3.700   7.554 -0.0908 -0.3790 -1.2559
  362MOL0     C47701   4.958   3.786   7.445  0.1927  0.1234 -0.0616
  362MOL0     N47702   5.490   4.080   7.054 -0.5904 -0.5330  0.1766
  362MOL0     N47703   5.585   4.134   6.982  0.2646  0.4153 -0.6241
  362MOL0     C47704   6.052   4.203   5.772  0.1673  0.1630  0.2597
  362MOL0     C47705   6.150   4.298   5.751 -0.0149  0.3445  0.3998
  362MOL0     C47706   6.484   4.581   5.853 -0.3049 -0.3502 -1.4205
  362MOL0     C47707   6.442   4.671   5.959  0.6899  0.6084 -0.6621
  362MOL0     C47708   6.519   4.774   5.998 -0.4307 -0.2018 -0.4733
  362MOL0     C47709   6.634   4.809   5.932 -0.2213  0.7170 -0.0776
  362MOL0     O47710   6.714   4.914   5.981  0.9709 -0.1765 -0.0218
  362MOL0     C47711   6.682   5.051   5.940  0.4556 -0.0593  0.2752
  362MOL0     C47712   6.744   5.087   5.807 -0.2333 -0.1132  0.2355
  362MOL0     C47713   6.902   5.101   5.788  0.1760  0.2725 -0.1586
  362MOL0     C47714   6.946   5.254   5.790 -0.1436  0.2784 -0.8715
  362MOL0     C47715   6.926   5.304   5.926  0.2653 -0.0122 -0.1813
  362MOL0     C47716   6.916   5.348   6.039  0.7869  0.1827 -0.8819
  362MOL0     C47717   6.679   4.720   5.832 -0.4686  0.1532 -0.1019
  362MOL0     C47718   6.605   4.608   5.788 -0.9583  0.1925  0.8445
  362MOL0     H47719   6.089   4.519   5.993  0.8359 -1.1880  1.1583
  362MOL0     H47720   5.900   4.352   6.033  1.0789 -6.1686  3.4156
  362MOL0     H47721   5.669   4.074   5.945 -0.7805  0.0558 -0.7729
  362MOL0     H47722   5.710   4.238   5.959 -1.5505 -0.4479  2.1044
  362MOL0     H47723   5.905   4.137   6.111  0.4442  1.0490 -3.5487
  362MOL0     H47724   5.779   4.016   6.123 -0.5478  0.7080 -1.8263
  362MOL0     H47725   5.616   4.172   6.213  0.2538  0.7705  0.8546
  362MOL0     H47726   5.694   4.315   6.180 -2.7336 -0.0527 -0.8766
  362MOL0     H47727   5.845   4.099   6.348  0.8810  1.0928  3.4111
  362MOL0     H47728   5.881   4.270   6.347  0.8167  0.2722  1.7529
  362MOL0     H47729   5.645   4.116   6.475  2.3610 -1.3564  2.4802
  362MOL0     H47730   5.646   4.295   6.429 -0.1022 -0.2057 -0.1227
  362MOL0     H47731   5.845   4.321   6.572 -0.9491 -0.0919  1.2081
  362MOL0     H47732   5.858   4.150   6.602  2.5711  1.9385 -1.9295
  362MOL0     H47733   5.742   4.296   6.797 -3.5051 -0.6583  1.8031
  362MOL0     H47734   5.611   4.316   6.688 -2.1744 -2.7445 -2.4101
  362MOL0     H47735   5.753   4.053   6.783  1.9159 -0.1833 -2.2568
  362MOL0     H47736   5.629   4.041   6.669 -2.0036 -0.7660  1.0451
  362MOL0     H47737   5.374   4.011   6.760  0.2343  1.5781 -0.3460
  362MOL0     H47738   5.289   3.886   7.084 -2.2483 -1.1120  0.6438
  362MOL0     H47739   5.274   3.867   6.907 -0.0741  0.5512 -0.0889
  362MOL0     H47740   5.126   4.082   6.892 -2.5892  3.4302  0.8535
  362MOL0     H47741   5.172   4.119   7.058 -1.0693  0.6034 -0.9740
  362MOL0     H47742   4.939   3.998   6.996  0.6824  1.7897 -1.3269
  362MOL0     H47743   5.044   3.856   6.967  0.3963  0.7791 -1.5249
  362MOL0     H47744   4.995   4.007   7.235 -0.1523 -0.9162  1.5244
  362MOL0     H47745   5.109   3.879   7.220  1.0832  0.4654 -2.0266
  362MOL0     H47746   4.787   3.593   7.225 -1.5403  0.9211  0.6642
  362MOL0     H47747   4.765   3.459   7.418  0.0017  1.0376 -4.4327
  362MOL0     H47748   4.641   3.452   7.840  1.7287 -0.6008 -0.8512
  362MOL0     H47749   4.572   3.318   8.033  0.2490  0.7461 -1.2310
  362MOL0     H47750   4.887   3.250   8.363 -1.4782  1.4685  2.8093
  362MOL0     H47751   4.846   3.135   8.229  1.3051  0.3729  0.1075
  362MOL0     H47752   4.698   3.174   8.489  1.3571  1.8516 -0.9365
  362MOL0     H47753   4.798   3.033   8.452 -1.4392  0.4517  2.0394
  362MOL0     H47754   4.651   2.988   8.241  1.9580 -0.7450  0.9919
  362MOL0     H47755   4.524   3.096   8.308 -0.1416 -0.6275 -2.9622
  362MOL0     H47756   4.649   2.835   8.436  1.0117  0.4976  0.7942
  362MOL0     H47757   4.555   2.950   8.534  1.3943  1.1910 -0.2008
  362MOL0     H47758   4.470   2.806   8.280 -0.5130 -0.3979  0.6076
  362MOL0     H47759   4.382   2.945   8.370  1.0575  1.5123 -1.1611
  362MOL0     H47760   4.362   2.793   8.562 -0.6189 -2.3956  2.1495
  362MOL0     H47761   4.464   2.668   8.486 -0.2113  0.3000  0.5481
  362MOL0     H47762   4.195   2.746   8.336 -1.2055 -0.1826  0.2594
  362MOL0     H47763   4.278   2.592   8.342  2.9418 -0.5707  1.2970
  362MOL0     H47764   4.051   2.612   8.445  1.6660 -0.1886 -2.2877
  362MOL0     H47765   4.104   2.727   8.561 -0.9832 -1.3470  1.4950
  362MOL0     H47766   4.966   3.368   8.196  1.1619  2.0188  1.1436
  362MOL0     H47767   5.040   3.458   7.986 -0.4372  1.5241 -1.7077
  362MOL0     H47768   4.998   3.732   7.643  1.0712 -0.8944 -1.7356
  362MOL0     H47769   5.011   3.881   7.448  1.3275 -0.4922 -0.0825
  362MOL0     H47770   6.063   4.114   5.711  3.1940  1.4180 -1.2281
  362MOL0     H47771   6.227   4.275   5.678 -0.6750 -0.8634  0.0567
  362MOL0     H47772   6.339   4.667   5.993  1.0529 -2.3126  0.4292
  362MOL0     H47773   6.494   4.848   6.072 -0.0578 -0.2090 -0.3382
  362MOL0     H47774   6.715   5.127   6.011 -0.1691  2.2795 -1.7943
  362MOL0     H47775   6.573   5.064   5.935  0.8163  3.5161 -2.7855
  362MOL0     H47776   6.710   5.003   5.745  0.9786  0.7322 -1.6797
  362MOL0     H47777   6.693   5.174   5.764 -1.1968 -1.1056 -0.7100
  362MOL0     H47778   6.922   5.076   5.684 -2.2084  0.5309 -0.7252
  362MOL0     H47779   6.964   5.034   5.849  0.1751  0.2112 -0.2248
  362MOL0     H47780   7.053   5.248   5.770 -0.0673  2.5836 -1.3831
  362MOL0     H47781   6.899   5.316   5.713 -0.3386  0.1344 -0.8695
  362MOL0     H47782   6.932   5.390   6.137  2.3082 -5.0394  1.4452
  362MOL0     H47783   6.771   4.748   5.782  1.3730 -1.8404  1.9556
  362MOL0     H47784   6.635   4.539   5.710 -0.2065  4.5364 -3.1685
  363MOL0     O47785   5.443   8.422   2.901 -0.7190 -1.0522 -0.3484
  363MOL0     C47786   5.391   8.469   2.803  0.3230  0.2895  0.3564
  363MOL0     O47787   5.287   8.557   2.805  0.6257  0.0679 -0.1029
  363MOL0     C47788   5.231   8.595   2.928  0.3446 -1.5055  0.8515
  363MOL0     C47789   5.197   8.524   3.041 -0.2053 -0.1824 -0.2213
  363MOL0     C47790   5.124   8.568   3.158  0.0592  0.2019  0.7837
  363MOL0     C47791   5.102   8.705   3.168 -0.5370 -0.1487 -0.5747
  363MOL0     O47792   5.043   8.773   3.269  0.1230  0.4176  0.1199
  363MOL0     C47793   4.955   8.688   3.347 -0.7349 -0.0404  0.5137
  363MOL0     C47794   4.901   8.781   3.446 -0.7983 -0.3427  0.9583
  363MOL0     C47795   4.766   8.742   3.505  0.6229 -0.3432 -0.1180
  363MOL0     C47796   4.719   8.854   3.600 -0.7048 -0.3379  1.1676
  363MOL0     C47797   4.569   8.854   3.610  1.2559 -1.3401 -1.0021
  363MOL0     C47798   4.490   8.977   3.666 -0.2265  0.7910  0.6055
  363MOL0     C47799   4.343   8.937   3.682 -1.1197  0.2928 -1.4009
  363MOL0     C47800   4.257   8.979   3.570  0.1029 -1.2007 -0.0474
  363MOL0     N47801   4.209   9.122   3.580  0.5532 -0.6713 -0.4896
  363MOL0     C47802   4.134   9.183   3.681  0.3698 -0.0352 -0.3335
  363MOL0     C47803   4.089   9.296   3.629 -0.0438 -0.2676  0.5720
  363MOL0     C47804   4.002   9.400   3.680  0.5043 -0.7999  0.4200
  363MOL0     C47805   3.858   9.368   3.691 -0.7852  0.8799  0.1314
  363MOL0     C47806   3.781   9.328   3.557  0.2380 -0.0611  0.2913
  363MOL0     C47807   3.769   9.436   3.451 -0.3526 -0.4512  0.5756
  363MOL0     O47808   3.743   9.570   3.504 -0.1470 -0.0551  0.3320
  363MOL0     C47809   3.614   9.591   3.560 -0.0029  0.9506  0.5514
  363MOL0     C47810   3.499   9.501   3.576  0.1774  0.2417 -0.2571
  363MOL0     C47811   3.401   9.529   3.672  0.0660 -1.0589  0.5610
  363MOL0     C47812   3.399   9.648   3.749  0.0169 -0.3871  0.7670
  363MOL0     C47813   3.294   9.673   3.853  0.9607  0.1391 -0.2604
  363MOL0     O47814   3.170   9.611   3.836  0.2885  0.0688  0.9166
  363MOL0     C47815   3.070   9.648   3.923 -0.2600 -0.8447 -1.2550
  363MOL0     C47816   3.017   9.550   4.001  0.4595 -0.2237 -0.8068
  363MOL0     C47817   2.922   9.565   4.100 -0.0960 -0.3937 -1.2671
  363MOL0     C47818   2.887   9.692   4.139 -0.1513  0.0478  0.2279
  363MOL0     O47819   2.787   9.710   4.232  0.6310  0.4354 -0.4848
  363MOL0     C47820   2.772   9.640   4.356  0.0143  0.8569  0.3339
  363MOL0     C47821   2.619   9.595   4.380  0.4038 -0.6259 -0.2138
  363MOL0     C47822   2.569   9.506   4.264 -0.3540  0.1908 -0.3748
  363MOL0     C47823   2.432   9.446   4.282 -0.4514 -0.3017 -0.1732
  363MOL0     C47824   2.417   9.364   4.413  0.3708 -0.6351  0.6949
  363MOL0     C47825   2.485   9.222   4.409  0.5385  0.2125 -0.2122
  363MOL0     C47826   2.442   9.125   4.527  0.2339 -0.4425  0.7348
  363MOL0     C47827   2.470   8.979   4.512 -0.0183 -0.6185 -0.0886
  363MOL0    Cl47828   2.635   8.955   4.473 -0.2121  0.3070 -0.2695
  363MOL0     C47829   2.938   9.799   4.066 -0.2936 -0.5040  0.9750
  363MOL0     C47830   3.023   9.777   3.961 -0.6243  0.8457  1.3017
  363MOL0     O47831   3.326   9.748   3.952  0.3681 -0.6193  0.2483
  363MOL0     C47832   3.503   9.740   3.730  0.2833 -0.6567 -0.2514
  363MOL0     C47833   3.608   9.701   3.642 -0.2286  0.9419  0.5754
  363MOL0     N47834   4.147   9.312   3.502  1.5443 -0.3425 -0.4003
  363MOL0     N47835   4.221   9.205   3.474  0.9624 -0.4018 -0.2277
  363MOL0     C47836   5.138   8.785   3.061  0.0928  0.5663 -0.2280
  363MOL0     C47837   5.198   8.736   2.947 -0.2974  0.1195  0.8206
  363MOL0     C47838   5.429   8.404   2.677  0.3899  0.6112 -0.6644
  363MOL0     C47839   5.340   8.397   2.571 -0.0161  0.7240  0.2234
  363MOL0     C47840   5.389   8.350   2.453  0.7677 -0.2476  0.6148
  363MOL0     C47841   5.518   8.313   2.432 -0.2427 -0.5484  0.3497
  363MOL0     O47842   5.553   8.281   2.306  0.0112  0.5079 -0.6515
  363MOL0     C47843   5.680   8.217   2.281  1.1465  0.8626 -0.4904
  363MOL0     C47844   5.689   8.170   2.137  0.5198  0.1443 -0.3593
  363MOL0     C47845   5.806   8.080   2.120 -0.1414 -0.1569 -0.0977
  363MOL0     C47846   5.934   8.164   2.108  0.5592 -0.0360 -0.5675
  363MOL0     C47847   6.036   8.066   2.087 -0.4257 -0.2012  0.4199
  363MOL0     C47848   6.113   7.968   2.074 -0.1325  0.2132 -0.3996
  363MOL0     C47849   5.605   8.307   2.543  0.5657 -0.1074 -0.5921
  363MOL0     C47850   5.563   8.365   2.663  0.6844  1.2696  0.4580
  363MOL0     H47851   5.214   8.417   3.037 -0.5245 -0.2137 -0.7984
  363MOL0     H47852   5.096   8.495   3.233 -0.6210  0.5394  0.8711
  363MOL0     H47853   4.998   8.612   3.412  1.6771  0.9027  0.1531
  363MOL0     H47854   4.886   8.637   3.279 -0.7748 -1.0008  1.2606
  363MOL0     H47855   4.899   8.875   3.392 -0.2889 -2.0898 -2.3760
  363MOL0     H47856   4.972   8.800   3.528 -1.4365 -0.2486  1.4963
  363MOL0     H47857   4.783   8.649   3.560 -0.0870  0.6846  1.9472
  363MOL0     H47858   4.698   8.728   3.420  0.5188  3.8272 -0.9386
  363MOL0     H47859   4.758   8.860   3.702 -0.0378 -0.4411  0.9211
  363MOL0     H47860   4.739   8.951   3.554 -1.8392 -1.0732 -0.9863
  363MOL0     H47861   4.535   8.763   3.660  0.1078 -0.0239  0.7448
  363MOL0     H47862   4.537   8.847   3.506 -3.2976  0.9524 -0.0079
  363MOL0     H47863   4.506   9.071   3.611  1.4395 -0.7006 -1.6400
  363MOL0     H47864   4.534   9.003   3.763 -1.3654  0.5223  1.2015
  363MOL0     H47865   4.331   8.828   3.686  0.5085  0.0370 -2.3322
  363MOL0     H47866   4.303   8.974   3.776  1.6297 -2.1265  0.9192
  363MOL0     H47867   4.173   8.910   3.559  0.9340 -2.0379 -1.2660
  363MOL0     H47868   4.307   8.964   3.474  2.1689 -1.3217  0.9766
  363MOL0     H47869   4.118   9.141   3.780  3.8402 -0.1291  0.3220
  363MOL0     H47870   4.006   9.501   3.637 -1.3687 -0.9819 -0.2643
  363MOL0     H47871   4.048   9.412   3.778  2.9544 -0.6297 -0.6894
  363MOL0     H47872   3.809   9.449   3.746  0.8739  1.8005  0.3111
  363MOL0     H47873   3.847   9.283   3.759 -0.4212  1.4663  0.9445
  363MOL0     H47874   3.817   9.238   3.507  1.3759  0.2380  0.5247
  363MOL0     H47875   3.681   9.309   3.595 -0.0853  2.1242  0.6815
  363MOL0     H47876   3.695   9.401   3.379  1.3925  1.0049 -2.1112
  363MOL0     H47877   3.861   9.439   3.392 -0.2898  0.9363  0.6986
  363MOL0     H47878   3.495   9.414   3.510 -2.0145  0.2231 -0.1707
  363MOL0     H47879   3.324   9.455   3.691  0.0674 -1.1407  0.2418
  363MOL0     H47880   3.024   9.448   3.965 -2.6725 -0.1467 -1.9829
  363MOL0     H47881   2.889   9.475   4.150  0.1978  0.5222  0.6677
  363MOL0     H47882   2.802   9.715   4.429 -2.8628  0.9975  1.5278
  363MOL0     H47883   2.834   9.550   4.359 -3.4084 -1.7269  2.3040
  363MOL0     H47884   2.548   9.677   4.388 -0.6035 -1.1087 -3.0424
  363MOL0     H47885   2.625   9.547   4.478  5.0114  1.9095  1.0364
  363MOL0     H47886   2.636   9.420   4.264 -0.4870  0.0800  0.4363
  363MOL0     H47887   2.573   9.550   4.164  0.2984  0.8788 -0.0650
  363MOL0     H47888   2.355   9.524   4.291  0.2669  0.2417  1.8030
  363MOL0     H47889   2.418   9.389   4.190 -0.1450 -0.2911 -0.2255
  363MOL0     H47890   2.311   9.339   4.429  0.7325 -0.4472  4.0171
  363MOL0     H47891   2.443   9.407   4.509  2.3674 -4.2864  2.0120
  363MOL0     H47892   2.594   9.235   4.411  0.6038 -0.1054 -1.2931
  363MOL0     H47893   2.463   9.176   4.312  1.3540 -0.6714  0.0031
  363MOL0     H47894   2.500   9.155   4.614  3.5860 -2.1292 -0.7199
  363MOL0     H47895   2.337   9.140   4.554  0.7040  0.8414  1.9331
  363MOL0     H47896   2.402   8.933   4.440 -1.3646 -2.7592  2.3616
  363MOL0     H47897   2.454   8.928   4.608 -1.2967 -0.1323 -0.0139
  363MOL0     H47898   2.915   9.898   4.103 -0.6408 -0.0856 -0.3255
  363MOL0     H47899   3.048   9.861   3.897  0.0871 -1.9841 -2.4877
  363MOL0     H47900   3.503   9.838   3.777  0.5726  0.3037 -2.1818
  363MOL0     H47901   3.696   9.765   3.639 -0.9923  2.0432  1.1047
  363MOL0     H47902   5.130   8.892   3.074  2.6613  0.7326  0.6822
  363MOL0     H47903   5.218   8.818   2.878 -3.7907  0.9038  0.5650
  363MOL0     H47904   5.235   8.420   2.586 -0.3185 -0.6219  0.3112
  363MOL0     H47905   5.317   8.346   2.372 -0.9906  0.4790  2.0685
  363MOL0     H47906   5.694   8.135   2.352  1.3300  2.4179  1.3480
  363MOL0     H47907   5.760   8.285   2.312 -0.0684  0.9404  2.9770
  363MOL0     H47908   5.598   8.116   2.108 -0.2615  0.8754  0.6519
  363MOL0     H47909   5.700   8.257   2.072 -2.6394  3.7156  3.3247
  363MOL0     H47910   5.773   8.025   2.032  1.6011 -1.4670  0.0110
  363MOL0     H47911   5.814   8.000   2.194 -0.4643 -2.5222 -2.4956
  363MOL0     H47912   5.922   8.235   2.026 -0.0585  0.0676 -0.3926
  363MOL0     H47913   5.957   8.220   2.200  0.4447 -0.3526 -0.3448
  363MOL0     H47914   6.170   7.880   2.056 -1.7123 -0.5621 -1.8544
  363MOL0     H47915   5.710   8.277   2.542 -0.1182 -2.8727 -2.2019
  363MOL0     H47916   5.632   8.369   2.746 -0.9788  2.3724  1.8592
  364MOL0     O47917   9.749  10.086   9.929  0.1515 -0.2372 -0.6839
  364MOL0     C47918   9.844  10.151   9.974 -0.6117  0.7568 -0.9855
  364MOL0     O47919   9.846  10.237  10.082  0.1785 -0.1012 -0.5163
  364MOL0     C47920   9.739  10.264  10.160  0.3346  0.5782  1.2163
  364MOL0     C47921   9.605  10.226  10.118 -0.1097  0.0852  0.1418
  364MOL0     C47922   9.499  10.261  10.203  0.2418  1.0709  0.0388
  364MOL0     C47923   9.528  10.340  10.324 -0.3300  0.5404 -0.2725
  364MOL0     O47924   9.414  10.368  10.393 -0.1695 -0.2963 -0.4530
  364MOL0     C47925   9.422  10.458  10.506  0.1849  0.1457  0.5606
  364MOL0     C47926   9.285  10.533  10.539 -0.7694  1.2374  0.1550
  364MOL0     C47927   9.158  10.442  10.552  0.5506 -0.7079  0.4307
  364MOL0     C47928   9.039  10.536  10.580  0.5775 -0.2061 -0.1931
  364MOL0     C47929   8.901  10.458  10.573 -0.6948  0.5150  0.9925
  364MOL0     C47930   8.784  10.556  10.588  0.0295 -0.1725 -0.6076
  364MOL0     C47931   8.653  10.483  10.616  0.5926 -0.2360  1.2459
  364MOL0     C47932   8.546  10.572  10.568 -0.8313 -0.5167  0.5791
  364MOL0     N47933   8.412  10.516  10.584 -0.5766  0.1026  0.5686
  364MOL0     C47934   8.333  10.554  10.694  0.1741  0.4283  0.4742
  364MOL0     C47935   8.223  10.484  10.671 -0.0949 -0.2585 -0.4514
  364MOL0     C47936   8.105  10.495  10.762  0.7830  0.3672  0.0052
  364MOL0     C47937   7.994  10.568  10.703  0.1222  0.1903  0.1584
  364MOL0     C47938   7.882  10.571  10.810 -0.3212 -0.1338 -0.0786
  364MOL0     C47939   7.749  10.617  10.759  0.8339  0.6812  0.6498
  364MOL0     O47940   7.664  10.590  10.867 -0.5059  0.6490 -0.7176
  364MOL0     C47941   7.576  10.483  10.849  0.4137 -0.5359 -0.3488
  364MOL0     C47942   7.606  10.382  10.757 -0.4196  0.1072  0.5410
  364MOL0     C47943   7.517  10.273  10.738 -0.2677 -0.8709 -0.1849
  364MOL0     C47944   7.396  10.257  10.811  0.1725 -0.3181 -0.0515
  364MOL0     C47945   7.296  10.149  10.796 -0.4178  0.0557  1.3853
  364MOL0     O47946   7.168  10.185  10.833  0.5318 -0.0256 -0.1272
  364MOL0     C47947   7.076  10.088  10.853  0.9825  0.6541 -0.6768
  364MOL0     C47948   7.006  10.083  10.976  0.2204  0.2715  0.1920
  364MOL0     C47949   6.892  10.006  11.002  0.3731 -0.0885  0.7522
  364MOL0     C47950   6.854   9.914  10.909 -0.0596 -0.1336  0.2615
  364MOL0     O47951   6.759   9.818  10.936 -0.3109 -0.8560 -0.3867
  364MOL0     C47952   6.811   9.687  10.966  0.1590 -0.0143 -0.4045
  364MOL0     C47953   6.878   9.689  11.103  0.3258 -0.3570  0.1028
  364MOL0     C47954   6.783   9.720  11.218  0.1354  0.3906 -0.4178
  364MOL0     C47955   6.839   9.687  11.353 -0.3302  0.7160 -0.1435
  364MOL0     C47956   6.818   9.529  11.386 -0.5218 -0.0022  0.0472
  364MOL0     C47957   6.674   9.480  11.402 -0.8209  0.1031 -0.6654
  364MOL0     C47958   6.671   9.329  11.430  0.4061 -0.7020 -0.4103
  364MOL0     C47959   6.527   9.292  11.452  0.0981 -0.0719  0.3075
  364MOL0    Cl47960   6.452   9.355  11.598  0.1749  0.2444 -0.6092
  364MOL0     C47961   6.927   9.902  10.796 -0.0481 -0.1390  0.5189
  364MOL0     C47962   7.024  10.000  10.755  0.4966  0.8539  0.5525
  364MOL0     O47963   7.325  10.037  10.739  0.7593 -0.1233 -0.4326
  364MOL0     C47964   7.365  10.363  10.896  0.0421 -0.1664 -0.7871
  364MOL0     C47965   7.459  10.466  10.916  0.1809  0.5359 -0.7267
  364MOL0     N47966   8.227  10.411  10.550  0.0098  0.2676  0.8255
  364MOL0     N47967   8.333  10.451  10.496  0.1260 -0.7518  0.4127
  364MOL0     C47968   9.656  10.379  10.355 -0.0922 -0.0476 -0.8278
  364MOL0     C47969   9.764  10.338  10.275  0.2299 -1.1294 -0.4518
  364MOL0     C47970   9.977  10.135   9.908  0.0076  0.2085 -0.6524
  364MOL0     C47971  10.000  10.063   9.789  0.7360 -1.6844  0.0058
  364MOL0     C47972  10.127  10.056   9.731 -0.0933 -0.3200  0.2396
  364MOL0     C47973  10.241  10.116   9.794 -0.1260 -0.1403  0.9228
  364MOL0     O47974  10.366  10.092   9.741 -0.4687 -0.3533 -0.3953
  364MOL0     C47975  10.459  10.197   9.761  0.9486 -0.4207 -0.0290
  364MOL0     C47976  10.570  10.164   9.652 -1.1031  0.0943  0.5637
  364MOL0     C47977  10.504  10.192   9.510 -0.8653  0.9331 -0.4571
  364MOL0     C47978  10.573  10.134   9.376 -0.4775 -0.3642 -0.4428
  364MOL0     C47979  10.614   9.992   9.393 -0.1996 -0.3385 -0.2316
  364MOL0     C47980  10.657   9.874   9.388  0.1181 -0.1163 -0.8687
  364MOL0     C47981  10.216  10.196   9.905 -0.0343 -0.1754  0.2919
  364MOL0     C47982  10.087  10.198   9.958 -0.7216 -0.7608  0.4099
  364MOL0     H47983   9.565  10.168  10.036  0.7480  0.6773 -0.7138
  364MOL0     H47984   9.400  10.221  10.186 -0.0484  1.2963  1.1413
  364MOL0     H47985   9.492  10.537  10.476  1.0631 -1.2823 -1.3803
  364MOL0     H47986   9.466  10.402  10.590  1.3969 -0.1163 -0.2311
  364MOL0     H47987   9.280  10.604  10.455  0.5489  0.5426 -0.5537
  364MOL0     H47988   9.305  10.584  10.633  0.7145 -1.6323  1.5393
  364MOL0     H47989   9.158  10.366  10.630  3.5644 -4.2059 -2.5821
  364MOL0     H47990   9.133  10.380  10.464  2.5779 -1.8846  0.6146
  364MOL0     H47991   9.047  10.587  10.676  3.2452 -1.0473  0.0830
  364MOL0     H47992   9.024  10.618  10.508  1.9187  1.8378  1.7468
  364MOL0     H47993   8.895  10.388  10.657  0.4808 -0.4058  0.3445
  364MOL0     H47994   8.903  10.412  10.474 -3.2300 -0.1089  1.1802
  364MOL0     H47995   8.776  10.604  10.490 -1.5609 -1.0813 -0.9799
  364MOL0     H47996   8.806  10.629  10.666  0.1362  0.5755 -1.3244
  364MOL0     H47997   8.646  10.400  10.546 -0.0667  0.9081 -0.0937
  364MOL0     H47998   8.636  10.439  10.715 -5.0284  0.8672  1.1147
  364MOL0     H47999   8.575  10.572  10.462  1.6401  1.4106  1.1541
  364MOL0     H48000   8.564  10.665  10.622  2.3941 -0.6987  0.0424
  364MOL0     H48001   8.363  10.616  10.778  3.0655  1.7564 -1.3670
  364MOL0     H48002   8.125  10.548  10.856 -2.6197 -0.7220  1.4899
  364MOL0     H48003   8.079  10.394  10.793  3.1731 -0.8736 -1.7211
  364MOL0     H48004   7.952  10.508  10.622 -2.4356  0.9016  0.8639
  364MOL0     H48005   8.023  10.664  10.657 -1.6533 -0.7165 -3.2183
  364MOL0     H48006   7.877  10.476  10.864 -3.6488  1.3106  2.5381
  364MOL0     H48007   7.918  10.646  10.882  1.4789 -0.3095 -0.7559
  364MOL0     H48008   7.734  10.567  10.664  1.8509  2.3113 -0.4225
  364MOL0     H48009   7.753  10.723  10.730 -2.0619  0.6249 -0.3079
  364MOL0     H48010   7.698  10.364  10.702 -0.3431 -0.3671  0.8248
  364MOL0     H48011   7.546  10.199  10.664 -1.1079 -2.3468  0.8841
  364MOL0     H48012   7.040  10.149  11.055  1.7290 -1.0658  0.7225
  364MOL0     H48013   6.829  10.012  11.089  0.1006 -0.2670  0.5688
  364MOL0     H48014   6.885   9.655  10.891 -0.5881 -2.3191 -0.2274
  364MOL0     H48015   6.737   9.607  10.957  0.7429 -0.5996 -0.0953
  364MOL0     H48016   6.955   9.766  11.109  0.7616 -0.9045  2.1108
  364MOL0     H48017   6.930   9.594  11.124  0.5066 -0.0141  1.2380
  364MOL0     H48018   6.682   9.682  11.199  0.1961 -0.4970  0.9007
  364MOL0     H48019   6.768   9.829  11.217  1.5070  0.6334 -3.1609
  364MOL0     H48020   6.945   9.711  11.360 -0.8150  3.3561 -0.5944
  364MOL0     H48021   6.782   9.753  11.420 -2.0775 -0.3267 -0.5168
  364MOL0     H48022   6.865   9.514  11.484 -1.5965  1.4779  0.8207
  364MOL0     H48023   6.870   9.470  11.311 -3.0014 -0.1503 -1.6749
  364MOL0     H48024   6.615   9.506  11.314 -1.2568 -0.3428 -0.5083
  364MOL0     H48025   6.634   9.532  11.489 -1.5581  2.0467 -2.0818
  364MOL0     H48026   6.707   9.289  11.334  0.3142  0.3901 -0.9211
  364MOL0     H48027   6.737   9.291  11.509 -0.2366 -1.6741 -0.3232
  364MOL0     H48028   6.512   9.184  11.449  0.1431 -0.1039  0.9204
  364MOL0     H48029   6.488   9.334  11.359  2.9440  2.2156  0.0068
  364MOL0     H48030   6.898   9.822  10.729  1.2382  1.5616 -2.2313
  364MOL0     H48031   7.060   9.992  10.653 -1.3392 -6.7333 -0.1138
  364MOL0     H48032   7.267  10.367  10.944 -0.3214  0.4114 -1.5623
  364MOL0     H48033   7.430  10.531  10.998 -0.0366  0.9296 -1.1127
  364MOL0     H48034   9.671  10.432  10.449 -2.3836  1.8859 -1.4614
  364MOL0     H48035   9.863  10.353  10.318  0.2504  2.1998 -1.3738
  364MOL0     H48036   9.918  10.024   9.730  1.8487 -0.5316 -2.4287
  364MOL0     H48037  10.148   9.998   9.641  0.5957  0.7701 -0.3141
  364MOL0     H48038  10.509  10.207   9.858  1.6108 -2.0494 -0.1663
  364MOL0     H48039  10.412  10.292   9.733  0.2882 -0.7468 -0.0396
  364MOL0     H48040  10.659  10.226   9.658 -0.7148 -0.0160 -2.3779
  364MOL0     H48041  10.601  10.059   9.655  0.4127  0.5228  0.3949
  364MOL0     H48042  10.495  10.298   9.484  0.5141  0.6749 -2.1925
  364MOL0     H48043  10.405  10.146   9.517  0.5927 -2.3476  0.5833
  364MOL0     H48044  10.500  10.140   9.295  0.2427  0.5979 -1.0462
  364MOL0     H48045  10.662  10.193   9.351 -0.9905 -0.1671 -1.9591
  364MOL0     H48046  10.705   9.779   9.400 -4.7227 -2.6643  1.5311
  364MOL0     H48047  10.297  10.244   9.958  1.3689 -0.8395 -1.1686
  364MOL0     H48048  10.070  10.267  10.040 -0.3960  1.2395 -1.1168
  365MOL0     O48049   3.945   6.585   0.414  0.1575 -0.0963  0.8973
  365MOL0     C48050   3.983   6.665   0.327  0.3514 -0.2324  0.4294
  365MOL0     O48051   3.901   6.710   0.225 -0.3752  0.4761  0.2092
  365MOL0     C48052   3.783   6.648   0.192  0.3812 -0.4778 -0.6029
  365MOL0     C48053   3.757   6.658   0.057 -1.0641 -0.3292 -1.0180
  365MOL0     C48054   3.642   6.602   0.003  0.2475 -0.0315  0.6553
  365MOL0     C48055   3.548   6.543   0.082  0.5883  0.2300 -0.8439
  365MOL0     O48056   3.438   6.499   0.016 -0.5790  1.2301  0.3961
  365MOL0     C48057   3.322   6.557   0.055  0.0803 -0.7659 -0.3001
  365MOL0     C48058   3.222   6.565  -0.050 -0.6941  0.2251  0.4729
  365MOL0     C48059   3.269   6.675  -0.156 -0.1827 -0.1019 -0.1278
  365MOL0     C48060   3.345   6.618  -0.276  0.2606  0.3693 -0.4788
  365MOL0     C48061   3.417   6.727  -0.354 -0.3018 -1.1585 -0.5424
  365MOL0     C48062   3.510   6.664  -0.458 -0.4894  0.7800 -0.3430
  365MOL0     C48063   3.584   6.762  -0.548 -0.2793 -0.5934  0.3088
  365MOL0     C48064   3.704   6.839  -0.476  0.8114 -0.0820 -0.0888
  365MOL0     N48065   3.794   6.741  -0.429 -1.0346  0.7993  0.5543
  365MOL0     C48066   3.869   6.654  -0.500 -0.3232 -0.9186  0.5653
  365MOL0     C48067   3.943   6.579  -0.420  0.6443 -0.0137 -1.0553
  365MOL0     C48068   4.021   6.451  -0.453  0.8341 -0.4957 -0.2017
  365MOL0     C48069   4.124   6.461  -0.557 -0.6458  0.1518  0.1492
  365MOL0     C48070   4.233   6.561  -0.517  0.3157 -0.2256 -0.5602
  365MOL0     C48071   4.309   6.524  -0.389  0.3219  0.2287 -0.7353
  365MOL0     O48072   4.454   6.566  -0.398  0.5870  0.5364 -0.1583
  365MOL0     C48073   4.477   6.698  -0.387  0.4897  0.2846  0.4796
  365MOL0     C48074   4.445   6.762  -0.264 -0.0636 -1.0248  0.2919
  365MOL0     C48075   4.483   6.900  -0.243 -0.4276  0.3520 -0.1834
  365MOL0     C48076   4.535   6.971  -0.350  0.1402  0.8239  0.4330
  365MOL0     C48077   4.549   7.116  -0.342 -0.5307 -0.6713 -0.1388
  365MOL0     O48078   4.590   7.184  -0.451 -0.7626  0.1611 -0.1662
  365MOL0     C48079   4.675   7.296  -0.432 -0.5070  0.4797  0.1938
  365MOL0     C48080   4.783   7.302  -0.342 -0.1331  0.3625  0.8244
  365MOL0     C48081   4.882   7.398  -0.360 -0.3529  0.4396 -0.0507
  365MOL0     C48082   4.878   7.496  -0.460 -0.2990  0.0409  0.5672
  365MOL0     O48083   4.985   7.574  -0.475  0.3273  0.3625 -0.4466
  365MOL0     C48084   4.994   7.651  -0.594 -0.7514  0.0353 -0.0289
  365MOL0     C48085   5.116   7.748  -0.584 -0.0206  1.2053  0.2296
  365MOL0     C48086   5.102   7.877  -0.510 -0.3021  0.7400  0.3098
  365MOL0     C48087   5.240   7.935  -0.483  0.2669 -0.2681 -0.3295
  365MOL0     C48088   5.237   8.033  -0.372  0.2108 -1.1697  0.1550
  365MOL0     C48089   5.354   8.135  -0.376  0.5247  0.1116  0.2914
  365MOL0     C48090   5.384   8.225  -0.254 -0.8294  0.3987  0.4634
  365MOL0     C48091   5.507   8.318  -0.297 -0.2264 -0.6469  0.5067
  365MOL0    Cl48092   5.475   8.429  -0.438  0.0654 -0.2477 -0.0701
  365MOL0     C48093   4.778   7.484  -0.552  0.0778 -0.7298  0.5217
  365MOL0     C48094   4.682   7.378  -0.544 -0.5762  0.2866 -0.7462
  365MOL0     O48095   4.533   7.163  -0.231  0.0544  0.1362 -0.7184
  365MOL0     C48096   4.566   6.903  -0.471  0.7151  0.4747  1.0869
  365MOL0     C48097   4.527   6.767  -0.495 -0.2676  0.4209  0.1557
  365MOL0     N48098   3.918   6.633  -0.294  0.5136  0.4887 -0.7338
  365MOL0     N48099   3.832   6.728  -0.303  0.0537  0.3255 -0.8495
  365MOL0     C48100   3.575   6.535   0.219  0.8831 -0.1682 -0.0669
  365MOL0     C48101   3.687   6.588   0.271 -0.3724 -0.0527  0.4103
  365MOL0     C48102   4.124   6.681   0.303 -1.0292 -0.8334 -0.0917
  365MOL0     C48103   4.216   6.641   0.402  0.3390  0.1486  0.0272
  365MOL0     C48104   4.345   6.684   0.392  0.4414 -0.2404  0.4056
  365MOL0     C48105   4.394   6.755   0.290 -0.0612 -0.6351  0.5705
  365MOL0     O48106   4.533   6.779   0.306 -0.3967  0.3343 -0.2241
  365MOL0     C48107   4.593   6.844   0.198 -0.3230 -0.0299 -0.3611
  365MOL0     C48108   4.651   6.752   0.087  0.9882  0.4996  1.1203
  365MOL0     C48109   4.632   6.600   0.108 -0.0783 -0.2404  0.3957
  365MOL0     C48110   4.689   6.516  -0.009  0.2398 -0.1883 -1.0126
  365MOL0     C48111   4.843   6.519  -0.007  0.5475 -0.1931 -0.1972
  365MOL0     C48112   4.962   6.527   0.000  0.3450 -0.6352  0.0261
  365MOL0     C48113   4.317   6.801   0.181  0.6030  0.1222 -0.8529
  365MOL0     C48114   4.178   6.755   0.190  0.4897 -0.3761 -0.1339
  365MOL0     H48115   3.833   6.700  -0.007  0.8864  0.3304  1.5446
  365MOL0     H48116   3.626   6.606  -0.104  0.3746  1.4881  0.6699
  365MOL0     H48117   3.350   6.660   0.081  1.5353 -1.1068 -0.4256
  365MOL0     H48118   3.298   6.494   0.140  2.6037  0.8828  1.8075
  365MOL0     H48119   3.118   6.577  -0.018 -0.7565 -2.8159  1.6549
  365MOL0     H48120   3.215   6.467  -0.097  5.4100  1.0236 -3.1498
  365MOL0     H48121   3.345   6.745  -0.119  1.1566 -1.7308  0.3519
  365MOL0     H48122   3.186   6.741  -0.181  2.4195  2.7682 -1.8747
  365MOL0     H48123   3.420   6.552  -0.231 -0.0257 -0.1946 -0.8235
  365MOL0     H48124   3.286   6.559  -0.347  1.4318 -1.3699 -0.0710
  365MOL0     H48125   3.483   6.771  -0.278 -0.5278 -3.1571  0.8847
  365MOL0     H48126   3.355   6.809  -0.391  2.8337  1.2489 -0.9861
  365MOL0     H48127   3.447   6.598  -0.518  0.7813 -1.2732  0.4383
  365MOL0     H48128   3.583   6.601  -0.405 -1.4845  1.8384  2.4943
  365MOL0     H48129   3.625   6.707  -0.634  1.1961 -0.2887  0.7904
  365MOL0     H48130   3.521   6.843  -0.583  2.4658  2.0240  0.9759
  365MOL0     H48131   3.671   6.903  -0.394  0.6683  0.5352 -0.6248
  365MOL0     H48132   3.749   6.919  -0.535 -1.4599  0.5511 -1.0479
  365MOL0     H48133   3.867   6.638  -0.608 -2.6993 -0.2802  0.4508
  365MOL0     H48134   3.947   6.373  -0.475  0.4363 -0.5532  1.2074
  365MOL0     H48135   4.059   6.420  -0.355 -3.4489  1.7987  2.5008
  365MOL0     H48136   4.077   6.472  -0.655 -3.0671 -0.0028  1.2155
  365MOL0     H48137   4.171   6.362  -0.563  0.0456  0.4534  0.4241
  365MOL0     H48138   4.301   6.563  -0.602 -1.9054  3.6024 -2.5040
  365MOL0     H48139   4.202   6.665  -0.501  1.6871  0.0271  0.6251
  365MOL0     H48140   4.316   6.416  -0.371  1.7796  0.9766  4.6962
  365MOL0     H48141   4.257   6.566  -0.303  3.2602  1.3502  0.5976
  365MOL0     H48142   4.390   6.725  -0.178 -0.4113  1.4619  1.2176
  365MOL0     H48143   4.466   6.946  -0.146  0.4210  0.3797 -0.0340
  365MOL0     H48144   4.784   7.233  -0.259 -1.0974  0.1789  0.7034
  365MOL0     H48145   4.969   7.410  -0.297 -2.3289  1.2592  2.7125
  365MOL0     H48146   4.904   7.707  -0.621 -1.7891 -1.8157 -0.5519
  365MOL0     H48147   5.008   7.589  -0.683 -0.2310 -1.3975  1.0125
  365MOL0     H48148   5.160   7.759  -0.683  1.4705 -0.1926  0.6866
  365MOL0     H48149   5.181   7.681  -0.527  0.4355  0.4446 -1.1526
  365MOL0     H48150   5.046   7.872  -0.416 -1.5279 -0.4486 -0.4359
  365MOL0     H48151   5.041   7.953  -0.559 -1.6630 -1.0496 -0.9315
  365MOL0     H48152   5.310   7.853  -0.464  0.4479 -0.0578 -0.0840
  365MOL0     H48153   5.273   7.991  -0.571  1.8619  0.0117  0.4116
  365MOL0     H48154   5.231   7.976  -0.279 -1.4639  0.2847  1.0024
  365MOL0     H48155   5.150   8.100  -0.376  0.7978 -0.2595  1.7060
  365MOL0     H48156   5.350   8.195  -0.468 -1.8402 -0.5824 -0.1270
  365MOL0     H48157   5.447   8.079  -0.386  1.1436  1.2765 -0.8430
  365MOL0     H48158   5.304   8.290  -0.218 -0.5520 -0.1541  2.1884
  365MOL0     H48159   5.425   8.164  -0.172  1.1061 -2.0711 -2.1297
  365MOL0     H48160   5.596   8.256  -0.314 -1.2776 -1.7513 -1.2563
  365MOL0     H48161   5.518   8.384  -0.211 -2.1043  2.4967 -1.4842
  365MOL0     H48162   4.775   7.549  -0.639  1.4088 -1.7112 -0.3037
  365MOL0     H48163   4.598   7.380  -0.612  1.4658 -1.0563 -3.5097
  365MOL0     H48164   4.608   6.966  -0.548  0.1995  1.1491  1.3463
  365MOL0     H48165   4.563   6.730  -0.590  0.2799 -0.4226  0.6722
  365MOL0     H48166   3.505   6.479   0.279 -0.5198  1.9099  0.3522
  365MOL0     H48167   3.706   6.574   0.377  1.4889 -1.0938 -0.0253
  365MOL0     H48168   4.179   6.589   0.490 -1.3460 -2.8848 -2.2893
  365MOL0     H48169   4.411   6.647   0.470  0.2815 -2.1992 -0.3239
  365MOL0     H48170   4.685   6.896   0.225 -0.3052 -0.3347  0.1820
  365MOL0     H48171   4.516   6.909   0.156 -3.3696 -0.8156  3.3825
  365MOL0     H48172   4.591   6.779  -0.000  3.4623 -0.7496 -1.1114
  365MOL0     H48173   4.754   6.777   0.061  0.8581  1.5137  1.5465
  365MOL0     H48174   4.525   6.576   0.114  0.5213 -2.9634  2.5110
  365MOL0     H48175   4.682   6.562   0.198  1.7975  0.0821 -0.4705
  365MOL0     H48176   4.642   6.418   0.010 -1.9419  1.0657  0.6276
  365MOL0     H48177   4.652   6.544  -0.108  1.3731  0.4054 -1.2786
  365MOL0     H48178   5.069   6.534   0.008  0.6202 -3.7233  0.0078
  365MOL0     H48179   4.349   6.861   0.097  0.9529 -2.2275 -2.4979
  365MOL0     H48180   4.116   6.794   0.110 -1.1958  0.7814  1.6690
  366MOL0     O48181  10.616   8.233   6.770  0.0915  0.3990 -0.3056
  366MOL0     C48182  10.631   8.278   6.653 -0.1828  0.4089  0.0370
  366MOL0     O48183  10.573   8.218   6.539 -0.5083  0.3152  0.0341
  366MOL0     C48184  10.479   8.121   6.559 -0.2516  0.0861 -0.0375
  366MOL0     C48185  10.501   7.994   6.623 -0.4172  0.0838 -0.9770
  366MOL0     C48186  10.400   7.897   6.618  0.4429  0.9629 -1.5588
  366MOL0     C48187  10.286   7.910   6.535  0.2871 -0.6862 -0.3161
  366MOL0     O48188  10.197   7.809   6.524 -0.2028 -0.1740 -0.1965
  366MOL0     C48189  10.155   7.741   6.643 -0.1054  0.3943 -1.0137
  366MOL0     C48190  10.003   7.736   6.650  0.0107  0.2096  0.0836
  366MOL0     C48191   9.937   7.629   6.548 -0.7571  0.1467  0.2541
  366MOL0     C48192   9.784   7.610   6.584 -0.3780 -1.1001  0.1432
  366MOL0     C48193   9.721   7.514   6.484 -0.8663  0.0033  0.0795
  366MOL0     C48194   9.581   7.487   6.516  0.5688 -0.6575  0.7022
  366MOL0     C48195   9.493   7.447   6.393  0.5796  0.1067  0.1130
  366MOL0     C48196   9.536   7.307   6.343 -0.3794 -1.5697  0.2855
  366MOL0     N48197   9.459   7.270   6.224  0.3008  0.2975 -0.7492
  366MOL0     C48198   9.347   7.193   6.227 -0.7040  0.5052  0.1113
  366MOL0     C48199   9.316   7.165   6.094  0.1955 -0.1844  0.3270
  366MOL0     C48200   9.198   7.096   6.037  0.3444 -0.4806  0.3553
  366MOL0     C48201   9.086   7.196   5.996  0.0572 -0.0116 -0.1542
  366MOL0     C48202   9.109   7.258   5.853  0.0262 -0.2562 -0.4587
  366MOL0     C48203   8.986   7.360   5.815  0.0577  0.3104  0.1921
  366MOL0     O48204   9.024   7.494   5.831 -0.6559  0.3605 -0.3660
  366MOL0     C48205   8.950   7.597   5.786 -0.8292  0.4779 -0.1099
  366MOL0     C48206   8.818   7.586   5.741 -0.3789 -0.0848  0.5337
  366MOL0     C48207   8.753   7.697   5.692  0.3004  0.1269 -0.9656
  366MOL0     C48208   8.813   7.826   5.694  0.0987 -1.1448 -0.5660
  366MOL0     C48209   8.741   7.948   5.647  0.6680 -0.2812  0.0246
  366MOL0     O48210   8.608   7.934   5.610  0.0415 -0.2541  0.3415
  366MOL0     C48211   8.519   8.042   5.598 -0.7870  0.8043  0.3246
  366MOL0     C48212   8.396   8.028   5.663  0.1334 -0.0361  0.3976
  366MOL0     C48213   8.304   8.134   5.666  0.0153  0.5038  0.0639
  366MOL0     C48214   8.329   8.249   5.584 -0.7095 -0.3875  0.0539
  366MOL0     O48215   8.231   8.346   5.570 -0.0265  0.0206  0.1335
  366MOL0     C48216   8.237   8.459   5.655  0.6321  0.7132 -0.0146
  366MOL0     C48217   8.134   8.566   5.609 -0.6544 -0.2214  0.3327
  366MOL0     C48218   8.160   8.699   5.679 -0.1246  1.3242 -0.5954
  366MOL0     C48219   8.050   8.804   5.649 -0.3745  1.2711 -0.2924
  366MOL0     C48220   8.099   8.942   5.703 -0.2495  0.2416 -0.9481
  366MOL0     C48221   7.987   9.042   5.656 -0.3100 -0.2280 -0.4447
  366MOL0     C48222   7.967   9.160   5.754 -0.7521 -0.1741 -0.2583
  366MOL0     C48223   7.847   9.247   5.709  0.0912  0.1159 -0.1516
  366MOL0    Cl48224   7.845   9.391   5.801  0.1548  0.2490  0.0614
  366MOL0     C48225   8.458   8.253   5.513 -0.1767  0.2406 -0.0517
  366MOL0     C48226   8.548   8.156   5.528 -0.6536 -0.1300  0.8380
  366MOL0     O48227   8.800   8.052   5.642 -0.6616 -0.0641  0.2772
  366MOL0     C48228   8.946   7.833   5.747  1.0124 -0.1323  0.4778
  366MOL0     C48229   9.004   7.724   5.797 -0.6441  0.6116  0.2032
  366MOL0     N48230   9.405   7.238   6.021 -0.1482 -0.3192 -0.0894
  366MOL0     N48231   9.483   7.294   6.100 -0.0083 -0.8832 -0.5934
  366MOL0     C48232  10.279   8.026   6.450 -0.3594 -0.8836  0.1398
  366MOL0     C48233  10.372   8.129   6.477  0.0824 -0.2483  0.9441
  366MOL0     C48234  10.724   8.400   6.642 -0.1794 -0.2037  0.4530
  366MOL0     C48235  10.728   8.499   6.734 -0.1639 -0.8081 -0.3431
  366MOL0     C48236  10.804   8.616   6.719 -0.7876  0.4289  0.2429
  366MOL0     C48237  10.858   8.652   6.598 -1.0093 -0.5320 -0.4982
  366MOL0     O48238  10.894   8.784   6.581  0.2588  0.6030  0.1268
  366MOL0     C48239  10.917   8.833   6.445  0.2833 -0.1258  0.3656
  366MOL0     C48240  10.889   8.984   6.443 -0.9793 -0.2086 -0.6505
  366MOL0     C48241  10.924   9.051   6.577 -0.4151  0.4432  0.6334
  366MOL0     C48242  10.898   9.207   6.575  0.3073 -0.0097 -0.9272
  366MOL0     C48243  11.017   9.284   6.546 -0.1317 -0.1757  0.0183
  366MOL0     C48244  11.095   9.363   6.508 -0.3876 -0.2738  0.1143
  366MOL0     C48245  10.861   8.550   6.503 -0.4069 -0.5262 -0.6975
  366MOL0     C48246  10.795   8.430   6.523  0.3837 -0.7523 -0.1628
  366MOL0     H48247  10.579   7.976   6.696 -0.1001  1.1692 -1.0300
  366MOL0     H48248  10.405   7.823   6.697  0.9777  0.3186 -2.1848
  366MOL0     H48249  10.189   7.792   6.734  3.8827 -0.9376 -1.5577
  366MOL0     H48250  10.197   7.640   6.649 -0.1002  0.4763  1.4687
  366MOL0     H48251   9.958   7.830   6.617  1.1233 -0.2647 -3.0548
  366MOL0     H48252   9.967   7.693   6.744 -3.0907 -1.6640 -1.7892
  366MOL0     H48253   9.982   7.530   6.560  1.8722  1.1582 -0.6697
  366MOL0     H48254   9.943   7.663   6.444  0.6428  0.9175  0.5567
  366MOL0     H48255   9.772   7.573   6.687 -0.5138 -0.2861  0.4258
  366MOL0     H48256   9.729   7.704   6.574  0.5626 -0.4605  0.7808
  366MOL0     H48257   9.778   7.420   6.479 -1.4102 -0.2830 -3.3053
  366MOL0     H48258   9.725   7.561   6.385 -2.5102 -1.5463 -0.7992
  366MOL0     H48259   9.541   7.582   6.554  0.6693  0.0201 -0.8176
  366MOL0     H48260   9.566   7.414   6.596  0.8015 -0.1333  1.2364
  366MOL0     H48261   9.385   7.445   6.408  0.3604  0.2941 -1.3424
  366MOL0     H48262   9.528   7.513   6.313  2.7249  0.1665  1.0336
  366MOL0     H48263   9.516   7.242   6.429 -0.7993  0.6978  1.9788
  366MOL0     H48264   9.640   7.311   6.309 -1.0855 -3.2092 -2.3855
  366MOL0     H48265   9.289   7.164   6.314 -0.7648  1.3147  0.3444
  366MOL0     H48266   9.150   7.024   6.105 -4.4988 -0.3621 -2.5035
  366MOL0     H48267   9.223   7.042   5.946 -0.5188 -1.5251  0.7101
  366MOL0     H48268   9.076   7.278   6.067 -1.9729 -1.8454  1.8027
  366MOL0     H48269   8.989   7.146   5.997  0.6731 -1.2595 -0.4902
  366MOL0     H48270   9.209   7.302   5.847  0.0073 -0.0631  0.5188
  366MOL0     H48271   9.109   7.189   5.768 -0.9023  1.3711 -1.8387
  366MOL0     H48272   8.909   7.339   5.889  0.2619 -0.9339  0.0727
  366MOL0     H48273   8.931   7.343   5.722 -0.1546  0.4515  0.2912
  366MOL0     H48274   8.765   7.495   5.765  0.2734 -0.5328  0.2987
  366MOL0     H48275   8.648   7.684   5.666  0.0938 -2.6144  0.8817
  366MOL0     H48276   8.389   7.947   5.734 -0.5804  1.0124  1.5462
  366MOL0     H48277   8.211   8.137   5.721  0.8074  0.9242  1.4148
  366MOL0     H48278   8.341   8.494   5.651  1.2480 -1.1368 -2.8149
  366MOL0     H48279   8.204   8.430   5.755 -0.9270  4.6902  0.8192
  366MOL0     H48280   8.032   8.541   5.640 -1.6283  1.7370 -1.0324
  366MOL0     H48281   8.134   8.570   5.500 -1.6786  1.4216  0.3564
  366MOL0     H48282   8.254   8.750   5.655  2.0655  0.2972  4.4926
  366MOL0     H48283   8.178   8.678   5.784 -3.1474 -0.7272 -0.3660
  366MOL0     H48284   8.046   8.798   5.540  0.3019 -2.3233 -0.2450
  366MOL0     H48285   7.957   8.766   5.692  0.7242 -1.2331  0.0619
  366MOL0     H48286   8.198   8.970   5.666  0.2070 -0.0457  0.0226
  366MOL0     H48287   8.093   8.947   5.812 -1.9779 -2.2384 -0.8252
  366MOL0     H48288   7.891   8.991   5.649 -0.2734 -0.7268  1.9512
  366MOL0     H48289   8.013   9.074   5.554 -2.3762  1.8913 -0.3975
  366MOL0     H48290   7.947   9.112   5.850 -0.9802 -2.3658 -1.3537
  366MOL0     H48291   8.055   9.224   5.761 -2.5978  2.3713  2.0743
  366MOL0     H48292   7.745   9.207   5.712 -0.7671  2.2343  0.0871
  366MOL0     H48293   7.866   9.280   5.607  0.3855  5.0610  1.2359
  366MOL0     H48294   8.477   8.332   5.442 -1.5223 -0.2027 -0.9523
  366MOL0     H48295   8.643   8.159   5.477 -1.2114 -0.5917 -0.2623
  366MOL0     H48296   9.003   7.924   5.733 -1.1582  0.9236 -2.3642
  366MOL0     H48297   9.107   7.728   5.830 -0.6605 -1.3202  0.6365
  366MOL0     H48298  10.209   8.035   6.368 -1.3709 -2.4543  0.7844
  366MOL0     H48299  10.376   8.224   6.424 -0.0532  1.4217  3.7538
  366MOL0     H48300  10.689   8.488   6.834  3.3333  3.0020  1.7415
  366MOL0     H48301  10.814   8.693   6.795  0.3300  1.4071 -0.8618
  366MOL0     H48302  10.848   8.777   6.380 -1.7891 -1.9722  3.8314
  366MOL0     H48303  11.019   8.802   6.420  0.2579 -1.2952  1.5630
  366MOL0     H48304  10.960   9.029   6.372  0.9014  1.8681  2.3093
  366MOL0     H48305  10.787   8.998   6.407 -1.0843 -1.6452 -0.9540
  366MOL0     H48306  11.021   9.023   6.619  0.6262 -3.4305 -3.4781
  366MOL0     H48307  10.855   9.018   6.655  0.2434 -0.8486  0.6902
  366MOL0     H48308  10.822   9.232   6.500 -1.9939 -1.7047  0.6600
  366MOL0     H48309  10.859   9.243   6.671  0.2187  1.7609 -1.5960
  366MOL0     H48310  11.184   9.414   6.477  1.8580 -2.9010  1.7648
  366MOL0     H48311  10.915   8.562   6.410 -1.1352 -0.8098 -1.1665
  366MOL0     H48312  10.794   8.353   6.447 -0.4509 -1.0463  0.1385
  367MOL0     O48313   0.473   6.095   2.135  0.5029 -0.2308  0.0185
  367MOL0     C48314   0.437   5.985   2.098 -1.2294 -0.9838  0.0409
  367MOL0     O48315   0.314   5.937   2.082 -0.2486  0.8773  0.4325
  367MOL0     C48316   0.209   6.023   2.083 -0.2656  0.2393  0.5313
  367MOL0     C48317   0.091   5.988   2.149  0.0566 -0.6606 -1.0005
  367MOL0     C48318  -0.009   6.086   2.145 -0.0326 -1.0996 -1.0201
  367MOL0     C48319   0.008   6.208   2.083  0.7665  1.2585  0.5868
  367MOL0     O48320  -0.110   6.282   2.087 -0.6267 -0.0885  0.5493
  367MOL0     C48321  -0.147   6.368   1.979 -0.5868  0.3524 -0.0668
  367MOL0     C48322  -0.266   6.315   1.892  0.2998  0.2447 -0.3819
  367MOL0     C48323  -0.282   6.165   1.863  0.8246 -0.2916  0.1688
  367MOL0     C48324  -0.162   6.115   1.774  1.0622 -0.1853  0.3280
  367MOL0     C48325  -0.166   6.168   1.626 -0.2141 -0.1153 -0.1461
  367MOL0     C48326  -0.031   6.196   1.577  0.2777  0.0824  0.2324
  367MOL0     C48327   0.077   6.088   1.582  0.8883 -0.2965 -0.1593
  367MOL0     C48328   0.045   5.951   1.520  0.1040  0.2190 -0.1311
  367MOL0     N48329   0.152   5.863   1.554 -0.4287 -0.5043  0.0205
  367MOL0     C48330   0.174   5.812   1.684  0.3733 -1.4811 -0.1347
  367MOL0     C48331   0.273   5.723   1.672  1.0050 -0.5136 -0.8212
  367MOL0     C48332   0.336   5.669   1.789 -0.8452  0.6957 -0.8142
  367MOL0     C48333   0.295   5.524   1.808 -0.7050 -0.9464 -0.2681
  367MOL0     C48334   0.366   5.469   1.933 -0.0001  0.3506  0.1131
  367MOL0     C48335   0.340   5.311   1.925 -0.2691  0.5812 -0.2445
  367MOL0     O48336   0.461   5.258   1.874  1.3154 -0.4073 -0.8239
  367MOL0     C48337   0.490   5.120   1.879 -1.2996 -1.2262 -0.3066
  367MOL0     C48338   0.394   5.021   1.866 -0.3800  0.3066 -0.2722
  367MOL0     C48339   0.441   4.884   1.858  0.2808 -0.1828 -0.4761
  367MOL0     C48340   0.574   4.852   1.855  0.3680  0.3950 -0.3390
  367MOL0     C48341   0.625   4.709   1.837  0.2456 -0.0337  0.5935
  367MOL0     O48342   0.758   4.685   1.837  0.1266 -0.2177  0.7337
  367MOL0     C48343   0.824   4.574   1.807  0.6251  0.6100  0.1820
  367MOL0     C48344   0.765   4.463   1.746  0.4400  0.1291 -0.0482
  367MOL0     C48345   0.846   4.355   1.700  0.4248 -0.2087 -0.0451
  367MOL0     C48346   0.979   4.356   1.745 -0.6429  0.4413  0.2985
  367MOL0     O48347   1.067   4.252   1.722  1.0721  1.1021  0.6908
  367MOL0     C48348   1.074   4.198   1.585  0.1416 -0.2314  0.2383
  367MOL0     C48349   1.223   4.170   1.547  0.0162  0.2713  0.4990
  367MOL0     C48350   1.298   4.296   1.533  0.4878  0.0834 -0.2714
  367MOL0     C48351   1.381   4.325   1.660  0.2019 -0.0147  0.2396
  367MOL0     C48352   1.523   4.386   1.629  0.5953  0.4853 -0.2161
  367MOL0     C48353   1.533   4.516   1.546  0.7093  0.2847 -1.1524
  367MOL0     C48354   1.674   4.567   1.568 -0.7981  0.1144 -0.6337
  367MOL0     C48355   1.687   4.712   1.517 -0.2910 -0.0303 -1.0374
  367MOL0    Cl48356   1.743   4.696   1.348 -0.1085 -0.0066  0.1447
  367MOL0     C48357   1.034   4.470   1.810  0.1486  0.2881 -0.1146
  367MOL0     C48358   0.949   4.580   1.833 -0.7995 -0.4954 -0.9883
  367MOL0     O48359   0.536   4.622   1.833  0.7066 -0.3177  0.2245
  367MOL0     C48360   0.666   4.958   1.868 -0.3013  0.0989 -1.0396
  367MOL0     C48361   0.625   5.092   1.882  0.0223  0.3656  0.2731
  367MOL0     N48362   0.308   5.727   1.538 -0.3478 -0.3942  0.6540
  367MOL0     N48363   0.246   5.815   1.471 -0.2355  0.1329 -1.0416
  367MOL0     C48364   0.114   6.224   1.998  0.6998  0.6091 -0.7226
  367MOL0     C48365   0.217   6.131   2.000 -0.1015 -0.4694  0.1069
  367MOL0     C48366   0.545   5.882   2.099 -0.3113  0.6549 -0.0383
  367MOL0     C48367   0.528   5.746   2.135 -0.4544  0.2098 -0.2741
  367MOL0     C48368   0.628   5.649   2.134 -0.3207  0.8503 -0.5881
  367MOL0     C48369   0.754   5.685   2.079 -1.2353  0.0450  0.0657
  367MOL0     O48370   0.858   5.594   2.062 -0.1777  0.1716 -0.8006
  367MOL0     C48371   0.899   5.516   2.174  0.3370  0.1168 -0.0399
  367MOL0     C48372   0.999   5.564   2.280  0.1246  0.4100  0.8407
  367MOL0     C48373   0.947   5.672   2.375 -0.8777 -0.4411  0.2444
  367MOL0     C48374   1.041   5.679   2.499 -0.5934 -0.0234  0.0448
  367MOL0     C48375   1.149   5.789   2.498 -0.6287  1.0748 -0.2350
  367MOL0     C48376   1.233   5.876   2.501 -0.4718  0.3312 -0.3490
  367MOL0     C48377   0.774   5.818   2.032 -0.2636 -0.4544  0.0305
  367MOL0     C48378   0.667   5.910   2.035 -0.0972  0.5124 -0.4087
  367MOL0     H48379   0.076   5.889   2.191 -1.0138 -0.6921 -1.4106
  367MOL0     H48380  -0.109   6.075   2.186 -1.0274 -2.1873 -3.5448
  367MOL0     H48381  -0.058   6.391   1.920 -0.0461 -0.1916  0.5164
  367MOL0     H48382  -0.183   6.459   2.028  1.2284  2.6677 -2.7472
  367MOL0     H48383  -0.251   6.364   1.796  1.4004  0.3147 -0.1898
  367MOL0     H48384  -0.357   6.355   1.936  1.8392  3.8064 -0.0969
  367MOL0     H48385  -0.371   6.141   1.803 -0.0659 -1.3252  1.8196
  367MOL0     H48386  -0.296   6.105   1.953 -1.8792  0.5267  0.4036
  367MOL0     H48387  -0.070   6.146   1.823 -0.7102  1.1837  3.0224
  367MOL0     H48388  -0.176   6.007   1.769  2.3581 -0.3055 -1.3197
  367MOL0     H48389  -0.231   6.251   1.597 -3.7147 -1.3786  3.3279
  367MOL0     H48390  -0.214   6.090   1.565 -0.5768  0.0999 -0.1343
  367MOL0     H48391   0.007   6.290   1.620 -0.3113 -1.2304  3.9367
  367MOL0     H48392  -0.032   6.212   1.469 -0.5608 -2.1741 -0.1319
  367MOL0     H48393   0.172   6.124   1.541  0.5454  0.5252 -0.2597
  367MOL0     H48394   0.110   6.075   1.686 -1.1461 -0.8269  0.4613
  367MOL0     H48395   0.053   5.973   1.413  0.2037  1.2107  0.0791
  367MOL0     H48396  -0.054   5.912   1.548 -0.1957  0.2733 -1.0742
  367MOL0     H48397   0.122   5.834   1.776  2.3907  1.1933  0.4624
  367MOL0     H48398   0.313   5.719   1.884  1.6624  0.7455 -0.1717
  367MOL0     H48399   0.440   5.671   1.758  0.5254 -4.1463  2.4067
  367MOL0     H48400   0.329   5.470   1.719  0.9574 -0.4140  0.0285
  367MOL0     H48401   0.187   5.528   1.827 -0.5064  3.0146  0.8761
  367MOL0     H48402   0.474   5.486   1.929  0.3837 -1.8347 -0.0957
  367MOL0     H48403   0.322   5.509   2.024 -0.8633  1.2875 -0.6907
  367MOL0     H48404   0.249   5.282   1.873 -0.4284 -0.9789  0.8328
  367MOL0     H48405   0.322   5.276   2.027 -0.3803 -0.8137 -0.7226
  367MOL0     H48406   0.292   5.053   1.847 -1.6302 -4.1625 -2.1613
  367MOL0     H48407   0.364   4.817   1.822 -0.0319  1.4390 -3.1470
  367MOL0     H48408   0.658   4.446   1.731  0.6912 -3.0969  0.9929
  367MOL0     H48409   0.815   4.271   1.639  2.1613  1.4518 -3.5249
  367MOL0     H48410   1.030   4.272   1.517  1.2156  1.2073  1.0359
  367MOL0     H48411   1.011   4.109   1.594 -0.6484  0.0297 -2.1105
  367MOL0     H48412   1.214   4.125   1.448 -1.5415 -1.2906  1.3035
  367MOL0     H48413   1.273   4.095   1.609 -0.0912 -0.7737 -0.6694
  367MOL0     H48414   1.227   4.369   1.493 -0.5393 -1.5961 -1.6434
  367MOL0     H48415   1.377   4.282   1.459  3.5884 -2.5838  3.1397
  367MOL0     H48416   1.324   4.398   1.718 -0.3131  0.4542 -0.8285
  367MOL0     H48417   1.388   4.234   1.720 -1.6045 -1.2397 -1.2823
  367MOL0     H48418   1.586   4.310   1.582  0.1690 -1.1202  1.6903
  367MOL0     H48419   1.552   4.419   1.729 -1.1189  0.6920  0.2488
  367MOL0     H48420   1.463   4.596   1.572  0.2422  0.2485 -2.2509
  367MOL0     H48421   1.513   4.488   1.442 -0.5388 -1.7563 -0.4295
  367MOL0     H48422   1.701   4.563   1.674 -3.0428 -2.3655 -0.0470
  367MOL0     H48423   1.747   4.509   1.512 -0.3121 -0.2815  0.3828
  367MOL0     H48424   1.765   4.761   1.576 -0.2506 -0.9507 -0.3019
  367MOL0     H48425   1.588   4.758   1.524 -1.0614 -1.7070 -0.4717
  367MOL0     H48426   1.141   4.476   1.829  0.2823  3.4668 -1.2722
  367MOL0     H48427   0.993   4.665   1.885  1.7295 -1.2851 -1.6689
  367MOL0     H48428   0.769   4.925   1.874 -0.3427  0.1399 -0.0018
  367MOL0     H48429   0.703   5.167   1.878 -0.6663  1.0357 -2.0751
  367MOL0     H48430   0.130   6.319   1.948 -2.6897  2.9648  2.1337
  367MOL0     H48431   0.307   6.161   1.946 -1.5477  3.0468 -0.6161
  367MOL0     H48432   0.435   5.716   2.184 -0.0767 -2.2712 -0.9229
  367MOL0     H48433   0.618   5.547   2.169  1.3963  1.9508  3.6501
  367MOL0     H48434   0.951   5.431   2.129 -0.5508 -0.9145  0.8434
  367MOL0     H48435   0.812   5.471   2.223  0.8711  0.4862  1.2822
  367MOL0     H48436   1.024   5.476   2.340  0.8789  1.0714  1.5177
  367MOL0     H48437   1.089   5.601   2.231 -1.3321  0.8976 -1.6842
  367MOL0     H48438   0.849   5.642   2.413 -1.1082 -1.9647 -1.4263
  367MOL0     H48439   0.940   5.773   2.334  4.8852  0.2054  0.0622
  367MOL0     H48440   0.974   5.689   2.585  0.2127 -0.3538  0.7269
  367MOL0     H48441   1.109   5.593   2.503  1.5099  1.3756 -2.5535
  367MOL0     H48442   1.305   5.955   2.506 -0.7882  0.6017 -0.0593
  367MOL0     H48443   0.874   5.829   1.992  0.7429 -2.4250  1.7914
  367MOL0     H48444   0.678   6.012   1.999 -0.6232  0.6933 -0.0641
  368MOL0     O48445   1.139   4.732   3.071 -0.3432  0.8689  0.5744
  368MOL0     C48446   1.032   4.695   3.024 -0.6921 -0.2160 -0.8131
  368MOL0     O48447   1.001   4.589   2.945  0.0369  0.1306  1.1093
  368MOL0     C48448   1.094   4.503   2.893 -0.7856 -0.4130  1.0978
  368MOL0     C48449   1.230   4.523   2.880 -0.9674  0.2618 -0.3947
  368MOL0     C48450   1.319   4.434   2.810  0.9023  0.2191  0.1914
  368MOL0     C48451   1.261   4.311   2.759 -0.9004 -0.1911 -0.4115
  368MOL0     O48452   1.330   4.211   2.689  0.2169  0.7393 -0.1531
  368MOL0     C48453   1.466   4.242   2.641  0.2133  0.6391  0.5292
  368MOL0     C48454   1.513   4.145   2.523  0.0773 -0.5778  0.0159
  368MOL0     C48455   1.657   4.168   2.468  0.1379  0.6668  0.5706
  368MOL0     C48456   1.726   4.293   2.506  0.3430 -0.0449 -0.0283
  368MOL0     C48457   1.796   4.286   2.640 -0.1049 -0.4719 -0.0089
  368MOL0     C48458   1.917   4.384   2.643 -0.9500 -0.1461  0.2940
  368MOL0     C48459   1.984   4.358   2.781 -0.0315  0.1600  0.8470
  368MOL0     C48460   2.121   4.434   2.785 -0.6465 -0.1094 -0.4647
  368MOL0     N48461   2.205   4.400   2.904 -0.2528  0.7651  0.2351
  368MOL0     C48462   2.159   4.402   3.028 -0.2457  0.3176 -0.9591
  368MOL0     C48463   2.266   4.412   3.112 -0.1506  0.2778  0.2425
  368MOL0     C48464   2.277   4.410   3.265 -0.1752 -0.4694  0.2589
  368MOL0     C48465   2.276   4.553   3.312 -0.2631 -0.1419 -0.5035
  368MOL0     C48466   2.320   4.553   3.458 -0.2768 -0.8858  0.1175
  368MOL0     C48467   2.344   4.686   3.521  0.7108  0.3691 -1.4505
  368MOL0     O48468   2.220   4.744   3.539  0.4178  0.6542  0.7416
  368MOL0     C48469   2.199   4.872   3.591  0.5891  0.0776 -0.1810
  368MOL0     C48470   2.070   4.931   3.592 -0.7509  0.3914 -0.5477
  368MOL0     C48471   2.048   5.068   3.635  0.2946 -0.2989  0.5977
  368MOL0     C48472   2.156   5.148   3.675 -0.7712  0.3618  0.0529
  368MOL0     C48473   2.132   5.288   3.706 -0.3599 -0.8874 -0.2469
  368MOL0     O48474   2.008   5.334   3.742 -0.7603 -0.9937 -0.2883
  368MOL0     C48475   2.000   5.475   3.764 -0.3977 -0.4886 -0.2540
  368MOL0     C48476   2.007   5.570   3.659 -0.2247  0.2303 -0.2227
  368MOL0     C48477   1.998   5.702   3.688 -0.0015 -0.2520 -0.8605
  368MOL0     C48478   1.975   5.751   3.819  0.1010  0.3380  0.5460
  368MOL0     O48479   1.980   5.889   3.826  0.0474 -0.3245 -0.5913
  368MOL0     C48480   1.913   5.946   3.943 -0.2778 -0.0973  0.0729
  368MOL0     C48481   2.014   5.985   4.062 -0.1809  0.4883  0.1851
  368MOL0     C48482   1.952   6.047   4.186 -0.6341  0.0265 -0.0933
  368MOL0     C48483   1.920   6.196   4.158 -0.4771  0.6440  0.2601
  368MOL0     C48484   1.881   6.259   4.282 -0.3811 -0.1242  0.0583
  368MOL0     C48485   1.810   6.399   4.268  0.3975  0.4479 -0.0565
  368MOL0     C48486   1.741   6.426   4.398 -0.5351 -0.5070  0.6861
  368MOL0     C48487   1.609   6.354   4.413 -0.0344  0.6479  0.6060
  368MOL0    Cl48488   1.518   6.426   4.547 -0.1515  0.0732  0.1761
  368MOL0     C48489   1.953   5.655   3.922 -0.0641 -0.5452  0.8610
  368MOL0     C48490   1.968   5.521   3.894 -0.1143  0.8668 -0.0069
  368MOL0     O48491   2.233   5.363   3.703 -0.5843  0.9445  0.5344
  368MOL0     C48492   2.281   5.086   3.684 -0.2011 -0.8372  1.1538
  368MOL0     C48493   2.297   4.954   3.645  0.1543 -0.2518  0.3093
  368MOL0     N48494   2.383   4.431   3.030 -0.6504  0.3806 -0.2676
  368MOL0     N48495   2.336   4.421   2.911 -0.1109  0.2436 -0.9768
  368MOL0     C48496   1.132   4.285   2.802  0.1197  0.3045  0.3282
  368MOL0     C48497   1.048   4.374   2.870 -0.5608  0.2825 -0.5175
  368MOL0     C48498   0.928   4.797   3.062 -0.2802 -0.9903  0.0223
  368MOL0     C48499   0.947   4.934   3.091 -0.3080  0.0509 -0.3150
  368MOL0     C48500   0.837   5.014   3.109  1.2035  1.0226  0.2218
  368MOL0     C48501   0.704   4.957   3.079 -0.1675 -0.2815 -0.3827
  368MOL0     O48502   0.601   5.048   3.076  0.3454 -0.4422 -0.4612
  368MOL0     C48503   0.466   5.001   3.091  0.0893  0.1059 -0.0943
  368MOL0     C48504   0.444   4.967   3.245  0.7607 -0.5974 -0.9449
  368MOL0     C48505   0.289   4.938   3.267 -0.0247  0.4188 -0.5175
  368MOL0     C48506   0.196   5.054   3.238  0.6052 -0.6164 -0.0742
  368MOL0     C48507   0.057   5.022   3.276 -0.0804  0.4602 -1.0066
  368MOL0     C48508  -0.061   5.018   3.322 -0.2851  0.9541 -0.1719
  368MOL0     C48509   0.691   4.821   3.063  0.0168 -0.3147  0.4288
  368MOL0     C48510   0.803   4.744   3.052  0.1992  0.3839  0.0382
  368MOL0     H48511   1.284   4.611   2.913  1.7029 -0.8274 -1.5375
  368MOL0     H48512   1.420   4.473   2.801  0.5172  0.9929 -0.9706
  368MOL0     H48513   1.530   4.218   2.726 -1.0121  1.7636  1.8129
  368MOL0     H48514   1.481   4.345   2.609  1.7136 -0.0713 -1.2707
  368MOL0     H48515   1.444   4.169   2.441  2.0993  2.3742 -0.9784
  368MOL0     H48516   1.506   4.043   2.563 -3.3877 -0.4956 -0.0328
  368MOL0     H48517   1.655   4.167   2.358  0.3353 -1.1960  0.5575
  368MOL0     H48518   1.722   4.085   2.498 -1.5327 -0.9403 -0.0339
  368MOL0     H48519   1.802   4.311   2.430 -0.3148  3.8901  0.0366
  368MOL0     H48520   1.661   4.380   2.497 -0.2423 -0.4682  0.0078
  368MOL0     H48521   1.825   4.181   2.651  1.9217 -0.1074 -1.3558
  368MOL0     H48522   1.724   4.313   2.717  0.8297 -0.3481  0.8434
  368MOL0     H48523   1.883   4.488   2.643 -2.3406 -0.5872 -0.0901
  368MOL0     H48524   1.986   4.352   2.565 -1.4573 -1.4134  0.3420
  368MOL0     H48525   1.914   4.385   2.861  1.0379 -0.3747  1.9931
  368MOL0     H48526   1.999   4.250   2.793 -3.6841 -0.8096 -1.5224
  368MOL0     H48527   2.097   4.541   2.785 -1.4102 -0.2724 -0.7134
  368MOL0     H48528   2.175   4.418   2.691 -1.6493  0.5457 -1.1738
  368MOL0     H48529   2.060   4.411   3.071 -0.0985  1.9631 -0.8727
  368MOL0     H48530   2.366   4.350   3.287 -0.6676 -1.9076 -1.3794
  368MOL0     H48531   2.191   4.354   3.305 -2.3918 -0.1230 -3.5127
  368MOL0     H48532   2.174   4.590   3.306  0.2036  1.1774 -0.8098
  368MOL0     H48533   2.354   4.604   3.254  3.9331 -3.6624  1.4065
  368MOL0     H48534   2.273   4.481   3.526  0.6248  0.1158  1.8899
  368MOL0     H48535   2.424   4.519   3.455 -0.0916 -0.2718 -2.6559
  368MOL0     H48536   2.410   4.753   3.464  1.1403  1.4633  0.2553
  368MOL0     H48537   2.396   4.667   3.615 -1.6837  2.5383  0.4597
  368MOL0     H48538   1.992   4.869   3.549 -0.3714 -1.9750  1.8860
  368MOL0     H48539   1.945   5.104   3.635  0.5672  0.6552  3.1959
  368MOL0     H48540   2.015   5.533   3.557  3.0465  0.2131 -0.0634
  368MOL0     H48541   2.008   5.774   3.607  0.5905  0.3871 -0.2292
  368MOL0     H48542   1.836   5.875   3.974  2.7987 -3.0147  1.6154
  368MOL0     H48543   1.863   6.032   3.897 -0.8008 -2.6198 -4.7240
  368MOL0     H48544   2.103   6.040   4.031  2.8383 -2.9874  1.8820
  368MOL0     H48545   2.063   5.895   4.101 -0.6253  1.0864  2.2887
  368MOL0     H48546   2.026   6.039   4.266  0.5281 -0.7798 -1.2059
  368MOL0     H48547   1.859   5.994   4.210 -1.1489  0.6252 -0.7044
  368MOL0     H48548   2.005   6.250   4.116  1.4807 -1.5051  1.2298
  368MOL0     H48549   1.848   6.195   4.075 -0.7049 -1.6803  0.4177
  368MOL0     H48550   1.968   6.279   4.345 -1.4208 -0.1335  1.5578
  368MOL0     H48551   1.826   6.184   4.340 -1.3653  0.4948 -0.0476
  368MOL0     H48552   1.741   6.382   4.185 -0.2331  1.1765  0.3094
  368MOL0     H48553   1.885   6.474   4.241  0.5788 -0.0256 -0.9035
  368MOL0     H48554   1.810   6.410   4.481  0.0852 -0.4516  0.1833
  368MOL0     H48555   1.715   6.532   4.393 -0.7994 -0.5407  1.2321
  368MOL0     H48556   1.628   6.250   4.441 -1.3270  0.8451  2.5019
  368MOL0     H48557   1.533   6.342   4.336 -0.2177  2.1091  0.5329
  368MOL0     H48558   1.910   5.686   4.016  1.2555  0.1079  1.2645
  368MOL0     H48559   1.953   5.447   3.971 -3.8077  2.1114  0.6735
  368MOL0     H48560   2.365   5.142   3.725 -0.6291  1.7402 -1.1689
  368MOL0     H48561   2.398   4.916   3.661  0.2164 -1.2864 -2.0141
  368MOL0     H48562   1.103   4.184   2.775 -0.4874  1.0245 -1.9228
  368MOL0     H48563   0.959   4.336   2.919  0.6813 -1.4309  0.5381
  368MOL0     H48564   1.048   4.964   3.116  0.5207 -2.2914 -0.5826
  368MOL0     H48565   0.845   5.122   3.112  0.9606  1.0238  1.4949
  368MOL0     H48566   0.444   4.919   3.022  0.0105  0.5489 -0.6150
  368MOL0     H48567   0.403   5.082   3.051  1.6624  0.2777 -2.4757
  368MOL0     H48568   0.505   4.885   3.284  0.0255 -0.8653 -0.3358
  368MOL0     H48569   0.477   5.052   3.306 -1.4148  0.0202 -0.5385
  368MOL0     H48570   0.268   4.895   3.366 -0.5442 -1.9083 -1.5594
  368MOL0     H48571   0.277   4.852   3.201  1.5465  1.5814 -2.4076
  368MOL0     H48572   0.228   5.144   3.292 -0.5619  0.6779 -1.4830
  368MOL0     H48573   0.197   5.085   3.133 -0.7117  2.3194  0.6640
  368MOL0     H48574  -0.161   5.015   3.359 -1.3847 -0.4472 -2.9493
  368MOL0     H48575   0.595   4.771   3.053  0.8324 -2.0915  0.9822
  368MOL0     H48576   0.774   4.640   3.036 -2.4258  1.2918 -1.9052
  369MOL0     O48577   3.670   8.511   4.400  0.2722 -0.6197  0.0143
  369MOL0     C48578   3.671   8.630   4.367  0.0996  0.0055  0.2215
  369MOL0     O48579   3.665   8.733   4.461  0.3719  0.1583  0.2024
  369MOL0     C48580   3.660   8.701   4.591 -0.2306  0.1676  0.2544
  369MOL0     C48581   3.548   8.732   4.661 -0.2261 -0.0906  0.4819
  369MOL0     C48582   3.542   8.714   4.802 -0.3810  0.4372 -0.4138
  369MOL0     C48583   3.652   8.675   4.873 -0.5896 -0.3913 -0.4641
  369MOL0     O48584   3.645   8.662   5.008  0.2650  0.2123 -0.2980
  369MOL0     C48585   3.752   8.728   5.078  0.1884 -0.5868  0.2730
  369MOL0     C48586   3.723   8.873   5.126  0.5496 -0.2130  0.5590
  369MOL0     C48587   3.581   8.863   5.201 -0.1228  0.6641 -0.1353
  369MOL0     C48588   3.550   9.002   5.266  0.5708  0.9453  0.1486
  369MOL0     C48589   3.432   9.003   5.362  0.2055  0.4581 -0.7429
  369MOL0     C48590   3.410   9.134   5.446 -0.8227  0.0496  0.1596
  369MOL0     C48591   3.285   9.130   5.533  0.2733 -0.3221 -0.3304
  369MOL0     C48592   3.308   9.034   5.651  0.0739 -0.3304  0.2218
  369MOL0     N48593   3.194   9.041   5.745 -0.3600 -0.3952  0.4319
  369MOL0     C48594   3.201   9.113   5.859  0.4362  0.1807  0.2543
  369MOL0     C48595   3.081   9.084   5.916  0.3524  0.4230  0.2026
  369MOL0     C48596   3.038   9.132   6.062  0.0255  0.8683  0.3706
  369MOL0     C48597   3.024   9.025   6.175 -0.4886 -0.6394  0.2820
  369MOL0     C48598   3.165   8.992   6.214  0.5535  0.1894  1.3080
  369MOL0     C48599   3.254   9.104   6.291  1.2536 -0.1437  0.9150
  369MOL0     O48600   3.374   9.037   6.354 -0.1086  0.5802  0.7360
  369MOL0     C48601   3.482   9.068   6.277  0.2542  0.0057 -0.0203
  369MOL0     C48602   3.584   8.968   6.259 -0.6248  0.0278  0.1982
  369MOL0     C48603   3.718   9.002   6.222  0.2996  0.5111 -0.0767
  369MOL0     C48604   3.752   9.133   6.208  0.3613 -0.0530  0.0299
  369MOL0     C48605   3.884   9.174   6.153 -0.3392 -0.8546  1.0110
  369MOL0     O48606   3.938   9.289   6.210 -0.0820  0.4481 -0.6229
  369MOL0     C48607   4.069   9.328   6.171 -0.6710 -0.5545 -0.2535
  369MOL0     C48608   4.087   9.379   6.038  0.3154 -0.0073  0.1206
  369MOL0     C48609   4.209   9.403   5.979 -0.1121 -0.6439  0.5469
  369MOL0     C48610   4.323   9.404   6.060  0.6987  0.9051 -0.1707
  369MOL0     O48611   4.451   9.432   6.015 -0.3350 -0.8151  0.4311
  369MOL0     C48612   4.474   9.343   5.908 -0.7936 -0.2167 -0.6374
  369MOL0     C48613   4.627   9.351   5.892  0.2417 -0.5258 -0.4980
  369MOL0     C48614   4.705   9.272   5.999 -0.7910 -0.2527  0.3257
  369MOL0     C48615   4.862   9.289   6.000  0.1027  0.1059 -0.6679
  369MOL0     C48616   4.932   9.194   6.097 -0.2352 -0.6019  0.0316
  369MOL0     C48617   5.072   9.166   6.047 -0.3162 -0.6164 -0.3950
  369MOL0     C48618   5.167   9.105   6.158  0.4466  0.0477 -0.6298
  369MOL0     C48619   5.161   8.952   6.166  0.5175  0.1774  0.0104
  369MOL0    Cl48620   5.255   8.878   6.046  0.2892 -0.0417 -0.1526
  369MOL0     C48621   4.308   9.366   6.197  0.8067  0.3979  0.0768
  369MOL0     C48622   4.182   9.335   6.247  1.2408 -0.3770  0.2147
  369MOL0     O48623   3.948   9.094   6.079  0.0822  0.0055 -0.5454
  369MOL0     C48624   3.657   9.228   6.229  0.5049 -1.4773  0.0745
  369MOL0     C48625   3.529   9.196   6.268 -0.1808 -0.9203 -0.1773
  369MOL0     N48626   3.009   8.991   5.840  0.5304 -0.5814 -0.1472
  369MOL0     N48627   3.076   8.975   5.732 -0.0989  0.0052 -0.4776
  369MOL0     C48628   3.765   8.634   4.790  0.7409  0.4673 -0.5306
  369MOL0     C48629   3.770   8.637   4.651 -0.1327  0.1264 -0.2703
  369MOL0     C48630   3.680   8.659   4.221 -1.1191  0.9575 -0.4700
  369MOL0     C48631   3.634   8.569   4.128 -0.5765 -0.5805 -0.4865
  369MOL0     C48632   3.640   8.589   3.992 -0.1973 -0.3288 -0.0053
  369MOL0     C48633   3.705   8.696   3.944 -0.9206 -1.0139  0.2228
  369MOL0     O48634   3.727   8.697   3.807  0.8355 -0.4184  0.8385
  369MOL0     C48635   3.713   8.822   3.735  0.4135 -0.3279 -0.0957
  369MOL0     C48636   3.802   8.798   3.618  0.1778  0.0564 -0.1903
  369MOL0     C48637   3.794   8.921   3.539 -0.8831 -0.3540 -0.6315
  369MOL0     C48638   3.841   8.903   3.387 -0.9428  0.7592  0.1682
  369MOL0     C48639   3.868   9.033   3.324 -0.5970 -0.9643  0.0121
  369MOL0     C48640   3.928   9.132   3.282  0.4244 -0.6433  0.5800
  369MOL0     C48641   3.760   8.789   4.032 -0.2452  0.4571 -0.3087
  369MOL0     C48642   3.743   8.777   4.174 -0.0688  0.5696  0.1893
  369MOL0     H48643   3.454   8.764   4.617 -0.9942  0.7719  2.5944
  369MOL0     H48644   3.450   8.751   4.848  0.2628  4.0279 -1.6422
  369MOL0     H48645   3.843   8.724   5.017 -0.4068 -1.5522 -0.5871
  369MOL0     H48646   3.775   8.665   5.164  3.9702  1.8570  1.3133
  369MOL0     H48647   3.714   8.936   5.037  1.5083  0.0939  0.6619
  369MOL0     H48648   3.802   8.915   5.189  0.5005  2.4197 -0.9929
  369MOL0     H48649   3.586   8.789   5.281 -1.2561  0.9030  0.1656
  369MOL0     H48650   3.496   8.841   5.135 -0.5727  0.0169  0.6535
  369MOL0     H48651   3.635   9.044   5.320  0.5527  3.0945 -1.3923
  369MOL0     H48652   3.543   9.078   5.189  3.0421  1.4982  0.3878
  369MOL0     H48653   3.453   8.914   5.422  1.2750  1.8417  1.0131
  369MOL0     H48654   3.339   8.996   5.305 -0.0396  3.9554 -0.9843
  369MOL0     H48655   3.415   9.219   5.378  2.4950 -0.0080  0.1703
  369MOL0     H48656   3.504   9.130   5.501  0.8992 -1.4181 -2.6318
  369MOL0     H48657   3.270   9.227   5.582  0.1202 -1.4933  2.1048
  369MOL0     H48658   3.189   9.094   5.495 -0.2081 -1.6400  1.9561
  369MOL0     H48659   3.398   9.061   5.708 -1.2181  1.2063  1.6621
  369MOL0     H48660   3.318   8.932   5.614 -0.3294 -0.4603  0.4699
  369MOL0     H48661   3.273   9.183   5.898 -0.1213  1.0483 -0.2437
  369MOL0     H48662   2.947   9.194   6.053  1.1871  2.4426 -1.3945
  369MOL0     H48663   3.113   9.205   6.093  0.9426 -0.0366  0.3350
  369MOL0     H48664   2.966   8.938   6.145 -0.9882 -0.3773  0.4778
  369MOL0     H48665   2.976   9.088   6.251 -1.3526  0.1379 -0.8680
  369MOL0     H48666   3.160   8.892   6.258  2.6104 -1.0232 -0.9561
  369MOL0     H48667   3.216   8.975   6.118 -1.3966 -1.8825  0.5536
  369MOL0     H48668   3.185   9.154   6.359  1.3923  2.5060 -0.7678
  369MOL0     H48669   3.278   9.189   6.227 -0.3597  2.0552  3.0508
  369MOL0     H48670   3.569   8.863   6.285 -0.2411  0.3512  1.8082
  369MOL0     H48671   3.787   8.919   6.210 -0.1858  0.3740 -2.3686
  369MOL0     H48672   3.998   9.358   5.978  0.7854 -0.5089 -0.4141
  369MOL0     H48673   4.207   9.461   5.887 -1.8022  0.2006  1.0852
  369MOL0     H48674   4.427   9.383   5.818  2.4186  2.1729 -1.4215
  369MOL0     H48675   4.435   9.242   5.927  0.1491 -0.6189 -0.7746
  369MOL0     H48676   4.670   9.451   5.884  2.1755 -1.3885 -1.5198
  369MOL0     H48677   4.664   9.308   5.798 -1.1190  1.4235 -2.0231
  369MOL0     H48678   4.674   9.168   6.005 -1.6653  0.0415  1.2294
  369MOL0     H48679   4.682   9.319   6.095  4.3634  1.8694  0.8718
  369MOL0     H48680   4.899   9.274   5.898  4.4382 -0.0823  0.7383
  369MOL0     H48681   4.879   9.395   6.017  0.0055 -0.0142  0.2359
  369MOL0     H48682   4.873   9.104   6.121 -1.0521  0.1070  0.7397
  369MOL0     H48683   4.937   9.244   6.194 -0.7193 -0.1610 -0.1655
  369MOL0     H48684   5.119   9.255   6.005 -2.9644  1.5760  0.9687
  369MOL0     H48685   5.063   9.101   5.960 -2.6018 -0.9756  0.0433
  369MOL0     H48686   5.269   9.146   6.148  0.9333 -0.9139  0.2273
  369MOL0     H48687   5.134   9.149   6.253  3.4170  0.8943  0.1326
  369MOL0     H48688   5.055   8.924   6.155  0.7253 -0.1102 -1.3572
  369MOL0     H48689   5.189   8.931   6.270 -1.2683 -0.9347  0.3153
  369MOL0     H48690   4.401   9.365   6.253  0.6613 -1.2198  0.3326
  369MOL0     H48691   4.185   9.304   6.351  1.1504  1.6605  0.8748
  369MOL0     H48692   3.673   9.334   6.210  0.8358 -1.7841 -1.4434
  369MOL0     H48693   3.461   9.274   6.300  1.2627 -0.4954  2.1342
  369MOL0     H48694   3.848   8.593   4.847 -0.9327 -1.4555  0.6749
  369MOL0     H48695   3.850   8.607   4.584  1.5542  0.9660  1.2705
  369MOL0     H48696   3.608   8.472   4.169  0.8004 -0.1505  1.5309
  369MOL0     H48697   3.595   8.513   3.929 -0.7599  1.0315 -1.2973
  369MOL0     H48698   3.740   8.906   3.799 -3.5983  2.1118 -1.2084
  369MOL0     H48699   3.607   8.840   3.711  0.3229 -0.7618 -0.0298
  369MOL0     H48700   3.906   8.779   3.644  0.5230  0.9437 -0.8706
  369MOL0     H48701   3.769   8.702   3.577 -2.5963 -0.8863  3.6812
  369MOL0     H48702   3.857   8.991   3.595 -0.0545  0.2892 -2.2958
  369MOL0     H48703   3.691   8.957   3.531 -0.1706  1.3793 -4.3493
  369MOL0     H48704   3.938   8.854   3.370 -1.0378  1.5518 -3.6377
  369MOL0     H48705   3.767   8.850   3.327 -0.4430 -0.6367  0.7417
  369MOL0     H48706   3.968   9.226   3.248 -0.5135 -0.6667 -0.6778
  369MOL0     H48707   3.815   8.878   4.002 -0.6026  0.8472  0.1733
  369MOL0     H48708   3.789   8.847   4.243  2.6741 -2.6590  1.8655
  370MOL0     O48709   0.794   7.538   8.769  0.4294 -1.1107 -0.4236
  370MOL0     C48710   0.720   7.593   8.686  0.1050  0.9017  0.7926
  370MOL0     O48711   0.723   7.728   8.655  0.0934  1.0835 -0.1684
  370MOL0     C48712   0.800   7.808   8.731 -0.9366 -0.0045  0.6155
  370MOL0     C48713   0.939   7.787   8.744 -0.4177  0.3936  0.1544
  370MOL0     C48714   1.033   7.856   8.825 -1.0128  0.1106 -1.1665
  370MOL0     C48715   0.981   7.976   8.879 -0.3613 -0.1446  0.3133
  370MOL0     O48716   1.048   8.065   8.959 -0.0453  0.1164 -0.8766
  370MOL0     C48717   1.178   8.028   9.018  0.1391  0.5393  0.1153
  370MOL0     C48718   1.229   8.131   9.115 -0.5983 -0.6007 -0.3448
  370MOL0     C48719   1.125   8.142   9.236  0.2568 -0.0032 -0.8352
  370MOL0     C48720   1.019   8.240   9.205  0.3877 -0.4380 -0.2854
  370MOL0     C48721   0.901   8.212   9.297  0.6766 -0.2264  0.5178
  370MOL0     C48722   0.775   8.292   9.260  0.3282  0.1150  0.2567
  370MOL0     C48723   0.665   8.246   9.355  0.2575 -0.2039 -0.6702
  370MOL0     C48724   0.689   8.310   9.497 -0.2490  0.1121 -0.6319
  370MOL0     N48725   0.561   8.303   9.573  0.1637  0.2910 -0.2353
  370MOL0     C48726   0.505   8.187   9.624 -0.0760 -1.2856 -0.4315
  370MOL0     C48727   0.375   8.214   9.643  0.1705 -0.1481 -0.6934
  370MOL0     C48728   0.255   8.136   9.684 -1.2642  0.4029  0.5423
  370MOL0     C48729   0.179   8.197   9.800  0.2519  0.3617 -0.7177
  370MOL0     C48730   0.252   8.180   9.937 -0.5042 -0.4125  0.3488
  370MOL0     C48731   0.154   8.222  10.050 -0.5642  0.8035  0.2560
  370MOL0     O48732   0.140   8.358  10.069  0.0625 -0.5820 -0.4097
  370MOL0     C48733   0.115   8.401  10.197  0.2136  0.1671 -0.6301
  370MOL0     C48734   0.079   8.311  10.305 -0.6296 -0.2622  0.0153
  370MOL0     C48735   0.080   8.359  10.438  0.0678  0.0512 -0.5176
  370MOL0     C48736   0.114   8.498  10.470 -0.0570 -0.8039  0.1717
  370MOL0     C48737   0.118   8.552  10.604 -0.1817 -0.3079 -0.6750
  370MOL0     O48738   0.073   8.678  10.639 -0.0173 -0.3751  0.7633
  370MOL0     C48739   0.081   8.713  10.772 -0.5005  0.6375  0.1511
  370MOL0     C48740   0.202   8.752  10.835  1.0704  0.8066 -0.4765
  370MOL0     C48741   0.212   8.757  10.971  0.1170  0.4535  0.1445
  370MOL0     C48742   0.102   8.730  11.054  0.8216 -0.9143  0.0396
  370MOL0     O48743   0.099   8.757  11.189  0.2262  0.2887 -0.7163
  370MOL0     C48744   0.195   8.825  11.265  0.6716 -0.8698  0.2043
  370MOL0     C48745   0.289   8.743  11.349  0.6077  0.9725  0.5803
  370MOL0     C48746   0.231   8.666  11.471  0.5848  0.4477 -0.9931
  370MOL0     C48747   0.172   8.750  11.589 -0.0278 -1.2854 -0.3710
  370MOL0     C48748   0.277   8.843  11.646 -0.4041  0.1877  0.1734
  370MOL0     C48749   0.421   8.790  11.653  0.1765  0.4057  0.0127
  370MOL0     C48750   0.535   8.891  11.657 -1.1469 -0.4878 -0.0429
  370MOL0     C48751   0.528   9.010  11.741  0.0055  0.5778  0.2645
  370MOL0    Cl48752   0.416   9.140  11.686  0.2055  0.2896 -0.1252
  370MOL0     C48753  -0.020   8.699  10.994  0.0288  0.2775 -0.2190
  370MOL0     C48754  -0.030   8.683  10.854 -0.4183  0.2648 -0.5367
  370MOL0     O48755   0.170   8.475  10.685 -0.0863 -0.2052 -0.4421
  370MOL0     C48756   0.129   8.582  10.362  0.3443 -0.4285  1.0755
  370MOL0     C48757   0.138   8.527  10.236 -0.3898 -0.5584  0.0032
  370MOL0     N48758   0.358   8.351   9.603 -0.6954 -0.2433  0.4000
  370MOL0     N48759   0.465   8.399   9.551 -0.0974  0.6979 -0.2726
  370MOL0     C48760   0.844   8.005   8.867  0.5699  0.8751  0.5996
  370MOL0     C48761   0.759   7.925   8.795 -0.0737 -0.3648  1.0415
  370MOL0     C48762   0.645   7.496   8.600  0.3140 -0.0130 -0.0241
  370MOL0     C48763   0.660   7.350   8.599 -0.1144  0.4083  0.2275
  370MOL0     C48764   0.589   7.265   8.512 -0.3741  0.2804 -0.4161
  370MOL0     C48765   0.487   7.325   8.445 -0.6441  0.1875 -0.3412
  370MOL0     O48766   0.397   7.243   8.383  0.3549 -0.3783  0.8137
  370MOL0     C48767   0.310   7.164   8.461 -0.2771 -0.5501  0.6153
  370MOL0     C48768   0.324   7.016   8.407 -0.8298 -0.2259  0.4751
  370MOL0     C48769   0.228   6.927   8.478  0.6108 -0.3002 -0.1705
  370MOL0     C48770   0.241   6.769   8.467 -0.2872  0.1625 -0.1297
  370MOL0     C48771   0.374   6.715   8.492  0.9461  0.3108 -0.4203
  370MOL0     C48772   0.487   6.684   8.528 -0.2064  0.1017  0.5342
  370MOL0     C48773   0.471   7.460   8.437 -0.1658 -0.1151  0.0547
  370MOL0     C48774   0.551   7.545   8.512 -0.3699  0.1319 -0.5578
  370MOL0     H48775   0.983   7.708   8.684 -0.7811  1.9724 -2.3697
  370MOL0     H48776   1.136   7.839   8.855 -1.4142 -2.7461 -1.1471
  370MOL0     H48777   1.247   8.021   8.933 -0.9757 -3.2516 -0.6679
  370MOL0     H48778   1.181   7.934   9.075  1.6530  1.3988  1.5214
  370MOL0     H48779   1.248   8.215   9.047  1.4093 -0.6434  0.1039
  370MOL0     H48780   1.318   8.085   9.159  0.9241  0.2518 -2.3411
  370MOL0     H48781   1.175   8.182   9.324 -0.1626  0.4713 -0.8085
  370MOL0     H48782   1.084   8.047   9.269 -1.4309  1.1095  0.4103
  370MOL0     H48783   1.049   8.346   9.207 -1.8371  0.2665  2.6932
  370MOL0     H48784   0.978   8.232   9.104  0.7522  0.1612 -0.4925
  370MOL0     H48785   0.928   8.225   9.402 -0.9177 -1.4327  1.1303
  370MOL0     H48786   0.882   8.104   9.293  1.0527 -0.3284  1.3116
  370MOL0     H48787   0.745   8.259   9.160 -2.3756 -0.9184  1.3235
  370MOL0     H48788   0.797   8.399   9.265  3.1882 -0.2195 -2.3070
  370MOL0     H48789   0.569   8.275   9.311 -0.1745 -2.9679 -1.7660
  370MOL0     H48790   0.657   8.137   9.359 -2.2324 -0.0474  0.1173
  370MOL0     H48791   0.717   8.413   9.474 -2.2841  0.9681  0.4261
  370MOL0     H48792   0.777   8.256   9.535  2.0343  1.0036 -4.1634
  370MOL0     H48793   0.556   8.091   9.632 -0.1702 -1.5122 -2.2591
  370MOL0     H48794   0.290   8.037   9.712 -0.7868  0.6898  0.9753
  370MOL0     H48795   0.180   8.139   9.604 -1.7530  5.4611  0.8299
  370MOL0     H48796   0.088   8.137   9.812  0.2986  0.7852  3.1368
  370MOL0     H48797   0.157   8.304   9.795 -2.0725 -0.0406 -0.2383
  370MOL0     H48798   0.274   8.075   9.958 -2.7518 -0.7820  1.1185
  370MOL0     H48799   0.347   8.232   9.927 -0.1356 -1.0702  0.3361
  370MOL0     H48800   0.179   8.162  10.138  1.0785  0.8251 -0.1663
  370MOL0     H48801   0.053   8.186  10.026 -1.8485  3.6375  0.9695
  370MOL0     H48802   0.050   8.208  10.289 -0.6023 -0.1694 -0.6529
  370MOL0     H48803   0.056   8.279  10.507  0.7372 -2.3266 -2.8669
  370MOL0     H48804   0.289   8.748  10.771  0.5806 -1.5543 -1.1053
  370MOL0     H48805   0.315   8.776  11.000  0.5531 -3.0009  1.2479
  370MOL0     H48806   0.140   8.889  11.335 -0.6682 -1.1052 -0.6076
  370MOL0     H48807   0.264   8.879  11.200  0.1890 -1.3248 -0.6904
  370MOL0     H48808   0.366   8.815  11.375  1.3263  1.1314 -1.7296
  370MOL0     H48809   0.331   8.666  11.283 -2.4979 -1.4215  1.1768
  370MOL0     H48810   0.302   8.594  11.511 -2.5306 -0.8890  2.7607
  370MOL0     H48811   0.153   8.600  11.431 -0.0325 -0.8672  2.1471
  370MOL0     H48812   0.100   8.819  11.544  0.1618 -1.5475 -1.0876
  370MOL0     H48813   0.127   8.682  11.662  2.6263 -1.0753  1.6000
  370MOL0     H48814   0.252   8.859  11.751 -0.7791  3.0155 -0.2810
  370MOL0     H48815   0.285   8.930  11.580  0.8462  0.6192  0.8542
  370MOL0     H48816   0.450   8.722  11.573 -3.1136 -0.8122 -0.3050
  370MOL0     H48817   0.421   8.737  11.749  2.8091  0.3791  0.0832
  370MOL0     H48818   0.628   8.841  11.683 -0.0677  0.6488 -1.5325
  370MOL0     H48819   0.566   8.934  11.561  3.0167 -2.9028 -0.0043
  370MOL0     H48820   0.632   9.044  11.750  0.9500 -0.5627 -4.2015
  370MOL0     H48821   0.493   8.980  11.841  0.9422  0.9766  0.7343
  370MOL0     H48822  -0.103   8.673  11.059  0.3182 -2.4358 -0.7899
  370MOL0     H48823  -0.126   8.660  10.810 -0.5069 -2.0794  0.6772
  370MOL0     H48824   0.124   8.690  10.379  0.9376 -0.4516  1.4706
  370MOL0     H48825   0.135   8.602  10.159 -0.4701 -0.6046 -0.0398
  370MOL0     H48826   0.809   8.091   8.922  0.0153  0.8990  0.2252
  370MOL0     H48827   0.663   7.975   8.790  1.2049  2.1621  0.1536
  370MOL0     H48828   0.724   7.321   8.682  2.1976 -0.1082 -1.6445
  370MOL0     H48829   0.590   7.157   8.502 -0.4139  0.0299  1.6836
  370MOL0     H48830   0.213   7.207   8.436  1.1985  2.0197 -1.2208
  370MOL0     H48831   0.324   7.170   8.569 -0.7556  2.5205  0.5724
  370MOL0     H48832   0.297   6.999   8.303 -1.5980 -4.2986  1.1532
  370MOL0     H48833   0.429   6.990   8.423 -1.3422 -1.6649  1.8309
  370MOL0     H48834   0.130   6.952   8.438 -1.3028 -3.5644  2.0374
  370MOL0     H48835   0.231   6.938   8.587 -0.2573 -4.7827  0.4792
  370MOL0     H48836   0.176   6.721   8.541  0.6803 -2.8232 -1.0768
  370MOL0     H48837   0.198   6.735   8.372 -0.3326  3.3520 -1.3579
  370MOL0     H48838   0.590   6.678   8.555  0.7132  0.7090 -2.4012
  370MOL0     H48839   0.383   7.504   8.390  0.1358  0.4155 -0.0251
  370MOL0     H48840   0.528   7.651   8.512  0.3965  0.4252  3.3993
  371MOL0     O48841   4.536   8.644   9.282  0.3140 -0.2416  0.5886
  371MOL0     C48842   4.502   8.534   9.318  0.6701 -0.5663  0.8618
  371MOL0     O48843   4.388   8.472   9.272  0.3812 -0.6981 -0.2249
  371MOL0     C48844   4.308   8.527   9.168  0.0301  0.0353  0.0969
  371MOL0     C48845   4.302   8.660   9.127  0.8259 -0.4832  0.2774
  371MOL0     C48846   4.204   8.703   9.029  0.0882 -0.0947 -0.3047
  371MOL0     C48847   4.110   8.613   8.972 -0.2176  0.3211  0.4852
  371MOL0     O48848   4.038   8.666   8.863  0.3566 -0.5520  0.0489
  371MOL0     C48849   3.934   8.586   8.812  0.0680  0.9227 -0.9484
  371MOL0     C48850   3.903   8.654   8.684 -0.2821  0.1140 -0.7795
  371MOL0     C48851   4.035   8.685   8.608 -0.6488  0.1291  0.6427
  371MOL0     C48852   3.986   8.700   8.466 -0.4747  0.9173 -0.4956
  371MOL0     C48853   4.103   8.746   8.379  0.2131 -0.3606  0.1918
  371MOL0     C48854   4.054   8.807   8.247  0.2215 -0.9700  0.0874
  371MOL0     C48855   4.174   8.788   8.152  0.3951 -0.7475 -0.8809
  371MOL0     C48856   4.146   8.849   8.013  0.1424 -0.5310  0.4105
  371MOL0     N48857   4.256   8.836   7.913  0.1780 -0.3651 -0.6024
  371MOL0     C48858   4.343   8.735   7.909 -0.7740  0.5883  0.9510
  371MOL0     C48859   4.431   8.760   7.805  0.0937  0.1794  1.2275
  371MOL0     C48860   4.550   8.668   7.781 -0.2352  1.1579  0.1050
  371MOL0     C48861   4.668   8.748   7.713 -0.0846 -0.6866 -0.5504
  371MOL0     C48862   4.765   8.653   7.636 -0.1800  0.5671 -1.0571
  371MOL0     C48863   4.860   8.593   7.737 -1.4220  0.2292 -0.7269
  371MOL0     O48864   4.965   8.688   7.766 -0.1678 -0.1396  0.2665
  371MOL0     C48865   5.014   8.669   7.885 -0.5114 -0.3448 -0.0712
  371MOL0     C48866   5.009   8.767   7.982 -0.8041  0.0496 -0.4161
  371MOL0     C48867   5.060   8.750   8.113 -0.4755 -0.7833  0.3650
  371MOL0     C48868   5.131   8.637   8.145  0.1415 -0.4261 -0.3908
  371MOL0     C48869   5.182   8.612   8.285 -0.5014 -0.7501  0.0357
  371MOL0     O48870   5.241   8.495   8.309  1.0143 -0.0294 -0.0521
  371MOL0     C48871   5.289   8.468   8.438 -0.4094 -0.6419  0.5032
  371MOL0     C48872   5.425   8.466   8.470  0.7360 -0.6678  0.2740
  371MOL0     C48873   5.468   8.412   8.594  0.3346 -0.5702 -0.1576
  371MOL0     C48874   5.384   8.370   8.687 -0.4899 -0.7170  0.7112
  371MOL0     O48875   5.429   8.305   8.800  0.0930  0.5226 -0.2463
  371MOL0     C48876   5.403   8.392   8.909  0.1027  0.5386 -0.1215
  371MOL0     C48877   5.519   8.447   8.981  0.3315  0.1320 -0.2893
  371MOL0     C48878   5.637   8.363   9.017 -0.1709 -0.4996 -0.0419
  371MOL0     C48879   5.623   8.237   9.109 -0.2117  0.0350  0.2041
  371MOL0     C48880   5.756   8.202   9.177 -0.0521 -0.1661 -0.3019
  371MOL0     C48881   5.759   8.062   9.244 -0.7874  0.5788  0.4897
  371MOL0     C48882   5.890   8.043   9.327  0.0442  0.0215 -0.5386
  371MOL0     C48883   6.018   7.982   9.270  0.2229  0.3062  0.9276
  371MOL0    Cl48884   6.141   8.087   9.203  0.2559 -0.1750 -0.1063
  371MOL0     C48885   5.248   8.375   8.661 -0.0146 -0.4423  0.4730
  371MOL0     C48886   5.205   8.429   8.535 -0.5031 -0.0662  0.3843
  371MOL0     O48887   5.176   8.705   8.359  0.4547 -0.0948 -0.2918
  371MOL0     C48888   5.162   8.545   8.036 -0.1932  0.7135 -1.0247
  371MOL0     C48889   5.097   8.556   7.912 -0.7334 -0.5473  0.2776
  371MOL0     N48890   4.377   8.866   7.731 -0.2745  0.7845  0.8495
  371MOL0     N48891   4.279   8.914   7.798 -0.3850 -0.0719  0.4949
  371MOL0     C48892   4.136   8.478   9.011  0.1988 -0.2920 -0.6604
  371MOL0     C48893   4.227   8.440   9.111  0.1910 -0.0562  0.1543
  371MOL0     C48894   4.574   8.452   9.415  0.0835  0.4973 -0.2939
  371MOL0     C48895   4.508   8.341   9.471 -0.6273 -0.6491 -0.0889
  371MOL0     C48896   4.577   8.246   9.553 -0.2326 -0.1180  0.9755
  371MOL0     C48897   4.711   8.268   9.571 -0.3933 -0.3831  0.1010
  371MOL0     O48898   4.789   8.171   9.638 -0.2334  0.5693  0.6542
  371MOL0     C48899   4.765   8.179   9.777  0.2907  0.4944  0.8697
  371MOL0     C48900   4.901   8.162   9.838 -0.6339  1.6970 -0.1636
  371MOL0     C48901   4.986   8.037   9.780  0.8217  0.5802 -0.9026
  371MOL0     C48902   4.921   7.898   9.758  0.3189  0.2589  0.1249
  371MOL0     C48903   4.879   7.817   9.881  0.4089  0.3922  0.2199
  371MOL0     C48904   4.845   7.744   9.969 -0.6018  0.6278 -0.5790
  371MOL0     C48905   4.783   8.385   9.512  0.1579 -0.7868  0.7717
  371MOL0     C48906   4.709   8.477   9.439  1.9596 -0.2735 -0.9281
  371MOL0     H48907   4.350   8.747   9.170  1.5094 -0.3977 -0.6391
  371MOL0     H48908   4.198   8.804   8.990  0.8643  0.7521  1.6418
  371MOL0     H48909   3.849   8.584   8.881  0.7410 -0.9570 -0.0878
  371MOL0     H48910   3.979   8.489   8.788 -0.9575 -0.7119  2.9725
  371MOL0     H48911   3.848   8.745   8.710 -2.6264 -1.2238 -0.7806
  371MOL0     H48912   3.835   8.589   8.629  0.7903 -1.3240 -0.4777
  371MOL0     H48913   4.106   8.604   8.625 -1.2404 -0.3667  0.7752
  371MOL0     H48914   4.077   8.779   8.646 -2.3738  2.8131 -3.3775
  371MOL0     H48915   3.954   8.601   8.432  0.4278  0.3833  0.1541
  371MOL0     H48916   3.913   8.781   8.473 -0.6084  0.7834 -0.3188
  371MOL0     H48917   4.166   8.657   8.370  3.4287  1.3562  3.4243
  371MOL0     H48918   4.161   8.824   8.429 -0.6974  1.3017 -1.2311
  371MOL0     H48919   4.032   8.914   8.247 -1.7253 -1.2789 -2.4679
  371MOL0     H48920   3.968   8.763   8.196 -0.1426  1.8418 -1.9716
  371MOL0     H48921   4.252   8.837   8.211 -3.7675  2.7807  2.2929
  371MOL0     H48922   4.189   8.680   8.147 -0.7836 -1.0649  1.3782
  371MOL0     H48923   4.128   8.955   8.027  1.4654 -0.5167  2.4983
  371MOL0     H48924   4.052   8.811   7.973 -0.4116  0.4542  0.7584
  371MOL0     H48925   4.338   8.647   7.973 -1.9905  0.2952  0.4691
  371MOL0     H48926   4.504   8.594   7.715 -1.3681 -0.3282  2.4134
  371MOL0     H48927   4.583   8.621   7.874  2.0195 -2.8796 -2.4282
  371MOL0     H48928   4.711   8.819   7.783 -5.1372  2.1873  0.1267
  371MOL0     H48929   4.620   8.823   7.649  2.7902  2.4415  0.7010
  371MOL0     H48930   4.706   8.570   7.595 -0.0876 -0.1049  0.1444
  371MOL0     H48931   4.808   8.697   7.545  2.0805  3.5686  1.2732
  371MOL0     H48932   4.903   8.502   7.694  0.9738 -0.1992  2.2360
  371MOL0     H48933   4.800   8.568   7.825 -3.5887  2.8140 -1.3202
  371MOL0     H48934   4.964   8.864   7.962  0.9549  1.3659  1.5694
  371MOL0     H48935   5.041   8.820   8.194 -2.5488 -1.5860  0.6376
  371MOL0     H48936   5.498   8.494   8.395 -1.1815  1.4889 -0.9133
  371MOL0     H48937   5.577   8.407   8.595  0.4234 -0.0855 -2.2098
  371MOL0     H48938   5.347   8.331   8.981 -0.1304  2.1860  1.1604
  371MOL0     H48939   5.339   8.478   8.887  0.0189  0.8427  1.2324
  371MOL0     H48940   5.485   8.477   9.081 -0.2419 -0.3404 -0.3387
  371MOL0     H48941   5.562   8.531   8.926  2.6461 -1.9219 -1.8217
  371MOL0     H48942   5.696   8.437   9.072  2.1776  0.5106 -3.5528
  371MOL0     H48943   5.691   8.348   8.923  2.4246 -0.2818  1.3097
  371MOL0     H48944   5.551   8.268   9.186 -2.1824 -1.4442 -0.9669
  371MOL0     H48945   5.592   8.143   9.063 -0.4180 -0.4016  1.1937
  371MOL0     H48946   5.787   8.278   9.249  1.3414 -1.8087  0.9128
  371MOL0     H48947   5.823   8.198   9.090 -0.7165 -1.3740 -0.7712
  371MOL0     H48948   5.757   7.983   9.169  4.2158  0.3365  0.2861
  371MOL0     H48949   5.666   8.045   9.299 -2.2824 -3.2267 -2.7248
  371MOL0     H48950   5.914   8.138   9.375 -1.2401 -1.0667  2.5218
  371MOL0     H48951   5.869   7.970   9.406 -0.8220  1.2632  0.4154
  371MOL0     H48952   5.989   7.915   9.187  1.3494  0.4833  0.3680
  371MOL0     H48953   6.076   7.922   9.341  1.3528  1.9123  1.4033
  371MOL0     H48954   5.170   8.341   8.727 -0.7500  1.4963  0.6765
  371MOL0     H48955   5.101   8.431   8.504  0.3787 -0.6038 -3.0360
  371MOL0     H48956   5.222   8.456   8.055 -0.9746  0.6976  1.8700
  371MOL0     H48957   5.133   8.481   7.842  0.0205  0.6714 -0.6796
  371MOL0     H48958   4.087   8.390   8.971  0.2364 -2.3812  3.3801
  371MOL0     H48959   4.242   8.336   9.136  0.7283  0.4548  2.0895
  371MOL0     H48960   4.404   8.325   9.444 -1.8054  4.4608  0.4677
  371MOL0     H48961   4.524   8.170   9.610 -0.7498 -2.0360 -1.8205
  371MOL0     H48962   4.694   8.098   9.799 -0.3415  1.1403  1.2452
  371MOL0     H48963   4.730   8.274   9.818  1.9492  1.8855 -0.7615
  371MOL0     H48964   4.966   8.249   9.824  0.4771  0.8493 -0.4076
  371MOL0     H48965   4.880   8.148   9.945  0.9974 -1.5958 -0.1364
  371MOL0     H48966   5.053   8.017   9.864 -2.0259 -2.6569  0.8464
  371MOL0     H48967   5.024   8.064   9.681 -2.0685  0.8203 -2.0510
  371MOL0     H48968   4.824   7.908   9.710 -0.9101 -3.0425  1.6281
  371MOL0     H48969   4.982   7.837   9.692 -3.1663 -2.5215 -0.7993
  371MOL0     H48970   4.805   7.681  10.045  1.2658 -1.5371 -1.2586
  371MOL0     H48971   4.890   8.403   9.525 -0.3068  2.2095  1.2287
  371MOL0     H48972   4.757   8.570   9.410  1.6963 -0.0578 -0.6818
  372MOL0     O48973   8.069   6.057   1.350 -0.3096 -0.3144 -1.1305
  372MOL0     C48974   8.003   6.133   1.426 -0.7041  0.0731 -0.1984
  372MOL0     O48975   7.876   6.122   1.461 -0.7223  0.6522  0.5219
  372MOL0     C48976   7.813   6.006   1.430 -1.2427 -0.3813 -0.4385
  372MOL0     C48977   7.682   6.014   1.391  0.2664 -0.1011  0.5454
  372MOL0     C48978   7.616   5.911   1.335  0.6524 -0.2949 -0.2666
  372MOL0     C48979   7.674   5.791   1.330 -0.2890  0.3712  0.2529
  372MOL0     O48980   7.603   5.677   1.275  0.3701 -0.1683  0.2295
  372MOL0     C48981   7.640   5.652   1.136 -0.1771  0.5262 -0.2917
  372MOL0     C48982   7.578   5.521   1.093  0.2112  0.3290  0.1586
  372MOL0     C48983   7.602   5.497   0.941 -0.9037  0.0955  0.0541
  372MOL0     C48984   7.722   5.395   0.934  0.0965  0.2358 -0.6831
  372MOL0     C48985   7.826   5.434   0.832  0.9693  0.4582  0.5696
  372MOL0     C48986   7.915   5.317   0.792  0.5264 -1.0581 -0.5868
  372MOL0     C48987   8.011   5.275   0.905  1.2948  0.0171  0.7072
  372MOL0     C48988   8.136   5.372   0.919  1.3491  0.4206 -0.6527
  372MOL0     N48989   8.241   5.353   0.808  0.8677  0.0787  0.5645
  372MOL0     C48990   8.286   5.231   0.779 -0.4260  0.9363  0.9968
  372MOL0     C48991   8.331   5.237   0.643 -0.2832 -0.3384 -0.2919
  372MOL0     C48992   8.397   5.129   0.564 -0.0515  0.6807 -0.5865
  372MOL0     C48993   8.544   5.102   0.616  0.5833 -0.0485 -0.7651
  372MOL0     C48994   8.628   5.226   0.604 -0.2525 -0.7055  0.4121
  372MOL0     C48995   8.779   5.189   0.633  1.0886  0.1119 -0.9241
  372MOL0     O48996   8.839   5.092   0.538 -0.1690  0.2668 -0.2501
  372MOL0     C48997   8.950   5.013   0.583 -0.6838 -1.1388 -0.3207
  372MOL0     C48998   9.020   5.016   0.716  0.8499  0.2649  0.8403
  372MOL0     C48999   9.124   4.932   0.746 -0.0061  0.4677  0.4585
  372MOL0     C49000   9.183   4.861   0.643 -1.0119  0.4490 -0.1210
  372MOL0     C49001   9.309   4.784   0.657 -0.2999 -0.8029 -0.0151
  372MOL0     O49002   9.351   4.774   0.791 -0.3410  0.5894 -0.7385
  372MOL0     C49003   9.458   4.697   0.822 -0.2900  0.1714  0.0288
  372MOL0     C49004   9.552   4.766   0.898 -0.0264 -0.4826  0.7776
  372MOL0     C49005   9.673   4.698   0.939 -0.3596  0.2611 -0.4260
  372MOL0     C49006   9.683   4.556   0.919 -0.3917  0.0634 -0.4129
  372MOL0     O49007   9.801   4.480   0.945  0.5886  0.0128  0.0482
  372MOL0     C49008   9.922   4.553   0.957 -0.3652  0.6812  0.3678
  372MOL0     C49009  10.043   4.458   0.946 -0.1112 -0.1264  0.1381
  372MOL0     C49010  10.171   4.532   0.903  0.3642 -0.0133  0.4898
  372MOL0     C49011  10.293   4.445   0.943  0.1234  0.2017  0.1708
  372MOL0     C49012  10.338   4.486   1.087  0.8092  0.1388 -0.2736
  372MOL0     C49013  10.436   4.383   1.149  0.3647 -0.9542  0.0094
  372MOL0     C49014  10.586   4.395   1.099  1.0591  0.2516  0.0906
  372MOL0     C49015  10.653   4.521   1.148  0.4809  0.5506  0.4015
  372MOL0    Cl49016  10.679   4.509   1.323  0.3568 -0.0148 -0.2414
  372MOL0     C49017   9.580   4.487   0.847  0.2648  0.1394 -0.4622
  372MOL0     C49018   9.471   4.557   0.796  0.1429  0.3567 -1.4324
  372MOL0     O49019   9.347   4.723   0.556  0.4529 -0.0077 -0.0580
  372MOL0     C49020   9.117   4.858   0.517  0.2673 -0.3818  0.5143
  372MOL0     C49021   9.002   4.930   0.493 -0.0339  0.8518 -0.1839
  372MOL0     N49022   8.294   5.360   0.592 -0.7381 -0.4156 -0.0519
  372MOL0     N49023   8.242   5.423   0.683  0.2001 -0.0872  0.1049
  372MOL0     C49024   7.796   5.763   1.392 -1.4684 -0.1737  0.7716
  372MOL0     C49025   7.861   5.873   1.451 -0.6506 -0.1490  0.3781
  372MOL0     C49026   8.078   6.262   1.473  0.5716  0.5787 -0.0727
  372MOL0     C49027   8.016   6.339   1.576  0.1926 -0.1567  0.1658
  372MOL0     C49028   8.082   6.449   1.632 -0.1306  0.0153  0.4779
  372MOL0     C49029   8.210   6.472   1.598  1.5799  0.8328  0.0083
  372MOL0     O49030   8.272   6.578   1.657  0.5559 -0.2076  0.2890
  372MOL0     C49031   8.297   6.686   1.568 -0.4796  0.6420 -0.3384
  372MOL0     C49032   8.444   6.686   1.531  0.1186 -0.6221  0.3637
  372MOL0     C49033   8.509   6.817   1.480 -0.1960 -1.0965 -0.0034
  372MOL0     C49034   8.565   6.927   1.574 -0.0605  0.1942 -0.0473
  372MOL0     C49035   8.459   6.948   1.677 -0.7776 -1.0002 -0.0097
  372MOL0     C49036   8.381   6.946   1.767 -0.2286 -0.3061  0.1520
  372MOL0     C49037   8.281   6.388   1.515  0.1183  0.4288 -0.7793
  372MOL0     C49038   8.210   6.280   1.450 -0.0863 -0.0457 -0.1694
  372MOL0     H49039   7.644   6.115   1.395 -0.6866 -0.4265  0.0568
  372MOL0     H49040   7.510   5.922   1.315  1.1663  0.5010 -2.8670
  372MOL0     H49041   7.749   5.643   1.127 -0.0044  0.5391  1.4608
  372MOL0     H49042   7.604   5.733   1.072  1.1986  0.5256 -1.1025
  372MOL0     H49043   7.472   5.513   1.121 -0.5977  3.6315 -1.4641
  372MOL0     H49044   7.634   5.448   1.152  2.4336 -0.9986 -3.2654
  372MOL0     H49045   7.627   5.590   0.889  0.8758 -0.5418 -0.3035
  372MOL0     H49046   7.513   5.451   0.899 -1.2177  0.5236  0.2434
  372MOL0     H49047   7.776   5.392   1.029 -0.7644  4.7360  0.1784
  372MOL0     H49048   7.686   5.293   0.919 -1.3292  0.3544  1.4107
  372MOL0     H49049   7.871   5.529   0.864  0.4288  0.7512  0.4758
  372MOL0     H49050   7.770   5.459   0.742  0.0445  1.2213  1.3452
  372MOL0     H49051   7.962   5.370   0.708  1.0399  1.5162  1.2160
  372MOL0     H49052   7.850   5.232   0.770  3.0357 -3.4112  0.6202
  372MOL0     H49053   7.971   5.264   1.006 -2.1347 -2.2994 -0.7005
  372MOL0     H49054   8.045   5.173   0.883 -1.1121 -1.0270  1.5451
  372MOL0     H49055   8.192   5.349   1.010  0.8153 -1.2225 -0.7127
  372MOL0     H49056   8.101   5.475   0.920 -2.0124 -0.5720  1.9832
  372MOL0     H49057   8.305   5.146   0.844  1.4320 -0.8052 -1.6261
  372MOL0     H49058   8.398   5.154   0.458  3.3500  0.3024 -0.7697
  372MOL0     H49059   8.341   5.036   0.580  0.9792  0.3013  1.0832
  372MOL0     H49060   8.589   5.015   0.566  1.8302  1.3306 -2.1397
  372MOL0     H49061   8.537   5.072   0.721  0.9633 -3.2413 -1.5530
  372MOL0     H49062   8.627   5.261   0.500  0.2709 -0.2442  0.5537
  372MOL0     H49063   8.608   5.307   0.675  1.3800  0.0243  0.0876
  372MOL0     H49064   8.777   5.158   0.738 -4.0262  0.0903 -0.7567
  372MOL0     H49065   8.834   5.283   0.623 -0.1805  1.1746  1.2890
  372MOL0     H49066   8.966   5.077   0.788 -3.2353 -0.1349 -1.5943
  372MOL0     H49067   9.147   4.929   0.852 -1.9148  0.8890  0.9303
  372MOL0     H49068   9.531   4.871   0.917  1.2908 -0.3240  1.4823
  372MOL0     H49069   9.752   4.731   1.005 -1.2669 -2.6654  2.4060
  372MOL0     H49070   9.922   4.592   1.059  3.8954 -0.4861  0.9733
  372MOL0     H49071   9.927   4.638   0.887  0.6104  0.7347  0.4950
  372MOL0     H49072  10.017   4.393   0.862  0.3807  3.6239 -3.2574
  372MOL0     H49073  10.058   4.403   1.039  2.9336  0.6237  0.1915
  372MOL0     H49074  10.186   4.621   0.965 -0.7741  0.3621  0.2505
  372MOL0     H49075  10.163   4.560   0.797  4.1608 -4.5639 -1.3928
  372MOL0     H49076  10.286   4.336   0.934  2.4867  0.0528 -0.8020
  372MOL0     H49077  10.381   4.466   0.881  2.3338 -0.6115  2.8257
  372MOL0     H49078  10.257   4.495   1.161  0.7779  1.7377 -0.4761
  372MOL0     H49079  10.380   4.586   1.094 -0.0932  0.4464  1.1494
  372MOL0     H49080  10.411   4.278   1.133  0.6794 -0.7753 -1.9201
  372MOL0     H49081  10.442   4.391   1.258  0.6102 -3.6052  0.2552
  372MOL0     H49082  10.630   4.313   1.156 -3.4940 -1.7711  1.1627
  372MOL0     H49083  10.578   4.375   0.992 -0.5532  0.3816  0.1663
  372MOL0     H49084  10.589   4.605   1.120 -4.2808 -2.3896  1.2574
  372MOL0     H49085  10.748   4.525   1.094  0.3896 -2.4479 -0.1762
  372MOL0     H49086   9.586   4.379   0.844  0.5255  0.1193  0.3919
  372MOL0     H49087   9.400   4.499   0.737  1.5721  0.5744 -3.4749
  372MOL0     H49088   9.154   4.800   0.433 -0.3727  2.4582 -1.9216
  372MOL0     H49089   8.943   4.924   0.402  0.0028 -0.3709 -0.1368
  372MOL0     H49090   7.844   5.666   1.382  0.4605  0.9392 -2.3861
  372MOL0     H49091   7.958   5.879   1.499 -1.3958  1.8824  1.7377
  372MOL0     H49092   7.911   6.321   1.597 -0.4885  4.2866  1.7963
  372MOL0     H49093   8.043   6.525   1.700 -0.8829 -0.7989  0.9682
  372MOL0     H49094   8.270   6.770   1.633 -0.5889  0.0065  0.4509
  372MOL0     H49095   8.236   6.688   1.478 -0.7461 -0.8823 -0.2194
  372MOL0     H49096   8.489   6.651   1.625  2.7217  0.4163 -0.4151
  372MOL0     H49097   8.463   6.610   1.454  0.6750 -0.3032  0.1857
  372MOL0     H49098   8.443   6.863   1.405  2.5930  1.6985 -0.9556
  372MOL0     H49099   8.603   6.789   1.430 -0.1021  0.2269 -0.6025
  372MOL0     H49100   8.659   6.899   1.622  0.0577  0.0211 -0.3817
  372MOL0     H49101   8.589   7.019   1.519 -1.4999  1.0255  0.6275
  372MOL0     H49102   8.318   6.960   1.852  1.3525  3.5859  0.8884
  372MOL0     H49103   8.386   6.405   1.494  0.5917 -0.0402  1.0166
  372MOL0     H49104   8.274   6.219   1.387 -1.4380 -2.1269  0.3332
  373MOL0     O49105   6.072   5.905   3.348  0.6815  0.1172 -0.3976
  373MOL0     C49106   6.108   5.840   3.443  0.3985 -0.0737  0.3823
  373MOL0     O49107   6.236   5.835   3.488 -0.1894  0.3447  0.2792
  373MOL0     C49108   6.328   5.918   3.418  0.0938  1.5329  0.1484
  373MOL0     C49109   6.336   6.061   3.431  0.5723  1.2862 -0.5366
  373MOL0     C49110   6.420   6.136   3.352  0.0925 -0.0086  0.6413
  373MOL0     C49111   6.507   6.065   3.255  0.0233 -0.5946  0.0781
  373MOL0     O49112   6.596   6.129   3.173  0.5126  0.8697 -0.4658
  373MOL0     C49113   6.619   6.267   3.185 -0.1179  0.3621  0.4449
  373MOL0     C49114   6.735   6.313   3.091 -0.3014 -0.1442 -0.1835
  373MOL0     C49115   6.783   6.453   3.137 -0.5303 -0.6805 -0.0600
  373MOL0     C49116   6.924   6.485   3.079  0.5787 -1.0109 -0.0419
  373MOL0     C49117   7.039   6.522   3.184  0.4313  0.8666 -0.2370
  373MOL0     C49118   7.015   6.644   3.259 -0.3405 -0.2850  0.2877
  373MOL0     C49119   7.141   6.678   3.343  0.6456 -1.2047 -0.7666
  373MOL0     C49120   7.146   6.822   3.381  0.0661  0.5700 -0.4099
  373MOL0     N49121   7.210   6.901   3.270  0.5213 -0.1906  1.2867
  373MOL0     C49122   7.346   6.923   3.271  0.0002  0.3034  0.3443
  373MOL0     C49123   7.370   7.014   3.177  0.3961 -0.7594  0.0530
  373MOL0     C49124   7.500   7.082   3.143 -0.0631 -0.4853  0.0253
  373MOL0     C49125   7.524   7.220   3.215  0.0295  0.5953  0.5932
  373MOL0     C49126   7.488   7.348   3.128  0.0217  0.8890 -0.3104
  373MOL0     C49127   7.550   7.475   3.187  0.4837  0.2973  0.1057
  373MOL0     O49128   7.492   7.512   3.307  0.1419  0.4243 -0.0256
  373MOL0     C49129   7.360   7.546   3.330 -0.2130  0.6321 -1.0290
  373MOL0     C49130   7.280   7.607   3.237  1.3323  0.0924  0.0140
  373MOL0     C49131   7.144   7.657   3.263 -0.7029  0.7143 -0.0056
  373MOL0     C49132   7.089   7.643   3.394 -0.9304 -0.1125  0.3597
  373MOL0     C49133   6.951   7.683   3.413 -0.1178 -0.7364  0.2847
  373MOL0     O49134   6.895   7.626   3.523 -0.3886  0.3981  0.8419
  373MOL0     C49135   6.762   7.648   3.544  0.2688  0.1184 -0.1716
  373MOL0     C49136   6.662   7.635   3.441  0.0226  0.3675 -0.5925
  373MOL0     C49137   6.534   7.670   3.474 -0.2856  0.5260 -0.5348
  373MOL0     C49138   6.497   7.718   3.601  0.1376 -0.4101  0.2693
  373MOL0     O49139   6.362   7.743   3.621  0.0386 -0.9301  0.2056
  373MOL0     C49140   6.336   7.848   3.725 -0.0700  0.2430 -0.2137
  373MOL0     C49141   6.192   7.889   3.709 -0.2979 -0.4407 -0.7831
  373MOL0     C49142   6.169   8.021   3.784 -0.4126  1.5144 -0.4269
  373MOL0     C49143   6.012   8.050   3.806  0.0778  0.0681 -0.8367
  373MOL0     C49144   5.943   8.087   3.667 -0.6295 -0.3526  0.3570
  373MOL0     C49145   5.804   8.144   3.694  0.4638  0.3313  0.3787
  373MOL0     C49146   5.816   8.285   3.747  0.7921 -0.8907 -0.3942
  373MOL0     C49147   5.671   8.323   3.798 -0.8781  0.0892  0.4257
  373MOL0    Cl49148   5.627   8.211   3.920 -0.1307 -0.1820  0.0974
  373MOL0     C49149   6.588   7.719   3.706 -0.7589  0.1229 -0.1425
  373MOL0     C49150   6.720   7.680   3.678  0.9708  0.6191  0.6609
  373MOL0     O49151   6.898   7.770   3.331 -0.2913 -0.0260 -0.4922
  373MOL0     C49152   7.177   7.583   3.497  0.7776 -0.1892  0.6841
  373MOL0     C49153   7.314   7.551   3.464  0.5470  0.3446 -0.3705
  373MOL0     N49154   7.247   7.032   3.107  0.5012 -0.1621 -0.0005
  373MOL0     N49155   7.154   6.958   3.164  0.2247  0.3845  0.3888
  373MOL0     C49156   6.515   5.926   3.255 -0.3038  0.4668  0.1539
  373MOL0     C49157   6.424   5.852   3.331 -0.5042  0.7974  0.6587
  373MOL0     C49158   6.008   5.739   3.505  0.4977 -0.6180 -0.0580
  373MOL0     C49159   6.048   5.669   3.622  0.3345  0.0448  0.5754
  373MOL0     C49160   5.958   5.586   3.685 -0.2281 -0.2145  0.7613
  373MOL0     C49161   5.834   5.561   3.633  0.2976  0.0291  0.3994
  373MOL0     O49162   5.742   5.481   3.696 -0.0857  0.0650  0.6497
  373MOL0     C49163   5.726   5.490   3.836  0.4597  0.3756 -0.1677
  373MOL0     C49164   5.701   5.629   3.898  0.4117  0.1380  0.5488
  373MOL0     C49165   5.563   5.686   3.839  0.2835 -0.1091 -0.5264
  373MOL0     C49166   5.496   5.771   3.958  0.1390  0.0293  0.0744
  373MOL0     C49167   5.370   5.834   3.914 -0.2569  0.2948  1.3984
  373MOL0     C49168   5.260   5.881   3.885 -0.1832  0.1576  0.4226
  373MOL0     C49169   5.810   5.610   3.503 -0.2758  0.5777 -0.1320
  373MOL0     C49170   5.890   5.699   3.443  0.1052 -0.8260  0.9581
  373MOL0     H49171   6.257   6.115   3.482 -0.3008  2.4959 -2.9787
  373MOL0     H49172   6.421   6.244   3.343 -0.6004  0.3676  3.9668
  373MOL0     H49173   6.628   6.306   3.287  1.0880  1.5360 -0.0670
  373MOL0     H49174   6.528   6.317   3.154  0.7320  1.2299 -0.7478
  373MOL0     H49175   6.704   6.329   2.988 -0.4285  3.2737  0.2667
  373MOL0     H49176   6.807   6.232   3.078  0.0273  0.2299 -0.7303
  373MOL0     H49177   6.797   6.450   3.246  1.1716  1.4593 -0.1398
  373MOL0     H49178   6.710   6.531   3.113  0.0379  0.0562  0.5355
  373MOL0     H49179   6.962   6.401   3.020 -0.4851 -1.7226  0.2507
  373MOL0     H49180   6.905   6.564   3.006  1.2632  1.4946  2.3011
  373MOL0     H49181   7.138   6.523   3.137  0.2446 -1.3465 -0.7951
  373MOL0     H49182   7.048   6.436   3.251  2.7891  2.3069  1.4321
  373MOL0     H49183   6.935   6.635   3.333  0.5420  0.2998  1.3515
  373MOL0     H49184   6.983   6.719   3.185 -1.5037 -0.9521  0.0951
  373MOL0     H49185   7.132   6.621   3.436  0.0080  2.9741  1.9989
  373MOL0     H49186   7.235   6.653   3.294  0.5466 -3.9517  0.2284
  373MOL0     H49187   7.194   6.848   3.476  2.6685 -1.8060 -0.9478
  373MOL0     H49188   7.042   6.856   3.386  0.0084  0.2421  1.0417
  373MOL0     H49189   7.411   6.869   3.339  3.2510  0.2650 -2.5319
  373MOL0     H49190   7.521   7.106   3.038 -1.5351  1.5837  0.1377
  373MOL0     H49191   7.587   7.021   3.170  1.9417  1.6025 -1.2679
  373MOL0     H49192   7.628   7.220   3.246 -0.3834  1.3891  2.0630
  373MOL0     H49193   7.457   7.226   3.301  0.5457  4.2066  0.9034
  373MOL0     H49194   7.529   7.324   3.029  0.7851  1.3987 -0.1239
  373MOL0     H49195   7.381   7.361   3.109 -0.4183 -0.0494  1.3905
  373MOL0     H49196   7.535   7.550   3.108 -1.6212  0.2078  0.3624
  373MOL0     H49197   7.657   7.477   3.210 -0.0963  2.1202  3.3185
  373MOL0     H49198   7.316   7.618   3.135 -1.5649 -2.8000 -1.5273
  373MOL0     H49199   7.088   7.714   3.189 -1.7143  1.8349  1.5517
  373MOL0     H49200   6.684   7.596   3.342 -0.8194 -1.5389 -0.0709
  373MOL0     H49201   6.456   7.665   3.399  1.7130  1.2556 -2.7851
  373MOL0     H49202   6.390   7.935   3.688  2.3917 -0.8316  0.6665
  373MOL0     H49203   6.363   7.819   3.827 -0.9351  3.7355  1.1208
  373MOL0     H49204   6.135   7.804   3.749  0.5325 -2.3680 -3.3810
  373MOL0     H49205   6.164   7.906   3.605 -1.4498  1.0521 -0.2575
  373MOL0     H49206   6.213   8.105   3.729  1.6486  1.1958  0.6514
  373MOL0     H49207   6.216   8.018   3.883 -0.0688  1.5391 -0.5865
  373MOL0     H49208   5.960   7.970   3.860 -3.6743  1.4884 -2.0242
  373MOL0     H49209   6.012   8.132   3.879  0.4821 -2.0791  1.7498
  373MOL0     H49210   5.926   7.993   3.615 -3.3926 -0.3816  1.1372
  373MOL0     H49211   6.001   8.154   3.603 -1.6531 -2.4965 -3.1011
  373MOL0     H49212   5.767   8.077   3.772 -0.2512  0.2637 -0.0140
  373MOL0     H49213   5.738   8.146   3.607 -0.0546 -2.3610  0.6299
  373MOL0     H49214   5.880   8.293   3.836  1.4745 -0.1986 -0.9354
  373MOL0     H49215   5.846   8.359   3.672 -3.8468  1.9386  0.1432
  373MOL0     H49216   5.592   8.310   3.724 -0.7379  0.6892  0.1687
  373MOL0     H49217   5.658   8.424   3.838 -4.1977 -0.4086  0.8575
  373MOL0     H49218   6.573   7.743   3.811  0.9411  0.1197  0.1250
  373MOL0     H49219   6.799   7.687   3.752  1.4343  1.8296  0.0886
  373MOL0     H49220   7.147   7.570   3.601 -0.9955 -1.3835  0.0590
  373MOL0     H49221   7.370   7.511   3.548 -0.9504 -0.4460  0.2885
  373MOL0     H49222   6.594   5.886   3.193  1.0943  0.4445  1.8621
  373MOL0     H49223   6.417   5.743   3.328  0.7667  0.7004  0.6140
  373MOL0     H49224   6.150   5.683   3.658 -0.3150  1.8364  1.8463
  373MOL0     H49225   5.990   5.529   3.772  4.2616  0.5895 -0.1095
  373MOL0     H49226   5.820   5.459   3.883 -0.1935  0.9791  1.6459
  373MOL0     H49227   5.650   5.419   3.869  0.3173  0.6305  0.0628
  373MOL0     H49228   5.688   5.619   4.006  1.3199  3.5945  1.0917
  373MOL0     H49229   5.788   5.688   3.868 -0.0796  0.0458 -1.1482
  373MOL0     H49230   5.501   5.596   3.828 -1.6520  1.0158  0.7300
  373MOL0     H49231   5.580   5.730   3.740  2.6584 -1.1169 -0.6413
  373MOL0     H49232   5.473   5.699   4.037 -2.8156  0.0376 -0.6478
  373MOL0     H49233   5.561   5.849   4.000  1.6611 -2.1030  1.8679
  373MOL0     H49234   5.166   5.927   3.863 -0.7151 -0.2422  1.7844
  373MOL0     H49235   5.713   5.590   3.460 -1.8821  0.8860  3.0706
  373MOL0     H49236   5.865   5.722   3.340  2.0281 -1.3779  0.3084
  374MOL0     O49237   3.915   5.588   4.776 -0.3616  0.1630  0.5936
  374MOL0     C49238   3.972   5.690   4.798 -0.1000 -0.0755  0.8914
  374MOL0     O49239   3.943   5.792   4.882  0.2506  0.1296 -0.1742
  374MOL0     C49240   3.823   5.779   4.948 -0.6209 -0.3397  0.1455
  374MOL0     C49241   3.820   5.817   5.083  1.3037  0.0039 -0.5723
  374MOL0     C49242   3.700   5.796   5.156  0.4378 -0.3760  0.6026
  374MOL0     C49243   3.588   5.739   5.097  0.1005 -0.1577 -0.3168
  374MOL0     O49244   3.471   5.728   5.168 -0.6377  0.1166 -0.0156
  374MOL0     C49245   3.419   5.847   5.239 -0.4894  0.5255  0.2663
  374MOL0     C49246   3.270   5.878   5.215  1.4869 -0.2969 -0.3319
  374MOL0     C49247   3.231   6.031   5.195  0.5722 -0.3841 -0.4852
  374MOL0     C49248   3.214   6.076   5.340 -0.3543 -0.3717  0.7383
  374MOL0     C49249   3.198   6.233   5.346  0.4086 -0.1695  0.4111
  374MOL0     C49250   3.334   6.308   5.342 -0.4351  0.3162  0.4591
  374MOL0     C49251   3.310   6.458   5.371 -0.5893 -0.1400  0.4494
  374MOL0     C49252   3.305   6.505   5.512 -0.3424  0.5171  1.6773
  374MOL0     N49253   3.449   6.498   5.556  0.2873 -0.3116 -0.3219
  374MOL0     C49254   3.488   6.412   5.653  0.0764  0.2425 -0.4518
  374MOL0     C49255   3.626   6.432   5.663  0.5610  0.1961  0.5251
  374MOL0     C49256   3.704   6.355   5.759 -1.0546 -0.1134 -0.4788
  374MOL0     C49257   3.843   6.412   5.787 -0.2483 -0.6929 -0.0893
  374MOL0     C49258   3.914   6.337   5.908 -0.0585 -0.2294  1.1358
  374MOL0     C49259   4.065   6.324   5.886  0.2236  0.1172  0.3517
  374MOL0     O49260   4.088   6.211   5.798 -0.1313 -1.3815 -0.2297
  374MOL0     C49261   4.198   6.206   5.721 -0.3092 -0.0562  1.1772
  374MOL0     C49262   4.328   6.270   5.745 -0.0301  0.5434 -0.1846
  374MOL0     C49263   4.425   6.258   5.652 -0.3883  0.2496 -0.7525
  374MOL0     C49264   4.411   6.191   5.527  0.1372  0.3444  0.5475
  374MOL0     C49265   4.521   6.196   5.421  0.3138 -0.4418 -0.5432
  374MOL0     O49266   4.639   6.257   5.468 -0.5005  0.1201  0.3773
  374MOL0     C49267   4.734   6.270   5.375  0.9117 -0.2953 -0.2392
  374MOL0     C49268   4.753   6.394   5.311 -0.4751  0.1889 -0.2326
  374MOL0     C49269   4.825   6.386   5.193  0.0254  0.0995 -0.1744
  374MOL0     C49270   4.876   6.264   5.148 -0.3554  0.8235 -0.0937
  374MOL0     O49271   4.930   6.249   5.021 -0.0815  0.2911  0.1614
  374MOL0     C49272   4.905   6.350   4.919  0.1641  0.0067 -1.2239
  374MOL0     C49273   5.025   6.460   4.918 -0.2727 -0.9303  0.9497
  374MOL0     C49274   5.125   6.431   4.800 -0.7548  0.0656 -1.0571
  374MOL0     C49275   5.259   6.505   4.822  0.0996  0.3146 -0.1687
  374MOL0     C49276   5.230   6.667   4.821  0.1092  0.3185 -1.0809
  374MOL0     C49277   5.361   6.747   4.833 -0.4420  0.3138 -1.0186
  374MOL0     C49278   5.438   6.730   4.969  0.3404  0.0183  0.0194
  374MOL0     C49279   5.572   6.816   4.967 -0.4823 -0.6942 -0.6909
  374MOL0    Cl49280   5.704   6.749   5.083  0.3306 -0.5211 -0.6024
  374MOL0     C49281   4.875   6.153   5.229  0.0954 -0.0427  0.1241
  374MOL0     C49282   4.803   6.159   5.345  0.5421  0.3681  0.0905
  374MOL0     O49283   4.504   6.159   5.306  0.7572  0.7187  0.1111
  374MOL0     C49284   4.290   6.118   5.509  0.4865  0.7807 -0.6369
  374MOL0     C49285   4.189   6.124   5.604  0.2726  0.4933  0.3378
  374MOL0     N49286   3.664   6.505   5.560  0.1994  0.3066 -0.7884
  374MOL0     N49287   3.558   6.543   5.491 -0.1744  0.6159  0.5098
  374MOL0     C49288   3.586   5.712   4.960 -0.0397  0.7450  0.0962
  374MOL0     C49289   3.699   5.736   4.888  0.3385 -0.7346 -0.5148
  374MOL0     C49290   4.095   5.717   4.711 -0.0474  0.0990 -0.4561
  374MOL0     C49291   4.179   5.833   4.714  0.8340 -0.8741 -0.3451
  374MOL0     C49292   4.292   5.860   4.630  0.4057 -0.3637 -0.1781
  374MOL0     C49293   4.317   5.767   4.532  0.7152  0.1002 -0.5230
  374MOL0     O49294   4.435   5.781   4.454 -0.1951  0.8318 -1.2045
  374MOL0     C49295   4.433   5.729   4.320 -0.5890 -0.6248  0.0123
  374MOL0     C49296   4.517   5.810   4.214  0.6833 -0.7339  0.6928
  374MOL0     C49297   4.666   5.796   4.235 -0.0226  0.3997  1.3099
  374MOL0     C49298   4.758   5.822   4.120  0.7453 -0.3291 -0.4005
  374MOL0     C49299   4.899   5.803   4.146 -0.2459  0.0482  0.6522
  374MOL0     C49300   5.014   5.806   4.143 -0.1997  0.5372 -0.0891
  374MOL0     C49301   4.250   5.641   4.519  0.2110 -0.0239  0.2037
  374MOL0     C49302   4.133   5.621   4.602  0.7751  0.3230 -0.3918
  374MOL0     H49303   3.913   5.841   5.133  1.0760  0.1936 -0.2416
  374MOL0     H49304   3.685   5.841   5.253  1.5706  1.6099 -0.0902
  374MOL0     H49305   3.481   5.934   5.216 -0.3131  1.1137  2.6951
  374MOL0     H49306   3.443   5.836   5.345  2.9907  2.0287 -0.2238
  374MOL0     H49307   3.202   5.843   5.294 -0.0441 -0.0126 -1.4877
  374MOL0     H49308   3.249   5.831   5.118 -1.9126  0.9725 -0.3410
  374MOL0     H49309   3.140   6.037   5.136 -1.1015 -1.7873  1.8151
  374MOL0     H49310   3.316   6.087   5.154 -1.4137  1.3596 -2.5045
  374MOL0     H49311   3.122   6.025   5.371  0.2526 -2.4894 -0.7612
  374MOL0     H49312   3.310   6.053   5.385  1.2000  1.9963 -1.1172
  374MOL0     H49313   3.167   6.259   5.447  1.1715 -1.1372  0.9222
  374MOL0     H49314   3.121   6.266   5.276  1.3415  1.2378  0.0179
  374MOL0     H49315   3.372   6.302   5.240 -2.9762 -0.5096 -0.5158
  374MOL0     H49316   3.396   6.248   5.409 -1.8592 -1.1555  0.5105
  374MOL0     H49317   3.386   6.526   5.333  0.0035  1.4213  3.9944
  374MOL0     H49318   3.213   6.486   5.330  0.3852  2.1170 -0.4540
  374MOL0     H49319   3.247   6.431   5.568  2.3536 -2.7303  0.4932
  374MOL0     H49320   3.265   6.604   5.536 -0.4755  0.1257  3.1770
  374MOL0     H49321   3.443   6.346   5.726  2.1414 -2.7932 -1.6974
  374MOL0     H49322   3.719   6.255   5.719  2.2651  0.4365 -0.9230
  374MOL0     H49323   3.654   6.353   5.856  2.3897  1.8028  1.5538
  374MOL0     H49324   3.832   6.515   5.821  1.9835 -0.4040 -0.0671
  374MOL0     H49325   3.906   6.409   5.698 -0.0660  1.9858 -0.1237
  374MOL0     H49326   3.906   6.412   5.986  2.7382 -1.0091  2.3011
  374MOL0     H49327   3.876   6.240   5.940  2.1489 -2.6126 -2.6164
  374MOL0     H49328   4.108   6.310   5.985 -1.0121  2.1247  1.2321
  374MOL0     H49329   4.111   6.414   5.845  0.1668 -0.8123 -1.9319
  374MOL0     H49330   4.353   6.324   5.836 -1.2964  0.4701  0.2278
  374MOL0     H49331   4.518   6.301   5.688 -1.9868  0.9032  3.0419
  374MOL0     H49332   4.720   6.490   5.348  2.6895  0.7823  1.3943
  374MOL0     H49333   4.848   6.479   5.141  0.6392  1.3394  2.1772
  374MOL0     H49334   4.808   6.393   4.945  1.4001  0.4609  3.5314
  374MOL0     H49335   4.907   6.307   4.818  0.0387  1.0144 -1.6666
  374MOL0     H49336   5.072   6.467   5.017  2.3172  0.4723 -0.2718
  374MOL0     H49337   4.977   6.557   4.902  0.5411 -0.5790  0.5607
  374MOL0     H49338   5.075   6.466   4.709 -1.3719  3.1404  0.3219
  374MOL0     H49339   5.154   6.326   4.798 -0.2661  0.1693 -0.0512
  374MOL0     H49340   5.316   6.471   4.909  1.4342 -0.4146 -1.2987
  374MOL0     H49341   5.314   6.460   4.739  0.5535 -0.3592  0.4811
  374MOL0     H49342   5.169   6.705   4.903  1.6693 -0.5234  0.5593
  374MOL0     H49343   5.188   6.697   4.725 -0.7689 -0.3072 -0.9069
  374MOL0     H49344   5.349   6.853   4.808  1.2514  1.3538  1.9061
  374MOL0     H49345   5.424   6.703   4.755  1.2746 -1.7895  1.3554
  374MOL0     H49346   5.379   6.762   5.055 -0.2600 -0.3596 -0.2409
  374MOL0     H49347   5.467   6.625   4.972  1.2394  0.0626 -3.0986
  374MOL0     H49348   5.544   6.919   4.993  3.6259  0.1353  1.3176
  374MOL0     H49349   5.618   6.811   4.868 -0.2565  1.9953 -0.7945
  374MOL0     H49350   4.916   6.057   5.200  1.2812 -0.3051  2.4525
  374MOL0     H49351   4.801   6.074   5.412  1.7601 -0.0333 -0.3663
  374MOL0     H49352   4.270   6.064   5.418  1.1405 -0.5093 -0.0433
  374MOL0     H49353   4.107   6.056   5.581  0.1575  0.7378  0.0060
  374MOL0     H49354   3.494   5.668   4.922  0.8548 -0.3773 -0.8559
  374MOL0     H49355   3.693   5.708   4.783 -2.0369  1.0853 -0.9702
  374MOL0     H49356   4.144   5.913   4.779 -0.3821 -0.0333 -1.9479
  374MOL0     H49357   4.367   5.938   4.643  0.6372 -0.7921  1.2424
  374MOL0     H49358   4.329   5.727   4.287  0.1193 -0.6733 -2.4447
  374MOL0     H49359   4.475   5.628   4.323  0.9617 -0.0068  0.2090
  374MOL0     H49360   4.493   5.757   4.121 -3.5745  0.6297  0.8135
  374MOL0     H49361   4.498   5.917   4.215  1.9056 -0.4954  0.5326
  374MOL0     H49362   4.695   5.696   4.269 -1.2609 -0.4057  0.1352
  374MOL0     H49363   4.684   5.866   4.317 -3.3440  0.2309  2.3324
  374MOL0     H49364   4.733   5.751   4.041 -0.7875  2.1554 -2.3077
  374MOL0     H49365   4.746   5.920   4.074  0.8115 -0.2275 -0.2017
  374MOL0     H49366   5.119   5.824   4.153 -0.1771  3.0693 -3.2423
  374MOL0     H49367   4.286   5.581   4.436  0.3507 -2.1699  1.7637
  374MOL0     H49368   4.074   5.531   4.596  0.7244  0.4280 -1.8920
  375MOL0     O49369   9.612   5.979   4.837 -0.2791  0.4249 -0.1609
  375MOL0     C49370   9.664   5.905   4.918 -0.1103  0.3408 -0.2917
  375MOL0     O49371   9.602   5.805   4.987 -0.5769  0.0044 -0.1346
  375MOL0     C49372   9.474   5.763   4.971  0.7634 -0.2741 -0.0666
  375MOL0     C49373   9.451   5.621   4.991 -0.7032 -1.3194  0.2892
  375MOL0     C49374   9.330   5.568   4.966  0.8687  0.3651 -0.6469
  375MOL0     C49375   9.213   5.642   4.938  0.3679 -0.8224 -0.1751
  375MOL0     O49376   9.084   5.598   4.913 -0.5896 -0.3787  1.3604
  375MOL0     C49377   9.057   5.464   4.954 -0.8780  0.2162 -0.9953
  375MOL0     C49378   8.896   5.442   4.951 -0.3763  0.1543 -0.2210
  375MOL0     C49379   8.862   5.332   5.052  0.0544  0.5724 -0.1016
  375MOL0     C49380   8.722   5.283   5.041 -0.2843  0.1156 -0.2669
  375MOL0     C49381   8.672   5.216   5.171  0.1092  0.8527  0.0914
  375MOL0     C49382   8.538   5.141   5.171 -0.5702 -0.3137  0.6740
  375MOL0     C49383   8.504   5.076   5.316  0.3169  0.1890 -0.2577
  375MOL0     C49384   8.508   4.923   5.320 -0.3897  0.2129  0.3556
  375MOL0     N49385   8.648   4.884   5.291 -0.0822 -0.0154  0.0316
  375MOL0     C49386   8.691   4.832   5.168 -0.3505  0.5984 -0.3771
  375MOL0     C49387   8.817   4.788   5.200  0.3751  0.2033 -0.7084
  375MOL0     C49388   8.911   4.728   5.099  0.3878 -0.2611 -0.6344
  375MOL0     C49389   9.007   4.823   5.026  0.4146 -0.5200  0.1915
  375MOL0     C49390   8.952   4.913   4.922  0.7388 -0.1256  0.2644
  375MOL0     C49391   9.065   4.992   4.850 -0.2664 -0.0975  0.2315
  375MOL0     O49392   9.111   5.092   4.946  0.8798 -0.1422  0.2476
  375MOL0     C49393   9.242   5.126   4.946 -0.2168  0.2773 -0.1506
  375MOL0     C49394   9.318   5.131   5.062  0.4756  0.3657 -0.1601
  375MOL0     C49395   9.450   5.178   5.065  0.3033 -0.0576  0.2951
  375MOL0     C49396   9.508   5.222   4.946  0.6441 -0.2383  0.1728
  375MOL0     C49397   9.640   5.291   4.949 -0.2374  0.2192  0.0755
  375MOL0     O49398   9.708   5.318   4.830 -0.1989 -0.2934 -0.3037
  375MOL0     C49399   9.840   5.377   4.837 -0.0808  0.0408  0.2717
  375MOL0     C49400   9.860   5.512   4.866 -0.9356 -0.4151 -0.2416
  375MOL0     C49401   9.993   5.560   4.852 -0.8655 -0.4149  0.1235
  375MOL0     C49402  10.092   5.484   4.802  0.4465  0.5408  0.4509
  375MOL0     O49403  10.220   5.522   4.783 -0.0900 -0.6642  0.1944
  375MOL0     C49404  10.265   5.665   4.796 -0.3294 -0.6729  0.1561
  375MOL0     C49405  10.412   5.680   4.752 -0.3572 -0.8302 -0.9384
  375MOL0     C49406  10.505   5.569   4.802 -1.2095 -0.8650  0.2702
  375MOL0     C49407  10.646   5.627   4.824 -0.1130 -0.1975 -0.0273
  375MOL0     C49408  10.757   5.518   4.838 -0.7789 -0.0697 -0.3057
  375MOL0     C49409  10.897   5.570   4.852  0.4028  0.3623 -0.7211
  375MOL0     C49410  10.998   5.454   4.877 -0.1345  0.2944 -0.2779
  375MOL0     C49411  11.139   5.522   4.870 -0.1643  0.2652 -0.6329
  375MOL0    Cl49412  11.179   5.632   5.001  0.1254  0.4011  0.0845
  375MOL0     C49413  10.069   5.355   4.767 -0.5546  0.0483  0.4324
  375MOL0     C49414   9.951   5.296   4.795 -0.3805 -1.1109  0.9739
  375MOL0     O49415   9.675   5.324   5.062 -0.3432 -0.4108 -0.1916
  375MOL0     C49416   9.436   5.229   4.832  0.3623 -0.6186 -0.0041
  375MOL0     C49417   9.302   5.187   4.835 -0.1316 -0.5775  0.2504
  375MOL0     N49418   8.839   4.806   5.341  1.1895 -0.2498  0.2376
  375MOL0     N49419   8.737   4.866   5.388 -0.1288  0.8333 -0.3022
  375MOL0     C49420   9.228   5.777   4.913 -0.0283 -0.9027  0.6824
  375MOL0     C49421   9.357   5.842   4.928 -0.0831  0.4875  0.4371
  375MOL0     C49422   9.806   5.928   4.945  0.6087 -0.0687 -0.2360
  375MOL0     C49423   9.868   5.835   5.025  0.2723 -0.6138  0.6935
  375MOL0     C49424  10.006   5.837   5.042 -0.6434 -0.4849 -0.2312
  375MOL0     C49425  10.082   5.942   4.998  0.1641  0.0473  0.3559
  375MOL0     O49426  10.216   5.936   5.033 -0.2157 -0.1165  0.0395
  375MOL0     C49427  10.263   6.016   5.141 -0.8272  0.1057 -0.4799
  375MOL0     C49428  10.411   5.975   5.173 -0.3363 -0.3862 -1.0738
  375MOL0     C49429  10.508   5.988   5.055 -0.4787 -0.5862 -0.3911
  375MOL0     C49430  10.646   5.929   5.091 -0.0802 -1.0105 -0.3241
  375MOL0     C49431  10.712   6.007   5.200  0.7341 -0.1893  0.3561
  375MOL0     C49432  10.768   6.085   5.274  0.2264 -0.3607  0.2166
  375MOL0     C49433  10.011   6.048   4.926  0.2836 -0.1338 -0.1430
  375MOL0     C49434   9.872   6.039   4.893 -0.9817 -1.0673 -0.0848
  375MOL0     H49435   9.528   5.553   5.027 -1.4535 -0.8804  2.9843
  375MOL0     H49436   9.341   5.460   4.968  5.3818  0.6426  2.0862
  375MOL0     H49437   9.092   5.458   5.057  2.3636 -5.0734 -2.0176
  375MOL0     H49438   9.124   5.398   4.898  0.4588  2.0659 -1.6820
  375MOL0     H49439   8.855   5.429   4.851 -0.8724 -0.8204  0.0977
  375MOL0     H49440   8.845   5.526   5.000 -3.4589 -1.2222 -0.8118
  375MOL0     H49441   8.892   5.366   5.151  2.0817  1.8972 -1.0882
  375MOL0     H49442   8.916   5.239   5.029 -1.4320 -0.4241  0.2260
  375MOL0     H49443   8.663   5.373   5.023  2.8461  1.8055 -3.0755
  375MOL0     H49444   8.709   5.212   4.960 -0.7114 -1.6138  1.2455
  375MOL0     H49445   8.666   5.301   5.239  0.2291  1.0136 -0.0950
  375MOL0     H49446   8.748   5.149   5.213 -2.4157  0.4039  4.5913
  375MOL0     H49447   8.528   5.080   5.081  0.6321  1.7585 -0.9588
  375MOL0     H49448   8.450   5.206   5.157 -2.5913 -2.8816  0.6781
  375MOL0     H49449   8.583   5.110   5.384  1.5237 -2.1183 -0.3815
  375MOL0     H49450   8.406   5.115   5.343  0.1347 -0.0529 -0.5662
  375MOL0     H49451   8.441   4.874   5.249 -0.1061 -0.6093  0.6422
  375MOL0     H49452   8.474   4.895   5.420 -0.0292 -0.9230  0.1680
  375MOL0     H49453   8.661   4.836   5.064 -1.8421  1.5536  0.0606
  375MOL0     H49454   8.861   4.665   5.025  0.3758 -2.7933  1.3792
  375MOL0     H49455   8.973   4.666   5.164 -2.5596 -0.2171  2.5069
  375MOL0     H49456   9.095   4.771   4.987 -0.2112  0.9657 -3.6251
  375MOL0     H49457   9.051   4.896   5.094 -0.0719  1.9480 -1.9859
  375MOL0     H49458   8.900   4.852   4.848 -0.3163 -0.2246  1.0700
  375MOL0     H49459   8.877   4.979   4.966  0.3373  2.6788 -3.9996
  375MOL0     H49460   9.027   5.043   4.761 -0.4863 -0.2317  0.2506
  375MOL0     H49461   9.138   4.920   4.812 -1.2436  0.1837 -2.3382
  375MOL0     H49462   9.278   5.075   5.146  2.9088 -0.7848  0.2939
  375MOL0     H49463   9.507   5.165   5.157  0.4251  1.5421  0.4698
  375MOL0     H49464   9.789   5.578   4.913 -0.3100 -0.7721  1.2698
  375MOL0     H49465  10.011   5.666   4.870 -1.4755 -0.0180 -1.4542
  375MOL0     H49466  10.265   5.689   4.903  2.2683  1.3727 -0.1968
  375MOL0     H49467  10.201   5.740   4.751  0.0665  0.2795  1.1528
  375MOL0     H49468  10.456   5.770   4.795 -0.0893 -1.3624 -0.0624
  375MOL0     H49469  10.412   5.696   4.644  0.4871  0.4317 -0.7765
  375MOL0     H49470  10.508   5.491   4.726 -0.5325  1.9834 -2.8704
  375MOL0     H49471  10.467   5.536   4.899 -3.3778  4.3360  1.5891
  375MOL0     H49472  10.669   5.698   4.744  1.0497 -1.8993 -1.2545
  375MOL0     H49473  10.639   5.676   4.922 -1.4023 -0.4734  0.0378
  375MOL0     H49474  10.765   5.454   4.749 -2.2529  2.0651 -2.0860
  375MOL0     H49475  10.738   5.461   4.930  0.4701 -1.6109 -0.9443
  375MOL0     H49476  10.913   5.645   4.930 -3.8161 -0.0788  0.8048
  375MOL0     H49477  10.916   5.609   4.752 -0.8767 -0.9626 -1.5160
  375MOL0     H49478  10.970   5.394   4.964  0.2961 -0.6301 -0.7500
  375MOL0     H49479  10.977   5.392   4.788 -1.4556  0.7079 -0.2854
  375MOL0     H49480  11.135   5.595   4.788 -0.4629  2.4405  1.2161
  375MOL0     H49481  11.218   5.447   4.860  2.1474  2.2587  1.2921
  375MOL0     H49482  10.145   5.291   4.725 -1.2471 -1.3387  1.1993
  375MOL0     H49483   9.937   5.195   4.759  0.7590 -0.4993 -1.3975
  375MOL0     H49484   9.485   5.257   4.739  1.7943  0.1482  0.9354
  375MOL0     H49485   9.230   5.199   4.754 -1.1257 -3.8305  0.5135
  375MOL0     H49486   9.142   5.831   4.873  1.5805  1.0342 -0.3443
  375MOL0     H49487   9.375   5.946   4.901  1.5114 -0.0823 -0.8318
  375MOL0     H49488   9.810   5.759   5.077 -6.1758  3.0612 -0.0289
  375MOL0     H49489  10.058   5.757   5.093  1.3175  2.5840  3.0334
  375MOL0     H49490  10.197   6.007   5.228  0.9101  2.3514  1.2135
  375MOL0     H49491  10.265   6.122   5.114  2.5759 -0.0469 -1.3396
  375MOL0     H49492  10.449   6.033   5.257 -1.9542  1.4569 -1.5467
  375MOL0     H49493  10.413   5.868   5.195 -0.8679  0.1573  1.9756
  375MOL0     H49494  10.516   6.094   5.030 -1.2512 -0.1775  0.9875
  375MOL0     H49495  10.458   5.928   4.979 -0.1665 -1.5418  0.1377
  375MOL0     H49496  10.651   5.829   5.136  1.8658 -0.2405  1.2910
  375MOL0     H49497  10.708   5.919   5.001 -0.4186 -2.2138 -0.4493
  375MOL0     H49498  10.813   6.139   5.355  0.3524  0.1348 -0.1783
  375MOL0     H49499  10.076   6.132   4.905 -1.3865  0.7890 -1.8947
  375MOL0     H49500   9.823   6.112   4.830  0.5175 -0.0975 -0.1777
  376MOL0     O49501   2.710   7.369   1.328  0.3796  0.8361 -0.7641
  376MOL0     C49502   2.691   7.292   1.235 -0.2558 -0.0635 -0.9956
  376MOL0     O49503   2.642   7.330   1.109 -0.2981 -0.6112  0.7381
  376MOL0     C49504   2.610   7.461   1.094  0.0980  0.1898  0.8867
  376MOL0     C49505   2.481   7.517   1.107 -1.4405  0.3285  0.7551
  376MOL0     C49506   2.442   7.642   1.070  0.4207 -0.0239  0.5583
  376MOL0     C49507   2.539   7.732   1.018 -1.3920 -0.0853  1.2404
  376MOL0     O49508   2.490   7.849   0.975  0.2053 -0.2870 -0.2295
  376MOL0     C49509   2.584   7.944   0.915  0.3768 -0.3557  0.8495
  376MOL0     C49510   2.662   8.016   1.023 -0.7253  0.5235 -0.1013
  376MOL0     C49511   2.752   8.127   0.970 -0.3055 -0.5536  0.0828
  376MOL0     C49512   2.839   8.190   1.070 -0.7425 -0.4656 -0.2967
  376MOL0     C49513   2.949   8.268   1.007  0.8227 -0.0439 -0.0432
  376MOL0     C49514   3.048   8.328   1.104 -0.5351  0.6538 -0.8290
  376MOL0     C49515   3.194   8.284   1.079  0.0193  0.5606  0.3308
  376MOL0     C49516   3.246   8.348   0.939 -0.3729  0.4734 -0.4307
  376MOL0     N49517   3.234   8.489   0.957 -0.4448 -0.2562  0.4613
  376MOL0     C49518   3.157   8.579   0.889  0.6032  0.0279 -0.1987
  376MOL0     C49519   3.170   8.695   0.953 -0.5240  0.2846 -0.5054
  376MOL0     C49520   3.081   8.817   0.918 -0.3882  0.3288 -0.7649
  376MOL0     C49521   2.967   8.863   1.027  0.5398  1.0419 -0.1748
  376MOL0     C49522   2.880   8.745   1.079  0.2047 -0.4749  0.7715
  376MOL0     C49523   2.786   8.680   0.970 -0.3740  0.0149  0.4358
  376MOL0     O49524   2.688   8.599   1.043 -0.4597 -0.4159  0.2307
  376MOL0     C49525   2.616   8.510   0.976  0.3949 -0.4875 -0.2044
  376MOL0     C49526   2.503   8.452   1.051 -0.5995 -0.9793  0.0877
  376MOL0     C49527   2.426   8.354   0.978  0.2082 -0.7229 -0.1020
  376MOL0     C49528   2.440   8.327   0.839 -0.2948 -0.4861  0.0081
  376MOL0     C49529   2.340   8.245   0.768 -0.1937  0.3192 -1.4387
  376MOL0     O49530   2.363   8.222   0.635  0.8914 -0.4411 -0.0124
  376MOL0     C49531   2.267   8.148   0.573 -0.5547 -0.1194 -0.4218
  376MOL0     C49532   2.164   8.214   0.515  0.6341  0.5032 -0.4821
  376MOL0     C49533   2.065   8.140   0.456  0.2504 -0.1869 -0.3709
  376MOL0     C49534   2.070   7.996   0.448 -1.4260 -0.3352 -0.1957
  376MOL0     O49535   1.971   7.922   0.389 -0.5126  0.5396  0.6184
  376MOL0     C49536   1.862   7.984   0.320 -0.4912  0.8406  0.7538
  376MOL0     C49537   1.769   7.869   0.280  0.1366  0.6720  0.1401
  376MOL0     C49538   1.692   7.809   0.393 -0.1872  0.4000  0.7591
  376MOL0     C49539   1.585   7.697   0.358  0.5333 -0.0163 -0.5413
  376MOL0     C49540   1.643   7.578   0.283 -0.7628 -0.0360  0.1995
  376MOL0     C49541   1.749   7.504   0.363  0.8801  0.1408 -0.0618
  376MOL0     C49542   1.770   7.366   0.302  0.2038 -0.5736 -0.5245
  376MOL0     C49543   1.875   7.292   0.383  0.4910  0.2510  0.4812
  376MOL0    Cl49544   1.808   7.276   0.550 -0.1004  0.4380 -0.1789
  376MOL0     C49545   2.194   7.931   0.502  0.4916 -0.9027 -0.1425
  376MOL0     C49546   2.291   8.018   0.556  0.5742 -1.1944  0.3615
  376MOL0     O49547   2.238   8.221   0.831 -0.2892  0.1973  0.1605
  376MOL0     C49548   2.546   8.390   0.771 -0.1662 -0.1750 -0.9715
  376MOL0     C49549   2.625   8.477   0.846 -0.5829 -0.3794 -0.0243
  376MOL0     N49550   3.244   8.676   1.063 -0.6259 -0.4281 -0.3913
  376MOL0     N49551   3.288   8.552   1.066 -0.3542  0.3135  0.3009
  376MOL0     C49552   2.673   7.686   1.008 -0.3062 -0.4696  0.1784
  376MOL0     C49553   2.704   7.556   1.046 -0.3638  0.9265 -0.7631
  376MOL0     C49554   2.697   7.140   1.267  0.5454 -0.1238  0.2730
  376MOL0     C49555   2.680   7.052   1.161 -0.8428  0.6270  0.3456
  376MOL0     C49556   2.690   6.916   1.179 -0.1620  0.2793 -0.8988
  376MOL0     C49557   2.704   6.866   1.309 -0.1959 -0.1418  0.0239
  376MOL0     O49558   2.738   6.738   1.355 -0.6111  0.0136  0.0316
  376MOL0     C49559   2.746   6.637   1.251 -0.0986  0.6628  0.4523
  376MOL0     C49560   2.892   6.638   1.200 -0.1493 -0.5486 -0.5205
  376MOL0     C49561   2.923   6.555   1.074 -0.3310 -0.6522 -0.5187
  376MOL0     C49562   2.966   6.412   1.121 -1.4682  0.9396 -0.4647
  376MOL0     C49563   3.114   6.414   1.159 -0.1438 -0.0908  0.3918
  376MOL0     C49564   3.230   6.420   1.185 -0.5478 -0.4188 -0.5529
  376MOL0     C49565   2.715   6.954   1.415  0.4972  0.4899 -0.7681
  376MOL0     C49566   2.710   7.089   1.393 -0.2431 -0.9510 -0.7608
  376MOL0     H49567   2.409   7.443   1.142 -1.8283  1.0618  1.5405
  376MOL0     H49568   2.337   7.669   1.071  0.2242 -0.7220  1.9546
  376MOL0     H49569   2.528   8.025   0.868 -0.2500 -0.4576  1.4087
  376MOL0     H49570   2.641   7.898   0.833  1.7375  0.2343  1.4480
  376MOL0     H49571   2.721   7.948   1.085 -1.8613  1.1568  1.7418
  376MOL0     H49572   2.583   8.068   1.078 -2.7734 -0.2808 -2.1345
  376MOL0     H49573   2.696   8.197   0.908 -2.0511 -0.4282  1.7124
  376MOL0     H49574   2.816   8.081   0.894 -1.3137 -2.6942  0.4613
  376MOL0     H49575   2.780   8.258   1.132  1.1452  1.0283 -0.0374
  376MOL0     H49576   2.886   8.115   1.133 -0.2079  1.1023  1.2638
  376MOL0     H49577   2.897   8.344   0.948 -2.2760 -2.7369 -1.0999
  376MOL0     H49578   2.987   8.206   0.926 -1.6212 -1.0100 -0.5657
  376MOL0     H49579   3.022   8.300   1.206  4.6045  1.6304  1.0461
  376MOL0     H49580   3.041   8.436   1.118 -2.2254  0.6572 -1.4077
  376MOL0     H49581   3.254   8.317   1.164  0.1769 -1.0542  0.8756
  376MOL0     H49582   3.194   8.176   1.060 -0.8808  0.5867  0.1401
  376MOL0     H49583   3.183   8.304   0.861 -0.9158 -0.4388  0.5109
  376MOL0     H49584   3.353   8.324   0.946 -0.3730  0.3471 -0.8399
  376MOL0     H49585   3.100   8.554   0.800  0.9423 -0.3968 -0.3002
  376MOL0     H49586   3.031   8.798   0.822 -0.6892 -0.1102 -0.5210
  376MOL0     H49587   3.150   8.902   0.917 -1.6677  1.5408  2.3780
  376MOL0     H49588   2.907   8.948   0.994  0.3738  1.3091  0.7838
  376MOL0     H49589   3.019   8.905   1.113  1.7416  0.5335 -0.6286
  376MOL0     H49590   2.930   8.674   1.146  2.6761 -1.5959 -2.0228
  376MOL0     H49591   2.814   8.804   1.144  0.2729  0.4003  0.0580
  376MOL0     H49592   2.851   8.636   0.894  2.0857  0.4314  2.1820
  376MOL0     H49593   2.734   8.764   0.923  1.5574  1.2434  0.3683
  376MOL0     H49594   2.499   8.471   1.157  2.8047 -0.8500  0.3320
  376MOL0     H49595   2.355   8.300   1.040  0.2089  0.5722  1.0959
  376MOL0     H49596   2.147   8.321   0.514 -0.9487  0.3053  0.6686
  376MOL0     H49597   1.985   8.190   0.402  1.9181  1.3873 -1.5378
  376MOL0     H49598   1.887   8.032   0.225  0.0525  1.8935  1.4156
  376MOL0     H49599   1.805   8.064   0.367  0.7188  2.1400  0.0648
  376MOL0     H49600   1.824   7.800   0.215  1.6934  1.8441  0.1421
  376MOL0     H49601   1.696   7.908   0.208 -2.9774 -1.0917  2.1483
  376MOL0     H49602   1.649   7.893   0.448 -0.0108 -0.8288  2.9248
  376MOL0     H49603   1.767   7.770   0.463  0.9433  0.3345 -0.4479
  376MOL0     H49604   1.542   7.670   0.455  3.6871 -0.3036  0.9238
  376MOL0     H49605   1.506   7.729   0.290  0.4162 -0.1088 -0.4488
  376MOL0     H49606   1.689   7.607   0.188 -2.7435  0.3756 -0.6790
  376MOL0     H49607   1.561   7.516   0.245 -0.0339  0.3217 -2.1468
  376MOL0     H49608   1.714   7.497   0.467  2.0696 -0.2640  0.3215
  376MOL0     H49609   1.841   7.560   0.349 -1.4699  3.7777 -2.5542
  376MOL0     H49610   1.673   7.315   0.302  0.3309 -0.8160 -0.4318
  376MOL0     H49611   1.809   7.376   0.200 -1.1545 -0.4958 -1.0547
  376MOL0     H49612   1.967   7.350   0.394 -1.1458  3.2703 -0.6625
  376MOL0     H49613   1.901   7.193   0.344  0.6460 -0.1847  1.6615
  376MOL0     H49614   2.181   7.823   0.490 -4.3618 -0.4328 -1.2458
  376MOL0     H49615   2.387   7.982   0.590  1.2480 -1.0336 -1.2715
  376MOL0     H49616   2.541   8.385   0.663  0.0181  1.8754 -1.1121
  376MOL0     H49617   2.708   8.519   0.790 -0.7259 -0.2921 -0.1693
  376MOL0     H49618   2.742   7.746   0.949 -1.3014  0.7334  0.2237
  376MOL0     H49619   2.804   7.524   1.020  0.2188  3.3286 -1.7003
  376MOL0     H49620   2.642   7.103   1.073 -0.7675  0.7261  0.3695
  376MOL0     H49621   2.684   6.852   1.092 -3.1290  0.7673 -1.1552
  376MOL0     H49622   2.676   6.655   1.169  0.1792  0.3901  0.1497
  376MOL0     H49623   2.730   6.537   1.292  1.4676  0.8331  1.5825
  376MOL0     H49624   2.928   6.738   1.176  3.5173 -1.8588 -1.1084
  376MOL0     H49625   2.961   6.611   1.280 -1.8405 -1.6134  0.6386
  376MOL0     H49626   3.006   6.604   1.024 -1.1709  0.5547 -0.7789
  376MOL0     H49627   2.829   6.560   1.017 -1.4167  0.0552  1.2322
  376MOL0     H49628   2.914   6.363   1.204 -0.2691  0.6574  0.1538
  376MOL0     H49629   2.954   6.338   1.041  0.2893  1.0972 -0.9201
  376MOL0     H49630   3.332   6.448   1.201 -0.4127  0.5698 -2.7652
  376MOL0     H49631   2.738   6.908   1.511  0.3201  2.6564  0.3654
  376MOL0     H49632   2.716   7.154   1.480  1.8011 -3.6201  1.2679
  377MOL0     O49633   8.465   1.169   2.438  0.2653  0.0538 -0.2982
  377MOL0     C49634   8.542   1.263   2.460  0.2093 -0.0231  0.0284
  377MOL0     O49635   8.503   1.380   2.493  0.4747  0.1494  0.3961
  377MOL0     C49636   8.369   1.408   2.488  0.3460 -0.0590  0.4307
  377MOL0     C49637   8.296   1.405   2.605  0.5542  0.4717 -0.0408
  377MOL0     C49638   8.164   1.451   2.606 -0.4808  0.8854  0.1300
  377MOL0     C49639   8.105   1.499   2.491  0.7654  0.1367  0.6855
  377MOL0     O49640   7.977   1.550   2.495  0.3480 -0.7472 -0.5002
  377MOL0     C49641   7.882   1.549   2.393  0.5943  0.6606  0.1848
  377MOL0     C49642   7.761   1.652   2.427 -0.0183 -0.5513  0.2077
  377MOL0     C49643   7.661   1.611   2.537 -0.5385  0.3635  0.1502
  377MOL0     C49644   7.592   1.469   2.519  0.6244  0.4113 -0.6672
  377MOL0     C49645   7.499   1.456   2.642  1.2084 -0.2948 -0.2694
  377MOL0     C49646   7.458   1.305   2.654 -0.3293  0.0350  0.2446
  377MOL0     C49647   7.371   1.275   2.772 -0.6022 -0.3811 -0.0510
  377MOL0     C49648   7.249   1.360   2.760  1.0957 -1.3643  0.4424
  377MOL0     N49649   7.137   1.321   2.862  0.0343 -0.0505  0.0383
  377MOL0     C49650   7.034   1.234   2.843  0.4745 -0.5329 -0.5741
  377MOL0     C49651   6.952   1.254   2.949 -0.6046 -0.1506 -0.7614
  377MOL0     C49652   6.840   1.174   3.000  0.5119 -0.9755 -0.7260
  377MOL0     C49653   6.867   1.055   3.095 -0.2735 -0.3338 -0.6857
  377MOL0     C49654   6.937   0.946   3.020 -0.8074  0.6484  0.6361
  377MOL0     C49655   6.963   0.817   3.099 -0.0006 -0.2919  0.0247
  377MOL0     O49656   7.054   0.834   3.209 -0.1171 -0.1027 -0.5288
  377MOL0     C49657   7.161   0.749   3.224 -0.5412 -0.2246  0.1540
  377MOL0     C49658   7.255   0.792   3.313 -0.9047  0.0782  0.0558
  377MOL0     C49659   7.375   0.718   3.340  0.1810 -0.8239 -1.6447
  377MOL0     C49660   7.380   0.585   3.286  0.2628 -0.5216  0.3568
  377MOL0     C49661   7.501   0.505   3.328  0.5239  0.2397  0.4931
  377MOL0     O49662   7.497   0.372   3.300  0.0976 -0.3484 -0.6266
  377MOL0     C49663   7.587   0.286   3.351  0.2320  0.2008 -0.0373
  377MOL0     C49664   7.553   0.161   3.407  0.2434 -0.9873  0.2691
  377MOL0     C49665   7.656   0.075   3.444  0.1719 -0.3797  1.0492
  377MOL0     C49666   7.791   0.095   3.403  0.9977  0.0084 -0.5114
  377MOL0     O49667   7.890   0.014   3.445 -0.2602 -0.2169 -0.2769
  377MOL0     C49668   7.945   0.047   3.573 -0.2611 -0.6197  0.1358
  377MOL0     C49669   8.024  -0.073   3.613 -0.0166  0.4359 -0.3236
  377MOL0     C49670   7.923  -0.192   3.606  0.8128  0.4302 -1.0387
  377MOL0     C49671   7.983  -0.318   3.653 -0.2086 -0.1046 -0.4897
  377MOL0     C49672   7.938  -0.444   3.571 -0.1409  0.0633  0.7606
  377MOL0     C49673   7.783  -0.469   3.569  0.9499  0.5934 -0.1231
  377MOL0     C49674   7.742  -0.571   3.460  1.0687  0.7614 -0.2491
  377MOL0     C49675   7.771  -0.714   3.497 -0.5547  0.2223 -0.2213
  377MOL0    Cl49676   7.714  -0.785   3.650 -0.1241  0.2521  0.2525
  377MOL0     C49677   7.817   0.212   3.343 -0.4231  0.2401 -0.3368
  377MOL0     C49678   7.725   0.307   3.324 -0.6356 -1.3107  0.2389
  377MOL0     O49679   7.599   0.558   3.379  0.2491 -0.1455 -0.4640
  377MOL0     C49680   7.278   0.547   3.197 -1.3267  0.4678 -0.2609
  377MOL0     C49681   7.176   0.630   3.161 -0.4859  0.2941  0.4859
  377MOL0     N49682   7.022   1.344   3.035  0.0894  0.2810  0.1393
  377MOL0     N49683   7.129   1.377   2.981 -0.0282 -0.3539 -0.3417
  377MOL0     C49684   8.175   1.502   2.371 -0.4214 -0.0107 -0.1857
  377MOL0     C49685   8.309   1.446   2.367 -0.2688 -0.3097  0.2776
  377MOL0     C49686   8.689   1.238   2.442  0.0465  0.2129  0.1475
  377MOL0     C49687   8.772   1.345   2.433 -0.3457  0.1377 -0.4029
  377MOL0     C49688   8.919   1.339   2.419  0.2223  0.8024 -0.1778
  377MOL0     C49689   8.967   1.212   2.418 -0.2324 -0.1528 -0.2758
  377MOL0     O49690   9.102   1.183   2.402 -0.0566  0.0898  0.0408
  377MOL0     C49691   9.163   1.262   2.293 -1.0612 -0.3281 -0.6874
  377MOL0     C49692   9.310   1.232   2.298 -0.5699  0.6548 -0.0158
  377MOL0     C49693   9.348   1.086   2.269  0.1961  0.7979  0.3018
  377MOL0     C49694   9.501   1.055   2.263 -0.5754 -0.1657  0.1982
  377MOL0     C49695   9.588   1.131   2.164 -0.3049  0.7356 -0.0684
  377MOL0     C49696   9.642   1.186   2.080  0.6111  0.3673  0.1468
  377MOL0     C49697   8.882   1.098   2.416  0.0497  0.0269 -0.0123
  377MOL0     C49698   8.747   1.113   2.432  0.1102 -0.1731  0.3540
  377MOL0     H49699   8.336   1.393   2.706  1.9685 -1.4570 -0.7639
  377MOL0     H49700   8.111   1.479   2.696  1.5867  2.1218  1.0140
  377MOL0     H49701   7.849   1.445   2.380  2.9375 -0.0334 -0.7631
  377MOL0     H49702   7.926   1.576   2.296 -0.8628  2.9552  0.0896
  377MOL0     H49703   7.707   1.660   2.332 -3.1609  0.3544  1.9238
  377MOL0     H49704   7.805   1.749   2.450  0.1501 -0.6253  0.1953
  377MOL0     H49705   7.573   1.673   2.556 -2.3187 -2.0860  0.4415
  377MOL0     H49706   7.721   1.608   2.628  1.5992  1.6324 -1.1345
  377MOL0     H49707   7.551   1.455   2.419 -0.3309  0.5801 -0.3124
  377MOL0     H49708   7.664   1.386   2.518  0.4685  0.2709 -0.4135
  377MOL0     H49709   7.409   1.515   2.622 -0.4544 -3.2341 -2.2060
  377MOL0     H49710   7.547   1.492   2.734 -0.7522 -0.2833  0.8007
  377MOL0     H49711   7.542   1.235   2.651 -2.2482 -2.3867 -0.9223
  377MOL0     H49712   7.402   1.284   2.562  2.0244  0.3962 -1.3639
  377MOL0     H49713   7.340   1.171   2.784 -1.4811 -0.0098  1.0547
  377MOL0     H49714   7.423   1.292   2.867 -1.2714 -0.1017  0.2748
  377MOL0     H49715   7.218   1.360   2.656  1.9580  2.3310  0.0537
  377MOL0     H49716   7.273   1.465   2.781 -1.0899 -0.9770  1.2494
  377MOL0     H49717   7.016   1.165   2.761 -3.0606  0.9062 -1.2147
  377MOL0     H49718   6.766   1.145   2.925 -1.0114 -0.0066  0.3534
  377MOL0     H49719   6.779   1.248   3.052 -3.2640 -3.3699 -1.3082
  377MOL0     H49720   6.770   1.017   3.129  0.9167 -0.6387  2.7943
  377MOL0     H49721   6.920   1.073   3.189 -1.0491  1.9850 -0.6382
  377MOL0     H49722   6.876   0.918   2.933  1.7271  0.9079 -1.3500
  377MOL0     H49723   7.033   0.972   2.974 -0.8582 -2.0776 -1.2837
  377MOL0     H49724   6.995   0.743   3.024  2.1755  0.3841  0.2172
  377MOL0     H49725   6.866   0.789   3.140  1.3293 -2.3647  2.0370
  377MOL0     H49726   7.249   0.891   3.358 -0.8864 -1.3484  3.4715
  377MOL0     H49727   7.447   0.771   3.402 -2.3198  0.3029  0.4979
  377MOL0     H49728   7.450   0.128   3.419 -1.1895  1.9344 -2.5051
  377MOL0     H49729   7.638  -0.024   3.483  0.2049  0.5175  3.4838
  377MOL0     H49730   7.874   0.086   3.647  1.2666  2.6676  0.0637
  377MOL0     H49731   8.018   0.128   3.563 -0.4294 -0.6265 -1.3957
  377MOL0     H49732   8.062  -0.072   3.716  0.1574  1.0644 -0.3912
  377MOL0     H49733   8.108  -0.101   3.548 -2.9590 -1.0803 -3.7957
  377MOL0     H49734   7.899  -0.206   3.500  1.0128  1.7770 -1.2719
  377MOL0     H49735   7.832  -0.178   3.665  2.6610  0.9074  1.9192
  377MOL0     H49736   8.091  -0.306   3.637  0.2883 -1.3109  1.6829
  377MOL0     H49737   7.970  -0.325   3.761  0.8343  2.4093 -0.1252
  377MOL0     H49738   7.986  -0.532   3.616  0.0208  1.1663  2.8353
  377MOL0     H49739   7.988  -0.422   3.477 -1.3672 -0.2103  0.0191
  377MOL0     H49740   7.722  -0.380   3.549 -0.6459 -0.7082 -1.4317
  377MOL0     H49741   7.756  -0.507   3.668 -0.6594  1.4130 -0.2119
  377MOL0     H49742   7.633  -0.570   3.451  0.7030 -3.5385  1.4151
  377MOL0     H49743   7.787  -0.544   3.364  1.7580 -0.3501 -0.2465
  377MOL0     H49744   7.879  -0.705   3.505 -0.8536  5.5104  3.2342
  377MOL0     H49745   7.765  -0.783   3.413  2.4682  3.2097 -3.1980
  377MOL0     H49746   7.919   0.228   3.311 -0.4234 -0.1689 -0.5484
  377MOL0     H49747   7.758   0.391   3.264  0.5140 -2.4977 -0.8840
  377MOL0     H49748   7.296   0.452   3.146 -1.9351  1.0074 -1.5208
  377MOL0     H49749   7.100   0.581   3.103 -2.0356  1.8795  1.0860
  377MOL0     H49750   8.134   1.536   2.276 -0.3894  2.3466  0.5750
  377MOL0     H49751   8.374   1.438   2.280 -0.6647 -1.2648  0.0534
  377MOL0     H49752   8.725   1.441   2.455 -0.9830 -0.0916 -0.7334
  377MOL0     H49753   8.983   1.426   2.430 -0.6103  1.6686 -1.8497
  377MOL0     H49754   9.151   1.368   2.313  2.1700  0.1316 -0.5705
  377MOL0     H49755   9.118   1.235   2.197 -2.0044  0.1437 -0.3881
  377MOL0     H49756   9.356   1.303   2.228  2.0299 -0.7750  0.0822
  377MOL0     H49757   9.345   1.265   2.396 -1.8950  3.4362 -0.4075
  377MOL0     H49758   9.313   1.068   2.167  1.0013  0.1926  0.1158
  377MOL0     H49759   9.297   1.011   2.330 -0.5235 -0.7060 -2.0075
  377MOL0     H49760   9.547   1.086   2.358  0.0854 -3.2015  0.9750
  377MOL0     H49761   9.518   0.948   2.246  0.0058 -0.2709  1.3457
  377MOL0     H49762   9.691   1.247   2.006  0.4321  1.7780  1.1520
  377MOL0     H49763   8.933   1.006   2.389 -1.1826 -0.1863 -1.8097
  377MOL0     H49764   8.682   1.026   2.433  0.2696 -0.3734 -1.6761
  378MOL0     O49765   4.475   1.652   4.556 -0.8321  0.5131 -0.6264
  378MOL0     C49766   4.522   1.752   4.610  1.0126  0.5587 -0.8213
  378MOL0     O49767   4.451   1.862   4.645  0.0080 -0.3222 -0.6525
  378MOL0     C49768   4.321   1.892   4.620 -0.1991  0.2379 -0.1790
  378MOL0     C49769   4.287   2.026   4.588 -1.0878  0.7629  0.4610
  378MOL0     C49770   4.157   2.058   4.560  0.5481 -0.1541  0.3714
  378MOL0     C49771   4.056   1.960   4.580  0.6323 -1.0689  0.3981
  378MOL0     O49772   3.926   1.961   4.548 -0.4157  0.2363  0.3884
  378MOL0     C49773   3.873   2.084   4.487  0.5294  0.7815 -0.3609
  378MOL0     C49774   3.721   2.069   4.453 -0.7863  0.3893 -0.0270
  378MOL0     C49775   3.636   2.033   4.578 -0.9261 -0.6207 -0.5577
  378MOL0     C49776   3.483   2.043   4.537 -0.8232 -0.5159  0.0948
  378MOL0     C49777   3.444   1.915   4.457  0.2291 -0.7359  0.2270
  378MOL0     C49778   3.296   1.903   4.450  0.3557  0.2448 -0.3829
  378MOL0     C49779   3.245   1.777   4.385 -0.2018 -0.4101  0.6158
  378MOL0     C49780   3.103   1.777   4.372  0.9984  0.3584  0.3533
  378MOL0     N49781   3.050   1.675   4.279 -0.5964  0.2954 -0.5170
  378MOL0     C49782   2.938   1.606   4.308  0.0387  0.1011 -0.9765
  378MOL0     C49783   2.927   1.534   4.196 -0.5254  0.2166 -0.6046
  378MOL0     C49784   2.836   1.422   4.178  0.1591 -0.0289  0.7698
  378MOL0     C49785   2.910   1.280   4.181  0.8596 -0.0285 -0.4006
  378MOL0     C49786   2.821   1.168   4.255 -0.4982 -0.2841 -0.4786
  378MOL0     C49787   2.846   1.029   4.206  0.0702 -0.2806  0.4118
  378MOL0     O49788   2.770   1.008   4.091  0.1686  0.6202  0.0110
  378MOL0     C49789   2.743   0.874   4.042 -0.0800  0.5443  0.4051
  378MOL0     C49790   2.655   0.871   3.934 -0.4679  0.4214  0.6949
  378MOL0     C49791   2.589   0.747   3.889 -0.2697  0.0315 -0.6144
  378MOL0     C49792   2.635   0.630   3.943 -0.3134  0.3972 -0.1315
  378MOL0     C49793   2.581   0.495   3.894  0.1191  0.2176 -0.2474
  378MOL0     O49794   2.626   0.384   3.955  0.0615 -0.3429 -0.6035
  378MOL0     C49795   2.637   0.276   3.872  0.4795  0.1116  0.4842
  378MOL0     C49796   2.688   0.286   3.742  0.2418  1.0997  0.1286
  378MOL0     C49797   2.684   0.176   3.656  0.6267 -0.2126  0.8895
  378MOL0     C49798   2.629   0.062   3.699 -1.3723  0.9399  0.2023
  378MOL0     O49799   2.629  -0.035   3.606 -0.1491 -0.0292  0.4397
  378MOL0     C49800   2.622  -0.178   3.646 -0.1044 -0.8899  0.5269
  378MOL0     C49801   2.630  -0.269   3.521 -0.3024  0.1515 -0.0163
  378MOL0     C49802   2.658  -0.420   3.532  0.2165 -0.5999 -0.3216
  378MOL0     C49803   2.529  -0.500   3.581 -0.0284 -0.4933  0.4530
  378MOL0     C49804   2.565  -0.628   3.656 -0.6857  0.2581 -0.0012
  378MOL0     C49805   2.617  -0.732   3.565  1.0339 -0.6585 -0.9761
  378MOL0     C49806   2.674  -0.856   3.635  0.8360  0.3511  0.4439
  378MOL0     C49807   2.737  -0.952   3.531  1.0680 -0.4127  0.4798
  378MOL0    Cl49808   2.848  -0.849   3.428 -0.1200 -0.1264  0.1623
  378MOL0     C49809   2.569   0.044   3.824  0.1145  0.7014  0.6964
  378MOL0     C49810   2.579   0.151   3.910  0.9961 -0.0851 -0.5510
  378MOL0     O49811   2.488   0.506   3.810 -0.4236 -0.4152  0.4949
  378MOL0     C49812   2.735   0.638   4.049 -0.9120  0.3034 -0.4317
  378MOL0     C49813   2.782   0.756   4.101 -0.0187  0.2556 -0.7278
  378MOL0     N49814   3.025   1.568   4.096 -0.2333  0.3000  0.0623
  378MOL0     N49815   3.099   1.652   4.151  0.2977 -0.4791 -0.4492
  378MOL0     C49816   4.093   1.837   4.633  0.5957 -1.3122  0.3468
  378MOL0     C49817   4.228   1.796   4.644  0.7311 -1.1446  0.0617
  378MOL0     C49818   4.666   1.746   4.636  0.0671  0.8185 -0.3695
  378MOL0     C49819   4.748   1.638   4.581  0.0636 -0.9715  0.2729
  378MOL0     C49820   4.886   1.634   4.603 -0.8450 -0.4355  0.6909
  378MOL0     C49821   4.953   1.733   4.678  0.2402 -0.1188  1.0203
  378MOL0     O49822   5.088   1.713   4.695 -0.0941 -0.7993 -0.2159
  378MOL0     C49823   5.149   1.792   4.789 -0.1096  0.7551  0.2424
  378MOL0     C49824   5.261   1.700   4.860 -0.3548  0.0063  0.0686
  378MOL0     C49825   5.383   1.785   4.907  1.0688 -0.5527 -0.5491
  378MOL0     C49826   5.515   1.702   4.913 -0.1313  0.3506  0.1044
  378MOL0     C49827   5.571   1.674   4.787  0.3838  0.2255 -0.8305
  378MOL0     C49828   5.634   1.637   4.686 -0.2818  0.8591  0.6598
  378MOL0     C49829   4.869   1.835   4.727  0.8707  0.1030  0.7980
  378MOL0     C49830   4.732   1.843   4.704  0.1511  0.0225  0.4971
  378MOL0     H49831   4.349   2.115   4.578  0.0362 -0.1981 -1.6723
  378MOL0     H49832   4.130   2.154   4.519 -2.1488  0.0929  2.4769
  378MOL0     H49833   3.925   2.097   4.392  0.1400 -1.6801 -0.9860
  378MOL0     H49834   3.887   2.173   4.550  0.5879  1.5202 -1.4004
  378MOL0     H49835   3.718   1.999   4.370  0.4609  3.3777 -2.7963
  378MOL0     H49836   3.685   2.159   4.403 -0.1400 -0.3347 -1.8629
  378MOL0     H49837   3.667   2.110   4.649 -1.3214 -0.3674 -0.6566
  378MOL0     H49838   3.661   1.940   4.629 -1.6353 -0.5745 -0.1168
  378MOL0     H49839   3.427   2.051   4.631  0.3163 -2.1060  0.9762
  378MOL0     H49840   3.466   2.127   4.470 -4.7842 -1.3141 -0.1051
  378MOL0     H49841   3.472   1.828   4.516  0.7568 -2.8262 -2.8488
  378MOL0     H49842   3.494   1.896   4.361  0.9418 -1.4568  0.7304
  378MOL0     H49843   3.257   1.995   4.406  0.8959  0.8540  0.3676
  378MOL0     H49844   3.273   1.891   4.556  0.4953 -2.9796 -0.6382
  378MOL0     H49845   3.291   1.776   4.285 -2.2726 -0.3149 -0.4084
  378MOL0     H49846   3.266   1.693   4.451 -1.2586  0.6009  2.2934
  378MOL0     H49847   3.071   1.876   4.338 -1.4800 -0.2170  0.7985
  378MOL0     H49848   3.056   1.754   4.469  3.4672 -0.0947  1.5077
  378MOL0     H49849   2.880   1.609   4.399  2.8035 -2.2872  1.0340
  378MOL0     H49850   2.780   1.426   4.084 -0.8508 -0.7586  1.3221
  378MOL0     H49851   2.758   1.438   4.254  2.7216  0.3818  3.5062
  378MOL0     H49852   3.010   1.287   4.227  1.3179  0.0520 -1.3904
  378MOL0     H49853   2.941   1.244   4.083  0.7510  0.4893 -0.6282
  378MOL0     H49854   2.854   1.174   4.359 -0.7886  0.6950 -0.4367
  378MOL0     H49855   2.717   1.201   4.254 -0.8716 -1.3612 -2.4848
  378MOL0     H49856   2.820   0.967   4.292  0.3077  2.3318  2.5096
  378MOL0     H49857   2.948   1.005   4.175 -1.0431 -0.7936 -3.3997
  378MOL0     H49858   2.631   0.964   3.882  3.9468  1.4716  0.1480
  378MOL0     H49859   2.522   0.744   3.804  1.5730 -2.6115 -2.1028
  378MOL0     H49860   2.724   0.381   3.704  2.7555  0.4149  0.6383
  378MOL0     H49861   2.729   0.179   3.557  0.7969 -0.4459  0.9590
  378MOL0     H49862   2.523  -0.206   3.683 -0.0422 -0.2971  1.1528
  378MOL0     H49863   2.706  -0.189   3.714 -0.0926 -0.2788  0.6179
  378MOL0     H49864   2.702  -0.226   3.450 -0.5066  2.2927  0.9989
  378MOL0     H49865   2.535  -0.260   3.466 -1.6475 -2.0552  1.7697
  378MOL0     H49866   2.742  -0.437   3.599 -2.4865 -2.4829  2.9199
  378MOL0     H49867   2.679  -0.456   3.432  0.7593  0.9150 -0.7778
  378MOL0     H49868   2.471  -0.440   3.652 -0.5070  1.2806 -1.3647
  378MOL0     H49869   2.471  -0.502   3.488  1.4739  1.2718 -0.5888
  378MOL0     H49870   2.484  -0.659   3.723  0.2647 -1.3426  0.4523
  378MOL0     H49871   2.650  -0.608   3.721  0.7150  1.8336 -2.1480
  378MOL0     H49872   2.685  -0.688   3.491 -0.5173  2.2613 -0.8130
  378MOL0     H49873   2.533  -0.760   3.501  0.2735 -0.0591 -0.2583
  378MOL0     H49874   2.745  -0.819   3.710  4.7364 -1.9450 -1.7841
  378MOL0     H49875   2.585  -0.895   3.685 -2.2223  3.4157 -2.0977
  378MOL0     H49876   2.660  -0.994   3.466 -0.5617 -1.1317  2.7679
  378MOL0     H49877   2.790  -1.028   3.588 -0.1557 -1.7543 -0.1117
  378MOL0     H49878   2.522  -0.053   3.841 -0.2702  0.5757 -0.9249
  378MOL0     H49879   2.529   0.145   4.006  0.4676  0.1183 -0.8131
  378MOL0     H49880   2.772   0.547   4.096 -1.4205  0.6637  0.7046
  378MOL0     H49881   2.842   0.755   4.192 -0.7958  1.2302 -0.1757
  378MOL0     H49882   4.019   1.762   4.660  0.2673 -0.1753  2.8797
  378MOL0     H49883   4.248   1.692   4.667 -1.2900 -1.1941  1.9035
  378MOL0     H49884   4.695   1.569   4.516  1.4932 -1.6008 -0.2850
  378MOL0     H49885   4.940   1.556   4.551 -0.9404 -0.7457  1.0480
  378MOL0     H49886   5.083   1.815   4.873  0.5088  0.8428  0.7125
  378MOL0     H49887   5.183   1.887   4.746  2.3998 -0.8849 -1.6933
  378MOL0     H49888   5.222   1.655   4.952 -0.0778 -1.0789 -0.3314
  378MOL0     H49889   5.293   1.619   4.794  0.3315  0.1097  0.2581
  378MOL0     H49890   5.353   1.824   5.005  0.9913 -1.1872 -0.3199
  378MOL0     H49891   5.400   1.878   4.853 -0.5201 -1.8326 -3.4581
  378MOL0     H49892   5.592   1.755   4.970  1.7671  0.4394 -2.3510
  378MOL0     H49893   5.483   1.606   4.955 -1.3073  0.4538 -0.5074
  378MOL0     H49894   5.693   1.603   4.604  1.0792  1.3325  1.4186
  378MOL0     H49895   4.926   1.911   4.780 -0.1398  2.3057 -1.0673
  378MOL0     H49896   4.677   1.930   4.737  0.8647  1.1456 -1.1521
  379MOL0     O49897   9.978   6.640   3.066 -0.5347 -0.3238  0.2015
  379MOL0     C49898   9.974   6.763   3.032 -0.5562 -0.5394  0.9577
  379MOL0     O49899  10.082   6.848   3.046  0.0415  0.0125 -0.0195
  379MOL0     C49900  10.202   6.787   3.079 -0.3083 -0.0801 -0.7975
  379MOL0     C49901  10.250   6.792   3.211  1.1339  1.1606  0.1321
  379MOL0     C49902  10.372   6.740   3.261  0.1469 -0.1715  0.2599
  379MOL0     C49903  10.452   6.671   3.165  0.4089  0.0410  0.6428
  379MOL0     O49904  10.571   6.613   3.181 -0.0275 -0.2809  0.5469
  379MOL0     C49905  10.627   6.625   3.319  0.2131 -0.2744  0.9061
  379MOL0     C49906  10.762   6.547   3.313 -0.0234 -0.6863 -0.1203
  379MOL0     C49907  10.883   6.621   3.249 -0.2436  0.5048 -0.7014
  379MOL0     C49908  11.007   6.538   3.269 -0.6493  0.3870  0.2973
  379MOL0     C49909  11.146   6.598   3.226 -0.5609  0.0469  0.3661
  379MOL0     C49910  11.253   6.500   3.277 -0.7124 -0.2726 -0.4745
  379MOL0     C49911  11.382   6.526   3.210  0.0506 -0.5970  0.0326
  379MOL0     C49912  11.498   6.462   3.284  0.6704 -1.0930 -0.2688
  379MOL0     N49913  11.572   6.565   3.369  0.9800 -0.0608 -0.5280
  379MOL0     C49914  11.534   6.616   3.492  0.7714  0.2293  1.3184
  379MOL0     C49915  11.609   6.723   3.510 -0.1350 -0.0142 -0.6344
  379MOL0     C49916  11.596   6.802   3.638 -0.3133  0.3073 -0.4099
  379MOL0     C49917  11.483   6.911   3.638  0.2392  0.0354  0.0751
  379MOL0     C49918  11.479   6.984   3.505  0.1546 -0.1231  0.6073
  379MOL0     C49919  11.353   7.071   3.505 -0.0964 -0.3903 -0.1771
  379MOL0     O49920  11.248   6.991   3.458  0.1862  0.8689 -0.3107
  379MOL0     C49921  11.126   7.018   3.506 -0.6143  1.0614 -0.8482
  379MOL0     C49922  11.053   7.134   3.502 -0.2034 -0.6655  0.6613
  379MOL0     C49923  10.918   7.141   3.522  1.3630 -0.4731 -0.4297
  379MOL0     C49924  10.847   7.033   3.569 -0.0260  0.2214  0.4581
  379MOL0     C49925  10.696   7.042   3.571 -0.2021 -0.1596  0.0347
  379MOL0     O49926  10.651   7.160   3.536 -0.6926  0.1066  0.3205
  379MOL0     C49927  10.512   7.165   3.520 -0.0495  0.3072  0.3823
  379MOL0     C49928  10.453   7.132   3.394 -0.0702  0.1824 -0.2138
  379MOL0     C49929  10.323   7.147   3.367  0.6687 -0.1091  0.6272
  379MOL0     C49930  10.236   7.188   3.462  0.5705  0.3076  0.1783
  379MOL0     O49931  10.093   7.207   3.452 -1.0297  0.6769  0.0149
  379MOL0     C49932  10.023   7.084   3.434 -0.0325  0.8801 -0.1832
  379MOL0     C49933   9.935   7.082   3.310 -0.5473  0.3485 -0.5593
  379MOL0     C49934   9.813   7.165   3.335  0.0537 -0.2122  0.4874
  379MOL0     C49935   9.735   7.184   3.194  0.2353  1.0605 -0.1237
  379MOL0     C49936   9.623   7.279   3.208 -0.2587  0.4996  0.2763
  379MOL0     C49937   9.591   7.359   3.080  0.5549 -0.2190  0.0753
  379MOL0     C49938   9.533   7.275   2.960  0.1909  0.2024 -0.4688
  379MOL0     C49939   9.438   7.363   2.878  0.2155 -0.2749  0.5799
  379MOL0    Cl49940   9.548   7.498   2.804 -0.0293  1.0171  0.1886
  379MOL0     C49941  10.285   7.209   3.592  0.8727 -0.6937 -0.1956
  379MOL0     C49942  10.422   7.207   3.622  0.4087  0.1269  0.3461
  379MOL0     O49943  10.629   6.939   3.594 -0.5697  0.7634 -0.0496
  379MOL0     C49944  10.925   6.920   3.595  0.2685 -0.0293  0.8527
  379MOL0     C49945  11.058   6.910   3.558 -0.0504  0.5772 -0.1100
  379MOL0     N49946  11.680   6.748   3.394 -0.1725  0.0685  0.8505
  379MOL0     N49947  11.664   6.649   3.315  0.0416  0.5670  0.3669
  379MOL0     C49948  10.400   6.657   3.032 -1.3543 -0.8642 -0.4102
  379MOL0     C49949  10.276   6.706   2.990  0.1903  0.2279  0.3265
  379MOL0     C49950   9.855   6.835   2.971  0.5807  0.7196  0.6326
  379MOL0     C49951   9.737   6.764   2.946 -0.3140 -0.2443 -1.3713
  379MOL0     C49952   9.636   6.822   2.868  0.6511  0.6471 -0.4600
  379MOL0     C49953   9.645   6.944   2.807  0.0172  0.0414  0.2978
  379MOL0     O49954   9.551   6.992   2.718 -1.0506 -0.3717 -0.5532
  379MOL0     C49955   9.582   6.995   2.572  0.1261  0.2020 -0.5507
  379MOL0     C49956   9.551   7.133   2.515 -0.2904  0.1224  0.1085
  379MOL0     C49957   9.555   7.129   2.361  0.0236 -0.5576  0.2273
  379MOL0     C49958   9.570   7.271   2.307  0.4009 -0.5897 -0.5736
  379MOL0     C49959   9.605   7.257   2.179  0.7619 -0.3079  0.7697
  379MOL0     C49960   9.627   7.265   2.058 -1.0042 -0.3116 -0.4175
  379MOL0     C49961   9.747   7.022   2.855 -0.2264 -1.3862  0.1900
  379MOL0     C49962   9.851   6.968   2.932  0.9346 -0.4064  0.5480
  379MOL0     H49963  10.194   6.841   3.291 -0.6690  1.0561 -1.0198
  379MOL0     H49964  10.405   6.757   3.363 -0.3435  1.9162  0.1039
  379MOL0     H49965  10.566   6.570   3.391  0.0590 -0.5351  0.5817
  379MOL0     H49966  10.632   6.731   3.344  0.2674 -0.1170  0.2369
  379MOL0     H49967  10.747   6.447   3.272 -0.1819 -0.8710  0.3866
  379MOL0     H49968  10.790   6.524   3.416 -1.4981 -0.4268  0.3730
  379MOL0     H49969  10.906   6.721   3.288  1.9187  0.6372 -2.1603
  379MOL0     H49970  10.869   6.632   3.141  2.4155  0.8428 -1.0807
  379MOL0     H49971  11.009   6.508   3.374  0.9911 -3.3461 -0.6662
  379MOL0     H49972  10.998   6.435   3.234 -1.8573 -1.0061  4.1533
  379MOL0     H49973  11.160   6.699   3.265 -1.8950  0.2069  0.4926
  379MOL0     H49974  11.159   6.593   3.117 -2.3817  2.0135 -0.0056
  379MOL0     H49975  11.239   6.391   3.283  2.6429 -0.9781 -2.9198
  379MOL0     H49976  11.271   6.530   3.381  1.2762  1.8913 -1.3581
  379MOL0     H49977  11.366   6.473   3.116  0.2017 -0.7921  0.1172
  379MOL0     H49978  11.418   6.629   3.197  0.0451 -0.6257 -0.2160
  379MOL0     H49979  11.560   6.415   3.207  2.2666 -1.3660  1.1122
  379MOL0     H49980  11.455   6.386   3.350  0.7397 -0.6281  0.3212
  379MOL0     H49981  11.458   6.570   3.555  0.2083  0.4622  0.8164
  379MOL0     H49982  11.691   6.855   3.648 -0.7825  1.0823  0.0231
  379MOL0     H49983  11.570   6.742   3.726 -3.9872  1.7643 -0.3516
  379MOL0     H49984  11.508   6.981   3.718  0.6323  0.3732 -0.3386
  379MOL0     H49985  11.386   6.863   3.655  0.8717 -0.9846  0.8943
  379MOL0     H49986  11.559   7.055   3.485 -0.2290  0.5251  1.3137
  379MOL0     H49987  11.481   6.925   3.413 -0.9465  1.3993 -0.4526
  379MOL0     H49988  11.375   7.155   3.439  2.0119  1.5598  2.7555
  379MOL0     H49989  11.333   7.118   3.602 -1.3285  0.1200 -0.6617
  379MOL0     H49990  11.106   7.221   3.466  1.9115 -2.0434  0.2561
  379MOL0     H49991  10.888   7.245   3.508 -0.7322 -1.1636 -1.5043
  379MOL0     H49992  10.516   7.085   3.319  0.8912  1.0918 -0.0012
  379MOL0     H49993  10.281   7.125   3.269  2.3174  0.5493 -0.2601
  379MOL0     H49994   9.960   7.066   3.521 -1.6869  6.1328  0.0528
  379MOL0     H49995  10.093   7.000   3.423 -0.1346  0.7342  0.2739
  379MOL0     H49996   9.913   6.977   3.286  1.4431 -0.2026 -0.1694
  379MOL0     H49997   9.997   7.108   3.224 -2.4187  0.0465 -2.0476
  379MOL0     H49998   9.847   7.263   3.370 -0.1294  0.7053 -1.7189
  379MOL0     H49999   9.747   7.132   3.416 -0.1238  2.9646  1.8002
  379MOL0     H50000   9.815   7.224   3.132  1.9980 -0.6852  0.9206
  379MOL0     H50001   9.701   7.091   3.147  0.7445 -0.2339  1.9267
  379MOL0     H50002   9.653   7.349   3.287 -2.4697 -2.3906  4.0338
  379MOL0     H50003   9.528   7.234   3.240 -3.5551  4.6792 -2.4961
  379MOL0     H50004   9.678   7.417   3.047  0.0041 -0.4762 -1.9641
  379MOL0     H50005   9.532   7.445   3.113  0.2933 -0.2691 -0.2615
  379MOL0     H50006   9.610   7.244   2.889 -0.9860 -1.6044 -1.0413
  379MOL0     H50007   9.492   7.184   3.005  1.4950  1.1452  2.8854
  379MOL0     H50008   9.355   7.403   2.937  0.0148 -0.2876  0.3033
  379MOL0     H50009   9.395   7.305   2.797  3.1203  1.2817 -2.2874
  379MOL0     H50010  10.214   7.232   3.671 -0.4261 -0.5939 -1.3591
  379MOL0     H50011  10.447   7.233   3.724 -0.8684  0.5487  0.5656
  379MOL0     H50012  10.873   6.839   3.646  1.5558 -3.4108 -2.7182
  379MOL0     H50013  11.118   6.820   3.567  2.1729  1.9237 -0.6626
  379MOL0     H50014  10.457   6.600   2.959 -0.9281  0.7311 -1.3542
  379MOL0     H50015  10.255   6.697   2.884  2.3606 -1.5082 -0.0484
  379MOL0     H50016   9.727   6.666   2.992 -0.6572  1.4376  2.5855
  379MOL0     H50017   9.538   6.779   2.853  0.1168  1.9829 -0.9094
  379MOL0     H50018   9.519   6.919   2.525 -1.1378 -0.0540  1.4355
  379MOL0     H50019   9.688   6.971   2.553  0.0097 -0.3420 -0.5351
  379MOL0     H50020   9.456   7.176   2.547  0.4430  1.5282  0.4771
  379MOL0     H50021   9.630   7.200   2.551 -1.3279 -0.4157  3.7387
  379MOL0     H50022   9.467   7.087   2.312  0.9788 -4.3946  1.4984
  379MOL0     H50023   9.630   7.055   2.332  0.3270 -1.2430  2.5849
  379MOL0     H50024   9.476   7.324   2.326  0.7776 -0.4851  1.2599
  379MOL0     H50025   9.650   7.319   2.365 -0.9035 -0.6957  1.4406
  379MOL0     H50026   9.644   7.281   1.954 -2.0624 -0.8886 -0.6912
  379MOL0     H50027   9.763   7.126   2.827  1.7359 -1.7266 -0.0829
  379MOL0     H50028   9.934   7.035   2.953 -0.6302  1.3799  1.2740
  380MOL0     O50029  10.360   7.983   8.489  0.3088 -0.0971 -0.0178
  380MOL0     C50030  10.309   8.069   8.565 -0.6659  0.0570 -0.2174
  380MOL0     O50031  10.253   8.186   8.518  0.3577 -0.9127 -0.0950
  380MOL0     C50032  10.238   8.204   8.381 -0.8230  0.6016 -0.6118
  380MOL0     C50033  10.329   8.264   8.290  1.3333 -0.4498  0.9751
  380MOL0     C50034  10.303   8.275   8.151  0.4195  0.5978 -0.0513
  380MOL0     C50035  10.173   8.226   8.102  0.1661  0.0364  1.0496
  380MOL0     O50036  10.122   8.244   7.980  0.6714 -0.3009  0.6635
  380MOL0     C50037  10.210   8.251   7.865  1.1855  0.2886 -0.2023
  380MOL0     C50038  10.263   8.384   7.813 -0.3599 -0.2327 -0.3009
  380MOL0     C50039  10.168   8.452   7.721  0.3698  0.2634 -0.8042
  380MOL0     C50040  10.223   8.579   7.661  0.1250 -0.2638  0.5595
  380MOL0     C50041  10.113   8.670   7.579 -0.6824 -0.1348  0.7880
  380MOL0     C50042  10.063   8.602   7.451 -0.3591  0.1408  0.7254
  380MOL0     C50043  10.024   8.698   7.332  0.1765  0.0761 -0.5166
  380MOL0     C50044   9.912   8.790   7.374 -0.0153 -0.8172 -0.4469
  380MOL0     N50045   9.790   8.730   7.412 -0.1315  0.4777 -0.3400
  380MOL0     C50046   9.748   8.670   7.526  0.3751 -0.3652 -0.5324
  380MOL0     C50047   9.615   8.653   7.498  0.4339 -0.6427 -0.3953
  380MOL0     C50048   9.519   8.575   7.586 -0.1227 -0.1429 -0.7996
  380MOL0     C50049   9.363   8.608   7.574  0.2099  0.2533  0.9545
  380MOL0     C50050   9.320   8.745   7.622  0.8079  0.9336 -0.2014
  380MOL0     C50051   9.319   8.761   7.769  0.6371  0.1914 -0.5888
  380MOL0     O50052   9.202   8.711   7.838 -0.2693  0.4265  0.5346
  380MOL0     C50053   9.083   8.778   7.846 -0.8096 -0.2306  0.3178
  380MOL0     C50054   8.987   8.751   7.751  0.7917  0.5437  0.8784
  380MOL0     C50055   8.855   8.793   7.762  0.7920  0.6569 -0.3095
  380MOL0     C50056   8.819   8.880   7.872  0.3175 -0.1819  0.0495
  380MOL0     C50057   8.683   8.938   7.890  0.2797  0.5957  0.6842
  380MOL0     O50058   8.666   9.045   7.981 -0.0048 -0.5639 -0.1001
  380MOL0     C50059   8.541   9.105   8.007 -0.3522 -0.4759  0.1321
  380MOL0     C50060   8.414   9.046   7.983  0.4107  0.8032  0.0598
  380MOL0     C50061   8.300   9.127   8.004  0.0662  0.4291 -1.2973
  380MOL0     C50062   8.298   9.251   8.064 -1.2487  1.1286  0.2051
  380MOL0     O50063   8.186   9.323   8.095  0.4579 -0.5782 -0.0569
  380MOL0     C50064   8.053   9.271   8.057  0.2069 -0.3162 -0.4643
  380MOL0     C50065   7.948   9.358   8.116 -0.0417 -0.8121  1.3501
  380MOL0     C50066   7.937   9.491   8.034  0.2908 -0.5389 -0.1942
  380MOL0     C50067   7.845   9.594   8.107 -0.1655  0.0697 -0.0707
  380MOL0     C50068   7.858   9.733   8.033 -0.3631  0.8467  0.0215
  380MOL0     C50069   7.971   9.818   8.085 -0.4409 -0.2228  0.7325
  380MOL0     C50070   7.972   9.954   8.021  0.2372  0.1300 -0.3971
  380MOL0     C50071   8.097  10.020   8.072 -0.9866  0.1677  0.7338
  380MOL0    Cl50072   8.084  10.198   8.100  0.3614  0.0696 -0.2780
  380MOL0     C50073   8.423   9.302   8.099  0.5465  0.9886  0.0775
  380MOL0     C50074   8.538   9.229   8.063 -1.0187  1.0368 -0.0633
  380MOL0     O50075   8.592   8.894   7.820 -0.1888 -0.1526  0.2519
  380MOL0     C50076   8.910   8.895   7.983 -0.5719 -0.4545 -0.4723
  380MOL0     C50077   9.043   8.848   7.963 -0.0646  0.8484 -0.9656
  380MOL0     N50078   9.575   8.714   7.386 -0.6351  0.6647  0.1163
  380MOL0     N50079   9.681   8.753   7.330 -0.5523 -0.5323 -0.2810
  380MOL0     C50080  10.076   8.176   8.200  0.5988  1.5400 -0.6431
  380MOL0     C50081  10.116   8.158   8.338 -0.1686 -0.7211  0.5629
  380MOL0     C50082  10.292   8.036   8.703 -0.2693  0.5768 -0.8812
  380MOL0     C50083  10.399   7.969   8.758 -0.3134 -1.0699  0.5506
  380MOL0     C50084  10.388   7.927   8.896 -0.5339 -0.2640 -0.1121
  380MOL0     C50085  10.274   7.949   8.971 -0.8850 -0.3155  0.0191
  380MOL0     O50086  10.275   7.907   9.108 -0.0137 -0.1346  0.4767
  380MOL0     C50087  10.251   8.014   9.196 -0.6145 -0.8895 -0.3219
  380MOL0     C50088  10.357   8.127   9.196  0.4823 -1.1533  0.5193
  380MOL0     C50089  10.488   8.079   9.263  0.1964  0.5988  0.6666
  380MOL0     C50090  10.611   8.167   9.226 -0.4271  0.5388 -0.7667
  380MOL0     C50091  10.591   8.311   9.237  0.1921 -0.4138  0.5738
  380MOL0     C50092  10.592   8.428   9.268  0.1456  0.8120 -0.3767
  380MOL0     C50093  10.165   8.020   8.913  0.0564  0.6608 -0.2563
  380MOL0     C50094  10.181   8.060   8.781  0.3773  0.7328 -0.4217
  380MOL0     H50095  10.422   8.304   8.329  0.7603  1.8295  0.1517
  380MOL0     H50096  10.374   8.321   8.083  1.8495  0.4891  1.3034
  380MOL0     H50097  10.155   8.213   7.779  0.8712  1.6754 -0.6465
  380MOL0     H50098  10.293   8.182   7.883 -0.5854 -1.7705  0.4471
  380MOL0     H50099  10.364   8.365   7.776  1.1441  1.1113  2.7540
  380MOL0     H50100  10.277   8.451   7.898 -1.2783 -0.3027 -0.0883
  380MOL0     H50101  10.067   8.463   7.763  0.5458 -2.8810  0.7926
  380MOL0     H50102  10.153   8.387   7.634 -2.0125  1.8280 -1.6664
  380MOL0     H50103  10.267   8.646   7.735  2.8348  0.4217 -1.4893
  380MOL0     H50104  10.304   8.552   7.593 -2.1134 -1.7708 -1.6936
  380MOL0     H50105  10.157   8.761   7.538  0.4687 -1.5087 -1.1757
  380MOL0     H50106  10.031   8.712   7.638  0.2681  2.0805  0.6095
  380MOL0     H50107   9.992   8.524   7.477 -1.0369  1.0354  1.6204
  380MOL0     H50108  10.153   8.552   7.413 -1.2096  0.9394 -2.6694
  380MOL0     H50109  10.111   8.748   7.288 -1.9618  2.2157 -2.6540
  380MOL0     H50110   9.987   8.635   7.250 -1.9220 -0.9153  1.0841
  380MOL0     H50111   9.899   8.857   7.288  1.9534  0.4579  0.1695
  380MOL0     H50112   9.956   8.862   7.444 -0.2657 -0.5484 -0.5630
  380MOL0     H50113   9.807   8.644   7.613  0.0302  2.6759  0.7332
  380MOL0     H50114   9.550   8.583   7.690  0.6441  1.8320 -1.1509
  380MOL0     H50115   9.523   8.471   7.552 -0.1609 -0.3087 -0.3063
  380MOL0     H50116   9.312   8.527   7.626 -1.6860 -2.1712 -4.0347
  380MOL0     H50117   9.334   8.584   7.471 -0.6877 -0.2494  1.3165
  380MOL0     H50118   9.375   8.824   7.571  0.2414  0.0815 -2.2186
  380MOL0     H50119   9.215   8.763   7.596  0.1748  1.1640  2.2458
  380MOL0     H50120   9.334   8.868   7.789  0.4423  0.0158  0.5509
  380MOL0     H50121   9.404   8.703   7.806  0.3286 -1.4433 -2.2842
  380MOL0     H50122   9.013   8.696   7.662 -0.4447 -1.1084  1.4726
  380MOL0     H50123   8.799   8.766   7.672 -1.2646 -3.0681  1.8135
  380MOL0     H50124   8.398   8.942   7.960 -0.8645  0.6114  1.6339
  380MOL0     H50125   8.200   9.091   7.981  0.8614 -3.6494  0.6343
  380MOL0     H50126   8.033   9.165   8.077 -0.4148 -0.3573 -1.2385
  380MOL0     H50127   8.063   9.278   7.948  0.6585 -0.0356 -0.4082
  380MOL0     H50128   7.963   9.375   8.222 -2.1128 -2.3379  1.9637
  380MOL0     H50129   7.852   9.307   8.108  0.6138 -2.0100  0.7897
  380MOL0     H50130   7.902   9.476   7.931  0.2135  4.5562 -1.1818
  380MOL0     H50131   8.037   9.531   8.017 -0.1720  1.3414  1.2363
  380MOL0     H50132   7.744   9.554   8.099 -0.9537  1.6567  1.2935
  380MOL0     H50133   7.859   9.601   8.215 -1.6917  0.2384  0.1254
  380MOL0     H50134   7.760   9.770   8.066 -0.5665 -0.2415  0.6732
  380MOL0     H50135   7.856   9.717   7.925 -0.0849  0.7012  0.0364
  380MOL0     H50136   8.068   9.772   8.064 -0.5626 -1.0565  1.9039
  380MOL0     H50137   7.956   9.834   8.192 -3.1211  1.0727  0.2355
  380MOL0     H50138   7.950   9.962   7.914 -0.8156  1.9436 -0.0904
  380MOL0     H50139   7.890  10.011   8.068 -1.4389 -2.3187 -0.1521
  380MOL0     H50140   8.164  10.000   7.987 -2.1359  1.2402 -0.4840
  380MOL0     H50141   8.133   9.972   8.163  0.1507  1.7605  1.1715
  380MOL0     H50142   8.414   9.404   8.135 -2.6499  0.9736 -0.4086
  380MOL0     H50143   8.638   9.264   8.088  0.3651 -2.3760 -0.2039
  380MOL0     H50144   8.888   8.951   8.074 -0.5309 -0.5870 -0.3799
  380MOL0     H50145   9.119   8.862   8.039 -1.0800 -0.7689  0.4168
  380MOL0     H50146   9.977   8.150   8.164  0.9076 -0.6423 -0.1137
  380MOL0     H50147  10.056   8.112   8.416  0.9199  1.1395  2.6137
  380MOL0     H50148  10.491   7.951   8.705  0.8810  3.0491  0.8743
  380MOL0     H50149  10.468   7.873   8.946  0.9648  0.9026 -1.1365
  380MOL0     H50150  10.230   7.970   9.293 -0.4491 -2.6414 -1.0370
  380MOL0     H50151  10.152   8.057   9.176  0.7275  1.4862 -2.4481
  380MOL0     H50152  10.369   8.164   9.094 -0.5262  1.1275  1.1561
  380MOL0     H50153  10.315   8.204   9.261 -0.9888 -0.9823 -0.5688
  380MOL0     H50154  10.511   7.975   9.237 -2.5037  0.8204 -3.4916
  380MOL0     H50155  10.472   8.081   9.371 -2.4249  0.6703  0.3331
  380MOL0     H50156  10.687   8.153   9.303 -0.6223  1.1299 -0.4625
  380MOL0     H50157  10.655   8.133   9.131 -2.8165 -2.4866 -0.9408
  380MOL0     H50158  10.592   8.533   9.285  2.0213  0.7538  0.1805
  380MOL0     H50159  10.075   8.032   8.971 -0.8120 -0.1755 -1.3862
  380MOL0     H50160  10.093   8.101   8.734  0.9991  1.8909 -0.6089
  381MOL0     O50161   4.750  10.335  10.885 -0.7422 -0.1336  0.1990
  381MOL0     C50162   4.773  10.310  10.767  0.2664 -0.3310  0.1739
  381MOL0     O50163   4.722  10.213  10.698  0.1130  0.6580  1.0378
  381MOL0     C50164   4.615  10.140  10.737  1.0444 -0.9144 -0.7995
  381MOL0     C50165   4.521  10.109  10.634 -0.7862 -0.2947  0.9043
  381MOL0     C50166   4.405  10.033  10.665 -0.1174 -0.5470 -0.3027
  381MOL0     C50167   4.384   9.985  10.792 -0.2066 -0.5846 -1.3930
  381MOL0     O50168   4.284   9.896  10.807 -0.2637 -0.6340  0.6848
  381MOL0     C50169   4.231   9.897  10.938 -0.3905 -0.9263  0.2243
  381MOL0     C50170   4.100   9.817  10.932 -0.1833 -0.5353 -0.2260
  381MOL0     C50171   4.002   9.873  10.826 -0.7010 -0.0758 -0.3850
  381MOL0     C50172   3.950  10.014  10.858 -0.0836  0.3794 -0.1614
  381MOL0     C50173   3.842  10.057  10.766 -0.7879  0.0258  0.5045
  381MOL0     C50174   3.888  10.057  10.616  0.1411  0.2482 -0.1107
  381MOL0     C50175   4.007  10.140  10.558  0.0617 -0.7588 -0.6161
  381MOL0     C50176   4.046  10.121  10.414  0.8204 -0.4833 -0.1984
  381MOL0     N50177   4.178  10.169  10.386 -0.8947 -0.5468  0.5743
  381MOL0     C50178   4.212  10.289  10.325 -0.2516  0.1194 -0.2998
  381MOL0     C50179   4.344  10.280  10.304 -1.0666 -0.2773 -0.5423
  381MOL0     C50180   4.422  10.390  10.237  0.1981  0.5030 -0.1790
  381MOL0     C50181   4.550  10.433  10.310 -0.1411  0.1591 -0.1707
  381MOL0     C50182   4.611  10.551  10.246 -0.1818 -0.2232 -0.1360
  381MOL0     C50183   4.692  10.535  10.116 -0.5144 -0.6814  0.2040
  381MOL0     O50184   4.714  10.669  10.066 -0.0405 -0.8577 -0.6536
  381MOL0     C50185   4.826  10.700   9.983 -0.6985  0.3693 -1.5027
  381MOL0     C50186   4.862  10.830   9.993  0.2374  0.5113 -0.2050
  381MOL0     C50187   4.982  10.875   9.942  0.4802 -0.3346 -0.2264
  381MOL0     C50188   5.070  10.789   9.873 -0.0728  0.7463 -0.8303
  381MOL0     C50189   5.197  10.834   9.807 -1.1893 -0.0493  0.4985
  381MOL0     O50190   5.205  10.965   9.797  0.5272 -0.3477  0.0309
  381MOL0     C50191   5.308  11.018   9.729 -0.2537 -0.8436  0.0697
  381MOL0     C50192   5.299  11.034   9.588  0.7763  0.3020 -0.1997
  381MOL0     C50193   5.397  11.083   9.514 -1.0828 -0.4250  0.2527
  381MOL0     C50194   5.508  11.141   9.569  0.7510  0.3011 -0.2439
  381MOL0     O50195   5.579  11.202   9.475 -0.1196  0.4963 -0.0763
  381MOL0     C50196   5.706  11.257   9.524 -0.5781  0.2695  1.1870
  381MOL0     C50197   5.797  11.316   9.415 -0.3560 -0.6210  0.5638
  381MOL0     C50198   5.892  11.412   9.486  0.1600  0.2619  1.5853
  381MOL0     C50199   5.982  11.477   9.381  0.7790  0.1843 -0.4550
  381MOL0     C50200   6.094  11.561   9.447 -0.0400  0.3411 -0.3916
  381MOL0     C50201   6.049  11.694   9.517 -0.1298  1.1902 -0.4503
  381MOL0     C50202   6.166  11.757   9.590 -0.6334 -0.0420 -0.9664
  381MOL0     C50203   6.296  11.771   9.512 -0.1625  0.4707  0.4254
  381MOL0    Cl50204   6.419  11.847   9.616 -0.3658  0.0425 -0.1072
  381MOL0     C50205   5.520  11.142   9.705 -0.0837 -0.0020 -0.4771
  381MOL0     C50206   5.421  11.082   9.784 -0.3270 -0.7663 -0.3313
  381MOL0     O50207   5.277  10.754   9.752  0.2055 -0.3371 -0.2003
  381MOL0     C50208   5.035  10.656   9.860 -0.4328  0.6565 -0.3407
  381MOL0     C50209   4.909  10.614   9.918  0.0811  1.4387  0.3458
  381MOL0     N50210   4.389  10.154  10.329 -0.1306  1.1772 -0.0043
  381MOL0     N50211   4.286  10.087  10.373  0.0758  0.0682  0.3950
  381MOL0     C50212   4.475  10.025  10.896  0.7702  0.2161  0.8781
  381MOL0     C50213   4.591  10.101  10.862  0.6360  1.1529  0.8251
  381MOL0     C50214   4.859  10.392  10.679 -0.1428 -0.2287  0.0284
  381MOL0     C50215   4.894  10.520  10.725 -0.3933 -0.3028  0.5314
  381MOL0     C50216   4.962  10.617  10.635  1.2114  0.1280 -0.3150
  381MOL0     C50217   5.010  10.572  10.514  0.4004 -0.0156  0.2195
  381MOL0     O50218   5.087  10.667  10.444  0.1867  0.6011 -0.2362
  381MOL0     C50219   5.156  10.627  10.322 -0.2180  0.2476  0.1093
  381MOL0     C50220   5.291  10.712  10.294  0.0428 -0.7803  0.4013
  381MOL0     C50221   5.331  10.700  10.152  0.3917  0.3276  0.5214
  381MOL0     C50222   5.412  10.813  10.094 -0.0091 -0.0718  0.3154
  381MOL0     C50223   5.544  10.814  10.158  0.0887 -1.0674  0.2408
  381MOL0     C50224   5.660  10.817  10.179  0.4654 -1.1931  0.2910
  381MOL0     C50225   4.974  10.443  10.470 -0.0092 -0.5529 -0.1132
  381MOL0     C50226   4.898  10.359  10.547  0.7335  0.4119  0.2127
  381MOL0     H50227   4.551  10.145  10.536 -0.2088  0.4972  1.3583
  381MOL0     H50228   4.335   9.997  10.591 -0.1067 -1.0152 -0.0875
  381MOL0     H50229   4.216   9.999  10.975  0.4570 -0.1725 -1.4099
  381MOL0     H50230   4.296   9.851  11.013 -0.1844  1.5612  1.6594
  381MOL0     H50231   4.049   9.829  11.028  0.9816 -0.1608  0.3614
  381MOL0     H50232   4.123   9.712  10.913  0.1442 -0.4194 -0.4863
  381MOL0     H50233   3.922   9.800  10.811 -1.7958  0.9384  0.3778
  381MOL0     H50234   4.058   9.890  10.733 -1.5395  4.7932 -0.2372
  381MOL0     H50235   3.909  10.017  10.960  1.3655  3.4232  0.4419
  381MOL0     H50236   4.025  10.092  10.852 -0.5269  0.7040 -1.9447
  381MOL0     H50237   3.801  10.154  10.796 -0.5756  0.8644 -1.7123
  381MOL0     H50238   3.772   9.973  10.767  0.2645 -0.8671  0.8177
  381MOL0     H50239   3.798  10.095  10.567 -0.4188  2.7016  2.5556
  381MOL0     H50240   3.904   9.954  10.583  1.6989  0.0939  1.0357
  381MOL0     H50241   3.978  10.242  10.584 -5.4419 -1.3641 -3.1032
  381MOL0     H50242   4.093  10.100  10.614 -1.0554 -2.8364 -0.2791
  381MOL0     H50243   3.965  10.172  10.362  0.3797  3.2893  3.5940
  381MOL0     H50244   4.041  10.015  10.390 -3.5057  0.1504 -3.3096
  381MOL0     H50245   4.143  10.367  10.295 -1.5142 -0.0010  2.0212
  381MOL0     H50246   4.369  10.479  10.201 -0.3837 -0.2141 -1.1546
  381MOL0     H50247   4.460  10.334  10.151  0.2251 -1.1084  0.8602
  381MOL0     H50248   4.624  10.354  10.297  2.3130  2.4035 -0.5334
  381MOL0     H50249   4.529  10.452  10.416 -0.4150  2.1520 -0.5472
  381MOL0     H50250   4.538  10.632  10.235  0.4504  0.2077 -1.4786
  381MOL0     H50251   4.678  10.584  10.326 -2.8006 -0.9246  2.5154
  381MOL0     H50252   4.626  10.476  10.052 -0.3394  1.1318 -1.7717
  381MOL0     H50253   4.784  10.481  10.140 -0.5571  0.2370  2.7721
  381MOL0     H50254   4.806  10.899  10.055 -2.6958 -2.0674  0.2669
  381MOL0     H50255   5.009  10.979   9.955  0.2986 -0.1845 -0.9852
  381MOL0     H50256   5.213  10.992   9.536 -0.7003  1.6883  1.0431
  381MOL0     H50257   5.386  11.086   9.406  0.2853  0.0894  0.1065
  381MOL0     H50258   5.758  11.178   9.579  1.9622  1.3922  0.5287
  381MOL0     H50259   5.698  11.343   9.592  2.6257  0.6012  1.3082
  381MOL0     H50260   5.733  11.374   9.347  0.3503 -0.2291  0.2238
  381MOL0     H50261   5.844  11.242   9.349 -1.8928 -0.0823 -1.2413
  381MOL0     H50262   5.958  11.356   9.552 -0.8559 -1.6018  1.0754
  381MOL0     H50263   5.832  11.488   9.539 -3.0764 -1.7535  1.1111
  381MOL0     H50264   6.029  11.397   9.323  3.7991  2.5523 -1.5266
  381MOL0     H50265   5.917  11.536   9.316 -2.9179 -3.7134 -0.7660
  381MOL0     H50266   6.146  11.588   9.354  1.5019  0.0610  0.3591
  381MOL0     H50267   6.168  11.505   9.505  0.8952  1.4809 -0.4316
  381MOL0     H50268   5.970  11.674   9.590  0.4419  0.9105  0.1005
  381MOL0     H50269   6.013  11.760   9.437 -2.9922  0.2559 -0.0398
  381MOL0     H50270   6.138  11.860   9.613  0.5348 -0.1691  1.3805
  381MOL0     H50271   6.193  11.713   9.687 -2.2776 -0.0735 -0.4878
  381MOL0     H50272   6.290  11.830   9.420 -2.4000  1.2396  0.9981
  381MOL0     H50273   6.326  11.666   9.500 -0.7062  0.4991 -1.4968
  381MOL0     H50274   5.608  11.191   9.745 -1.0220  1.3076  0.0449
  381MOL0     H50275   5.429  11.093   9.892 -0.9407 -1.8322 -0.1709
  381MOL0     H50276   5.101  10.588   9.806 -1.9095 -1.0127 -0.1230
  381MOL0     H50277   4.888  10.508   9.908  1.2461  0.7283  3.8960
  381MOL0     H50278   4.471   9.996  11.000  0.7678  2.3043  1.5109
  381MOL0     H50279   4.661  10.113  10.944  1.3370 -1.7340  0.7383
  381MOL0     H50280   4.869  10.553  10.826  0.6008  1.9197  0.1112
  381MOL0     H50281   4.988  10.719  10.662 -0.7950  0.9515 -1.3085
  381MOL0     H50282   5.081  10.652  10.247 -3.9335 -6.0930  0.9969
  381MOL0     H50283   5.155  10.518  10.326  0.7596  0.1820 -0.9686
  381MOL0     H50284   5.264  10.818  10.305  0.9435 -0.5591  0.5925
  381MOL0     H50285   5.378  10.689  10.356 -0.1970  1.6849  1.7759
  381MOL0     H50286   5.245  10.698  10.084  1.0174 -1.9135 -0.2827
  381MOL0     H50287   5.393  10.611  10.139  4.3669  2.3776  3.2149
  381MOL0     H50288   5.429  10.807   9.986 -1.1248 -1.6338  0.2043
  381MOL0     H50289   5.354  10.897  10.134 -1.3903 -1.6286  1.7478
  381MOL0     H50290   5.766  10.831  10.182  0.2379  1.0348 -0.0533
  381MOL0     H50291   4.995  10.405  10.371 -0.3114  0.8706 -0.7362
  381MOL0     H50292   4.882  10.265  10.496  4.6167 -1.3767  1.8767
  382MOL0     O50293   1.513   4.850   7.229  0.4611 -0.7979 -1.0751
  382MOL0     C50294   1.396   4.887   7.213  0.1167 -0.7638 -0.7085
  382MOL0     O50295   1.327   4.963   7.304  0.5711 -0.3649  0.0001
  382MOL0     C50296   1.385   4.983   7.422  0.9007 -1.1751  0.2894
  382MOL0     C50297   1.441   5.114   7.447  0.6379  0.2307 -0.8378
  382MOL0     C50298   1.477   5.141   7.581  0.4824  0.6222 -0.5151
  382MOL0     C50299   1.468   5.050   7.686  0.6950 -0.0711  0.2547
  382MOL0     O50300   1.503   5.077   7.815  0.5786 -0.0754 -0.1688
  382MOL0     C50301   1.398   5.122   7.898  0.0544  0.1900 -0.3723
  382MOL0     C50302   1.332   5.249   7.863  0.4710  0.6581  0.6039
  382MOL0     C50303   1.404   5.383   7.879 -0.6161 -0.6653  0.7280
  382MOL0     C50304   1.330   5.494   7.807 -0.7304  1.2843 -0.2934
  382MOL0     C50305   1.199   5.535   7.867  0.2260 -0.2704 -0.6304
  382MOL0     C50306   1.135   5.657   7.798  0.3759  0.3074 -0.0414
  382MOL0     C50307   1.024   5.600   7.697 -0.7109  0.1352 -0.7270
  382MOL0     C50308   0.970   5.695   7.590  0.5498 -0.8067 -0.0274
  382MOL0     N50309   0.872   5.798   7.628  0.1385 -0.5618 -1.0004
  382MOL0     C50310   0.734   5.773   7.640  0.4490 -0.5553 -0.6576
  382MOL0     C50311   0.675   5.895   7.642  0.4698 -0.2672  0.5845
  382MOL0     C50312   0.534   5.924   7.656  0.3204  0.2894  0.3733
  382MOL0     C50313   0.488   6.068   7.602 -0.2667  0.7462  0.0672
  382MOL0     C50314   0.354   6.109   7.664 -1.0950 -0.2717 -0.0961
  382MOL0     C50315   0.339   6.265   7.637 -0.0807 -0.1237  0.2325
  382MOL0     O50316   0.221   6.314   7.690  0.0768  0.2608 -0.5954
  382MOL0     C50317   0.099   6.293   7.629 -1.6769  1.1715  0.0315
  382MOL0     C50318   0.084   6.303   7.494  0.6727 -0.0066 -0.4332
  382MOL0     C50319  -0.040   6.280   7.431  0.1318  0.0743  0.0320
  382MOL0     C50320  -0.155   6.250   7.504 -0.1572  0.5133 -0.4645
  382MOL0     C50321  -0.287   6.211   7.438  0.7488 -0.7869  0.8879
  382MOL0     O50322  -0.389   6.176   7.521  1.1338 -0.1282  0.1531
  382MOL0     C50323  -0.507   6.133   7.464 -0.9998 -0.0851  0.4714
  382MOL0     C50324  -0.516   5.995   7.423  0.6215 -0.4184  0.1728
  382MOL0     C50325  -0.636   5.951   7.358 -1.0512  0.4734 -0.5698
  382MOL0     C50326  -0.736   6.037   7.334  0.0882 -0.3775  0.6388
  382MOL0     O50327  -0.833   5.993   7.249 -0.1274 -0.9379 -0.5338
  382MOL0     C50328  -0.962   5.949   7.297  0.1332 -0.1060  0.4509
  382MOL0     C50329  -0.982   5.794   7.319  0.5222  0.1030  0.3664
  382MOL0     C50330  -0.971   5.712   7.195 -1.1806 -1.0847 -0.1096
  382MOL0     C50331  -0.991   5.558   7.222  0.4570 -0.5544  0.1700
  382MOL0     C50332  -1.058   5.505   7.103  0.4970  0.6884 -1.0750
  382MOL0     C50333  -1.079   5.350   7.115  1.1454  0.2018  0.2515
  382MOL0     C50334  -1.207   5.290   7.028 -0.1773  0.3716  0.5660
  382MOL0     C50335  -1.353   5.329   7.077  0.0349 -0.2070 -0.3318
  382MOL0    Cl50336  -1.479   5.231   6.996 -0.3501 -0.6404 -0.5619
  382MOL0     C50337  -0.725   6.168   7.370 -0.1083 -0.8099 -0.8571
  382MOL0     C50338  -0.606   6.217   7.436  1.4594 -0.3906 -0.2983
  382MOL0     O50339  -0.285   6.210   7.313  0.2537  0.2902 -0.3136
  382MOL0     C50340  -0.129   6.241   7.653  0.5914  0.1386  0.9009
  382MOL0     C50341  -0.004   6.257   7.710  0.3495 -0.0117 -0.1555
  382MOL0     N50342   0.779   5.986   7.640  0.5311  0.0807  0.4168
  382MOL0     N50343   0.895   5.937   7.630  0.2974 -0.1296 -0.7381
  382MOL0     C50344   1.420   4.921   7.650 -0.0106 -0.4597 -0.7317
  382MOL0     C50345   1.378   4.894   7.523  0.7340  0.6241  0.1101
  382MOL0     C50346   1.347   4.864   7.078  1.2000 -0.3397  0.3626
  382MOL0     C50347   1.213   4.921   7.050  0.2590 -0.3481  0.2845
  382MOL0     C50348   1.158   4.895   6.922 -0.7077  0.1321  0.2524
  382MOL0     C50349   1.229   4.824   6.824 -0.2923  0.9101  0.1387
  382MOL0     O50350   1.181   4.781   6.701  0.8916  0.3919 -0.0409
  382MOL0     C50351   1.046   4.828   6.679 -0.4538  0.1732  0.1090
  382MOL0     C50352   0.992   4.784   6.538 -0.5888  0.6047 -0.6815
  382MOL0     C50353   0.841   4.789   6.535 -0.0230  0.7084 -0.5660
  382MOL0     C50354   0.783   4.763   6.402 -0.3228 -0.5521  0.6192
  382MOL0     C50355   0.791   4.878   6.311 -1.1152  0.4099  0.4301
  382MOL0     C50356   0.815   4.964   6.226 -0.5028 -0.0410 -1.6573
  382MOL0     C50357   1.360   4.779   6.858 -0.1606 -0.8694 -0.6586
  382MOL0     C50358   1.425   4.798   6.981 -0.5080  0.5290  0.0895
  382MOL0     H50359   1.434   5.192   7.371  0.1155 -1.4050 -2.5461
  382MOL0     H50360   1.508   5.243   7.602 -0.2036  0.8962 -0.8197
  382MOL0     H50361   1.441   5.140   7.997 -2.8031  4.7990  0.3514
  382MOL0     H50362   1.324   5.043   7.912  2.0903 -1.5563  1.2233
  382MOL0     H50363   1.246   5.261   7.930  1.8472  0.5815  2.4738
  382MOL0     H50364   1.301   5.243   7.759  2.2708  1.2065 -0.0011
  382MOL0     H50365   1.500   5.361   7.833  0.6339  0.0019  2.8663
  382MOL0     H50366   1.423   5.413   7.983  2.7807 -1.2686  0.3688
  382MOL0     H50367   1.394   5.581   7.821  0.3377  0.6103 -0.8908
  382MOL0     H50368   1.317   5.470   7.701 -0.5016  0.2639 -0.1039
  382MOL0     H50369   1.226   5.568   7.968 -0.4252 -0.6137 -0.3393
  382MOL0     H50370   1.124   5.458   7.888 -0.9694  1.3964  1.6057
  382MOL0     H50371   1.213   5.713   7.745 -1.2129  1.8485 -0.8685
  382MOL0     H50372   1.093   5.721   7.877 -3.0739 -1.6586 -0.0633
  382MOL0     H50373   1.077   5.516   7.651  1.5387  0.5569  0.9319
  382MOL0     H50374   0.948   5.549   7.757 -0.8836 -2.1600 -2.7512
  382MOL0     H50375   0.941   5.636   7.502  3.7831 -0.7230 -1.2896
  382MOL0     H50376   1.059   5.748   7.555  1.3684 -0.5421  2.3133
  382MOL0     H50377   0.688   5.675   7.652  3.5929 -2.1471 -0.4517
  382MOL0     H50378   0.514   5.903   7.762  1.2684 -2.8127  0.0232
  382MOL0     H50379   0.479   5.854   7.593 -1.2354  2.4958 -0.8712
  382MOL0     H50380   0.484   6.056   7.493  1.0158  0.2299  0.0580
  382MOL0     H50381   0.567   6.139   7.626  1.3223 -0.4708 -1.3136
  382MOL0     H50382   0.271   6.059   7.614 -1.5637  0.7325 -0.3556
  382MOL0     H50383   0.355   6.103   7.773  1.6839  3.2953  0.2888
  382MOL0     H50384   0.351   6.275   7.528  0.2956 -1.5653  0.1186
  382MOL0     H50385   0.414   6.327   7.686  1.6836 -1.1655 -1.0026
  382MOL0     H50386   0.165   6.322   7.425  0.9591  3.4827  0.6474
  382MOL0     H50387  -0.048   6.291   7.323 -1.7299 -0.2402  0.0962
  382MOL0     H50388  -0.436   5.928   7.450 -0.2601 -0.4399  3.0439
  382MOL0     H50389  -0.668   5.849   7.345 -1.7066  0.7582 -1.2760
  382MOL0     H50390  -1.034   5.979   7.219  0.1048 -1.4877 -0.0869
  382MOL0     H50391  -0.981   6.007   7.388 -0.5868  1.7334 -0.8052
  382MOL0     H50392  -1.087   5.784   7.349 -0.5279  3.1820 -1.7413
  382MOL0     H50393  -0.914   5.759   7.397 -2.5087 -1.8636  2.3238
  382MOL0     H50394  -0.872   5.727   7.152 -1.5709 -0.6719 -0.8825
  382MOL0     H50395  -1.053   5.745   7.130 -1.9334 -2.3995  0.1257
  382MOL0     H50396  -0.895   5.509   7.241  0.2825 -0.3401  1.7764
  382MOL0     H50397  -1.056   5.536   7.308 -3.7116  2.7537 -1.7618
  382MOL0     H50398  -1.006   5.525   7.009  0.3242 -2.1876 -1.8555
  382MOL0     H50399  -1.163   5.533   7.116 -0.0545 -2.3535  3.1150
  382MOL0     H50400  -1.079   5.321   7.220  1.1291 -1.1412 -0.0981
  382MOL0     H50401  -1.004   5.298   7.055  0.8006 -0.3422  0.2860
  382MOL0     H50402  -1.201   5.329   6.926  1.1352 -1.7848 -0.2535
  382MOL0     H50403  -1.190   5.183   7.016 -2.9468  0.0457 -1.5965
  382MOL0     H50404  -1.385   5.433   7.077  1.3252  0.2098 -0.0378
  382MOL0     H50405  -1.361   5.303   7.183  2.0672  3.3594  0.8667
  382MOL0     H50406  -0.811   6.227   7.341 -0.0661 -1.0884 -1.5896
  382MOL0     H50407  -0.613   6.317   7.477 -1.1062  0.6207 -2.8428
  382MOL0     H50408  -0.210   6.208   7.716 -0.6377 -1.7475 -1.4948
  382MOL0     H50409   0.010   6.255   7.818 -0.5403 -1.2134 -0.0427
  382MOL0     H50410   1.415   4.842   7.724 -0.7912 -0.5350 -0.8536
  382MOL0     H50411   1.339   4.795   7.501  0.8258  1.1845 -3.1012
  382MOL0     H50412   1.164   4.992   7.116  1.7909 -1.2524  2.5360
  382MOL0     H50413   1.056   4.927   6.902 -1.0118 -1.7740 -1.5561
  382MOL0     H50414   1.045   4.937   6.687  2.8940  0.3196  0.0447
  382MOL0     H50415   0.978   4.791   6.757 -2.0056  3.6264  0.6234
  382MOL0     H50416   1.028   4.855   6.462  1.1723 -1.8321 -2.2671
  382MOL0     H50417   1.029   4.685   6.510 -0.4772  1.0444 -2.2065
  382MOL0     H50418   0.806   4.881   6.584  1.7847  1.2611 -0.1934
  382MOL0     H50419   0.802   4.717   6.607 -0.3788  1.3267 -0.1331
  382MOL0     H50420   0.825   4.675   6.353  1.9020  0.1200  1.2291
  382MOL0     H50421   0.674   4.766   6.410 -0.4820 -1.4185 -0.8302
  382MOL0     H50422   0.833   5.041   6.153 -3.0062 -1.8320 -4.4238
  382MOL0     H50423   1.408   4.720   6.780 -0.7483 -0.5343 -1.2845
  382MOL0     H50424   1.527   4.760   6.988  0.0016  0.2345 -5.0484
  383MOL0     O50425   2.523   0.457   0.773  0.0797  0.3967  0.4766
  383MOL0     C50426   2.477   0.504   0.879  0.4103 -0.5275 -0.8677
  383MOL0     O50427   2.553   0.521   0.990 -0.1684 -0.6444 -0.1435
  383MOL0     C50428   2.654   0.435   1.006 -0.1212 -0.3172 -0.5678
  383MOL0     C50429   2.788   0.483   1.040  0.2062  0.6148  0.0471
  383MOL0     C50430   2.877   0.385   1.063  0.0273  0.1499  0.1166
  383MOL0     C50431   2.855   0.253   1.040  0.8630  0.3822  1.0825
  383MOL0     O50432   2.965   0.172   1.033 -0.4404 -0.5593  0.6081
  383MOL0     C50433   2.968   0.038   1.098  0.2311  0.7122 -0.2980
  383MOL0     C50434   3.110  -0.026   1.092 -0.8139  0.3412  0.3981
  383MOL0     C50435   3.157  -0.072   0.952 -0.0603 -0.0582  0.3953
  383MOL0     C50436   3.284  -0.162   0.955 -0.5520 -0.6078  0.8360
  383MOL0     C50437   3.408  -0.085   1.012  0.1823  0.1346  0.1468
  383MOL0     C50438   3.439   0.055   0.956 -0.8593  0.3295 -0.1077
  383MOL0     C50439   3.562   0.102   1.032 -0.5124 -0.3949 -0.1735
  383MOL0     C50440   3.697   0.080   0.944  0.4753 -1.0093  0.3064
  383MOL0     N50441   3.820   0.148   0.998 -0.3034  0.1484 -0.1390
  383MOL0     C50442   3.911   0.086   1.071 -0.4261  0.5385 -0.2868
  383MOL0     C50443   3.970   0.186   1.136 -0.6234  0.7140 -0.3762
  383MOL0     C50444   4.081   0.172   1.237 -0.5825 -0.5499 -0.2115
  383MOL0     C50445   4.203   0.101   1.174 -0.9290 -0.0069  0.3367
  383MOL0     C50446   4.320   0.114   1.269 -0.3382  0.3666  0.1636
  383MOL0     C50447   4.452   0.040   1.225  0.7372 -0.4361 -0.3665
  383MOL0     O50448   4.429  -0.085   1.157 -0.2198 -0.0481 -0.2728
  383MOL0     C50449   4.498  -0.102   1.037  0.5999  1.6028  0.7145
  383MOL0     C50450   4.617  -0.168   1.040  0.5154  0.2404 -0.0972
  383MOL0     C50451   4.692  -0.169   0.933 -0.3377  0.7952 -0.5651
  383MOL0     C50452   4.652  -0.126   0.806  0.5861 -0.2107 -0.5872
  383MOL0     C50453   4.749  -0.120   0.694  0.3159  0.0183 -0.1340
  383MOL0     O50454   4.858  -0.207   0.699 -0.5567  0.2606 -0.1949
  383MOL0     C50455   4.953  -0.205   0.601  0.4438 -0.3156 -0.1336
  383MOL0     C50456   5.085  -0.241   0.644 -0.4385  0.3348 -0.2381
  383MOL0     C50457   5.186  -0.265   0.551  0.5147 -0.8343 -0.5034
  383MOL0     C50458   5.163  -0.233   0.419  0.3805  0.0091  0.0385
  383MOL0     O50459   5.261  -0.225   0.321  0.4813  0.1351 -0.3364
  383MOL0     C50460   5.369  -0.327   0.338  0.2057  0.0913 -0.3762
  383MOL0     C50461   5.455  -0.335   0.219 -0.6704 -0.9083 -0.0188
  383MOL0     C50462   5.555  -0.221   0.196 -0.5750  0.6805 -0.3788
  383MOL0     C50463   5.652  -0.242   0.083  0.6058 -0.1908  0.7431
  383MOL0     C50464   5.735  -0.122   0.075 -0.6357  0.0831  0.4570
  383MOL0     C50465   5.873  -0.131   0.019 -0.1358  0.3378 -0.5655
  383MOL0     C50466   5.885  -0.189  -0.122 -0.9367 -0.1619 -1.7185
  383MOL0     C50467   6.001  -0.122  -0.191  0.2218 -0.4999  0.3842
  383MOL0    Cl50468   5.957   0.050  -0.227 -0.8612  0.5497 -0.0077
  383MOL0     C50469   5.044  -0.180   0.376 -1.1284  1.3382 -0.0632
  383MOL0     C50470   4.935  -0.176   0.466  0.3294 -0.5638  0.6291
  383MOL0     O50471   4.723  -0.035   0.606 -0.1082  0.2196 -0.8223
  383MOL0     C50472   4.523  -0.066   0.794 -0.0359 -0.3918  0.2086
  383MOL0     C50473   4.445  -0.059   0.919  0.1425  0.2888  0.6098
  383MOL0     N50474   3.916   0.308   1.090 -0.3745  0.5579  0.8969
  383MOL0     N50475   3.829   0.279   1.001 -0.2033 -0.4795  0.0291
  383MOL0     C50476   2.728   0.212   1.027 -0.2454  0.2511  0.6042
  383MOL0     C50477   2.625   0.294   1.008  0.7057  0.5209 -0.8710
  383MOL0     C50478   2.335   0.566   0.880 -0.6195 -0.2813  0.7993
  383MOL0     C50479   2.261   0.566   0.765  0.0373 -0.3220 -0.0923
  383MOL0     C50480   2.130   0.621   0.764  0.1542 -0.1970 -0.6785
  383MOL0     C50481   2.067   0.670   0.885 -0.1464  0.4834  0.1674
  383MOL0     O50482   1.939   0.733   0.889  0.3847  0.6021  0.0459
  383MOL0     C50483   1.874   0.764   1.016  0.1024 -0.9562 -0.1604
  383MOL0     C50484   1.746   0.846   0.969 -1.0083 -0.2962  0.0771
  383MOL0     C50485   1.668   0.895   1.081 -0.5540 -0.4360 -0.9641
  383MOL0     C50486   1.541   0.976   1.047 -0.8484  0.3419 -0.4616
  383MOL0     C50487   1.491   1.035   1.167 -1.0702 -0.5012  0.7461
  383MOL0     C50488   1.446   1.066   1.273  0.1534  0.2755  0.0121
  383MOL0     C50489   2.146   0.646   1.008 -0.0511 -0.1531 -0.2227
  383MOL0     C50490   2.277   0.594   0.999 -0.0142 -0.5859  0.6896
  383MOL0     H50491   2.801   0.586   1.071  1.7163 -0.4323  3.2760
  383MOL0     H50492   2.979   0.413   1.090 -1.3156  1.0751  5.1243
  383MOL0     H50493   2.899  -0.027   1.043 -1.8228  3.6062 -1.4453
  383MOL0     H50494   2.926   0.058   1.197 -0.1181  1.3375 -0.5662
  383MOL0     H50495   3.113  -0.116   1.154  1.1782  2.0639  3.0681
  383MOL0     H50496   3.181   0.045   1.137 -2.3522  0.0553  3.6057
  383MOL0     H50497   3.170   0.014   0.885 -0.4837 -1.1193 -1.1088
  383MOL0     H50498   3.070  -0.125   0.914 -1.6401  3.0744 -0.6887
  383MOL0     H50499   3.256  -0.251   1.012 -1.7896 -0.8782 -0.1403
  383MOL0     H50500   3.312  -0.177   0.850  0.8283 -1.5669  1.3140
  383MOL0     H50501   3.496  -0.149   1.001 -0.3792 -0.8014  0.9159
  383MOL0     H50502   3.393  -0.084   1.120  2.1480 -0.4727  0.4553
  383MOL0     H50503   3.359   0.124   0.985  0.7690  2.6035 -0.7202
  383MOL0     H50504   3.446   0.052   0.847 -1.3720  0.3316 -0.1452
  383MOL0     H50505   3.542   0.209   1.044 -1.5362 -0.6275  0.2936
  383MOL0     H50506   3.574   0.054   1.129  2.9433 -1.8794 -1.1845
  383MOL0     H50507   3.672   0.126   0.847 -2.8481 -1.3253  0.8872
  383MOL0     H50508   3.714  -0.027   0.929  0.8825 -0.9289  0.1908
  383MOL0     H50509   3.932  -0.020   1.081 -0.8529  0.6642  4.0478
  383MOL0     H50510   4.053   0.123   1.331 -1.3205 -1.3830 -0.8504
  383MOL0     H50511   4.102   0.277   1.260 -0.1466 -0.4132 -1.1710
  383MOL0     H50512   4.217   0.154   1.080 -0.5155 -1.9181 -0.7272
  383MOL0     H50513   4.185  -0.005   1.153  0.2492 -0.4864  1.5961
  383MOL0     H50514   4.359   0.214   1.291  0.5641 -0.0286  0.4299
  383MOL0     H50515   4.299   0.066   1.365  0.2702  1.0912  0.6761
  383MOL0     H50516   4.512   0.028   1.315  0.7075  0.9308 -0.1355
  383MOL0     H50517   4.505   0.102   1.152  1.2793 -2.3524 -1.6606
  383MOL0     H50518   4.659  -0.175   1.140 -1.1841  0.9117  0.6969
  383MOL0     H50519   4.798  -0.191   0.946 -0.5285 -0.3770 -0.8579
  383MOL0     H50520   5.098  -0.272   0.747  2.4114  2.1633  0.0675
  383MOL0     H50521   5.285  -0.301   0.576  0.9476  1.6754  1.9432
  383MOL0     H50522   5.327  -0.427   0.353 -0.0130  0.2706  0.2281
  383MOL0     H50523   5.439  -0.313   0.420 -1.8860  2.3744  1.1769
  383MOL0     H50524   5.393  -0.345   0.129 -0.0742 -3.7951 -0.2009
  383MOL0     H50525   5.503  -0.432   0.229 -2.3857 -1.6709  1.4377
  383MOL0     H50526   5.603  -0.208   0.294 -0.4537 -0.8066 -0.2224
  383MOL0     H50527   5.501  -0.128   0.176 -1.5232 -0.5718 -4.5775
  383MOL0     H50528   5.719  -0.328   0.097  1.4187  0.4388  0.7922
  383MOL0     H50529   5.607  -0.258  -0.015  1.5998 -1.2159  0.4320
  383MOL0     H50530   5.746  -0.073   0.172 -1.7599 -0.3843  0.8445
  383MOL0     H50531   5.681  -0.047   0.015 -1.1026  1.4104  2.4412
  383MOL0     H50532   5.929  -0.194   0.089  1.9156  1.4448 -1.1465
  383MOL0     H50533   5.914  -0.030   0.019 -3.0314  1.7594  3.3247
  383MOL0     H50534   5.904  -0.297  -0.119 -0.3857 -0.0477 -0.4987
  383MOL0     H50535   5.789  -0.167  -0.171 -3.8261 -0.7240  3.0121
  383MOL0     H50536   6.025  -0.174  -0.284  1.4466 -0.5924  0.7327
  383MOL0     H50537   6.089  -0.134  -0.127  1.3541  2.2935 -0.4864
  383MOL0     H50538   5.031  -0.149   0.273  0.3945  1.8700 -0.1097
  383MOL0     H50539   4.834  -0.157   0.429  0.0836 -0.0332  1.5145
  383MOL0     H50540   4.482  -0.015   0.707 -0.6070  2.3706  1.9610
  383MOL0     H50541   4.344  -0.020   0.923  0.4463  1.0328  1.6040
  383MOL0     H50542   2.712   0.104   1.033  0.1512  0.0443 -1.3651
  383MOL0     H50543   2.524   0.256   1.004  0.8829  0.0447 -0.9580
  383MOL0     H50544   2.300   0.528   0.671  0.0963 -1.1514  0.2594
  383MOL0     H50545   2.077   0.624   0.670  1.5335  0.4910 -1.4662
  383MOL0     H50546   1.931   0.822   1.089 -0.9047 -2.6285  2.0875
  383MOL0     H50547   1.850   0.675   1.075 -0.0225  0.1045  1.4411
  383MOL0     H50548   1.793   0.928   0.913  0.7851 -0.8915  0.6259
  383MOL0     H50549   1.680   0.785   0.906 -1.2830 -1.2146  1.2200
  383MOL0     H50550   1.725   0.961   1.148  2.0963 -0.2225 -3.2314
  383MOL0     H50551   1.631   0.810   1.138  1.2854 -0.4709  0.2479
  383MOL0     H50552   1.575   1.053   0.976 -2.0577  0.4809 -0.9024
  383MOL0     H50553   1.464   0.913   1.003 -0.3040 -2.1661  1.8788
  383MOL0     H50554   1.420   1.103   1.370  1.7315 -0.5104  0.7673
  383MOL0     H50555   2.108   0.649   1.109  0.1480 -3.0972  0.0310
  383MOL0     H50556   2.330   0.583   1.093 -2.0796 -4.7226  1.5982
  384MOL0     O50557   5.111   7.225   8.651  0.3880 -0.5325 -0.1559
  384MOL0     C50558   5.043   7.119   8.654 -0.0393  0.5184 -0.5780
  384MOL0     O50559   5.039   7.022   8.750  0.6428 -0.7468  0.6587
  384MOL0     C50560   5.071   7.079   8.874  0.7266  0.2205  0.6031
  384MOL0     C50561   4.972   7.101   8.967  0.0866 -0.4696  0.5585
  384MOL0     C50562   5.019   7.152   9.093  0.5892 -0.1594  0.5156
  384MOL0     C50563   5.148   7.182   9.122  0.4203 -0.2780 -0.2235
  384MOL0     O50564   5.188   7.229   9.243 -0.3305  0.0456  0.0118
  384MOL0     C50565   5.106   7.215   9.365  0.5863  0.3285  0.6131
  384MOL0     C50566   5.177   7.290   9.476  0.1958 -0.2282  0.2336
  384MOL0     C50567   5.186   7.446   9.438  0.0272 -0.0449 -0.1700
  384MOL0     C50568   5.221   7.540   9.553  0.8559 -0.5520  0.0803
  384MOL0     C50569   5.181   7.687   9.528  0.7390  0.8346 -0.3108
  384MOL0     C50570   5.295   7.756   9.469  0.4081 -0.0917 -0.7794
  384MOL0     C50571   5.257   7.899   9.461  0.6843 -1.0774 -0.1321
  384MOL0     C50572   5.371   7.979   9.389  0.2811 -0.3402 -0.6824
  384MOL0     N50573   5.316   8.121   9.376 -0.9235  0.3203  0.1032
  384MOL0     C50574   5.198   8.168   9.331 -0.2744 -0.8161 -0.2291
  384MOL0     C50575   5.214   8.302   9.320  0.2473  0.0434 -0.5872
  384MOL0     C50576   5.118   8.409   9.266  0.1077  0.2923  0.4289
  384MOL0     C50577   5.189   8.527   9.189  1.2568 -0.2073  0.6203
  384MOL0     C50578   5.082   8.612   9.116  0.5711  0.0401 -0.0167
  384MOL0     C50579   5.137   8.736   9.047  0.0817 -0.7526  1.6573
  384MOL0     O50580   5.174   8.703   8.910 -0.5908  0.2524  0.0364
  384MOL0     C50581   5.266   8.784   8.837 -0.1434 -0.0841 -0.7179
  384MOL0     C50582   5.270   8.752   8.702 -0.0461 -0.0342  0.0074
  384MOL0     C50583   5.363   8.809   8.620 -0.1307 -0.1699 -0.8328
  384MOL0     C50584   5.447   8.903   8.664  0.4461  0.4260 -0.0036
  384MOL0     C50585   5.556   8.943   8.576  0.3938  0.6506  1.2882
  384MOL0     O50586   5.541   8.931   8.437  0.1290  0.0792 -0.5769
  384MOL0     C50587   5.654   8.962   8.366  0.6589  0.4143 -0.2848
  384MOL0     C50588   5.752   8.867   8.341  0.9306  0.6534 -0.4174
  384MOL0     C50589   5.869   8.898   8.267  0.0003  0.5127 -0.2968
  384MOL0     C50590   5.891   9.025   8.211  0.3145 -0.6662 -0.2772
  384MOL0     O50591   6.012   9.052   8.149  0.0604  0.2712  0.1993
  384MOL0     C50592   6.036   9.189   8.094  0.6276  0.7061  0.2721
  384MOL0     C50593   6.174   9.200   8.043 -0.3322  0.5258  0.1117
  384MOL0     C50594   6.200   9.101   7.932  0.6063  0.1147 -0.2263
  384MOL0     C50595   6.338   9.125   7.864 -0.2243  0.6966  0.0983
  384MOL0     C50596   6.397   9.005   7.785  0.2987  0.7851  0.7844
  384MOL0     C50597   6.334   8.994   7.647  0.1523  0.6796  0.7187
  384MOL0     C50598   6.380   8.865   7.575  0.0598  0.1635  0.3527
  384MOL0     C50599   6.288   8.827   7.461 -0.4954  0.3872  0.1604
  384MOL0    Cl50600   6.352   8.663   7.417 -0.2859 -0.1960  0.1147
  384MOL0     C50601   5.783   9.112   8.221  0.1059 -1.2284  0.2284
  384MOL0     C50602   5.670   9.089   8.302  0.8082  0.3191 -0.4847
  384MOL0     O50603   5.664   8.977   8.628  0.8439  0.1956  0.4735
  384MOL0     C50604   5.448   8.933   8.800 -0.3815 -1.0316 -1.1570
  384MOL0     C50605   5.348   8.880   8.887  0.2048 -0.1887  0.3809
  384MOL0     N50606   5.339   8.328   9.353 -0.1058  0.9234  0.8259
  384MOL0     N50607   5.397   8.225   9.392  0.3989 -0.0172 -0.9226
  384MOL0     C50608   5.244   7.151   9.027 -0.7907 -0.3532 -0.8381
  384MOL0     C50609   5.210   7.104   8.899 -0.3926  0.2671 -0.2431
  384MOL0     C50610   4.941   7.094   8.543  0.6241  0.1300  0.2207
  384MOL0     C50611   4.927   7.194   8.441 -0.7771  0.4340 -0.4808
  384MOL0     C50612   4.840   7.190   8.330 -0.5021  0.4955 -1.2614
  384MOL0     C50613   4.754   7.079   8.337  0.5332  0.1385  0.2123
  384MOL0     O50614   4.649   7.078   8.250  0.2677  0.4997  0.3870
  384MOL0     C50615   4.676   6.984   8.144  0.2793  0.4689 -0.9666
  384MOL0     C50616   4.565   7.005   8.046 -1.4501  0.1375 -0.1274
  384MOL0     C50617   4.561   6.903   7.937  0.7121 -0.2039  0.1572
  384MOL0     C50618   4.463   6.779   7.970 -0.1405 -0.0742  0.1497
  384MOL0     C50619   4.536   6.687   8.057  0.1419 -0.0017  0.8148
  384MOL0     C50620   4.595   6.619   8.142  1.6874  1.1174  0.2705
  384MOL0     C50621   4.758   6.972   8.429 -0.3285  0.6129  0.1009
  384MOL0     C50622   4.852   6.981   8.533 -0.9570 -1.0742  0.1818
  384MOL0     H50623   4.867   7.078   8.960 -0.7671  2.6842  1.5762
  384MOL0     H50624   4.942   7.169   9.167  0.5183  3.4662 -0.1984
  384MOL0     H50625   5.091   7.110   9.392 -3.0809  0.4994 -0.1988
  384MOL0     H50626   5.010   7.261   9.340  0.9795  0.3550 -0.9818
  384MOL0     H50627   5.277   7.253   9.496 -1.2928 -3.9350  1.6284
  384MOL0     H50628   5.124   7.283   9.571  0.9413  0.0541  0.6762
  384MOL0     H50629   5.083   7.471   9.411  0.6241  1.1985 -1.3765
  384MOL0     H50630   5.251   7.451   9.350 -2.3259 -2.3392 -2.1882
  384MOL0     H50631   5.170   7.503   9.643  0.7387  0.4242  0.4306
  384MOL0     H50632   5.328   7.545   9.574  0.4188  2.6836  2.3247
  384MOL0     H50633   5.165   7.738   9.623  1.0921 -2.2663  1.5436
  384MOL0     H50634   5.092   7.699   9.465  1.3295 -0.1143 -1.3788
  384MOL0     H50635   5.308   7.720   9.366 -0.2918  2.1017 -1.6894
  384MOL0     H50636   5.385   7.745   9.530 -1.6069  1.0581  2.5951
  384MOL0     H50637   5.162   7.909   9.408  1.2494  0.2807 -0.9427
  384MOL0     H50638   5.241   7.943   9.559  2.3317 -1.4172  0.3233
  384MOL0     H50639   5.387   7.936   9.290 -3.1500  1.9817 -2.4423
  384MOL0     H50640   5.465   7.983   9.444 -0.5216 -0.2614  0.7586
  384MOL0     H50641   5.107   8.115   9.303 -0.9553 -0.9571  2.0838
  384MOL0     H50642   5.047   8.441   9.344  0.3255 -2.7095  2.0325
  384MOL0     H50643   5.046   8.359   9.200 -1.4864  1.6275  1.0600
  384MOL0     H50644   5.252   8.474   9.117  2.5831  2.9051 -0.7200
  384MOL0     H50645   5.244   8.588   9.262  0.9976 -0.7230  1.2473
  384MOL0     H50646   5.036   8.557   9.033 -0.2163 -0.9404  1.0310
  384MOL0     H50647   5.000   8.641   9.182  0.9234  1.6673 -0.2549
  384MOL0     H50648   5.233   8.764   9.091 -0.4205  3.1841  0.6726
  384MOL0     H50649   5.073   8.824   9.048  3.8965  2.3143  1.2689
  384MOL0     H50650   5.207   8.670   8.673  1.0162 -2.3762  3.6180
  384MOL0     H50651   5.366   8.766   8.520 -0.3608  1.3215 -1.5200
  384MOL0     H50652   5.723   8.775   8.389 -2.6294  1.8824  0.0542
  384MOL0     H50653   5.946   8.822   8.266 -1.7638 -1.3827 -0.4204
  384MOL0     H50654   6.030   9.269   8.169  3.6722 -0.3393  1.7699
  384MOL0     H50655   5.959   9.207   8.018 -0.6219  2.6061  1.8614
  384MOL0     H50656   6.251   9.168   8.114  1.0737 -3.6324 -2.8729
  384MOL0     H50657   6.197   9.302   8.011 -0.5981  1.4697  2.6982
  384MOL0     H50658   6.119   9.113   7.860  0.0954  2.0467  0.6060
  384MOL0     H50659   6.205   9.002   7.977 -0.6180  0.4078  0.6195
  384MOL0     H50660   6.324   9.207   7.793 -2.7752  1.4247  1.3280
  384MOL0     H50661   6.412   9.157   7.939  1.2510  0.1565 -1.0655
  384MOL0     H50662   6.355   8.929   7.852 -2.4108  1.3682 -0.1189
  384MOL0     H50663   6.506   9.011   7.784  0.4030 -0.1237  2.6569
  384MOL0     H50664   6.364   9.077   7.583  2.9595 -1.7527 -1.4213
  384MOL0     H50665   6.226   9.004   7.659  0.2982  2.3084  0.9004
  384MOL0     H50666   6.473   8.891   7.523 -1.3587 -1.1122 -3.1531
  384MOL0     H50667   6.383   8.781   7.644  1.7170 -1.4972 -1.5992
  384MOL0     H50668   6.296   8.899   7.379  0.6191 -1.3770 -1.3795
  384MOL0     H50669   6.186   8.806   7.494 -1.9516  3.8429 -1.6224
  384MOL0     H50670   5.789   9.210   8.175 -2.2120 -1.0769  0.0935
  384MOL0     H50671   5.585   9.157   8.302 -0.6267 -1.4170 -0.9326
  384MOL0     H50672   5.522   9.002   8.841 -1.2499 -1.0721  0.5370
  384MOL0     H50673   5.362   8.889   8.994  0.4392  1.0302  0.2530
  384MOL0     H50674   5.347   7.170   9.053 -1.4773  2.0984  0.3295
  384MOL0     H50675   5.282   7.094   8.819 -1.7508  2.1418 -1.7949
  384MOL0     H50676   4.977   7.290   8.453 -0.0534  0.0445 -0.3757
  384MOL0     H50677   4.833   7.271   8.257  1.2527  0.6780 -1.2587
  384MOL0     H50678   4.679   6.882   8.184  0.5245  0.8299 -0.0485
  384MOL0     H50679   4.774   7.002   8.100  1.8123 -1.6679  1.2784
  384MOL0     H50680   4.471   7.019   8.100 -0.0816 -0.7500  2.6400
  384MOL0     H50681   4.576   7.099   7.992 -1.9180  0.8060  0.9189
  384MOL0     H50682   4.657   6.885   7.889  1.0789  3.3981 -0.7188
  384MOL0     H50683   4.509   6.952   7.855 -2.0345  0.0898  1.9473
  384MOL0     H50684   4.367   6.806   8.015 -0.7160 -0.4073 -0.8372
  384MOL0     H50685   4.442   6.725   7.877 -2.4291  0.3775  0.3419
  384MOL0     H50686   4.644   6.572   8.225  3.0862  1.5959 -0.2496
  384MOL0     H50687   4.683   6.893   8.424 -1.8073  1.9094  0.9230
  384MOL0     H50688   4.864   6.894   8.597 -2.2951 -1.7237 -0.3920
  385MOL0     O50689  10.052   7.678  11.179  0.6911 -0.2950  0.6832
  385MOL0     C50690   9.934   7.661  11.165  0.5912  0.9052  0.3119
  385MOL0     O50691   9.860   7.703  11.060 -0.1571 -0.8809  0.2783
  385MOL0     C50692   9.912   7.801  10.977 -0.6931  0.2134  0.0291
  385MOL0     C50693   9.895   7.785  10.838 -0.5237  0.5303  0.6446
  385MOL0     C50694   9.933   7.890  10.744 -0.4048 -0.4941  0.1300
  385MOL0     C50695  10.002   8.005  10.795  0.4705 -0.6936  0.5029
  385MOL0     O50696  10.069   8.104  10.725 -0.7235 -0.8794  0.1380
  385MOL0     C50697  10.037   8.113  10.584 -0.2855 -0.2471 -0.3949
  385MOL0     C50698  10.055   8.257  10.525  0.8146  0.2613  0.1568
  385MOL0     C50699   9.944   8.359  10.577  0.0814  0.2574 -0.4971
  385MOL0     C50700   9.937   8.487  10.497  0.6325 -0.0016  0.2557
  385MOL0     C50701   9.793   8.521  10.445 -0.1099  0.7893  0.2327
  385MOL0     C50702   9.717   8.601  10.553  0.7575 -0.0276  0.5004
  385MOL0     C50703   9.732   8.756  10.529  1.2547 -0.2440 -0.1393
  385MOL0     C50704   9.618   8.837  10.602 -0.0970 -0.6969  0.1120
  385MOL0     N50705   9.495   8.875  10.523  0.5061  0.2335 -0.3599
  385MOL0     C50706   9.375   8.823  10.540 -0.2242  0.2066  0.2296
  385MOL0     C50707   9.301   8.898  10.459 -0.3150  0.4179  0.3893
  385MOL0     C50708   9.152   8.880  10.437  0.4447 -0.1340 -0.1408
  385MOL0     C50709   9.085   8.827  10.570  0.7804  0.0981  0.0526
  385MOL0     C50710   8.937   8.853  10.580  0.2733 -0.2382 -0.1337
  385MOL0     C50711   8.873   8.848  10.715  0.2026  0.9288  0.1368
  385MOL0     O50712   8.893   8.712  10.766 -0.0835 -0.4404  0.1922
  385MOL0     C50713   8.881   8.676  10.896 -0.9228 -0.0814 -0.4901
  385MOL0     C50714   8.852   8.760  11.001 -0.1849 -1.1883  1.1035
  385MOL0     C50715   8.845   8.724  11.137  0.9602  0.3700 -0.7107
  385MOL0     C50716   8.863   8.581  11.165  0.3070 -0.3069 -0.2239
  385MOL0     C50717   8.853   8.528  11.304  1.0250 -0.6070 -1.0843
  385MOL0     O50718   8.872   8.393  11.327  0.6455  0.2770  0.4109
  385MOL0     C50719   8.867   8.352  11.462  0.0397  0.3080  0.2788
  385MOL0     C50720   8.949   8.399  11.561 -1.1285 -0.5973  0.3996
  385MOL0     C50721   8.956   8.331  11.687  0.5924 -1.1312 -0.0835
  385MOL0     C50722   8.867   8.233  11.723 -0.4896  0.8938  0.0168
  385MOL0     O50723   8.882   8.168  11.848 -0.2222 -0.6721  0.3653
  385MOL0     C50724   8.894   8.021  11.838 -0.6825 -0.2581  0.6582
  385MOL0     C50725   8.990   7.982  11.939  0.1007  0.4506 -1.0344
  385MOL0     C50726   8.980   7.830  11.953  0.1282  0.5902  0.1689
  385MOL0     C50727   9.069   7.778  12.062 -0.2096  0.5014  0.6967
  385MOL0     C50728   9.089   7.624  12.042 -0.2007 -0.0164  0.0045
  385MOL0     C50729   9.179   7.563  12.146  0.7999 -0.1780  0.3007
  385MOL0     C50730   9.338   7.571  12.114  0.4075 -0.1061 -0.1270
  385MOL0     C50731   9.401   7.500  12.233  0.1408 -0.4824  0.5454
  385MOL0    Cl50732   9.577   7.508  12.200  0.1371  0.1193  0.4323
  385MOL0     C50733   8.775   8.194  11.629  0.4965 -0.5699  0.5538
  385MOL0     C50734   8.775   8.257  11.497 -0.2610 -0.1668  0.7692
  385MOL0     O50735   8.831   8.611  11.398  0.3473  0.5683  0.3225
  385MOL0     C50736   8.897   8.496  11.061 -0.6328 -0.7677 -0.7162
  385MOL0     C50737   8.908   8.549  10.934 -0.7926  0.7274  0.1568
  385MOL0     N50738   9.380   8.995  10.395 -0.0681  0.0773 -0.1663
  385MOL0     N50739   9.497   8.993  10.444 -1.4207 -0.6516  0.9958
  385MOL0     C50740  10.015   8.018  10.932 -0.4330  0.3658 -0.8992
  385MOL0     C50741   9.972   7.925  11.022  0.6677 -0.0615 -0.1345
  385MOL0     C50742   9.872   7.547  11.252  0.3811  0.8260  0.3438
  385MOL0     C50743   9.937   7.493  11.361  0.1042  0.9839  0.1817
  385MOL0     C50744   9.883   7.381  11.438  0.8146 -0.5244 -0.8832
  385MOL0     C50745   9.764   7.322  11.393  0.0930 -0.1674  0.2746
  385MOL0     O50746   9.720   7.212  11.462 -0.0789 -0.7387  0.0960
  385MOL0     C50747   9.649   7.097  11.410  0.0903 -0.3220  0.1369
  385MOL0     C50748   9.741   6.978  11.405  0.7347  0.0706 -0.4401
  385MOL0     C50749   9.863   6.989  11.326 -0.6745 -1.0356  0.7477
  385MOL0     C50750   9.970   6.885  11.375  0.2304  0.2498 -0.3379
  385MOL0     C50751  10.063   6.876  11.266 -0.4802  0.4182 -1.3521
  385MOL0     C50752  10.131   6.905  11.171  0.6805  0.5032 -0.0624
  385MOL0     C50753   9.689   7.388  11.296 -0.5956 -0.2955  0.3368
  385MOL0     C50754   9.743   7.499  11.222  0.9745 -0.8833 -0.9055
  385MOL0     H50755   9.846   7.696  10.801 -1.4126  1.5168 -0.6692
  385MOL0     H50756   9.934   7.854  10.642  2.7069 -0.7855  0.1659
  385MOL0     H50757   9.931   8.088  10.577  0.3247 -2.6538 -2.7531
  385MOL0     H50758  10.104   8.053  10.522  1.4976  0.3921  0.8157
  385MOL0     H50759  10.028   8.249  10.420 -1.7915  2.8949  0.4869
  385MOL0     H50760  10.159   8.288  10.540  0.8597  0.7162 -0.9954
  385MOL0     H50761   9.947   8.385  10.683 -2.7087 -2.3939  0.3862
  385MOL0     H50762   9.844   8.314  10.573  0.4432 -0.9864  2.2661
  385MOL0     H50763   9.973   8.579  10.544 -2.2373  0.0590  2.6386
  385MOL0     H50764   9.994   8.462  10.407 -0.9238 -2.9350 -0.0270
  385MOL0     H50765   9.728   8.441  10.409 -3.2501  1.3941  3.9217
  385MOL0     H50766   9.810   8.590  10.363  0.1907 -0.0692 -0.4485
  385MOL0     H50767   9.752   8.569  10.652 -0.8619 -0.0054  1.1078
  385MOL0     H50768   9.609   8.596  10.542  0.6295  1.2475  0.9938
  385MOL0     H50769   9.821   8.783  10.587  1.5576 -0.3734 -0.5450
  385MOL0     H50770   9.742   8.776  10.422 -2.2303  4.6236  0.0662
  385MOL0     H50771   9.660   8.933  10.634 -1.5205 -0.7358  2.2515
  385MOL0     H50772   9.595   8.796  10.700  0.6322 -0.6054  0.3259
  385MOL0     H50773   9.347   8.738  10.602  0.6884  2.2323  3.6612
  385MOL0     H50774   9.144   8.790  10.376 -0.0641 -0.3885  0.2920
  385MOL0     H50775   9.103   8.969  10.397 -1.0767 -1.1247 -0.5461
  385MOL0     H50776   9.128   8.878  10.656  1.5743 -0.5374  0.0516
  385MOL0     H50777   9.095   8.718  10.584  2.3084  0.2236  0.1698
  385MOL0     H50778   8.926   8.955  10.544 -1.0329 -1.1711 -2.6187
  385MOL0     H50779   8.889   8.778  10.516  1.5408 -0.6039 -0.6873
  385MOL0     H50780   8.769   8.870  10.693  0.1895  0.0608 -0.7500
  385MOL0     H50781   8.923   8.917  10.784  0.6994 -0.2673  1.0044
  385MOL0     H50782   8.832   8.866  10.990  1.2233 -0.5977  3.4475
  385MOL0     H50783   8.833   8.797  11.216 -0.9701 -1.2061  0.5713
  385MOL0     H50784   9.007   8.490  11.551 -1.0353 -0.6241  0.7069
  385MOL0     H50785   9.017   8.351  11.774  3.3828 -4.8888 -0.9167
  385MOL0     H50786   8.932   7.986  11.742  0.1988 -3.0283  1.9128
  385MOL0     H50787   8.794   7.980  11.858 -1.1521  1.7764  3.0189
  385MOL0     H50788   8.946   8.025  12.030 -3.2336 -1.1737 -1.7160
  385MOL0     H50789   9.092   8.018  11.925 -0.1514  0.5717 -2.6776
  385MOL0     H50790   9.011   7.788  11.857 -0.9066  1.1180 -0.4144
  385MOL0     H50791   8.875   7.804  11.968  0.6055 -1.5183  0.1616
  385MOL0     H50792   9.163   7.832  12.044 -0.7742  0.9998 -0.9600
  385MOL0     H50793   9.035   7.807  12.162  0.5402 -0.3049  1.2041
  385MOL0     H50794   9.114   7.594  11.940  2.3212 -2.7741  1.2731
  385MOL0     H50795   8.993   7.579  12.070 -2.3494  4.0585 -0.1620
  385MOL0     H50796   9.145   7.459  12.147 -0.5111  0.2290  1.1368
  385MOL0     H50797   9.144   7.610  12.238  0.4861 -2.7354  1.5782
  385MOL0     H50798   9.355   7.525  12.016 -3.5807 -0.3236 -0.8642
  385MOL0     H50799   9.370   7.675  12.111 -2.6984  0.9127 -2.1517
  385MOL0     H50800   9.368   7.399  12.259 -0.1823 -0.2778  0.9510
  385MOL0     H50801   9.383   7.544  12.332  2.7963  1.7274  0.1808
  385MOL0     H50802   8.702   8.120  11.661  0.3223 -0.2523  0.8879
  385MOL0     H50803   8.700   8.226  11.425 -0.2880 -0.9300  1.1054
  385MOL0     H50804   8.925   8.393  11.077  0.1685 -0.3263  0.8955
  385MOL0     H50805   8.925   8.480  10.852 -2.3291  0.6416 -0.1336
  385MOL0     H50806  10.048   8.112  10.974 -2.3953 -0.1817  2.1241
  385MOL0     H50807   9.971   7.942  11.129  1.9513  2.4804 -0.4699
  385MOL0     H50808  10.035   7.525  11.395  0.6999 -0.2642 -0.3079
  385MOL0     H50809   9.945   7.351  11.522  0.2219 -0.3499 -0.3834
  385MOL0     H50810   9.606   7.125  11.313 -1.0398  1.2097  1.0429
  385MOL0     H50811   9.571   7.082  11.485  0.1293  0.4265  0.3369
  385MOL0     H50812   9.774   6.968  11.510 -0.8939 -0.2923  0.0649
  385MOL0     H50813   9.676   6.892  11.388 -0.3922  0.8729 -0.2788
  385MOL0     H50814   9.899   7.088  11.354 -1.3695 -0.7460  0.6437
  385MOL0     H50815   9.857   6.983  11.217  0.9814  3.0316  0.2340
  385MOL0     H50816  10.007   6.909  11.475 -5.7839  1.9708  1.8948
  385MOL0     H50817   9.925   6.786  11.391  1.2609 -0.4996 -1.8727
  385MOL0     H50818  10.181   6.917  11.077  1.8378 -1.4654  0.2288
  385MOL0     H50819   9.588   7.353  11.278 -1.7700  2.3617  1.2784
  385MOL0     H50820   9.681   7.534  11.139 -3.6777 -0.2892  2.3867
  386MOL0     O50821   9.100   6.091   7.309 -0.0754  0.5940 -0.1964
  386MOL0     C50822   9.151   6.039   7.212  0.5045  0.9060 -0.1437
  386MOL0     O50823   9.096   6.038   7.078 -0.0276  0.3128 -0.4780
  386MOL0     C50824   8.982   6.098   7.057  0.2483  0.2133  0.0213
  386MOL0     C50825   8.963   6.210   6.981 -0.0503  0.0241 -1.0832
  386MOL0     C50826   8.832   6.265   6.974  0.4197 -0.3377 -0.5475
  386MOL0     C50827   8.719   6.206   7.026  0.7556  0.7128 -0.3923
  386MOL0     O50828   8.593   6.236   6.982 -0.2195  0.1330 -0.7507
  386MOL0     C50829   8.534   6.365   7.026  0.2425 -0.1732 -0.7538
  386MOL0     C50830   8.405   6.354   7.110  0.0041  0.4764  0.7168
  386MOL0     C50831   8.443   6.317   7.260  0.5408  0.0788  1.3604
  386MOL0     C50832   8.325   6.272   7.336  0.0357  0.1538 -0.2647
  386MOL0     C50833   8.360   6.208   7.476 -0.2411  0.1225  1.1041
  386MOL0     C50834   8.425   6.065   7.458  0.3001 -0.2064  0.3504
  386MOL0     C50835   8.422   6.001   7.586  0.0067 -0.5388  0.4083
  386MOL0     C50836   8.295   5.932   7.631  1.1263 -0.1402  0.2819
  386MOL0     N50837   8.307   5.856   7.755 -0.3969  0.6069  0.0200
  386MOL0     C50838   8.357   5.903   7.872  0.4092  0.0140 -0.0172
  386MOL0     C50839   8.368   5.793   7.945  0.3555  0.0821  0.2294
  386MOL0     C50840   8.425   5.795   8.082 -0.1585 -0.2367  0.1788
  386MOL0     C50841   8.573   5.757   8.091 -0.3555 -0.3117 -0.0218
  386MOL0     C50842   8.630   5.761   8.227 -0.6757 -0.6417 -0.2861
  386MOL0     C50843   8.776   5.736   8.224 -0.8517  0.3241 -0.5260
  386MOL0     O50844   8.823   5.637   8.315  0.5028  0.1612  0.0438
  386MOL0     C50845   8.960   5.620   8.324  1.3874 -1.0076 -0.9274
  386MOL0     C50846   9.040   5.727   8.366 -0.3623 -0.6681  0.1195
  386MOL0     C50847   9.179   5.715   8.379  0.6821 -0.2330 -0.1557
  386MOL0     C50848   9.241   5.590   8.343 -0.5554  0.4186 -0.6435
  386MOL0     C50849   9.386   5.567   8.373 -0.4359 -0.8086 -0.0842
  386MOL0     O50850   9.442   5.469   8.300 -0.2131  0.5055  0.0802
  386MOL0     C50851   9.562   5.412   8.347 -0.4305  0.2016  0.3902
  386MOL0     C50852   9.677   5.406   8.273 -0.1366  0.1093  0.5706
  386MOL0     C50853   9.794   5.351   8.321 -0.6027 -0.2603 -0.5129
  386MOL0     C50854   9.805   5.304   8.451  0.8089  0.5079 -0.8526
  386MOL0     O50855   9.923   5.269   8.520 -0.4827  0.4089  0.2693
  386MOL0     C50856  10.037   5.222   8.434  0.5213 -0.8868 -0.6938
  386MOL0     C50857  10.146   5.162   8.513 -0.6037  0.3128 -0.7136
  386MOL0     C50858  10.293   5.180   8.448  1.1703  0.0574 -0.3823
  386MOL0     C50859  10.347   5.325   8.461 -0.4813 -0.3575  0.3870
  386MOL0     C50860  10.494   5.338   8.441  0.0115  0.7460 -0.0446
  386MOL0     C50861  10.546   5.466   8.506 -0.5835  0.8048  0.8420
  386MOL0     C50862  10.520   5.595   8.427  0.2955 -0.4931 -0.5589
  386MOL0     C50863  10.603   5.644   8.311  0.0123  0.8267  0.1035
  386MOL0    Cl50864  10.527   5.782   8.214  0.2742  0.0986  0.1005
  386MOL0     C50865   9.690   5.322   8.535  0.4691 -0.4254  0.0391
  386MOL0     C50866   9.570   5.364   8.475  0.5447  0.3379 -0.2608
  386MOL0     O50867   9.453   5.640   8.450 -0.2693  0.5580 -0.0384
  386MOL0     C50868   9.156   5.487   8.306 -0.7215  0.9704 -0.2053
  386MOL0     C50869   9.016   5.500   8.296 -0.7193  0.2100  0.9857
  386MOL0     N50870   8.333   5.682   7.871  0.9877  0.2582 -0.7907
  386MOL0     N50871   8.286   5.718   7.759 -0.0880 -0.2879  0.2633
  386MOL0     C50872   8.740   6.085   7.102 -0.1590 -0.6141  1.5700
  386MOL0     C50873   8.873   6.041   7.112  0.2705  0.0301  0.2236
  386MOL0     C50874   9.283   5.972   7.238  0.7791 -0.1837 -0.2772
  386MOL0     C50875   9.351   5.917   7.135 -0.1788 -0.6698  0.5658
  386MOL0     C50876   9.459   5.825   7.170 -0.0737 -0.2768  0.8308
  386MOL0     C50877   9.504   5.803   7.303  0.8240 -0.5352  0.2895
  386MOL0     O50878   9.622   5.739   7.315 -0.0386 -0.2368  0.3545
  386MOL0     C50879   9.685   5.743   7.443  0.0423 -1.0679 -1.2646
  386MOL0     C50880   9.835   5.746   7.431 -0.0730  0.1861 -0.7849
  386MOL0     C50881   9.894   5.608   7.390  0.6061  0.2316 -0.0898
  386MOL0     C50882  10.047   5.614   7.360 -0.2244 -0.0300 -0.3071
  386MOL0     C50883  10.118   5.610   7.489  0.7637  0.1606 -0.3728
  386MOL0     C50884  10.165   5.620   7.597 -0.9009 -0.8354 -0.7237
  386MOL0     C50885   9.429   5.868   7.405  0.7399 -1.5428 -0.3540
  386MOL0     C50886   9.320   5.947   7.374  0.3138  0.3230  0.5089
  386MOL0     H50887   9.045   6.257   6.926 -2.2445  3.7209 -1.5630
  386MOL0     H50888   8.825   6.357   6.917  2.8059  0.0707 -0.2809
  386MOL0     H50889   8.522   6.418   6.931  1.3190  0.5902 -0.4811
  386MOL0     H50890   8.606   6.430   7.077 -0.4315 -0.2328  0.3039
  386MOL0     H50891   8.340   6.284   7.058  0.8769  3.1964 -4.8196
  386MOL0     H50892   8.344   6.445   7.103 -1.3742 -0.5137 -1.0634
  386MOL0     H50893   8.484   6.405   7.310  2.6498 -1.6702  2.8891
  386MOL0     H50894   8.513   6.234   7.268  1.1079  0.4380  0.3942
  386MOL0     H50895   8.254   6.355   7.346 -1.1098 -0.8845  0.4467
  386MOL0     H50896   8.277   6.193   7.278  0.6830  1.3510 -2.5739
  386MOL0     H50897   8.264   6.196   7.528  0.5943 -2.2075  2.2017
  386MOL0     H50898   8.414   6.275   7.543  0.5604 -0.0922  0.6796
  386MOL0     H50899   8.524   6.064   7.413 -0.3082 -0.7794 -1.0276
  386MOL0     H50900   8.358   6.003   7.398 -0.8663 -0.1398  1.5481
  386MOL0     H50901   8.496   5.921   7.592  1.4211  0.4643 -2.1800
  386MOL0     H50902   8.447   6.077   7.661 -0.8541 -0.4548  0.6276
  386MOL0     H50903   8.261   5.855   7.561  0.0493 -0.6766  1.3635
  386MOL0     H50904   8.209   6.001   7.633 -0.2943 -1.8640  1.0587
  386MOL0     H50905   8.382   6.005   7.902 -3.9441  0.8299  1.5173
  386MOL0     H50906   8.372   5.715   8.134  1.0299  0.4260  2.5517
  386MOL0     H50907   8.402   5.890   8.132 -0.9801 -1.1699  1.6594
  386MOL0     H50908   8.633   5.814   8.019 -2.6197  2.4320  0.0869
  386MOL0     H50909   8.578   5.653   8.057 -1.7147 -0.3432 -0.1431
  386MOL0     H50910   8.612   5.860   8.268  0.4239 -1.4318  2.3052
  386MOL0     H50911   8.596   5.687   8.301 -0.4091 -0.4632  0.0146
  386MOL0     H50912   8.829   5.829   8.247  0.9506 -1.4813  3.8036
  386MOL0     H50913   8.798   5.706   8.121 -2.8785 -1.2269 -0.5853
  386MOL0     H50914   9.005   5.823   8.402 -0.3181 -1.0660  1.2759
  386MOL0     H50915   9.230   5.806   8.407 -0.9104  0.8840 -0.7564
  386MOL0     H50916   9.684   5.457   8.178 -1.3949 -0.6026  0.0726
  386MOL0     H50917   9.888   5.357   8.267  0.1158  1.2863  0.8318
  386MOL0     H50918  10.078   5.309   8.381  0.7973  0.2993  1.3718
  386MOL0     H50919  10.000   5.157   8.355  0.7783 -0.2813 -1.3280
  386MOL0     H50920  10.148   5.052   8.516 -0.0278  0.3388 -0.1079
  386MOL0     H50921  10.146   5.201   8.614  0.5348 -0.5754 -0.3407
  386MOL0     H50922  10.288   5.164   8.340  2.6358 -3.0365 -0.0843
  386MOL0     H50923  10.364   5.107   8.487  1.0678 -0.8771 -1.9008
  386MOL0     H50924  10.295   5.374   8.379 -0.2926 -2.2546 -0.9381
  386MOL0     H50925  10.331   5.365   8.562  2.7472 -2.7715  2.0741
  386MOL0     H50926  10.508   5.340   8.332 -2.9784  1.1917 -0.5084
  386MOL0     H50927  10.543   5.252   8.487 -4.4424 -1.7527  0.5506
  386MOL0     H50928  10.651   5.442   8.524 -0.9415  1.0164  3.5165
  386MOL0     H50929  10.505   5.479   8.606  2.7836  1.9854  2.2133
  386MOL0     H50930  10.414   5.598   8.398 -0.6697  5.4882  2.0981
  386MOL0     H50931  10.520   5.685   8.488 -1.0299  2.3057 -4.2697
  386MOL0     H50932  10.619   5.571   8.232  0.1696  0.0155  0.8651
  386MOL0     H50933  10.698   5.677   8.355 -1.3604  2.3377  2.1592
  386MOL0     H50934   9.682   5.303   8.641  1.7965  3.1264  0.9243
  386MOL0     H50935   9.474   5.357   8.524 -0.1452 -2.4333 -1.8048
  386MOL0     H50936   9.185   5.386   8.276  1.0999  1.4883 -0.3278
  386MOL0     H50937   8.958   5.418   8.256 -0.2242 -0.2608  1.2158
  386MOL0     H50938   8.655   6.033   7.145 -0.7985 -1.5503 -0.6730
  386MOL0     H50939   8.892   5.947   7.163 -2.2375 -1.4344 -1.3176
  386MOL0     H50940   9.329   5.933   7.030 -0.6534 -1.0144  0.6108
  386MOL0     H50941   9.519   5.786   7.089 -0.8568 -0.0042  0.1021
  386MOL0     H50942   9.651   5.666   7.513 -0.7352  0.6385  0.3111
  386MOL0     H50943   9.655   5.829   7.503  0.0332 -2.0989  0.2561
  386MOL0     H50944   9.864   5.824   7.360 -1.4964  2.0244  0.5450
  386MOL0     H50945   9.889   5.775   7.522  1.5947 -0.9178 -1.3660
  386MOL0     H50946   9.847   5.580   7.295  0.2316  0.0681  0.1389
  386MOL0     H50947   9.870   5.529   7.461  2.4020  1.1530  1.6445
  386MOL0     H50948  10.096   5.528   7.313  4.0854  0.4037  2.7856
  386MOL0     H50949  10.069   5.706   7.305  3.3917 -0.8020 -0.4151
  386MOL0     H50950  10.211   5.643   7.690  2.7811 -0.9713 -2.3465
  386MOL0     H50951   9.445   5.862   7.512 -0.5722 -0.5692 -0.0800
  386MOL0     H50952   9.265   5.986   7.459  0.2016  3.3041 -0.8032
  387MOL0     O50953  11.074   5.681   9.920 -0.2491  0.2762 -1.1465
  387MOL0     C50954  11.121   5.667  10.033 -0.1037 -0.3018 -0.0458
  387MOL0     O50955  11.175   5.771  10.104 -0.2554  0.0105 -0.5423
  387MOL0     C50956  11.176   5.894  10.043  0.6713  0.2505 -0.5742
  387MOL0     C50957  11.262   5.924   9.941 -0.2928 -0.0915 -0.8594
  387MOL0     C50958  11.255   6.048   9.877 -0.0212 -0.8218 -0.3978
  387MOL0     C50959  11.160   6.146   9.913 -0.8672  0.7687  0.7935
  387MOL0     O50960  11.164   6.262   9.848  0.0310  0.2880  0.0819
  387MOL0     C50961  11.039   6.312   9.806 -0.2985  0.0015  0.4030
  387MOL0     C50962  11.049   6.409   9.687 -0.1786 -0.9486 -0.1969
  387MOL0     C50963  10.950   6.536   9.695 -0.8189  0.3436  0.5600
  387MOL0     C50964  10.963   6.619   9.570 -0.9450 -0.5949  0.5536
  387MOL0     C50965  10.844   6.720   9.559  0.4766 -0.0125  0.5986
  387MOL0     C50966  10.857   6.792   9.422  0.1560 -0.4434 -0.1876
  387MOL0     C50967  10.746   6.896   9.419  0.3473 -0.2206  0.2910
  387MOL0     C50968  10.782   7.015   9.332  0.4072  0.3702  0.4531
  387MOL0     N50969  10.668   7.106   9.307 -0.2815  0.1027 -0.7710
  387MOL0     C50970  10.573   7.093   9.207  0.2804  0.3660 -0.1236
  387MOL0     C50971  10.484   7.183   9.246 -0.6614 -0.1875  0.5093
  387MOL0     C50972  10.339   7.187   9.192 -0.9698 -1.3364 -0.1397
  387MOL0     C50973  10.264   7.311   9.213  0.2050  0.2100 -0.0724
  387MOL0     C50974  10.315   7.423   9.121 -0.0693 -0.2233 -0.2230
  387MOL0     C50975  10.277   7.438   8.972  0.0080  0.1458  0.7125
  387MOL0     O50976  10.345   7.549   8.907  0.7111 -0.4039  0.2227
  387MOL0     C50977  10.318   7.559   8.768  0.1364 -0.8837  0.0648
  387MOL0     C50978  10.389   7.494   8.668 -0.1055  1.0311  0.2841
  387MOL0     C50979  10.382   7.542   8.539 -0.4100  0.0971  0.6580
  387MOL0     C50980  10.279   7.634   8.497 -1.4668 -0.4682  0.7210
  387MOL0     C50981  10.264   7.674   8.356 -0.8467  0.3256  0.0897
  387MOL0     O50982  10.144   7.695   8.306 -0.3138 -0.7953  0.0381
  387MOL0     C50983  10.145   7.744   8.180 -0.4364  0.7494  0.2513
  387MOL0     C50984  10.057   7.685   8.088  0.4069 -0.3561  0.9938
  387MOL0     C50985  10.053   7.725   7.956  0.4230 -0.6022 -1.3188
  387MOL0     C50986  10.137   7.819   7.912  0.4167 -0.1999 -1.1214
  387MOL0     O50987  10.126   7.848   7.776  0.2027 -0.8244 -0.6508
  387MOL0     C50988  10.254   7.842   7.707 -0.2790  0.2789 -0.3181
  387MOL0     C50989  10.301   7.979   7.655  0.5457 -0.0054 -0.0545
  387MOL0     C50990  10.199   8.046   7.554  0.5825 -0.8080 -0.8843
  387MOL0     C50991  10.267   8.125   7.443  0.3099  0.2131  0.7044
  387MOL0     C50992  10.177   8.204   7.354  1.1249 -0.5547 -0.1523
  387MOL0     C50993  10.111   8.117   7.241  1.3690  0.2119  0.0141
  387MOL0     C50994  10.035   8.190   7.139 -0.6502 -0.0506  0.4561
  387MOL0     C50995   9.958   8.086   7.048  0.3596  0.1389  0.3513
  387MOL0    Cl50996  10.053   8.026   6.909 -0.6764  0.0550  0.7181
  387MOL0     C50997  10.225   7.881   8.002  0.2039  0.8729 -0.2705
  387MOL0     C50998  10.222   7.852   8.142  0.0088  0.2180  0.5109
  387MOL0     O50999  10.373   7.671   8.291 -0.3043 -0.7761 -0.4483
  387MOL0     C51000  10.203   7.688   8.598 -0.8225 -0.1826  0.0838
  387MOL0     C51001  10.223   7.652   8.730 -0.4459 -0.0918  0.0482
  387MOL0     N51002  10.533   7.251   9.358 -0.4529 -0.3321 -0.2941
  387MOL0     N51003  10.655   7.213   9.393 -0.6846  0.5078  0.4678
  387MOL0     C51004  11.085   6.126  10.032 -0.0775  0.9160  0.0420
  387MOL0     C51005  11.088   5.997  10.090  0.8194 -0.3123  1.2296
  387MOL0     C51006  11.133   5.521  10.078  0.3280 -1.1861  0.2830
  387MOL0     C51007  11.177   5.485  10.214  0.9220 -1.0946  0.3586
  387MOL0     C51008  11.165   5.353  10.254 -0.2170  0.0341 -0.2200
  387MOL0     C51009  11.146   5.248  10.163 -0.0974 -0.4667 -0.8702
  387MOL0     O51010  11.131   5.113  10.196  0.6444 -0.5203  0.4932
  387MOL0     C51011  11.177   5.067  10.322  0.7819 -0.4487  0.2109
  387MOL0     C51012  11.140   4.916  10.316  0.1117 -0.0856  0.9883
  387MOL0     C51013  11.137   4.863  10.457 -0.5520  1.0559  0.2829
  387MOL0     C51014  11.273   4.858  10.516  0.0360  0.0844 -0.2338
  387MOL0     C51015  11.270   4.786  10.645  0.0988 -1.0282 -1.1207
  387MOL0     C51016  11.259   4.732  10.751  0.3100  0.0032  0.0782
  387MOL0     C51017  11.115   5.274  10.028  0.2244 -1.0447 -0.0569
  387MOL0     C51018  11.111   5.411   9.987 -0.0575  0.1928  0.5664
  387MOL0     H51019  11.313   5.834   9.908  1.8462  1.1157 -1.0058
  387MOL0     H51020  11.319   6.043   9.790 -0.5920 -0.5081 -0.8366
  387MOL0     H51021  10.987   6.360   9.888 -0.9358  0.1233 -0.0643
  387MOL0     H51022  10.982   6.224   9.775 -0.7017  0.4786 -0.2406
  387MOL0     H51023  11.030   6.350   9.597  0.0264 -0.6057 -0.4625
  387MOL0     H51024  11.151   6.447   9.680 -0.8550  1.2242  1.0098
  387MOL0     H51025  10.972   6.598   9.782  0.4906  1.3556 -0.4600
  387MOL0     H51026  10.849   6.499   9.713 -0.2855 -2.5119 -1.6097
  387MOL0     H51027  11.063   6.662   9.569 -1.5275  0.8129  1.0294
  387MOL0     H51028  10.947   6.555   9.483  2.9988 -0.1528 -0.7203
  387MOL0     H51029  10.833   6.791   9.641  4.6420  1.8529 -0.1766
  387MOL0     H51030  10.755   6.656   9.555 -1.3758  2.5099 -1.6137
  387MOL0     H51031  10.852   6.716   9.344  2.1017 -0.6935 -0.1311
  387MOL0     H51032  10.954   6.843   9.424 -0.1841  0.1937  0.6689
  387MOL0     H51033  10.650   6.851   9.391  0.6244 -0.1099 -0.8762
  387MOL0     H51034  10.730   6.928   9.522 -0.6823  1.6225 -0.4023
  387MOL0     H51035  10.819   6.974   9.237 -0.1395 -1.3621  0.9520
  387MOL0     H51036  10.855   7.079   9.383 -1.4141  1.0279  2.3543
  387MOL0     H51037  10.570   7.013   9.135  0.5282 -2.4248  2.7562
  387MOL0     H51038  10.283   7.099   9.221 -2.7622 -1.0459 -2.3851
  387MOL0     H51039  10.325   7.173   9.084 -4.6488 -0.9093  0.1770
  387MOL0     H51040  10.275   7.349   9.315  1.2063  0.9443 -0.4260
  387MOL0     H51041  10.158   7.294   9.193  0.3974  0.8811 -1.8034
  387MOL0     H51042  10.278   7.519   9.158  1.3814 -0.1573  1.1343
  387MOL0     H51043  10.423   7.424   9.134 -0.1529 -0.2156  0.5393
  387MOL0     H51044  10.171   7.464   8.971  0.3729  1.6856  0.2457
  387MOL0     H51045  10.293   7.346   8.914  2.4176  0.4121  0.8640
  387MOL0     H51046  10.450   7.409   8.695  1.0264  0.9870 -2.1408
  387MOL0     H51047  10.444   7.498   8.461  0.4347  3.8901 -1.0671
  387MOL0     H51048   9.999   7.598   8.116  1.8887 -1.7429 -0.0766
  387MOL0     H51049   9.995   7.672   7.882  1.3220 -3.3428 -0.1760
  387MOL0     H51050  10.233   7.785   7.617  1.4581  1.2580 -1.4182
  387MOL0     H51051  10.328   7.782   7.761 -1.5130 -0.6972  0.3425
  387MOL0     H51052  10.390   7.958   7.594  1.3601 -2.6453  1.8521
  387MOL0     H51053  10.328   8.049   7.734  1.7422  0.6191 -0.9831
  387MOL0     H51054  10.132   8.115   7.607  2.4791  0.6245 -0.2559
  387MOL0     H51055  10.133   7.967   7.517 -1.7905  0.2382  0.8238
  387MOL0     H51056  10.338   8.193   7.490  0.9563  0.9919 -1.3319
  387MOL0     H51057  10.322   8.045   7.393 -2.3489 -3.4750  3.0899
  387MOL0     H51058  10.221   8.292   7.308 -3.0338  0.4358 -2.7804
  387MOL0     H51059  10.095   8.239   7.417  0.8604  2.2328 -1.9150
  387MOL0     H51060  10.042   8.048   7.289  3.5352 -1.9883  0.1827
  387MOL0     H51061  10.188   8.055   7.194 -0.9462 -3.0382  0.2134
  387MOL0     H51062   9.968   8.261   7.190 -0.8043 -0.3265  0.6399
  387MOL0     H51063  10.102   8.245   7.072  0.2737  0.7803  1.9995
  387MOL0     H51064   9.866   8.128   7.005  0.1901  1.6534  2.0611
  387MOL0     H51065   9.915   8.012   7.116 -4.2042  2.0218 -0.0724
  387MOL0     H51066  10.278   7.965   7.959  0.2029 -0.3974 -2.9576
  387MOL0     H51067  10.284   7.917   8.203 -1.0401  2.7248 -0.8957
  387MOL0     H51068  10.145   7.771   8.560  1.6504 -0.1806 -4.3693
  387MOL0     H51069  10.192   7.703   8.821  0.2741  1.0620 -0.3321
  387MOL0     H51070  11.025   6.207  10.073 -0.1141  0.8383  0.1439
  387MOL0     H51071  11.013   5.970  10.164  0.2427 -0.3482  0.6426
  387MOL0     H51072  11.205   5.554  10.294 -1.3673  0.4351 -0.0514
  387MOL0     H51073  11.199   5.331  10.355 -1.6299 -2.5960 -0.2278
  387MOL0     H51074  11.112   5.122  10.390 -0.3721  0.8850 -1.8669
  387MOL0     H51075  11.281   5.087  10.347 -0.0440  3.9923  0.7794
  387MOL0     H51076  11.044   4.900  10.267 -0.3142  1.1861  1.3600
  387MOL0     H51077  11.213   4.862  10.254  0.5690  1.5218  0.0709
  387MOL0     H51078  11.089   4.765  10.466  0.3147  0.5505 -0.4567
  387MOL0     H51079  11.078   4.928  10.522 -1.0247  2.7413 -1.7278
  387MOL0     H51080  11.349   4.801  10.461 -1.1793  0.6645 -2.6135
  387MOL0     H51081  11.309   4.957  10.544  0.0925  0.8325 -2.7741
  387MOL0     H51082  11.260   4.677  10.843 -0.6137 -1.0214 -0.5000
  387MOL0     H51083  11.085   5.196   9.959 -2.5608  0.6226 -0.9060
  387MOL0     H51084  11.085   5.421   9.882  0.5421 -1.1797  0.2571
  388MOL0     O51085   9.531   9.225   3.880  0.5938  0.8706  0.0159
  388MOL0     C51086   9.646   9.260   3.894 -0.0247 -0.4809 -0.2872
  388MOL0     O51087   9.709   9.289   4.014  0.3213  0.4442  0.3596
  388MOL0     C51088   9.648   9.268   4.135  0.5889 -0.2720 -0.0821
  388MOL0     C51089   9.715   9.335   4.234 -0.1369 -0.4683 -0.2752
  388MOL0     C51090   9.688   9.323   4.367  0.2134 -0.4459  0.5610
  388MOL0     C51091   9.574   9.245   4.407  0.0574 -1.6553 -0.0244
  388MOL0     O51092   9.555   9.243   4.541  0.0800  0.3899 -0.0033
  388MOL0     C51093   9.424   9.210   4.585  0.1585 -1.1737 -0.4020
  388MOL0     C51094   9.422   9.182   4.738  0.9262  0.4471 -0.2439
  388MOL0     C51095   9.278   9.167   4.794 -0.1935  1.0890  0.6130
  388MOL0     C51096   9.274   9.097   4.926 -0.0213 -0.1993 -0.1812
  388MOL0     C51097   9.293   9.200   5.036 -0.4585 -0.4145  0.4041
  388MOL0     C51098   9.420   9.194   5.128 -1.0183  0.5402 -0.1970
  388MOL0     C51099   9.415   9.236   5.279 -0.2112  1.3190  0.6565
  388MOL0     C51100   9.373   9.386   5.284  0.4971  0.4845 -0.1166
  388MOL0     N51101   9.435   9.483   5.181 -0.1452 -0.2385 -0.1028
  388MOL0     C51102   9.570   9.492   5.157 -0.3192 -0.0299  0.7685
  388MOL0     C51103   9.576   9.573   5.046  0.5497  0.8873  0.6094
  388MOL0     C51104   9.699   9.620   4.985  1.0196  0.1233  0.1691
  388MOL0     C51105   9.743   9.519   4.888  0.3667  0.1041  0.4529
  388MOL0     C51106   9.644   9.505   4.771 -0.2614  0.6688 -1.3054
  388MOL0     C51107   9.646   9.628   4.683  0.1544  0.6995  0.1371
  388MOL0     O51108   9.600   9.578   4.555  0.5870  0.2375 -0.1036
  388MOL0     C51109   9.472   9.603   4.508  0.3547 -0.5032  0.4748
  388MOL0     C51110   9.441   9.585   4.370 -0.6785  1.0587  0.3174
  388MOL0     C51111   9.312   9.604   4.323  0.1737 -0.1680  0.5128
  388MOL0     C51112   9.211   9.653   4.404 -0.7480  0.1240 -0.1838
  388MOL0     C51113   9.080   9.700   4.354  1.2758 -0.3329 -0.4223
  388MOL0     O51114   9.073   9.696   4.217 -0.5352 -0.3548 -0.4313
  388MOL0     C51115   8.961   9.712   4.138 -0.6900  1.0436 -0.2776
  388MOL0     C51116   8.830   9.733   4.194  0.2681 -0.2065  0.4463
  388MOL0     C51117   8.711   9.718   4.118 -0.3972 -1.0195  0.7253
  388MOL0     C51118   8.726   9.677   3.985  0.3611 -0.9984 -0.1024
  388MOL0     O51119   8.608   9.662   3.921  0.3818  1.2932 -0.1199
  388MOL0     C51120   8.590   9.659   3.781 -0.0621 -0.7131  0.4914
  388MOL0     C51121   8.605   9.801   3.724 -0.1595  0.6232 -0.5690
  388MOL0     C51122   8.525   9.926   3.775  0.0430  0.0057  0.8827
  388MOL0     C51123   8.595  10.061   3.806 -0.2572  1.3495 -0.0674
  388MOL0     C51124   8.664  10.085   3.938  0.0421 -0.3597 -0.0165
  388MOL0     C51125   8.813  10.042   3.942 -0.4733  0.7259 -0.2310
  388MOL0     C51126   8.870  10.061   4.082 -0.0229  0.1516  0.9787
  388MOL0     C51127   8.919  10.207   4.103 -0.1440 -0.7679  0.2073
  388MOL0    Cl51128   9.016  10.221   4.258  0.0632 -0.1605 -0.0525
  388MOL0     C51129   8.848   9.665   3.926 -0.7458  0.0079 -0.4552
  388MOL0     C51130   8.958   9.673   4.001 -0.1062 -0.5619  0.4696
  388MOL0     O51131   8.993   9.743   4.433 -0.2141 -0.0567  0.0287
  388MOL0     C51132   9.248   9.687   4.536  0.5328 -0.0336 -0.0041
  388MOL0     C51133   9.376   9.668   4.587 -0.2182 -0.2933 -0.1851
  388MOL0     N51134   9.452   9.615   5.007  0.0680 -0.0536 -0.3150
  388MOL0     N51135   9.367   9.560   5.093  0.7586 -0.2010 -0.0408
  388MOL0     C51136   9.500   9.178   4.312  0.3994  0.5407  0.6689
  388MOL0     C51137   9.541   9.181   4.173  0.5160 -0.0768 -0.1230
  388MOL0     C51138   9.733   9.297   3.784  0.8502  0.1166  0.2729
  388MOL0     C51139   9.727   9.225   3.659 -0.3553 -0.0419 -0.0817
  388MOL0     C51140   9.792   9.269   3.545  0.1972  0.4703 -0.8622
  388MOL0     C51141   9.879   9.379   3.552 -0.3848  0.3122  0.0966
  388MOL0     O51142   9.967   9.403   3.446  0.2260  0.6196  0.3585
  388MOL0     C51143   9.991   9.534   3.403 -0.2240 -0.6809 -0.0475
  388MOL0     C51144   9.868   9.599   3.334  0.0040 -0.9768  0.4613
  388MOL0     C51145   9.842   9.560   3.186 -1.3536 -0.1048 -0.2028
  388MOL0     C51146   9.694   9.575   3.155 -0.4075 -0.4432 -0.0143
  388MOL0     C51147   9.672   9.574   3.009 -0.1989 -0.3917  0.4350
  388MOL0     C51148   9.643   9.556   2.896  0.3781  0.1972 -0.4027
  388MOL0     C51149   9.891   9.445   3.672  0.0553 -0.6641 -0.1165
  388MOL0     C51150   9.821   9.406   3.787 -0.1452  0.2662 -0.3639
  388MOL0     H51151   9.805   9.392   4.212  1.4447 -2.5841  0.3148
  388MOL0     H51152   9.741   9.379   4.443  0.3928  0.3227 -0.1269
  388MOL0     H51153   9.370   9.127   4.538 -1.8385  0.2867 -0.8155
  388MOL0     H51154   9.374   9.307   4.572  0.3782 -1.1665 -1.3008
  388MOL0     H51155   9.480   9.264   4.780  2.4607 -0.3682 -0.6941
  388MOL0     H51156   9.464   9.084   4.762  0.4249  0.4838  0.8615
  388MOL0     H51157   9.238   9.091   4.726  2.7409  1.3134 -1.5419
  388MOL0     H51158   9.221   9.260   4.790 -0.2223  1.0646  0.4030
  388MOL0     H51159   9.179   9.043   4.934  1.4427 -2.9513 -0.3884
  388MOL0     H51160   9.353   9.022   4.925  0.6373  0.4131  1.7888
  388MOL0     H51161   9.202   9.185   5.095  0.4496 -1.4063  1.6151
  388MOL0     H51162   9.288   9.305   5.007 -0.9001 -0.4824  0.2152
  388MOL0     H51163   9.502   9.242   5.074 -0.0372 -1.0666 -0.1959
  388MOL0     H51164   9.451   9.089   5.125  2.8192  1.4024  2.3551
  388MOL0     H51165   9.348   9.174   5.339  4.0943 -1.5362  3.0248
  388MOL0     H51166   9.509   9.229   5.333 -1.1275 -1.7682  2.0678
  388MOL0     H51167   9.398   9.420   5.385  1.6917 -0.1804 -0.1689
  388MOL0     H51168   9.265   9.380   5.263  0.9027  0.7562 -2.6470
  388MOL0     H51169   9.651   9.440   5.207 -1.2215 -1.5737  0.6637
  388MOL0     H51170   9.770   9.639   5.066  1.2947 -0.2720  0.0278
  388MOL0     H51171   9.688   9.713   4.930 -0.3193  0.3085  0.7082
  388MOL0     H51172   9.752   9.422   4.937  1.5433  0.2833  0.6126
  388MOL0     H51173   9.841   9.547   4.849  0.3694 -0.6634 -0.1032
  388MOL0     H51174   9.683   9.419   4.717 -0.6833  0.4919 -1.3223
  388MOL0     H51175   9.543   9.474   4.797  0.6010 -1.1078  0.1425
  388MOL0     H51176   9.745   9.670   4.661  0.3860 -0.3277 -0.9426
  388MOL0     H51177   9.587   9.707   4.729  0.5892  0.5485  0.9660
  388MOL0     H51178   9.521   9.555   4.303 -1.8381 -0.4927 -0.4240
  388MOL0     H51179   9.291   9.600   4.217 -1.2538  5.3605  0.3115
  388MOL0     H51180   8.804   9.752   4.298 -1.6859  1.1333 -0.2409
  388MOL0     H51181   8.613   9.724   4.163 -0.2003  0.9130  1.0026
  388MOL0     H51182   8.494   9.617   3.748 -0.4701  0.1209  0.5714
  388MOL0     H51183   8.669   9.599   3.735  0.3204  1.1619 -1.4591
  388MOL0     H51184   8.589   9.800   3.615 -2.9204  0.5856 -0.2439
  388MOL0     H51185   8.710   9.830   3.730 -0.3078  1.7870 -2.5455
  388MOL0     H51186   8.458   9.899   3.857  0.7313 -0.9830  1.1366
  388MOL0     H51187   8.459   9.940   3.688 -0.3446  2.5960  1.5154
  388MOL0     H51188   8.672  10.091   3.734  1.0497  0.9762  1.1193
  388MOL0     H51189   8.522  10.142   3.802 -0.6542  1.1946  2.5916
  388MOL0     H51190   8.603  10.052   4.023  1.8372 -4.4368 -0.0929
  388MOL0     H51191   8.652  10.194   3.941  0.9432 -0.2517 -0.0969
  388MOL0     H51192   8.872  10.103   3.873 -0.5912 -1.4657 -2.4002
  388MOL0     H51193   8.837   9.938   3.920  2.2050  0.1388  4.2351
  388MOL0     H51194   8.798  10.028   4.158  0.1048  4.0657  3.0278
  388MOL0     H51195   8.959  10.002   4.106  1.8997  2.9918  1.2831
  388MOL0     H51196   8.834  10.276   4.099 -1.5783 -2.4902 -1.1814
  388MOL0     H51197   8.984  10.242   4.022  0.8749 -1.2779  0.7788
  388MOL0     H51198   8.874   9.655   3.822  1.1906 -0.1231  0.0071
  388MOL0     H51199   9.046   9.629   3.955  0.2283 -4.3779  4.0941
  388MOL0     H51200   9.184   9.743   4.603 -1.1477  2.9092 -3.7143
  388MOL0     H51201   9.394   9.709   4.685 -1.0157 -1.7700  0.6099
  388MOL0     H51202   9.424   9.106   4.342  0.9858 -0.6314 -0.5984
  388MOL0     H51203   9.506   9.103   4.106 -0.6797  0.3350  0.0018
  388MOL0     H51204   9.665   9.137   3.643  1.8057 -1.2150 -2.9667
  388MOL0     H51205   9.792   9.214   3.452  0.2165 -1.8854  0.4556
  388MOL0     H51206  10.073   9.532   3.331 -0.3108 -0.9998 -0.1414
  388MOL0     H51207  10.017   9.598   3.488 -1.2022 -0.9466  0.4652
  388MOL0     H51208   9.781   9.602   3.400 -1.6218  0.3004 -1.6238
  388MOL0     H51209   9.884   9.707   3.329 -2.7758 -0.5243  0.1321
  388MOL0     H51210   9.880   9.463   3.154 -0.1877  0.1009  0.5012
  388MOL0     H51211   9.890   9.634   3.121 -0.1463 -0.3196  0.4129
  388MOL0     H51212   9.631   9.503   3.208 -0.8677  0.0925  0.1759
  388MOL0     H51213   9.648   9.668   3.189  0.6409  0.5587 -1.2441
  388MOL0     H51214   9.623   9.534   2.793  1.6238 -1.2891 -0.3693
  388MOL0     H51215   9.962   9.527   3.681  0.7815 -1.1787 -0.9715
  388MOL0     H51216   9.816   9.475   3.870  1.4850  0.6713 -0.5800
  389MOL0     O51217   3.532   4.643   3.170  0.4659  0.3853  0.3922
  389MOL0     C51218   3.628   4.659   3.241  0.0139  0.2468 -0.7521
  389MOL0     O51219   3.642   4.752   3.342 -0.6431 -0.2297 -1.2445
  389MOL0     C51220   3.543   4.843   3.375  0.3012 -0.8894  0.2672
  389MOL0     C51221   3.417   4.862   3.314 -0.7036 -0.2076  1.0235
  389MOL0     C51222   3.340   4.965   3.369  0.7136  0.2281 -0.7533
  389MOL0     C51223   3.379   5.053   3.471  0.5507 -0.1243 -0.0910
  389MOL0     O51224   3.311   5.163   3.527  0.4374  0.3762 -0.5109
  389MOL0     C51225   3.200   5.224   3.461  0.3165  0.1156 -0.4748
  389MOL0     C51226   3.155   5.346   3.542  0.4133 -0.6692 -0.2331
  389MOL0     C51227   3.018   5.408   3.489 -0.9719 -0.4356 -0.1464
  389MOL0     C51228   2.982   5.544   3.551 -0.2754  0.3486 -0.5904
  389MOL0     C51229   2.863   5.602   3.488 -0.0553 -0.4616 -1.0949
  389MOL0     C51230   2.836   5.748   3.540 -0.1137  0.8360  0.8160
  389MOL0     C51231   2.714   5.814   3.458 -0.7555 -0.7119 -0.0146
  389MOL0     C51232   2.717   5.955   3.507  0.5141  0.1112  0.5953
  389MOL0     N51233   2.600   6.037   3.496 -0.3918 -0.3067  1.0843
  389MOL0     C51234   2.599   6.170   3.527  0.4411 -0.5053  1.3749
  389MOL0     C51235   2.477   6.210   3.481  0.1964 -0.7628 -0.7815
  389MOL0     C51236   2.424   6.350   3.499  0.6131  0.1617 -0.1439
  389MOL0     C51237   2.520   6.455   3.435  0.1156  0.6998 -0.9217
  389MOL0     C51238   2.479   6.607   3.456 -0.0332 -0.0011  0.4763
  389MOL0     C51239   2.568   6.701   3.379  0.6119  0.1563 -1.0018
  389MOL0     O51240   2.529   6.702   3.242 -0.1672  0.1449 -0.0913
  389MOL0     C51241   2.631   6.678   3.156  0.5617  1.0061  0.0649
  389MOL0     C51242   2.614   6.583   3.061  0.4611  0.1538 -0.1089
  389MOL0     C51243   2.704   6.556   2.960  0.5186  0.0766 -0.4490
  389MOL0     C51244   2.819   6.637   2.954 -0.4983 -0.6851  0.0555
  389MOL0     C51245   2.908   6.627   2.838  0.2695  0.0941  0.0809
  389MOL0     O51246   2.979   6.736   2.810 -0.7299 -0.4339  0.6285
  389MOL0     C51247   3.034   6.731   2.684  0.6880  0.9238  0.0938
  389MOL0     C51248   3.175   6.707   2.671  0.1085 -0.3586 -0.4852
  389MOL0     C51249   3.231   6.716   2.549  0.7161 -0.2366  0.4636
  389MOL0     C51250   3.152   6.731   2.428 -1.0931 -0.1551  0.0087
  389MOL0     O51251   3.221   6.726   2.311 -0.6133 -0.5004 -0.1907
  389MOL0     C51252   3.170   6.804   2.199 -0.3166  0.0742 -0.2512
  389MOL0     C51253   3.288   6.817   2.100 -0.5975  0.4037 -0.1507
  389MOL0     C51254   3.285   6.690   2.024 -0.9286  0.6880 -0.0628
  389MOL0     C51255   3.389   6.683   1.907  0.0795  0.6676 -0.2346
  389MOL0     C51256   3.338   6.573   1.807  0.4397  0.0441 -0.8100
  389MOL0     C51257   3.452   6.512   1.728  0.7256  0.6681  0.2277
  389MOL0     C51258   3.415   6.454   1.588  0.6409 -1.0379 -0.3451
  389MOL0     C51259   3.534   6.430   1.487 -0.2571  0.2574  0.6860
  389MOL0    Cl51260   3.667   6.350   1.577 -0.0464  0.3368 -0.4419
  389MOL0     C51261   3.013   6.744   2.445 -0.2083 -0.4770  0.0376
  389MOL0     C51262   2.956   6.738   2.573 -0.2045  0.0814 -0.5126
  389MOL0     O51263   2.931   6.512   2.791 -0.3762  0.2457  0.1616
  389MOL0     C51264   2.838   6.734   3.057 -0.4569  0.6132  0.7237
  389MOL0     C51265   2.744   6.747   3.153  0.8058  0.1650 -0.0909
  389MOL0     N51266   2.416   6.113   3.410 -0.3760  0.4866  0.4642
  389MOL0     N51267   2.482   6.001   3.432  0.6294  0.1428  0.0030
  389MOL0     C51268   3.507   5.037   3.518  0.5295 -0.0669 -0.4640
  389MOL0     C51269   3.582   4.932   3.475 -0.4814  0.1544  0.1364
  389MOL0     C51270   3.747   4.576   3.214 -0.4437 -0.1205 -0.0692
  389MOL0     C51271   3.754   4.507   3.090  0.5983  0.6131 -0.3913
  389MOL0     C51272   3.866   4.422   3.078  0.4527  0.0974 -0.0732
  389MOL0     C51273   3.966   4.418   3.173  0.0031  0.4878  0.0042
  389MOL0     O51274   4.071   4.325   3.160 -0.0628 -0.3337  0.0377
  389MOL0     C51275   4.207   4.377   3.155 -0.8591 -0.1960  0.4693
  389MOL0     C51276   4.213   4.508   3.058  0.0253  0.6339 -0.5604
  389MOL0     C51277   4.342   4.528   2.981 -0.1824  0.2071 -0.4101
  389MOL0     C51278   4.460   4.564   3.080  0.8521 -0.5742  1.3829
  389MOL0     C51279   4.516   4.439   3.134 -0.3005  0.3378 -0.0412
  389MOL0     C51280   4.593   4.356   3.177 -0.1032 -0.5345  0.0980
  389MOL0     C51281   3.965   4.492   3.295 -0.3814  0.0624  0.1010
  389MOL0     C51282   3.843   4.562   3.313  0.2563  0.0133 -0.6085
  389MOL0     H51283   3.379   4.791   3.242 -2.3430  2.0879 -0.5322
  389MOL0     H51284   3.243   4.980   3.322 -1.1163 -0.7701  2.4377
  389MOL0     H51285   3.123   5.147   3.468  0.9884 -0.7616 -2.2412
  389MOL0     H51286   3.220   5.247   3.356 -2.1410  1.3795 -0.7345
  389MOL0     H51287   3.233   5.422   3.531 -1.6492  1.4106 -1.5645
  389MOL0     H51288   3.142   5.310   3.644  0.1737 -2.1225 -0.7496
  389MOL0     H51289   2.936   5.338   3.505  0.3185 -1.9118  0.2095
  389MOL0     H51290   3.015   5.419   3.380  1.3271 -1.9538 -0.4363
  389MOL0     H51291   2.968   5.547   3.659  1.3714  3.9516 -0.3112
  389MOL0     H51292   3.062   5.619   3.542  3.6726 -3.0649  2.1098
  389MOL0     H51293   2.770   5.547   3.505  0.3736 -0.5933  1.1207
  389MOL0     H51294   2.880   5.597   3.380  0.5193  1.4283 -1.1318
  389MOL0     H51295   2.921   5.816   3.528  1.3925 -0.6103  2.6423
  389MOL0     H51296   2.813   5.728   3.645  2.5545 -1.0445  1.1659
  389MOL0     H51297   2.730   5.814   3.350  0.1541  2.1442  0.0286
  389MOL0     H51298   2.621   5.760   3.480 -0.2864 -1.1555  0.9479
  389MOL0     H51299   2.805   6.007   3.468  2.2037 -3.0283 -0.1199
  389MOL0     H51300   2.734   5.948   3.615 -3.0330 -1.6749  1.1900
  389MOL0     H51301   2.673   6.225   3.584  1.1935 -2.2383  2.1356
  389MOL0     H51302   2.391   6.375   3.600 -1.2529 -2.8377  0.0980
  389MOL0     H51303   2.337   6.352   3.433  0.9419 -2.3781 -0.7563
  389MOL0     H51304   2.547   6.434   3.331 -0.8827  3.7764 -1.9265
  389MOL0     H51305   2.611   6.445   3.495  0.5884 -2.2687 -1.9509
  389MOL0     H51306   2.374   6.608   3.424 -0.6633 -3.3899  2.0238
  389MOL0     H51307   2.480   6.638   3.561 -1.4083  1.0732  0.2014
  389MOL0     H51308   2.667   6.656   3.390  1.0308  1.5993  2.7568
  389MOL0     H51309   2.575   6.796   3.433  4.2003 -0.9703  0.8645
  389MOL0     H51310   2.524   6.527   3.040  1.5742 -1.9980  0.5553
  389MOL0     H51311   2.682   6.493   2.875  4.2060 -0.7919 -0.8952
  389MOL0     H51312   3.234   6.682   2.758  0.4036 -1.9955 -1.1249
  389MOL0     H51313   3.339   6.710   2.537  0.5288  0.8560 -2.5986
  389MOL0     H51314   3.147   6.904   2.237  1.0225  0.1407  0.4676
  389MOL0     H51315   3.082   6.758   2.154 -0.4613 -0.5306  0.6107
  389MOL0     H51316   3.379   6.844   2.154  1.0683  0.0032 -2.6104
  389MOL0     H51317   3.276   6.894   2.023  0.4933 -1.9996 -2.8972
  389MOL0     H51318   3.188   6.663   1.981 -0.5636 -3.2488  1.2469
  389MOL0     H51319   3.306   6.603   2.087 -2.3600  0.4822  0.1739
  389MOL0     H51320   3.412   6.773   1.849 -0.8620  0.7201 -0.5521
  389MOL0     H51321   3.486   6.660   1.952 -0.0062  1.5803  0.4439
  389MOL0     H51322   3.268   6.626   1.742  0.5570  1.4857  0.1977
  389MOL0     H51323   3.279   6.497   1.860 -0.0721  1.9688  1.5631
  389MOL0     H51324   3.490   6.431   1.791  2.9954  2.6456  1.5828
  389MOL0     H51325   3.532   6.586   1.721  1.0367  0.4473  1.3187
  389MOL0     H51326   3.365   6.361   1.617  1.6508 -1.7518 -0.8429
  389MOL0     H51327   3.330   6.510   1.550 -0.1773  0.4417  3.2671
  389MOL0     H51328   3.572   6.522   1.441  1.5789  0.2829  2.1267
  389MOL0     H51329   3.506   6.359   1.409 -1.0459 -0.3914  1.5419
  389MOL0     H51330   2.949   6.745   2.358 -0.0152 -0.3384 -0.1041
  389MOL0     H51331   2.849   6.731   2.587 -0.2369  1.4861  0.1079
  389MOL0     H51332   2.928   6.795   3.051 -1.3200  2.3539  3.5104
  389MOL0     H51333   2.764   6.826   3.225 -1.4243  1.7253 -1.0964
  389MOL0     H51334   3.546   5.104   3.594  3.0708  1.0283 -2.5756
  389MOL0     H51335   3.671   4.908   3.533 -0.2330  0.3759 -0.1552
  389MOL0     H51336   3.692   4.503   3.001  1.4633 -1.4832 -0.9446
  389MOL0     H51337   3.899   4.366   2.992  2.2661 -0.0478  0.6826
  389MOL0     H51338   4.279   4.302   3.121 -1.4480 -1.1951  1.3458
  389MOL0     H51339   4.240   4.406   3.255 -0.7020 -0.8990  0.6286
  389MOL0     H51340   4.128   4.510   2.989 -0.3284  2.1017 -0.1097
  389MOL0     H51341   4.194   4.595   3.121 -2.6605 -0.5102  0.4054
  389MOL0     H51342   4.318   4.605   2.907 -1.5241  0.0074 -0.2085
  389MOL0     H51343   4.377   4.443   2.921  1.5297  1.3053 -1.0135
  389MOL0     H51344   4.528   4.632   3.028 -0.7196  0.4271  0.5500
  389MOL0     H51345   4.430   4.628   3.164 -4.1259 -0.2554 -0.3084
  389MOL0     H51346   4.674   4.292   3.205  0.3921  1.0637  2.5943
  389MOL0     H51347   4.038   4.485   3.376 -0.6108  2.6708  0.6141
  389MOL0     H51348   3.835   4.616   3.407  0.8656  1.4309 -1.3424
  390MOL0     O51349   1.101   1.581   5.086 -0.0797  0.3830  0.1692
  390MOL0     C51350   1.081   1.460   5.061 -0.0165 -0.0700  0.0647
  390MOL0     O51351   0.973   1.408   5.006  0.1178 -0.4594  0.4386
  390MOL0     C51352   0.864   1.490   5.012  0.1543 -1.0354  0.3979
  390MOL0     C51353   0.830   1.571   4.908  0.2040  0.7251  0.0216
  390MOL0     C51354   0.730   1.662   4.908  0.9239 -0.7924 -0.2396
  390MOL0     C51355   0.632   1.658   5.006  0.5832 -0.4882  1.3811
  390MOL0     O51356   0.535   1.756   4.996  0.5447  0.0632  0.5343
  390MOL0     C51357   0.436   1.755   5.101  0.2946 -0.4103  0.1730
  390MOL0     C51358   0.324   1.849   5.075 -0.9076  0.1236 -0.1630
  390MOL0     C51359   0.240   1.795   4.957 -0.0147 -0.6432 -0.4312
  390MOL0     C51360   0.107   1.857   4.940 -0.0075 -1.1152 -0.1843
  390MOL0     C51361   0.011   1.764   4.878 -0.4292  0.5099 -0.4424
  390MOL0     C51362   0.039   1.732   4.739  0.6520 -0.1409  0.1203
  390MOL0     C51363  -0.055   1.643   4.673  0.4169 -0.0680 -0.8116
  390MOL0     C51364  -0.141   1.726   4.588 -0.2038  0.8960 -0.3243
  390MOL0     N51365  -0.230   1.812   4.672 -0.0329  0.0341  0.3570
  390MOL0     C51366  -0.340   1.765   4.738 -0.4338  0.2631 -0.3856
  390MOL0     C51367  -0.399   1.871   4.800  0.1523 -0.2057 -0.2847
  390MOL0     C51368  -0.515   1.859   4.890  0.8528  0.2939  0.6895
  390MOL0     C51369  -0.620   1.970   4.869 -0.6108  0.5162 -0.5069
  390MOL0     C51370  -0.754   1.956   4.950 -0.1748  0.3069  0.0386
  390MOL0     C51371  -0.846   1.845   4.894 -0.0625 -0.5304  0.0739
  390MOL0     O51372  -0.876   1.739   4.996 -0.2884 -0.3684  0.7345
  390MOL0     C51373  -0.979   1.652   4.967 -0.0155 -0.2788  0.9933
  390MOL0     C51374  -1.044   1.626   4.837 -0.6085  0.5186  0.3246
  390MOL0     C51375  -1.142   1.540   4.823  0.0986 -0.2951 -0.2448
  390MOL0     C51376  -1.197   1.463   4.926 -0.3402  0.8581  0.2718
  390MOL0     C51377  -1.323   1.384   4.916  0.3104 -0.6231  0.3333
  390MOL0     O51378  -1.345   1.314   5.027  0.3113 -0.4335 -0.3802
  390MOL0     C51379  -1.435   1.209   5.021 -0.8190 -0.3192  0.0907
  390MOL0     C51380  -1.510   1.172   5.133  0.2508  0.6739  0.4205
  390MOL0     C51381  -1.616   1.073   5.110 -0.4343 -0.5101 -0.1089
  390MOL0     C51382  -1.638   1.009   4.990 -0.5732  0.0976 -1.0081
  390MOL0     O51383  -1.730   0.909   4.974 -0.4714  0.2991  0.2572
  390MOL0     C51384  -1.834   0.939   4.878  0.9573  0.2594 -0.0716
  390MOL0     C51385  -1.964   0.874   4.916  0.5383  0.0486  0.3647
  390MOL0     C51386  -2.039   0.935   5.042  0.3050  0.1874 -0.1109
  390MOL0     C51387  -2.179   0.894   5.060 -0.1714 -0.1652 -0.9284
  390MOL0     C51388  -2.207   0.745   5.075  0.0897 -0.2535  0.7774
  390MOL0     C51389  -2.360   0.732   5.134  0.3295 -0.0016  0.2895
  390MOL0     C51390  -2.429   0.591   5.125 -0.8417 -0.0732  0.0590
  390MOL0     C51391  -2.371   0.500   5.011 -1.1264  0.5936 -0.5615
  390MOL0    Cl51392  -2.474   0.351   5.011  0.4542  0.1075  0.1276
  390MOL0     C51393  -1.555   1.028   4.888 -0.0232 -0.0411 -0.7956
  390MOL0     C51394  -1.449   1.128   4.906 -0.1549 -0.0437  0.8877
  390MOL0     O51395  -1.385   1.386   4.807 -0.1352  0.2140 -0.4198
  390MOL0     C51396  -1.131   1.488   5.055  0.6056  0.6387  0.2006
  390MOL0     C51397  -1.026   1.576   5.075 -0.1538 -0.5625  0.7479
  390MOL0     N51398  -0.327   1.983   4.774 -0.1332 -0.2855  0.4581
  390MOL0     N51399  -0.232   1.946   4.687 -0.3545 -0.4138 -0.2961
  390MOL0     C51400   0.651   1.572   5.113 -0.4566 -0.1536 -0.9190
  390MOL0     C51401   0.773   1.495   5.122 -0.4592 -0.3001 -0.1087
  390MOL0     C51402   1.193   1.372   5.100 -0.0044 -0.0173  0.5921
  390MOL0     C51403   1.307   1.435   5.140  0.8962  0.3619  0.7139
  390MOL0     C51404   1.426   1.358   5.168 -0.7968  0.8409  0.1368
  390MOL0     C51405   1.425   1.216   5.142  0.6767  0.6577  0.0561
  390MOL0     O51406   1.531   1.127   5.152 -0.7654  0.0884  0.1203
  390MOL0     C51407   1.625   1.130   5.264 -1.1384 -0.2037 -0.6031
  390MOL0     C51408   1.559   1.126   5.408  0.5810 -0.1917  0.0135
  390MOL0     C51409   1.642   1.204   5.510 -0.4247  0.1078  0.0500
  390MOL0     C51410   1.653   1.131   5.643  0.0661  1.2065 -0.6578
  390MOL0     C51411   1.744   1.020   5.614 -0.1572 -0.7317 -0.4170
  390MOL0     C51412   1.836   0.942   5.591 -0.1731 -0.3117  1.0368
  390MOL0     C51413   1.306   1.153   5.087 -0.0998 -0.0594  0.2777
  390MOL0     C51414   1.194   1.232   5.071  0.2262 -0.6491  0.5623
  390MOL0     H51415   0.892   1.570   4.819 -0.0983  1.9481 -0.2143
  390MOL0     H51416   0.732   1.728   4.821 -0.9870 -0.4370 -0.0638
  390MOL0     H51417   0.487   1.801   5.186  2.4635  1.3584 -1.9607
  390MOL0     H51418   0.398   1.658   5.135 -0.2071  0.5770  2.6951
  390MOL0     H51419   0.355   1.954   5.063 -1.5271  0.3844  0.4024
  390MOL0     H51420   0.267   1.827   5.166  1.9552 -0.9087  1.4797
  390MOL0     H51421   0.230   1.688   4.977 -1.6979 -0.6817 -1.3081
  390MOL0     H51422   0.293   1.802   4.862 -0.7919 -2.5668 -1.0455
  390MOL0     H51423   0.073   1.898   5.036 -0.1765 -2.4925  0.3717
  390MOL0     H51424   0.110   1.952   4.885 -0.1162 -0.3768  1.0436
  390MOL0     H51425  -0.091   1.798   4.894 -0.3822  1.2506 -1.6413
  390MOL0     H51426   0.002   1.676   4.943 -2.0511  1.6743  1.0129
  390MOL0     H51427   0.137   1.686   4.725  0.4787 -0.6517  0.5542
  390MOL0     H51428   0.053   1.826   4.684  1.5278  0.7851  1.8471
  390MOL0     H51429  -0.002   1.579   4.602  1.1556 -1.9620  1.2905
  390MOL0     H51430  -0.098   1.565   4.737  1.2180 -1.7226 -2.2211
  390MOL0     H51431  -0.198   1.664   4.518  2.9469  0.9050 -3.1214
  390MOL0     H51432  -0.076   1.792   4.529  3.6329 -1.0193  1.4129
  390MOL0     H51433  -0.374   1.663   4.746 -1.4618  0.5769 -0.5996
  390MOL0     H51434  -0.495   1.846   4.997 -0.4129 -2.0426  0.7035
  390MOL0     H51435  -0.561   1.763   4.863  0.5032 -0.0684  2.4318
  390MOL0     H51436  -0.641   1.979   4.762 -0.6173 -0.9518 -0.6470
  390MOL0     H51437  -0.584   2.063   4.915 -3.5073  0.9269  1.1845
  390MOL0     H51438  -0.723   1.920   5.049  0.8417  3.1470  0.8448
  390MOL0     H51439  -0.801   2.052   4.973  0.6470  0.8082 -0.3119
  390MOL0     H51440  -0.804   1.801   4.803  2.6217 -1.0123  1.4571
  390MOL0     H51441  -0.939   1.893   4.862  1.2403  0.8742 -1.8916
  390MOL0     H51442  -1.017   1.672   4.742 -1.8746  0.1533 -0.2306
  390MOL0     H51443  -1.202   1.532   4.733  0.7940  2.1767 -0.9853
  390MOL0     H51444  -1.499   1.225   5.226 -3.4731  4.5069 -1.0400
  390MOL0     H51445  -1.665   1.052   5.205  2.9353  0.5739  2.0464
  390MOL0     H51446  -1.792   0.899   4.785  0.5707  1.5295 -0.8234
  390MOL0     H51447  -1.858   1.045   4.861 -0.3876 -0.2449 -1.6130
  390MOL0     H51448  -1.961   0.766   4.932  0.9668  0.4436  3.8141
  390MOL0     H51449  -2.031   0.876   4.829  1.6903 -2.8977 -0.7134
  390MOL0     H51450  -2.036   1.044   5.038 -0.2248  0.1769 -1.4097
  390MOL0     H51451  -1.979   0.901   5.127  2.0088 -1.4616 -1.8740
  390MOL0     H51452  -2.210   0.937   5.156  0.9229 -3.0574  0.8508
  390MOL0     H51453  -2.237   0.943   4.982 -2.1908  0.5817  0.9386
  390MOL0     H51454  -2.140   0.704   5.152  1.5948 -2.9592 -1.7602
  390MOL0     H51455  -2.187   0.692   4.981  2.1003  0.8378  0.5363
  390MOL0     H51456  -2.427   0.800   5.079 -1.3086 -0.9351  1.0665
  390MOL0     H51457  -2.361   0.755   5.241  1.5747  1.3770  0.0409
  390MOL0     H51458  -2.398   0.544   5.219  1.2416 -1.3494 -1.1745
  390MOL0     H51459  -2.538   0.584   5.117 -0.7414 -0.7275 -0.9293
  390MOL0     H51460  -2.266   0.476   5.025 -1.2940  0.0244 -0.2808
  390MOL0     H51461  -2.372   0.541   4.909  4.0748  0.9516 -0.7457
  390MOL0     H51462  -1.568   0.958   4.806  0.5097 -2.4554  1.0881
  390MOL0     H51463  -1.384   1.150   4.822 -1.1072 -0.3354  0.0452
  390MOL0     H51464  -1.161   1.420   5.134 -2.9481 -0.1295 -1.5967
  390MOL0     H51465  -0.983   1.600   5.173 -1.6099 -0.2827  1.3404
  390MOL0     H51466   0.585   1.572   5.200 -0.1998 -4.4245 -0.5343
  390MOL0     H51467   0.787   1.436   5.212 -0.1169  0.0211  0.0537
  390MOL0     H51468   1.321   1.540   5.162  1.8243  0.7048 -1.3069
  390MOL0     H51469   1.519   1.404   5.200  0.5528 -0.4208 -1.7414
  390MOL0     H51470   1.680   1.224   5.254 -0.4475 -0.3804  1.1930
  390MOL0     H51471   1.691   1.044   5.251 -0.7439 -0.1438  0.7857
  390MOL0     H51472   1.466   1.183   5.402 -0.4924 -1.8233  0.4247
  390MOL0     H51473   1.550   1.020   5.433  1.1669 -0.7565 -2.0274
  390MOL0     H51474   1.596   1.303   5.519  1.3639  0.9046  0.9539
  390MOL0     H51475   1.746   1.232   5.492  1.5613 -1.3241  6.6963
  390MOL0     H51476   1.706   1.187   5.720  0.2988  1.8368 -1.2716
  390MOL0     H51477   1.559   1.086   5.678 -0.3188  2.8382  0.4899
  390MOL0     H51478   1.914   0.885   5.545 -0.3206  2.0972 -2.5758
  390MOL0     H51479   1.305   1.046   5.067 -1.8382  0.1178 -0.7817
  390MOL0     H51480   1.108   1.180   5.029 -0.4353 -0.5965  1.7962
  391MOL0     O51481   4.422   4.668  11.006 -0.6379 -0.5294  0.1074
  391MOL0     C51482   4.356   4.566  10.997 -0.3498 -0.2185 -0.4582
  391MOL0     O51483   4.281   4.513  11.097  0.1638 -0.1977  0.7325
  391MOL0     C51484   4.252   4.582  11.217 -0.9673 -0.6661 -0.0966
  391MOL0     C51485   4.154   4.677  11.219  0.3826  0.3908 -0.7003
  391MOL0     C51486   4.120   4.730  11.346  0.0758  0.2384 -0.1723
  391MOL0     C51487   4.171   4.685  11.464  0.6107 -0.2707 -0.2955
  391MOL0     O51488   4.130   4.751  11.578  0.3435 -0.6762 -0.3419
  391MOL0     C51489   4.206   4.874  11.594  0.5655  0.4425 -0.7983
  391MOL0     C51490   4.342   4.845  11.644  1.8499  0.7272  0.5482
  391MOL0     C51491   4.350   4.802  11.792 -0.1622  0.5352 -0.2124
  391MOL0     C51492   4.488   4.747  11.814 -1.5870  0.6146  0.9032
  391MOL0     C51493   4.516   4.730  11.963  0.2276  0.0109  1.0087
  391MOL0     C51494   4.607   4.621  11.998 -0.0429  0.9039 -0.1875
  391MOL0     C51495   4.608   4.584  12.143  0.1024 -0.1900  0.0549
  391MOL0     C51496   4.746   4.531  12.184  0.2193  1.0004  0.4722
  391MOL0     N51497   4.753   4.400  12.112  0.1551  0.7086 -0.1794
  391MOL0     C51498   4.693   4.286  12.152 -0.2250 -0.8564 -0.2815
  391MOL0     C51499   4.763   4.178  12.109 -0.1469  0.4720 -0.6081
  391MOL0     C51500   4.744   4.035  12.163 -0.2312  0.7726  0.2111
  391MOL0     C51501   4.732   3.935  12.050 -0.3240 -0.8063  0.8236
  391MOL0     C51502   4.747   3.789  12.104  0.5945  0.2656  0.2044
  391MOL0     C51503   4.892   3.764  12.159 -0.4513 -0.0283  0.0076
  391MOL0     O51504   4.900   3.627  12.204 -0.3430  0.4693  1.0456
  391MOL0     C51505   4.873   3.600  12.335  0.3025 -0.1527  0.3316
  391MOL0     C51506   4.933   3.485  12.380  0.9614 -0.3495  0.0032
  391MOL0     C51507   4.877   3.419  12.497 -0.6197 -0.8614  0.3321
  391MOL0     C51508   4.781   3.486  12.580 -0.4960  0.5694  0.9790
  391MOL0     C51509   4.746   3.434  12.713  0.0150  0.7412 -0.3676
  391MOL0     O51510   4.807   3.306  12.747  0.2772 -0.0077  0.0894
  391MOL0     C51511   4.853   3.265  12.869  0.1205  0.3707  0.0161
  391MOL0     C51512   4.891   3.132  12.885  0.2747  0.0535 -0.4338
  391MOL0     C51513   4.922   3.093  13.015  0.7389 -0.0052  0.2170
  391MOL0     C51514   4.915   3.175  13.126 -0.0870 -0.3374 -0.1564
  391MOL0     O51515   4.932   3.136  13.260 -0.1657  0.4980 -0.1013
  391MOL0     C51516   4.901   2.996  13.298 -0.4767 -0.6338 -0.4257
  391MOL0     C51517   4.752   2.964  13.295  0.3527  0.3699  0.9237
  391MOL0     C51518   4.716   2.812  13.333  1.3595 -0.0015 -0.3435
  391MOL0     C51519   4.736   2.781  13.477 -0.1426  0.2752 -0.4630
  391MOL0     C51520   4.682   2.893  13.572  0.1032  0.3024 -0.7897
  391MOL0     C51521   4.535   2.915  13.567  0.1659 -0.0291  0.0429
  391MOL0     C51522   4.456   2.791  13.614  0.2268  0.1721 -0.7831
  391MOL0     C51523   4.307   2.782  13.566 -0.1624  0.5206 -0.4664
  391MOL0    Cl51524   4.237   2.948  13.620 -0.1720 -0.2472 -0.1233
  391MOL0     C51525   4.888   3.314  13.102 -0.3616  1.0009 -1.4266
  391MOL0     C51526   4.861   3.356  12.975 -0.8637 -0.6966 -0.5776
  391MOL0     O51527   4.691   3.507  12.790  1.0117  0.4891  0.1672
  391MOL0     C51528   4.729   3.611  12.531  0.1154 -0.7292  0.1060
  391MOL0     C51529   4.774   3.671  12.408 -0.3669 -0.0258  0.3119
  391MOL0     N51530   4.881   4.235  12.049 -0.5867  0.4665  0.6541
  391MOL0     N51531   4.868   4.362  12.050 -0.6436  0.3253  0.1334
  391MOL0     C51532   4.252   4.571  11.466  0.6715  0.0325  0.2292
  391MOL0     C51533   4.297   4.527  11.343 -0.7197 -0.1437  1.0845
  391MOL0     C51534   4.348   4.497  10.866 -0.3207  0.2650  1.0022
  391MOL0     C51535   4.288   4.371  10.846  0.4251  0.0389 -0.9158
  391MOL0     C51536   4.307   4.294  10.733 -0.1915  0.7543  0.2878
  391MOL0     C51537   4.378   4.350  10.623  0.6784  0.3611 -0.4741
  391MOL0     O51538   4.389   4.298  10.504  0.5163  0.1844  0.1014
  391MOL0     C51539   4.373   4.154  10.490  0.5466 -0.2586  0.5719
  391MOL0     C51540   4.499   4.092  10.545 -0.1764  0.3042 -0.3960
  391MOL0     C51541   4.478   3.942  10.554  0.7167 -0.3715 -1.0969
  391MOL0     C51542   4.605   3.870  10.549 -0.7576 -0.2452  0.2337
  391MOL0     C51543   4.674   3.866  10.414 -0.7764 -0.0446 -0.1095
  391MOL0     C51544   4.716   3.870  10.303  0.1888 -0.4331  0.0492
  391MOL0     C51545   4.423   4.476  10.632  0.8048  0.4539 -0.7008
  391MOL0     C51546   4.413   4.554  10.748 -0.5936 -0.0226  0.3718
  391MOL0     H51547   4.104   4.724  11.136 -0.2611  2.2557  0.6786
  391MOL0     H51548   4.053   4.815  11.347 -0.9574 -0.5509  1.5520
  391MOL0     H51549   4.166   4.944  11.667 -2.0496  2.3242 -3.7664
  391MOL0     H51550   4.223   4.935  11.504  4.1690  0.9986  0.1168
  391MOL0     H51551   4.403   4.935  11.634  2.8062  0.0154 -0.1685
  391MOL0     H51552   4.392   4.775  11.578 -0.4755  0.7956 -1.4503
  391MOL0     H51553   4.279   4.724  11.819 -0.1390  1.0030  1.2927
  391MOL0     H51554   4.324   4.877  11.868 -2.0258 -0.2965  0.0229
  391MOL0     H51555   4.496   4.652  11.761 -3.1749  1.6846 -1.3868
  391MOL0     H51556   4.569   4.808  11.773 -1.7383 -0.6878 -1.5191
  391MOL0     H51557   4.420   4.716  12.013  0.4623 -1.9148  1.0055
  391MOL0     H51558   4.563   4.818  12.008 -1.4790  0.5540  1.8093
  391MOL0     H51559   4.709   4.649  11.968  0.4121  1.8924  2.0399
  391MOL0     H51560   4.580   4.535  11.936  0.1416  2.8272 -3.1271
  391MOL0     H51561   4.577   4.675  12.196 -0.2606  0.6769 -1.5798
  391MOL0     H51562   4.528   4.513  12.166 -1.4856  1.7554  0.8429
  391MOL0     H51563   4.742   4.518  12.292  2.6095 -4.9815  0.2168
  391MOL0     H51564   4.832   4.594  12.163  1.9169 -1.6127 -0.9964
  391MOL0     H51565   4.608   4.287  12.219  0.0078 -0.7728  0.0143
  391MOL0     H51566   4.653   4.033  12.224 -1.9326  0.3197 -2.1973
  391MOL0     H51567   4.826   4.018  12.232  1.6757  2.7208 -1.4442
  391MOL0     H51568   4.818   3.947  11.984  2.4739 -0.2749  4.2724
  391MOL0     H51569   4.638   3.937  11.993  0.7365 -0.3346 -0.9711
  391MOL0     H51570   4.677   3.786  12.188 -2.3665  2.4310 -1.9610
  391MOL0     H51571   4.714   3.708  12.038 -1.7597  0.5704  0.9204
  391MOL0     H51572   4.930   3.832  12.236  2.3900  0.6391 -1.8640
  391MOL0     H51573   4.967   3.784  12.082 -1.2255 -2.3271 -1.4251
  391MOL0     H51574   4.994   3.427  12.311  1.8884 -0.2351  0.6984
  391MOL0     H51575   4.902   3.321  12.535 -1.0595 -0.6825  1.0959
  391MOL0     H51576   4.906   3.058  12.808  0.2599 -2.6166  1.9714
  391MOL0     H51577   4.946   2.987  13.015 -3.4349 -1.1041  1.0601
  391MOL0     H51578   4.932   3.002  13.403 -1.7523  2.6955 -0.1188
  391MOL0     H51579   4.963   2.923  13.245 -1.2134 -2.0913  0.6540
  391MOL0     H51580   4.731   2.973  13.188  0.9877 -0.3619  0.7315
  391MOL0     H51581   4.679   3.027  13.347 -0.2673  0.8453 -0.4737
  391MOL0     H51582   4.773   2.751  13.263 -1.7652  1.9179 -5.0147
  391MOL0     H51583   4.609   2.796  13.315  0.4256  0.4524  3.7523
  391MOL0     H51584   4.686   2.687  13.501  0.0600  0.0157 -1.0360
  391MOL0     H51585   4.844   2.772  13.492 -0.0008  2.0894 -0.1993
  391MOL0     H51586   4.717   2.994  13.549 -1.1765  0.9658  0.0579
  391MOL0     H51587   4.703   2.872  13.677  2.0187 -1.5882 -1.4612
  391MOL0     H51588   4.497   2.947  13.470 -2.3227 -2.3868  0.1200
  391MOL0     H51589   4.521   3.003  13.630  2.4053  2.8822 -3.1609
  391MOL0     H51590   4.496   2.697  13.573 -0.3081  0.0194 -0.9652
  391MOL0     H51591   4.458   2.802  13.722  3.9875 -0.1237 -0.6894
  391MOL0     H51592   4.258   2.701  13.619  0.0786  1.7306  1.7263
  391MOL0     H51593   4.303   2.769  13.457  0.0000  5.6799 -1.3777
  391MOL0     H51594   4.882   3.375  13.191  0.6013 -3.3555  1.9449
  391MOL0     H51595   4.869   3.464  12.967  1.9225 -0.2833  3.9752
  391MOL0     H51596   4.646   3.656  12.585 -0.3017 -0.5143 -0.6948
  391MOL0     H51597   4.725   3.761  12.374  2.9667  1.6645 -0.4778
  391MOL0     H51598   4.290   4.531  11.560 -1.4236 -0.2310  1.0033
  391MOL0     H51599   4.377   4.454  11.343 -1.4673 -1.0221 -0.2948
  391MOL0     H51600   4.230   4.314  10.919 -1.8719 -0.8652 -3.2917
  391MOL0     H51601   4.247   4.205  10.716  1.2233 -0.7082  2.4499
  391MOL0     H51602   4.356   4.140  10.383  0.6660  2.9247  0.0379
  391MOL0     H51603   4.281   4.120  10.538 -0.7849  1.9191 -0.2919
  391MOL0     H51604   4.573   4.114  10.468 -1.6307  0.2711 -1.8660
  391MOL0     H51605   4.525   4.136  10.642 -1.5255  3.5354 -1.3857
  391MOL0     H51606   4.424   3.903  10.467  0.2255  0.0411 -0.9808
  391MOL0     H51607   4.426   3.916  10.647  2.0948 -0.5812 -0.3559
  391MOL0     H51608   4.671   3.909  10.627 -3.8811  4.5034  0.9678
  391MOL0     H51609   4.585   3.764  10.569 -0.1842 -0.7440 -1.6299
  391MOL0     H51610   4.752   3.868  10.202  0.6144  0.5962  0.1618
  391MOL0     H51611   4.489   4.509  10.551  2.9196 -1.9040 -0.0621
  391MOL0     H51612   4.467   4.647  10.739 -2.1779  0.9473  0.4619
  392MOL0     O51613   1.411   6.047  11.361  0.7874  0.3981  0.5726
  392MOL0     C51614   1.297   6.078  11.325 -0.8448  0.0177 -0.5436
  392MOL0     O51615   1.180   6.014  11.367  0.1595  0.7644  0.1131
  392MOL0     C51616   1.181   5.916  11.464 -1.0821  0.6516  0.1258
  392MOL0     C51617   1.269   5.930  11.569  0.2964 -0.9239 -0.6976
  392MOL0     C51618   1.257   5.850  11.679 -0.0584  1.1658  0.2600
  392MOL0     C51619   1.172   5.744  11.681  1.0700  0.8038 -0.1920
  392MOL0     O51620   1.180   5.664  11.791 -0.6402 -0.3310 -0.8179
  392MOL0     C51621   1.054   5.608  11.841  0.0689 -0.1898 -0.3223
  392MOL0     C51622   1.089   5.521  11.967 -0.7692 -0.3050 -0.4585
  392MOL0     C51623   1.117   5.384  11.919 -0.1757 -1.3517  0.8525
  392MOL0     C51624   1.138   5.302  12.042  0.4341 -0.1114 -0.1279
  392MOL0     C51625   1.175   5.162  12.006  0.0383  0.1022  0.1711
  392MOL0     C51626   1.073   5.087  11.920 -0.3752  0.3648 -0.4839
  392MOL0     C51627   1.109   4.945  11.891  0.2123  1.3756 -0.5291
  392MOL0     C51628   1.065   4.842  11.995 -0.4836  0.4927 -0.1166
  392MOL0     N51629   0.920   4.808  11.978 -0.0223  1.5126  0.1221
  392MOL0     C51630   0.869   4.689  12.026  0.1716  0.1285  0.3549
  392MOL0     C51631   0.735   4.697  12.009  0.1734  0.2186  1.8458
  392MOL0     C51632   0.637   4.596  12.072 -0.5692 -0.4033  0.2199
  392MOL0     C51633   0.529   4.545  11.969  0.0482 -0.8566 -0.0744
  392MOL0     C51634   0.471   4.430  12.039  0.0242  1.1150 -0.4675
  392MOL0     C51635   0.365   4.374  11.953 -0.0810  0.2718 -0.5281
  392MOL0     O51636   0.247   4.456  11.959 -0.8288  0.7853 -0.3384
  392MOL0     C51637   0.142   4.421  11.878 -0.7557  0.6466 -0.3163
  392MOL0     C51638   0.156   4.427  11.738  0.2344  0.2228 -0.3501
  392MOL0     C51639   0.057   4.377  11.652 -0.8608  0.3265  0.0627
  392MOL0     C51640  -0.055   4.313  11.718 -0.4390 -0.8885  0.6067
  392MOL0     C51641  -0.160   4.254  11.641  0.5765 -0.2518 -0.8086
  392MOL0     O51642  -0.226   4.148  11.695 -0.5410  0.1350 -0.6350
  392MOL0     C51643  -0.325   4.091  11.617 -0.4771  0.6761 -0.2854
  392MOL0     C51644  -0.293   4.026  11.498  0.4601 -0.0847 -0.4370
  392MOL0     C51645  -0.388   3.963  11.423  0.3367 -0.2245  0.0909
  392MOL0     C51646  -0.526   3.962  11.458  0.4282  0.2813 -0.9701
  392MOL0     O51647  -0.635   3.897  11.393 -0.2432  0.6458  0.0959
  392MOL0     C51648  -0.614   3.875  11.251 -0.6137 -0.2592  0.2376
  392MOL0     C51649  -0.724   3.797  11.185  0.2379  0.6295  1.1130
  392MOL0     C51650  -0.756   3.653  11.243 -0.0171  0.2469 -0.3187
  392MOL0     C51651  -0.648   3.552  11.204  0.3351  0.6788 -0.2671
  392MOL0     C51652  -0.684   3.483  11.068 -0.6859  0.9963 -0.3309
  392MOL0     C51653  -0.594   3.371  11.039 -0.4743  0.0177  0.5576
  392MOL0     C51654  -0.465   3.409  10.983  0.1975  0.5720  0.3690
  392MOL0     C51655  -0.478   3.424  10.830  0.8711  1.0522  0.0825
  392MOL0    Cl51656  -0.485   3.267  10.737  0.1373  0.1034  0.1542
  392MOL0     C51657  -0.555   4.045  11.575  0.1767  0.9008 -0.1876
  392MOL0     C51658  -0.454   4.089  11.652  0.1657 -0.4123  0.4537
  392MOL0     O51659  -0.182   4.296  11.526  1.0483  0.2227 -0.5195
  392MOL0     C51660  -0.056   4.292  11.855  0.0891 -0.7689  0.7796
  392MOL0     C51661   0.040   4.350  11.934  0.7306  0.0975 -0.1642
  392MOL0     N51662   0.714   4.820  11.962  0.8249 -0.0276 -0.9637
  392MOL0     N51663   0.818   4.885  11.951 -0.5837 -0.3654  0.1801
  392MOL0     C51664   1.087   5.713  11.570 -0.4336 -0.0223  0.4416
  392MOL0     C51665   1.092   5.813  11.460  0.2243 -0.3537 -0.9109
  392MOL0     C51666   1.295   6.200  11.239 -0.6106 -0.1641 -0.7676
  392MOL0     C51667   1.395   6.233  11.151 -0.0750  0.2940 -0.1508
  392MOL0     C51668   1.396   6.350  11.076  0.1736  0.2650  0.1567
  392MOL0     C51669   1.297   6.443  11.102  0.0327 -0.8646 -0.6352
  392MOL0     O51670   1.312   6.562  11.035 -0.1567 -0.1111 -0.5710
  392MOL0     C51671   1.196   6.581  10.948 -0.2824 -0.5487 -0.2810
  392MOL0     C51672   1.236   6.564  10.805 -0.7720  0.5417 -0.2968
  392MOL0     C51673   1.133   6.586  10.697  0.5096  0.4295  0.0959
  392MOL0     C51674   1.183   6.567  10.556 -1.0374 -0.4884  1.3125
  392MOL0     C51675   1.297   6.660  10.532  0.1284  0.1798  0.2839
  392MOL0     C51676   1.382   6.741  10.506 -0.2447  0.8233 -0.0959
  392MOL0     C51677   1.190   6.421  11.189 -0.3752  0.3436 -0.0064
  392MOL0     C51678   1.189   6.295  11.249  0.0840  0.1188  0.3400
  392MOL0     H51679   1.340   6.008  11.590  0.3500 -1.1989  0.1961
  392MOL0     H51680   1.304   5.873  11.775  0.3471 -2.4564  1.0567
  392MOL0     H51681   0.992   5.556  11.768 -3.9903  0.8284  2.0867
  392MOL0     H51682   0.977   5.670  11.889  1.5289 -1.0239  3.4382
  392MOL0     H51683   1.006   5.523  12.038 -0.9768  0.1928 -0.7160
  392MOL0     H51684   1.179   5.554  12.019 -1.2494 -1.3428  1.1126
  392MOL0     H51685   1.203   5.392  11.851  0.2142  1.5415  1.5358
  392MOL0     H51686   1.030   5.341  11.869  1.3548 -0.9823 -2.3992
  392MOL0     H51687   1.218   5.350  12.099 -1.3647  3.3702 -0.2493
  392MOL0     H51688   1.054   5.301  12.112  0.1697  1.0541 -0.4105
  392MOL0     H51689   1.179   5.100  12.096 -2.0558 -0.4917 -0.0855
  392MOL0     H51690   1.275   5.165  11.962  0.3103  1.8467  0.8105
  392MOL0     H51691   1.058   5.127  11.819  1.0054  0.2814 -0.7454
  392MOL0     H51692   0.978   5.095  11.973 -0.3340 -3.5770  0.5022
  392MOL0     H51693   1.057   4.928  11.796  1.3583 -1.5136 -0.7535
  392MOL0     H51694   1.217   4.934  11.878  0.2591  1.1351  0.0441
  392MOL0     H51695   1.087   4.857  12.101  3.4756 -0.8667 -0.5949
  392MOL0     H51696   1.120   4.753  11.964  0.2554  0.5593  0.9549
  392MOL0     H51697   0.938   4.613  12.064  3.5766  3.6012  1.7731
  392MOL0     H51698   0.592   4.657  12.150  2.2045  0.6707  1.1268
  392MOL0     H51699   0.696   4.512  12.112  0.4517 -0.5922 -1.5181
  392MOL0     H51700   0.578   4.521  11.874  0.0227  0.9817 -0.5942
  392MOL0     H51701   0.452   4.621  11.952  1.9027  1.3102  0.6619
  392MOL0     H51702   0.550   4.360  12.066 -0.1086  0.8795 -0.6795
  392MOL0     H51703   0.419   4.467  12.127 -1.4966  3.0355 -2.0655
  392MOL0     H51704   0.342   4.273  11.988 -0.7358 -0.5574 -3.1362
  392MOL0     H51705   0.394   4.363  11.848 -2.4196  0.5254 -1.2732
  392MOL0     H51706   0.246   4.478  11.705  2.3883 -2.7838  0.5013
  392MOL0     H51707   0.051   4.411  11.549  2.9313  4.0753  0.7948
  392MOL0     H51708  -0.189   4.020  11.468  0.6060  0.9473 -0.1541
  392MOL0     H51709  -0.369   3.912  11.329 -2.4032 -0.1390 -0.6198
  392MOL0     H51710  -0.525   3.818  11.225  1.1218  1.5725  1.8010
  392MOL0     H51711  -0.595   3.970  11.200  0.3135  0.1490  1.2857
  392MOL0     H51712  -0.699   3.799  11.079  0.5727 -0.1040  1.1770
  392MOL0     H51713  -0.821   3.843  11.207 -0.3758  0.8830 -1.7282
  392MOL0     H51714  -0.860   3.624  11.225 -0.5288  1.6316  0.2884
  392MOL0     H51715  -0.770   3.657  11.351 -1.7863  0.2883 -0.5242
  392MOL0     H51716  -0.555   3.609  11.196 -0.1889  1.9037  1.7562
  392MOL0     H51717  -0.642   3.476  11.283  2.3519  2.3311  1.2735
  392MOL0     H51718  -0.674   3.561  10.992 -1.0002  3.1790  1.7698
  392MOL0     H51719  -0.785   3.441  11.073 -0.7083  1.1820  0.8695
  392MOL0     H51720  -0.630   3.302  10.961  2.5060  1.2547 -2.1574
  392MOL0     H51721  -0.579   3.314  11.131  1.6628 -0.8451 -0.2589
  392MOL0     H51722  -0.439   3.511  11.013  2.3161  0.0029  0.5770
  392MOL0     H51723  -0.383   3.340  11.004  0.2558  0.2293 -0.8878
  392MOL0     H51724  -0.387   3.474  10.796  0.7263  2.9454  2.2403
  392MOL0     H51725  -0.566   3.478  10.792  1.3697  0.4019 -2.1629
  392MOL0     H51726  -0.657   4.058  11.610  1.2435  2.0220  2.7846
  392MOL0     H51727  -0.485   4.142  11.742  1.6195 -1.2845  1.5054
  392MOL0     H51728  -0.135   4.231  11.899 -1.1037  0.5946  0.5818
  392MOL0     H51729   0.046   4.337  12.042  0.4755  0.3471 -0.1197
  392MOL0     H51730   1.027   5.623  11.569  1.1414 -1.2235  2.9437
  392MOL0     H51731   1.021   5.797  11.379 -0.7215  1.1336 -0.4256
  392MOL0     H51732   1.470   6.161  11.120 -0.2364  0.3294 -0.6357
  392MOL0     H51733   1.461   6.367  10.991 -1.8041 -0.4324 -1.5702
  392MOL0     H51734   1.149   6.679  10.963  1.6631  0.7017 -1.8184
  392MOL0     H51735   1.123   6.501  10.965  0.1791 -0.3181  3.7775
  392MOL0     H51736   1.319   6.634  10.789 -0.8272  1.4372  2.6289
  392MOL0     H51737   1.270   6.462  10.791 -0.2791  0.8969 -1.8356
  392MOL0     H51738   1.105   6.691  10.689  2.1639  0.7879 -1.9740
  392MOL0     H51739   1.048   6.517  10.701 -0.8325  1.8224 -2.2705
  392MOL0     H51740   1.224   6.467  10.539 -0.4398 -0.0316 -0.0605
  392MOL0     H51741   1.105   6.586  10.482  1.0270 -0.8968 -1.1302
  392MOL0     H51742   1.438   6.826  10.472 -1.0914  0.4847 -2.5644
  392MOL0     H51743   1.110   6.493  11.205  2.1837  3.0223  1.8401
  392MOL0     H51744   1.102   6.269  11.308  0.2927 -4.1513 -0.8927
  393MOL0     O51745   4.207   8.327  10.057  0.2139 -0.3436  0.1690
  393MOL0     C51746   4.332   8.335  10.030 -0.3300  1.1394 -0.4151
  393MOL0     O51747   4.389   8.393   9.927  0.3072  0.3144  0.7256
  393MOL0     C51748   4.318   8.469   9.837 -0.1964 -0.1691 -0.3012
  393MOL0     C51749   4.284   8.597   9.879 -0.1572 -0.0977  0.6131
  393MOL0     C51750   4.220   8.687   9.779 -0.4487 -0.4112 -0.5518
  393MOL0     C51751   4.189   8.638   9.652  0.7263 -1.1629  0.9528
  393MOL0     O51752   4.121   8.728   9.569  0.2105  1.1959  0.8132
  393MOL0     C51753   4.048   8.677   9.449  0.3928 -0.6464 -0.3450
  393MOL0     C51754   3.954   8.787   9.384 -0.1820 -0.0641 -0.9597
  393MOL0     C51755   3.882   8.867   9.494 -0.0889  0.1658  0.5825
  393MOL0     C51756   3.798   8.988   9.439  0.7697  0.0853  0.4399
  393MOL0     C51757   3.721   8.970   9.313  0.3090  0.1667 -0.8472
  393MOL0     C51758   3.568   8.950   9.337 -0.3946  0.2595  0.2648
  393MOL0     C51759   3.498   8.904   9.215 -0.2850  0.9445  0.2252
  393MOL0     C51760   3.482   9.013   9.104  0.0972  0.6858  0.6047
  393MOL0     N51761   3.426   8.967   8.974 -0.4135  0.1446 -0.2583
  393MOL0     C51762   3.497   8.887   8.880  0.1213 -0.3693  0.1716
  393MOL0     C51763   3.394   8.847   8.796  0.4175 -0.9580  0.6177
  393MOL0     C51764   3.414   8.748   8.692  0.3591 -0.9894 -0.1943
  393MOL0     C51765   3.524   8.780   8.597  0.8886 -0.2974  0.1017
  393MOL0     C51766   3.575   8.662   8.521 -0.0774 -0.3877  0.5864
  393MOL0     C51767   3.483   8.624   8.398  0.4236 -0.4258 -1.1071
  393MOL0     O51768   3.341   8.634   8.429  0.4039  0.1125 -0.4166
  393MOL0     C51769   3.263   8.573   8.338 -0.3709  0.0477 -0.1370
  393MOL0     C51770   3.164   8.469   8.361  0.5811 -1.1146  0.3219
  393MOL0     C51771   3.109   8.399   8.258  0.4588 -0.0054  0.2080
  393MOL0     C51772   3.144   8.421   8.125  0.7923 -0.5520  0.1621
  393MOL0     C51773   3.087   8.332   8.029 -1.2413  0.1608  0.0453
  393MOL0     O51774   3.152   8.340   7.906  0.0022  0.1216 -0.6163
  393MOL0     C51775   3.103   8.303   7.787 -0.3447  0.5155  1.6361
  393MOL0     C51776   2.980   8.242   7.757 -0.2883 -0.3426 -0.3623
  393MOL0     C51777   2.949   8.206   7.624  0.2230  0.2466 -0.7271
  393MOL0     C51778   3.030   8.254   7.518  0.4887 -0.3244 -0.1450
  393MOL0     O51779   3.005   8.258   7.380 -0.5118  0.0421 -0.0663
  393MOL0     C51780   2.904   8.176   7.324 -0.2115  0.5205 -0.1260
  393MOL0     C51781   2.846   8.216   7.189  0.3865 -0.4210 -0.3609
  393MOL0     C51782   2.942   8.192   7.073  0.6082 -0.4344 -0.2441
  393MOL0     C51783   2.884   8.250   6.939  0.5549  0.0025  0.1306
  393MOL0     C51784   2.977   8.248   6.820  0.2012  0.3181  0.5939
  393MOL0     C51785   2.898   8.262   6.690 -0.3580 -1.0465  0.4788
  393MOL0     C51786   2.855   8.133   6.623  0.9880  0.0784 -0.2423
  393MOL0     C51787   2.727   8.140   6.546  0.0649 -0.6216 -0.1471
  393MOL0    Cl51788   2.601   8.137   6.656 -0.2019  0.4641  0.3152
  393MOL0     C51789   3.152   8.293   7.547 -0.4435  0.5725  0.6105
  393MOL0     C51790   3.195   8.322   7.680  0.4613  1.3651  0.3534
  393MOL0     O51791   2.994   8.270   8.056  0.5218  0.0456  0.6537
  393MOL0     C51792   3.221   8.534   8.100 -0.5437 -0.3984  0.0720
  393MOL0     C51793   3.285   8.604   8.203 -0.1681 -0.4741 -0.1486
  393MOL0     N51794   3.267   8.889   8.855 -0.6814  0.1667 -0.0276
  393MOL0     N51795   3.290   8.965   8.954 -1.1522 -0.5634  0.8607
  393MOL0     C51796   4.230   8.511   9.615  0.9115  0.0794  0.9361
  393MOL0     C51797   4.288   8.423   9.711  0.2357 -0.5588  1.0710
  393MOL0     C51798   4.426   8.254  10.111  0.4746 -0.2503 -0.2955
  393MOL0     C51799   4.379   8.132  10.168  0.0177 -0.5310  0.1694
  393MOL0     C51800   4.461   8.056  10.252 -0.0588  0.4301 -0.4538
  393MOL0     C51801   4.593   8.095  10.276 -0.2784 -0.0486 -0.4693
  393MOL0     O51802   4.660   8.017  10.367  1.2411 -0.4842  0.7156
  393MOL0     C51803   4.755   8.081  10.454  0.4457 -0.1757  0.4155
  393MOL0     C51804   4.759   8.008  10.587 -0.5552  0.2084 -1.9261
  393MOL0     C51805   4.804   8.101  10.696  0.2685 -0.1005 -0.4950
  393MOL0     C51806   4.777   8.042  10.840  0.1753 -0.3060 -0.2867
  393MOL0     C51807   4.810   8.128  10.948 -0.2717 -0.9461  0.0721
  393MOL0     C51808   4.850   8.199  11.033 -0.1929  0.0913  0.0018
  393MOL0     C51809   4.644   8.212  10.222 -0.8419 -0.1234 -0.1481
  393MOL0     C51810   4.556   8.295  10.143  0.0035  1.3165 -0.0876
  393MOL0     H51811   4.311   8.635   9.977  3.3532 -0.0420 -0.2647
  393MOL0     H51812   4.183   8.786   9.803  2.9017  0.4634  1.6904
  393MOL0     H51813   3.986   8.594   9.483  1.2888 -0.6587  1.3826
  393MOL0     H51814   4.117   8.634   9.375 -1.0599 -0.7925 -1.6644
  393MOL0     H51815   3.878   8.725   9.335  1.4990 -1.9740 -1.2522
  393MOL0     H51816   4.006   8.846   9.308  0.6361 -1.4893 -1.5576
  393MOL0     H51817   3.960   8.905   9.561 -0.2142 -1.8730  1.9889
  393MOL0     H51818   3.804   8.810   9.544 -2.9178  2.8895 -0.4316
  393MOL0     H51819   3.729   9.019   9.518  0.1734  1.1620 -0.4894
  393MOL0     H51820   3.868   9.071   9.431  2.9725 -1.6997  0.1353
  393MOL0     H51821   3.748   8.882   9.254  0.1207  1.6653 -3.3331
  393MOL0     H51822   3.734   9.061   9.254 -1.6892  1.5571  0.7146
  393MOL0     H51823   3.520   9.041   9.374  2.2925  2.5030 -1.3228
  393MOL0     H51824   3.552   8.878   9.417 -2.8414  0.0173 -0.3559
  393MOL0     H51825   3.548   8.821   9.164  0.0098  2.4373 -2.0817
  393MOL0     H51826   3.401   8.857   9.234  0.4643 -1.5097 -1.5105
  393MOL0     H51827   3.579   9.054   9.073  1.4498 -1.2724  1.9921
  393MOL0     H51828   3.414   9.086   9.150  1.4173 -0.0922  4.1454
  393MOL0     H51829   3.601   8.859   8.863 -0.1727 -0.0865 -2.5361
  393MOL0     H51830   3.318   8.729   8.643 -1.5590  1.7526  2.1786
  393MOL0     H51831   3.438   8.655   8.744 -1.7145 -1.1592  0.5695
  393MOL0     H51832   3.612   8.822   8.647  0.7949  1.4942 -1.1488
  393MOL0     H51833   3.491   8.856   8.525 -2.0596 -1.3853  0.1693
  393MOL0     H51834   3.675   8.681   8.481  0.7172 -2.1069  1.6280
  393MOL0     H51835   3.594   8.572   8.581 -3.4935 -1.2149  0.6646
  393MOL0     H51836   3.518   8.525   8.368 -1.9154 -2.0076  1.0169
  393MOL0     H51837   3.496   8.700   8.320 -0.3609  1.3778  0.4221
  393MOL0     H51838   3.135   8.448   8.464 -1.6341 -1.2413 -0.2651
  393MOL0     H51839   3.041   8.324   8.294  1.1099 -0.0448  1.4145
  393MOL0     H51840   2.910   8.220   7.837  1.9860 -0.7871  1.6299
  393MOL0     H51841   2.855   8.157   7.602  0.9027 -0.8255 -1.3710
  393MOL0     H51842   2.821   8.171   7.395  1.1173  0.6084  1.4907
  393MOL0     H51843   2.952   8.079   7.306 -0.3257  0.4492 -0.0398
  393MOL0     H51844   2.835   8.324   7.198  0.1965 -0.3574 -1.3102
  393MOL0     H51845   2.747   8.174   7.166 -0.1333  0.0428  0.9368
  393MOL0     H51846   2.954   8.084   7.063 -3.2934 -1.3252  2.2630
  393MOL0     H51847   3.039   8.240   7.093  1.8344 -3.6925  2.5889
  393MOL0     H51848   2.786   8.204   6.924  0.5865  0.2171 -0.7770
  393MOL0     H51849   2.869   8.356   6.961  0.4819 -0.2699  1.5161
  393MOL0     H51850   3.031   8.154   6.813 -1.2604 -0.4697 -0.5850
  393MOL0     H51851   3.059   8.319   6.837  1.0262 -0.5085  0.1453
  393MOL0     H51852   2.954   8.329   6.624 -2.0870 -1.1727 -1.2128
  393MOL0     H51853   2.807   8.322   6.704  1.8698  2.8851 -0.4135
  393MOL0     H51854   2.932   8.101   6.552  1.6069 -1.6902  1.1296
  393MOL0     H51855   2.842   8.052   6.696  2.5336 -3.5126 -3.5431
  393MOL0     H51856   2.719   8.069   6.463 -3.0580 -1.8670  1.0826
  393MOL0     H51857   2.724   8.230   6.483  1.5816 -1.4161 -1.4238
  393MOL0     H51858   3.225   8.305   7.467 -1.8479 -1.7735 -1.1364
  393MOL0     H51859   3.299   8.348   7.698  0.4468 -0.2130  3.3715
  393MOL0     H51860   3.228   8.559   7.994 -1.9072 -1.1387 -0.2098
  393MOL0     H51861   3.349   8.685   8.171 -2.8732  2.2213  0.8612
  393MOL0     H51862   4.202   8.468   9.519 -0.3929  1.0798  0.8449
  393MOL0     H51863   4.306   8.318   9.689 -0.0761 -1.1749  3.4725
  393MOL0     H51864   4.278   8.099  10.146 -0.9611  0.5172  2.7054
  393MOL0     H51865   4.421   7.965  10.296  0.0581 -2.0647 -4.9259
  393MOL0     H51866   4.737   8.187  10.473  2.8475  0.1798  0.9641
  393MOL0     H51867   4.849   8.085  10.399 -0.1989 -1.5468 -0.8601
  393MOL0     H51868   4.660   7.972  10.616 -1.6544  3.6909 -0.9061
  393MOL0     H51869   4.834   7.928  10.587 -0.7945 -0.0955  0.5035
  393MOL0     H51870   4.757   8.198  10.678 -0.8194 -0.5915 -0.3733
  393MOL0     H51871   4.913   8.112  10.689  0.7880 -2.5608  1.9628
  393MOL0     H51872   4.672   8.014  10.849 -0.2718  1.9655  3.3106
  393MOL0     H51873   4.834   7.950  10.846  2.4557  1.1131  1.9315
  393MOL0     H51874   4.882   8.254  11.119  1.7031 -0.1490 -0.5029
  393MOL0     H51875   4.746   8.241  10.242 -1.0744  0.2917  0.4858
  393MOL0     H51876   4.600   8.391  10.118 -0.8154  2.3398  2.1660
  394MOL0     O51877   2.475   6.615  10.584  0.0050  0.4792 -0.9432
  394MOL0     C51878   2.408   6.626  10.485 -0.9052 -0.5604  0.6255
  394MOL0     O51879   2.382   6.515  10.406  0.4903  0.1573  0.1686
  394MOL0     C51880   2.395   6.382  10.433 -0.1238  0.6354 -0.0498
  394MOL0     C51881   2.400   6.320  10.553 -0.8986 -0.7794  0.0248
  394MOL0     C51882   2.418   6.182  10.566 -0.4537 -0.1817 -1.0849
  394MOL0     C51883   2.428   6.097  10.455 -0.7146 -0.4219  0.5889
  394MOL0     O51884   2.460   5.970  10.475 -0.2325 -0.4870  0.0226
  394MOL0     C51885   2.406   5.868  10.389 -0.5537 -0.3031  0.5736
  394MOL0     C51886   2.431   5.735  10.468  0.3894  0.3028 -0.4986
  394MOL0     C51887   2.347   5.626  10.412 -0.3203  0.5728 -0.1838
  394MOL0     C51888   2.344   5.518  10.521  0.0252 -0.0623  0.2979
  394MOL0     C51889   2.262   5.403  10.485 -0.3448 -0.9931 -0.2446
  394MOL0     C51890   2.318   5.307  10.385 -0.5154  0.2833  0.3344
  394MOL0     C51891   2.222   5.204  10.324 -0.0016 -0.9016 -0.0956
  394MOL0     C51892   2.213   5.080  10.416  0.2072  0.4762  0.0245
  394MOL0     N51893   2.108   5.102  10.517  0.4416  0.2391 -0.1573
  394MOL0     C51894   1.974   5.108  10.504 -0.0172  0.3622 -0.3794
  394MOL0     C51895   1.924   5.099  10.632 -0.4077 -0.7182 -0.4557
  394MOL0     C51896   1.777   5.072  10.670 -0.1506 -0.0047  0.3919
  394MOL0     C51897   1.738   4.928  10.642 -0.1040 -0.1128 -0.8932
  394MOL0     C51898   1.832   4.818  10.706  0.8450 -0.2186 -1.0122
  394MOL0     C51899   1.832   4.827  10.859 -0.0981 -0.2675 -0.2801
  394MOL0     O51900   1.948   4.747  10.904  0.2174  0.6525  0.3438
  394MOL0     C51901   1.932   4.612  10.883  0.4704 -0.5081  0.6872
  394MOL0     C51902   1.805   4.536  10.883  0.4329 -0.6940 -0.6286
  394MOL0     C51903   1.816   4.402  10.868  0.5532  0.3572 -0.2498
  394MOL0     C51904   1.933   4.333  10.841  0.2314 -0.3192 -0.9518
  394MOL0     C51905   1.936   4.181  10.823 -0.5347 -0.8490 -0.2204
  394MOL0     O51906   2.059   4.134  10.761 -0.5146  0.4207 -0.4125
  394MOL0     C51907   2.092   4.003  10.788 -0.5455  0.6437  0.3651
  394MOL0     C51908   2.037   3.911  10.886  0.7547 -0.1082  0.0576
  394MOL0     C51909   2.090   3.791  10.902  0.0426  0.7398 -0.2346
  394MOL0     C51910   2.180   3.737  10.809  0.0298 -0.3159 -0.4259
  394MOL0     O51911   2.209   3.606  10.827 -0.6522  0.4202 -1.1943
  394MOL0     C51912   2.292   3.531  10.740  0.2093  0.4140  0.0402
  394MOL0     C51913   2.321   3.399  10.815 -0.0132 -0.3719  0.4860
  394MOL0     C51914   2.437   3.332  10.752 -0.4030  1.0172 -0.2793
  394MOL0     C51915   2.474   3.199  10.821 -0.0264  0.0719  0.5978
  394MOL0     C51916   2.463   3.073  10.734 -0.0156 -0.2227  0.1454
  394MOL0     C51917   2.511   2.937  10.793 -0.0734 -0.4907  0.0556
  394MOL0     C51918   2.464   2.893  10.932 -0.5529  0.1925  0.2542
  394MOL0     C51919   2.315   2.863  10.942 -0.5616 -0.0084 -0.8416
  394MOL0    Cl51920   2.293   2.850  11.123  0.5793  0.6165  0.1847
  394MOL0     C51921   2.223   3.818  10.701 -0.4629  0.6875  0.0879
  394MOL0     C51922   2.181   3.950  10.700 -0.1072  0.4358 -0.4603
  394MOL0     O51923   1.844   4.109  10.858  0.7195  0.1660 -0.4656
  394MOL0     C51924   2.046   4.412  10.836 -0.8188 -0.8655  0.5057
  394MOL0     C51925   2.047   4.547  10.856 -0.9739  0.6547  0.6226
  394MOL0     N51926   2.031   5.093  10.720 -0.0618  0.0338  0.0126
  394MOL0     N51927   2.145   5.098  10.651 -0.3685 -0.5412 -0.0572
  394MOL0     C51928   2.428   6.159  10.326  0.7233 -0.4222 -0.6445
  394MOL0     C51929   2.405   6.295  10.320  0.4443 -0.2938  0.4987
  394MOL0     C51930   2.338   6.758  10.441  0.5780  0.7414 -0.7619
  394MOL0     C51931   2.353   6.873  10.515  0.7248 -0.8194  0.6859
  394MOL0     C51932   2.272   6.987  10.492  1.0595  0.0828 -0.2258
  394MOL0     C51933   2.186   7.004  10.383 -0.0223 -0.5836  0.0964
  394MOL0     O51934   2.129   7.121  10.362  1.2470 -0.3062  0.5466
  394MOL0     C51935   2.030   7.126  10.250 -0.4020 -0.2610  0.1928
  394MOL0     C51936   1.964   7.265  10.248 -0.6212 -0.7214 -0.1298
  394MOL0     C51937   1.869   7.273  10.133  0.8083  0.1861  0.1036
  394MOL0     C51938   1.804   7.405  10.112 -0.0022 -0.1556 -0.0953
  394MOL0     C51939   1.739   7.414   9.982  0.0867 -0.8717 -0.0357
  394MOL0     C51940   1.692   7.416   9.876 -0.3014  0.8466  0.5408
  394MOL0     C51941   2.179   6.885  10.305  0.2274 -0.3203 -0.2643
  394MOL0     C51942   2.249   6.767  10.330  0.5546  0.2487 -0.7877
  394MOL0     H51943   2.397   6.385  10.640  1.5310  0.0397 -0.4189
  394MOL0     H51944   2.425   6.149  10.669 -1.5024  1.4763 -0.4451
  394MOL0     H51945   2.461   5.862  10.295  0.1813 -0.0352  0.9736
  394MOL0     H51946   2.298   5.872  10.371 -0.5020 -1.6643 -0.1510
  394MOL0     H51947   2.397   5.748  10.571 -3.3864  0.2838 -1.6002
  394MOL0     H51948   2.539   5.715  10.469  0.5617  1.1580  1.1514
  394MOL0     H51949   2.383   5.580  10.320 -1.8312 -0.8812 -0.1055
  394MOL0     H51950   2.243   5.661  10.412 -1.6512 -2.9377 -1.2703
  394MOL0     H51951   2.445   5.480  10.539  1.4934  2.2806 -2.2944
  394MOL0     H51952   2.304   5.558  10.614 -0.1724 -4.8889  2.6364
  394MOL0     H51953   2.168   5.440  10.444  0.2201 -0.4563 -1.0793
  394MOL0     H51954   2.237   5.352  10.579 -0.5012 -0.0708  0.2226
  394MOL0     H51955   2.408   5.266  10.433 -0.0000  0.6585 -0.2889
  394MOL0     H51956   2.362   5.366  10.304  0.9572  0.4653  1.2233
  394MOL0     H51957   2.124   5.252  10.320  0.0240 -0.9094 -0.9047
  394MOL0     H51958   2.248   5.178  10.221  0.3277  3.4369 -1.2906
  394MOL0     H51959   2.314   5.079  10.457  0.4941  2.2277 -0.5602
  394MOL0     H51960   2.196   4.981  10.373 -0.0596  1.7515 -3.0305
  394MOL0     H51961   1.918   5.085  10.414  0.8387 -0.7708 -0.6412
  394MOL0     H51962   1.709   5.131  10.608  0.2064 -1.4159 -1.4403
  394MOL0     H51963   1.775   5.089  10.778  1.3573 -0.4810  0.5171
  394MOL0     H51964   1.742   4.915  10.534  1.0664  0.9721 -1.0144
  394MOL0     H51965   1.639   4.914  10.687 -0.3937  2.7338 -0.4222
  394MOL0     H51966   1.791   4.719  10.683  0.2510 -0.2167  0.0023
  394MOL0     H51967   1.931   4.828  10.660  1.9316 -1.7037  0.8507
  394MOL0     H51968   1.738   4.804  10.911  0.0640  2.2129  1.2804
  394MOL0     H51969   1.863   4.928  10.888  3.3708 -0.7757 -1.8395
  394MOL0     H51970   1.713   4.583  10.916 -1.0714 -2.7569 -1.6556
  394MOL0     H51971   1.726   4.341  10.866 -0.1866  1.4068 -2.1522
  394MOL0     H51972   1.956   3.946  10.949 -0.6996  0.2315 -1.8799
  394MOL0     H51973   2.055   3.718  10.974 -0.4420 -0.7593 -1.9084
  394MOL0     H51974   2.382   3.593  10.738 -1.2616  2.6895 -2.5386
  394MOL0     H51975   2.256   3.524  10.637  4.4809 -1.3425 -1.5417
  394MOL0     H51976   2.237   3.330  10.806 -0.8407  0.5889  0.6033
  394MOL0     H51977   2.338   3.412  10.923  0.0609 -0.1248  0.4449
  394MOL0     H51978   2.522   3.400  10.751  1.2390 -0.9276 -0.3469
  394MOL0     H51979   2.402   3.311  10.650 -2.3943  1.7977  0.1912
  394MOL0     H51980   2.578   3.205  10.853  0.2536  0.4669 -0.3405
  394MOL0     H51981   2.414   3.185  10.912 -0.9140 -1.9080 -0.2266
  394MOL0     H51982   2.526   3.090  10.646  1.0117  2.8327  1.3557
  394MOL0     H51983   2.358   3.058  10.709 -0.4794 -2.4214  2.9016
  394MOL0     H51984   2.620   2.939  10.793 -0.0247  0.9919 -2.6564
  394MOL0     H51985   2.479   2.856  10.727  0.9092 -0.4063 -0.5450
  394MOL0     H51986   2.510   2.806  10.979 -0.7310 -1.4452 -2.4393
  394MOL0     H51987   2.476   2.978  11.001 -0.0859  0.0033  0.4052
  394MOL0     H51988   2.285   2.770  10.894  1.9330 -1.9482  1.0587
  394MOL0     H51989   2.248   2.939  10.901 -0.3695 -0.8701 -2.9034
  394MOL0     H51990   2.293   3.782  10.627  0.2203 -2.1503  1.9832
  394MOL0     H51991   2.216   4.022  10.626 -1.0577  0.4594 -0.9064
  394MOL0     H51992   2.145   4.369  10.825 -0.0449  0.6834  1.1907
  394MOL0     H51993   2.137   4.608  10.856 -0.2779 -0.3240  2.2551
  394MOL0     H51994   2.432   6.109  10.230 -0.9351 -1.7853 -0.0554
  394MOL0     H51995   2.398   6.346  10.224  2.3238  0.9706  0.9787
  394MOL0     H51996   2.426   6.887  10.594 -0.1844 -0.3428  1.4624
  394MOL0     H51997   2.288   7.079  10.547  0.6919  1.9150 -2.9613
  394MOL0     H51998   1.957   7.045  10.245 -1.5907  0.7449  0.6587
  394MOL0     H51999   2.082   7.109  10.155  0.3565  0.7182  0.4257
  394MOL0     H52000   1.917   7.275  10.347 -0.5807 -1.9269  0.0284
  394MOL0     H52001   2.037   7.345  10.241 -3.5758  2.0961 -1.0970
  394MOL0     H52002   1.784   7.206  10.153 -0.1534  1.9474  2.3643
  394MOL0     H52003   1.920   7.246  10.040 -0.9380  1.9435 -1.4662
  394MOL0     H52004   1.728   7.432  10.186 -1.1952  0.0756 -1.3577
  394MOL0     H52005   1.884   7.479  10.116 -0.3162  0.1501  3.3779
  394MOL0     H52006   1.645   7.423   9.779  0.0251  1.6958  0.4349
  394MOL0     H52007   2.118   6.882  10.215 -0.8362  1.5220  0.3408
  394MOL0     H52008   2.213   6.681  10.275  1.1596 -1.3072  1.1391
  395MOL0     O52009   3.597   2.928   0.706  0.3767 -0.3080 -0.6008
  395MOL0     C52010   3.538   2.907   0.600 -0.3168  0.1512  0.0149
  395MOL0     O52011   3.418   2.961   0.569  0.2264 -0.3554  0.4557
  395MOL0     C52012   3.338   2.996   0.681 -0.7815  0.0178 -1.2250
  395MOL0     C52013   3.380   3.089   0.774  0.3272 -0.7918  1.2069
  395MOL0     C52014   3.304   3.136   0.877 -0.4443 -0.6664  0.6719
  395MOL0     C52015   3.167   3.108   0.868 -0.0567  0.3133 -0.3796
  395MOL0     O52016   3.084   3.157   0.968  0.1211  0.9509  0.1355
  395MOL0     C52017   3.108   3.299   1.003  0.0060  0.8863  0.2138
  395MOL0     C52018   2.993   3.352   1.090 -0.7785 -0.1927 -0.7896
  395MOL0     C52019   3.043   3.477   1.159 -0.0807 -0.2855  0.0535
  395MOL0     C52020   2.932   3.562   1.208  0.0999  0.1900 -0.4084
  395MOL0     C52021   2.956   3.663   1.322  0.1168 -1.1790 -0.0101
  395MOL0     C52022   2.863   3.789   1.310  0.7677  1.1643 -0.2954
  395MOL0     C52023   2.713   3.747   1.316 -0.3584 -0.0825  0.2682
  395MOL0     C52024   2.666   3.729   1.463 -0.6488 -0.2095 -0.0336
  395MOL0     N52025   2.681   3.851   1.534  0.6654  0.0605 -0.3998
  395MOL0     C52026   2.592   3.949   1.557 -0.0555 -0.5610  0.2809
  395MOL0     C52027   2.642   4.033   1.646 -0.0323  1.1043 -0.1404
  395MOL0     C52028   2.577   4.156   1.704 -0.3809  0.1045  0.9747
  395MOL0     C52029   2.576   4.256   1.594  0.5194 -0.1302  0.0077
  395MOL0     C52030   2.711   4.268   1.527 -0.3161 -0.6303 -0.4050
  395MOL0     C52031   2.753   4.395   1.457 -0.1119 -0.9981  0.3479
  395MOL0     O52032   2.735   4.506   1.542 -0.4167 -0.5238  0.1201
  395MOL0     C52033   2.848   4.554   1.608  0.9606  0.1454  0.1839
  395MOL0     C52034   2.980   4.501   1.603 -0.3033 -0.7008  0.9548
  395MOL0     C52035   3.074   4.566   1.682  0.9436 -0.3373 -0.0566
  395MOL0     C52036   3.043   4.674   1.768  0.2743 -0.8361  0.2520
  395MOL0     C52037   3.131   4.713   1.881  0.2590 -0.7184 -0.0037
  395MOL0     O52038   3.106   4.838   1.939 -0.3841  0.6063  0.1983
  395MOL0     C52039   3.148   4.864   2.059  0.2387 -1.0793  0.2302
  395MOL0     C52040   3.102   4.795   2.171 -0.5471  0.8532 -0.3539
  395MOL0     C52041   3.128   4.830   2.297  0.8015 -0.7479 -0.0387
  395MOL0     C52042   3.210   4.941   2.324  0.5207 -0.8906  0.3684
  395MOL0     O52043   3.245   4.992   2.450 -0.0992 -0.8842  0.1415
  395MOL0     C52044   3.157   4.984   2.561 -0.1402 -0.2924 -0.6844
  395MOL0     C52045   3.032   5.073   2.567  0.4095  0.4891  0.1896
  395MOL0     C52046   3.056   5.218   2.542 -0.5083 -0.8069 -0.5155
  395MOL0     C52047   2.934   5.301   2.558  0.2079 -0.0062 -0.2640
  395MOL0     C52048   2.978   5.439   2.519 -0.2284 -0.9729  0.5252
  395MOL0     C52049   2.867   5.541   2.558  0.1137 -0.6526 -0.3728
  395MOL0     C52050   2.915   5.681   2.522  0.2853  0.6672 -1.0515
  395MOL0     C52051   2.810   5.786   2.564  0.6529  0.3247  0.1184
  395MOL0    Cl52052   2.647   5.730   2.540 -0.6414  0.3700  0.7877
  395MOL0     C52053   3.264   5.007   2.213  0.6404  0.0572  1.1927
  395MOL0     C52054   3.237   4.970   2.083 -0.5427  0.2507 -0.2182
  395MOL0     O52055   3.222   4.634   1.910  0.2821 -0.1150 -0.6182
  395MOL0     C52056   2.914   4.725   1.772  0.5964  0.3797 -0.2400
  395MOL0     C52057   2.817   4.655   1.693 -0.6278  0.2255 -0.6590
  395MOL0     N52058   2.758   3.983   1.692 -0.2457  0.5793  0.1571
  395MOL0     N52059   2.784   3.879   1.629 -0.3381  0.1083 -0.4658
  395MOL0     C52060   3.114   3.015   0.775 -0.0471 -0.1740 -0.9007
  395MOL0     C52061   3.207   2.971   0.675 -0.1191 -0.1872 -0.0295
  395MOL0     C52062   3.597   2.812   0.496  0.0797 -0.1835 -0.1002
  395MOL0     C52063   3.525   2.783   0.376 -0.0636  1.0980  0.6999
  395MOL0     C52064   3.582   2.696   0.282  1.0551 -0.7658 -0.2450
  395MOL0     C52065   3.713   2.670   0.291 -0.7493 -0.2585  0.6873
  395MOL0     O52066   3.773   2.601   0.183 -0.4569 -0.3150  0.5077
  395MOL0     C52067   3.903   2.538   0.186  0.0063 -0.1911  0.5743
  395MOL0     C52068   3.888   2.418   0.094  0.2345 -0.2944 -0.4522
  395MOL0     C52069   3.899   2.460  -0.053 -0.1626 -0.3652  0.2740
  395MOL0     C52070   3.901   2.343  -0.145 -0.4031 -0.6232  0.0022
  395MOL0     C52071   3.963   2.381  -0.274  0.1480 -1.8745  0.1141
  395MOL0     C52072   4.036   2.403  -0.374 -0.1550  0.1386  0.0071
  395MOL0     C52073   3.793   2.704   0.404  0.6398  1.2175 -0.0057
  395MOL0     C52074   3.729   2.765   0.508 -0.3552  0.0195 -0.0346
  395MOL0     H52075   3.480   3.131   0.767 -0.6399  1.6680  1.2148
  395MOL0     H52076   3.353   3.194   0.955 -1.1729  1.7759 -0.6051
  395MOL0     H52077   3.133   3.366   0.920  1.7507  0.8392  0.6808
  395MOL0     H52078   3.195   3.309   1.068  1.2271  2.5318 -1.5673
  395MOL0     H52079   2.972   3.281   1.170  2.5333  1.0064  1.3470
  395MOL0     H52080   2.908   3.373   1.024  1.0932  0.0199 -3.2824
  395MOL0     H52081   3.104   3.531   1.086 -0.7231 -0.3270 -0.5293
  395MOL0     H52082   3.103   3.446   1.245 -2.1209  0.0444  1.6762
  395MOL0     H52083   2.903   3.609   1.114 -2.5746 -1.9338 -0.7925
  395MOL0     H52084   2.842   3.504   1.233 -1.0796  1.8313 -0.6444
  395MOL0     H52085   3.059   3.697   1.328 -1.1362  2.8781  3.5598
  395MOL0     H52086   2.944   3.599   1.410 -1.8019  0.2076  0.7987
  395MOL0     H52087   2.893   3.840   1.217 -0.1177  1.7668 -0.2622
  395MOL0     H52088   2.884   3.867   1.384 -0.5747  2.0648 -0.8361
  395MOL0     H52089   2.662   3.831   1.268 -2.3378 -0.6322  1.2765
  395MOL0     H52090   2.702   3.656   1.257 -1.2554  0.3806 -0.3117
  395MOL0     H52091   2.726   3.653   1.513  0.1135  1.5590  1.9004
  395MOL0     H52092   2.562   3.695   1.462 -0.1560 -2.1044  3.0141
  395MOL0     H52093   2.501   3.950   1.498 -0.3325  0.4589  0.6891
  395MOL0     H52094   2.635   4.190   1.790 -1.2104  1.7506  0.9359
  395MOL0     H52095   2.473   4.139   1.735  0.2205 -0.9540  2.5259
  395MOL0     H52096   2.553   4.348   1.648  1.0848 -0.9350  1.7080
  395MOL0     H52097   2.499   4.239   1.519  0.1526  2.8605 -0.3819
  395MOL0     H52098   2.796   4.240   1.591  1.2267  0.5730 -1.8340
  395MOL0     H52099   2.712   4.189   1.451  1.2855 -0.3040 -0.7746
  395MOL0     H52100   2.682   4.408   1.375  0.5585  0.8893  0.0115
  395MOL0     H52101   2.853   4.403   1.414 -0.3322 -0.4436 -0.0729
  395MOL0     H52102   3.026   4.431   1.535 -0.9021  0.0626 -0.2633
  395MOL0     H52103   3.175   4.528   1.700  0.7020  0.2723  3.2228
  395MOL0     H52104   3.048   4.703   2.151  1.6339 -0.9788  1.6348
  395MOL0     H52105   3.089   4.780   2.386 -0.1690 -1.0417 -0.6213
  395MOL0     H52106   3.219   5.023   2.642 -1.2294  1.3118 -0.5788
  395MOL0     H52107   3.131   4.881   2.587  2.7824 -0.8268  0.4386
  395MOL0     H52108   2.987   5.057   2.666 -0.2906 -0.0747 -0.2170
  395MOL0     H52109   2.958   5.043   2.493  0.2375 -1.2133  1.0032
  395MOL0     H52110   3.101   5.241   2.445 -0.7214  2.6161  0.0697
  395MOL0     H52111   3.134   5.245   2.614 -0.2808 -1.6130 -0.4474
  395MOL0     H52112   2.853   5.260   2.498  1.5504 -2.9063 -0.2739
  395MOL0     H52113   2.916   5.304   2.666  2.8418 -2.6581  0.3743
  395MOL0     H52114   2.990   5.450   2.410 -1.6285 -1.5888  0.2846
  395MOL0     H52115   3.073   5.469   2.562 -0.8272 -1.0885  1.9932
  395MOL0     H52116   2.830   5.541   2.661 -1.7496  2.3191 -0.9220
  395MOL0     H52117   2.781   5.516   2.495  0.6806 -3.8960 -0.0177
  395MOL0     H52118   3.016   5.694   2.561 -0.1740  0.5839  0.1939
  395MOL0     H52119   2.925   5.681   2.413 -1.4697 -2.6351 -1.3607
  395MOL0     H52120   2.829   5.877   2.506 -0.9741  0.9402  0.5039
  395MOL0     H52121   2.830   5.808   2.670 -0.5673  0.5947  0.3014
  395MOL0     H52122   3.332   5.091   2.224 -1.7752  2.4310 -0.5640
  395MOL0     H52123   3.274   5.026   1.998 -0.1141 -2.1350 -1.7057
  395MOL0     H52124   2.895   4.803   1.845  2.7838  0.3288  0.4677
  395MOL0     H52125   2.710   4.672   1.698 -0.8102 -1.1502  1.9213
  395MOL0     H52126   3.010   2.985   0.775 -0.2672  0.4306 -2.9124
  395MOL0     H52127   3.176   2.917   0.586 -0.7882 -1.4930  0.9790
  395MOL0     H52128   3.425   2.824   0.365  1.1008  3.6001 -1.4944
  395MOL0     H52129   3.523   2.686   0.191 -0.3298  1.9761  0.2634
  395MOL0     H52130   3.930   2.510   0.288  1.6466 -0.2163  0.1686
  395MOL0     H52131   3.972   2.602   0.130 -0.2357 -2.8819 -3.2314
  395MOL0     H52132   3.961   2.341   0.123 -1.7546 -1.9393  0.4785
  395MOL0     H52133   3.786   2.380   0.109 -0.6185  1.8990 -0.4133
  395MOL0     H52134   3.988   2.522  -0.069  0.9151 -1.7983  0.4573
  395MOL0     H52135   3.807   2.516  -0.068  1.1084  1.7870  0.0234
  395MOL0     H52136   3.953   2.263  -0.091 -2.5895 -0.5712  2.3287
  395MOL0     H52137   3.802   2.301  -0.166 -0.4131  0.4904 -2.4720
  395MOL0     H52138   4.089   2.444  -0.457  0.6631  2.5665  1.6194
  395MOL0     H52139   3.900   2.691   0.415  0.4387  0.8303  1.7570
  395MOL0     H52140   3.787   2.795   0.595  0.3857 -0.4690 -0.3529
  396MOL0     O52141   9.153   2.532   6.551 -0.1153 -0.0377 -0.9032
  396MOL0     C52142   9.035   2.523   6.516  0.7970 -0.0024  0.4483
  396MOL0     O52143   8.979   2.409   6.464  0.0819  0.3642 -0.0560
  396MOL0     C52144   9.054   2.286   6.470 -1.5046 -0.3746  0.3694
  396MOL0     C52145   8.986   2.166   6.493 -0.0889 -0.4292  0.3787
  396MOL0     C52146   9.050   2.044   6.493  0.7448  0.1862 -0.4501
  396MOL0     C52147   9.188   2.039   6.462  0.2326 -0.0600  0.4461
  396MOL0     O52148   9.265   1.913   6.459 -0.0799 -0.7429  0.3675
  396MOL0     C52149   9.188   1.793   6.479 -0.0117  0.0556  0.1039
  396MOL0     C52150   9.273   1.670   6.446 -0.5958  0.4687 -1.0373
  396MOL0     C52151   9.377   1.623   6.558  0.9783 -0.5506  0.0487
  396MOL0     C52152   9.327   1.523   6.662 -0.8913  1.5570  0.1932
  396MOL0     C52153   9.222   1.573   6.764 -1.0410  0.6948  0.2007
  396MOL0     C52154   9.097   1.489   6.770  0.4545  0.7816 -0.9363
  396MOL0     C52155   9.026   1.517   6.905 -0.9648  0.6559 -0.0683
  396MOL0     C52156   8.979   1.658   6.929  0.4918  0.2958  0.5744
  396MOL0     N52157   8.877   1.688   6.833  0.4669 -0.3307 -0.0138
  396MOL0     C52158   8.886   1.799   6.753  0.2801 -0.5292  0.0692
  396MOL0     C52159   8.757   1.818   6.713 -0.4112  0.3186 -0.5152
  396MOL0     C52160   8.708   1.930   6.618 -0.0927 -0.6840  0.7785
  396MOL0     C52161   8.699   2.070   6.688  0.3913 -0.5785 -0.5212
  396MOL0     C52162   8.590   2.079   6.790 -0.9536  0.3047  0.1046
  396MOL0     C52163   8.619   2.019   6.934  0.7269  0.4346 -0.9984
  396MOL0     O52164   8.748   2.058   6.999  0.6630 -0.3617 -0.3449
  396MOL0     C52165   8.744   2.024   7.134 -0.1617  0.2733 -0.9967
  396MOL0     C52166   8.729   2.111   7.243  0.0579  0.1361  0.6910
  396MOL0     C52167   8.739   2.063   7.379  0.7597  0.1402  0.4771
  396MOL0     C52168   8.761   1.929   7.405  0.4050  0.7315  0.1006
  396MOL0     C52169   8.779   1.885   7.556 -0.0714  0.0524  0.6350
  396MOL0     O52170   8.738   1.760   7.606  0.2114  0.1363  0.0631
  396MOL0     C52171   8.760   1.739   7.739  0.5502  0.2142  0.0571
  396MOL0     C52172   8.733   1.836   7.837  0.1156  0.3672 -1.0806
  396MOL0     C52173   8.732   1.790   7.971 -0.9996 -0.6443 -1.1245
  396MOL0     C52174   8.760   1.657   8.004 -0.6438  0.5294 -0.2830
  396MOL0     O52175   8.758   1.626   8.139 -0.9791 -0.8170 -0.0266
  396MOL0     C52176   8.785   1.494   8.176  0.1715 -0.3713 -0.8321
  396MOL0     C52177   8.724   1.486   8.315 -0.2133  0.6067 -0.2672
  396MOL0     C52178   8.751   1.348   8.385 -0.9068 -0.4891 -0.8332
  396MOL0     C52179   8.887   1.331   8.436 -0.7679  0.0495  0.1115
  396MOL0     C52180   8.910   1.198   8.504  0.0349 -0.2203  1.1681
  396MOL0     C52181   9.039   1.137   8.457 -0.0535  0.4783  0.1517
  396MOL0     C52182   9.078   1.012   8.540 -0.7403  0.6367  0.0350
  396MOL0     C52183   8.989   0.893   8.522  0.5913  1.0998 -0.2140
  396MOL0    Cl52184   9.053   0.755   8.605 -0.1605 -0.0120  0.1746
  396MOL0     C52185   8.802   1.569   7.899  0.0575 -0.0736 -0.0353
  396MOL0     C52186   8.798   1.610   7.764 -0.0091  0.1071  0.1603
  396MOL0     O52187   8.839   1.967   7.629 -0.6541 -0.7892 -0.0502
  396MOL0     C52188   8.775   1.834   7.300 -0.7600  0.5454  0.9947
  396MOL0     C52189   8.751   1.883   7.165  0.2119  0.9669 -0.1796
  396MOL0     N52190   8.673   1.720   6.764 -0.6539  0.3856  0.8159
  396MOL0     N52191   8.740   1.648   6.841  0.7588 -0.2333  0.7759
  396MOL0     C52192   9.251   2.153   6.418 -0.3317 -0.0850  0.2638
  396MOL0     C52193   9.187   2.279   6.418  0.5018  0.6547 -0.9300
  396MOL0     C52194   8.955   2.643   6.522 -0.6938 -0.2752 -0.2494
  396MOL0     C52195   8.843   2.667   6.440 -1.0467 -0.3601  0.1554
  396MOL0     C52196   8.803   2.804   6.438 -0.5861 -0.0052  0.5629
  396MOL0     C52197   8.848   2.908   6.522  0.3036 -0.0822 -0.4241
  396MOL0     O52198   8.810   3.040   6.505  0.3477 -1.1557  0.5274
  396MOL0     C52199   8.703   3.060   6.409 -0.8943 -0.9295 -0.7211
  396MOL0     C52200   8.633   3.185   6.442  0.0681  1.1200 -0.1041
  396MOL0     C52201   8.551   3.155   6.576  0.0647 -0.0220  0.4679
  396MOL0     C52202   8.447   3.266   6.616  0.0884  0.3125 -0.3484
  396MOL0     C52203   8.503   3.382   6.693  0.5709 -0.0102 -0.1266
  396MOL0     C52204   8.541   3.481   6.745  0.6552 -0.1459 -0.8854
  396MOL0     C52205   8.942   2.878   6.614  0.0921  0.0838 -0.1125
  396MOL0     C52206   8.999   2.751   6.606  0.1244  0.8237  0.8555
  396MOL0     H52207   8.880   2.176   6.517  0.0878 -0.4906  1.2125
  396MOL0     H52208   8.996   1.952   6.513 -0.2513  0.3858 -2.0519
  396MOL0     H52209   9.094   1.794   6.422 -1.0170  3.3801  1.6080
  396MOL0     H52210   9.155   1.781   6.583 -6.0690  0.8113 -1.3270
  396MOL0     H52211   9.326   1.685   6.351 -0.7359  1.7996 -0.9254
  396MOL0     H52212   9.210   1.584   6.423 -0.0377 -0.7255  1.5170
  396MOL0     H52213   9.428   1.702   6.614  1.4241 -0.6201 -0.2451
  396MOL0     H52214   9.457   1.576   6.499  1.6491  1.6965 -0.9485
  396MOL0     H52215   9.287   1.435   6.611  0.9427  0.1141  1.1172
  396MOL0     H52216   9.408   1.489   6.727 -1.9436  1.0726  1.2879
  396MOL0     H52217   9.190   1.673   6.736  1.7695  1.1751 -1.7260
  396MOL0     H52218   9.264   1.590   6.864  0.4766 -0.3570 -0.2177
  396MOL0     H52219   9.117   1.381   6.767  2.4070  1.0817 -0.3481
  396MOL0     H52220   9.037   1.525   6.685 -1.7235  6.6160  2.5158
  396MOL0     H52221   8.937   1.454   6.922 -0.6241  0.0727 -0.3920
  396MOL0     H52222   9.090   1.480   6.986  0.3128 -1.2283 -1.8320
  396MOL0     H52223   9.059   1.733   6.933 -0.5823  1.5969 -0.9951
  396MOL0     H52224   8.928   1.664   7.026 -1.7315 -1.2472 -0.4337
  396MOL0     H52225   8.970   1.861   6.724 -0.1003 -1.0307 -2.3738
  396MOL0     H52226   8.606   1.902   6.590 -0.1512 -1.9662  2.1220
  396MOL0     H52227   8.776   1.942   6.533 -0.3336  0.0758  0.6881
  396MOL0     H52228   8.670   2.146   6.615  0.2680  0.4002  0.5153
  396MOL0     H52229   8.799   2.082   6.730 -0.2166 -0.3064  0.8943
  396MOL0     H52230   8.571   2.186   6.803  0.3358  0.2978  3.0050
  396MOL0     H52231   8.494   2.041   6.754 -1.8216  2.6970 -0.2943
  396MOL0     H52232   8.614   1.910   6.925  0.0026  0.4092 -0.3655
  396MOL0     H52233   8.535   2.034   7.003  2.1648 -0.9540  1.1535
  396MOL0     H52234   8.714   2.215   7.219  4.3134 -0.0698 -4.8470
  396MOL0     H52235   8.723   2.139   7.455 -3.1928  0.1869 -0.2246
  396MOL0     H52236   8.689   1.933   7.816 -1.7454 -0.0881  0.3811
  396MOL0     H52237   8.710   1.863   8.049  1.6714 -1.4078  0.4882
  396MOL0     H52238   8.892   1.474   8.175 -0.0710 -1.7862 -2.6310
  396MOL0     H52239   8.742   1.412   8.118 -0.0300 -0.7844 -0.1120
  396MOL0     H52240   8.616   1.492   8.301 -0.1804 -0.1532 -0.9100
  396MOL0     H52241   8.765   1.572   8.369 -1.4480  1.4068 -0.5636
  396MOL0     H52242   8.715   1.272   8.315 -1.9764 -0.6361 -0.1382
  396MOL0     H52243   8.685   1.341   8.471  0.8417  2.1538  0.8784
  396MOL0     H52244   8.959   1.347   8.355 -0.5355  2.7995  0.7866
  396MOL0     H52245   8.903   1.410   8.510 -0.7711  1.2975 -1.1679
  396MOL0     H52246   8.834   1.122   8.482  2.0982 -1.4207 -2.9022
  396MOL0     H52247   8.920   1.217   8.611  0.7988  0.1800  1.0285
  396MOL0     H52248   9.117   1.212   8.473 -0.1771  0.0624  3.3046
  396MOL0     H52249   9.030   1.115   8.350 -2.9926  0.3475  0.3408
  396MOL0     H52250   9.178   0.983   8.505  0.8725  2.2827  2.9367
  396MOL0     H52251   9.083   1.039   8.646  0.2095  2.0201 -0.3331
  396MOL0     H52252   8.974   0.861   8.419 -2.3274 -3.4301  1.2925
  396MOL0     H52253   8.888   0.908   8.561 -1.3149 -2.2101 -3.2624
  396MOL0     H52254   8.837   1.470   7.924 -0.0695 -1.0908 -3.4019
  396MOL0     H52255   8.827   1.546   7.681 -1.8245 -0.2903 -0.2103
  396MOL0     H52256   8.777   1.727   7.317 -0.4220  0.7552  2.3010
  396MOL0     H52257   8.769   1.812   7.085  2.4031  3.6056 -2.2359
  396MOL0     H52258   9.353   2.145   6.382 -0.6906 -4.5356 -0.4113
  396MOL0     H52259   9.234   2.370   6.384  0.7954 -0.1728 -2.8898
  396MOL0     H52260   8.785   2.591   6.388  1.7340 -2.5064 -0.0383
  396MOL0     H52261   8.733   2.815   6.356  0.1461 -1.4312 -0.2888
  396MOL0     H52262   8.642   2.970   6.417  1.9783 -3.0662 -1.1511
  396MOL0     H52263   8.756   3.073   6.314 -1.2730 -0.7968 -0.9163
  396MOL0     H52264   8.695   3.275   6.449 -0.4545  1.4793 -0.0343
  396MOL0     H52265   8.557   3.201   6.364  0.1675 -1.0423 -0.7239
  396MOL0     H52266   8.617   3.124   6.658 -0.2498 -2.0036  0.0177
  396MOL0     H52267   8.495   3.063   6.562 -0.5367  0.6649 -2.1131
  396MOL0     H52268   8.387   3.292   6.529 -0.5027  1.5219  0.3862
  396MOL0     H52269   8.389   3.209   6.689  1.2632  0.8981  1.0809
  396MOL0     H52270   8.577   3.569   6.794 -0.2727 -0.5422  0.5596
  396MOL0     H52271   8.955   2.956   6.688 -1.0913 -0.2359  0.4558
  396MOL0     H52272   9.084   2.740   6.674  2.3670  0.5973 -1.7940
  397MOL0     O52273   5.082   9.097   2.807  0.1821 -0.0980 -0.0322
  397MOL0     C52274   5.074   9.180   2.895 -0.2400 -0.4416 -0.2977
  397MOL0     O52275   5.180   9.220   2.973 -0.2659  0.0355 -0.2010
  397MOL0     C52276   5.298   9.167   2.926  0.5700  0.2757 -0.5477
  397MOL0     C52277   5.363   9.085   3.022  0.1705  1.0481  0.5365
  397MOL0     C52278   5.493   9.028   3.006  0.8228 -0.4142  0.2298
  397MOL0     C52279   5.562   9.067   2.886  0.4786 -0.3792 -1.1201
  397MOL0     O52280   5.691   9.043   2.869 -0.1532 -0.1884  0.4544
  397MOL0     C52281   5.754   8.918   2.913 -0.8326 -0.5849 -0.7453
  397MOL0     C52282   5.901   8.918   2.893  0.2406 -0.1963  0.8119
  397MOL0     C52283   5.955   8.949   2.750 -0.8495 -0.8210  0.4228
  397MOL0     C52284   6.101   8.946   2.745  0.2834  0.4867  0.9328
  397MOL0     C52285   6.161   8.990   2.610 -1.1557 -0.5772  0.0001
  397MOL0     C52286   6.184   8.871   2.524  0.5449  0.2885 -0.4664
  397MOL0     C52287   6.270   8.905   2.402  0.3031 -0.9709  0.7307
  397MOL0     C52288   6.260   8.775   2.319 -0.1882 -0.4994  0.1434
  397MOL0     N52289   6.380   8.770   2.235 -0.1107 -0.0874 -0.2622
  397MOL0     C52290   6.389   8.809   2.102 -0.3200  0.5690  0.8349
  397MOL0     C52291   6.513   8.793   2.063 -0.0435  0.8026  0.6978
  397MOL0     C52292   6.563   8.819   1.920 -0.3458  0.3883  0.0165
  397MOL0     C52293   6.458   8.914   1.847  0.1454 -0.5763  0.2880
  397MOL0     C52294   6.513   8.950   1.703 -0.0968  0.2644  0.1097
  397MOL0     C52295   6.410   9.026   1.616 -0.7072  0.2379 -0.1885
  397MOL0     O52296   6.475   9.046   1.492 -0.8732  0.2297 -0.7996
  397MOL0     C52297   6.425   9.142   1.408  0.6683  0.2366  0.3927
  397MOL0     C52298   6.496   9.162   1.292 -0.5424 -0.1724 -0.4394
  397MOL0     C52299   6.445   9.257   1.198 -0.2823 -0.4266  0.2756
  397MOL0     C52300   6.336   9.338   1.223  0.8708  0.9755  0.5073
  397MOL0     C52301   6.285   9.441   1.128 -0.5060  0.0738  0.0972
  397MOL0     O52302   6.238   9.561   1.172  0.3605 -0.7053 -0.3659
  397MOL0     C52303   6.181   9.663   1.105  0.5652  0.4608 -0.3805
  397MOL0     C52304   6.103   9.655   0.984  0.8270  0.3651 -1.2537
  397MOL0     C52305   6.044   9.775   0.929  0.1407  0.6950  0.3022
  397MOL0     C52306   6.061   9.893   0.991  0.9315  0.7546 -0.3372
  397MOL0     O52307   6.008  10.007   0.944 -0.4729 -0.4595  0.9793
  397MOL0     C52308   5.867  10.004   0.898 -0.1136 -0.4296  0.4917
  397MOL0     C52309   5.796  10.137   0.864 -0.1392  0.4796  0.0131
  397MOL0     C52310   5.695  10.174   0.973  0.5185 -0.8171 -0.5361
  397MOL0     C52311   5.643  10.317   0.959  0.1003 -0.2198  0.8729
  397MOL0     C52312   5.557  10.355   1.075  0.2460  0.1860 -0.8773
  397MOL0     C52313   5.436  10.260   1.086 -0.4971 -0.3478  0.3324
  397MOL0     C52314   5.311  10.316   1.156 -0.7698 -0.5071  1.0402
  397MOL0     C52315   5.193  10.216   1.113 -0.3034  0.1475 -0.2449
  397MOL0    Cl52316   5.154  10.227   0.938  0.0112  0.2619 -0.3407
  397MOL0     C52317   6.130   9.904   1.102  0.0256  0.6599  1.0483
  397MOL0     C52318   6.200   9.791   1.158  1.1498 -0.2024 -0.2581
  397MOL0     O52319   6.298   9.417   1.015  0.7605  0.6182  0.5822
  397MOL0     C52320   6.261   9.312   1.337  0.2328  0.8175 -0.2634
  397MOL0     C52321   6.307   9.217   1.430 -0.3663  0.8012  0.5427
  397MOL0     N52322   6.584   8.733   2.165  0.4264 -0.3564 -0.0926
  397MOL0     N52323   6.502   8.712   2.271  0.3133  0.1267 -0.2643
  397MOL0     C52324   5.495   9.155   2.794 -0.5069  0.2004 -0.6277
  397MOL0     C52325   5.365   9.208   2.816 -0.3206  0.1920 -0.4615
  397MOL0     C52326   4.940   9.240   2.912 -0.2269  0.1561 -0.3124
  397MOL0     C52327   4.834   9.230   2.812  0.1174  0.2590  0.0208
  397MOL0     C52328   4.713   9.293   2.839 -0.2439  0.0870  0.1072
  397MOL0     C52329   4.704   9.396   2.933  1.1590 -0.0288  0.3328
  397MOL0     O52330   4.588   9.479   2.937  0.0889  0.7974  0.7999
  397MOL0     C52331   4.565   9.584   3.042  0.6342  0.1529  0.8456
  397MOL0     C52332   4.411   9.605   3.079  1.2299 -0.1954 -0.5813
  397MOL0     C52333   4.306   9.581   2.965 -1.4959  0.1167 -0.2421
  397MOL0     C52334   4.283   9.431   2.926 -0.0511  0.3217 -0.4699
  397MOL0     C52335   4.240   9.356   3.039  0.3983  0.5201 -0.4823
  397MOL0     C52336   4.203   9.289   3.136  0.0745  0.5389  0.7476
  397MOL0     C52337   4.819   9.416   3.020 -0.2214 -0.6330  0.5461
  397MOL0     C52338   4.926   9.333   3.008 -0.1737  0.1471 -0.5708
  397MOL0     H52339   5.314   9.063   3.117 -0.7246  0.5065 -0.0300
  397MOL0     H52340   5.543   8.974   3.085  0.8193  0.5801  0.9303
  397MOL0     H52341   5.723   8.826   2.863  0.4941 -0.4515 -1.9094
  397MOL0     H52342   5.724   8.913   3.018 -5.6604  0.4955 -1.8348
  397MOL0     H52343   5.940   8.823   2.932  1.7089 -0.2485 -0.6859
  397MOL0     H52344   5.945   8.995   2.957  0.6716 -0.1891  0.5064
  397MOL0     H52345   5.920   9.051   2.730  0.1803 -0.8443 -1.8404
  397MOL0     H52346   5.901   8.873   2.692 -2.8753 -0.1451  1.3416
  397MOL0     H52347   6.134   9.022   2.816 -0.9633 -0.1963  2.2777
  397MOL0     H52348   6.123   8.842   2.772 -0.8214 -0.1749 -0.5612
  397MOL0     H52349   6.247   9.056   2.628 -1.8850  0.9733 -1.8736
  397MOL0     H52350   6.085   9.053   2.563 -0.7860  0.5376  0.8329
  397MOL0     H52351   6.085   8.847   2.483  0.5550  0.1144 -0.3870
  397MOL0     H52352   6.227   8.793   2.587  0.0286  1.4590  1.4051
  397MOL0     H52353   6.223   8.982   2.342  1.4872 -2.8760 -2.9424
  397MOL0     H52354   6.370   8.942   2.425 -0.7004  0.7892  2.5116
  397MOL0     H52355   6.165   8.772   2.265  0.2843 -0.7913 -0.7043
  397MOL0     H52356   6.254   8.691   2.389 -0.3892 -0.1010  0.6120
  397MOL0     H52357   6.311   8.860   2.047  1.5945  0.6474 -2.0203
  397MOL0     H52358   6.567   8.726   1.861 -2.0327 -1.3725  2.4755
  397MOL0     H52359   6.660   8.869   1.925 -0.3367  0.5278 -1.2413
  397MOL0     H52360   6.422   9.000   1.904 -4.1217 -2.6128  1.0582
  397MOL0     H52361   6.370   8.854   1.825 -0.9808  1.5689 -1.4358
  397MOL0     H52362   6.605   9.008   1.715 -1.1336  1.7769  0.9127
  397MOL0     H52363   6.541   8.855   1.655 -0.6219 -0.0989  0.5130
  397MOL0     H52364   6.378   9.122   1.657  1.0811  1.9766 -2.5812
  397MOL0     H52365   6.318   8.968   1.599 -0.5449  0.7107 -3.1888
  397MOL0     H52366   6.584   9.100   1.278 -1.6211 -1.8895  0.1461
  397MOL0     H52367   6.492   9.248   1.100  2.5700  0.7433  1.4290
  397MOL0     H52368   6.073   9.563   0.934 -1.7933  0.3219  0.2450
  397MOL0     H52369   5.963   9.759   0.859  0.6362 -0.3089 -0.0592
  397MOL0     H52370   5.807   9.937   0.960 -0.3756  1.9463  3.0419
  397MOL0     H52371   5.889   9.957   0.802 -0.8264 -0.8863  0.5513
  397MOL0     H52372   5.747  10.128   0.767  1.1331 -0.7479 -0.5477
  397MOL0     H52373   5.880  10.206   0.849  1.2204 -1.0225  0.4193
  397MOL0     H52374   5.757  10.173   1.064  2.9122  1.0722 -2.0200
  397MOL0     H52375   5.613  10.103   0.984 -0.7231  0.2447 -2.4957
  397MOL0     H52376   5.738  10.371   0.956 -1.3724  2.5535 -2.6339
  397MOL0     H52377   5.579  10.328   0.871 -0.2748  1.2269  1.3111
  397MOL0     H52378   5.526  10.459   1.063  1.1188  0.7240  1.1006
  397MOL0     H52379   5.607  10.345   1.172 -0.3650 -2.5823 -0.7608
  397MOL0     H52380   5.476  10.178   1.146 -1.5946 -2.7534 -2.0445
  397MOL0     H52381   5.415  10.226   0.984  2.2987  2.3331 -1.3021
  397MOL0     H52382   5.323  10.326   1.264  0.4569  4.9517  0.6872
  397MOL0     H52383   5.277  10.410   1.111 -2.6858 -2.3889 -1.7591
  397MOL0     H52384   5.104  10.230   1.174 -0.3910  1.1634 -0.5754
  397MOL0     H52385   5.226  10.117   1.144  0.6557  1.0571  1.8781
  397MOL0     H52386   6.140  10.006   1.138  3.0638 -0.2164  3.0909
  397MOL0     H52387   6.253   9.796   1.252 -0.1746  0.2458  0.4892
  397MOL0     H52388   6.172   9.367   1.364  1.0867  1.8153  0.6277
  397MOL0     H52389   6.241   9.192   1.513  0.5367 -0.3530  0.9388
  397MOL0     H52390   5.547   9.177   2.702  0.0551 -0.0609 -0.3794
  397MOL0     H52391   5.314   9.267   2.741  0.0926  0.0643 -0.8497
  397MOL0     H52392   4.857   9.162   2.730  2.7311 -0.6174  1.3493
  397MOL0     H52393   4.622   9.280   2.780  1.3724 -1.7010 -2.1951
  397MOL0     H52394   4.594   9.683   3.005  0.4706  0.6026  1.8932
  397MOL0     H52395   4.621   9.563   3.133  0.2969 -0.0754  1.0000
  397MOL0     H52396   4.385   9.540   3.163 -2.0458 -1.1864 -2.1622
  397MOL0     H52397   4.405   9.709   3.110 -2.4521 -0.0463 -1.3365
  397MOL0     H52398   4.338   9.639   2.877 -0.7451 -0.4862 -0.3795
  397MOL0     H52399   4.212   9.620   3.005 -0.2860  1.4380  1.4483
  397MOL0     H52400   4.195   9.431   2.861 -0.4775  0.8958  0.0910
  397MOL0     H52401   4.371   9.390   2.877  1.5855  0.9104  1.8184
  397MOL0     H52402   4.182   9.215   3.211  1.2601 -1.2250 -0.5877
  397MOL0     H52403   4.823   9.497   3.092  0.5118  0.7973 -1.0381
  397MOL0     H52404   5.002   9.338   3.086 -2.1712  0.6182  1.4329
  398MOL0     O52405   6.778   0.658   2.141  0.0446 -0.9402 -0.0797
  398MOL0     C52406   6.842   0.687   2.044 -0.0825  0.0120 -0.1220
  398MOL0     O52407   6.845   0.803   1.973  0.7652  0.7356 -0.8480
  398MOL0     C52408   6.804   0.915   2.021  0.8581 -0.3047  0.4184
  398MOL0     C52409   6.855   0.989   2.131  0.4681  0.0821  1.5720
  398MOL0     C52410   6.816   1.122   2.160  0.0737 -0.5834 -0.3473
  398MOL0     C52411   6.703   1.175   2.094 -1.0421  1.4120  0.0144
  398MOL0     O52412   6.639   1.294   2.134  0.0205  0.8956 -0.2750
  398MOL0     C52413   6.674   1.356   2.256  0.5302 -0.2189  0.3670
  398MOL0     C52414   6.624   1.492   2.263  0.6107  1.0287 -0.5643
  398MOL0     C52415   6.683   1.579   2.160 -0.2576 -0.3721  0.1680
  398MOL0     C52416   6.642   1.727   2.173 -0.1048  0.1795  0.1881
  398MOL0     C52417   6.695   1.812   2.053 -0.0377 -0.7330 -0.1370
  398MOL0     C52418   6.649   1.959   2.065 -0.1998 -0.1579 -0.2370
  398MOL0     C52419   6.690   2.060   1.957  0.3762 -0.1782 -0.0632
  398MOL0     C52420   6.595   2.181   1.940 -0.0735  0.4860 -0.3607
  398MOL0     N52421   6.630   2.293   2.033  0.6305  0.5038  0.6712
  398MOL0     C52422   6.622   2.308   2.167  0.3434  0.8543 -0.1390
  398MOL0     C52423   6.678   2.431   2.198 -0.3405 -0.1718  0.1008
  398MOL0     C52424   6.697   2.476   2.342 -0.6889 -0.2845  0.5820
  398MOL0     C52425   6.565   2.477   2.423  0.1452 -0.0052 -0.5291
  398MOL0     C52426   6.593   2.500   2.579  0.1204  0.4518  0.1103
  398MOL0     C52427   6.468   2.546   2.663 -0.3073 -0.3377 -0.4635
  398MOL0     O52428   6.399   2.439   2.710  1.1574 -0.8587 -0.4719
  398MOL0     C52429   6.265   2.443   2.734  0.2001 -0.7847  0.9331
  398MOL0     C52430   6.191   2.569   2.751 -0.5585  0.0861  0.6985
  398MOL0     C52431   6.058   2.577   2.766 -0.0870 -0.9520  0.2335
  398MOL0     C52432   5.987   2.454   2.756  0.1308 -1.0402 -0.1664
  398MOL0     C52433   5.842   2.459   2.754  0.5084 -0.0563 -0.0651
  398MOL0     O52434   5.787   2.590   2.750  0.0933  0.0029  0.8264
  398MOL0     C52435   5.659   2.610   2.715  0.6059 -0.2506 -0.0585
  398MOL0     C52436   5.634   2.676   2.591  0.6512 -0.7053 -0.4219
  398MOL0     C52437   5.513   2.708   2.540 -0.8899 -0.6409 -0.3993
  398MOL0     C52438   5.399   2.674   2.617 -0.2695 -0.4265 -0.5042
  398MOL0     O52439   5.285   2.672   2.542  0.5403 -0.9541 -0.2483
  398MOL0     C52440   5.157   2.681   2.606  0.4499 -0.2554  0.3518
  398MOL0     C52441   5.028   2.694   2.520  0.3819  0.9542  0.2689
  398MOL0     C52442   5.042   2.779   2.395 -0.1882 -0.4141  0.5381
  398MOL0     C52443   5.076   2.936   2.423  0.9431  0.8589  0.6364
  398MOL0     C52444   5.108   3.025   2.303  0.0281 -0.3540  0.8625
  398MOL0     C52445   5.142   3.165   2.346  0.5134 -0.2919 -0.8330
  398MOL0     C52446   5.193   3.257   2.234  0.2172 -0.1383 -0.3537
  398MOL0     C52447   5.225   3.398   2.291  0.8619 -0.1204 -0.0465
  398MOL0    Cl52448   5.275   3.514   2.162  0.2410  0.3923 -0.3684
  398MOL0     C52449   5.417   2.627   2.752  0.5202  0.0998  0.7984
  398MOL0     C52450   5.548   2.590   2.796  0.7703 -0.4012  0.9526
  398MOL0     O52451   5.776   2.355   2.760 -0.0994  0.6386 -0.1677
  398MOL0     C52452   6.051   2.335   2.727 -0.2203  0.6467 -0.2336
  398MOL0     C52453   6.189   2.330   2.718 -0.6120  1.0046 -0.1508
  398MOL0     N52454   6.716   2.493   2.082 -0.2257  0.6436  0.2663
  398MOL0     N52455   6.693   2.409   1.983  0.0218  0.4301 -0.3801
  398MOL0     C52456   6.656   1.104   1.983  0.1648 -1.0974  0.1665
  398MOL0     C52457   6.702   0.984   1.947 -1.2536  0.1107  0.3823
  398MOL0     C52458   6.921   0.581   1.981  0.0193  1.3147 -0.4858
  398MOL0     C52459   6.980   0.591   1.856  0.3497 -0.2600 -0.0657
  398MOL0     C52460   7.053   0.490   1.801  0.7734 -0.4132  1.4253
  398MOL0     C52461   7.086   0.376   1.878  0.0547 -0.6516  0.9166
  398MOL0     O52462   7.171   0.287   1.817 -0.1181  1.2229  0.8339
  398MOL0     C52463   7.223   0.171   1.879 -0.3940 -0.4951 -0.4163
  398MOL0     C52464   7.121   0.054   1.875 -0.0435 -0.2519  0.6080
  398MOL0     C52465   7.124  -0.031   1.747 -0.1578 -0.8226 -0.1305
  398MOL0     C52466   7.046  -0.169   1.740 -0.8708 -0.3294  0.4576
  398MOL0     C52467   7.075  -0.231   1.611  0.8935  0.2090  0.1697
  398MOL0     C52468   7.107  -0.275   1.501  0.0730  0.7669 -0.8264
  398MOL0     C52469   7.020   0.359   1.997 -0.3562  0.2917  0.0613
  398MOL0     C52470   6.931   0.459   2.051  0.0660  0.5677 -0.2328
  398MOL0     H52471   6.942   0.951   2.183  1.7622  2.4637  1.2995
  398MOL0     H52472   6.870   1.177   2.236  0.8105  0.8702 -1.8556
  398MOL0     H52473   6.781   1.356   2.276  0.5534  0.1042  0.2548
  398MOL0     H52474   6.628   1.292   2.331  0.1236 -1.8706 -1.2181
  398MOL0     H52475   6.647   1.536   2.361  1.0546 -1.8184  0.7123
  398MOL0     H52476   6.515   1.484   2.268  0.7476 -2.1996 -0.7234
  398MOL0     H52477   6.656   1.548   2.059 -1.1099  1.2158 -0.1181
  398MOL0     H52478   6.791   1.581   2.172 -0.4186  0.5329  1.9415
  398MOL0     H52479   6.533   1.720   2.175 -0.0449 -4.2568  3.0732
  398MOL0     H52480   6.671   1.773   2.268  2.8364  1.7544 -1.3375
  398MOL0     H52481   6.643   1.780   1.963 -2.3744  5.4807 -1.5260
  398MOL0     H52482   6.802   1.798   2.033 -0.2486 -2.1699 -0.3641
  398MOL0     H52483   6.686   2.004   2.157  0.1368 -0.2470 -0.3286
  398MOL0     H52484   6.540   1.969   2.064 -0.1661  2.3679  3.2013
  398MOL0     H52485   6.793   2.097   1.963  0.2284  0.6002 -1.8568
  398MOL0     H52486   6.695   2.006   1.863  2.1787 -1.0599  0.4931
  398MOL0     H52487   6.488   2.160   1.936 -0.6084  2.5438  1.3465
  398MOL0     H52488   6.623   2.217   1.841  2.4609 -1.7659 -0.5657
  398MOL0     H52489   6.591   2.231   2.236 -2.0153  1.9494  0.1099
  398MOL0     H52490   6.730   2.581   2.344  0.0101 -0.4749 -0.2737
  398MOL0     H52491   6.774   2.424   2.399  0.9351  3.2665  1.9160
  398MOL0     H52492   6.522   2.378   2.403  0.6498 -0.8639  2.0988
  398MOL0     H52493   6.497   2.556   2.392 -0.6685 -0.6873 -0.5129
  398MOL0     H52494   6.637   2.407   2.616  1.5566  0.8747 -0.4801
  398MOL0     H52495   6.665   2.580   2.594  1.7697 -0.3963 -2.6410
  398MOL0     H52496   6.413   2.618   2.601  1.2987  1.8315  0.4949
  398MOL0     H52497   6.508   2.589   2.756  1.6311  0.9128 -1.8152
  398MOL0     H52498   6.247   2.662   2.753 -2.3650  1.2020  2.2151
  398MOL0     H52499   6.003   2.670   2.758 -1.9357 -2.0960 -0.8931
  398MOL0     H52500   5.724   2.705   2.538 -0.3233  1.0292 -1.1914
  398MOL0     H52501   5.502   2.754   2.442 -1.7692  2.4383  1.0227
  398MOL0     H52502   5.157   2.761   2.681  0.4340  3.9090 -3.7057
  398MOL0     H52503   5.155   2.592   2.670  1.0682 -0.2338  0.4045
  398MOL0     H52504   4.945   2.730   2.582  1.2006 -0.5542  2.3359
  398MOL0     H52505   4.994   2.597   2.482  3.2305  1.4028 -4.0893
  398MOL0     H52506   4.957   2.760   2.330  0.7064 -3.4610  0.0712
  398MOL0     H52507   5.126   2.737   2.338  0.2488  2.2347 -0.9213
  398MOL0     H52508   4.983   2.972   2.467 -0.5172 -0.6580 -1.0596
  398MOL0     H52509   5.147   2.943   2.506 -0.9500 -2.8504  2.8125
  398MOL0     H52510   5.023   3.028   2.234  1.9498 -1.4422 -1.6762
  398MOL0     H52511   5.190   2.976   2.250 -1.4096  0.8365 -2.8015
  398MOL0     H52512   5.214   3.167   2.429  0.4882 -0.8815 -0.7917
  398MOL0     H52513   5.054   3.219   2.381  1.4352  3.2207 -3.3131
  398MOL0     H52514   5.285   3.212   2.195 -1.5518 -3.8874 -0.7140
  398MOL0     H52515   5.131   3.259   2.144  1.7026  0.9662 -1.4034
  398MOL0     H52516   5.314   3.382   2.351 -0.8601  1.5008  3.1914
  398MOL0     H52517   5.136   3.435   2.342 -1.3052 -1.6550 -2.4410
  398MOL0     H52518   5.327   2.599   2.806 -2.1211  1.4367 -2.5206
  398MOL0     H52519   5.566   2.532   2.886  1.7302  0.8598  1.6098
  398MOL0     H52520   6.003   2.240   2.707  1.0415 -0.3378  1.1969
  398MOL0     H52521   6.240   2.235   2.707 -2.7013 -0.0308 -1.5576
  398MOL0     H52522   6.574   1.154   1.933  0.9235 -0.3629 -0.3674
  398MOL0     H52523   6.689   0.942   1.848  1.3199 -0.4942  0.2174
  398MOL0     H52524   6.980   0.680   1.794 -0.3107 -0.3496 -0.1939
  398MOL0     H52525   7.094   0.497   1.701  1.3673 -1.9629  1.5417
  398MOL0     H52526   7.246   0.187   1.985 -1.9318 -1.4149  0.0831
  398MOL0     H52527   7.319   0.143   1.834  0.0897 -0.9881  0.8748
  398MOL0     H52528   7.142  -0.015   1.958  1.1157 -3.3936 -2.0508
  398MOL0     H52529   7.018   0.088   1.888 -1.0516 -2.3025 -1.2749
  398MOL0     H52530   7.230  -0.045   1.725  0.7830  1.5275  2.3193
  398MOL0     H52531   7.096   0.029   1.661  4.0850  1.3216 -0.2708
  398MOL0     H52532   7.084  -0.236   1.818 -1.9142 -1.4857  0.0042
  398MOL0     H52533   6.938  -0.152   1.747 -0.6084  1.6708  0.2769
  398MOL0     H52534   7.136  -0.329   1.413  1.4603  0.3910 -0.1633
  398MOL0     H52535   7.028   0.254   2.026  1.8213 -0.4720 -2.7795
  398MOL0     H52536   6.874   0.434   2.140 -0.6824 -0.7749 -1.0545
  399MOL0     O52537   1.384   1.593   7.063  0.0036 -0.4784 -0.2954
  399MOL0     C52538   1.290   1.518   7.072 -0.2896  0.1748  0.0157
  399MOL0     O52539   1.244   1.455   7.179  0.6891 -0.1782  0.2636
  399MOL0     C52540   1.287   1.470   7.314 -0.5047  0.2512 -0.3199
  399MOL0     C52541   1.347   1.586   7.363 -0.1469 -0.2737  0.7084
  399MOL0     C52542   1.413   1.583   7.491  1.0561  0.6248  0.0392
  399MOL0     C52543   1.392   1.486   7.587  0.3731  0.0286  1.0950
  399MOL0     O52544   1.438   1.507   7.716 -0.5030 -0.6155  0.2281
  399MOL0     C52545   1.461   1.381   7.784 -0.2271 -0.2462 -0.4208
  399MOL0     C52546   1.523   1.402   7.915 -0.8168 -0.3983  0.0657
  399MOL0     C52547   1.666   1.462   7.899 -0.1862  0.7760  0.1990
  399MOL0     C52548   1.766   1.359   7.833  0.5834 -0.1890 -0.3008
  399MOL0     C52549   1.906   1.400   7.875 -0.5487  0.4853  0.7892
  399MOL0     C52550   2.017   1.323   7.793  0.3265 -0.2685 -0.4626
  399MOL0     C52551   2.155   1.360   7.851  0.5590 -0.1081  0.0223
  399MOL0     C52552   2.228   1.242   7.918 -0.5697  0.2667  0.2388
  399MOL0     N52553   2.378   1.256   7.903  0.3588  0.4526 -0.0373
  399MOL0     C52554   2.460   1.160   7.843 -0.2490 -0.5135  0.5760
  399MOL0     C52555   2.566   1.234   7.820 -0.0512  0.2806  0.6021
  399MOL0     C52556   2.684   1.208   7.726  0.1392 -0.5060 -0.3275
  399MOL0     C52557   2.655   1.225   7.581 -0.4160  0.0530 -0.6610
  399MOL0     C52558   2.704   1.370   7.545 -0.3932  0.0031 -0.4328
  399MOL0     C52559   2.652   1.416   7.410 -0.4487 -0.4600  0.8041
  399MOL0     O52560   2.717   1.547   7.381 -0.4847 -0.5867 -0.5350
  399MOL0     C52561   2.660   1.603   7.267  0.1306 -0.7548  0.4183
  399MOL0     C52562   2.664   1.743   7.262 -0.5946  0.2983 -0.3477
  399MOL0     C52563   2.617   1.809   7.151 -0.0447  0.1298 -0.0236
  399MOL0     C52564   2.566   1.742   7.038 -0.2680  0.5946 -0.4700
  399MOL0     C52565   2.511   1.810   6.919  0.1850 -0.4359  0.7023
  399MOL0     O52566   2.562   1.933   6.895 -0.5323 -0.3917 -0.5694
  399MOL0     C52567   2.515   2.010   6.789  0.6925  1.1470 -0.3500
  399MOL0     C52568   2.592   2.125   6.764  0.4147  1.5813  0.1484
  399MOL0     C52569   2.545   2.219   6.670 -0.1071 -0.4587 -0.2312
  399MOL0     C52570   2.426   2.195   6.598  0.5044  0.6528  0.0112
  399MOL0     O52571   2.393   2.269   6.490 -0.4144 -0.7948 -0.2816
  399MOL0     C52572   2.395   2.405   6.513 -0.0170 -0.2071 -0.4024
  399MOL0     C52573   2.477   2.483   6.408  0.2975 -0.4373 -0.1726
  399MOL0     C52574   2.449   2.642   6.419  0.6420  0.6511 -0.6282
  399MOL0     C52575   2.529   2.708   6.311 -0.3921  0.7974  0.3583
  399MOL0     C52576   2.521   2.858   6.336 -0.3498  0.7521  0.6360
  399MOL0     C52577   2.555   2.946   6.216 -0.1093  0.0164 -0.9955
  399MOL0     C52578   2.702   2.938   6.179 -0.4642 -0.1549 -0.2892
  399MOL0     C52579   2.744   3.017   6.058 -0.7622  0.6727  0.8925
  399MOL0    Cl52580   2.879   2.932   5.980 -0.4136  0.2509  0.2689
  399MOL0     C52581   2.348   2.078   6.632 -0.7102 -0.4115 -0.3128
  399MOL0     C52582   2.396   1.983   6.718  0.0247  0.2143  0.7119
  399MOL0     O52583   2.446   1.747   6.838  0.3238  0.5563 -0.1168
  399MOL0     C52584   2.562   1.605   7.038 -0.0613  0.9331 -0.2725
  399MOL0     C52585   2.601   1.540   7.156 -0.5120 -0.7809  0.3130
  399MOL0     N52586   2.551   1.359   7.874 -0.3922  0.1507 -0.4598
  399MOL0     N52587   2.431   1.382   7.922 -0.5903  0.0958  0.1102
  399MOL0     C52588   1.300   1.375   7.543 -0.2705  0.2377 -0.0048
  399MOL0     C52589   1.253   1.381   7.416 -0.2751  0.5817  0.4328
  399MOL0     C52590   1.222   1.478   6.948  0.2892 -0.3450  0.1536
  399MOL0     C52591   1.149   1.357   6.947 -0.0721 -0.1223 -0.0703
  399MOL0     C52592   1.092   1.309   6.829  0.8215 -0.3127 -1.0095
  399MOL0     C52593   1.098   1.381   6.706 -0.7104 -0.2274  0.1079
  399MOL0     O52594   1.039   1.341   6.578 -0.6737  0.2298 -0.6122
  399MOL0     C52595   0.943   1.226   6.582  0.2982 -0.8442 -0.2313
  399MOL0     C52596   0.849   1.237   6.458  0.3777 -0.4568  0.0244
  399MOL0     C52597   0.926   1.271   6.343 -0.2824 -0.0540  0.4219
  399MOL0     C52598   0.836   1.265   6.215  0.4710  0.8004 -0.8338
  399MOL0     C52599   0.916   1.288   6.090  0.8524  0.0458 -0.1730
  399MOL0     C52600   0.998   1.317   6.000 -0.7323  0.1191  0.3487
  399MOL0     C52601   1.159   1.501   6.713  0.4198  0.2997  0.0948
  399MOL0     C52602   1.223   1.552   6.825  0.9788 -0.7297 -0.4317
  399MOL0     H52603   1.356   1.666   7.290 -1.7517  2.0093  2.8042
  399MOL0     H52604   1.479   1.667   7.511  1.5823  0.6586 -1.6133
  399MOL0     H52605   1.519   1.312   7.723 -0.5455  0.5190 -1.6435
  399MOL0     H52606   1.368   1.327   7.804 -0.5602 -0.6316 -2.6527
  399MOL0     H52607   1.546   1.308   7.965  3.9114 -0.2056 -1.2549
  399MOL0     H52608   1.457   1.459   7.982 -1.6162 -0.5897 -0.5315
  399MOL0     H52609   1.714   1.498   7.991  1.4221  0.3264 -0.4131
  399MOL0     H52610   1.662   1.554   7.840  1.1032 -0.3150 -1.7127
  399MOL0     H52611   1.748   1.255   7.860  0.8417 -0.5518 -1.4837
  399MOL0     H52612   1.762   1.362   7.724 -1.0568 -1.9580 -0.3337
  399MOL0     H52613   1.922   1.390   7.983 -3.3977  1.4268  1.3771
  399MOL0     H52614   1.909   1.509   7.862 -3.1801  0.4490 -0.6936
  399MOL0     H52615   2.003   1.360   7.691 -1.8684 -3.7477 -1.6182
  399MOL0     H52616   2.000   1.215   7.788  2.5815 -0.6703 -0.9639
  399MOL0     H52617   2.219   1.395   7.770  0.8278 -0.1539  0.2151
  399MOL0     H52618   2.155   1.445   7.920 -0.9670  1.4090 -1.7358
  399MOL0     H52619   2.195   1.150   7.870 -1.3910  1.2141 -1.0974
  399MOL0     H52620   2.197   1.240   8.023 -0.3948 -0.3237  0.2780
  399MOL0     H52621   2.451   1.054   7.821  1.7803 -0.3573 -1.2781
  399MOL0     H52622   2.712   1.104   7.745 -3.8171 -1.3982  1.6397
  399MOL0     H52623   2.762   1.273   7.766  0.0162 -0.7426  0.3127
  399MOL0     H52624   2.547   1.215   7.565 -0.7597  1.1017  0.7665
  399MOL0     H52625   2.710   1.151   7.524  1.9884 -0.5589  2.1874
  399MOL0     H52626   2.686   1.442   7.625 -1.0570 -0.5609 -0.0659
  399MOL0     H52627   2.813   1.364   7.536 -0.3425 -1.4266  0.7696
  399MOL0     H52628   2.544   1.427   7.399 -0.0685  2.8566 -1.1514
  399MOL0     H52629   2.673   1.337   7.338 -0.9621  0.0341  0.0909
  399MOL0     H52630   2.702   1.801   7.345 -1.2764  1.0987 -0.5785
  399MOL0     H52631   2.627   1.917   7.143 -0.4881  0.2195  0.6022
  399MOL0     H52632   2.689   2.148   6.808  1.1703  2.6644 -1.9329
  399MOL0     H52633   2.609   2.302   6.642  0.2729 -1.0717 -1.2533
  399MOL0     H52634   2.432   2.428   6.614 -0.9395  0.7778 -0.2677
  399MOL0     H52635   2.289   2.434   6.516 -0.5933 -1.6350 -3.4026
  399MOL0     H52636   2.430   2.472   6.309 -0.9806  1.7218  0.1314
  399MOL0     H52637   2.579   2.447   6.424 -0.3415 -1.9444  0.6418
  399MOL0     H52638   2.496   2.682   6.509  3.0754 -2.4344 -0.3743
  399MOL0     H52639   2.341   2.663   6.419 -0.0814 -2.2033  2.3008
  399MOL0     H52640   2.633   2.675   6.311 -0.1706  1.4727 -0.0379
  399MOL0     H52641   2.482   2.688   6.214  0.2201 -1.0329  0.4042
  399MOL0     H52642   2.582   2.878   6.425  0.7663 -2.3361  0.6800
  399MOL0     H52643   2.419   2.888   6.362 -0.6851 -0.4246  0.7217
  399MOL0     H52644   2.525   3.046   6.247 -0.6465 -0.3278 -0.3549
  399MOL0     H52645   2.492   2.930   6.129 -2.2734  2.7109 -0.0509
  399MOL0     H52646   2.763   2.987   6.255  1.6407 -0.1126 -1.8925
  399MOL0     H52647   2.732   2.834   6.164 -0.9536 -0.2939 -0.3243
  399MOL0     H52648   2.774   3.117   6.089  0.2929  0.1114  1.7547
  399MOL0     H52649   2.668   3.026   5.981  1.3842 -1.0038 -1.6029
  399MOL0     H52650   2.264   2.073   6.563  1.0771  0.3346 -2.6704
  399MOL0     H52651   2.336   1.893   6.722  1.0194 -0.4280  1.6394
  399MOL0     H52652   2.522   1.549   6.954  0.1697 -1.6922  1.2529
  399MOL0     H52653   2.601   1.432   7.151  6.3227 -1.4465  3.3554
  399MOL0     H52654   1.275   1.294   7.611  0.8053  1.8263  2.4106
  399MOL0     H52655   1.201   1.291   7.389 -0.4120  0.8100 -0.0797
  399MOL0     H52656   1.130   1.293   7.033 -1.9956 -0.3558 -0.6182
  399MOL0     H52657   1.033   1.217   6.825 -0.5068  0.4468  0.0149
  399MOL0     H52658   0.876   1.235   6.668  0.3748  0.0201 -0.2508
  399MOL0     H52659   1.005   1.136   6.583  0.9401 -0.4689 -2.0764
  399MOL0     H52660   0.780   1.156   6.432  0.7951  0.0072 -2.9083
  399MOL0     H52661   0.776   1.316   6.478  1.1229 -0.2789  2.3299
  399MOL0     H52662   1.022   1.222   6.329  0.6670  1.8391  0.0211
  399MOL0     H52663   0.957   1.376   6.348 -0.2397  0.0230 -1.1085
  399MOL0     H52664   0.802   1.163   6.194  3.3487 -0.0505 -1.7712
  399MOL0     H52665   0.753   1.334   6.226  0.0306  0.0007  1.3358
  399MOL0     H52666   1.069   1.351   5.928 -2.6808  0.9486 -1.3012
  399MOL0     H52667   1.154   1.555   6.619 -1.0776  1.0670  0.5774
  399MOL0     H52668   1.280   1.644   6.826 -2.7606  1.9485 -2.7411
  400MOL0     O52669   6.593   1.427   4.321  0.1983 -0.4895 -0.4399
  400MOL0     C52670   6.572   1.313   4.285 -0.9636  0.6935 -0.0442
  400MOL0     O52671   6.649   1.205   4.316  0.4060 -1.0883  1.3864
  400MOL0     C52672   6.767   1.227   4.386 -0.8071 -0.5457  0.0855
  400MOL0     C52673   6.885   1.287   4.333  1.4307  0.4515 -0.4821
  400MOL0     C52674   7.003   1.286   4.394  0.4631 -0.0632  0.4236
  400MOL0     C52675   7.016   1.239   4.526  0.1957  0.2917  0.4983
  400MOL0     O52676   7.144   1.255   4.582  0.2928 -0.5843 -0.3177
  400MOL0     C52677   7.157   1.184   4.705  1.1243 -0.7946  0.7030
  400MOL0     C52678   7.302   1.220   4.754  0.5434  0.6210 -0.0434
  400MOL0     C52679   7.341   1.122   4.864 -0.0994  0.0687 -0.3163
  400MOL0     C52680   7.479   1.152   4.918 -0.6705  0.1326 -0.0203
  400MOL0     C52681   7.528   1.035   5.003  0.3952 -0.2577 -0.5198
  400MOL0     C52682   7.517   0.902   4.935 -0.2322 -0.1741 -1.0413
  400MOL0     C52683   7.621   0.883   4.822 -0.1213 -0.1749 -0.2459
  400MOL0     C52684   7.631   0.739   4.782 -0.8298 -0.1476 -1.1904
  400MOL0     N52685   7.497   0.676   4.756 -0.1116 -0.7704 -0.6381
  400MOL0     C52686   7.399   0.714   4.675 -0.6231 -0.3868 -1.0995
  400MOL0     C52687   7.303   0.626   4.677 -0.0110  0.2792  0.0267
  400MOL0     C52688   7.163   0.647   4.638 -0.6676  0.3874  0.3149
  400MOL0     C52689   7.070   0.683   4.750  0.7982 -0.2286 -0.2414
  400MOL0     C52690   7.083   0.833   4.769  0.6157  0.5284  0.1034
  400MOL0     C52691   6.969   0.884   4.863 -0.0188  0.7821 -0.0929
  400MOL0     O52692   7.017   1.013   4.914  0.0650  0.4496 -0.0338
  400MOL0     C52693   6.995   1.020   5.052  0.3965 -1.0591 -0.3293
  400MOL0     C52694   7.106   0.998   5.132  0.5775  0.5331  0.2515
  400MOL0     C52695   7.106   1.007   5.270  0.5626 -0.0293  0.0041
  400MOL0     C52696   6.975   1.036   5.322  0.5436  0.3595  0.5270
  400MOL0     C52697   6.949   1.032   5.475 -0.1136 -0.0529  0.3530
  400MOL0     O52698   7.050   0.995   5.554 -0.1525 -0.1461  0.4490
  400MOL0     C52699   7.024   0.928   5.673 -0.1601 -1.3291 -0.7449
  400MOL0     C52700   7.139   0.924   5.757  0.5379 -0.7865  0.5429
  400MOL0     C52701   7.139   0.854   5.877  0.2461 -0.3241  0.3020
  400MOL0     C52702   7.025   0.777   5.918  1.0133 -0.2163  0.2178
  400MOL0     O52703   7.022   0.701   6.034 -0.6365 -0.0117 -1.2386
  400MOL0     C52704   7.027   0.772   6.155 -0.3915  0.2483 -0.0614
  400MOL0     C52705   7.069   0.693   6.281  0.1509  0.1615 -0.0867
  400MOL0     C52706   7.089   0.773   6.412  0.3663  0.0739 -0.4053
  400MOL0     C52707   6.971   0.844   6.469  0.0060  0.7365  0.0355
  400MOL0     C52708   6.999   0.886   6.616 -0.3608  0.2478 -0.8459
  400MOL0     C52709   7.127   0.979   6.631  0.7928 -0.2100  1.2166
  400MOL0     C52710   7.164   0.990   6.777  0.1096 -0.4862  0.2754
  400MOL0     C52711   7.208   0.870   6.867  0.9868  0.7361 -0.6721
  400MOL0    Cl52712   7.072   0.766   6.934 -0.0214  0.7243 -0.3684
  400MOL0     C52713   6.910   0.792   5.844  0.1997 -0.1548  0.4676
  400MOL0     C52714   6.907   0.864   5.719 -0.3078  0.1431  0.7214
  400MOL0     O52715   6.835   1.065   5.512  0.8130  0.6740  0.2778
  400MOL0     C52716   6.863   1.066   5.241  0.5112 -0.7088  0.2342
  400MOL0     C52717   6.875   1.067   5.105 -0.2742 -0.8936  0.4117
  400MOL0     N52718   7.327   0.533   4.773 -0.2565  0.7304  0.2656
  400MOL0     N52719   7.453   0.557   4.812 -0.4513 -1.1718 -1.2804
  400MOL0     C52720   6.895   1.189   4.585 -0.1765  1.3919 -0.0650
  400MOL0     C52721   6.780   1.178   4.506  0.8354  0.4843 -0.4560
  400MOL0     C52722   6.455   1.297   4.198 -0.2476  0.2310 -0.3307
  400MOL0     C52723   6.399   1.165   4.186 -0.2808  1.4300 -0.3834
  400MOL0     C52724   6.283   1.149   4.109  0.6686 -0.2460 -0.3392
  400MOL0     C52725   6.226   1.253   4.037  0.5584  0.2437  0.6443
  400MOL0     O52726   6.115   1.250   3.953  0.0220  0.8376 -0.4446
  400MOL0     C52727   6.019   1.139   3.963  0.4556 -1.0342 -0.6150
  400MOL0     C52728   5.925   1.155   4.087 -0.9752  0.7981  0.4835
  400MOL0     C52729   5.951   1.068   4.210 -0.1601 -0.6881 -0.5937
  400MOL0     C52730   5.830   1.058   4.300  0.9602 -0.4818 -0.9664
  400MOL0     C52731   5.769   1.180   4.346 -0.5417  0.8316 -0.1013
  400MOL0     C52732   5.726   1.284   4.374  0.7181  0.1191  0.4340
  400MOL0     C52733   6.285   1.381   4.052 -0.1237  0.0813 -0.3925
  400MOL0     C52734   6.395   1.408   4.129  0.0558 -0.0166  0.2135
  400MOL0     H52735   6.876   1.333   4.235  0.5966 -0.5865 -0.9120
  400MOL0     H52736   7.086   1.332   4.342 -1.0624  1.0595 -1.1751
  400MOL0     H52737   7.154   1.078   4.680  0.3180 -0.4311 -0.8626
  400MOL0     H52738   7.086   1.212   4.784  3.1219  0.4561  2.1449
  400MOL0     H52739   7.297   1.321   4.797 -0.0171 -0.8635  3.8201
  400MOL0     H52740   7.370   1.204   4.670  1.8547 -0.2211  1.1255
  400MOL0     H52741   7.323   1.028   4.812 -2.5398  0.5587 -0.4838
  400MOL0     H52742   7.269   1.136   4.945  1.1140  1.6800  0.5488
  400MOL0     H52743   7.557   1.162   4.842 -3.0312 -2.1054 -2.9964
  400MOL0     H52744   7.472   1.244   4.977 -1.3326  0.9433 -1.3199
  400MOL0     H52745   7.462   1.030   5.090  0.5325  3.2471 -0.0712
  400MOL0     H52746   7.632   1.055   5.032 -0.3373  1.4735  1.1418
  400MOL0     H52747   7.415   0.872   4.909  0.4081 -0.9991 -2.8150
  400MOL0     H52748   7.543   0.821   5.004  2.2985  0.5365 -1.0782
  400MOL0     H52749   7.586   0.938   4.734 -1.4041 -1.3447 -0.4998
  400MOL0     H52750   7.719   0.916   4.857  0.9266 -3.1868  0.0211
  400MOL0     H52751   7.674   0.683   4.866 -1.0122 -0.0819 -1.0527
  400MOL0     H52752   7.709   0.736   4.706  2.6565  1.8688  1.9470
  400MOL0     H52753   7.392   0.807   4.620  1.2368  0.3201 -0.2410
  400MOL0     H52754   7.130   0.548   4.607 -2.4641 -0.3459  4.0386
  400MOL0     H52755   7.146   0.706   4.548 -1.6692 -0.8348 -0.3277
  400MOL0     H52756   7.085   0.631   4.845  0.3638  2.8489  1.6406
  400MOL0     H52757   6.966   0.661   4.724  1.7132 -2.2517 -2.5496
  400MOL0     H52758   7.182   0.843   4.815 -1.2841  1.3604  4.5318
  400MOL0     H52759   7.092   0.890   4.677  3.1220 -0.7717 -0.5507
  400MOL0     H52760   6.947   0.807   4.937 -2.2930  1.2237 -0.2491
  400MOL0     H52761   6.885   0.916   4.800  1.2965  0.8232 -1.9318
  400MOL0     H52762   7.194   0.957   5.085  1.3857  1.2396  1.1142
  400MOL0     H52763   7.187   0.975   5.334  1.4591  3.6273  0.9291
  400MOL0     H52764   7.234   0.964   5.723  0.9367  0.5180  2.9420
  400MOL0     H52765   7.222   0.860   5.946 -2.1758  1.3877  3.3671
  400MOL0     H52766   6.928   0.812   6.180  0.2515  0.4871  2.2781
  400MOL0     H52767   7.097   0.855   6.140 -0.3404  0.0706 -0.8496
  400MOL0     H52768   7.164   0.640   6.269 -0.3109 -1.4426  2.5214
  400MOL0     H52769   7.005   0.610   6.311 -2.4526  3.0025  3.1323
  400MOL0     H52770   7.176   0.835   6.387  2.2207 -2.9852 -2.1878
  400MOL0     H52771   7.141   0.700   6.474  0.9125  0.7777 -0.0125
  400MOL0     H52772   6.960   0.937   6.413 -0.9225 -0.8181 -2.4904
  400MOL0     H52773   6.880   0.785   6.484  0.6003  0.2181  1.8922
  400MOL0     H52774   7.016   0.788   6.663  0.6221  0.1766 -1.3319
  400MOL0     H52775   6.910   0.926   6.666  1.6340  2.6009  1.1013
  400MOL0     H52776   7.102   1.078   6.593 -1.6468 -1.4971 -0.8870
  400MOL0     H52777   7.208   0.943   6.568  0.4428 -2.5335  1.9732
  400MOL0     H52778   7.259   1.043   6.763  0.0990 -0.5370  0.0256
  400MOL0     H52779   7.097   1.063   6.825  0.5051 -0.0178  0.1269
  400MOL0     H52780   7.268   0.901   6.953  3.4315  0.6073 -2.2321
  400MOL0     H52781   7.265   0.800   6.805  0.5601 -2.0268  1.8106
  400MOL0     H52782   6.810   0.763   5.872 -1.9259  5.0966 -0.5656
  400MOL0     H52783   6.815   0.859   5.662  0.9114 -1.9806 -1.2241
  400MOL0     H52784   6.766   1.082   5.287  0.0123 -0.2333 -0.9336
  400MOL0     H52785   6.793   1.115   5.053  1.0848  1.5135  0.3425
  400MOL0     H52786   6.895   1.161   4.689 -3.3669  2.4776  0.3400
  400MOL0     H52787   6.699   1.115   4.541 -0.1932  1.6719 -0.6592
  400MOL0     H52788   6.461   1.086   4.229  0.5790  1.9756 -0.5954
  400MOL0     H52789   6.248   1.046   4.102 -0.6071 -0.2612  3.5945
  400MOL0     H52790   6.077   1.047   3.956  2.5799  0.0520  1.2826
  400MOL0     H52791   5.950   1.143   3.879 -0.3208 -0.9539  0.0079
  400MOL0     H52792   5.918   1.261   4.115 -1.2773  1.3971 -1.6365
  400MOL0     H52793   5.832   1.130   4.035 -0.5206 -1.1218  0.5246
  400MOL0     H52794   6.029   1.118   4.269 -2.3871  1.8412  0.4102
  400MOL0     H52795   5.990   0.968   4.189  2.6877 -0.1028  1.1818
  400MOL0     H52796   5.742   1.020   4.247  0.9889  0.1095 -1.4515
  400MOL0     H52797   5.845   0.994   4.387  0.8628  1.4120  0.5048
  400MOL0     H52798   5.689   1.384   4.386 -1.3922 -0.3731 -1.2703
  400MOL0     H52799   6.246   1.466   3.997  0.8448  1.3794  0.8686
  400MOL0     H52800   6.438   1.506   4.145  0.9471  0.3255 -3.3325
  401MOL0     O52801   9.115   1.600   8.387 -0.2018 -0.4654 -0.5582
  401MOL0     C52802   9.085   1.666   8.490  0.2809 -0.3099 -0.6443
  401MOL0     O52803   9.102   1.632   8.619 -0.1661  1.0372 -0.4206
  401MOL0     C52804   9.202   1.540   8.642  0.7830 -0.6875  0.0629
  401MOL0     C52805   9.335   1.558   8.599 -0.0712  0.1773 -0.6479
  401MOL0     C52806   9.426   1.454   8.643  0.3026  0.1321  0.2604
  401MOL0     C52807   9.384   1.339   8.715 -0.5014 -0.2877  0.1095
  401MOL0     O52808   9.482   1.254   8.754 -0.4716 -0.2685  0.5587
  401MOL0     C52809   9.470   1.113   8.712 -0.0315 -0.0060  0.6396
  401MOL0     C52810   9.421   1.025   8.832  0.4377 -0.1011  0.7824
  401MOL0     C52811   9.410   0.874   8.763 -0.0410 -0.4156 -0.1645
  401MOL0     C52812   9.358   0.783   8.873 -0.5223 -0.1378 -0.0772
  401MOL0     C52813   9.454   0.737   8.981 -0.9414 -0.0122 -1.2717
  401MOL0     C52814   9.402   0.630   9.073  0.3451 -0.7752 -0.1765
  401MOL0     C52815   9.430   0.667   9.220 -0.2863 -0.2915 -0.0024
  401MOL0     C52816   9.360   0.574   9.309  0.5104  0.0886 -0.9867
  401MOL0     N52817   9.424   0.439   9.302 -0.8173 -0.8908  0.9346
  401MOL0     C52818   9.554   0.408   9.319  0.0007 -0.0283  0.0157
  401MOL0     C52819   9.554   0.278   9.296 -0.1240 -0.4999 -0.7562
  401MOL0     C52820   9.680   0.194   9.308 -0.1856  0.4758  0.1961
  401MOL0     C52821   9.647   0.051   9.336  0.4093 -0.4548 -0.6455
  401MOL0     C52822   9.759  -0.018   9.402 -0.0975  0.2113 -0.1375
  401MOL0     C52823   9.722  -0.169   9.424 -0.5347  0.0420  0.5173
  401MOL0     O52824   9.715  -0.228   9.294 -0.8947  0.1330  0.7154
  401MOL0     C52825   9.707  -0.367   9.287 -0.1686  0.0056  0.6122
  401MOL0     C52826   9.692  -0.457   9.398 -0.1093  0.1850  0.4481
  401MOL0     C52827   9.671  -0.597   9.374 -1.0579 -0.2455  0.0710
  401MOL0     C52828   9.693  -0.648   9.245  0.6240  0.4949  0.5954
  401MOL0     C52829   9.692  -0.804   9.226  0.1330  0.3932 -0.2738
  401MOL0     O52830   9.649  -0.877   9.340 -0.8887 -0.6036  0.8656
  401MOL0     C52831   9.690  -1.009   9.350  0.6348 -0.0517  0.0574
  401MOL0     C52832   9.589  -1.097   9.390  0.2035 -0.6264 -0.2762
  401MOL0     C52833   9.624  -1.230   9.398  0.2054  0.7294  0.8794
  401MOL0     C52834   9.747  -1.273   9.361  0.4082 -0.4811  0.5357
  401MOL0     O52835   9.774  -1.405   9.364 -0.7885 -0.1131  0.2544
  401MOL0     C52836   9.678  -1.506   9.336 -0.6116  0.6277  0.8464
  401MOL0     C52837   9.745  -1.636   9.319  1.0941  0.2086 -0.0731
  401MOL0     C52838   9.874  -1.630   9.236  0.1100 -0.1324 -0.4034
  401MOL0     C52839   9.850  -1.555   9.096  0.0475 -0.0058 -0.4174
  401MOL0     C52840   9.962  -1.548   9.000 -0.0353  0.7815  0.5232
  401MOL0     C52841  10.098  -1.521   9.049  0.0198 -0.4764 -0.4247
  401MOL0     C52842  10.114  -1.372   9.098  0.7692  0.3758 -0.4986
  401MOL0     C52843  10.243  -1.351   9.170 -1.1622  0.2640  0.3798
  401MOL0    Cl52844  10.230  -1.420   9.342  0.3259 -0.1177 -0.2070
  401MOL0     C52845   9.851  -1.182   9.331 -0.3963  0.6035  0.0283
  401MOL0     C52846   9.816  -1.047   9.320 -1.4008  0.4151  0.6298
  401MOL0     O52847   9.730  -0.848   9.115  0.2208 -0.4367 -0.1935
  401MOL0     C52848   9.700  -0.565   9.134 -1.1437 -1.7825 -0.4895
  401MOL0     C52849   9.703  -0.426   9.157  0.5806  0.7707  0.2550
  401MOL0     N52850   9.427   0.228   9.265  0.6572  0.2950  0.2374
  401MOL0     N52851   9.350   0.329   9.261 -0.8406  0.1472  0.7092
  401MOL0     C52852   9.249   1.318   8.741 -0.4623  0.0689 -0.0936
  401MOL0     C52853   9.158   1.421   8.708 -0.0368 -0.0746 -1.2029
  401MOL0     C52854   9.023   1.800   8.478 -0.2562  0.1208  0.1624
  401MOL0     C52855   9.035   1.881   8.366  0.5219  0.6408  0.4820
  401MOL0     C52856   8.972   2.008   8.365  0.1933 -0.5038 -0.6860
  401MOL0     C52857   8.896   2.053   8.471 -0.1358 -0.9088 -1.0265
  401MOL0     O52858   8.843   2.178   8.474  0.1694  0.7524  0.8903
  401MOL0     C52859   8.887   2.277   8.383  0.2570  0.0945 -1.0126
  401MOL0     C52860   8.849   2.410   8.439  0.2491  0.5423  1.6348
  401MOL0     C52861   8.841   2.503   8.312 -0.8333  0.1531 -0.3364
  401MOL0     C52862   8.827   2.648   8.341 -0.0082  0.5324  0.9783
  401MOL0     C52863   8.694   2.707   8.342  0.4498 -0.8486  0.6070
  401MOL0     C52864   8.588   2.759   8.342  0.2155  0.8019 -0.7479
  401MOL0     C52865   8.903   1.981   8.591  0.0038  0.5317 -0.9885
  401MOL0     C52866   8.957   1.850   8.593  0.3284 -0.1716  1.2563
  401MOL0     H52867   9.364   1.649   8.547 -1.7264 -1.0379 -3.9601
  401MOL0     H52868   9.531   1.463   8.617 -0.1231  1.3801 -1.1673
  401MOL0     H52869   9.564   1.073   8.673  0.8574 -0.6081  3.1719
  401MOL0     H52870   9.402   1.103   8.627 -0.3701 -0.5663  0.9709
  401MOL0     H52871   9.322   1.060   8.864 -0.1778 -1.2500  0.1821
  401MOL0     H52872   9.489   1.040   8.916 -0.4664  2.3534  1.1654
  401MOL0     H52873   9.506   0.841   8.723 -0.6310 -1.5515 -0.6639
  401MOL0     H52874   9.335   0.870   8.684 -1.2738 -2.3159  1.0139
  401MOL0     H52875   9.261   0.819   8.907 -1.8674 -2.4625 -1.1816
  401MOL0     H52876   9.334   0.689   8.823 -0.1393 -2.3990  3.6162
  401MOL0     H52877   9.463   0.830   9.036  3.6877 -0.2597 -1.2698
  401MOL0     H52878   9.545   0.711   8.927 -1.0272  0.2024 -1.5211
  401MOL0     H52879   9.441   0.532   9.044  1.9720  0.7628 -3.8498
  401MOL0     H52880   9.293   0.619   9.069  0.1123 -2.8669  4.8009
  401MOL0     H52881   9.538   0.660   9.235  0.1582  0.6799 -2.3005
  401MOL0     H52882   9.408   0.769   9.253  2.8828  0.0097  1.5542
  401MOL0     H52883   9.252   0.572   9.293  0.1845  2.8027  0.3200
  401MOL0     H52884   9.367   0.618   9.409 -3.0352 -1.0696 -0.0870
  401MOL0     H52885   9.641   0.471   9.339 -0.8820  1.2093  0.0859
  401MOL0     H52886   9.741   0.225   9.393  2.1150  0.6238 -1.4297
  401MOL0     H52887   9.739   0.198   9.216 -0.3341 -1.1125 -0.0029
  401MOL0     H52888   9.639   0.000   9.239  0.4852 -2.3703  0.3111
  401MOL0     H52889   9.559   0.033   9.397  1.5557  0.7694  1.4646
  401MOL0     H52890   9.860  -0.002   9.364 -0.5915 -1.1589 -2.1775
  401MOL0     H52891   9.762   0.035   9.497  0.8236  0.6922 -0.4257
  401MOL0     H52892   9.620  -0.180   9.464 -1.9800 -0.0045 -2.8524
  401MOL0     H52893   9.797  -0.208   9.493  0.4167  2.8359  1.1753
  401MOL0     H52894   9.688  -0.428   9.502 -0.0374  0.4751  0.3702
  401MOL0     H52895   9.656  -0.658   9.462 -0.5896  3.0653  2.6301
  401MOL0     H52896   9.492  -1.053   9.408  2.3249  3.9518  1.7056
  401MOL0     H52897   9.548  -1.297   9.438  3.1389 -2.3280  1.7585
  401MOL0     H52898   9.628  -1.496   9.240 -0.9509  0.3567  0.9913
  401MOL0     H52899   9.605  -1.508   9.418 -2.4437 -1.1205 -0.7219
  401MOL0     H52900   9.669  -1.696   9.268 -0.3034  1.7621  0.0584
  401MOL0     H52901   9.760  -1.686   9.415  4.0593 -0.1622 -0.6278
  401MOL0     H52902   9.897  -1.732   9.203  0.1319 -0.6956  1.2765
  401MOL0     H52903   9.957  -1.588   9.294 -0.6254 -0.2226  0.7432
  401MOL0     H52904   9.774  -1.606   9.037  0.5288  1.0918 -2.0500
  401MOL0     H52905   9.819  -1.454   9.124 -2.2743 -0.2776 -1.7617
  401MOL0     H52906   9.937  -1.472   8.925  1.2058 -0.7040 -1.5305
  401MOL0     H52907   9.971  -1.638   8.938 -2.3611  1.8384 -1.5142
  401MOL0     H52908  10.165  -1.545   8.966 -1.4135  0.5586 -1.9247
  401MOL0     H52909  10.122  -1.591   9.130  0.0179 -1.9104 -1.6361
  401MOL0     H52910  10.109  -1.309   9.009 -1.0414 -0.3932 -0.9925
  401MOL0     H52911  10.037  -1.344   9.171  0.3462  1.0382 -1.1940
  401MOL0     H52912  10.252  -1.242   9.175 -0.5990  0.5233 -3.3650
  401MOL0     H52913  10.334  -1.379   9.117 -0.5780  0.3538  1.3253
  401MOL0     H52914   9.957  -1.206   9.335 -0.4408 -0.2076 -2.3159
  401MOL0     H52915   9.894  -0.979   9.285 -0.0970 -1.5669 -0.5404
  401MOL0     H52916   9.682  -0.609   9.036 -2.9294  1.8917 -1.9956
  401MOL0     H52917   9.685  -0.359   9.074 -0.1256 -0.4408 -0.6075
  401MOL0     H52918   9.213   1.235   8.802  3.3995 -0.2793  1.9993
  401MOL0     H52919   9.056   1.395   8.736  0.5930 -0.1974  1.2743
  401MOL0     H52920   9.094   1.850   8.280  1.4230  0.8002  1.0257
  401MOL0     H52921   8.986   2.075   8.280 -2.5493 -0.6003 -1.3138
  401MOL0     H52922   8.844   2.257   8.284 -3.5579 -4.0799  1.1600
  401MOL0     H52923   8.995   2.273   8.370  0.0706  1.3975 -4.0274
  401MOL0     H52924   8.751   2.416   8.487 -0.4912  2.4072  0.0800
  401MOL0     H52925   8.928   2.454   8.499  0.7794  2.9941 -0.6301
  401MOL0     H52926   8.760   2.476   8.244  0.9428 -1.5158 -1.9281
  401MOL0     H52927   8.937   2.498   8.260 -0.7194 -1.1829 -0.0502
  401MOL0     H52928   8.875   2.660   8.439 -2.4056 -0.1919  2.3053
  401MOL0     H52929   8.887   2.694   8.262  1.6431 -4.9678 -1.4424
  401MOL0     H52930   8.490   2.796   8.318  0.0140  0.8714  0.1353
  401MOL0     H52931   8.840   2.008   8.675 -0.6612 -2.0193 -0.5899
  401MOL0     H52932   8.943   1.796   8.686 -4.6233  1.5029  1.7941
  402MOL0     O52933   4.216   8.625   4.955  0.4337  0.8153 -0.5324
  402MOL0     C52934   4.230   8.511   5.005  0.0685  0.1268 -0.2910
  402MOL0     O52935   4.339   8.432   4.990  0.0257  0.7620  0.0656
  402MOL0     C52936   4.436   8.470   4.905 -0.1862  0.4347 -0.3475
  402MOL0     C52937   4.519   8.575   4.943 -0.3340  1.4200 -0.7018
  402MOL0     C52938   4.623   8.612   4.862  0.7536  0.4208  0.3564
  402MOL0     C52939   4.653   8.549   4.738 -0.2145 -0.1440 -0.3100
  402MOL0     O52940   4.762   8.583   4.659  0.9401  0.6203 -0.2711
  402MOL0     C52941   4.780   8.733   4.651  0.0967 -0.3365  0.6236
  402MOL0     C52942   4.920   8.763   4.612 -0.5545 -0.4838  0.5822
  402MOL0     C52943   4.944   8.702   4.479  0.2384 -0.0067  0.2003
  402MOL0     C52944   5.070   8.744   4.408 -0.3551 -1.1491 -0.1681
  402MOL0     C52945   5.189   8.690   4.483 -0.2852 -0.1206 -0.3499
  402MOL0     C52946   5.301   8.795   4.505 -1.5128 -0.0385 -1.1372
  402MOL0     C52947   5.375   8.821   4.373  0.6974  0.2816  0.6361
  402MOL0     C52948   5.517   8.866   4.378  0.4068 -0.6508 -0.2400
  402MOL0     N52949   5.540   8.973   4.282 -0.4491 -1.1766 -0.0898
  402MOL0     C52950   5.571   8.973   4.148 -0.4680  0.3522  0.7093
  402MOL0     C52951   5.598   9.097   4.111 -0.2922 -0.0848 -0.3551
  402MOL0     C52952   5.611   9.154   3.970 -0.1625  1.0510  0.1510
  402MOL0     C52953   5.756   9.187   3.939 -0.7574 -0.1242  0.2706
  402MOL0     C52954   5.780   9.256   3.802  0.1028 -0.4356  0.3878
  402MOL0     C52955   5.753   9.402   3.801  0.2801 -0.6862  0.3319
  402MOL0     O52956   5.608   9.416   3.781 -0.3960 -0.9659  0.0753
  402MOL0     C52957   5.558   9.548   3.814  0.1941  0.8571  0.7472
  402MOL0     C52958   5.417   9.551   3.823 -0.3858 -0.1395 -1.0199
  402MOL0     C52959   5.352   9.671   3.855  0.1099  1.2741  0.6434
  402MOL0     C52960   5.421   9.787   3.882 -1.0531  0.1515  0.5038
  402MOL0     C52961   5.347   9.902   3.927 -0.5773 -0.2867 -0.4540
  402MOL0     O52962   5.206   9.910   3.911  0.3450  0.0711 -0.7133
  402MOL0     C52963   5.133  10.005   3.996  0.7740  0.0915 -0.4160
  402MOL0     C52964   5.169  10.046   4.129  0.0988  0.2372 -0.8076
  402MOL0     C52965   5.103  10.152   4.187  0.3925 -0.1621 -0.8793
  402MOL0     C52966   4.986  10.209   4.137  0.2574 -0.2615 -0.4273
  402MOL0     O52967   4.927  10.303   4.220 -0.3243  0.3292  0.1568
  402MOL0     C52968   4.820  10.391   4.157  0.6815 -0.0539 -1.4179
  402MOL0     C52969   4.683  10.360   4.224  0.3479  0.3517  0.2020
  402MOL0     C52970   4.594  10.482   4.209  0.2249 -0.1685  0.2198
  402MOL0     C52971   4.456  10.447   4.262  0.1707  0.0034  0.1806
  402MOL0     C52972   4.342  10.562   4.228  0.6032  0.4689 -0.1994
  402MOL0     C52973   4.211  10.555   4.317 -0.7612  0.4810 -0.7610
  402MOL0     C52974   4.129  10.686   4.312  0.5163  0.0813  0.6321
  402MOL0     C52975   3.979  10.664   4.343  0.0448 -0.8116 -0.6259
  402MOL0    Cl52976   3.868  10.804   4.330  0.4387  0.1068  0.2965
  402MOL0     C52977   4.949  10.160   4.016 -0.7119  0.0139  0.4436
  402MOL0     C52978   5.022  10.057   3.946  0.5569 -1.2349 -0.0659
  402MOL0     O52979   5.421   9.985   3.989  0.1973 -0.1406  0.6038
  402MOL0     C52980   5.567   9.777   3.878  0.6288  0.2897  1.3376
  402MOL0     C52981   5.626   9.658   3.843  1.2945 -1.3029  0.8886
  402MOL0     N52982   5.585   9.175   4.228  0.5810  0.4423 -0.3224
  402MOL0     N52983   5.552   9.101   4.334 -0.0517  0.0788  0.1288
  402MOL0     C52984   4.564   8.443   4.701 -0.4622  0.7175 -0.2269
  402MOL0     C52985   4.457   8.405   4.781  0.8646 -0.2370  0.3234
  402MOL0     C52986   4.141   8.454   5.100 -0.0037  0.5267 -0.0865
  402MOL0     C52987   4.138   8.323   5.147  0.8031  0.0676 -0.3594
  402MOL0     C52988   4.049   8.286   5.261 -0.5288 -0.4918 -0.5373
  402MOL0     C52989   3.966   8.384   5.322 -0.7002  0.3463  0.4332
  402MOL0     O52990   3.889   8.356   5.434 -0.4523 -0.3367 -0.6762
  402MOL0     C52991   3.759   8.298   5.411  0.0286  0.2043 -0.3725
  402MOL0     C52992   3.713   8.235   5.545  0.0843 -0.7403 -0.0743
  402MOL0     C52993   3.700   8.358   5.657  0.4988  1.4192 -0.3884
  402MOL0     C52994   3.692   8.307   5.801 -0.1520 -0.2388 -1.2631
  402MOL0     C52995   3.561   8.238   5.829 -0.1622 -1.3288 -0.8464
  402MOL0     C52996   3.460   8.176   5.840 -0.2827  1.0480  0.6214
  402MOL0     C52997   3.975   8.512   5.275 -0.4165 -0.5849  0.4752
  402MOL0     C52998   4.061   8.549   5.172 -0.7658  0.3722  0.5404
  402MOL0     H52999   4.499   8.625   5.037  0.9916  0.8980 -0.1131
  402MOL0     H53000   4.691   8.687   4.902  0.3953  1.2522 -0.5662
  402MOL0     H53001   4.763   8.789   4.743  1.4469 -0.3817  0.9144
  402MOL0     H53002   4.701   8.774   4.588  0.1262 -0.2789  0.6239
  402MOL0     H53003   5.000   8.730   4.678  1.1015  0.0715 -1.0422
  402MOL0     H53004   4.924   8.872   4.600 -1.0526 -0.6482 -1.4854
  402MOL0     H53005   4.857   8.729   4.419 -0.5618 -1.0384  0.8574
  402MOL0     H53006   4.951   8.594   4.492  1.7121  0.3443  3.6896
  402MOL0     H53007   5.066   8.717   4.302  3.6545 -0.8291 -0.5776
  402MOL0     H53008   5.078   8.853   4.408 -1.1553 -1.0744  0.7441
  402MOL0     H53009   5.222   8.609   4.417  0.0328 -1.5452  1.4849
  402MOL0     H53010   5.162   8.642   4.577  1.6134  0.7343  0.6914
  402MOL0     H53011   5.376   8.753   4.572 -1.1519  0.0418 -1.4864
  402MOL0     H53012   5.260   8.883   4.556 -2.7771 -1.1350 -0.1636
  402MOL0     H53013   5.383   8.730   4.313  0.4290  1.6566 -1.5988
  402MOL0     H53014   5.313   8.894   4.320 -0.1802 -0.9916 -0.1583
  402MOL0     H53015   5.583   8.785   4.349 -0.5692 -0.7228 -2.4596
  402MOL0     H53016   5.535   8.897   4.481 -0.5745  1.0838 -0.5466
  402MOL0     H53017   5.572   8.890   4.078  0.7101  0.0560  1.0541
  402MOL0     H53018   5.557   9.248   3.959 -0.3255  1.1035  1.2453
  402MOL0     H53019   5.584   9.077   3.896  3.6716  0.7498 -1.1170
  402MOL0     H53020   5.817   9.097   3.936  1.3691  1.0837  3.0527
  402MOL0     H53021   5.811   9.240   4.017  1.8771  1.7665 -2.6422
  402MOL0     H53022   5.884   9.231   3.780  1.2331  2.9735  1.1758
  402MOL0     H53023   5.713   9.209   3.730 -0.5046  2.1549 -0.8507
  402MOL0     H53024   5.816   9.457   3.731  3.2947 -0.6831  2.8284
  402MOL0     H53025   5.781   9.441   3.899  0.6545 -0.7607  0.2566
  402MOL0     H53026   5.362   9.457   3.816  0.8226 -1.3398  3.0962
  402MOL0     H53027   5.245   9.654   3.850 -0.0379  1.5399  2.1760
  402MOL0     H53028   5.260  10.014   4.179 -0.0777  0.1540 -0.5357
  402MOL0     H53029   5.161  10.196   4.268  0.4703 -3.0230  0.7458
  402MOL0     H53030   4.812  10.399   4.048  1.3452  1.5637 -1.3807
  402MOL0     H53031   4.855  10.486   4.198 -0.0208 -0.7160  0.8862
  402MOL0     H53032   4.686  10.337   4.330 -2.7663 -4.8563 -0.4908
  402MOL0     H53033   4.654  10.267   4.173  1.1310  0.5668 -0.6758
  402MOL0     H53034   4.597  10.514   4.104 -1.6345  0.8877  0.4559
  402MOL0     H53035   4.639  10.562   4.268  1.5210  1.5157 -2.8186
  402MOL0     H53036   4.422  10.357   4.211  0.5233  0.2926 -0.5833
  402MOL0     H53037   4.470  10.408   4.363  0.5690 -3.7206 -1.1591
  402MOL0     H53038   4.315  10.549   4.122 -1.5028 -0.8019  0.4349
  402MOL0     H53039   4.400  10.654   4.239  0.9737  0.2797 -0.5117
  402MOL0     H53040   4.236  10.534   4.422 -1.9978 -0.4977 -0.6456
  402MOL0     H53041   4.158  10.469   4.276 -1.4665  0.9866 -0.9185
  402MOL0     H53042   4.180  10.747   4.387 -0.2628  0.4758  0.8518
  402MOL0     H53043   4.141  10.736   4.215  0.4575 -2.4957 -0.7853
  402MOL0     H53044   3.962  10.638   4.448  1.1439  1.2791  0.1379
  402MOL0     H53045   3.934  10.584   4.284  0.9037 -1.8125  0.0559
  402MOL0     H53046   4.863  10.200   3.963  0.4182  0.1391 -1.3324
  402MOL0     H53047   4.986  10.034   3.846 -2.7128  1.0092  0.4407
  402MOL0     H53048   5.628   9.862   3.904  1.2889  0.5378 -0.8089
  402MOL0     H53049   5.733   9.663   3.830  1.3831 -0.2121  1.8160
  402MOL0     H53050   4.582   8.402   4.602 -2.0736  1.3648 -0.8132
  402MOL0     H53051   4.389   8.327   4.747 -0.1105  1.0079 -0.6793
  402MOL0     H53052   4.199   8.248   5.098  0.1223 -1.3725  0.9206
  402MOL0     H53053   4.038   8.185   5.301 -0.3335 -0.2644  0.1022
  402MOL0     H53054   3.765   8.212   5.343  3.3085  0.9742 -1.2477
  402MOL0     H53055   3.688   8.371   5.371  0.5930  0.4607 -0.9129
  402MOL0     H53056   3.618   8.184   5.527  0.2764 -1.4399  0.8641
  402MOL0     H53057   3.777   8.154   5.580  1.9408  1.4304  1.8894
  402MOL0     H53058   3.609   8.411   5.628  0.5612  2.4983  1.2398
  402MOL0     H53059   3.784   8.427   5.652  0.8336  1.1219  0.7928
  402MOL0     H53060   3.774   8.238   5.823  0.2618 -0.0215 -2.0786
  402MOL0     H53061   3.697   8.393   5.868 -2.0197 -1.3464  0.3817
  402MOL0     H53062   3.367   8.124   5.847  0.1922 -0.0817 -0.8739
  402MOL0     H53063   3.910   8.580   5.330  1.1474 -0.0005  1.7058
  402MOL0     H53064   4.059   8.654   5.144  0.1789  0.0968 -0.6548
  403MOL0     O53065   0.104   6.307   1.263 -0.2575 -0.9873  0.0791
  403MOL0     C53066   0.153   6.398   1.190 -0.0398 -0.1148  0.4276
  403MOL0     O53067   0.206   6.516   1.234 -0.8964  0.5947  0.4842
  403MOL0     C53068   0.223   6.528   1.374 -1.0430  0.0660  0.1000
  403MOL0     C53069   0.353   6.523   1.437 -1.1933 -0.4154  0.8539
  403MOL0     C53070   0.361   6.546   1.571 -0.0758  0.5919 -0.4000
  403MOL0     C53071   0.251   6.575   1.654  0.5568 -0.3761  1.1454
  403MOL0     O53072   0.251   6.610   1.785  0.0819 -0.0194 -1.2661
  403MOL0     C53073   0.369   6.596   1.857 -0.3459 -0.1205 -0.0779
  403MOL0     C53074   0.327   6.553   2.005 -0.4068  0.1273 -0.0131
  403MOL0     C53075   0.241   6.662   2.072 -0.6020  1.3892  0.7593
  403MOL0     C53076   0.198   6.616   2.206  0.0690  1.1016 -0.0294
  403MOL0     C53077   0.122   6.713   2.282 -0.8189  0.1424  0.6592
  403MOL0     C53078   0.113   6.665   2.431  0.4481 -0.0017  0.0582
  403MOL0     C53079   0.055   6.769   2.514 -0.5795  0.0190  1.0972
  403MOL0     C53080   0.157   6.878   2.562 -0.4817  0.0901  0.5880
  403MOL0     N53081   0.100   7.010   2.599  0.0710  0.9657  0.0528
  403MOL0     C53082  -0.023   7.035   2.660 -0.4692 -0.4539  0.1592
  403MOL0     C53083  -0.044   7.163   2.656 -0.0111 -0.1477 -0.2624
  403MOL0     C53084  -0.163   7.237   2.715  0.7030  0.6119  0.5185
  403MOL0     C53085  -0.124   7.311   2.842  0.1304  0.1912 -0.0030
  403MOL0     C53086  -0.222   7.418   2.898  0.5528  1.3550  0.7840
  403MOL0     C53087  -0.365   7.377   2.898  0.6694  0.3860 -0.3227
  403MOL0     O53088  -0.417   7.496   2.946 -0.2572 -0.0232  0.1598
  403MOL0     C53089  -0.542   7.534   2.903 -0.4917  0.1799 -1.3066
  403MOL0     C53090  -0.601   7.632   2.983  0.3194  0.0986  0.1484
  403MOL0     C53091  -0.737   7.662   2.964 -0.3396  0.2228 -0.0259
  403MOL0     C53092  -0.814   7.628   2.847 -0.3474  0.6605 -0.2448
  403MOL0     C53093  -0.949   7.669   2.837 -0.4006  0.7099  0.8819
  403MOL0     O53094  -1.032   7.600   2.751 -0.6278  0.0400 -0.2670
  403MOL0     C53095  -1.160   7.630   2.734 -0.1812 -0.1193  0.4834
  403MOL0     C53096  -1.261   7.539   2.768 -0.2558 -0.0333  0.4936
  403MOL0     C53097  -1.391   7.578   2.741 -0.8169  1.0193 -0.4793
  403MOL0     C53098  -1.423   7.705   2.693  0.4639 -0.0896 -0.1436
  403MOL0     O53099  -1.558   7.725   2.662  0.5082  0.3596  0.3552
  403MOL0     C53100  -1.585   7.832   2.578 -0.2970  0.1854  1.0529
  403MOL0     C53101  -1.701   7.789   2.502  0.4862  0.4616  0.7051
  403MOL0     C53102  -1.689   7.678   2.396 -1.2639  0.5280 -0.5017
  403MOL0     C53103  -1.553   7.654   2.326  0.1231  0.4611 -0.3256
  403MOL0     C53104  -1.561   7.543   2.226 -0.2098 -0.7787 -0.2197
  403MOL0     C53105  -1.439   7.551   2.137  0.7522  0.1746  0.4738
  403MOL0     C53106  -1.456   7.464   2.014  0.2608  0.3649  0.4777
  403MOL0     C53107  -1.567   7.518   1.930 -1.4658 -0.3512 -0.6156
  403MOL0    Cl53108  -1.535   7.509   1.756  0.4256  0.1825  0.1169
  403MOL0     C53109  -1.325   7.788   2.646 -0.3932 -0.8311 -0.1839
  403MOL0     C53110  -1.197   7.745   2.666 -0.0789  0.4753  0.2991
  403MOL0     O53111  -0.980   7.764   2.907  0.0537  0.0965  0.3259
  403MOL0     C53112  -0.745   7.535   2.767  1.1330  0.1577  1.2759
  403MOL0     C53113  -0.626   7.465   2.798 -0.3213 -0.0580 -0.3635
  403MOL0     N53114   0.067   7.230   2.615 -0.2551  0.8559  0.3526
  403MOL0     N53115   0.149   7.129   2.576 -0.0206 -0.0142 -0.3350
  403MOL0     C53116   0.125   6.578   1.596 -0.0839 -0.6619 -0.7180
  403MOL0     C53117   0.115   6.557   1.460 -0.4328 -0.7262  0.7149
  403MOL0     C53118   0.123   6.375   1.044 -1.2903 -0.6505  0.4454
  403MOL0     C53119   0.138   6.466   0.934 -0.8113  0.6187 -0.1848
  403MOL0     C53120   0.115   6.434   0.794  1.2697  0.4435  0.1855
  403MOL0     C53121   0.079   6.300   0.767  0.1346 -0.0087  0.0392
  403MOL0     O53122   0.037   6.262   0.641  0.7334 -0.5289  0.0112
  403MOL0     C53123  -0.074   6.329   0.586 -0.0511 -0.4728  0.4429
  403MOL0     C53124  -0.082   6.323   0.435 -0.2606 -0.2126 -0.2713
  403MOL0     C53125  -0.174   6.426   0.375  0.2665  0.4151 -0.3032
  403MOL0     C53126  -0.105   6.568   0.374 -0.0440  0.7623  0.9934
  403MOL0     C53127  -0.194   6.674   0.326  0.1036 -0.5838  0.6436
  403MOL0     C53128  -0.260   6.762   0.274  0.4512 -0.8817 -0.5688
  403MOL0     C53129   0.084   6.206   0.868  0.4828 -0.4424  0.5661
  403MOL0     C53130   0.105   6.238   1.000 -0.2055  0.7926  0.1021
  403MOL0     H53131   0.443   6.488   1.386 -2.5433 -3.4985  0.3673
  403MOL0     H53132   0.461   6.527   1.608  1.0679  2.3924 -2.3279
  403MOL0     H53133   0.435   6.683   1.861 -1.2794  0.6035 -0.0681
  403MOL0     H53134   0.425   6.512   1.813 -0.7346 -0.5980  0.3366
  403MOL0     H53135   0.415   6.533   2.067 -2.3261 -0.9055  2.4944
  403MOL0     H53136   0.272   6.460   1.991  0.4544 -0.1954 -1.5647
  403MOL0     H53137   0.160   6.693   2.005 -0.9933  1.5135  1.2862
  403MOL0     H53138   0.320   6.738   2.069  1.1976 -0.4066 -1.6317
  403MOL0     H53139   0.132   6.528   2.199 -1.2259  2.1728 -2.1620
  403MOL0     H53140   0.291   6.590   2.258  0.2205 -1.0603 -1.2748
  403MOL0     H53141   0.025   6.739   2.239 -0.0799  0.9156 -0.6084
  403MOL0     H53142   0.189   6.800   2.281  1.3161 -1.4114  1.9141
  403MOL0     H53143   0.214   6.629   2.452  1.0957 -0.3426 -3.0845
  403MOL0     H53144   0.044   6.581   2.417  0.4632  0.0922 -0.6351
  403MOL0     H53145  -0.027   6.815   2.458  0.7532 -1.9037 -2.7749
  403MOL0     H53146   0.015   6.718   2.602 -3.3865 -0.2756 -0.2469
  403MOL0     H53147   0.241   6.902   2.497  1.4267  1.5998  3.3671
  403MOL0     H53148   0.200   6.837   2.654 -0.3504  0.5517  0.7355
  403MOL0     H53149  -0.089   6.973   2.720 -1.1623 -0.2761 -0.4181
  403MOL0     H53150  -0.231   7.162   2.756  2.1604  0.0353  2.0141
  403MOL0     H53151  -0.215   7.298   2.640 -2.9307  1.0597  3.1286
  403MOL0     H53152  -0.040   7.372   2.806 -1.3428  2.9967  0.9778
  403MOL0     H53153  -0.084   7.233   2.907 -1.7926 -3.7085 -3.0795
  403MOL0     H53154  -0.192   7.440   3.001  2.2753  3.3237 -0.0459
  403MOL0     H53155  -0.206   7.510   2.841  0.6302  2.2709  2.2143
  403MOL0     H53156  -0.391   7.288   2.958 -0.8806 -0.9723 -2.8535
  403MOL0     H53157  -0.404   7.348   2.800  0.0048  2.3110 -0.6579
  403MOL0     H53158  -0.538   7.672   3.061  2.7696  0.1042 -1.7186
  403MOL0     H53159  -0.789   7.727   3.035 -2.2750 -0.7488 -0.4908
  403MOL0     H53160  -1.234   7.439   2.803  2.9104  0.0148 -1.5043
  403MOL0     H53161  -1.464   7.501   2.766 -2.4732  2.7550  0.2883
  403MOL0     H53162  -1.512   7.836   2.497 -1.8100  2.3583 -0.3189
  403MOL0     H53163  -1.604   7.924   2.634  1.1946  1.5820 -0.5770
  403MOL0     H53164  -1.731   7.882   2.452  3.7599  0.5561 -1.3491
  403MOL0     H53165  -1.779   7.752   2.569  0.2042 -0.9678 -0.3687
  403MOL0     H53166  -1.769   7.686   2.323 -0.8585  0.0146 -1.0117
  403MOL0     H53167  -1.698   7.578   2.440 -1.5645 -0.1695 -2.0884
  403MOL0     H53168  -1.533   7.752   2.283 -1.9457  0.3228 -1.7717
  403MOL0     H53169  -1.475   7.625   2.398 -1.2075 -1.4691  0.4302
  403MOL0     H53170  -1.659   7.541   2.177 -1.9073 -2.7170  2.8754
  403MOL0     H53171  -1.560   7.455   2.291 -3.2449 -0.0384  1.0386
  403MOL0     H53172  -1.347   7.522   2.189  0.0153 -1.2650  1.0348
  403MOL0     H53173  -1.426   7.658   2.116 -1.8560  0.1541 -1.7255
  403MOL0     H53174  -1.370   7.477   1.949 -0.5776  0.4093 -0.6573
  403MOL0     H53175  -1.467   7.365   2.059 -1.7856  0.8774  1.2509
  403MOL0     H53176  -1.599   7.619   1.956 -1.9566 -0.8073  0.6332
  403MOL0     H53177  -1.648   7.445   1.936 -1.2651 -0.4548  4.0188
  403MOL0     H53178  -1.337   7.892   2.618  5.2007  0.8967  2.3211
  403MOL0     H53179  -1.126   7.822   2.636  0.2914 -0.5653 -1.6745
  403MOL0     H53180  -0.804   7.512   2.679 -1.5461  3.1650  2.1086
  403MOL0     H53181  -0.584   7.386   2.738  2.0382 -0.5613  1.7571
  403MOL0     H53182   0.039   6.603   1.657  0.5985 -1.7468  0.7226
  403MOL0     H53183   0.025   6.575   1.401 -1.2084  1.6391  2.4892
  403MOL0     H53184   0.174   6.562   0.969  0.2328 -0.6989  2.6625
  403MOL0     H53185   0.122   6.503   0.710 -0.7251 -1.5941 -1.7890
  403MOL0     H53186  -0.067   6.436   0.606  1.4083 -0.2796 -0.8408
  403MOL0     H53187  -0.175   6.299   0.614 -1.7070  0.9850 -3.3057
  403MOL0     H53188   0.021   6.344   0.407 -1.0265  1.1093 -2.3463
  403MOL0     H53189  -0.099   6.220   0.402  2.9036 -0.3876 -1.6749
  403MOL0     H53190  -0.265   6.437   0.434 -0.1831  0.2452 -0.9578
  403MOL0     H53191  -0.203   6.391   0.276  0.1669  0.3175 -0.2394
  403MOL0     H53192  -0.096   6.615   0.473  0.9488  2.7851  0.0071
  403MOL0     H53193  -0.011   6.563   0.318 -0.3783 -2.4057  0.5261
  403MOL0     H53194  -0.304   6.844   0.221  2.1480  0.3958 -0.0668
  403MOL0     H53195   0.056   6.102   0.851  2.0474 -0.9497  0.9929
  403MOL0     H53196   0.124   6.165   1.078  1.3079  1.5645  0.4905
  404MOL0     O53197   3.526   1.292   9.356 -0.7400  0.7225 -0.6931
  404MOL0     C53198   3.645   1.255   9.354 -0.3210 -1.0553  0.8506
  404MOL0     O53199   3.745   1.292   9.441  0.6563  0.4920 -0.0959
  404MOL0     C53200   3.716   1.349   9.563  0.6148  0.2723  0.7352
  404MOL0     C53201   3.773   1.462   9.615  0.0071  0.1050 -0.5498
  404MOL0     C53202   3.740   1.516   9.737  0.0398  0.4416 -1.2064
  404MOL0     C53203   3.629   1.452   9.808 -0.6246 -0.0838 -0.2309
  404MOL0     O53204   3.560   1.505   9.920  0.4392  0.3815  0.3860
  404MOL0     C53205   3.641   1.588  10.002  0.3473  0.1580  0.5495
  404MOL0     C53206   3.574   1.597  10.138 -0.1130  0.6589 -0.6490
  404MOL0     C53207   3.561   1.468  10.222  0.1514 -0.2684  0.0145
  404MOL0     C53208   3.475   1.491  10.349 -0.1210 -0.2396 -0.1037
  404MOL0     C53209   3.488   1.368  10.432  0.7658 -0.2090 -0.4847
  404MOL0     C53210   3.399   1.364  10.558  0.0899  0.1623  0.0821
  404MOL0     C53211   3.357   1.223  10.611 -0.5501  0.6826  0.3110
  404MOL0     C53212   3.247   1.153  10.518 -0.3893 -0.8407 -0.1437
  404MOL0     N53213   3.212   1.018  10.589 -0.0817  0.4336  0.4572
  404MOL0     C53214   3.180   0.900  10.519 -0.5426  0.0764  0.3140
  404MOL0     C53215   3.142   0.812  10.603  0.3692  0.8129 -0.3595
  404MOL0     C53216   3.091   0.673  10.568  0.3097  0.0728 -0.0408
  404MOL0     C53217   2.932   0.659  10.560 -0.5578  0.1865 -0.4911
  404MOL0     C53218   2.842   0.686  10.682  0.7499  0.6732  0.5225
  404MOL0     C53219   2.907   0.623  10.811  0.5111 -0.6935 -1.0178
  404MOL0     O53220   2.801   0.632  10.903  0.0881  0.2880  0.2122
  404MOL0     C53221   2.774   0.517  10.965 -0.1833  0.5226 -0.6658
  404MOL0     C53222   2.870   0.405  10.988  0.0266 -0.1445  0.0257
  404MOL0     C53223   2.834   0.296  11.061  0.9279 -0.0677  0.0370
  404MOL0     C53224   2.703   0.280  11.120 -0.3858 -0.4305 -0.1117
  404MOL0     C53225   2.679   0.161  11.200 -0.6585  0.4947  0.2507
  404MOL0     O53226   2.573   0.177  11.281  0.1756  0.2379  0.2865
  404MOL0     C53227   2.552   0.085  11.382  0.7318 -0.0624  0.9896
  404MOL0     C53228   2.645   0.014  11.451 -1.3012  1.1595 -0.1596
  404MOL0     C53229   2.597  -0.076  11.547  0.8293  0.3701  0.1540
  404MOL0     C53230   2.462  -0.098  11.567 -0.5744 -0.1679  0.6454
  404MOL0     O53231   2.438  -0.186  11.668 -0.1574  0.4895 -0.7041
  404MOL0     C53232   2.302  -0.249  11.678  0.3840  0.7626 -0.5406
  404MOL0     C53233   2.205  -0.167  11.771  0.3426  0.3721 -0.8976
  404MOL0     C53234   2.242  -0.163  11.930 -0.6438 -0.2315 -0.8917
  404MOL0     C53235   2.247  -0.297  12.000  0.8177 -0.1147 -1.1231
  404MOL0     C53236   2.335  -0.315  12.126 -0.2311 -0.2643 -0.2920
  404MOL0     C53237   2.307  -0.221  12.242  0.3133  0.1954  0.2618
  404MOL0     C53238   2.433  -0.190  12.318  0.7262  0.0840 -1.0475
  404MOL0     C53239   2.508  -0.310  12.373  0.3629 -0.6665  0.6111
  404MOL0    Cl53240   2.414  -0.386  12.501  0.5031 -0.1184  0.2464
  404MOL0     C53241   2.366  -0.021  11.499 -1.1369  0.9186  0.5025
  404MOL0     C53242   2.411   0.073  11.410 -0.4041 -0.0936 -0.3481
  404MOL0     O53243   2.744   0.057  11.185 -0.3214 -0.2607 -0.2835
  404MOL0     C53244   2.611   0.394  11.092 -0.1352  0.3224 -0.8081
  404MOL0     C53245   2.650   0.506  11.018 -0.7048  0.4439  0.2416
  404MOL0     N53246   3.145   0.871  10.725 -0.4932 -0.2670 -0.5112
  404MOL0     N53247   3.193   0.988  10.721  0.1729 -0.5937  0.8784
  404MOL0     C53248   3.574   1.336   9.759  0.0367 -0.3747  0.3227
  404MOL0     C53249   3.625   1.277   9.647  0.1307  0.2100  0.1721
  404MOL0     C53250   3.675   1.157   9.252 -0.7962 -1.1606 -0.9608
  404MOL0     C53251   3.810   1.124   9.217 -1.2042  0.2317 -1.0677
  404MOL0     C53252   3.843   1.023   9.125  0.1209 -0.7551  0.2521
  404MOL0     C53253   3.737   0.955   9.069 -0.1191  0.2084  0.2889
  404MOL0     O53254   3.728   0.859   8.975  0.1308  0.7523  0.0990
  404MOL0     C53255   3.854   0.812   8.923 -0.1077 -0.2675  0.9458
  404MOL0     C53256   3.835   0.712   8.805 -0.1373  0.7438 -0.0333
  404MOL0     C53257   3.741   0.596   8.853  0.6990  0.2569  0.7787
  404MOL0     C53258   3.683   0.509   8.750  0.7866 -0.3135  0.5930
  404MOL0     C53259   3.793   0.444   8.683 -0.0003 -0.1513  0.5497
  404MOL0     C53260   3.876   0.361   8.637 -0.2582  0.2557 -0.7945
  404MOL0     C53261   3.616   0.994   9.098 -0.4945 -0.6757 -0.1587
  404MOL0     C53262   3.575   1.083   9.190 -0.0057  0.2777  0.7917
  404MOL0     H53263   3.850   1.512   9.556  1.6213 -2.8681 -1.1589
  404MOL0     H53264   3.781   1.612   9.765  0.5554  0.1883 -1.0854
  404MOL0     H53265   3.642   1.685   9.952 -2.1370  0.1035  0.2275
  404MOL0     H53266   3.743   1.554  10.022  0.6572  0.8907  0.2243
  404MOL0     H53267   3.472   1.633  10.122 -0.0095  1.9938  1.3343
  404MOL0     H53268   3.630   1.677  10.187  3.5959 -0.7411 -2.2756
  404MOL0     H53269   3.661   1.437  10.253  1.2786  2.1744 -0.9376
  404MOL0     H53270   3.514   1.382  10.173 -1.3101  1.7924 -2.4655
  404MOL0     H53271   3.491   1.585  10.402  1.2714  0.7325 -2.1411
  404MOL0     H53272   3.371   1.493  10.317 -1.0232 -1.5875  2.4467
  404MOL0     H53273   3.588   1.354  10.475  0.2910 -1.6236  0.2213
  404MOL0     H53274   3.456   1.285  10.369 -2.2264  1.0068 -0.7224
  404MOL0     H53275   3.310   1.424  10.538 -1.2386 -2.1654 -1.5727
  404MOL0     H53276   3.462   1.409  10.636  0.5934  1.7852 -1.1988
  404MOL0     H53277   3.452   1.171  10.624  0.4822  2.1177 -1.0629
  404MOL0     H53278   3.317   1.235  10.712 -1.1187 -2.7321  0.6179
  404MOL0     H53279   3.284   1.128  10.418  1.9060 -3.5334  1.2334
  404MOL0     H53280   3.157   1.215  10.512  0.3315  0.0453 -3.5409
  404MOL0     H53281   3.195   0.897  10.412  1.6465 -1.0236  0.5881
  404MOL0     H53282   3.118   0.604  10.648 -2.8027  2.4032  3.3256
  404MOL0     H53283   3.130   0.637  10.472 -0.8211  2.6696 -1.5893
  404MOL0     H53284   2.921   0.554  10.532  0.6922  0.7005 -3.1447
  404MOL0     H53285   2.899   0.720  10.475 -2.4620  0.4369  0.3629
  404MOL0     H53286   2.799   0.785  10.701 -3.1310 -1.1187  2.5432
  404MOL0     H53287   2.753   0.627  10.657  0.1010  2.0067 -0.4422
  404MOL0     H53288   2.998   0.677  10.839  0.3222 -1.4306  1.1783
  404MOL0     H53289   2.942   0.522  10.785  0.6725 -0.3349 -2.2627
  404MOL0     H53290   2.972   0.409  10.953 -0.4891  3.8803 -1.5420
  404MOL0     H53291   2.915   0.233  11.096  0.2374 -1.0087 -0.0400
  404MOL0     H53292   2.753   0.010  11.437 -1.3435 -2.6399 -0.4069
  404MOL0     H53293   2.666  -0.138  11.602  2.3530 -2.9040 -4.7373
  404MOL0     H53294   2.312  -0.349  11.719 -3.8045 -0.7037 -2.4879
  404MOL0     H53295   2.256  -0.258  11.579 -3.1766 -2.3410  1.1322
  404MOL0     H53296   2.102  -0.203  11.765 -0.1192  1.5955 -0.6830
  404MOL0     H53297   2.196  -0.062  11.740 -1.1156  1.0870  1.6388
  404MOL0     H53298   2.163  -0.107  11.982 -1.1413 -2.6926  1.2328
  404MOL0     H53299   2.341  -0.118  11.938  0.6258 -2.6282 -1.9430
  404MOL0     H53300   2.147  -0.321  12.036  1.9810 -2.1873  1.0223
  404MOL0     H53301   2.262  -0.380  11.930  2.6538 -2.0794  1.3760
  404MOL0     H53302   2.438  -0.316  12.091 -0.0319  1.0543  0.2008
  404MOL0     H53303   2.314  -0.414  12.166 -1.6535 -0.5850 -1.7125
  404MOL0     H53304   2.230  -0.266  12.306  0.5593  0.0959  0.4916
  404MOL0     H53305   2.266  -0.126  12.209  1.0690 -0.0852 -1.6033
  404MOL0     H53306   2.494  -0.121  12.258 -0.2891  3.2527  1.2860
  404MOL0     H53307   2.405  -0.133  12.407  0.5754 -1.0685 -0.3348
  404MOL0     H53308   2.599  -0.267  12.415 -0.5715 -0.1839  2.2075
  404MOL0     H53309   2.525  -0.376  12.287 -1.0304  1.4453 -1.3981
  404MOL0     H53310   2.262  -0.025  11.529 -0.7717  0.2161  1.7497
  404MOL0     H53311   2.336   0.137  11.363 -0.7108 -1.6451 -2.0801
  404MOL0     H53312   2.518   0.397  11.148 -0.6758  0.0107 -1.6595
  404MOL0     H53313   2.582   0.587  10.995  0.3694  0.8765 -1.6142
  404MOL0     H53314   3.495   1.287   9.815  0.5711  1.8605  3.2841
  404MOL0     H53315   3.591   1.178   9.621  0.0061  0.1653  0.5044
  404MOL0     H53316   3.891   1.168   9.274 -1.7204  1.0902 -0.9856
  404MOL0     H53317   3.949   1.011   9.105  0.2226  2.3445 -1.7932
  404MOL0     H53318   3.904   0.758   9.004 -0.7613  0.6400  1.9796
  404MOL0     H53319   3.913   0.897   8.887 -1.4462 -0.6838 -2.7187
  404MOL0     H53320   3.785   0.762   8.722  0.5271  0.0667 -0.8528
  404MOL0     H53321   3.933   0.676   8.773 -0.6764  0.3093 -1.2532
  404MOL0     H53322   3.657   0.638   8.908 -0.4207  0.0276 -0.6890
  404MOL0     H53323   3.808   0.543   8.922  2.4667  0.8190 -0.4154
  404MOL0     H53324   3.614   0.439   8.798  0.3396 -0.2164  0.1024
  404MOL0     H53325   3.615   0.558   8.679 -1.2573 -1.1678  1.8782
  404MOL0     H53326   3.946   0.286   8.607  0.1266 -0.2946  1.2860
  404MOL0     H53327   3.540   0.930   9.055  2.3910 -2.2401 -3.4785
  404MOL0     H53328   3.472   1.110   9.212  0.4920  3.0964  0.1561
  405MOL0     O53329   3.681   3.280   0.469 -0.5731  0.4616  0.4680
  405MOL0     C53330   3.599   3.351   0.532  0.0946  0.6440 -0.4435
  405MOL0     O53331   3.629   3.451   0.617 -0.1127 -0.2962  0.4744
  405MOL0     C53332   3.752   3.496   0.648 -0.9443 -0.4601  0.5774
  405MOL0     C53333   3.768   3.521   0.781 -0.0858 -0.3213  0.8720
  405MOL0     C53334   3.874   3.590   0.839 -0.4771  0.3751 -0.4694
  405MOL0     C53335   3.973   3.640   0.759  0.1554 -0.1527  0.2435
  405MOL0     O53336   4.084   3.707   0.806 -0.1704 -0.4254  0.1272
  405MOL0     C53337   4.093   3.846   0.786 -0.2362  0.5925 -0.7479
  405MOL0     C53338   4.212   3.903   0.864 -0.7274  0.2027 -0.6491
  405MOL0     C53339   4.244   4.057   0.839 -0.0698  0.2549 -0.4125
  405MOL0     C53340   4.276   4.089   0.688 -0.1503  0.8120 -0.5417
  405MOL0     C53341   4.324   4.230   0.675 -0.0832 -0.1384 -0.1962
  405MOL0     C53342   4.409   4.265   0.552 -0.5440  0.1823  0.6853
  405MOL0     C53343   4.323   4.250   0.419 -0.6559 -0.0493 -0.3775
  405MOL0     C53344   4.413   4.187   0.309 -0.5613 -0.4937  0.4599
  405MOL0     N53345   4.529   4.269   0.282  0.4512  0.5867  0.3450
  405MOL0     C53346   4.655   4.259   0.336 -0.8665  0.4814 -0.1242
  405MOL0     C53347   4.734   4.336   0.256 -0.3493 -0.1859 -0.6007
  405MOL0     C53348   4.877   4.364   0.278 -0.3641  1.0642  0.4873
  405MOL0     C53349   4.963   4.256   0.210  0.6073  0.3567  0.4981
  405MOL0     C53350   5.107   4.270   0.233  0.2028  0.3387 -0.1210
  405MOL0     C53351   5.168   4.132   0.274 -0.1415 -0.4370 -0.1345
  405MOL0     O53352   5.304   4.169   0.292 -0.2747 -0.2520  0.5976
  405MOL0     C53353   5.397   4.069   0.312 -0.7392 -0.4485  0.0888
  405MOL0     C53354   5.366   3.931   0.318 -0.9691  0.5132 -0.6456
  405MOL0     C53355   5.470   3.836   0.344 -1.0583 -0.8658  0.8171
  405MOL0     C53356   5.605   3.875   0.348  0.3659  0.6308 -0.0816
  405MOL0     C53357   5.704   3.768   0.348 -0.9301 -0.1442  0.7354
  405MOL0     O53358   5.834   3.817   0.327 -0.3151 -0.4550 -0.6486
  405MOL0     C53359   5.941   3.730   0.331  0.3183  0.7083  0.3509
  405MOL0     C53360   5.940   3.620   0.422  0.6219  0.0688  0.3372
  405MOL0     C53361   6.056   3.541   0.429  0.2369 -0.3161 -0.3712
  405MOL0     C53362   6.169   3.583   0.363  0.7302 -0.1634  0.7094
  405MOL0     O53363   6.283   3.531   0.408 -0.2509 -0.2816  0.9821
  405MOL0     C53364   6.408   3.559   0.335  0.2751  0.0859 -1.3443
  405MOL0     C53365   6.530   3.508   0.424 -0.2410  0.3285 -0.5820
  405MOL0     C53366   6.668   3.553   0.372 -0.9872 -0.2179  0.0519
  405MOL0     C53367   6.778   3.457   0.408  0.3101  0.0446 -0.4749
  405MOL0     C53368   6.904   3.482   0.323  0.6620  0.8674  0.4910
  405MOL0     C53369   7.029   3.401   0.371  0.9186  0.2873 -0.2088
  405MOL0     C53370   7.140   3.377   0.274  1.0045  0.0421  0.5072
  405MOL0     C53371   7.222   3.507   0.260 -0.9981 -0.4890  0.7586
  405MOL0    Cl53372   7.359   3.496   0.377  0.3689  0.0465  0.2042
  405MOL0     C53373   6.165   3.694   0.273  0.4056  0.1959  0.1049
  405MOL0     C53374   6.054   3.768   0.251  0.4445 -0.6073  0.6623
  405MOL0     O53375   5.675   3.648   0.350  0.6154 -0.5838  0.5773
  405MOL0     C53376   5.628   4.007   0.349  0.6583 -0.6615 -0.3320
  405MOL0     C53377   5.532   4.100   0.336  0.5305 -0.3657 -0.0970
  405MOL0     N53378   4.657   4.389   0.155  0.4911  0.7894 -0.5961
  405MOL0     N53379   4.533   4.348   0.167 -0.2676  1.1750 -0.9765
  405MOL0     C53380   3.965   3.617   0.616  0.3866 -0.1185 -0.5091
  405MOL0     C53381   3.849   3.547   0.563  0.5339 -0.8365  0.6703
  405MOL0     C53382   3.449   3.342   0.511 -0.0972 -0.0835 -0.8288
  405MOL0     C53383   3.420   3.258   0.400  0.9031 -0.3112  0.0487
  405MOL0     C53384   3.281   3.245   0.374 -0.3100  0.6780  0.9814
  405MOL0     C53385   3.177   3.300   0.454 -0.4427 -0.7208  0.0482
  405MOL0     O53386   3.043   3.291   0.423 -0.4293 -0.2170  0.6670
  405MOL0     C53387   3.010   3.215   0.306  0.2487  0.2106 -0.0212
  405MOL0     C53388   2.861   3.211   0.278 -0.4749  0.1472  1.0359
  405MOL0     C53389   2.815   3.135   0.151 -1.0647  0.2833 -0.5571
  405MOL0     C53390   2.659   3.142   0.147 -0.5921 -1.2044 -0.2273
  405MOL0     C53391   2.607   3.063   0.038 -0.1346  0.0555  0.2320
  405MOL0     C53392   2.559   2.997  -0.056 -1.2913 -0.7903  0.8231
  405MOL0     C53393   3.218   3.390   0.561  0.3506 -0.5733  0.1019
  405MOL0     C53394   3.356   3.410   0.597  0.7934 -0.1169  0.1156
  405MOL0     H53395   3.692   3.484   0.849  1.6688  0.0239  3.1191
  405MOL0     H53396   3.883   3.602   0.947 -1.2065 -0.6073 -0.2878
  405MOL0     H53397   3.999   3.893   0.817 -1.0501 -0.6999 -1.1787
  405MOL0     H53398   4.107   3.867   0.680  3.0365  1.3997 -0.2786
  405MOL0     H53399   4.295   3.837   0.836  1.6376  1.8540  1.9667
  405MOL0     H53400   4.189   3.874   0.967 -1.0451  1.4133 -0.3714
  405MOL0     H53401   4.318   4.102   0.906 -1.0509  2.6493 -0.8328
  405MOL0     H53402   4.158   4.114   0.874  1.2866  0.8694  2.2237
  405MOL0     H53403   4.352   4.019   0.654 -0.2334  0.9256 -0.9618
  405MOL0     H53404   4.190   4.073   0.622 -0.5596 -0.4918  0.2751
  405MOL0     H53405   4.404   4.251   0.747 -0.2941 -1.1324  0.3474
  405MOL0     H53406   4.242   4.299   0.694 -0.1141 -0.5788  1.4406
  405MOL0     H53407   4.498   4.202   0.556 -1.2753 -0.8158  2.0228
  405MOL0     H53408   4.444   4.367   0.562 -0.6834  0.1350  1.7494
  405MOL0     H53409   4.238   4.182   0.418 -0.4746 -0.3771 -3.6540
  405MOL0     H53410   4.300   4.354   0.394  2.6963  1.4558  1.9635
  405MOL0     H53411   4.353   4.177   0.219  1.4159  1.5306 -1.2018
  405MOL0     H53412   4.439   4.083   0.331  1.2523  0.2297  2.0319
  405MOL0     H53413   4.682   4.203   0.425 -0.9841  1.8502  0.8024
  405MOL0     H53414   4.895   4.356   0.386  1.4159 -0.6360  0.1118
  405MOL0     H53415   4.901   4.462   0.236 -1.3662  1.6462  1.2241
  405MOL0     H53416   4.941   4.257   0.103 -3.2952  0.5220  1.1374
  405MOL0     H53417   4.932   4.157   0.247  0.5114 -0.0835 -0.7282
  405MOL0     H53418   5.149   4.321   0.145  1.5433  2.3335  1.5885
  405MOL0     H53419   5.136   4.340   0.312  2.3212  0.2326 -0.7218
  405MOL0     H53420   5.166   4.063   0.189 -2.7488 -0.7566  0.0983
  405MOL0     H53421   5.115   4.087   0.358 -0.1145 -2.1802 -1.0064
  405MOL0     H53422   5.267   3.887   0.316 -0.1373 -1.4514 -1.9344
  405MOL0     H53423   5.431   3.736   0.330 -2.5478 -0.4374  1.6465
  405MOL0     H53424   5.856   3.584   0.481  0.8097 -0.6851  0.1586
  405MOL0     H53425   6.072   3.452   0.490 -2.0529  3.0108  6.0258
  405MOL0     H53426   6.415   3.667   0.323 -1.4007  0.2346 -1.1760
  405MOL0     H53427   6.405   3.514   0.236  2.8079 -0.1454 -1.3899
  405MOL0     H53428   6.518   3.400   0.426 -2.1687  0.4989  1.7750
  405MOL0     H53429   6.527   3.536   0.530  1.9403 -0.3688 -0.3003
  405MOL0     H53430   6.688   3.659   0.389 -1.4882 -0.2815  1.1362
  405MOL0     H53431   6.668   3.543   0.263  1.4540 -2.3499  0.1406
  405MOL0     H53432   6.790   3.465   0.516 -0.0645 -0.7370 -0.3666
  405MOL0     H53433   6.743   3.355   0.388  0.3894 -0.7251  2.7031
  405MOL0     H53434   6.930   3.588   0.323  0.4454  0.9452 -0.7784
  405MOL0     H53435   6.879   3.459   0.219 -1.1579 -0.7079  1.2141
  405MOL0     H53436   6.992   3.306   0.409  2.3320  0.0859  0.7394
  405MOL0     H53437   7.077   3.449   0.457  1.9971  0.5574 -0.9417
  405MOL0     H53438   7.195   3.286   0.301 -1.1185 -1.1624  1.0293
  405MOL0     H53439   7.095   3.352   0.177  0.6199  1.3014  0.3425
  405MOL0     H53440   7.165   3.594   0.294 -2.8005 -1.3406  0.0443
  405MOL0     H53441   7.258   3.515   0.157  2.3734 -0.0558  1.8632
  405MOL0     H53442   6.256   3.714   0.216  0.2119  0.2091 -0.1985
  405MOL0     H53443   6.040   3.853   0.185 -1.6990 -0.7833  0.8198
  405MOL0     H53444   5.730   4.044   0.350  0.5174 -0.2700  0.2530
  405MOL0     H53445   5.569   4.202   0.336  2.3839 -0.9876 -1.1027
  405MOL0     H53446   4.037   3.663   0.549 -0.6938  0.3346 -1.3855
  405MOL0     H53447   3.845   3.541   0.454 -0.3829  0.2262  0.6253
  405MOL0     H53448   3.497   3.213   0.340  1.8073  0.7914  0.3403
  405MOL0     H53449   3.267   3.179   0.289 -0.2161  1.3605  0.4254
  405MOL0     H53450   3.043   3.112   0.317  0.4303  0.1032 -1.3885
  405MOL0     H53451   3.060   3.256   0.218  2.0659 -0.5971  0.5739
  405MOL0     H53452   2.823   3.175   0.374  0.7078  1.0120  1.8542
  405MOL0     H53453   2.827   3.314   0.266 -1.5771 -0.2369  0.6933
  405MOL0     H53454   2.850   3.032   0.142 -1.0804  0.2059  0.2014
  405MOL0     H53455   2.847   3.196   0.066  0.6365  1.0988  0.6177
  405MOL0     H53456   2.607   3.112   0.238 -0.8706 -1.7947 -0.5749
  405MOL0     H53457   2.641   3.249   0.137 -0.5187 -0.9770  1.7753
  405MOL0     H53458   2.545   2.947  -0.149 -1.2270 -2.7504  1.8273
  405MOL0     H53459   3.149   3.454   0.615  1.0270  0.7948 -0.5943
  405MOL0     H53460   3.365   3.468   0.689  1.6788 -2.4595  1.5884
  406MOL0     O53461   5.062  10.707   5.377 -0.3591  0.2856 -0.1201
  406MOL0     C53462   5.010  10.673   5.483  0.1454 -0.4780 -0.7219
  406MOL0     O53463   5.072  10.620   5.590  0.1275 -0.3882  0.0416
  406MOL0     C53464   5.205  10.630   5.612 -0.4664  0.3639  0.0780
  406MOL0     C53465   5.249  10.537   5.709  0.0078 -0.1314 -0.5102
  406MOL0     C53466   5.382  10.532   5.744 -0.0066  0.4864 -0.5847
  406MOL0     C53467   5.482  10.602   5.678  0.0118  0.1019 -0.0531
  406MOL0     O53468   5.611  10.585   5.710  0.2023  0.3675  0.6486
  406MOL0     C53469   5.699  10.527   5.608  0.5763  0.7847  0.0405
  406MOL0     C53470   5.834  10.490   5.662  0.3036 -0.8696 -0.9076
  406MOL0     C53471   5.843  10.360   5.736  0.3465  0.9803  1.0600
  406MOL0     C53472   5.746  10.335   5.849  0.2165  0.0440  1.4699
  406MOL0     C53473   5.773  10.432   5.961 -0.8710  0.4626  0.0763
  406MOL0     C53474   5.674  10.443   6.081 -0.9730  0.5137 -0.1756
  406MOL0     C53475   5.534  10.461   6.045 -0.0422 -0.2275 -0.4199
  406MOL0     C53476   5.447  10.478   6.165  1.3586 -0.7202 -0.9857
  406MOL0     N53477   5.304  10.461   6.139  0.9984 -1.0296 -1.0093
  406MOL0     C53478   5.235  10.520   6.040 -0.6716 -0.7927  0.3385
  406MOL0     C53479   5.113  10.471   6.036 -0.3083  0.3053 -0.6346
  406MOL0     C53480   4.995  10.521   5.961  0.8649 -0.5051  0.5236
  406MOL0     C53481   4.869  10.532   6.047 -0.7739 -0.5187 -0.2882
  406MOL0     C53482   4.761  10.589   5.966 -0.0471  0.0221  0.1825
  406MOL0     C53483   4.629  10.598   6.037  1.2317 -0.9834 -0.0463
  406MOL0     O53484   4.530  10.646   5.947  0.0798  0.6867 -0.3139
  406MOL0     C53485   4.395  10.640   5.988 -0.4979  0.8402  0.8419
  406MOL0     C53486   4.300  10.710   5.910  0.0959  0.5296 -0.6218
  406MOL0     C53487   4.168  10.711   5.938  0.1404 -0.5728  0.5737
  406MOL0     C53488   4.114  10.650   6.057 -0.5878  0.2268 -0.4961
  406MOL0     C53489   3.969  10.642   6.090  1.0048 -1.0328  0.3760
  406MOL0     O53490   3.942  10.572   6.201  0.1613 -0.1153  1.1727
  406MOL0     C53491   3.812  10.546   6.229  0.1311 -0.1561  0.0471
  406MOL0     C53492   3.732  10.468   6.134 -0.5154  0.5984 -0.2130
  406MOL0     C53493   3.604  10.412   6.179 -0.4779  0.5211 -0.4322
  406MOL0     C53494   3.561  10.428   6.317  0.1396  0.6122  0.7267
  406MOL0     O53495   3.433  10.389   6.339  0.2454  0.1476 -0.8522
  406MOL0     C53496   3.365  10.416   6.460 -0.7006  0.5533  0.3246
  406MOL0     C53497   3.221  10.378   6.466  0.4252 -0.0842  0.3563
  406MOL0     C53498   3.148  10.450   6.346  0.1143 -0.3205 -1.1403
  406MOL0     C53499   2.992  10.447   6.382 -0.2958  0.4223 -0.3138
  406MOL0     C53500   2.937  10.553   6.477 -0.7288  0.2860 -0.2881
  406MOL0     C53501   2.790  10.562   6.466  0.1531  0.2071 -1.1976
  406MOL0     C53502   2.745  10.599   6.314  0.5875  0.2835 -0.6535
  406MOL0     C53503   2.597  10.644   6.321  0.4524 -0.5779 -0.0036
  406MOL0    Cl53504   2.486  10.518   6.381 -0.0272 -0.3637 -0.1492
  406MOL0     C53505   3.646  10.500   6.403 -0.3488  0.0070 -0.2956
  406MOL0     C53506   3.770  10.561   6.358  0.0695  0.1253 -0.1279
  406MOL0     O53507   3.887  10.713   6.024 -0.3238 -0.2223 -0.3788
  406MOL0     C53508   4.212  10.607   6.150 -0.5218 -0.6781  0.6722
  406MOL0     C53509   4.348  10.593   6.111  0.5249  0.8118  0.3845
  406MOL0     N53510   5.115  10.363   6.128  0.2838  0.1912 -0.8265
  406MOL0     N53511   5.223  10.364   6.199 -0.2128 -0.9186  0.1336
  406MOL0     C53512   5.433  10.691   5.582  0.1413 -0.4489 -1.0014
  406MOL0     C53513   5.301  10.712   5.554 -0.4642  0.0819  0.4957
  406MOL0     C53514   4.865  10.682   5.501  0.2926 -0.0001 -0.2237
  406MOL0     C53515   4.799  10.774   5.413 -0.0048  1.4868 -0.1226
  406MOL0     C53516   4.661  10.780   5.416  0.1933  0.2661  0.0511
  406MOL0     C53517   4.582  10.696   5.492  0.4158  0.4950 -0.5664
  406MOL0     O53518   4.447  10.708   5.488  0.5377 -1.0256 -0.0600
  406MOL0     C53519   4.368  10.598   5.550 -0.4336  0.5705 -0.2856
  406MOL0     C53520   4.220  10.609   5.510 -0.0957 -0.2457 -0.9260
  406MOL0     C53521   4.125  10.509   5.579  0.6903  0.4650  0.6132
  406MOL0     C53522   3.998  10.566   5.627 -0.7924 -0.1318 -0.2113
  406MOL0     C53523   3.917  10.637   5.526  0.0367 -0.6183 -0.1921
  406MOL0     C53524   3.855  10.712   5.454 -0.6416 -0.0304  0.7345
  406MOL0     C53525   4.649  10.601   5.574 -0.5659 -0.0513 -0.7861
  406MOL0     C53526   4.792  10.593   5.589  0.3148  0.3289  0.6874
  406MOL0     H53527   5.171  10.477   5.754 -0.4593  2.1613  2.0263
  406MOL0     H53528   5.407  10.455   5.817 -0.5378 -0.2176 -1.1290
  406MOL0     H53529   5.703  10.614   5.541 -2.3438  2.9872  2.4735
  406MOL0     H53530   5.654  10.438   5.562  0.2851  1.4449 -1.0058
  406MOL0     H53531   5.866  10.575   5.723  1.1525 -0.5195 -1.7968
  406MOL0     H53532   5.896  10.498   5.571 -1.1963 -0.4855 -1.9299
  406MOL0     H53533   5.945  10.322   5.749  0.4157  1.2642  1.3664
  406MOL0     H53534   5.803  10.293   5.660 -0.1561  2.0290  0.3778
  406MOL0     H53535   5.643  10.347   5.814  1.1194  2.6887 -0.6536
  406MOL0     H53536   5.751  10.230   5.880  2.7578 -0.0936  0.7838
  406MOL0     H53537   5.793  10.534   5.926 -1.2108  1.5037  2.6884
  406MOL0     H53538   5.867  10.398   6.006 -1.5349  0.2781  1.3796
  406MOL0     H53539   5.700  10.526   6.148  0.5674 -1.4074  1.7384
  406MOL0     H53540   5.690  10.358   6.148  0.1333 -0.2292 -1.3304
  406MOL0     H53541   5.526  10.551   5.985  1.7819  0.6928  0.6327
  406MOL0     H53542   5.505  10.367   5.996  2.0505 -0.3478 -1.5152
  406MOL0     H53543   5.458  10.577   6.210  2.9816 -1.9763  1.5742
  406MOL0     H53544   5.473  10.409   6.245 -1.6404 -0.5714  0.2589
  406MOL0     H53545   5.265  10.608   5.984 -1.1126 -0.3861  0.7312
  406MOL0     H53546   4.967  10.451   5.882 -1.7207 -1.1345  1.8961
  406MOL0     H53547   5.016  10.617   5.912 -3.0448  0.1891 -0.0772
  406MOL0     H53548   4.891  10.604   6.127 -2.6075  0.9926 -1.0702
  406MOL0     H53549   4.838  10.436   6.088  0.4053 -0.4444  0.8713
  406MOL0     H53550   4.784  10.686   5.920  0.4179 -0.2351 -0.1280
  406MOL0     H53551   4.749  10.519   5.883  2.7189 -1.2629  0.7526
  406MOL0     H53552   4.636  10.667   6.122  0.4261  3.9919 -3.5655
  406MOL0     H53553   4.592  10.500   6.067 -2.0103 -0.0189 -0.4693
  406MOL0     H53554   4.329  10.751   5.814  2.8735 -1.8292 -0.9362
  406MOL0     H53555   4.107  10.780   5.882  2.8188  0.8558 -0.8020
  406MOL0     H53556   3.783  10.433   6.045 -1.2399 -2.5468  0.4929
  406MOL0     H53557   3.550  10.357   6.102  1.9134  0.8655 -2.4891
  406MOL0     H53558   3.360  10.524   6.472  1.9546  0.4194  5.8106
  406MOL0     H53559   3.421  10.376   6.545 -1.2135  0.5014  0.6421
  406MOL0     H53560   3.169  10.406   6.558 -2.3349 -1.7539 -0.5631
  406MOL0     H53561   3.215  10.269   6.459  1.9015 -0.4480  3.2074
  406MOL0     H53562   3.157  10.400   6.249 -4.3996 -1.4909 -1.2220
  406MOL0     H53563   3.174  10.554   6.327 -2.8519  0.7109 -0.0821
  406MOL0     H53564   2.952  10.464   6.282  2.4921  3.4109 -1.1077
  406MOL0     H53565   2.960  10.347   6.411 -4.0337  0.1031 -4.5715
  406MOL0     H53566   2.975  10.651   6.447  1.8499 -0.8365 -0.9262
  406MOL0     H53567   2.981  10.526   6.573  2.6397 -3.3172 -2.5527
  406MOL0     H53568   2.750  10.635   6.537  1.8033 -0.2133  0.2213
  406MOL0     H53569   2.746  10.466   6.495 -0.8448  0.3139 -2.2821
  406MOL0     H53570   2.801  10.686   6.281  0.5648 -0.2233 -2.1205
  406MOL0     H53571   2.760  10.517   6.243 -0.2731  0.3626 -0.9425
  406MOL0     H53572   2.570  10.675   6.220  0.5325  0.0508  0.1613
  406MOL0     H53573   2.590  10.734   6.383  0.2191  1.7929 -3.2099
  406MOL0     H53574   3.615  10.511   6.507 -0.7953 -2.1740 -0.1485
  406MOL0     H53575   3.838  10.604   6.430 -0.6663 -1.4804  1.6309
  406MOL0     H53576   4.180  10.581   6.251  0.5373 -2.4740  0.5976
  406MOL0     H53577   4.426  10.550   6.173  0.4814  0.0903 -0.0420
  406MOL0     H53578   5.513  10.748   5.535  1.4327 -2.2139 -1.0166
  406MOL0     H53579   5.271  10.779   5.474 -1.5720  0.4842  1.2337
  406MOL0     H53580   4.853  10.845   5.352 -0.0497  0.8637 -0.9003
  406MOL0     H53581   4.620  10.864   5.361 -0.7159  0.0273  0.3444
  406MOL0     H53582   4.388  10.598   5.657 -0.4922 -1.9666 -0.2117
  406MOL0     H53583   4.395  10.497   5.515 -1.5211  0.2018 -0.1032
  406MOL0     H53584   4.197  10.712   5.539 -0.3495  0.2896 -2.8594
  406MOL0     H53585   4.210  10.597   5.401  0.6305 -1.1503 -0.9080
  406MOL0     H53586   4.174  10.473   5.670 -1.7726  1.3487  2.3855
  406MOL0     H53587   4.114  10.428   5.507  0.4722  0.6081  0.4879
  406MOL0     H53588   3.934  10.488   5.670  0.0199 -0.7080 -0.0286
  406MOL0     H53589   4.019  10.634   5.711 -2.6922 -1.3891  1.3887
  406MOL0     H53590   3.794  10.768   5.387 -1.4449 -1.2831  0.3844
  406MOL0     H53591   4.589  10.541   5.642  2.4214 -0.8852  1.3358
  406MOL0     H53592   4.841  10.514   5.646 -0.5712  0.1208  1.1696
  407MOL0     O53593  11.387   6.825   4.256  1.3072  0.2149 -0.3252
  407MOL0     C53594  11.404   6.942   4.289  0.0789 -0.1635  0.0092
  407MOL0     O53595  11.326   7.020   4.374  0.7172 -0.4200  0.6507
  407MOL0     C53596  11.234   6.962   4.456 -0.3690  0.4813 -0.0800
  407MOL0     C53597  11.117   6.899   4.407  0.5026 -0.6028  0.0997
  407MOL0     C53598  11.009   6.879   4.491  0.0716 -0.4581 -0.4485
  407MOL0     C53599  11.013   6.913   4.624  0.2687 -0.4266  0.1901
  407MOL0     O53600  10.900   6.894   4.705 -0.0725 -0.6758 -0.1579
  407MOL0     C53601  10.829   7.023   4.698  0.1265  0.1906 -0.3412
  407MOL0     C53602  10.713   7.014   4.790  0.1794 -1.1336 -0.0241
  407MOL0     C53603  10.605   6.905   4.768 -0.0437 -0.4829  0.0657
  407MOL0     C53604  10.502   6.900   4.876  0.6643  0.5967  0.7977
  407MOL0     C53605  10.370   6.847   4.819  0.0086 -0.5033 -0.5352
  407MOL0     C53606  10.242   6.931   4.879 -0.3895 -0.2110  1.1127
  407MOL0     C53607  10.236   7.068   4.807 -0.2838 -0.3077 -0.2509
  407MOL0     C53608  10.154   7.172   4.885 -0.2510  0.1946  0.0445
  407MOL0     N53609  10.014   7.128   4.879 -0.1872 -0.7974 -0.1602
  407MOL0     C53610   9.952   7.056   4.983  0.2429 -0.7105 -0.1456
  407MOL0     C53611   9.826   7.040   4.939  1.0651 -1.2946 -0.3195
  407MOL0     C53612   9.734   6.984   5.034  0.2147  0.4588 -0.1288
  407MOL0     C53613   9.700   7.088   5.141 -1.0058 -0.0033  0.9075
  407MOL0     C53614   9.606   7.204   5.093  0.1275 -0.3721 -0.1927
  407MOL0     C53615   9.549   7.279   5.212  0.0507 -0.4257 -0.0522
  407MOL0     O53616   9.468   7.379   5.158 -0.5193 -0.7474 -0.4318
  407MOL0     C53617   9.341   7.352   5.106 -0.6834 -0.4808 -0.0257
  407MOL0     C53618   9.276   7.461   5.044 -0.1749 -0.1490  0.0884
  407MOL0     C53619   9.153   7.460   4.981  0.7995  1.0320  0.1906
  407MOL0     C53620   9.089   7.340   4.976  0.4851 -0.4243  0.5934
  407MOL0     C53621   8.949   7.325   4.924  0.3373 -0.2036  0.0078
  407MOL0     O53622   8.878   7.440   4.907 -0.1514 -0.6488  0.4624
  407MOL0     C53623   8.737   7.440   4.880  0.3758  1.2176 -0.3868
  407MOL0     C53624   8.681   7.570   4.889 -0.6446  0.9316  0.0246
  407MOL0     C53625   8.551   7.592   4.873  0.2271 -0.4435 -0.0003
  407MOL0     C53626   8.462   7.496   4.833 -0.5153 -0.8736  0.3342
  407MOL0     O53627   8.329   7.526   4.807  0.5475 -0.1780  0.6179
  407MOL0     C53628   8.302   7.639   4.733 -0.4773 -0.7191  0.7320
  407MOL0     C53629   8.310   7.604   4.578  0.0190 -0.3906 -0.3708
  407MOL0     C53630   8.209   7.496   4.533 -0.0421  0.0073  0.3720
  407MOL0     C53631   8.261   7.431   4.393 -0.6747 -1.1178 -0.4682
  407MOL0     C53632   8.210   7.516   4.271  0.6816  0.2525  1.3382
  407MOL0     C53633   8.301   7.509   4.142 -0.5504  0.4795 -0.1399
  407MOL0     C53634   8.250   7.595   4.027  0.0650  0.3502  0.0692
  407MOL0     C53635   8.362   7.656   3.943  0.8951  1.0349  1.1000
  407MOL0    Cl53636   8.447   7.790   4.028  0.3157 -0.1734  0.0495
  407MOL0     C53637   8.513   7.362   4.816  0.3178  0.3066  0.6482
  407MOL0     C53638   8.649   7.333   4.847 -0.5221 -0.6267 -0.8022
  407MOL0     O53639   8.909   7.213   4.907 -0.5202 -0.2517  0.0453
  407MOL0     C53640   9.143   7.224   5.038 -0.2305  0.0078  0.3114
  407MOL0     C53641   9.268   7.232   5.108 -0.9939 -0.7440 -0.7028
  407MOL0     N53642   9.800   7.105   4.824  0.0355 -0.3467  0.2505
  407MOL0     N53643   9.920   7.137   4.781 -0.0595 -0.0629  0.3741
  407MOL0     C53644  11.131   6.963   4.682 -1.0230  1.0670  0.5906
  407MOL0     C53645  11.243   6.986   4.598  0.0601 -0.1621 -0.3464
  407MOL0     C53646  11.510   7.019   4.222 -0.4756  0.2017  0.4877
  407MOL0     C53647  11.613   6.969   4.132 -0.4013  0.0489 -0.2283
  407MOL0     C53648  11.716   7.049   4.076  0.3980 -0.7484  0.2657
  407MOL0     C53649  11.722   7.189   4.091  0.2778 -1.0299  0.2430
  407MOL0     O53650  11.809   7.280   4.033  0.6817  0.2008 -0.5630
  407MOL0     C53651  11.903   7.217   3.945 -0.4843 -0.2074 -0.5650
  407MOL0     C53652  12.001   7.325   3.886  0.1759  0.5564  0.2296
  407MOL0     C53653  12.048   7.418   4.005  0.9316 -0.0358  0.4536
  407MOL0     C53654  12.193   7.455   4.004 -0.6745 -0.2562 -0.5155
  407MOL0     C53655  12.222   7.551   4.113 -0.4048  0.2692  0.8540
  407MOL0     C53656  12.253   7.625   4.208 -0.3731  0.1312 -0.0639
  407MOL0     C53657  11.634   7.237   4.189  0.1556  0.9362 -0.0030
  407MOL0     C53658  11.525   7.163   4.256 -0.2901 -0.3046  0.9529
  407MOL0     H53659  11.117   6.877   4.301 -3.1158 -1.6493  0.1882
  407MOL0     H53660  10.915   6.837   4.455  0.3431  0.5104 -2.3893
  407MOL0     H53661  10.789   7.028   4.596 -0.5623  1.1449 -0.0399
  407MOL0     H53662  10.888   7.112   4.721 -1.3018  1.4294 -1.2439
  407MOL0     H53663  10.667   7.112   4.808 -2.0896 -2.1680  0.1392
  407MOL0     H53664  10.763   6.997   4.886  2.4259 -1.9469 -1.2481
  407MOL0     H53665  10.638   6.804   4.743 -2.5011 -1.4112  0.3016
  407MOL0     H53666  10.554   6.934   4.676 -0.9462  0.4343  0.8208
  407MOL0     H53667  10.529   6.832   4.957  2.2864  1.6019  1.1436
  407MOL0     H53668  10.508   7.004   4.910  2.1223 -0.1195  2.8880
  407MOL0     H53669  10.363   6.742   4.848  2.4264  0.1328  3.0098
  407MOL0     H53670  10.369   6.855   4.709 -0.9500  1.6259 -0.4096
  407MOL0     H53671  10.266   6.945   4.985 -0.0176 -0.6630  1.0920
  407MOL0     H53672  10.143   6.888   4.863 -0.1221 -0.2471 -0.6165
  407MOL0     H53673  10.331   7.116   4.783 -0.1222  0.8907  2.4012
  407MOL0     H53674  10.186   7.051   4.712  3.3665 -0.4476 -2.3252
  407MOL0     H53675  10.171   7.276   4.857  0.7086 -0.0405 -0.2901
  407MOL0     H53676  10.177   7.151   4.990  1.0048  1.0340 -0.0513
  407MOL0     H53677   9.982   7.024   5.083  2.0023 -0.3901 -0.5392
  407MOL0     H53678   9.785   6.896   5.076  3.9341  0.9685 -3.0404
  407MOL0     H53679   9.655   6.941   4.973  1.0203 -4.9761  2.0547
  407MOL0     H53680   9.797   7.125   5.176 -0.6455 -0.5172  0.4679
  407MOL0     H53681   9.663   7.029   5.225  5.0999 -0.2382  4.0174
  407MOL0     H53682   9.651   7.279   5.028 -1.1588 -1.3267 -2.2689
  407MOL0     H53683   9.527   7.153   5.037  0.6744  0.2807 -1.5992
  407MOL0     H53684   9.629   7.309   5.280 -1.3248 -1.4058  2.1058
  407MOL0     H53685   9.489   7.207   5.269  0.5306 -1.8162 -1.2405
  407MOL0     H53686   9.329   7.553   5.067  2.3925 -1.7638  1.0270
  407MOL0     H53687   9.105   7.548   4.940  0.5409  2.7037  3.7394
  407MOL0     H53688   8.740   7.659   4.912 -3.5671  2.3037  3.1011
  407MOL0     H53689   8.508   7.689   4.895 -0.0464 -0.7328  0.7912
  407MOL0     H53690   8.378   7.717   4.743  1.4079 -1.9035 -2.6831
  407MOL0     H53691   8.206   7.682   4.763 -0.4228  0.5937 -0.8412
  407MOL0     H53692   8.408   7.563   4.551  0.9739  0.9500  0.8611
  407MOL0     H53693   8.286   7.690   4.516 -0.2964  1.6851  2.4420
  407MOL0     H53694   8.113   7.546   4.520 -1.1055 -1.7105  1.2152
  407MOL0     H53695   8.187   7.416   4.604  0.3753 -0.9303 -0.5262
  407MOL0     H53696   8.371   7.428   4.396 -0.6161  0.2938  2.6312
  407MOL0     H53697   8.230   7.326   4.396  3.0214 -2.3360 -0.1087
  407MOL0     H53698   8.197   7.621   4.301 -2.1039  0.3636  0.0254
  407MOL0     H53699   8.114   7.477   4.238  1.4020 -2.6874  2.4201
  407MOL0     H53700   8.309   7.401   4.123  0.6008  0.1125  2.0305
  407MOL0     H53701   8.396   7.548   4.180 -1.3931  0.9050  1.6138
  407MOL0     H53702   8.182   7.536   3.966 -0.3827  1.3122 -0.3860
  407MOL0     H53703   8.197   7.674   4.082  0.5607  0.1028  0.9250
  407MOL0     H53704   8.317   7.698   3.853  1.2086  1.3880  1.1058
  407MOL0     H53705   8.428   7.576   3.910 -0.0594  0.2803  0.9754
  407MOL0     H53706   8.444   7.283   4.792 -0.8578  1.0665  1.4401
  407MOL0     H53707   8.678   7.230   4.830 -1.4362 -0.6420 -2.4055
  407MOL0     H53708   9.082   7.135   5.047 -1.0811  0.7428  2.7524
  407MOL0     H53709   9.315   7.149   5.159  1.4108  2.0085  1.9902
  407MOL0     H53710  11.136   6.993   4.786  3.3999  2.5523  0.1783
  407MOL0     H53711  11.336   7.035   4.627  0.0111  0.1686 -0.7326
  407MOL0     H53712  11.607   6.862   4.115 -0.0257 -0.6245  3.0939
  407MOL0     H53713  11.769   6.992   4.000 -0.8081 -0.5606 -0.7371
  407MOL0     H53714  11.855   7.169   3.859  0.8000 -1.0275 -0.8407
  407MOL0     H53715  11.964   7.149   4.005 -1.3322 -0.7537 -0.3029
  407MOL0     H53716  12.092   7.276   3.849 -1.2151 -1.7975 -0.3364
  407MOL0     H53717  11.948   7.380   3.809 -3.1596 -3.1264 -0.4702
  407MOL0     H53718  12.030   7.358   4.095 -1.4095  0.2028  0.2171
  407MOL0     H53719  11.974   7.499   4.005  0.4589 -0.4598  1.1246
  407MOL0     H53720  12.253   7.364   4.007  1.5720  1.1804  1.7796
  407MOL0     H53721  12.212   7.508   3.910  1.0513  0.1042  0.0015
  407MOL0     H53722  12.302   7.697   4.271 -0.7924  1.2467 -0.9785
  407MOL0     H53723  11.647   7.334   4.235  1.1303  1.1194 -0.6193
  407MOL0     H53724  11.455   7.214   4.320  0.1623  1.2866  0.2406
  408MOL0     O53725   0.845  11.004   6.143 -0.4232  0.6999  0.1320
  408MOL0     C53726   0.806  10.951   6.252 -0.5099  0.3092  0.2994
  408MOL0     O53727   0.706  10.863   6.270  0.0201 -0.0974  0.9279
  408MOL0     C53728   0.618  10.832   6.167  0.6918 -0.4171 -0.7620
  408MOL0     C53729   0.550  10.709   6.168  0.3569  0.4267 -0.5206
  408MOL0     C53730   0.461  10.673   6.071  0.6148  0.2213  0.6809
  408MOL0     C53731   0.425  10.764   5.969 -0.0923  0.1470 -0.0271
  408MOL0     O53732   0.337  10.743   5.861 -0.2179  0.2531 -0.1512
  408MOL0     C53733   0.239  10.646   5.870 -0.5127  0.2165 -0.4621
  408MOL0     C53734   0.151  10.663   5.746 -0.6039  0.3936  0.9000
  408MOL0     C53735   0.058  10.540   5.732 -1.0337  1.2013  0.3106
  408MOL0     C53736   0.124  10.423   5.659  0.3624  0.0152 -0.0246
  408MOL0     C53737   0.108  10.294   5.745 -0.2710 -0.6028 -0.6995
  408MOL0     C53738   0.207  10.186   5.703  0.8767  0.0156 -0.3087
  408MOL0     C53739   0.174  10.050   5.756 -0.1361 -0.0325 -0.3543
  408MOL0     C53740   0.190  10.038   5.909 -0.2889  0.3119  0.3690
  408MOL0     N53741   0.321  10.076   5.955 -0.2908  0.1151  0.6995
  408MOL0     C53742   0.418   9.979   5.958 -0.4982  0.4762 -1.2477
  408MOL0     C53743   0.518  10.034   6.032 -0.0836  0.8834 -0.3809
  408MOL0     C53744   0.648   9.967   6.058 -0.9637  0.2328 -0.4171
  408MOL0     C53745   0.623   9.877   6.185 -1.0532  1.0350 -0.6238
  408MOL0     C53746   0.569   9.737   6.151 -0.5012 -0.5835  0.1538
  408MOL0     C53747   0.678   9.628   6.192  0.0185  0.5191 -0.4228
  408MOL0     O53748   0.620   9.496   6.179 -0.0169  0.0672  0.5714
  408MOL0     C53749   0.517   9.444   6.263 -0.9405 -1.1256  0.5334
  408MOL0     C53750   0.465   9.509   6.374  0.0657 -0.4200 -0.4798
  408MOL0     C53751   0.395   9.435   6.468  0.7060  0.3681  0.1708
  408MOL0     C53752   0.354   9.303   6.441 -0.4493 -0.2471 -0.1795
  408MOL0     C53753   0.262   9.231   6.528 -0.5038 -0.5054 -0.1125
  408MOL0     O53754   0.238   9.099   6.509  0.3570  0.0300  0.0571
  408MOL0     C53755   0.167   9.021   6.591 -0.0637  0.2860  0.0179
  408MOL0     C53756   0.043   9.059   6.643  0.2466  0.0786 -1.4686
  408MOL0     C53757  -0.040   8.964   6.720 -0.0261  0.8883  0.5674
  408MOL0     C53758   0.003   8.836   6.746 -0.2658  0.2935 -0.7645
  408MOL0     O53759  -0.050   8.744   6.831  0.4341  0.3241  0.5293
  408MOL0     C53760  -0.170   8.778   6.894 -0.0160  0.5184  0.1123
  408MOL0     C53761  -0.245   8.664   6.962  0.1499  0.2741  0.4519
  408MOL0     C53762  -0.255   8.537   6.871 -0.4524  1.2724 -0.0545
  408MOL0     C53763  -0.318   8.414   6.936  0.7800 -0.6405  0.2724
  408MOL0     C53764  -0.333   8.302   6.828  1.2080  1.4567 -0.3740
  408MOL0     C53765  -0.406   8.176   6.890 -0.1845 -1.0076 -0.3949
  408MOL0     C53766  -0.412   8.075   6.779 -0.2278  0.2240  0.8074
  408MOL0     C53767  -0.514   7.977   6.820  0.0956  0.5034  0.3330
  408MOL0    Cl53768  -0.508   7.822   6.719  0.0672  0.3624 -0.1842
  408MOL0     C53769   0.137   8.800   6.694  0.0557 -0.6863  0.3174
  408MOL0     C53770   0.212   8.889   6.612 -0.0385 -0.3490  0.2105
  408MOL0     O53771   0.197   9.313   6.597  0.7082  0.3621 -0.1849
  408MOL0     C53772   0.391   9.249   6.320 -0.9572  0.4020  0.1386
  408MOL0     C53773   0.471   9.322   6.230 -0.3715  0.8722  0.2062
  408MOL0     N53774   0.489  10.167   6.059  0.1211 -0.2873  0.1659
  408MOL0     N53775   0.369  10.193   6.012 -0.4075 -0.9037 -0.8250
  408MOL0     C53776   0.478  10.894   5.978 -0.5355  0.6107  0.4384
  408MOL0     C53777   0.569  10.925   6.076  0.2690 -0.9340 -0.9849
  408MOL0     C53778   0.870  11.017   6.369 -0.7924  0.3747 -0.2779
  408MOL0     C53779   1.004  11.070   6.358  1.3735  0.0162 -0.0964
  408MOL0     C53780   1.067  11.113   6.468  0.6454  0.0456 -0.3030
  408MOL0     C53781   1.005  11.097   6.596 -0.5365  0.4008  0.3273
  408MOL0     O53782   1.075  11.144   6.697  0.1521  0.6943  0.9612
  408MOL0     C53783   1.030  11.144   6.835 -1.0492  0.9098 -0.2251
  408MOL0     C53784   1.031  11.296   6.879 -0.2424 -0.3812  0.2527
  408MOL0     C53785   0.960  11.327   7.003 -0.0504 -0.2302 -0.3940
  408MOL0     C53786   1.010  11.256   7.127  0.0354  0.5628  0.0564
  408MOL0     C53787   0.985  11.337   7.244  0.3093  0.4720  0.0987
  408MOL0     C53788   0.954  11.390   7.348 -0.2072  0.3796 -0.5462
  408MOL0     C53789   0.881  11.034   6.611  0.6557  0.6734 -0.1654
  408MOL0     C53790   0.814  10.997   6.495 -0.7631 -0.3661 -0.0624
  408MOL0     H53791   0.576  10.634   6.243  4.7375 -2.9335 -4.7771
  408MOL0     H53792   0.405  10.580   6.080 -0.9737  1.2316  1.7814
  408MOL0     H53793   0.183  10.655   5.963  1.6426 -1.4276  1.0841
  408MOL0     H53794   0.279  10.544   5.877 -1.2810 -0.0488  0.1625
  408MOL0     H53795   0.210  10.666   5.654 -3.7498  1.3925 -1.2780
  408MOL0     H53796   0.097  10.756   5.767  1.8883  2.1323  0.0320
  408MOL0     H53797  -0.035  10.568   5.682 -2.1107 -0.0621  1.5475
  408MOL0     H53798   0.030  10.506   5.832  3.5508  0.2423  1.4942
  408MOL0     H53799   0.071  10.410   5.565 -2.9099  0.7913  1.5703
  408MOL0     H53800   0.231  10.438   5.639  0.0756 -1.0691 -2.9386
  408MOL0     H53801   0.000  10.275   5.754 -0.3829  0.1981 -0.2000
  408MOL0     H53802   0.140  10.315   5.847 -1.1374 -0.6453 -0.4070
  408MOL0     H53803   0.308  10.208   5.738 -0.5514  3.7460  2.0457
  408MOL0     H53804   0.210  10.174   5.594 -0.8591 -0.9483 -0.3019
  408MOL0     H53805   0.074  10.028   5.718 -0.1289  1.3932 -1.2534
  408MOL0     H53806   0.240   9.973   5.716  0.5532  0.0895  0.5057
  408MOL0     H53807   0.155   9.938   5.936  1.4056  0.0423  1.7649
  408MOL0     H53808   0.124  10.111   5.958  1.5555  2.1339  0.2941
  408MOL0     H53809   0.429   9.874   5.933  3.9866 -0.2601  2.4057
  408MOL0     H53810   0.721  10.046   6.082 -2.1768  1.7590 -1.5662
  408MOL0     H53811   0.700   9.907   5.983  0.6480 -1.0176  1.5721
  408MOL0     H53812   0.550   9.932   6.246 -1.2746  2.1633 -1.8693
  408MOL0     H53813   0.721   9.861   6.230 -1.2337  0.4927 -0.4140
  408MOL0     H53814   0.481   9.726   6.215 -1.1410 -4.2165 -1.1048
  408MOL0     H53815   0.545   9.717   6.046  3.2164  0.3161 -1.0093
  408MOL0     H53816   0.720   9.652   6.290 -1.3551  2.4433 -0.2560
  408MOL0     H53817   0.760   9.630   6.120 -1.7849  1.4786 -2.5740
  408MOL0     H53818   0.493   9.613   6.390  1.1080 -0.9403  1.2591
  408MOL0     H53819   0.351   9.479   6.556  2.5686  0.2264  1.2279
  408MOL0     H53820   0.014   9.162   6.625 -2.6482 -0.8253 -2.4941
  408MOL0     H53821  -0.139   9.000   6.746 -0.1146 -0.5404  2.4012
  408MOL0     H53822  -0.239   8.800   6.812 -2.1285 -4.1001  0.3498
  408MOL0     H53823  -0.147   8.862   6.961  2.3254  1.6411 -1.9582
  408MOL0     H53824  -0.345   8.696   6.993 -0.0195  0.9373 -0.6872
  408MOL0     H53825  -0.194   8.638   7.055  1.6981 -1.8096 -0.8949
  408MOL0     H53826  -0.156   8.512   6.831 -0.6768  2.3901 -1.3936
  408MOL0     H53827  -0.317   8.557   6.783  0.6448 -0.7690 -1.3684
  408MOL0     H53828  -0.247   8.379   7.011  2.7340  1.0306 -0.6935
  408MOL0     H53829  -0.412   8.448   6.981  0.1355  0.6464 -1.8989
  408MOL0     H53830  -0.234   8.276   6.789  0.6365  1.0280 -1.6229
  408MOL0     H53831  -0.390   8.331   6.739  1.8261  0.8854 -0.9769
  408MOL0     H53832  -0.508   8.212   6.908 -0.4428 -0.5715 -2.4700
  408MOL0     H53833  -0.362   8.134   6.980 -0.2414  0.1515  0.1971
  408MOL0     H53834  -0.447   8.123   6.687  1.3059  1.7569  0.9671
  408MOL0     H53835  -0.318   8.020   6.768 -1.9296 -2.9848  1.1442
  408MOL0     H53836  -0.611   8.024   6.800 -1.0322 -2.4733 -1.8654
  408MOL0     H53837  -0.508   7.952   6.927  1.9789 -2.1073 -0.3025
  408MOL0     H53838   0.180   8.702   6.714  0.0354 -0.8617 -0.4769
  408MOL0     H53839   0.312   8.861   6.580  0.1468  0.1615  0.3216
  408MOL0     H53840   0.372   9.143   6.304  3.2988 -0.5272  0.0220
  408MOL0     H53841   0.503   9.277   6.137 -1.0632  1.9971 -0.5949
  408MOL0     H53842   0.447  10.971   5.908 -0.4144  0.2904  0.0282
  408MOL0     H53843   0.614  11.023   6.072 -2.1383  0.5348  2.5998
  408MOL0     H53844   1.041  11.074   6.256 -2.2351  0.3327 -1.5436
  408MOL0     H53845   1.157  11.169   6.442  0.7828 -0.3651 -0.7257
  408MOL0     H53846   1.113  11.093   6.885  1.9375  6.2765  1.0253
  408MOL0     H53847   0.933  11.098   6.858 -0.7389  0.7853  0.8416
  408MOL0     H53848   1.134  11.330   6.889 -0.3757 -0.0561  0.5700
  408MOL0     H53849   0.987  11.352   6.796 -2.7093 -3.0907 -0.4386
  408MOL0     H53850   0.853  11.305   7.003  0.0031 -0.4895 -0.6096
  408MOL0     H53851   0.984  11.432   7.022 -0.8588 -0.3254  1.3323
  408MOL0     H53852   0.956  11.163   7.144  0.7171  0.6270  3.1963
  408MOL0     H53853   1.119  11.250   7.114  0.0665  0.1882  0.4523
  408MOL0     H53854   0.913  11.431   7.438 -0.6564  1.0738 -1.0552
  408MOL0     H53855   0.830  11.003   6.702 -1.6618 -1.3228 -1.9961
  408MOL0     H53856   0.719  10.944   6.499 -2.2802  1.9586 -2.1798
  409MOL0     O53857   8.170   2.379   2.179  0.3418  0.8519 -0.2840
  409MOL0     C53858   8.208   2.262   2.172  0.1371  0.5833 -0.3317
  409MOL0     O53859   8.206   2.160   2.270  0.1955 -0.5676 -0.3481
  409MOL0     C53860   8.126   2.177   2.385 -0.7330 -0.1750 -0.0587
  409MOL0     C53861   8.170   2.106   2.501 -0.4343  0.0090 -0.9012
  409MOL0     C53862   8.097   2.107   2.616 -0.2026 -0.4801  0.6213
  409MOL0     C53863   7.978   2.176   2.627  0.0166  0.8896 -0.0230
  409MOL0     O53864   7.907   2.169   2.742  0.2779  0.2264  1.2351
  409MOL0     C53865   7.932   2.082   2.855 -0.3104  0.1493  0.5195
  409MOL0     C53866   7.898   1.931   2.822 -0.9680 -0.0973 -0.5374
  409MOL0     C53867   7.754   1.895   2.855  0.0288  0.2979 -0.1842
  409MOL0     C53868   7.651   1.948   2.758  0.1078  0.7036 -0.6087
  409MOL0     C53869   7.509   1.971   2.819  0.1524 -0.0798  0.5064
  409MOL0     C53870   7.455   1.839   2.887 -0.5706 -0.1014  0.6487
  409MOL0     C53871   7.310   1.866   2.932 -0.4787  0.3570 -0.6929
  409MOL0     C53872   7.262   1.774   3.054 -0.2088 -0.0607 -0.5762
  409MOL0     N53873   7.126   1.801   3.096  0.2855 -0.2318 -0.0630
  409MOL0     C53874   7.048   1.702   3.144 -0.9504  0.2129 -0.3488
  409MOL0     C53875   6.919   1.751   3.154 -0.9395  0.9211  0.2752
  409MOL0     C53876   6.812   1.689   3.228  0.2250  0.5158 -1.0849
  409MOL0     C53877   6.709   1.620   3.148  0.2945  0.2258 -0.5572
  409MOL0     C53878   6.617   1.725   3.075  0.7123 -0.4533 -1.1799
  409MOL0     C53879   6.482   1.665   3.035  0.1569 -0.6806 -0.2917
  409MOL0     O53880   6.490   1.529   2.987  0.2725 -0.0531 -0.6168
  409MOL0     C53881   6.444   1.510   2.864 -0.3698  0.5359  0.8306
  409MOL0     C53882   6.512   1.432   2.783  0.2943 -0.1591  0.0055
  409MOL0     C53883   6.457   1.386   2.667 -0.7938 -0.0698  1.1101
  409MOL0     C53884   6.321   1.407   2.637  0.8333 -0.3114 -0.4758
  409MOL0     C53885   6.263   1.351   2.509  0.7188  0.2572  0.0999
  409MOL0     O53886   6.324   1.251   2.433  0.2844  0.4855  0.4921
  409MOL0     C53887   6.258   1.206   2.315 -0.4981  0.5273  0.1568
  409MOL0     C53888   6.112   1.183   2.295 -0.7746 -0.2018  0.5480
  409MOL0     C53889   6.061   1.141   2.171 -0.2401  0.1044  0.4235
  409MOL0     C53890   6.151   1.127   2.055 -0.6898 -0.9902  0.0489
  409MOL0     O53891   6.089   1.095   1.938 -0.3463  0.0549  0.1603
  409MOL0     C53892   6.171   1.011   1.854  0.5514  0.1134  1.1270
  409MOL0     C53893   6.081   0.892   1.821  0.2684  0.2511 -0.5590
  409MOL0     C53894   5.994   0.908   1.701 -0.5911  0.2024 -0.4371
  409MOL0     C53895   5.971   0.765   1.633 -1.0425 -1.5570  0.4595
  409MOL0     C53896   5.898   0.673   1.726  0.5603  0.1120  0.4093
  409MOL0     C53897   5.870   0.545   1.651  0.1077 -0.4596 -0.0417
  409MOL0     C53898   5.771   0.445   1.730 -0.2880 -0.4826  0.1648
  409MOL0     C53899   5.624   0.496   1.721 -0.6117  0.2410  0.1673
  409MOL0    Cl53900   5.513   0.392   1.820 -0.6994  0.4034  0.0012
  409MOL0     C53901   6.288   1.145   2.072  0.8447 -0.3722  0.6485
  409MOL0     C53902   6.338   1.181   2.201 -1.0109  0.4315  0.4572
  409MOL0     O53903   6.161   1.405   2.473 -1.0268 -0.8482  0.7041
  409MOL0     C53904   6.250   1.495   2.721  0.8970  0.8166 -1.1288
  409MOL0     C53905   6.315   1.552   2.831  0.3220 -0.0085 -0.6568
  409MOL0     N53906   6.928   1.879   3.098  0.9861 -0.4089 -0.3626
  409MOL0     N53907   7.049   1.908   3.068 -0.0165  0.0334  0.2382
  409MOL0     C53908   7.927   2.236   2.514 -0.7972 -0.6323 -0.0829
  409MOL0     C53909   8.000   2.234   2.393  0.1002  0.5614 -0.3218
  409MOL0     C53910   8.264   2.227   2.038 -0.2616 -0.7376 -1.2920
  409MOL0     C53911   8.280   2.096   1.988 -0.3138  0.6255  1.1441
  409MOL0     C53912   8.329   2.070   1.853 -0.0562  0.6042 -0.6230
  409MOL0     C53913   8.367   2.175   1.770 -0.0674 -0.1086  0.6726
  409MOL0     O53914   8.415   2.145   1.641  0.2129  0.1200  0.4748
  409MOL0     C53915   8.530   2.224   1.606  0.0339 -0.4255 -0.2737
  409MOL0     C53916   8.654   2.140   1.636  0.2980 -1.1489  0.0546
  409MOL0     C53917   8.701   2.049   1.531  0.7958  0.2362 -0.0767
  409MOL0     C53918   8.835   1.984   1.564 -0.9277  0.2468  0.0832
  409MOL0     C53919   8.844   1.920   1.702  0.5953 -0.4837  0.3444
  409MOL0     C53920   8.849   1.865   1.815  0.5578  0.1193  1.0379
  409MOL0     C53921   8.350   2.305   1.826  0.9127  0.6327  0.6363
  409MOL0     C53922   8.290   2.334   1.947  0.5338  0.5412  0.6014
  409MOL0     H53923   8.267   2.058   2.490  0.5220  2.0193 -1.7213
  409MOL0     H53924   8.129   2.045   2.699  0.1361 -2.2076 -0.7584
  409MOL0     H53925   7.853   2.111   2.924 -0.8710 -5.2454  2.5782
  409MOL0     H53926   8.035   2.106   2.883 -0.2995  0.2525  0.3929
  409MOL0     H53927   7.969   1.875   2.884  0.0060 -1.8019 -3.0434
  409MOL0     H53928   7.921   1.908   2.718  2.2022 -1.2713  0.3331
  409MOL0     H53929   7.740   1.940   2.954  0.0651 -1.8822  0.8708
  409MOL0     H53930   7.747   1.786   2.859 -1.4544  0.4100  1.4586
  409MOL0     H53931   7.681   2.043   2.714  0.3723 -0.3737 -2.8566
  409MOL0     H53932   7.644   1.875   2.677 -1.6843  0.0366  0.1138
  409MOL0     H53933   7.446   2.002   2.736  0.7817 -0.8511 -0.2863
  409MOL0     H53934   7.506   2.062   2.879  0.0584  0.4131 -0.2357
  409MOL0     H53935   7.520   1.813   2.972  2.1470  1.5900 -0.7583
  409MOL0     H53936   7.456   1.762   2.809 -0.3527  1.0441 -0.5098
  409MOL0     H53937   7.288   1.965   2.972  0.5807  0.7420 -1.0267
  409MOL0     H53938   7.254   1.860   2.838  1.5069 -2.6552 -1.8626
  409MOL0     H53939   7.336   1.783   3.134 -2.3700  1.2715  1.4184
  409MOL0     H53940   7.260   1.669   3.022  2.8198 -0.1511 -0.7243
  409MOL0     H53941   7.078   1.603   3.177 -0.9720 -0.0893 -1.1976
  409MOL0     H53942   6.771   1.769   3.290  0.8830  0.5841 -0.7234
  409MOL0     H53943   6.843   1.607   3.293 -2.0243 -0.3630 -1.0450
  409MOL0     H53944   6.652   1.567   3.225  1.7943  1.4960  1.5307
  409MOL0     H53945   6.752   1.555   3.072 -2.7440 -0.3981 -1.9234
  409MOL0     H53946   6.617   1.825   3.121  2.3221 -0.1981 -1.6665
  409MOL0     H53947   6.664   1.751   2.980  1.4502 -2.4041 -1.3928
  409MOL0     H53948   6.446   1.734   2.958  3.0300 -0.4780 -1.5774
  409MOL0     H53949   6.405   1.668   3.113  1.4480  3.5197  1.1140
  409MOL0     H53950   6.615   1.407   2.806  0.8862  2.8859  1.2106
  409MOL0     H53951   6.526   1.336   2.600 -0.2314  0.3071  1.3944
  409MOL0     H53952   6.042   1.219   2.369 -1.5712  4.2740 -1.9876
  409MOL0     H53953   5.953   1.133   2.170 -0.1137 -2.2136  1.0102
  409MOL0     H53954   6.264   0.978   1.902  1.8496  1.0226 -0.6152
  409MOL0     H53955   6.201   1.073   1.768 -0.6548 -0.0987  0.5377
  409MOL0     H53956   6.013   0.872   1.905 -2.0381 -0.5623 -2.4835
  409MOL0     H53957   6.133   0.797   1.811 -1.5647 -0.8302 -0.3682
  409MOL0     H53958   6.044   0.978   1.633 -2.2994  2.2432  0.3052
  409MOL0     H53959   5.898   0.948   1.734 -1.6872 -2.4060 -0.2480
  409MOL0     H53960   5.911   0.775   1.542 -0.8578 -2.3996  0.2295
  409MOL0     H53961   6.071   0.729   1.604 -1.9005 -2.6587 -1.3428
  409MOL0     H53962   5.804   0.719   1.756  1.7494  4.3016 -1.4092
  409MOL0     H53963   5.954   0.655   1.818  0.0417  1.1581  0.9525
  409MOL0     H53964   5.959   0.484   1.633 -0.9124 -1.1075 -3.4692
  409MOL0     H53965   5.820   0.569   1.557 -1.9859 -1.5854  0.7307
  409MOL0     H53966   5.778   0.347   1.683 -1.2686 -0.9104  0.8681
  409MOL0     H53967   5.803   0.442   1.835  0.0440 -2.6605  0.0282
  409MOL0     H53968   5.583   0.498   1.619  1.9740 -2.9731 -1.1122
  409MOL0     H53969   5.624   0.594   1.769 -0.3678  0.0949  0.4667
  409MOL0     H53970   6.354   1.155   1.987 -0.8881  3.6701 -0.4602
  409MOL0     H53971   6.445   1.194   2.196 -1.0450  0.2882 -1.4996
  409MOL0     H53972   6.143   1.501   2.705  0.9604  1.4328 -1.3382
  409MOL0     H53973   6.257   1.615   2.898 -1.0682 -1.6212 -0.2509
  409MOL0     H53974   7.836   2.288   2.543  0.5847  0.7792  2.0505
  409MOL0     H53975   7.949   2.292   2.316 -2.9359  0.7397  1.6273
  409MOL0     H53976   8.269   2.007   2.050 -0.4279 -3.1808 -3.6573
  409MOL0     H53977   8.324   1.966   1.821 -2.3691 -0.2197  1.9685
  409MOL0     H53978   8.557   2.319   1.652  3.5967 -1.7890  0.8424
  409MOL0     H53979   8.510   2.240   1.500 -0.5330 -2.7309 -0.5751
  409MOL0     H53980   8.729   2.219   1.646 -1.5878  0.9251 -1.2778
  409MOL0     H53981   8.643   2.098   1.737  1.7745  0.7007  1.0365
  409MOL0     H53982   8.719   2.094   1.433  1.7715 -0.0646 -0.0469
  409MOL0     H53983   8.629   1.968   1.518 -0.2181  0.7948  1.8028
  409MOL0     H53984   8.871   1.915   1.487  1.4064  3.1772 -1.6447
  409MOL0     H53985   8.912   2.062   1.563  0.0749 -0.6576  1.3605
  409MOL0     H53986   8.854   1.805   1.904  2.3501 -2.0947 -0.4443
  409MOL0     H53987   8.379   2.399   1.780  0.0953  0.4363 -0.3024
  409MOL0     H53988   8.263   2.436   1.970 -1.9693 -0.6640  3.8357
  410MOL0     O53989   5.242   2.099   4.950 -0.5273  0.4537  0.2187
  410MOL0     C53990   5.210   2.156   4.845  1.1141 -0.0954  0.6212
  410MOL0     O53991   5.294   2.192   4.739 -0.4836 -0.0727  0.1401
  410MOL0     C53992   5.433   2.188   4.761 -1.2673  0.6735  0.0202
  410MOL0     C53993   5.506   2.224   4.880  0.3899  0.0945  1.2806
  410MOL0     C53994   5.645   2.210   4.892 -0.0331  0.6540 -0.1347
  410MOL0     C53995   5.720   2.173   4.785 -0.3152  0.9649  0.0677
  410MOL0     O53996   5.858   2.174   4.808  0.3969  0.1578  0.3880
  410MOL0     C53997   5.916   2.072   4.890  0.3438 -0.1137 -0.4791
  410MOL0     C53998   5.884   1.928   4.843 -0.2166  0.1029  0.5950
  410MOL0     C53999   5.924   1.914   4.688 -0.0132  0.5273 -0.5907
  410MOL0     C54000   6.075   1.946   4.657 -0.2691  0.4102  1.2247
  410MOL0     C54001   6.162   1.825   4.686 -0.7965 -0.2330 -0.7627
  410MOL0     C54002   6.311   1.877   4.690 -0.3368 -0.0044  0.7509
  410MOL0     C54003   6.355   1.912   4.830 -0.7089  0.1881 -0.3513
  410MOL0     C54004   6.492   1.969   4.833  0.2578 -0.3267  0.5852
  410MOL0     N54005   6.531   2.014   4.958  1.1472 -0.2315 -1.1081
  410MOL0     C54006   6.537   1.930   5.070 -0.6840 -0.7308 -0.3343
  410MOL0     C54007   6.557   2.023   5.169 -0.3042  0.6386 -0.2003
  410MOL0     C54008   6.583   1.980   5.319 -0.0341 -0.2818  0.4010
  410MOL0     C54009   6.729   1.980   5.345 -0.5387 -0.1583  0.1106
  410MOL0     C54010   6.761   1.956   5.492  0.5454  0.4887 -0.4291
  410MOL0     C54011   6.898   1.995   5.533  0.2906  0.7805  1.1011
  410MOL0     O54012   6.987   1.881   5.531 -0.1087 -0.4461 -0.8747
  410MOL0     C54013   7.122   1.890   5.544  0.4709  0.0394  0.1043
  410MOL0     C54014   7.185   2.003   5.601 -0.0498 -0.2268 -0.3509
  410MOL0     C54015   7.328   1.998   5.631  0.7892  0.1836  1.1228
  410MOL0     C54016   7.400   1.882   5.608 -0.7861 -0.0600  0.1121
  410MOL0     C54017   7.541   1.876   5.643 -0.0632 -0.6755  0.5259
  410MOL0     O54018   7.596   1.756   5.634 -0.1605 -0.1062 -0.3716
  410MOL0     C54019   7.732   1.741   5.641 -0.2783  0.9658  0.3814
  410MOL0     C54020   7.801   1.784   5.757 -0.3469  0.8173 -0.0607
  410MOL0     C54021   7.937   1.765   5.770  0.4091 -0.0018 -0.2096
  410MOL0     C54022   8.010   1.704   5.662 -0.1284 -0.2177  0.5383
  410MOL0     O54023   8.146   1.687   5.674  0.6057 -0.0288 -0.0728
  410MOL0     C54024   8.221   1.697   5.555  0.0379 -0.2099  0.7165
  410MOL0     C54025   8.371   1.690   5.579  0.4578 -0.1364 -0.7901
  410MOL0     C54026   8.415   1.823   5.651  0.8530  0.6094  0.2165
  410MOL0     C54027   8.545   1.820   5.723  0.9773  0.1389  0.7879
  410MOL0     C54028   8.587   1.966   5.758  0.2443 -0.2779 -0.1955
  410MOL0     C54029   8.705   1.961   5.863 -0.7409 -0.1857  0.4524
  410MOL0     C54030   8.798   2.091   5.856  0.5818  0.1350  1.2022
  410MOL0     C54031   8.899   2.078   5.968 -0.8333  0.7261 -0.5137
  410MOL0    Cl54032   9.038   1.971   5.919 -0.1626 -0.2824 -0.4095
  410MOL0     C54033   7.939   1.661   5.545 -1.0973 -0.1960 -0.3730
  410MOL0     C54034   7.802   1.679   5.537 -0.3202  0.5646  0.8278
  410MOL0     O54035   7.597   1.978   5.684  0.0147 -0.6200  0.3401
  410MOL0     C54036   7.336   1.776   5.540  0.6346  0.1834 -0.1810
  410MOL0     C54037   7.197   1.783   5.515  0.7037 -0.0179  1.1591
  410MOL0     N54038   6.555   2.149   5.117 -0.4151 -0.0394  1.4674
  410MOL0     N54039   6.549   2.145   4.987 -0.1147  0.4647  0.7861
  410MOL0     C54040   5.657   2.145   4.657 -0.6164 -0.8791 -0.7336
  410MOL0     C54041   5.513   2.150   4.645 -0.8584 -0.8304 -0.4478
  410MOL0     C54042   5.070   2.183   4.826 -0.3514  0.4862  0.1567
  410MOL0     C54043   5.025   2.234   4.705  0.4707 -0.1579 -0.1050
  410MOL0     C54044   4.888   2.271   4.693 -0.8648  0.2435  0.0408
  410MOL0     C54045   4.793   2.227   4.777 -0.3722  0.5712 -0.4192
  410MOL0     O54046   4.663   2.250   4.741  0.6271  0.0847  0.1618
  410MOL0     C54047   4.555   2.201   4.823 -0.5277 -0.1248 -0.0943
  410MOL0     C54048   4.526   2.295   4.935  0.3334 -0.6034 -0.2626
  410MOL0     C54049   4.411   2.387   4.913 -0.2620 -1.0425 -0.5657
  410MOL0     C54050   4.382   2.477   5.043 -0.8181  0.1587  0.4780
  410MOL0     C54051   4.284   2.576   5.001 -0.4844 -0.6004  0.2286
  410MOL0     C54052   4.202   2.657   4.964  0.4232 -0.2856 -0.3631
  410MOL0     C54053   4.845   2.170   4.894  0.6598  0.0539  0.4316
  410MOL0     C54054   4.977   2.164   4.931  0.4028  0.4796 -0.2491
  410MOL0     H54055   5.448   2.271   4.958 -1.6970 -4.9037  3.0949
  410MOL0     H54056   5.689   2.236   4.987 -0.2700 -0.4823  0.3103
  410MOL0     H54057   5.891   2.083   4.996 -1.9110 -2.0856 -0.7212
  410MOL0     H54058   6.026   2.077   4.887  0.6006 -1.4636  2.7431
  410MOL0     H54059   5.782   1.898   4.867 -0.9395  1.2988 -0.8363
  410MOL0     H54060   5.948   1.859   4.899 -0.2340 -0.7975 -0.4501
  410MOL0     H54061   5.858   1.973   4.624  0.0147  0.5301 -0.6172
  410MOL0     H54062   5.911   1.810   4.657 -0.1707  1.8514 -5.7795
  410MOL0     H54063   6.074   1.980   4.553 -0.6792  4.1618  2.2904
  410MOL0     H54064   6.118   2.036   4.702 -0.1447  1.8911 -1.6317
  410MOL0     H54065   6.145   1.752   4.607  0.5662  1.4622 -2.7415
  410MOL0     H54066   6.130   1.775   4.778  2.1324 -0.1941  0.4131
  410MOL0     H54067   6.313   1.957   4.616 -2.5057 -0.4458  0.1244
  410MOL0     H54068   6.379   1.802   4.649 -1.2703 -0.4736  0.0080
  410MOL0     H54069   6.289   1.985   4.876 -0.7076  1.2456 -1.9358
  410MOL0     H54070   6.362   1.821   4.891  2.3776  0.3074 -0.3492
  410MOL0     H54071   6.489   2.055   4.765 -1.8478  0.4849  1.6019
  410MOL0     H54072   6.555   1.894   4.785  0.9644  2.3686 -3.1037
  410MOL0     H54073   6.537   1.822   5.071 -3.0716 -0.7722  0.4156
  410MOL0     H54074   6.550   1.878   5.343  0.1702 -0.4067  0.1685
  410MOL0     H54075   6.533   2.055   5.380 -1.8069  3.3190 -4.7897
  410MOL0     H54076   6.773   2.075   5.314 -0.3303  1.0351  3.6531
  410MOL0     H54077   6.773   1.896   5.290  0.8955 -0.5525  1.7671
  410MOL0     H54078   6.695   2.013   5.559 -0.1980  0.6759 -1.3018
  410MOL0     H54079   6.752   1.851   5.519 -0.0035 -0.4315 -3.7766
  410MOL0     H54080   6.909   2.031   5.636 -1.7610 -0.8675  1.9515
  410MOL0     H54081   6.929   2.082   5.475  0.4281  0.4543  0.6848
  410MOL0     H54082   7.141   2.098   5.631  5.4524  1.4033  4.3182
  410MOL0     H54083   7.375   2.093   5.653  2.9533 -0.6238  0.3099
  410MOL0     H54084   7.745   1.825   5.841 -1.7949 -0.4899 -0.3290
  410MOL0     H54085   7.992   1.814   5.849 -3.2807 -0.0267  2.6284
  410MOL0     H54086   8.185   1.781   5.494 -0.2364  0.7129  2.0890
  410MOL0     H54087   8.203   1.607   5.495  1.0135  0.1324 -0.1159
  410MOL0     H54088   8.438   1.676   5.495  0.4685  0.8697 -0.9645
  410MOL0     H54089   8.389   1.606   5.647 -0.3429  0.7285  0.5597
  410MOL0     H54090   8.336   1.842   5.724 -1.8720 -0.2643 -2.2976
  410MOL0     H54091   8.412   1.904   5.578  0.6412  0.6872  0.3115
  410MOL0     H54092   8.533   1.753   5.809  1.3744  1.5693  1.9970
  410MOL0     H54093   8.615   1.786   5.645  1.3236  0.1559  1.0859
  410MOL0     H54094   8.503   2.016   5.806 -0.8248 -2.1801  0.0123
  410MOL0     H54095   8.617   2.014   5.664  1.0037 -2.9165 -1.4231
  410MOL0     H54096   8.757   1.864   5.867 -0.7286 -0.3639 -2.2525
  410MOL0     H54097   8.659   1.959   5.963  1.8217 -2.5990  1.7154
  410MOL0     H54098   8.855   2.098   5.763 -0.3689  1.8102  0.6948
  410MOL0     H54099   8.734   2.180   5.860 -1.4610 -1.2962  3.0724
  410MOL0     H54100   8.855   2.041   6.061  1.9155 -1.9431 -0.0955
  410MOL0     H54101   8.941   2.177   5.986  1.6243 -0.2668 -0.4170
  410MOL0     H54102   7.996   1.621   5.461  1.7893  1.5078  0.6649
  410MOL0     H54103   7.750   1.647   5.447  3.1878 -3.9059 -0.0093
  410MOL0     H54104   7.389   1.684   5.520 -0.1010 -0.1482 -0.6565
  410MOL0     H54105   7.128   1.716   5.465 -0.1159 -0.0547  2.3227
  410MOL0     H54106   5.719   2.127   4.570 -0.1200  1.2916 -0.8945
  410MOL0     H54107   5.477   2.129   4.545 -1.7710  1.9191 -0.7777
  410MOL0     H54108   5.090   2.248   4.619  1.1801  2.1323  0.7379
  410MOL0     H54109   4.855   2.304   4.595  0.7897  0.5760 -0.4482
  410MOL0     H54110   4.591   2.109   4.869 -0.9426 -0.4135 -0.3441
  410MOL0     H54111   4.469   2.177   4.760 -1.0882  2.7977 -0.5839
  410MOL0     H54112   4.490   2.243   5.024  0.1423 -1.6140 -0.9115
  410MOL0     H54113   4.618   2.350   4.955  0.2155 -0.2696 -0.6252
  410MOL0     H54114   4.322   2.329   4.887 -1.3017  0.4408 -0.4029
  410MOL0     H54115   4.442   2.454   4.833 -0.3078 -1.3467 -0.8421
  410MOL0     H54116   4.346   2.412   5.124 -2.2623 -2.2588 -1.9640
  410MOL0     H54117   4.467   2.539   5.073 -0.6611 -0.8558  2.2942
  410MOL0     H54118   4.155   2.747   4.929  4.0458  0.9887 -2.5291
  410MOL0     H54119   4.771   2.152   4.972 -0.5227 -0.8087 -0.8397
  410MOL0     H54120   4.999   2.119   5.027 -1.3538  1.1810  0.5210
  411MOL0     O54121   3.212   3.261   6.853  0.2438 -0.1000 -0.5653
  411MOL0     C54122   3.137   3.221   6.767  1.0250  0.6912  1.0010
  411MOL0     O54123   3.015   3.157   6.789 -0.0970  0.8193  0.2803
  411MOL0     C54124   2.995   3.119   6.921  0.2041 -0.3166 -0.7746
  411MOL0     C54125   2.912   3.191   7.008 -0.0649 -0.3379  0.5927
  411MOL0     C54126   2.886   3.153   7.138  1.2765 -0.0174  0.7801
  411MOL0     C54127   2.941   3.039   7.189  0.0865 -0.5898 -0.3789
  411MOL0     O54128   2.907   3.016   7.317 -0.2091 -0.0028  0.0092
  411MOL0     C54129   2.784   2.938   7.345 -1.5044 -0.5647  0.4982
  411MOL0     C54130   2.809   2.787   7.313 -0.0033 -0.6049  0.0128
  411MOL0     C54131   2.898   2.746   7.419  0.0067  0.5235 -0.4487
  411MOL0     C54132   2.972   2.624   7.378 -0.5651  0.3063 -0.1376
  411MOL0     C54133   3.025   2.547   7.493 -0.3188  0.2534  0.2352
  411MOL0     C54134   3.109   2.423   7.452 -0.6921 -0.9863 -0.4807
  411MOL0     C54135   3.119   2.322   7.561  0.6718 -0.1052 -0.2559
  411MOL0     C54136   3.179   2.184   7.521  0.1132  0.1458 -0.4300
  411MOL0     N54137   3.085   2.102   7.446 -0.1407  0.1041  0.5856
  411MOL0     C54138   3.129   2.033   7.331 -0.5583 -0.1046 -0.4739
  411MOL0     C54139   3.022   1.960   7.295 -0.3608 -0.1146 -0.9754
  411MOL0     C54140   3.013   1.865   7.178 -0.1971 -0.3292 -0.1445
  411MOL0     C54141   3.037   1.723   7.224  0.4345 -0.1709  0.8085
  411MOL0     C54142   3.176   1.707   7.279 -0.1154  0.2276 -0.3561
  411MOL0     C54143   3.183   1.587   7.379  0.1735 -0.1194  0.2974
  411MOL0     O54144   3.118   1.636   7.491 -0.9675 -0.1704 -0.8276
  411MOL0     C54145   3.089   1.552   7.599 -0.0934  0.4919  0.7144
  411MOL0     C54146   3.172   1.443   7.636 -0.0422  0.3788 -0.4821
  411MOL0     C54147   3.132   1.353   7.735  1.1703 -0.6192 -0.0425
  411MOL0     C54148   3.015   1.374   7.810  0.3335  0.5472  0.5952
  411MOL0     C54149   2.977   1.278   7.908 -0.5616 -0.1397  0.2398
  411MOL0     O54150   2.873   1.297   7.992  0.0619 -0.4933 -0.3889
  411MOL0     C54151   2.858   1.224   8.109  0.1308 -0.1392 -0.1887
  411MOL0     C54152   2.951   1.155   8.185  0.6481 -0.3784 -0.4992
  411MOL0     C54153   2.910   1.084   8.296  0.4939  0.2136 -0.4607
  411MOL0     C54154   2.773   1.065   8.329 -0.3412 -0.3420  0.4830
  411MOL0     O54155   2.724   0.974   8.417 -0.0758 -0.2221 -0.0391
  411MOL0     C54156   2.692   0.850   8.352 -0.5160 -0.3788  0.0289
  411MOL0     C54157   2.639   0.744   8.451  0.6199 -0.5389 -0.4371
  411MOL0     C54158   2.527   0.807   8.529 -0.0531  0.2876  0.6810
  411MOL0     C54159   2.474   0.695   8.615 -0.6057  1.1887 -0.3165
  411MOL0     C54160   2.337   0.721   8.676 -0.3982 -0.0654 -0.5637
  411MOL0     C54161   2.340   0.865   8.747  1.0282  0.1443 -0.0653
  411MOL0     C54162   2.239   0.847   8.860  0.0979  0.3960  0.9371
  411MOL0     C54163   2.283   0.765   8.981  0.5895  0.4133 -0.7172
  411MOL0    Cl54164   2.387   0.862   9.098  0.0989  0.3744 -0.0790
  411MOL0     C54165   2.682   1.143   8.265 -0.2295 -0.0025  0.5914
  411MOL0     C54166   2.727   1.210   8.143 -0.5541 -0.1605  0.0989
  411MOL0     O54167   3.048   1.179   7.911 -0.1067  0.1392 -0.3956
  411MOL0     C54168   2.931   1.482   7.769 -0.3072  0.1681 -0.4589
  411MOL0     C54169   2.963   1.563   7.664  1.0345  0.0776 -0.4869
  411MOL0     N54170   2.909   1.984   7.369  0.7343  0.5475 -0.0026
  411MOL0     N54171   2.953   2.062   7.468 -0.9020  0.2762  0.1308
  411MOL0     C54172   3.029   2.968   7.110 -0.8676 -0.7457  1.2926
  411MOL0     C54173   3.048   3.003   6.973  0.5263  0.4409  0.9030
  411MOL0     C54174   3.180   3.228   6.624 -0.0510  0.3614 -0.0663
  411MOL0     C54175   3.280   3.322   6.592  0.6617 -0.1378 -1.1984
  411MOL0     C54176   3.312   3.338   6.459  0.5680  0.4221  0.8560
  411MOL0     C54177   3.277   3.252   6.358  0.4926 -0.8895 -0.2035
  411MOL0     O54178   3.342   3.249   6.237  0.4414  0.5003  0.4716
  411MOL0     C54179   3.338   3.133   6.159  0.2059 -0.2711 -1.0025
  411MOL0     C54180   3.403   3.147   6.015  0.5418  0.0907 -0.6938
  411MOL0     C54181   3.550   3.200   6.038 -0.2572  0.1825  1.0151
  411MOL0     C54182   3.648   3.089   6.074 -0.1027 -0.0069 -0.2566
  411MOL0     C54183   3.776   3.152   6.080 -0.1786 -0.5131  1.2155
  411MOL0     C54184   3.883   3.213   6.069 -0.0709 -0.6470 -0.2605
  411MOL0     C54185   3.188   3.148   6.399 -0.4123 -0.4810 -0.0863
  411MOL0     C54186   3.128   3.145   6.525  0.5730 -0.0988  0.5210
  411MOL0     H54187   2.889   3.297   6.997 -0.1762 -0.4874 -0.8048
  411MOL0     H54188   2.806   3.210   7.184 -0.8113 -0.6413 -1.7803
  411MOL0     H54189   2.709   2.976   7.275 -0.7676  1.0082  0.5189
  411MOL0     H54190   2.760   2.939   7.451  0.6510 -0.9302  1.0426
  411MOL0     H54191   2.848   2.772   7.212 -2.4719 -0.5264 -1.0185
  411MOL0     H54192   2.716   2.729   7.317  0.6726 -1.6878  3.7297
  411MOL0     H54193   2.841   2.726   7.510 -2.0393 -0.5927 -1.8696
  411MOL0     H54194   2.974   2.821   7.441  0.3421  0.8945 -2.6684
  411MOL0     H54195   2.903   2.556   7.327 -0.5488 -1.2902  1.8265
  411MOL0     H54196   3.058   2.657   7.319 -0.3790 -1.5898 -1.0181
  411MOL0     H54197   2.944   2.512   7.558  0.3865 -2.8008 -0.3737
  411MOL0     H54198   3.085   2.617   7.552 -0.4462 -1.7224  2.9528
  411MOL0     H54199   3.206   2.460   7.418  0.6894 -0.6447  3.3606
  411MOL0     H54200   3.065   2.375   7.364 -0.5797 -0.0813 -1.0361
  411MOL0     H54201   3.199   2.361   7.625  0.0863 -0.1430  0.5246
  411MOL0     H54202   3.023   2.304   7.611  3.1657 -1.4247  4.7997
  411MOL0     H54203   3.212   2.141   7.616 -0.9829  1.5404  0.6183
  411MOL0     H54204   3.262   2.200   7.451 -2.2132  1.2235 -3.1292
  411MOL0     H54205   3.223   2.034   7.277 -1.0278  0.0373 -1.3070
  411MOL0     H54206   3.086   1.906   7.108 -2.7640  3.2916 -0.9725
  411MOL0     H54207   2.913   1.867   7.133  0.4569 -2.3418 -1.8446
  411MOL0     H54208   3.034   1.662   7.133  1.3038 -0.0278  0.6719
  411MOL0     H54209   2.965   1.702   7.303 -0.8238  0.1836 -0.2163
  411MOL0     H54210   3.258   1.690   7.209  1.4012 -1.4998  1.6981
  411MOL0     H54211   3.207   1.794   7.338 -0.0696  0.0322 -0.0874
  411MOL0     H54212   3.286   1.556   7.397  0.3449 -0.3415 -0.9226
  411MOL0     H54213   3.128   1.499   7.341 -2.1061  1.8622 -1.3092
  411MOL0     H54214   3.266   1.427   7.585  0.0165 -1.0490  0.0206
  411MOL0     H54215   3.209   1.277   7.745  2.3550  0.6991  1.1998
  411MOL0     H54216   3.055   1.166   8.157  1.9379  0.4107  3.8145
  411MOL0     H54217   2.981   1.035   8.361 -2.1419 -0.9808  1.7167
  411MOL0     H54218   2.792   0.810   8.335 -0.2626 -0.9983  2.6657
  411MOL0     H54219   2.636   0.864   8.259 -1.0969 -0.7603  0.3130
  411MOL0     H54220   2.710   0.705   8.523 -1.2051 -0.7084  1.3505
  411MOL0     H54221   2.607   0.661   8.387  0.2144 -1.1831  0.5924
  411MOL0     H54222   2.445   0.840   8.465 -0.3257  3.2826  2.4203
  411MOL0     H54223   2.563   0.897   8.578  0.3031  0.8853 -0.6299
  411MOL0     H54224   2.467   0.594   8.574 -0.7202  0.9613  0.2501
  411MOL0     H54225   2.549   0.685   8.693  1.2680 -0.2014 -2.1922
  411MOL0     H54226   2.307   0.640   8.744  1.2441 -2.5584 -2.5988
  411MOL0     H54227   2.274   0.714   8.587  0.2374 -0.6658 -0.9762
  411MOL0     H54228   2.308   0.936   8.671 -1.6907 -1.4139 -0.4940
  411MOL0     H54229   2.437   0.889   8.792  0.6736 -2.3613  2.2925
  411MOL0     H54230   2.200   0.947   8.883  0.6806  2.2018 -4.4596
  411MOL0     H54231   2.154   0.802   8.808  2.7418 -0.4026 -3.1750
  411MOL0     H54232   2.340   0.676   8.956  0.9404  0.4112  0.0392
  411MOL0     H54233   2.189   0.738   9.031 -0.7299  3.1096 -1.5307
  411MOL0     H54234   2.576   1.146   8.288 -0.2210  2.6213  0.6021
  411MOL0     H54235   2.664   1.265   8.074  0.4014  0.3053 -0.4140
  411MOL0     H54236   2.838   1.486   7.825  0.8316 -0.1976  1.5850
  411MOL0     H54237   2.900   1.643   7.626  2.3382  1.6224  0.4636
  411MOL0     H54238   3.081   2.879   7.145  1.5298 -0.1467 -0.4794
  411MOL0     H54239   3.110   2.951   6.901 -0.0909  3.7978 -2.4081
  411MOL0     H54240   3.327   3.396   6.657 -0.1796  0.1783 -0.9265
  411MOL0     H54241   3.386   3.413   6.432  1.2628  0.1165  1.8479
  411MOL0     H54242   3.236   3.095   6.146 -1.1705  2.9780 -0.5177
  411MOL0     H54243   3.382   3.053   6.219 -1.9859  0.8281  2.3502
  411MOL0     H54244   3.408   3.052   5.961 -0.9892 -0.8089  0.6412
  411MOL0     H54245   3.353   3.228   5.962 -1.8940 -0.0195  1.2755
  411MOL0     H54246   3.555   3.279   6.113 -1.9854  0.9950  0.3309
  411MOL0     H54247   3.579   3.248   5.944 -0.0735 -0.8675  0.5137
  411MOL0     H54248   3.627   3.039   6.169 -0.7147  0.1701 -0.2955
  411MOL0     H54249   3.644   3.016   5.992  2.1550  0.3937 -0.7868
  411MOL0     H54250   3.972   3.267   6.047 -0.9308  0.0921 -2.0746
  411MOL0     H54251   3.150   3.068   6.336 -3.7604 -0.3042  1.5173
  411MOL0     H54252   3.049   3.074   6.549  0.0317  0.3640  0.1427
  412MOL0     O54253   5.694  11.333   1.008  0.1251 -0.5363  0.3638
  412MOL0     C54254   5.790  11.264   1.034  0.5357  0.5927  0.0655
  412MOL0     O54255   5.811  11.190   1.148  0.3663  0.0138  0.2624
  412MOL0     C54256   5.711  11.184   1.242  0.9441 -0.6012  0.1607
  412MOL0     C54257   5.667  11.060   1.283 -0.3211  0.4330 -0.3899
  412MOL0     C54258   5.553  11.056   1.368 -0.2197 -0.3284  0.3998
  412MOL0     C54259   5.495  11.176   1.419  0.0769 -0.1534 -0.5379
  412MOL0     O54260   5.385  11.164   1.504  0.1637 -0.1832  0.3844
  412MOL0     C54261   5.419  11.135   1.647  0.7621 -0.6239  0.1468
  412MOL0     C54262   5.438  11.273   1.716  0.3967 -0.2371  0.7689
  412MOL0     C54263   5.328  11.368   1.688 -0.7809 -0.3791  0.0965
  412MOL0     C54264   5.192  11.312   1.727  0.5062  0.8973 -0.3573
  412MOL0     C54265   5.066  11.392   1.674 -0.8589 -0.2186  0.2489
  412MOL0     C54266   4.951  11.358   1.763  0.6061 -0.3768  0.3533
  412MOL0     C54267   4.829  11.411   1.700  0.1311 -0.1477 -0.0392
  412MOL0     C54268   4.726  11.462   1.804 -0.6304 -0.1387  0.5284
  412MOL0     N54269   4.658  11.571   1.742 -0.8684 -0.1808  0.5174
  412MOL0     C54270   4.707  11.694   1.714 -0.0541 -0.5847  0.3785
  412MOL0     C54271   4.611  11.762   1.646 -0.9154 -0.4127 -0.2199
  412MOL0     C54272   4.612  11.909   1.617 -0.7367  0.8248 -0.7455
  412MOL0     C54273   4.736  11.986   1.694  0.2117 -0.1693  0.0906
  412MOL0     C54274   4.716  12.138   1.652 -0.5340  0.3424 -0.8048
  412MOL0     C54275   4.840  12.223   1.703 -0.0799  0.4896 -0.6628
  412MOL0     O54276   4.821  12.347   1.638  0.3702  0.8370  0.7935
  412MOL0     C54277   4.899  12.461   1.668 -1.3143  0.2348  0.7245
  412MOL0     C54278   5.021  12.447   1.734 -0.1663  0.8454  0.3749
  412MOL0     C54279   5.105  12.555   1.744 -0.4599  0.2684  0.1276
  412MOL0     C54280   5.069  12.689   1.702 -0.9380  0.9277 -0.3596
  412MOL0     C54281   5.159  12.807   1.702 -0.4156 -0.0918 -0.2337
  412MOL0     O54282   5.103  12.935   1.672 -1.1443  0.7266 -0.2291
  412MOL0     C54283   5.178  13.041   1.705  0.4523 -0.3406 -0.4071
  412MOL0     C54284   5.202  13.141   1.614 -0.2810  0.2028  1.0379
  412MOL0     C54285   5.292  13.244   1.632  0.0744  0.2394 -0.8256
  412MOL0     C54286   5.353  13.265   1.762  0.7993 -0.0678 -0.3953
  412MOL0     O54287   5.454  13.359   1.801  0.5191 -0.3198  0.3187
  412MOL0     C54288   5.436  13.479   1.743 -0.0750  0.0304  0.1789
  412MOL0     C54289   5.526  13.573   1.821 -0.7102  1.5533  0.0588
  412MOL0     C54290   5.665  13.517   1.818  0.3009 -1.4157  0.7521
  412MOL0     C54291   5.761  13.625   1.863 -0.2234 -0.8444  0.1487
  412MOL0     C54292   5.909  13.575   1.879  1.0906  0.3916  0.4870
  412MOL0     C54293   5.974  13.486   1.775 -0.4332 -0.4204  0.6703
  412MOL0     C54294   5.978  13.560   1.633 -0.1846 -0.3741  0.0576
  412MOL0     C54295   5.996  13.467   1.522 -0.5627  0.1443 -0.1059
  412MOL0    Cl54296   5.943  13.559   1.367 -0.1842 -0.0377 -0.2881
  412MOL0     C54297   5.315  13.171   1.857 -0.7200  0.8396 -0.0702
  412MOL0     C54298   5.223  13.062   1.835 -0.3174  0.8031  0.2180
  412MOL0     O54299   5.281  12.797   1.727 -0.3808  0.6593 -0.3627
  412MOL0     C54300   4.937  12.698   1.653 -0.4545  0.0826 -1.0654
  412MOL0     C54301   4.854  12.587   1.630 -0.8054  0.1094  0.0748
  412MOL0     N54302   4.512  11.674   1.615  0.1420 -0.1313 -0.4457
  412MOL0     N54303   4.542  11.565   1.679  0.1568 -0.2131  0.0010
  412MOL0     C54304   5.556  11.296   1.387  0.2788 -0.5129 -0.1148
  412MOL0     C54305   5.664  11.296   1.301 -0.1529  0.2331 -0.3900
  412MOL0     C54306   5.891  11.246   0.929  0.0211  0.6512 -0.0363
  412MOL0     C54307   5.998  11.158   0.945 -0.0932  0.4658 -0.6570
  412MOL0     C54308   6.102  11.145   0.850  0.3139  0.6243 -0.1973
  412MOL0     C54309   6.081  11.202   0.726 -0.7111 -0.1489 -0.4611
  412MOL0     O54310   6.168  11.194   0.610  0.8556  0.6847  0.3035
  412MOL0     C54311   6.281  11.111   0.624  0.3115 -0.3077 -0.0589
  412MOL0     C54312   6.382  11.107   0.512  0.1260 -0.0579 -0.6079
  412MOL0     C54313   6.306  11.112   0.369 -0.3067  0.4698  0.2098
  412MOL0     C54314   6.397  11.078   0.255 -0.3504 -0.4812 -0.3314
  412MOL0     C54315   6.316  11.069   0.127 -0.6344 -0.2015 -0.6399
  412MOL0     C54316   6.243  11.068   0.034 -0.9891  0.4796  0.7668
  412MOL0     C54317   5.973  11.284   0.698  0.4629  0.2537 -0.5081
  412MOL0     C54318   5.878  11.313   0.801  0.6021  0.6155 -0.1640
  412MOL0     H54319   5.723  10.971   1.254 -0.2965  0.1666  0.4554
  412MOL0     H54320   5.497  10.971   1.405 -2.0114  1.0961  1.0863
  412MOL0     H54321   5.489  11.052   1.659 -1.0282 -2.0202  1.6298
  412MOL0     H54322   5.325  11.092   1.684 -0.5575  1.3508 -0.7171
  412MOL0     H54323   5.523  11.322   1.668 -0.3137  1.4861  1.1976
  412MOL0     H54324   5.464  11.261   1.822  1.0936  1.7042  0.8432
  412MOL0     H54325   5.320  11.373   1.579  0.6026 -1.3923 -0.0724
  412MOL0     H54326   5.348  11.468   1.730  2.8375 -0.7275 -0.4925
  412MOL0     H54327   5.154  11.215   1.692 -0.6911  1.1288  0.2670
  412MOL0     H54328   5.185  11.308   1.836 -0.7001 -1.4634 -0.4414
  412MOL0     H54329   5.038  11.357   1.575 -0.6839 -2.6378  0.9977
  412MOL0     H54330   5.093  11.499   1.671  0.4028 -0.5333 -0.4286
  412MOL0     H54331   4.974  11.397   1.863 -2.2781  1.2102  0.5001
  412MOL0     H54332   4.932  11.251   1.776 -0.6424 -0.2549 -0.3921
  412MOL0     H54333   4.850  11.489   1.627  2.2703 -0.8613 -0.2616
  412MOL0     H54334   4.776  11.332   1.646  1.0792 -0.8628  0.0550
  412MOL0     H54335   4.765  11.494   1.901  1.3258 -2.8372  0.7383
  412MOL0     H54336   4.650  11.384   1.818 -4.0600  2.6728 -0.6918
  412MOL0     H54337   4.805  11.736   1.736 -0.8656  3.5527 -2.6088
  412MOL0     H54338   4.524  11.957   1.661  0.9427  1.7055  1.8848
  412MOL0     H54339   4.616  11.931   1.510  0.8124  0.8182 -0.6999
  412MOL0     H54340   4.832  11.951   1.655  0.4572  1.8936 -1.3128
  412MOL0     H54341   4.721  11.974   1.802 -0.5450 -0.7961 -0.0658
  412MOL0     H54342   4.707  12.149   1.544 -0.0709  1.8442 -0.7254
  412MOL0     H54343   4.628  12.184   1.699  0.6011 -0.2698  2.1276
  412MOL0     H54344   4.934  12.182   1.665 -2.3402 -3.1344 -2.9573
  412MOL0     H54345   4.842  12.241   1.811  1.4600  3.0302 -1.0244
  412MOL0     H54346   5.073  12.355   1.756  1.9651  1.5238 -1.4287
  412MOL0     H54347   5.202  12.528   1.784 -0.0736  0.7759 -0.4466
  412MOL0     H54348   5.150  13.128   1.520  0.4633 -1.5399  0.8272
  412MOL0     H54349   5.309  13.316   1.554  1.5287  0.8156 -0.0193
  412MOL0     H54350   5.332  13.511   1.753  0.1902  2.0041 -2.1735
  412MOL0     H54351   5.461  13.472   1.636 -2.0782 -2.6932 -0.2270
  412MOL0     H54352   5.491  13.589   1.923 -1.8795 -2.3144  0.4244
  412MOL0     H54353   5.515  13.665   1.762  2.8933  0.2791 -3.0031
  412MOL0     H54354   5.693  13.492   1.716 -2.6944 -2.4769  0.0702
  412MOL0     H54355   5.674  13.435   1.890 -1.0937 -0.3666  2.2036
  412MOL0     H54356   5.757  13.713   1.798  2.3615 -0.6346  0.1748
  412MOL0     H54357   5.731  13.656   1.964 -0.1306  1.0731 -0.3745
  412MOL0     H54358   5.902  13.504   1.962 -0.9421 -1.1617 -0.8822
  412MOL0     H54359   5.969  13.660   1.911  1.8807 -0.6654  1.9418
  412MOL0     H54360   5.919  13.393   1.755 -1.5352  0.5256 -0.9606
  412MOL0     H54361   6.076  13.458   1.805  0.9630  4.1404  0.9168
  412MOL0     H54362   5.890  13.622   1.613 -0.1300 -0.7847 -1.5801
  412MOL0     H54363   6.065  13.626   1.643 -0.0460 -0.6328  0.6620
  412MOL0     H54364   5.952  13.367   1.529  2.6976 -1.3507  0.8570
  412MOL0     H54365   6.103  13.446   1.514 -0.8167 -1.0445 -0.5916
  412MOL0     H54366   5.361  13.170   1.955  3.7169 -0.8323 -1.9572
  412MOL0     H54367   5.213  12.991   1.916  2.7916  0.9151  0.7994
  412MOL0     H54368   4.910  12.801   1.630  0.8325  0.6833 -0.0193
  412MOL0     H54369   4.763  12.600   1.574 -1.3065  0.7878  1.0044
  412MOL0     H54370   5.521  11.394   1.418  2.2926 -0.4263  2.2178
  412MOL0     H54371   5.699  11.396   1.276 -3.8917  1.4056 -1.7127
  412MOL0     H54372   6.007  11.096   1.033  1.6008  0.6694 -0.6522
  412MOL0     H54373   6.180  11.075   0.878 -2.2565 -1.8982  1.2085
  412MOL0     H54374   6.241  11.010   0.636 -1.4834  0.5372  1.7258
  412MOL0     H54375   6.342  11.130   0.712 -2.4686  2.3807  1.4890
  412MOL0     H54376   6.458  11.186   0.518  1.5930 -1.5432  2.4151
  412MOL0     H54377   6.432  11.010   0.525  1.4562  0.6919  0.0115
  412MOL0     H54378   6.252  11.205   0.350  0.3550  0.6675 -0.7864
  412MOL0     H54379   6.226  11.040   0.348 -2.0883  2.7915 -1.5484
  412MOL0     H54380   6.477  11.152   0.252 -0.2897 -0.4496  1.2361
  412MOL0     H54381   6.452  10.986   0.279 -0.2259 -0.5229 -0.7663
  412MOL0     H54382   6.166  11.050  -0.039 -0.5789  1.2068  0.1354
  412MOL0     H54383   5.956  11.317   0.596 -1.6441  0.3871 -0.1486
  412MOL0     H54384   5.795  11.378   0.776  0.3654  0.2035 -0.4668
  413MOL0     O54385   6.447  11.106   7.561  0.6004 -0.7191  0.3058
  413MOL0     C54386   6.437  11.222   7.531 -0.4841 -0.6089 -0.4611
  413MOL0     O54387   6.541  11.318   7.556  0.1304 -0.4602 -0.2440
  413MOL0     C54388   6.643  11.277   7.630 -0.1711 -0.5064  0.0972
  413MOL0     C54389   6.736  11.189   7.582  0.6088  0.1435  0.1398
  413MOL0     C54390   6.849  11.162   7.651 -0.0434  0.1283 -0.0224
  413MOL0     C54391   6.868  11.219   7.775 -0.2307 -0.9509  0.1071
  413MOL0     O54392   6.983  11.201   7.857  0.4866  0.3683  0.0624
  413MOL0     C54393   7.057  11.083   7.858 -0.8692 -0.3620  0.2309
  413MOL0     C54394   6.966  10.964   7.875 -0.9488  0.6093  0.2749
  413MOL0     C54395   6.866  10.980   7.989 -0.0650  0.2026 -0.3073
  413MOL0     C54396   6.759  10.873   7.980  0.7041 -0.2543 -0.0412
  413MOL0     C54397   6.646  10.906   7.881 -0.4822 -0.2946  1.0182
  413MOL0     C54398   6.639  10.816   7.756  0.1900 -0.5274  0.2378
  413MOL0     C54399   6.487  10.799   7.714 -0.2368 -0.5174  0.1019
  413MOL0     C54400   6.471  10.768   7.568 -0.3958  0.9760  1.0410
  413MOL0     N54401   6.511  10.625   7.519 -0.7535  0.4483 -0.4753
  413MOL0     C54402   6.436  10.507   7.531 -0.5827  0.2445 -0.3526
  413MOL0     C54403   6.507  10.415   7.467 -0.0956  0.2497  0.2612
  413MOL0     C54404   6.473  10.268   7.456 -0.0634  0.5978  0.4951
  413MOL0     C54405   6.326  10.225   7.468 -0.0128  0.7340  0.4128
  413MOL0     C54406   6.301  10.080   7.422  0.0118  0.0611  0.5495
  413MOL0     C54407   6.154  10.044   7.412  1.1749  0.2802  0.3532
  413MOL0     O54408   6.144   9.901   7.411 -0.0760  0.0695  0.3158
  413MOL0     C54409   6.036   9.843   7.351 -0.3060 -0.1710  0.5978
  413MOL0     C54410   5.917   9.906   7.319 -0.0921 -0.3278  0.1976
  413MOL0     C54411   5.807   9.840   7.274  0.0122  0.1405  0.5365
  413MOL0     C54412   5.798   9.709   7.263  0.0385  0.7841  0.0251
  413MOL0     C54413   5.681   9.624   7.223  0.1549 -0.2563  0.0919
  413MOL0     O54414   5.689   9.487   7.198 -0.9269  0.4299 -0.3616
  413MOL0     C54415   5.585   9.422   7.138 -0.6184 -0.2532  0.0771
  413MOL0     C54416   5.568   9.299   7.192  0.4332 -0.8149 -0.2870
  413MOL0     C54417   5.458   9.224   7.142 -0.8746 -0.4836 -0.4694
  413MOL0     C54418   5.372   9.269   7.039 -0.0511  0.4048 -1.2083
  413MOL0     O54419   5.278   9.191   6.992 -0.1486  0.0564  0.1745
  413MOL0     C54420   5.149   9.240   6.947 -0.1420 -0.4618 -0.4030
  413MOL0     C54421   5.091   9.321   7.061 -0.2844  0.0910 -0.2928
  413MOL0     C54422   4.939   9.325   7.068 -0.0410 -0.5546 -0.2651
  413MOL0     C54423   4.892   9.444   6.995 -0.0915  0.0408  0.5363
  413MOL0     C54424   4.741   9.445   6.990 -0.5479 -0.6660  0.1299
  413MOL0     C54425   4.686   9.521   7.109 -0.0622  0.2025  0.3372
  413MOL0     C54426   4.531   9.520   7.101 -0.9425 -0.2156  0.2639
  413MOL0     C54427   4.461   9.529   7.238  0.9047  0.1320 -0.4955
  413MOL0    Cl54428   4.500   9.667   7.330  0.0366 -0.0921  0.4690
  413MOL0     C54429   5.402   9.398   6.983 -0.0836 -0.2904 -0.7168
  413MOL0     C54430   5.515   9.469   7.027 -0.0558  0.7725  0.4117
  413MOL0     O54431   5.575   9.689   7.212 -0.4333 -0.2370  0.8290
  413MOL0     C54432   5.917   9.641   7.289 -0.4679  0.8875  0.2445
  413MOL0     C54433   6.037   9.702   7.334 -0.0885 -0.5766 -0.3020
  413MOL0     N54434   6.625  10.474   7.412  0.6118 -0.2008 -0.0715
  413MOL0     N54435   6.629  10.602   7.451  0.3643 -0.5223 -0.2406
  413MOL0     C54436   6.775  11.299   7.839  0.4281  0.4524  0.2986
  413MOL0     C54437   6.662  11.330   7.762 -0.0236 -0.4429 -0.3714
  413MOL0     C54438   6.308  11.267   7.477 -0.1134  0.3796 -0.2539
  413MOL0     C54439   6.289  11.403   7.437 -0.2622  0.5234 -0.0310
  413MOL0     C54440   6.164  11.442   7.389  0.0359  0.3502  0.0379
  413MOL0     C54441   6.050  11.348   7.392 -0.3754  0.2584  0.0228
  413MOL0     O54442   5.929  11.390   7.355 -0.5931 -0.4965 -0.0247
  413MOL0     C54443   5.842  11.436   7.464  0.4405  0.3338  0.5995
  413MOL0     C54444   5.764  11.557   7.417 -0.3154 -0.4278 -0.6597
  413MOL0     C54445   5.675  11.601   7.524  0.6986 -0.5418 -1.0180
  413MOL0     C54446   5.594  11.720   7.473 -0.4317 -0.5013  0.4379
  413MOL0     C54447   5.498  11.769   7.569  0.4378 -0.0408 -0.0898
  413MOL0     C54448   5.412  11.823   7.640  0.5366  1.2543  1.0140
  413MOL0     C54449   6.069  11.222   7.440  0.1662 -0.5347 -0.2346
  413MOL0     C54450   6.195  11.183   7.482 -0.2648 -0.7307 -0.5983
  413MOL0     H54451   6.733  11.145   7.483  1.8305  0.9965 -0.2951
  413MOL0     H54452   6.924  11.097   7.609  1.3626  3.0120 -2.3148
  413MOL0     H54453   7.128  11.090   7.941 -2.9665 -2.3280  2.3567
  413MOL0     H54454   7.112  11.072   7.764 -1.1949 -0.6772  0.0717
  413MOL0     H54455   7.038  10.882   7.882  1.2569  2.0613 -2.7702
  413MOL0     H54456   6.916  10.952   7.778  2.1534 -3.4929 -1.1586
  413MOL0     H54457   6.819  11.078   7.999  1.0857  0.6554  1.0794
  413MOL0     H54458   6.923  10.970   8.083 -1.3723 -1.8227  0.3379
  413MOL0     H54459   6.814  10.784   7.948  0.1307 -0.5467 -0.2249
  413MOL0     H54460   6.713  10.859   8.078 -0.2933  0.0479 -0.4580
  413MOL0     H54461   6.646  11.012   7.855 -2.6833  0.3918  3.3858
  413MOL0     H54462   6.555  10.886   7.938 -0.7278 -1.1266  0.3536
  413MOL0     H54463   6.660  10.713   7.784 -0.6882 -1.0088 -0.8108
  413MOL0     H54464   6.699  10.842   7.669 -2.9368  0.9700 -1.6660
  413MOL0     H54465   6.443  10.721   7.776  0.6988 -0.1096  1.3231
  413MOL0     H54466   6.441  10.898   7.724 -0.5440 -0.7032  0.5504
  413MOL0     H54467   6.519  10.842   7.503 -2.0116  0.6180 -0.6403
  413MOL0     H54468   6.363  10.770   7.552  0.1546  1.6525 -3.9981
  413MOL0     H54469   6.349  10.499   7.595 -1.5628 -1.6330 -1.8173
  413MOL0     H54470   6.518  10.219   7.542  0.1019  1.6746  1.0300
  413MOL0     H54471   6.513  10.236   7.359 -0.8840  0.7790  0.0825
  413MOL0     H54472   6.264  10.294   7.410  1.7952  3.5305  1.6028
  413MOL0     H54473   6.299  10.238   7.574 -2.7722 -3.1335  0.3925
  413MOL0     H54474   6.351  10.090   7.325  0.0750  0.1058  0.5857
  413MOL0     H54475   6.362  10.014   7.485  2.4364  1.3642 -0.3076
  413MOL0     H54476   6.104  10.092   7.328 -1.8663  0.0187  1.8715
  413MOL0     H54477   6.091  10.088   7.490  0.1553  1.7126 -1.2221
  413MOL0     H54478   5.908  10.010   7.347  2.3210  0.0904 -0.3810
  413MOL0     H54479   5.718   9.893   7.242 -0.1539 -1.0403 -1.0973
  413MOL0     H54480   5.624   9.277   7.282  0.3892  1.4122  0.3596
  413MOL0     H54481   5.452   9.122   7.180 -0.9891  0.2162  1.4781
  413MOL0     H54482   5.081   9.155   6.930  0.3496 -1.4079  1.8908
  413MOL0     H54483   5.154   9.296   6.854 -3.3472 -1.4430 -1.3154
  413MOL0     H54484   5.136   9.418   7.084 -0.8424  0.0599  1.0113
  413MOL0     H54485   5.127   9.267   7.149 -1.1766  1.9102  1.2620
  413MOL0     H54486   4.916   9.332   7.175  0.2349  2.1963 -0.2973
  413MOL0     H54487   4.895   9.237   7.022  0.0076  0.8662 -3.2405
  413MOL0     H54488   4.929   9.541   7.030  0.8682  0.7912 -2.2773
  413MOL0     H54489   4.937   9.439   6.896 -0.4290 -0.9944  0.4283
  413MOL0     H54490   4.706   9.342   6.981 -1.4363 -0.3298 -0.3849
  413MOL0     H54491   4.711   9.503   6.902  0.3483  2.0161  1.4839
  413MOL0     H54492   4.731   9.618   7.130 -0.6186  0.6874 -0.6702
  413MOL0     H54493   4.710   9.455   7.194 -1.7828 -1.4028 -0.3523
  413MOL0     H54494   4.511   9.605   7.035 -0.6450 -0.9923 -0.8431
  413MOL0     H54495   4.502   9.432   7.043  1.8604  0.2500 -2.0768
  413MOL0     H54496   4.477   9.441   7.301 -2.3508  0.1116  0.4750
  413MOL0     H54497   4.354   9.531   7.220  0.5585 -1.4209  1.0393
  413MOL0     H54498   5.354   9.437   6.894  0.5312 -1.3594 -1.5505
  413MOL0     H54499   5.534   9.561   6.972  0.8248 -0.1542 -0.9103
  413MOL0     H54500   5.917   9.532   7.287 -1.7780  0.8863 -0.8184
  413MOL0     H54501   6.124   9.647   7.368 -0.1259 -0.2675  0.2975
  413MOL0     H54502   6.788  11.312   7.946  0.6934 -2.6684  0.7386
  413MOL0     H54503   6.586  11.391   7.809  1.1526  0.7002  0.1247
  413MOL0     H54504   6.372  11.473   7.443 -1.5219  1.9272  4.5614
  413MOL0     H54505   6.152  11.543   7.351  2.1706  0.9186  0.7389
  413MOL0     H54506   5.898  11.467   7.553 -2.3645  1.3804  2.1127
  413MOL0     H54507   5.767  11.358   7.484 -3.2666  3.4181 -0.1931
  413MOL0     H54508   5.838  11.635   7.397  0.2491 -1.4699 -2.9144
  413MOL0     H54509   5.705  11.527   7.330 -0.8867  0.5526 -0.6234
  413MOL0     H54510   5.738  11.643   7.603  1.1794  0.5194 -1.9495
  413MOL0     H54511   5.605  11.522   7.554 -0.6878  1.0337  0.0476
  413MOL0     H54512   5.655  11.809   7.455 -2.0998  0.3210 -1.4859
  413MOL0     H54513   5.543  11.693   7.381  1.0541  0.7558 -0.8126
  413MOL0     H54514   5.340  11.862   7.709 -0.5347 -0.3203  0.8509
  413MOL0     H54515   5.980  11.160   7.448 -1.0871  1.0066 -1.4486
  413MOL0     H54516   6.217  11.079   7.507  3.3422 -0.2705 -1.2252
  414MOL0     O54517   6.039   9.870   1.505 -0.2463 -0.1426  0.5744
  414MOL0     C54518   6.009   9.762   1.557  0.8763 -0.2679 -1.1195
  414MOL0     O54519   5.878   9.735   1.589 -0.0087  0.1450  0.2592
  414MOL0     C54520   5.788   9.827   1.554 -0.0149  0.1280 -0.1528
  414MOL0     C54521   5.741   9.913   1.657  0.2278 -0.7886  0.3407
  414MOL0     C54522   5.620   9.985   1.636 -0.1405 -0.4435 -0.2641
  414MOL0     C54523   5.564   9.993   1.511  0.5333  0.3707 -0.3970
  414MOL0     O54524   5.456  10.070   1.482  0.1955 -0.3076 -0.0416
  414MOL0     C54525   5.389  10.146   1.581  0.2996 -0.7861  0.8007
  414MOL0     C54526   5.247  10.161   1.522  0.1655  0.3382 -0.8171
  414MOL0     C54527   5.176  10.024   1.509 -0.0862 -0.0435  0.6560
  414MOL0     C54528   5.050  10.029   1.589  0.7117 -0.4613 -0.0158
  414MOL0     C54529   4.974   9.898   1.582 -0.3470  0.3376 -0.6112
  414MOL0     C54530   4.827   9.932   1.575  0.0480 -0.5595 -0.4798
  414MOL0     C54531   4.736   9.817   1.572  0.3584 -0.4561  0.8652
  414MOL0     C54532   4.745   9.732   1.698  0.0288 -0.2083 -0.3454
  414MOL0     N54533   4.608   9.717   1.742  0.1535  1.1700 -1.0243
  414MOL0     C54534   4.541   9.762   1.855 -0.0082 -0.3442 -0.2744
  414MOL0     C54535   4.420   9.693   1.862 -0.3879  0.3923  1.1031
  414MOL0     C54536   4.321   9.709   1.967 -0.4298  0.6030 -0.2249
  414MOL0     C54537   4.185   9.635   1.952  0.7067  0.4935 -0.7025
  414MOL0     C54538   4.084   9.683   2.058 -0.1043 -1.1245 -0.1062
  414MOL0     C54539   3.974   9.587   2.105 -0.3055 -1.0380 -0.4407
  414MOL0     O54540   3.909   9.650   2.222 -0.1779  0.6985 -0.2995
  414MOL0     C54541   3.792   9.719   2.210  0.4938  0.8145 -0.0435
  414MOL0     C54542   3.725   9.744   2.329 -0.6386  0.5378 -0.1093
  414MOL0     C54543   3.608   9.821   2.328 -0.5911 -0.0852 -0.0357
  414MOL0     C54544   3.541   9.856   2.221 -0.2431 -0.0897 -0.2202
  414MOL0     C54545   3.413   9.924   2.241 -0.0738  0.8936  0.1733
  414MOL0     O54546   3.354   9.966   2.123  0.5846  0.2583 -0.2402
  414MOL0     C54547   3.238  10.032   2.137 -0.6702 -0.4005  0.2131
  414MOL0     C54548   3.129   9.964   2.149  0.5036  0.2002 -0.8480
  414MOL0     C54549   2.998  10.016   2.167 -0.4624  0.8428  0.6283
  414MOL0     C54550   2.981  10.154   2.157 -1.0880  1.0175 -0.0709
  414MOL0     O54551   2.865  10.229   2.157  0.1773  0.1471 -0.8221
  414MOL0     C54552   2.745  10.164   2.108 -0.0016 -0.8461 -0.0732
  414MOL0     C54553   2.650  10.274   2.087  1.3461 -0.0294 -0.1339
  414MOL0     C54554   2.594  10.335   2.206  0.0775 -0.1388 -0.5267
  414MOL0     C54555   2.520  10.463   2.170  0.2257  0.0677  0.2555
  414MOL0     C54556   2.468  10.539   2.295 -0.3213  0.1184  0.1364
  414MOL0     C54557   2.353  10.635   2.268  0.0301  0.8546  0.6307
  414MOL0     C54558   2.226  10.551   2.252 -0.6052  0.0322  0.2063
  414MOL0     C54559   2.101  10.633   2.226  0.4723 -1.4627 -0.7134
  414MOL0    Cl54560   2.114  10.762   2.104 -0.2761 -0.3157  0.1038
  414MOL0     C54561   3.099  10.226   2.139 -0.8449 -1.3169 -0.3897
  414MOL0     C54562   3.229  10.176   2.125  0.0710  0.3689 -0.6587
  414MOL0     O54563   3.358   9.926   2.356 -0.7171 -0.0155 -0.1888
  414MOL0     C54564   3.607   9.845   2.096  0.3665  0.0004  0.3176
  414MOL0     C54565   3.734   9.776   2.091  0.4255 -0.5441  0.3531
  414MOL0     N54566   4.407   9.609   1.746 -0.4348  0.1010  0.3975
  414MOL0     N54567   4.531   9.622   1.680  0.8068  0.3416  0.4900
  414MOL0     C54568   5.622   9.915   1.409  0.7206 -0.5232  0.6990
  414MOL0     C54569   5.739   9.846   1.428 -0.2206  0.6204 -0.1377
  414MOL0     C54570   6.112   9.660   1.591 -0.3546  0.5348  0.1797
  414MOL0     C54571   6.084   9.549   1.671  0.4745 -0.0753 -0.3485
  414MOL0     C54572   6.183   9.453   1.688 -0.5821 -1.6003  0.3464
  414MOL0     C54573   6.314   9.473   1.652  0.4050  0.9001  0.3261
  414MOL0     O54574   6.402   9.374   1.689 -0.1895 -0.1898  0.6577
  414MOL0     C54575   6.543   9.412   1.703 -0.0057  0.2424 -0.8283
  414MOL0     C54576   6.617   9.323   1.812 -0.3286  0.5116  1.0830
  414MOL0     C54577   6.542   9.311   1.942  0.9536  0.0387  0.2714
  414MOL0     C54578   6.566   9.423   2.038  0.4686  0.1555  0.4010
  414MOL0     C54579   6.482   9.404   2.158  0.0586 -0.6348 -0.2110
  414MOL0     C54580   6.423   9.398   2.269  0.0808 -1.0724 -0.4615
  414MOL0     C54581   6.345   9.580   1.578  0.1325 -0.0151 -0.0950
  414MOL0     C54582   6.247   9.677   1.544 -0.3209 -0.7962 -0.5705
  414MOL0     H54583   5.781   9.908   1.758  0.3394  0.5527  0.3780
  414MOL0     H54584   5.579  10.027   1.727  0.0391 -0.5119 -0.1528
  414MOL0     H54585   5.428  10.247   1.591 -1.9349  0.0181  2.2891
  414MOL0     H54586   5.386  10.098   1.679 -0.1674 -3.1112 -0.2848
  414MOL0     H54587   5.249  10.205   1.422  0.8535  0.6714 -0.6644
  414MOL0     H54588   5.197  10.241   1.578  3.3313  0.9538  1.3844
  414MOL0     H54589   5.234   9.935   1.536 -0.8011 -1.0306 -0.8925
  414MOL0     H54590   5.152  10.003   1.404 -0.5926 -2.0472  1.1259
  414MOL0     H54591   5.081  10.045   1.693 -1.9169 -0.6526  0.8727
  414MOL0     H54592   4.986  10.113   1.563 -0.7047 -0.3829  3.2738
  414MOL0     H54593   4.990   9.845   1.676 -1.2685 -1.5506 -1.4643
  414MOL0     H54594   5.014   9.837   1.500 -0.2837 -1.8628  0.9921
  414MOL0     H54595   4.810   9.994   1.486  0.4530  0.0163 -0.1590
  414MOL0     H54596   4.803   9.987   1.665  1.0400 -2.4436  1.0170
  414MOL0     H54597   4.636   9.856   1.552  0.5881 -1.3200 -2.6511
  414MOL0     H54598   4.759   9.752   1.488  0.2609 -0.6714  1.0045
  414MOL0     H54599   4.804   9.777   1.778 -1.3742  3.2605 -1.0656
  414MOL0     H54600   4.791   9.642   1.657 -0.2212 -0.7759  0.5879
  414MOL0     H54601   4.572   9.833   1.930 -0.3205  0.5510 -0.9779
  414MOL0     H54602   4.299   9.816   1.954  2.5129  1.3638  0.2383
  414MOL0     H54603   4.353   9.693   2.070  1.3360  0.8477 -0.7097
  414MOL0     H54604   4.211   9.530   1.967 -0.3673  0.2619 -0.4393
  414MOL0     H54605   4.152   9.644   1.848  3.6873  1.9948 -1.6420
  414MOL0     H54606   4.136   9.700   2.153  2.7989 -2.1025 -1.4344
  414MOL0     H54607   4.038   9.778   2.028 -3.9202 -2.2293  1.5765
  414MOL0     H54608   4.019   9.490   2.130  2.0131 -0.1472 -0.8477
  414MOL0     H54609   3.902   9.570   2.025  1.5528 -0.9476 -2.2339
  414MOL0     H54610   3.746   9.694   2.423  2.0314  0.4129 -0.7052
  414MOL0     H54611   3.563   9.833   2.426 -0.1789 -0.5410  0.2100
  414MOL0     H54612   3.140   9.861   2.180 -3.1302  0.3487  1.5244
  414MOL0     H54613   2.913   9.951   2.181  0.7004 -0.8439  0.0905
  414MOL0     H54614   2.700  10.090   2.175 -0.4811  0.3654  0.9969
  414MOL0     H54615   2.757  10.111   2.013 -0.5103 -2.1728  0.5804
  414MOL0     H54616   2.571  10.233   2.023  2.7734  1.0110 -2.7103
  414MOL0     H54617   2.696  10.354   2.028  1.5028 -2.6079 -3.8441
  414MOL0     H54618   2.669  10.357   2.282  1.8150 -2.5466 -1.4517
  414MOL0     H54619   2.518  10.269   2.250  1.5466 -1.7089 -0.2680
  414MOL0     H54620   2.587  10.534   2.120 -1.8277  0.4704 -2.1407
  414MOL0     H54621   2.443  10.427   2.102  1.7957  0.3750 -1.8119
  414MOL0     H54622   2.550  10.597   2.337 -0.2654  0.5378 -0.5455
  414MOL0     H54623   2.435  10.462   2.365 -1.7461 -2.7333 -3.3501
  414MOL0     H54624   2.378  10.679   2.171 -0.0672  2.0950  1.1504
  414MOL0     H54625   2.349  10.720   2.337 -0.1167  0.5237  1.0343
  414MOL0     H54626   2.242  10.468   2.183  0.9820  2.4691 -2.5310
  414MOL0     H54627   2.212  10.500   2.348  2.7416 -0.5824  0.4938
  414MOL0     H54628   2.072  10.687   2.317  1.5097  0.9602 -1.7249
  414MOL0     H54629   2.022  10.565   2.193 -2.4626  0.5703  1.5604
  414MOL0     H54630   3.066  10.329   2.141 -0.7837 -1.2338  3.4936
  414MOL0     H54631   3.315  10.241   2.112 -1.2968  2.2657 -0.6877
  414MOL0     H54632   3.552   9.859   2.003  2.8239 -1.2877 -1.4338
  414MOL0     H54633   3.763   9.751   1.989 -2.9353 -0.1892 -0.7902
  414MOL0     H54634   5.582   9.915   1.309 -0.0886 -2.4854  0.9782
  414MOL0     H54635   5.798   9.799   1.350  0.6266 -0.4008  1.0787
  414MOL0     H54636   5.984   9.530   1.709  0.2170 -0.1312 -1.0425
  414MOL0     H54637   6.146   9.359   1.728 -2.9680 -0.5682  0.7352
  414MOL0     H54638   6.559   9.513   1.742  0.0886  0.0754 -0.4333
  414MOL0     H54639   6.596   9.405   1.608 -1.3280  0.8812 -1.6495
  414MOL0     H54640   6.628   9.224   1.768 -3.9565 -0.0083  1.0180
  414MOL0     H54641   6.715   9.371   1.808 -0.8202  1.4475 -1.1347
  414MOL0     H54642   6.570   9.213   1.983 -0.4108 -0.8995 -0.9475
  414MOL0     H54643   6.435   9.314   1.923  0.6381  2.7498  1.9611
  414MOL0     H54644   6.673   9.423   2.061  0.6103 -1.5904 -0.1410
  414MOL0     H54645   6.544   9.522   1.998  0.4840 -0.4209 -1.0916
  414MOL0     H54646   6.379   9.376   2.364  0.8042  2.1568  0.7257
  414MOL0     H54647   6.445   9.597   1.539  0.8813 -0.1431  1.6717
  414MOL0     H54648   6.278   9.771   1.501 -2.1440 -0.5159 -1.3431
  415MOL0     O54649   5.221   6.036  10.961  0.2911 -1.0011 -1.1465
  415MOL0     C54650   5.188   6.140  11.016  0.3218 -0.6175 -0.7801
  415MOL0     O54651   5.273   6.230  11.072 -0.4803 -0.5126  0.0279
  415MOL0     C54652   5.410   6.207  11.055 -0.6271  1.4808  0.1786
  415MOL0     C54653   5.466   6.249  10.934 -0.0958 -0.1380 -0.2279
  415MOL0     C54654   5.608   6.265  10.931 -0.8899 -0.0098 -0.3927
  415MOL0     C54655   5.688   6.211  11.033  0.7650  0.5795 -0.0372
  415MOL0     O54656   5.824   6.228  11.023  0.2102  0.6408 -0.0231
  415MOL0     C54657   5.914   6.163  11.114  0.5098 -0.5000  0.4765
  415MOL0     C54658   6.060   6.221  11.080  0.8025  0.0624 -0.0377
  415MOL0     C54659   6.160   6.137  11.151  0.3284 -0.1044  0.1843
  415MOL0     C54660   6.304   6.179  11.136 -0.6579  0.5469  0.5781
  415MOL0     C54661   6.359   6.285  11.245 -0.0146  0.3329  1.0472
  415MOL0     C54662   6.513   6.297  11.234  0.1886  0.8334 -0.3292
  415MOL0     C54663   6.559   6.388  11.351 -0.1823 -0.3151  1.6237
  415MOL0     C54664   6.604   6.314  11.471 -0.0909 -0.4192  0.2527
  415MOL0     N54665   6.708   6.390  11.546  0.9177 -1.1210 -0.0023
  415MOL0     C54666   6.805   6.337  11.625  1.0786 -0.8204  0.1179
  415MOL0     C54667   6.871   6.452  11.665  0.0079 -0.2227  0.5550
  415MOL0     C54668   7.002   6.458  11.739  0.4829 -0.2990 -0.5368
  415MOL0     C54669   6.979   6.494  11.892 -1.0377 -0.1657  0.0403
  415MOL0     C54670   7.105   6.549  11.961  0.5175 -0.5034 -0.0167
  415MOL0     C54671   7.083   6.610  12.104 -0.7522 -0.2318 -0.2334
  415MOL0     O54672   6.958   6.683  12.102 -0.1228  0.5584 -0.4746
  415MOL0     C54673   6.933   6.785  12.187  0.3835  0.1675 -0.9609
  415MOL0     C54674   6.973   6.795  12.320 -0.6259  0.3215 -0.2071
  415MOL0     C54675   6.924   6.901  12.396 -0.0293  0.1459 -0.2605
  415MOL0     C54676   6.832   6.992  12.338 -0.0679 -0.5828 -0.1031
  415MOL0     C54677   6.754   7.078  12.426 -0.3220 -0.0704 -0.5963
  415MOL0     O54678   6.670   7.167  12.374  0.9434 -0.7803 -0.1633
  415MOL0     C54679   6.602   7.257  12.457  0.2171 -0.4511  0.1335
  415MOL0     C54680   6.664   7.361  12.522 -0.4227  0.4530 -0.9302
  415MOL0     C54681   6.585   7.457  12.595 -0.4928 -0.2389  0.2240
  415MOL0     C54682   6.452   7.434  12.624 -0.2294 -0.7759 -0.1110
  415MOL0     O54683   6.379   7.529  12.689  0.6062 -0.2710  0.5596
  415MOL0     C54684   6.279   7.590  12.605  0.8313  0.5751  0.1948
  415MOL0     C54685   6.214   7.714  12.655  0.4801 -0.1035 -0.0089
  415MOL0     C54686   6.139   7.696  12.787  0.8999  1.1399  0.5476
  415MOL0     C54687   6.085   7.830  12.828  0.4861  0.5660  0.4316
  415MOL0     C54688   6.031   7.843  12.965  0.6336  1.1904  0.3366
  415MOL0     C54689   5.900   7.754  12.970  0.8332 -0.3457  0.5776
  415MOL0     C54690   5.803   7.786  13.079  0.4396  0.3407 -1.0361
  415MOL0     C54691   5.759   7.928  13.092  0.1830  1.2167  0.2995
  415MOL0    Cl54692   5.638   7.937  13.221 -0.0426 -0.0553 -0.2145
  415MOL0     C54693   6.390   7.322  12.572 -0.1533  0.3287  0.7821
  415MOL0     C54694   6.462   7.238  12.486  0.0849 -1.2182  0.8894
  415MOL0     O54695   6.782   7.069  12.546 -0.0131  0.2615  0.6769
  415MOL0     C54696   6.799   6.981  12.202  0.2077 -0.0852  0.5191
  415MOL0     C54697   6.855   6.882  12.127 -0.1986  0.8697  0.2903
  415MOL0     N54698   6.794   6.559  11.622 -0.6238 -0.7392 -0.5559
  415MOL0     N54699   6.700   6.524  11.549  0.5670  0.0083  0.4673
  415MOL0     C54700   5.628   6.147  11.142 -0.4562 -0.0779  0.3242
  415MOL0     C54701   5.492   6.148  11.153 -0.2569 -0.2189 -0.2190
  415MOL0     C54702   5.041   6.153  11.044  0.0384 -0.0636  0.4978
  415MOL0     C54703   4.952   6.094  10.953 -0.0638 -0.3540  0.7719
  415MOL0     C54704   4.815   6.082  10.969 -0.0199 -0.4495 -0.0759
  415MOL0     C54705   4.765   6.159  11.070 -0.9434 -0.4932 -0.1172
  415MOL0     O54706   4.629   6.158  11.090 -0.3100 -0.4372 -0.0136
  415MOL0     C54707   4.559   6.270  11.148 -0.5527  0.5440  0.5616
  415MOL0     C54708   4.506   6.217  11.281  0.2741 -0.4455 -0.7994
  415MOL0     C54709   4.396   6.309  11.337 -0.4457  0.3255  0.2560
  415MOL0     C54710   4.359   6.289  11.483 -0.8789 -0.4637 -0.0969
  415MOL0     C54711   4.233   6.361  11.490  0.1165 -0.1234  1.0210
  415MOL0     C54712   4.128   6.411  11.476 -0.2966  0.6095 -0.5534
  415MOL0     C54713   4.850   6.226  11.159 -0.0800 -0.2287 -0.7278
  415MOL0     C54714   4.984   6.229  11.148 -0.1183  0.5382 -0.4392
  415MOL0     H54715   5.409   6.288  10.850 -4.4451 -1.9705  1.5694
  415MOL0     H54716   5.661   6.310  10.848  1.8988 -6.2652 -2.7015
  415MOL0     H54717   5.904   6.054  11.111  2.7666 -0.7550  0.8061
  415MOL0     H54718   5.897   6.198  11.216 -0.1212 -2.0200  0.9100
  415MOL0     H54719   6.059   6.325  11.114 -2.1617 -0.3131  1.3926
  415MOL0     H54720   6.074   6.222  10.972  1.3950  1.6668  0.0241
  415MOL0     H54721   6.152   6.036  11.111 -1.8140  0.3290 -0.6349
  415MOL0     H54722   6.130   6.130  11.255  2.1797 -3.2894  0.6287
  415MOL0     H54723   6.368   6.091  11.137 -0.9000  0.2508  4.0705
  415MOL0     H54724   6.317   6.236  11.043  2.3829  3.9855  2.7988
  415MOL0     H54725   6.335   6.245  11.344 -1.8284  2.4687  1.5450
  415MOL0     H54726   6.318   6.385  11.229 -3.8577 -1.0113  1.4274
  415MOL0     H54727   6.554   6.333  11.140 -0.6536 -4.7704 -3.2516
  415MOL0     H54728   6.561   6.199  11.237  0.4661  0.9762  2.4176
  415MOL0     H54729   6.640   6.451  11.315 -1.6294  0.5022 -0.3818
  415MOL0     H54730   6.474   6.455  11.371 -1.5998 -1.1894 -0.9561
  415MOL0     H54731   6.665   6.224  11.459  1.4038  0.2123  2.4223
  415MOL0     H54732   6.518   6.280  11.529 -0.7790  0.3844 -0.2850
  415MOL0     H54733   6.831   6.234  11.645  1.7735 -0.3121  2.0954
  415MOL0     H54734   7.066   6.527  11.682  0.0997 -1.1984 -2.1113
  415MOL0     H54735   7.047   6.358  11.735  0.3641 -0.4504  1.2274
  415MOL0     H54736   6.955   6.404  11.949  0.4008  0.1638  1.2465
  415MOL0     H54737   6.903   6.572  11.899 -2.1620 -1.1494 -0.8625
  415MOL0     H54738   7.166   6.460  11.974  1.0259 -0.4217 -1.5722
  415MOL0     H54739   7.159   6.624  11.902 -4.3446  2.3141 -1.5284
  415MOL0     H54740   7.164   6.678  12.132  0.1597 -2.1752  2.3000
  415MOL0     H54741   7.081   6.532  12.181  0.4612 -1.8749 -1.7829
  415MOL0     H54742   7.035   6.714  12.357  1.9113 -0.8673 -5.9869
  415MOL0     H54743   6.957   6.888  12.499 -1.8813 -0.0437  0.3545
  415MOL0     H54744   6.772   7.367  12.513 -0.2709 -1.1745 -0.4716
  415MOL0     H54745   6.627   7.547  12.637 -1.4122  0.3686 -0.1239
  415MOL0     H54746   6.194   7.525  12.583 -0.0368  1.7151  0.0979
  415MOL0     H54747   6.324   7.609  12.506  1.7213 -0.8513  0.2923
  415MOL0     H54748   6.153   7.751  12.572  0.1688 -3.3731 -1.4238
  415MOL0     H54749   6.297   7.782  12.677 -0.6440  1.3919 -0.2607
  415MOL0     H54750   6.191   7.662  12.877 -0.7120  4.0341  2.7491
  415MOL0     H54751   6.053   7.631  12.765 -1.1554  1.9124  4.9976
  415MOL0     H54752   6.158   7.910  12.821 -0.9290  2.0426  1.8177
  415MOL0     H54753   6.000   7.862  12.766  0.2079  0.6926  0.8732
  415MOL0     H54754   6.009   7.948  12.987 -1.0986  0.9149  0.0687
  415MOL0     H54755   6.110   7.810  13.032  1.2976 -0.4150 -1.1465
  415MOL0     H54756   5.935   7.651  12.972  0.3604 -0.4887  1.9266
  415MOL0     H54757   5.857   7.770  12.871  4.4202  0.9793 -0.9448
  415MOL0     H54758   5.711   7.731  13.058  0.2805 -0.0283  0.4585
  415MOL0     H54759   5.846   7.756  13.175  2.0835  2.1278 -1.1390
  415MOL0     H54760   5.721   7.970  12.999 -2.5654 -0.9685  0.3238
  415MOL0     H54761   5.835   7.995  13.134 -0.4417  0.6148  2.5547
  415MOL0     H54762   6.288   7.297  12.598  0.4244 -1.1646  1.7093
  415MOL0     H54763   6.412   7.152  12.442  0.0165  0.5845 -3.0086
  415MOL0     H54764   6.726   7.053  12.166  0.1438  1.0939  2.7867
  415MOL0     H54765   6.844   6.879  12.019  2.1633 -0.7618  0.0224
  415MOL0     H54766   5.687   6.107  11.225 -0.8860 -0.0052  0.6656
  415MOL0     H54767   5.449   6.117  11.248  1.6052 -0.2624  0.6632
  415MOL0     H54768   4.997   6.042  10.869  0.4477 -0.2968  1.0051
  415MOL0     H54769   4.744   6.023  10.912 -3.3176  3.3512 -0.3285
  415MOL0     H54770   4.484   6.293  11.071 -2.2836 -1.4469  1.5359
  415MOL0     H54771   4.615   6.361  11.171 -2.6845  1.9326  0.5346
  415MOL0     H54772   4.462   6.117  11.269 -0.3397 -0.1590 -0.9694
  415MOL0     H54773   4.589   6.213  11.352  1.9045  2.1908 -2.4146
  415MOL0     H54774   4.305   6.301  11.276 -1.0560 -1.4400  1.3280
  415MOL0     H54775   4.439   6.408  11.322 -0.0135  0.6763  3.2764
  415MOL0     H54776   4.336   6.186  11.510  4.2188 -1.4683  1.4072
  415MOL0     H54777   4.433   6.327  11.554  0.1443 -1.1951 -0.7376
  415MOL0     H54778   4.027   6.449  11.476 -1.0874 -1.3700 -0.9347
  415MOL0     H54779   4.804   6.271  11.247 -2.0465  2.4547 -2.9387
  415MOL0     H54780   5.050   6.262  11.227  1.1463  1.7629 -1.9618
  416MOL0     O54781  10.906   2.215   3.419 -0.3920  0.4408 -0.2567
  416MOL0     C54782  10.889   2.326   3.476 -0.3462 -0.4314  0.7336
  416MOL0     O54783  10.771   2.366   3.542 -0.2124  0.4685  0.1170
  416MOL0     C54784  10.659   2.287   3.549 -0.2398 -0.0422  0.5543
  416MOL0     C54785  10.621   2.186   3.463 -0.7249  0.0363  0.5910
  416MOL0     C54786  10.495   2.129   3.468 -0.8076 -0.5758 -0.1015
  416MOL0     C54787  10.405   2.160   3.566  0.2996 -0.4172 -0.1673
  416MOL0     O54788  10.281   2.104   3.585 -0.2862  0.6091  0.3098
  416MOL0     C54789  10.207   2.071   3.468 -0.8943 -0.3334  0.1932
  416MOL0     C54790  10.077   2.007   3.520 -0.3157 -0.0951 -1.2050
  416MOL0     C54791   9.988   1.967   3.401  0.3140 -0.5697 -0.0667
  416MOL0     C54792   9.849   1.907   3.439  0.1668  0.8241 -1.2882
  416MOL0     C54793   9.861   1.771   3.519 -0.4193 -0.0554  0.1577
  416MOL0     C54794   9.717   1.720   3.550  0.0378 -0.5443  0.1005
  416MOL0     C54795   9.732   1.573   3.610  0.3311  0.4700  0.0184
  416MOL0     C54796   9.618   1.468   3.601  0.1094  0.0952  0.1174
  416MOL0     N54797   9.529   1.463   3.716 -0.1003 -0.7697  0.4544
  416MOL0     C54798   9.561   1.439   3.843  0.0562  1.1253 -0.5760
  416MOL0     C54799   9.438   1.438   3.913 -0.1657 -0.7194 -0.5096
  416MOL0     C54800   9.429   1.393   4.055 -0.8776  0.1935  0.3244
  416MOL0     C54801   9.529   1.466   4.148 -0.8289  0.6792  0.7562
  416MOL0     C54802   9.533   1.425   4.299 -0.4012 -0.3133  0.2354
  416MOL0     C54803   9.399   1.409   4.358 -0.4172  0.8855  0.8604
  416MOL0     O54804   9.314   1.523   4.333  0.4403 -0.7879  0.3750
  416MOL0     C54805   9.178   1.507   4.374  0.0317 -1.1896 -0.7646
  416MOL0     C54806   9.123   1.394   4.418 -0.9595 -0.0574 -0.5411
  416MOL0     C54807   9.002   1.405   4.484  1.5590  0.5871  0.3763
  416MOL0     C54808   8.921   1.523   4.463 -0.1240  0.4746 -0.1244
  416MOL0     C54809   8.784   1.543   4.531 -0.7040  0.3999  0.4158
  416MOL0     O54810   8.714   1.653   4.501  0.5006  0.2380  0.0992
  416MOL0     C54811   8.586   1.663   4.547  0.5077  0.7512 -0.2052
  416MOL0     C54812   8.485   1.569   4.503  1.2286  0.1890 -0.4634
  416MOL0     C54813   8.355   1.589   4.557 -0.3905  0.1320  0.5346
  416MOL0     C54814   8.320   1.683   4.654 -1.0993 -0.5119  1.5100
  416MOL0     O54815   8.205   1.677   4.714  0.6904  0.1794 -0.8368
  416MOL0     C54816   8.102   1.764   4.675 -0.4231 -0.5224  0.3888
  416MOL0     C54817   7.991   1.695   4.577 -0.9141 -1.3831 -0.6653
  416MOL0     C54818   7.861   1.772   4.558 -0.0435 -0.6028 -0.4483
  416MOL0     C54819   7.878   1.900   4.483  0.6806 -0.0957  0.6896
  416MOL0     C54820   7.741   1.975   4.445 -0.9212 -0.4509  0.0838
  416MOL0     C54821   7.769   2.122   4.392 -0.0598  0.1697 -0.9489
  416MOL0     C54822   7.642   2.189   4.354 -0.1320 -0.5963  0.3567
  416MOL0     C54823   7.672   2.315   4.286  0.0062 -0.5640  0.1649
  416MOL0    Cl54824   7.764   2.305   4.129 -0.4140 -0.0532 -0.4565
  416MOL0     C54825   8.427   1.770   4.694 -0.3557 -0.6993  0.0449
  416MOL0     C54826   8.562   1.757   4.642 -0.8745  0.1128  0.4924
  416MOL0     O54827   8.754   1.447   4.606  0.7046 -0.0329 -0.2526
  416MOL0     C54828   8.964   1.625   4.378 -0.6755  0.0720 -0.3500
  416MOL0     C54829   9.104   1.620   4.346  0.5446 -0.1678 -0.4874
  416MOL0     N54830   9.342   1.480   3.822 -0.2572 -1.0262 -0.1624
  416MOL0     N54831   9.397   1.512   3.713 -0.3340 -0.2688 -1.1280
  416MOL0     C54832  10.438   2.258   3.660  0.0589  0.7077 -0.4495
  416MOL0     C54833  10.562   2.317   3.650  0.6751 -0.2829 -0.6023
  416MOL0     C54834  11.002   2.424   3.475 -0.2310  1.1523  1.0106
  416MOL0     C54835  11.128   2.384   3.416 -0.1780  0.4975 -0.1759
  416MOL0     C54836  11.233   2.470   3.419 -0.4041 -1.7435  1.8686
  416MOL0     C54837  11.228   2.587   3.498 -0.2337 -0.3294  0.3933
  416MOL0     O54838  11.345   2.664   3.484  0.2246  0.1556  0.1728
  416MOL0     C54839  11.363   2.788   3.562  0.4700 -1.1680 -0.6399
  416MOL0     C54840  11.506   2.840   3.539 -0.1678  0.1437  0.2733
  416MOL0     C54841  11.527   2.896   3.396 -0.1738  0.4307 -1.8344
  416MOL0     C54842  11.647   2.992   3.386 -0.5520 -0.4894  0.1180
  416MOL0     C54843  11.778   2.941   3.416 -0.7191  0.1611  0.3180
  416MOL0     C54844  11.886   2.902   3.430  0.0248  0.2358  0.2227
  416MOL0     C54845  11.105   2.633   3.557 -0.1178  0.2493  0.6491
  416MOL0     C54846  11.002   2.537   3.559  0.3840  0.2156  0.2742
  416MOL0     H54847  10.683   2.149   3.381 -3.3811 -0.3830 -1.3632
  416MOL0     H54848  10.467   2.053   3.397  0.7806 -2.1308  0.8618
  416MOL0     H54849  10.258   1.999   3.404  0.6486  0.3410  0.6077
  416MOL0     H54850  10.174   2.160   3.414  1.6906 -0.1705 -1.2682
  416MOL0     H54851  10.035   2.081   3.589 -0.4213 -2.1083  0.9946
  416MOL0     H54852  10.102   1.913   3.569 -3.6637 -2.4790 -3.6092
  416MOL0     H54853  10.044   1.892   3.345 -1.2502 -1.6913 -0.1923
  416MOL0     H54854   9.966   2.050   3.333  1.7454 -0.4170 -0.3663
  416MOL0     H54855   9.799   1.986   3.495  0.9937 -0.0038  0.7418
  416MOL0     H54856   9.800   1.894   3.342  1.6026  2.7039 -2.3405
  416MOL0     H54857   9.912   1.779   3.615  0.9050 -5.3617  0.1609
  416MOL0     H54858   9.908   1.692   3.461 -2.2950 -2.0297  1.1907
  416MOL0     H54859   9.654   1.714   3.461  0.2860 -3.1241  0.0240
  416MOL0     H54860   9.669   1.781   3.626 -1.3186 -0.0606 -1.0867
  416MOL0     H54861   9.819   1.527   3.563 -1.5454 -0.7483 -2.5470
  416MOL0     H54862   9.754   1.583   3.716  0.2472  2.5616 -0.1225
  416MOL0     H54863   9.670   1.375   3.574  0.2584  0.2092  0.0071
  416MOL0     H54864   9.561   1.496   3.512 -0.8033 -0.1134  0.6288
  416MOL0     H54865   9.660   1.406   3.876  0.0439  0.3988 -1.2428
  416MOL0     H54866   9.443   1.286   4.074 -0.7571 -0.1263 -1.4441
  416MOL0     H54867   9.326   1.414   4.085 -0.6290  1.6240  0.2235
  416MOL0     H54868   9.492   1.569   4.143  0.1420  1.0033 -3.1629
  416MOL0     H54869   9.634   1.464   4.116 -0.6654  2.1931  1.1252
  416MOL0     H54870   9.592   1.334   4.310 -3.2596 -2.6842 -2.2568
  416MOL0     H54871   9.580   1.502   4.360  0.9815 -1.5895  0.8238
  416MOL0     H54872   9.415   1.402   4.466  1.5497 -2.1233  0.5129
  416MOL0     H54873   9.357   1.315   4.323  1.0756  0.3147  0.5041
  416MOL0     H54874   9.183   1.304   4.432 -1.0725  0.2290  2.2929
  416MOL0     H54875   8.966   1.325   4.548 -2.5070 -0.0501 -2.3087
  416MOL0     H54876   8.515   1.483   4.444  0.5254 -0.1123 -0.3902
  416MOL0     H54877   8.272   1.524   4.530  0.0874  0.2207 -1.2668
  416MOL0     H54878   8.147   1.846   4.619  1.0404 -1.0031  0.8216
  416MOL0     H54879   8.061   1.798   4.771  1.6129  0.5590  0.9313
  416MOL0     H54880   7.972   1.603   4.632  2.4391 -1.0460  1.3448
  416MOL0     H54881   8.054   1.678   4.489  0.0510  0.2115 -0.3315
  416MOL0     H54882   7.813   1.791   4.655 -0.7657 -1.1804 -0.6812
  416MOL0     H54883   7.789   1.712   4.502 -4.1269  3.5053 -0.1795
  416MOL0     H54884   7.929   1.970   4.549 -0.3615  1.4208 -0.0470
  416MOL0     H54885   7.929   1.900   4.386 -1.9828  1.7563 -0.8577
  416MOL0     H54886   7.682   1.984   4.536 -1.5491  3.6782 -0.5265
  416MOL0     H54887   7.687   1.928   4.363 -1.8944  2.3400 -1.0063
  416MOL0     H54888   7.834   2.132   4.305  1.9130  3.6088  0.6920
  416MOL0     H54889   7.825   2.175   4.470  2.8578 -2.7558 -0.8356
  416MOL0     H54890   7.579   2.128   4.289 -1.4421  1.7296 -0.7173
  416MOL0     H54891   7.580   2.210   4.442 -0.3224  1.8103 -0.2921
  416MOL0     H54892   7.720   2.377   4.362 -0.7264 -0.7160  0.7558
  416MOL0     H54893   7.580   2.369   4.262 -0.8639 -2.2985 -0.5394
  416MOL0     H54894   8.415   1.843   4.773  2.2433  1.5157 -1.4099
  416MOL0     H54895   8.645   1.817   4.679 -0.9656  1.2750 -1.0783
  416MOL0     H54896   8.899   1.705   4.345 -0.9519 -1.2293 -3.3985
  416MOL0     H54897   9.154   1.692   4.281  0.9401  0.2213  0.2371
  416MOL0     H54898  10.357   2.279   3.729 -1.3111 -1.9548 -1.1118
  416MOL0     H54899  10.579   2.394   3.725 -0.4926 -0.1882 -0.4245
  416MOL0     H54900  11.147   2.291   3.364 -0.4960 -0.2126  0.9461
  416MOL0     H54901  11.325   2.470   3.362 -3.3234  1.8003 -3.8563
  416MOL0     H54902  11.343   2.749   3.662 -0.6055  1.5690  0.3365
  416MOL0     H54903  11.278   2.856   3.544  0.5434 -0.8742  0.0833
  416MOL0     H54904  11.521   2.928   3.603  0.5146 -0.1530  0.5362
  416MOL0     H54905  11.568   2.751   3.557  0.1780 -0.2245 -2.3977
  416MOL0     H54906  11.432   2.942   3.367 -1.2531 -1.5786 -1.6612
  416MOL0     H54907  11.532   2.816   3.321  0.1800 -1.1020 -0.2309
  416MOL0     H54908  11.645   3.010   3.278 -0.4262 -1.1057  0.0082
  416MOL0     H54909  11.642   3.087   3.440 -0.2600 -0.6282  0.3959
  416MOL0     H54910  11.984   2.861   3.446 -1.3361 -3.1594  0.6888
  416MOL0     H54911  11.107   2.725   3.615  2.3726 -0.4658  1.8467
  416MOL0     H54912  10.911   2.564   3.612 -0.0308 -0.0957 -0.2663
  417MOL0     O54913  10.189   4.564   3.428 -0.6982  0.6843  0.6212
  417MOL0     C54914  10.289   4.594   3.493  0.5489 -0.1593  0.4131
  417MOL0     O54915  10.405   4.517   3.489 -0.0104 -0.2014 -0.3001
  417MOL0     C54916  10.443   4.476   3.366  0.2009  0.0939  0.2749
  417MOL0     C54917  10.532   4.551   3.278  0.6247 -0.9419 -1.1270
  417MOL0     C54918  10.540   4.503   3.146 -0.8566  0.2838  0.2170
  417MOL0     C54919  10.488   4.387   3.106  0.3296 -0.1236  0.9311
  417MOL0     O54920  10.522   4.342   2.975 -0.2239 -0.2790  0.1560
  417MOL0     C54921  10.505   4.434   2.870  0.0870 -0.4424 -0.0666
  417MOL0     C54922  10.502   4.365   2.735  0.3311  0.6564 -0.4814
  417MOL0     C54923  10.420   4.431   2.638 -0.3228  0.1735  0.5093
  417MOL0     C54924  10.450   4.363   2.494 -0.0783 -0.3687 -0.2199
  417MOL0     C54925  10.344   4.389   2.386 -1.1753 -0.0319 -0.1228
  417MOL0     C54926  10.287   4.523   2.381  0.3106 -0.2502 -0.1519
  417MOL0     C54927  10.171   4.510   2.279  0.4114  0.9903  0.3221
  417MOL0     C54928  10.084   4.630   2.272 -0.7718 -0.5481 -0.3630
  417MOL0     N54929  10.014   4.640   2.145  0.3810  0.0328 -0.1081
  417MOL0     C54930   9.930   4.534   2.107 -0.6786  0.1127 -0.2130
  417MOL0     C54931   9.898   4.562   1.976  0.2672  0.8894 -0.3799
  417MOL0     C54932   9.815   4.472   1.882  1.0844  0.0348  0.4779
  417MOL0     C54933   9.704   4.547   1.820 -0.3971  1.4136  0.4812
  417MOL0     C54934   9.752   4.620   1.695 -0.7932 -0.2919 -0.2528
  417MOL0     C54935   9.666   4.728   1.646  0.6352 -0.3787  0.2202
  417MOL0     O54936   9.660   4.840   1.739  0.7941 -0.6298  0.0241
  417MOL0     C54937   9.560   4.934   1.730 -0.5655 -0.2719 -0.6273
  417MOL0     C54938   9.512   4.973   1.853  0.9953  0.7174  0.3643
  417MOL0     C54939   9.397   5.064   1.850  0.3633 -0.2357 -0.1146
  417MOL0     C54940   9.353   5.127   1.737 -0.9887  1.7869 -0.0604
  417MOL0     C54941   9.258   5.235   1.737  0.1425  0.4621  0.5297
  417MOL0     O54942   9.293   5.330   1.644 -0.4709  0.1147 -0.0070
  417MOL0     C54943   9.220   5.440   1.647 -0.5731 -0.3704  0.2579
  417MOL0     C54944   9.116   5.477   1.558 -0.6577 -0.2813  0.2364
  417MOL0     C54945   9.059   5.602   1.561  0.3632 -0.7444  0.8031
  417MOL0     C54946   9.113   5.698   1.646 -0.1143 -0.3011  0.3473
  417MOL0     O54947   9.064   5.823   1.631 -0.3464 -0.6482  0.1157
  417MOL0     C54948   9.161   5.934   1.647  0.1464 -0.3009  0.3322
  417MOL0     C54949   9.089   6.067   1.607 -0.8422  0.6975 -0.7845
  417MOL0     C54950   9.188   6.168   1.548  0.6355  0.3651 -0.2118
  417MOL0     C54951   9.122   6.287   1.465  0.1066 -0.8972  0.3891
  417MOL0     C54952   9.235   6.390   1.458 -0.2751  0.2856  0.2654
  417MOL0     C54953   9.197   6.498   1.359 -0.6959 -0.5724  0.6122
  417MOL0     C54954   9.292   6.627   1.351  0.6045 -0.5643 -0.1959
  417MOL0     C54955   9.437   6.598   1.335 -0.9662  0.6702 -0.0955
  417MOL0    Cl54956   9.540   6.755   1.346 -0.1068  0.0960  0.1322
  417MOL0     C54957   9.215   5.664   1.737 -0.5736 -1.1992  0.3400
  417MOL0     C54958   9.263   5.540   1.732  0.3340  0.1369  0.0899
  417MOL0     O54959   9.176   5.243   1.830 -0.7022  0.6827  0.3549
  417MOL0     C54960   9.411   5.090   1.614  0.5984 -0.1696  0.3410
  417MOL0     C54961   9.511   4.993   1.609 -0.6166  1.3809  0.1639
  417MOL0     N54962   9.957   4.674   1.939 -0.8994 -1.1475  0.2717
  417MOL0     N54963  10.030   4.722   2.035 -0.1080  0.7360 -0.0212
  417MOL0     C54964  10.433   4.300   3.199  0.2870  0.1895  0.7464
  417MOL0     C54965  10.408   4.352   3.325  1.0585  0.9326 -0.5141
  417MOL0     C54966  10.277   4.698   3.591  0.8240  0.3417 -1.0650
  417MOL0     C54967  10.158   4.778   3.599  0.1193 -0.2300 -0.6040
  417MOL0     C54968  10.145   4.876   3.702 -0.1912 -0.9493  0.3452
  417MOL0     C54969  10.241   4.892   3.804 -0.4188 -0.3885  0.8676
  417MOL0     O54970  10.234   4.986   3.903  0.0632 -0.6072 -0.6102
  417MOL0     C54971  10.096   5.026   3.937 -0.6859  0.5486 -0.2865
  417MOL0     C54972  10.094   5.092   4.074  0.5305 -0.0633  1.1141
  417MOL0     C54973  10.200   5.194   4.111 -0.6733  0.4224 -0.2191
  417MOL0     C54974  10.219   5.288   3.989  0.5461  1.2473 -0.3602
  417MOL0     C54975  10.105   5.356   3.936 -0.5652  0.0865 -0.2591
  417MOL0     C54976  10.007   5.403   3.887 -0.1593 -0.2120 -0.9221
  417MOL0     C54977  10.358   4.812   3.804  0.1388  0.3028  0.0587
  417MOL0     C54978  10.369   4.709   3.705  0.4199 -0.5701  0.0512
  417MOL0     H54979  10.580   4.645   3.304 -0.5358 -0.0032 -2.2032
  417MOL0     H54980  10.604   4.566   3.084  1.3163  1.0057  2.9492
  417MOL0     H54981  10.581   4.513   2.878 -0.6911  0.3890 -0.6688
  417MOL0     H54982  10.405   4.476   2.882 -0.0151 -0.4015 -1.0227
  417MOL0     H54983  10.460   4.264   2.744 -1.3911  1.3592 -0.3057
  417MOL0     H54984  10.606   4.356   2.701  1.0446  3.3681  0.7407
  417MOL0     H54985  10.439   4.538   2.646 -2.0722  0.3666  4.5066
  417MOL0     H54986  10.315   4.413   2.665  0.2449 -0.2537  2.6121
  417MOL0     H54987  10.551   4.397   2.468  0.8728 -4.1107 -2.0905
  417MOL0     H54988  10.465   4.255   2.506  0.0328 -0.0655  3.7631
  417MOL0     H54989  10.269   4.312   2.407  0.2694 -1.3001  0.5594
  417MOL0     H54990  10.387   4.353   2.292  0.3180  2.5888 -0.5390
  417MOL0     H54991  10.368   4.592   2.355  0.3207 -0.3513 -0.3907
  417MOL0     H54992  10.243   4.539   2.480 -0.1830  0.1203 -0.4288
  417MOL0     H54993  10.195   4.495   2.173 -0.5190  0.7742  0.1312
  417MOL0     H54994  10.105   4.428   2.311  0.5594  0.4149 -0.8012
  417MOL0     H54995  10.144   4.721   2.282  0.5121 -1.3804 -0.3149
  417MOL0     H54996  10.011   4.633   2.354 -0.6560  3.3653 -0.2087
  417MOL0     H54997   9.914   4.454   2.178  3.4229 -0.9192 -0.2242
  417MOL0     H54998   9.777   4.392   1.946 -1.0394 -1.5063 -2.4908
  417MOL0     H54999   9.868   4.416   1.806 -0.6188 -0.3374 -0.4909
  417MOL0     H55000   9.659   4.612   1.896  1.3479  0.1035  2.7856
  417MOL0     H55001   9.622   4.482   1.789 -0.8970  3.0253 -1.8060
  417MOL0     H55002   9.850   4.666   1.710  0.6424 -2.2548 -2.7814
  417MOL0     H55003   9.762   4.547   1.614  0.4819 -1.2902  0.7790
  417MOL0     H55004   9.573   4.682   1.610  0.0104  1.2962 -0.3795
  417MOL0     H55005   9.708   4.776   1.557  2.0536  1.2015  1.6784
  417MOL0     H55006   9.540   4.925   1.947 -0.3093 -0.1721  0.3224
  417MOL0     H55007   9.352   5.074   1.949 -2.4503 -2.9699 -0.9621
  417MOL0     H55008   9.080   5.407   1.483 -1.9218 -0.9834  1.4728
  417MOL0     H55009   8.974   5.625   1.498  2.3874  1.1775 -1.4007
  417MOL0     H55010   9.232   5.913   1.566 -1.1608 -1.1200 -0.6328
  417MOL0     H55011   9.195   5.952   1.749 -2.0736 -2.1015  1.4717
  417MOL0     H55012   9.030   6.107   1.690 -1.7897  1.5445 -1.8359
  417MOL0     H55013   9.020   6.036   1.527  0.3645 -0.1956 -1.5105
  417MOL0     H55014   9.261   6.121   1.481 -0.0516  1.4509 -1.7756
  417MOL0     H55015   9.246   6.207   1.632 -1.5960  0.8509  1.2029
  417MOL0     H55016   9.090   6.261   1.363  3.4408  0.3099 -1.0943
  417MOL0     H55017   9.036   6.323   1.523 -0.5209 -0.9852 -0.4643
  417MOL0     H55018   9.328   6.341   1.431 -1.1610 -2.2968  1.5689
  417MOL0     H55019   9.248   6.435   1.557  1.7853 -0.0671  0.1840
  417MOL0     H55020   9.101   6.537   1.395 -1.6600 -3.6189  1.6140
  417MOL0     H55021   9.176   6.460   1.259 -3.6431  2.0550  0.0582
  417MOL0     H55022   9.263   6.700   1.276 -2.3373 -2.4721 -1.0603
  417MOL0     H55023   9.275   6.682   1.445 -2.5776 -2.7074  0.6407
  417MOL0     H55024   9.464   6.551   1.240  2.2155  0.6185  0.6939
  417MOL0     H55025   9.468   6.529   1.414  1.5183  0.8618 -0.8248
  417MOL0     H55026   9.246   5.737   1.811 -1.9735 -0.8965  0.6503
  417MOL0     H55027   9.346   5.506   1.792 -0.2180  0.9374  1.3751
  417MOL0     H55028   9.369   5.141   1.527 -3.8527 -2.9217  0.5749
  417MOL0     H55029   9.555   4.948   1.521 -0.0678 -2.0339  2.0253
  417MOL0     H55030  10.407   4.199   3.171  0.1265  0.4008  0.1084
  417MOL0     H55031  10.360   4.286   3.396  0.5055  1.4576 -0.3872
  417MOL0     H55032  10.075   4.771   3.529 -3.2587 -0.0531  3.0305
  417MOL0     H55033  10.052   4.932   3.700  0.2735 -0.1579  0.8348
  417MOL0     H55034  10.043   4.932   3.955 -0.3358  0.5374  0.7384
  417MOL0     H55035  10.050   5.096   3.867  1.7587  1.5103 -1.0504
  417MOL0     H55036   9.997   5.141   4.084 -0.2237 -1.3543  0.3374
  417MOL0     H55037  10.092   5.015   4.151  3.9323  1.0730  2.5620
  417MOL0     H55038  10.292   5.139   4.136 -0.6629 -0.3224 -1.7540
  417MOL0     H55039  10.179   5.248   4.203  0.7105  5.6314 -2.6065
  417MOL0     H55040  10.291   5.364   4.021  0.8417 -0.0684  2.4215
  417MOL0     H55041  10.278   5.240   3.910 -0.8230  1.6899 -1.6971
  417MOL0     H55042   9.916   5.448   3.853  1.7537  2.3935 -3.0431
  417MOL0     H55043  10.435   4.833   3.877  0.9999  0.6756 -0.9300
  417MOL0     H55044  10.450   4.637   3.696  1.1949  0.0095  1.8967
  418MOL0     O55045  11.380   2.500   1.827  0.6342 -0.0929  0.0092
  418MOL0     C55046  11.475   2.563   1.778 -0.6950  1.6454  0.7728
  418MOL0     O55047  11.551   2.524   1.673  0.4482  0.2997 -0.4431
  418MOL0     C55048  11.513   2.404   1.622 -0.6328 -0.3935  0.5770
  418MOL0     C55049  11.421   2.387   1.512 -0.3372 -0.0872 -0.4667
  418MOL0     C55050  11.396   2.257   1.474 -0.9986  0.1623  0.3218
  418MOL0     C55051  11.433   2.150   1.545  0.0477  0.6368 -0.4159
  418MOL0     O55052  11.376   2.026   1.519 -0.6995 -0.5038 -0.6821
  418MOL0     C55053  11.430   1.912   1.589  0.2812  0.6202  0.0344
  418MOL0     C55054  11.571   1.870   1.556  0.5418  0.3290 -0.3806
  418MOL0     C55055  11.635   1.751   1.629  0.1082 -0.1404  0.3658
  418MOL0     C55056  11.743   1.689   1.541 -1.0050  0.3909 -0.4483
  418MOL0     C55057  11.794   1.567   1.607 -0.3279 -0.1676  0.6766
  418MOL0     C55058  11.920   1.516   1.544 -0.1653  0.1263 -0.8482
  418MOL0     C55059  11.990   1.393   1.612 -0.1948 -0.2081 -0.0292
  418MOL0     C55060  12.119   1.367   1.538 -0.1972  0.7514 -0.8424
  418MOL0     N55061  12.163   1.226   1.576 -0.3382 -0.3872 -0.5511
  418MOL0     C55062  12.232   1.189   1.687 -1.0027 -0.1610 -0.4694
  418MOL0     C55063  12.253   1.052   1.675 -0.3989  0.4287 -0.2834
  418MOL0     C55064  12.318   0.950   1.761 -0.0377  0.8601  1.2518
  418MOL0     C55065  12.436   0.888   1.687 -0.1805  1.1213  0.0824
  418MOL0     C55066  12.508   0.797   1.790  0.4796  0.4533  0.3151
  418MOL0     C55067  12.624   0.720   1.730  0.0898 -0.2511 -0.2669
  418MOL0     O55068  12.710   0.792   1.646 -0.0217 -0.6799 -0.5214
  418MOL0     C55069  12.833   0.730   1.621 -0.7958  0.3605 -0.1324
  418MOL0     C55070  12.920   0.801   1.548  0.2398 -0.2739  0.5901
  418MOL0     C55071  13.053   0.750   1.523 -0.7910 -0.8834  0.6646
  418MOL0     C55072  13.089   0.620   1.558  1.6786  0.2659  0.1553
  418MOL0     C55073  13.213   0.554   1.517  0.4631  0.7139  1.2418
  418MOL0     O55074  13.326   0.643   1.514  0.1692  0.4118 -0.9295
  418MOL0     C55075  13.453   0.596   1.477  0.2416  0.1798 -0.7143
  418MOL0     C55076  13.477   0.503   1.378 -0.4651 -0.3064 -0.0322
  418MOL0     C55077  13.608   0.458   1.357  0.2043 -0.0913  0.4251
  418MOL0     C55078  13.711   0.502   1.439  0.0538  0.1961 -0.5160
  418MOL0     O55079  13.838   0.455   1.457  1.1509  1.3906  0.0796
  418MOL0     C55080  13.868   0.353   1.366 -1.0257  0.3607 -0.1496
  418MOL0     C55081  13.963   0.254   1.438 -0.8104 -0.2587 -0.4980
  418MOL0     C55082  14.064   0.314   1.532 -0.7129 -0.2877  1.3699
  418MOL0     C55083  14.149   0.225   1.611 -0.3434 -0.0675 -0.5393
  418MOL0     C55084  14.281   0.297   1.639 -0.0949 -0.0208 -0.8452
  418MOL0     C55085  14.373   0.304   1.519 -1.3800  0.3901  0.4663
  418MOL0     C55086  14.502   0.357   1.583  0.0093 -0.4945  0.0254
  418MOL0     C55087  14.592   0.384   1.457 -0.2184  0.7625 -0.8795
  418MOL0    Cl55088  14.638   0.233   1.371  0.2293  0.0079  0.1248
  418MOL0     C55089  13.688   0.620   1.521 -0.1930  0.6819  0.1027
  418MOL0     C55090  13.559   0.657   1.542 -0.7095 -0.8568  0.0914
  418MOL0     O55091  13.215   0.428   1.501 -0.6772  0.5082  0.1518
  418MOL0     C55092  12.980   0.545   1.620 -1.2961 -0.3272 -0.1060
  418MOL0     C55093  12.866   0.596   1.658  0.6579 -0.0009 -0.2496
  418MOL0     N55094  12.202   1.011   1.550 -0.1999 -0.1895  0.3790
  418MOL0     N55095  12.154   1.121   1.492 -1.1697  0.0424  0.0258
  418MOL0     C55096  11.533   2.167   1.649  0.1731 -1.1615 -0.6548
  418MOL0     C55097  11.571   2.292   1.679  0.3650 -0.2895 -0.1829
  418MOL0     C55098  11.533   2.681   1.851 -0.4012  0.1769 -0.2125
  418MOL0     C55099  11.474   2.725   1.969  0.0317  0.8418 -0.1563
  418MOL0     C55100  11.518   2.845   2.037  0.3650 -0.2123 -0.3141
  418MOL0     C55101  11.626   2.918   1.980  0.0814  0.3717 -0.5014
  418MOL0     O55102  11.672   3.029   2.045 -0.6032  0.4718  0.9890
  418MOL0     C55103  11.690   3.025   2.188 -0.0907 -0.2458  1.0549
  418MOL0     C55104  11.760   3.172   2.223  0.9458  0.2095  0.8405
  418MOL0     C55105  11.660   3.282   2.184  0.1487 -0.3324 -1.4148
  418MOL0     C55106  11.694   3.428   2.240  0.4365 -0.3487  0.0993
  418MOL0     C55107  11.825   3.478   2.188  0.9672  0.3425 -0.4087
  418MOL0     C55108  11.933   3.514   2.155 -0.6800 -0.1371  0.4498
  418MOL0     C55109  11.695   2.867   1.868 -0.9318  0.1464 -1.3291
  418MOL0     C55110  11.640   2.753   1.795  0.2841 -0.5713 -0.0827
  418MOL0     H55111  11.368   2.470   1.467  2.3016  1.3783 -1.0719
  418MOL0     H55112  11.325   2.248   1.392 -3.9455  1.6240  2.5367
  418MOL0     H55113  11.377   1.818   1.569  3.0605 -0.5792 -2.4863
  418MOL0     H55114  11.428   1.923   1.698 -3.3067 -0.8110  0.2770
  418MOL0     H55115  11.644   1.947   1.581  0.9431 -1.0158  3.3325
  418MOL0     H55116  11.565   1.840   1.451  0.5489  1.0747 -0.5981
  418MOL0     H55117  11.570   1.669   1.659 -0.7541  1.1202  2.1064
  418MOL0     H55118  11.674   1.788   1.725  3.0697  2.4509 -1.6171
  418MOL0     H55119  11.697   1.670   1.443 -1.6528 -0.2753 -0.0281
  418MOL0     H55120  11.826   1.758   1.525  0.4114 -1.2714 -0.5806
  418MOL0     H55121  11.713   1.494   1.596  1.4456 -2.2699  0.8537
  418MOL0     H55122  11.818   1.587   1.712  1.2738 -0.1278  0.3309
  418MOL0     H55123  11.995   1.594   1.558  0.3507 -0.5762  0.5319
  418MOL0     H55124  11.889   1.485   1.444 -2.6390 -0.8510  0.1457
  418MOL0     H55125  12.002   1.413   1.719 -1.3613  1.8909 -0.2380
  418MOL0     H55126  11.917   1.313   1.595 -1.9085  1.3660 -0.4289
  418MOL0     H55127  12.199   1.434   1.568 -0.9741  0.5142  2.0374
  418MOL0     H55128  12.088   1.358   1.433 -2.3436 -0.1463 -0.1903
  418MOL0     H55129  12.245   1.250   1.776  0.2693 -0.5985 -0.3466
  418MOL0     H55130  12.245   0.870   1.769  0.5397  0.0354 -1.0062
  418MOL0     H55131  12.357   0.990   1.855  2.2366  2.6371 -0.3068
  418MOL0     H55132  12.505   0.967   1.657  0.1134 -0.1480 -2.9484
  418MOL0     H55133  12.406   0.825   1.603 -0.5282  1.0658  0.2476
  418MOL0     H55134  12.557   0.851   1.872  2.5097 -2.0888  0.9233
  418MOL0     H55135  12.428   0.730   1.823  0.5533  0.7435  1.1060
  418MOL0     H55136  12.581   0.639   1.670  0.0721  1.9075 -3.3859
  418MOL0     H55137  12.680   0.679   1.814 -1.0023  0.2214  0.7275
  418MOL0     H55138  12.894   0.904   1.523  0.2299 -0.0531  1.4810
  418MOL0     H55139  13.126   0.815   1.475 -1.4373  0.6145  1.6512
  418MOL0     H55140  13.400   0.449   1.325  1.1039 -1.5702 -1.1243
  418MOL0     H55141  13.627   0.380   1.284  2.7131  0.1379  0.7511
  418MOL0     H55142  13.912   0.392   1.275 -0.0290  1.1788  0.6584
  418MOL0     H55143  13.783   0.285   1.357  0.6962 -2.0978  0.9352
  418MOL0     H55144  14.008   0.200   1.355 -0.9552  1.2181 -1.5746
  418MOL0     H55145  13.909   0.171   1.485 -0.6398 -1.6989 -2.7274
  418MOL0     H55146  14.013   0.373   1.609  1.3882  0.5330  2.1964
  418MOL0     H55147  14.110   0.387   1.465 -1.5727 -1.2384 -0.3360
  418MOL0     H55148  14.108   0.191   1.707  1.8580  0.9281  0.8422
  418MOL0     H55149  14.161   0.133   1.553 -0.9772 -0.9150  0.6249
  418MOL0     H55150  14.331   0.237   1.716 -0.0566  0.1424 -0.7430
  418MOL0     H55151  14.267   0.396   1.682  0.2133 -1.0097  1.7683
  418MOL0     H55152  14.341   0.366   1.435 -2.2451 -3.2704 -2.1557
  418MOL0     H55153  14.383   0.206   1.472  2.1602  0.5921  0.4960
  418MOL0     H55154  14.501   0.454   1.633  0.3982 -1.4246  1.9623
  418MOL0     H55155  14.555   0.285   1.646  3.9281  0.8501 -1.4260
  418MOL0     H55156  14.678   0.436   1.498 -2.1182  2.3379  1.3009
  418MOL0     H55157  14.540   0.446   1.383  1.0412  1.2023 -1.4273
  418MOL0     H55158  13.765   0.668   1.580 -1.2450  0.0087  2.1211
  418MOL0     H55159  13.537   0.738   1.610  0.4478 -0.6862  0.2859
  418MOL0     H55160  13.011   0.443   1.643  2.1157  1.4611  5.1285
  418MOL0     H55161  12.795   0.532   1.710  2.7479 -1.2059  1.3015
  418MOL0     H55162  11.579   2.098   1.719  1.6950  0.8959  0.4850
  418MOL0     H55163  11.644   2.327   1.751  1.1087 -1.9036 -0.1210
  418MOL0     H55164  11.384   2.678   2.007  0.2662 -0.6014 -1.3290
  418MOL0     H55165  11.465   2.889   2.121 -1.7905 -0.3335 -1.5402
  418MOL0     H55166  11.760   2.945   2.213  3.6246  2.6042  0.6775
  418MOL0     H55167  11.598   3.016   2.246 -1.4338 -3.3548 -1.2793
  418MOL0     H55168  11.779   3.169   2.331  1.6777 -0.0357  0.7082
  418MOL0     H55169  11.863   3.187   2.189  1.0185 -0.2235  0.8707
  418MOL0     H55170  11.560   3.261   2.224  0.1172 -1.2236 -1.9512
  418MOL0     H55171  11.657   3.304   2.077 -3.7298  0.0876 -1.3804
  418MOL0     H55172  11.612   3.491   2.204  0.1840 -0.5029  0.3940
  418MOL0     H55173  11.696   3.443   2.348 -1.6589  3.1547 -0.2112
  418MOL0     H55174  12.036   3.524   2.128 -1.3735  1.9070 -1.7903
  418MOL0     H55175  11.781   2.916   1.823  2.0365 -2.4890  1.0520
  418MOL0     H55176  11.682   2.713   1.704 -0.3675 -2.0558  0.2375
  419MOL0     O55177   2.116   4.842   4.266 -0.5754  0.0492  0.1405
  419MOL0     C55178   2.163   4.904   4.176  0.8405  0.1436  0.3399
  419MOL0     O55179   2.204   4.846   4.060 -0.8402 -0.2737 -0.4250
  419MOL0     C55180   2.220   4.710   4.059  0.2066  0.2613 -0.0180
  419MOL0     C55181   2.265   4.629   4.163  0.2550  0.5138 -0.1418
  419MOL0     C55182   2.274   4.490   4.145 -0.0080  0.7871  0.0749
  419MOL0     C55183   2.259   4.431   4.021 -0.0988 -0.2057  0.1882
  419MOL0     O55184   2.285   4.293   3.996 -0.4847 -0.5091 -0.1543
  419MOL0     C55185   2.367   4.252   3.893  0.2085 -0.0470  0.7517
  419MOL0     C55186   2.288   4.134   3.822 -0.3064  1.4090 -0.3045
  419MOL0     C55187   2.389   4.046   3.737  0.5859 -0.8411  0.0563
  419MOL0     C55188   2.419   4.105   3.596  1.2574  0.2523  0.5342
  419MOL0     C55189   2.530   4.013   3.532  0.5044 -1.2314 -0.1671
  419MOL0     C55190   2.477   3.879   3.475  0.0466 -0.4144  0.1595
  419MOL0     C55191   2.586   3.826   3.384  0.0253  0.8790  0.1405
  419MOL0     C55192   2.566   3.685   3.322  0.2287 -0.0162  0.2156
  419MOL0     N55193   2.691   3.672   3.242 -0.2435  0.0990  0.8686
  419MOL0     C55194   2.702   3.681   3.104  1.0480  0.0906 -0.3675
  419MOL0     C55195   2.817   3.625   3.077 -0.0644 -0.0788 -0.7320
  419MOL0     C55196   2.873   3.604   2.937 -0.1528 -0.3694 -1.6210
  419MOL0     C55197   2.998   3.692   2.907 -0.4304 -1.0255  0.5061
  419MOL0     C55198   2.971   3.834   2.842  0.2729 -0.4314  0.5676
  419MOL0     C55199   2.867   3.913   2.913 -0.1494 -0.0435 -0.1608
  419MOL0     O55200   2.911   3.953   3.052  1.0950  1.0512  0.1992
  419MOL0     C55201   2.842   4.056   3.109 -0.5205  1.3630 -0.7946
  419MOL0     C55202   2.876   4.073   3.250 -0.6704  0.2686  0.3556
  419MOL0     C55203   2.826   4.173   3.326  0.3345 -1.2784  0.0172
  419MOL0     C55204   2.748   4.271   3.261  0.7722 -0.3151  0.2672
  419MOL0     C55205   2.701   4.389   3.327 -0.6269  0.5348  1.1482
  419MOL0     O55206   2.697   4.505   3.244  0.8563 -0.4068 -0.6403
  419MOL0     C55207   2.671   4.632   3.288  0.0484 -1.3477 -0.3021
  419MOL0     C55208   2.716   4.687   3.406 -0.8168  0.1638 -0.8264
  419MOL0     C55209   2.693   4.820   3.425  1.1492  0.0061  0.0737
  419MOL0     C55210   2.613   4.895   3.327 -1.8739 -0.8096 -0.0678
  419MOL0     O55211   2.607   5.034   3.359 -0.0740  0.0159  0.0629
  419MOL0     C55212   2.587   5.134   3.260 -0.5786  0.9413 -0.6570
  419MOL0     C55213   2.649   5.274   3.321  0.0865  0.2386  0.3522
  419MOL0     C55214   2.632   5.405   3.234  0.0995 -0.5556  0.2624
  419MOL0     C55215   2.674   5.379   3.092  0.0865 -0.7695 -0.0840
  419MOL0     C55216   2.704   5.516   3.023 -0.4858 -0.3319  0.1595
  419MOL0     C55217   2.583   5.580   2.974 -0.2213 -0.4821 -0.9974
  419MOL0     C55218   2.603   5.733   2.937  0.0013 -0.2809  0.3007
  419MOL0     C55219   2.486   5.788   2.852  0.8407  0.9239  0.1110
  419MOL0    Cl55220   2.361   5.824   2.981  0.2378  0.6110  0.7539
  419MOL0     C55221   2.560   4.835   3.216  0.7362 -1.1583 -0.2841
  419MOL0     C55222   2.586   4.702   3.203 -0.8043 -0.7226  0.3495
  419MOL0     O55223   2.686   4.384   3.446  0.0794  1.0083 -0.7065
  419MOL0     C55224   2.704   4.250   3.125 -0.2608 -1.4402 -0.0621
  419MOL0     C55225   2.757   4.151   3.044 -0.6757 -0.5698  0.3068
  419MOL0     N55226   2.882   3.584   3.198  1.0962  0.3782 -0.3052
  419MOL0     N55227   2.798   3.610   3.293 -0.8305 -0.6921  0.6075
  419MOL0     C55228   2.210   4.515   3.920  0.3709 -0.2092  0.8467
  419MOL0     C55229   2.192   4.655   3.934 -0.1710  0.2287  0.5255
  419MOL0     C55230   2.153   5.044   4.179  0.2906 -0.7188 -0.1938
  419MOL0     C55231   2.106   5.117   4.295 -0.6563 -1.1751 -0.5288
  419MOL0     C55232   2.089   5.256   4.284  0.9233 -0.4618 -0.5302
  419MOL0     C55233   2.130   5.335   4.181 -0.9499  0.0776  0.8098
  419MOL0     O55234   2.136   5.471   4.187  0.0164 -0.6606 -0.2894
  419MOL0     C55235   2.241   5.546   4.125  0.2340  0.4737 -1.5421
  419MOL0     C55236   2.311   5.638   4.234 -0.4133  0.9901 -0.0672
  419MOL0     C55237   2.222   5.679   4.354  0.6606 -0.3751 -0.1432
  419MOL0     C55238   2.272   5.790   4.450  0.4496 -0.1669  0.7782
  419MOL0     C55239   2.265   5.920   4.388  0.3520  0.3264 -0.1837
  419MOL0     C55240   2.284   6.030   4.347  0.0371 -0.5577  0.3655
  419MOL0     C55241   2.166   5.263   4.064  0.0711 -0.2726  0.3631
  419MOL0     C55242   2.166   5.121   4.066  0.5202  0.2923 -0.0517
  419MOL0     H55243   2.290   4.685   4.254  0.8035  4.3022 -2.4013
  419MOL0     H55244   2.332   4.427   4.212  2.0534  4.1097  1.6686
  419MOL0     H55245   2.456   4.212   3.941 -1.3347 -2.9185  1.4345
  419MOL0     H55246   2.386   4.330   3.818 -1.8213 -2.0895 -2.1317
  419MOL0     H55247   2.203   4.161   3.758 -0.8962 -0.9255 -0.6094
  419MOL0     H55248   2.241   4.059   3.886  0.5430  2.9511  2.2604
  419MOL0     H55249   2.341   3.948   3.725  0.0716 -0.6976  0.8798
  419MOL0     H55250   2.483   4.045   3.793  0.6418  1.3872  0.0860
  419MOL0     H55251   2.329   4.106   3.534  0.7476 -2.9310  1.0553
  419MOL0     H55252   2.458   4.207   3.605 -1.1486  1.5752 -2.4118
  419MOL0     H55253   2.606   3.997   3.608  0.5634  0.3111  0.1370
  419MOL0     H55254   2.567   4.077   3.451  0.3931  1.4499  1.7811
  419MOL0     H55255   2.380   3.888   3.424 -0.4662 -0.2707  1.1488
  419MOL0     H55256   2.466   3.802   3.552 -0.3782  0.6672  1.2168
  419MOL0     H55257   2.610   3.893   3.301 -1.7784  1.6563  0.1986
  419MOL0     H55258   2.679   3.818   3.441  0.0264 -0.2686  0.0004
  419MOL0     H55259   2.484   3.684   3.250  1.3601  0.6625 -1.1273
  419MOL0     H55260   2.556   3.612   3.403 -0.6733  1.0458  1.1062
  419MOL0     H55261   2.631   3.708   3.027 -0.4916 -1.8750  0.2734
  419MOL0     H55262   2.793   3.621   2.865  1.5336  0.5717 -3.4041
  419MOL0     H55263   2.894   3.497   2.936  1.4099 -0.5083  4.7774
  419MOL0     H55264   3.060   3.627   2.845 -1.7333 -0.4906 -1.4445
  419MOL0     H55265   3.056   3.704   2.999  0.0251 -0.2355  0.1308
  419MOL0     H55266   3.066   3.888   2.855 -2.2399  4.2280  1.8153
  419MOL0     H55267   2.942   3.821   2.738 -0.2450 -2.4449  0.9279
  419MOL0     H55268   2.773   3.858   2.905  1.3148 -3.0686  1.7778
  419MOL0     H55269   2.845   3.997   2.846  1.3080 -0.6768 -1.5190
  419MOL0     H55270   2.949   4.006   3.294  0.1789 -0.7009 -2.3399
  419MOL0     H55271   2.852   4.179   3.431  0.6331 -1.3297 -0.0539
  419MOL0     H55272   2.789   4.630   3.462  2.1382 -0.7800 -5.1206
  419MOL0     H55273   2.722   4.861   3.521 -2.3535  2.3270  0.2835
  419MOL0     H55274   2.487   5.140   3.214 -0.5146 -2.7502 -1.6079
  419MOL0     H55275   2.655   5.109   3.178 -3.8556  0.5152 -3.5100
  419MOL0     H55276   2.756   5.250   3.328 -0.5215 -2.4171  1.8611
  419MOL0     H55277   2.619   5.304   3.422  1.4354  4.5654 -0.3061
  419MOL0     H55278   2.705   5.474   3.278 -1.4613  0.7493  0.8702
  419MOL0     H55279   2.538   5.455   3.255 -0.0909 -2.1279  3.9639
  419MOL0     H55280   2.762   5.313   3.091  0.6558 -0.0224 -1.8472
  419MOL0     H55281   2.593   5.326   3.042 -2.5371  1.1814  1.7935
  419MOL0     H55282   2.760   5.498   2.931 -0.6486  2.1438 -0.5124
  419MOL0     H55283   2.763   5.585   3.085 -0.1495  0.5338 -1.0690
  419MOL0     H55284   2.510   5.578   3.056 -0.7868 -1.8348 -1.5127
  419MOL0     H55285   2.537   5.512   2.902  0.3233 -1.5742 -0.3374
  419MOL0     H55286   2.607   5.804   3.021 -2.2812  1.2795 -0.8224
  419MOL0     H55287   2.690   5.734   2.870 -1.2936 -0.1024 -1.4169
  419MOL0     H55288   2.446   5.701   2.798  1.9697 -1.4541  2.8498
  419MOL0     H55289   2.515   5.876   2.794 -1.9039  1.6040 -0.3603
  419MOL0     H55290   2.485   4.886   3.156 -0.6355  0.0348  2.2527
  419MOL0     H55291   2.542   4.645   3.122 -1.7790 -2.8766  2.2662
  419MOL0     H55292   2.626   4.316   3.089 -0.0792 -1.0726  0.2067
  419MOL0     H55293   2.727   4.145   2.940 -2.1642 -0.2985  0.7067
  419MOL0     H55294   2.191   4.478   3.820 -0.3178 -0.5841  1.1050
  419MOL0     H55295   2.147   4.704   3.848  0.2273 -4.1004 -2.4562
  419MOL0     H55296   2.076   5.059   4.382 -2.1787 -0.5794 -0.6309
  419MOL0     H55297   2.047   5.308   4.369  0.2755 -0.3229 -0.9278
  419MOL0     H55298   2.197   5.607   4.046 -0.1683 -0.3266 -1.9352
  419MOL0     H55299   2.318   5.484   4.078  2.2193 -1.0360  3.0569
  419MOL0     H55300   2.412   5.611   4.265 -0.6178  1.9006  1.5055
  419MOL0     H55301   2.328   5.731   4.179 -1.1999  0.1182 -1.8492
  419MOL0     H55302   2.210   5.588   4.413 -1.3451 -0.3242 -0.4021
  419MOL0     H55303   2.122   5.711   4.326 -0.8818 -3.8946  0.7639
  419MOL0     H55304   2.200   5.802   4.532  1.4262 -0.6489  1.7264
  419MOL0     H55305   2.374   5.771   4.483  0.9934  0.5175 -0.4507
  419MOL0     H55306   2.276   6.136   4.335 -1.4966 -0.8532 -1.7406
  419MOL0     H55307   2.179   5.322   3.974  0.7105 -3.0311 -1.4893
  419MOL0     H55308   2.191   5.072   3.972  1.8183  1.1661 -0.1872
  420MOL0     O55309   1.294   1.842   6.587 -0.0252  0.9591 -0.1860
  420MOL0     C55310   1.351   1.871   6.480 -0.4677 -0.5716  0.1637
  420MOL0     O55311   1.486   1.892   6.463 -1.2276 -0.2531 -0.1865
  420MOL0     C55312   1.565   1.905   6.579 -0.1593 -0.2419  0.4918
  420MOL0     C55313   1.694   1.842   6.570  0.6328 -0.2336  0.3117
  420MOL0     C55314   1.789   1.867   6.664  0.5205 -0.1152 -1.3527
  420MOL0     C55315   1.760   1.953   6.778  0.1053  1.1854  0.3724
  420MOL0     O55316   1.856   1.962   6.872 -0.0327  0.2904 -0.1821
  420MOL0     C55317   1.912   1.843   6.929 -0.2478  0.4708  0.6665
  420MOL0     C55318   2.030   1.852   7.019 -0.1393  0.3830  0.7450
  420MOL0     C55319   1.993   1.952   7.124  0.2582 -0.2137  1.1648
  420MOL0     C55320   2.096   1.972   7.239 -0.1097 -0.1124 -0.0963
  420MOL0     C55321   2.106   2.112   7.309  0.1973 -0.0517 -0.0464
  420MOL0     C55322   1.993   2.127   7.412 -0.1554 -0.0590  0.5937
  420MOL0     C55323   1.962   2.267   7.470 -0.0433 -0.0271  0.2870
  420MOL0     C55324   1.955   2.382   7.365  0.4908  0.0747 -0.9645
  420MOL0     N55325   1.866   2.490   7.397  0.0474  0.4321  0.3066
  420MOL0     C55326   1.893   2.622   7.362  0.7369  0.6987 -0.3270
  420MOL0     C55327   1.771   2.683   7.375 -0.0433  0.4436  0.1833
  420MOL0     C55328   1.748   2.825   7.377  0.2928 -0.4663 -0.0049
  420MOL0     C55329   1.650   2.878   7.481  0.5077 -1.5330  0.2922
  420MOL0     C55330   1.500   2.840   7.445 -0.5372  0.2711  0.2621
  420MOL0     C55331   1.402   2.897   7.541 -0.1434  0.1813 -0.2582
  420MOL0     O55332   1.266   2.840   7.525 -0.6029 -0.1275  0.5976
  420MOL0     C55333   1.159   2.904   7.575 -0.3292 -0.2080 -0.6098
  420MOL0     C55334   1.162   3.028   7.646 -0.3633  0.3377  0.3916
  420MOL0     C55335   1.050   3.104   7.675  0.6581 -1.4303 -0.3799
  420MOL0     C55336   0.921   3.042   7.665 -0.3389 -0.2585  0.3757
  420MOL0     C55337   0.800   3.108   7.714  0.1042 -0.7426 -0.8378
  420MOL0     O55338   0.681   3.101   7.643 -0.2153  0.7884  0.0605
  420MOL0     C55339   0.578   3.176   7.698 -0.1248  0.9656  0.0014
  420MOL0     C55340   0.573   3.312   7.683  0.6961 -0.5690  1.2338
  420MOL0     C55341   0.452   3.385   7.713 -0.3559 -0.1759 -0.4007
  420MOL0     C55342   0.326   3.319   7.753 -0.0910  0.5879 -0.4778
  420MOL0     O55343   0.209   3.396   7.782  0.5825  0.2130  0.1147
  420MOL0     C55344   0.184   3.420   7.922 -0.4396 -0.2749 -0.1291
  420MOL0     C55345   0.261   3.543   7.974  0.0311  0.1111  0.8597
  420MOL0     C55346   0.225   3.665   7.901  0.5106 -0.0005  0.0904
  420MOL0     C55347   0.343   3.760   7.857 -0.4793  0.6046 -0.4571
  420MOL0     C55348   0.296   3.887   7.779  0.0395  0.3154  0.1965
  420MOL0     C55349   0.244   4.001   7.866 -0.1856  0.6815  0.2532
  420MOL0     C55350   0.230   4.127   7.785  0.4995  0.6123  1.1669
  420MOL0     C55351   0.223   4.239   7.882 -0.4004 -0.6670 -0.2954
  420MOL0    Cl55352   0.154   4.376   7.786 -0.2918 -0.3632  0.2369
  420MOL0     C55353   0.342   3.187   7.786 -0.0578  0.9093 -0.5337
  420MOL0     C55354   0.465   3.119   7.760  0.1217  0.7649  0.1211
  420MOL0     O55355   0.816   3.178   7.821 -0.8029  0.8664 -0.6233
  420MOL0     C55356   0.919   2.912   7.612 -0.2370  0.7424 -0.9943
  420MOL0     C55357   1.030   2.848   7.555  0.1468  0.1200 -0.3640
  420MOL0     N55358   1.675   2.584   7.391 -0.9899  0.1594 -0.8153
  420MOL0     N55359   1.730   2.470   7.410  0.8493  0.3955 -0.8584
  420MOL0     C55360   1.630   1.998   6.798  0.2564 -0.2758 -1.2595
  420MOL0     C55361   1.535   1.989   6.687  0.9981 -0.3448 -0.5464
  420MOL0     C55362   1.258   1.901   6.362 -0.8864 -0.8112  0.2372
  420MOL0     C55363   1.319   1.988   6.269  0.8448 -0.4630 -0.7720
  420MOL0     C55364   1.241   2.039   6.165 -0.6934  0.0144 -0.1510
  420MOL0     C55365   1.109   1.987   6.137  0.0371  0.2695  0.6023
  420MOL0     O55366   1.037   2.025   6.024 -1.0540 -0.0909 -0.6897
  420MOL0     C55367   0.981   2.155   6.020  0.3166 -0.3699 -0.1437
  420MOL0     C55368   0.831   2.144   6.022 -0.3988 -0.3580  0.2746
  420MOL0     C55369   0.784   2.159   6.167 -0.8123  0.5480  0.4104
  420MOL0     C55370   0.638   2.158   6.169  0.8468  0.2660  0.7126
  420MOL0     C55371   0.598   2.190   6.304 -0.1065 -0.1870  0.0756
  420MOL0     C55372   0.559   2.222   6.411 -0.4277 -0.2666  0.1327
  420MOL0     C55373   1.049   1.903   6.236 -0.6641  0.2310 -0.7387
  420MOL0     C55374   1.126   1.852   6.346 -0.2301 -0.3671  0.4126
  420MOL0     H55375   1.726   1.790   6.480  1.7442  1.3090 -0.2284
  420MOL0     H55376   1.890   1.829   6.653  0.0233 -2.8258  1.7500
  420MOL0     H55377   1.952   1.783   6.847  0.8473  1.3610  0.5319
  420MOL0     H55378   1.830   1.784   6.971 -0.3149 -1.0915 -1.4880
  420MOL0     H55379   2.121   1.881   6.966  1.3736 -0.9089  2.5066
  420MOL0     H55380   2.041   1.750   7.059  0.4124  0.3845  0.6020
  420MOL0     H55381   1.892   1.927   7.160 -0.7387  0.3489 -1.0634
  420MOL0     H55382   1.986   2.050   7.076  2.9280 -0.0635  0.9363
  420MOL0     H55383   2.071   1.900   7.318  2.0680 -0.2005  0.5916
  420MOL0     H55384   2.196   1.948   7.201 -0.3962 -2.2473  0.3499
  420MOL0     H55385   2.113   2.194   7.236  3.6378  1.6173  1.8893
  420MOL0     H55386   2.199   2.107   7.366 -1.4430 -3.4355  2.7182
  420MOL0     H55387   1.996   2.050   7.490  1.0566 -1.3199 -0.6338
  420MOL0     H55388   1.898   2.108   7.362  1.0296  2.3019 -2.9068
  420MOL0     H55389   1.872   2.259   7.532 -0.8822 -1.6231 -1.0285
  420MOL0     H55390   2.046   2.291   7.535 -0.4726  1.9126  0.2063
  420MOL0     H55391   1.923   2.349   7.266  0.2868 -0.4864 -0.7152
  420MOL0     H55392   2.056   2.422   7.351 -1.0048  5.6060  1.2456
  420MOL0     H55393   1.978   2.684   7.336  0.9381  0.9503  0.8881
  420MOL0     H55394   1.725   2.850   7.273  1.4379  1.0169  0.0721
  420MOL0     H55395   1.846   2.872   7.389 -0.1907  0.4723  0.3722
  420MOL0     H55396   1.650   2.988   7.476 -0.1099 -1.5922 -2.3809
  420MOL0     H55397   1.679   2.852   7.584  1.8807  1.4056  0.7648
  420MOL0     H55398   1.476   2.886   7.349 -0.6323  0.5712  0.4296
  420MOL0     H55399   1.500   2.731   7.435 -0.1989  0.3557 -0.7709
  420MOL0     H55400   1.397   3.006   7.527  0.5311  0.1784 -0.5575
  420MOL0     H55401   1.439   2.883   7.643  1.3745  0.2054 -0.7800
  420MOL0     H55402   1.254   3.078   7.676 -0.6267  1.4141 -0.5094
  420MOL0     H55403   1.058   3.201   7.723  1.1107 -1.3657 -0.5763
  420MOL0     H55404   0.661   3.356   7.638  1.3253 -2.9454 -0.0216
  420MOL0     H55405   0.449   3.492   7.695  0.2393  0.5061  2.9661
  420MOL0     H55406   0.217   3.331   7.975 -1.8696 -1.3743 -1.0218
  420MOL0     H55407   0.078   3.438   7.943 -0.0356  3.5540 -0.6586
  420MOL0     H55408   0.369   3.527   7.967  0.4949  2.9327  0.3552
  420MOL0     H55409   0.252   3.567   8.080 -0.6969  2.3968  0.3288
  420MOL0     H55410   0.156   3.719   7.967  3.1177  0.6242  2.4942
  420MOL0     H55411   0.167   3.637   7.812 -1.2750  0.1367  1.1623
  420MOL0     H55412   0.416   3.780   7.936  2.6564 -3.4809 -1.9861
  420MOL0     H55413   0.398   3.697   7.786  2.3031  0.4366  1.6725
  420MOL0     H55414   0.219   3.855   7.709  1.7873 -3.3667 -0.2383
  420MOL0     H55415   0.376   3.928   7.717 -0.6306  2.3474  0.5797
  420MOL0     H55416   0.324   4.027   7.935  2.1573 -0.0274 -2.0364
  420MOL0     H55417   0.165   3.972   7.936  1.5161  0.2146  2.0586
  420MOL0     H55418   0.318   4.153   7.726  0.3906 -2.2480 -0.4031
  420MOL0     H55419   0.142   4.113   7.721  0.3117  0.4384  1.4555
  420MOL0     H55420   0.325   4.249   7.918 -0.2079 -1.0043 -0.7402
  420MOL0     H55421   0.157   4.226   7.968 -0.1571 -1.1289 -0.1794
  420MOL0     H55422   0.273   3.128   7.845  1.9268 -1.2186 -0.1483
  420MOL0     H55423   0.450   3.012   7.768 -0.3783  0.9553  2.9714
  420MOL0     H55424   0.832   2.847   7.616  1.2987 -1.3940  1.7822
  420MOL0     H55425   1.008   2.751   7.513 -0.9076  1.3732 -2.9587
  420MOL0     H55426   1.598   2.057   6.884 -1.9789 -1.1568 -1.4009
  420MOL0     H55427   1.436   2.032   6.692  0.4639 -1.5014 -0.8725
  420MOL0     H55428   1.418   2.031   6.278  1.3636 -1.7193 -0.2858
  420MOL0     H55429   1.289   2.098   6.088 -0.6496 -1.4260 -1.2807
  420MOL0     H55430   1.004   2.207   5.926 -0.9715  0.3211 -0.1022
  420MOL0     H55431   1.021   2.222   6.096  0.5084  0.3388 -0.8582
  420MOL0     H55432   0.803   2.236   5.969  1.2583 -0.1489 -0.2994
  420MOL0     H55433   0.788   2.060   5.968 -0.5494  0.7258 -1.3604
  420MOL0     H55434   0.814   2.256   6.206 -1.6891  1.8743 -2.0416
  420MOL0     H55435   0.823   2.080   6.232 -0.8733 -0.6166 -0.8997
  420MOL0     H55436   0.594   2.231   6.102 -0.5706 -2.9334 -2.1562
  420MOL0     H55437   0.590   2.065   6.137  0.2350 -0.1910  2.8088
  420MOL0     H55438   0.514   2.260   6.500 -0.7085  0.4999 -0.3252
  420MOL0     H55439   0.948   1.870   6.212 -0.2598 -1.6909  0.0364
  420MOL0     H55440   1.079   1.809   6.433 -1.7353  1.2073  0.4345
  421MOL0     O55441   1.170   7.583  10.258  0.6062  0.0244 -0.7273
  421MOL0     C55442   1.288   7.590  10.295  0.2422 -0.4299 -0.8867
  421MOL0     O55443   1.398   7.638  10.216 -0.2212 -0.0434  0.2191
  421MOL0     C55444   1.390   7.690  10.091  0.9669 -0.1741  0.3907
  421MOL0     C55445   1.509   7.689  10.020 -0.3621  0.2290  0.2151
  421MOL0     C55446   1.516   7.711   9.881 -0.6728  0.0649 -0.9662
  421MOL0     C55447   1.411   7.770   9.810  0.3330 -0.1108  0.5988
  421MOL0     O55448   1.429   7.795   9.676  0.5457 -0.4157 -0.3499
  421MOL0     C55449   1.335   7.895   9.623 -0.6250  0.1776 -0.2002
  421MOL0     C55450   1.394   7.954   9.495  0.3644 -0.0162  0.0089
  421MOL0     C55451   1.496   8.054   9.536 -0.7868 -0.0442 -0.0487
  421MOL0     C55452   1.559   8.103   9.406 -0.4072  0.1252  0.6500
  421MOL0     C55453   1.668   8.194   9.434 -0.9345 -0.1364 -0.0389
  421MOL0     C55454   1.742   8.242   9.310 -0.0380 -0.2014  0.0138
  421MOL0     C55455   1.674   8.339   9.219  0.3040  0.2823 -0.2767
  421MOL0     C55456   1.766   8.382   9.110 -0.3325  0.3142  0.2909
  421MOL0     N55457   1.722   8.487   9.020 -0.0930  0.4303 -0.7184
  421MOL0     C55458   1.614   8.486   8.935 -0.5601  0.4165  0.5920
  421MOL0     C55459   1.611   8.606   8.873 -0.4676 -0.5923 -0.8774
  421MOL0     C55460   1.500   8.667   8.796 -0.2645  0.1998  0.3535
  421MOL0     C55461   1.538   8.659   8.648 -0.2774 -0.3429  0.9472
  421MOL0     C55462   1.444   8.741   8.563  0.3329  0.0949  0.0294
  421MOL0     C55463   1.507   8.783   8.440  1.2038  0.5863  0.2117
  421MOL0     O55464   1.418   8.881   8.384  0.0894  0.6069  1.1133
  421MOL0     C55465   1.332   8.862   8.281  0.0491 -0.8029  0.7909
  421MOL0     C55466   1.307   8.961   8.176 -0.5797 -0.1991 -0.0779
  421MOL0     C55467   1.217   8.937   8.069  0.3172 -0.1580 -0.8284
  421MOL0     C55468   1.160   8.816   8.046  0.4939  1.1985 -0.0506
  421MOL0     C55469   1.070   8.788   7.928  0.1006  0.0142  0.2728
  421MOL0     O55470   1.051   8.892   7.841 -1.0183 -0.1770  0.0233
  421MOL0     C55471   0.940   8.898   7.752 -0.2757 -0.2087  0.3120
  421MOL0     C55472   0.901   9.028   7.706 -0.8219  0.4093 -0.2382
  421MOL0     C55473   0.803   9.050   7.614  0.0811  0.4868  0.3655
  421MOL0     C55474   0.730   8.938   7.579  0.6022  0.5675  0.1355
  421MOL0     O55475   0.629   8.945   7.487  0.8409 -0.0477  0.2407
  421MOL0     C55476   0.528   9.039   7.520 -0.2285 -0.6956  0.3923
  421MOL0     C55477   0.399   9.009   7.439 -0.3500  0.1989  0.1997
  421MOL0     C55478   0.330   9.141   7.409 -0.7734  0.3342  0.1327
  421MOL0     C55479   0.230   9.107   7.299 -0.1100 -0.0843  0.8478
  421MOL0     C55480   0.111   9.207   7.296 -0.3088 -0.7129 -0.7830
  421MOL0     C55481   0.030   9.198   7.162 -1.0654  0.1949  0.0246
  421MOL0     C55482   0.088   9.289   7.054  0.7930  0.2795 -1.3015
  421MOL0     C55483   0.037   9.253   6.919  0.0332  0.5355 -1.1148
  421MOL0    Cl55484  -0.140   9.292   6.907 -0.5024 -0.1345  0.7965
  421MOL0     C55485   0.747   8.809   7.635 -0.5893  0.2269  0.6573
  421MOL0     C55486   0.861   8.782   7.708  0.0399  0.6864  0.3844
  421MOL0     O55487   1.000   8.680   7.932 -0.8995  0.1560 -0.2757
  421MOL0     C55488   1.186   8.720   8.143  0.8650 -0.2679  1.2139
  421MOL0     C55489   1.276   8.742   8.251 -0.1054 -0.3047  0.2995
  421MOL0     N55490   1.721   8.682   8.925 -0.1153 -0.6514 -0.1525
  421MOL0     N55491   1.778   8.610   9.018  0.5041  0.2686 -0.3424
  421MOL0     C55492   1.295   7.786   9.887  0.4202  0.0992 -0.2981
  421MOL0     C55493   1.280   7.739  10.019  0.1389 -0.8399  0.3854
  421MOL0     C55494   1.310   7.579  10.446  0.2299  0.5565  0.1177
  421MOL0     C55495   1.202   7.545  10.533 -0.0567 -0.4808  0.3257
  421MOL0     C55496   1.224   7.531  10.667 -0.5429 -0.9567  0.6897
  421MOL0     C55497   1.348   7.542  10.728 -1.1837  0.1896  0.6293
  421MOL0     O55498   1.357   7.536  10.864 -0.5287 -1.2699 -0.8634
  421MOL0     C55499   1.479   7.533  10.938 -0.3270  1.2994 -0.1357
  421MOL0     C55500   1.453   7.517  11.093  0.0571 -0.1422 -0.3804
  421MOL0     C55501   1.567   7.575  11.183  0.3603 -0.0682  0.0044
  421MOL0     C55502   1.646   7.471  11.257 -1.3177  0.3095 -0.3328
  421MOL0     C55503   1.739   7.415  11.164  0.6586 -0.2194  0.2316
  421MOL0     C55504   1.802   7.367  11.071  0.3904  0.3687 -0.6046
  421MOL0     C55505   1.450   7.580  10.645  0.2949 -1.2168  0.4399
  421MOL0     C55506   1.432   7.591  10.506 -0.7791  0.6337  0.3847
  421MOL0     H55507   1.594   7.655  10.079 -0.6242  1.4111  1.3162
  421MOL0     H55508   1.613   7.700   9.834 -1.3603 -0.6807 -2.2489
  421MOL0     H55509   1.316   7.967   9.703  0.5753  2.0533 -1.5305
  421MOL0     H55510   1.237   7.852   9.603  0.4276 -0.5740 -4.8461
  421MOL0     H55511   1.307   7.994   9.442  1.1846  1.3535 -0.3277
  421MOL0     H55512   1.449   7.876   9.441 -1.4891  0.7740 -3.3108
  421MOL0     H55513   1.580   8.008   9.589 -1.0057 -1.1207 -0.6040
  421MOL0     H55514   1.449   8.134   9.594 -2.1699  0.8955 -2.3257
  421MOL0     H55515   1.596   8.015   9.352 -0.4723 -0.5825  1.7194
  421MOL0     H55516   1.491   8.147   9.332  0.0684  2.1030  1.3301
  421MOL0     H55517   1.737   8.136   9.496 -0.8820 -0.4107 -0.3522
  421MOL0     H55518   1.640   8.277   9.500  1.9018  0.7442  0.1933
  421MOL0     H55519   1.774   8.151   9.258  2.1503 -0.0842  1.0505
  421MOL0     H55520   1.832   8.295   9.342 -0.0227 -0.2828  0.1047
  421MOL0     H55521   1.574   8.309   9.185  1.3436 -0.6062 -2.7907
  421MOL0     H55522   1.658   8.432   9.275  1.6528  1.9168 -2.4363
  421MOL0     H55523   1.793   8.294   9.052 -2.1850 -1.5564  2.0740
  421MOL0     H55524   1.855   8.420   9.161 -0.5745  1.0526  0.1777
  421MOL0     H55525   1.542   8.405   8.928 -3.5947  3.0558 -1.5330
  421MOL0     H55526   1.497   8.770   8.835 -0.4763  1.6132 -3.0429
  421MOL0     H55527   1.401   8.621   8.802  0.3646 -0.9884  3.3037
  421MOL0     H55528   1.560   8.560   8.608  3.8590  1.6670 -2.4663
  421MOL0     H55529   1.634   8.711   8.646 -1.0914  1.3283  2.4172
  421MOL0     H55530   1.345   8.698   8.546  1.5021 -3.0563  0.4679
  421MOL0     H55531   1.421   8.835   8.614  0.7696  0.5192 -0.5437
  421MOL0     H55532   1.503   8.693   8.378  0.7864  0.1949  0.7894
  421MOL0     H55533   1.610   8.820   8.448  0.6871  2.2028 -0.4031
  421MOL0     H55534   1.365   9.052   8.168  1.8504 -1.5936  0.4888
  421MOL0     H55535   1.209   9.015   7.995  1.5867  0.8921  0.0972
  421MOL0     H55536   0.947   9.123   7.730 -2.4447  2.0999 -3.2332
  421MOL0     H55537   0.788   9.150   7.576  0.7531  0.5035  0.1402
  421MOL0     H55538   0.560   9.136   7.481 -4.2779  0.5792 -0.1684
  421MOL0     H55539   0.500   9.053   7.625  0.5402  0.5873  0.4508
  421MOL0     H55540   0.337   8.937   7.492  0.3346 -0.6591 -0.1416
  421MOL0     H55541   0.433   8.956   7.349  1.6053 -0.0079  1.0136
  421MOL0     H55542   0.401   9.220   7.381  3.1819 -1.4684  3.8626
  421MOL0     H55543   0.285   9.178   7.501  0.3373  1.9202  0.0786
  421MOL0     H55544   0.284   9.106   7.204 -0.7037 -0.0600  0.5061
  421MOL0     H55545   0.189   9.006   7.306  1.6494 -0.7938  1.4681
  421MOL0     H55546   0.147   9.309   7.316 -2.1319 -0.6493  3.2152
  421MOL0     H55547   0.046   9.186   7.382  2.2647 -1.4112  1.1229
  421MOL0     H55548  -0.074   9.225   7.180 -1.8450 -2.5946  0.1800
  421MOL0     H55549   0.031   9.091   7.136  1.2262 -0.2938  1.7000
  421MOL0     H55550   0.060   9.391   7.079 -1.3646 -0.0100 -2.2140
  421MOL0     H55551   0.196   9.271   7.056  0.7705  0.1422  0.4633
  421MOL0     H55552   0.068   9.150   6.897  0.7547  0.2595  0.9793
  421MOL0     H55553   0.100   9.309   6.849 -1.7428  0.1303 -3.1272
  421MOL0     H55554   0.685   8.728   7.599  0.5490 -0.2055 -0.4215
  421MOL0     H55555   0.891   8.683   7.741 -1.8619  0.3094  1.1479
  421MOL0     H55556   1.145   8.622   8.123  0.1563  0.1574  0.5294
  421MOL0     H55557   1.296   8.667   8.326  2.1825  0.4978  0.5720
  421MOL0     H55558   1.196   7.817   9.854 -2.2916 -3.9301  3.0748
  421MOL0     H55559   1.184   7.746  10.070  0.6449  2.2522  1.1136
  421MOL0     H55560   1.109   7.516  10.485 -0.6828  1.4296  0.3032
  421MOL0     H55561   1.134   7.514  10.727 -3.2043  3.8479 -1.3818
  421MOL0     H55562   1.532   7.628  10.926 -1.2092  1.8696  0.3116
  421MOL0     H55563   1.540   7.447  10.911 -0.2180  0.4798  2.4472
  421MOL0     H55564   1.363   7.574  11.118 -1.0139 -2.0452  0.3207
  421MOL0     H55565   1.445   7.409  11.110 -0.1255 -0.4639 -2.2261
  421MOL0     H55566   1.525   7.630  11.268 -0.2271  1.2560 -1.1052
  421MOL0     H55567   1.614   7.655  11.126 -3.2203  1.5690 -0.9467
  421MOL0     H55568   1.687   7.515  11.348 -1.1064  0.1747 -0.3630
  421MOL0     H55569   1.573   7.399  11.295  0.8648 -2.6503 -1.3627
  421MOL0     H55570   1.850   7.314  10.991 -1.1203 -3.9030  1.0127
  421MOL0     H55571   1.554   7.603  10.666  0.8215 -0.2765 -2.6439
  421MOL0     H55572   1.511   7.617  10.435 -2.8582  1.2442 -1.8592
  422MOL0     O55573   4.630   0.346   7.495  0.1460 -0.8287  0.4755
  422MOL0     C55574   4.634   0.290   7.381 -0.2616 -0.5712  0.5331
  422MOL0     O55575   4.646   0.354   7.259  0.3910 -0.4903  0.7123
  422MOL0     C55576   4.651   0.491   7.254  0.0147  0.4669 -0.7401
  422MOL0     C55577   4.767   0.554   7.201 -0.2790 -0.9376 -0.6791
  422MOL0     C55578   4.775   0.690   7.198 -0.0404  0.4780  0.2717
  422MOL0     C55579   4.673   0.769   7.253  0.9810 -0.4855  0.7710
  422MOL0     O55580   4.688   0.905   7.237  0.3541  0.1278  0.3442
  422MOL0     C55581   4.595   1.005   7.282  0.6835 -0.3625 -0.0057
  422MOL0     C55582   4.486   1.027   7.176 -0.9462 -0.0665  0.3746
  422MOL0     C55583   4.375   1.115   7.218 -0.2983 -0.1036  0.0913
  422MOL0     C55584   4.269   1.029   7.307 -0.4960 -1.8060 -0.5957
  422MOL0     C55585   4.183   0.932   7.221 -0.2677  0.7508 -0.4250
  422MOL0     C55586   4.107   0.829   7.293 -0.5860  0.3968  0.0181
  422MOL0     C55587   4.107   0.695   7.219 -0.5093 -0.6586  0.0367
  422MOL0     C55588   4.062   0.698   7.074  0.1158 -0.2133  0.4227
  422MOL0     N55589   3.916   0.729   7.068 -0.5767 -0.0763  0.2566
  422MOL0     C55590   3.848   0.849   7.053  0.8167  0.3408  0.1167
  422MOL0     C55591   3.724   0.825   7.085  0.4602 -0.1525  0.0312
  422MOL0     C55592   3.597   0.913   7.087 -0.2627  0.5807  0.2056
  422MOL0     C55593   3.467   0.836   7.108  0.0220 -0.8818 -0.0142
  422MOL0     C55594   3.422   0.744   6.997  0.0275  0.1841 -0.4016
  422MOL0     C55595   3.376   0.814   6.873  0.1772 -0.1514 -0.2699
  422MOL0     O55596   3.257   0.873   6.900  0.3063  0.4230  0.5346
  422MOL0     C55597   3.137   0.823   6.849  0.2236 -0.0777 -0.2522
  422MOL0     C55598   3.053   0.745   6.928  0.7176 -0.3777  0.3361
  422MOL0     C55599   2.927   0.691   6.878 -1.0811 -0.9890 -0.6124
  422MOL0     C55600   2.911   0.695   6.746  0.7749  0.1253 -0.3511
  422MOL0     C55601   2.800   0.617   6.686 -0.2008  0.1499  0.6627
  422MOL0     O55602   2.748   0.669   6.565  0.8848 -0.1964 -0.0525
  422MOL0     C55603   2.640   0.595   6.519  0.0275  0.5051  0.4463
  422MOL0     C55604   2.663   0.470   6.460  0.1807  0.1921  0.1428
  422MOL0     C55605   2.562   0.415   6.380 -0.7834  0.4935 -0.2582
  422MOL0     C55606   2.439   0.470   6.360  0.2205  0.7221 -0.5996
  422MOL0     O55607   2.341   0.407   6.290  0.5877  0.4392  0.3124
  422MOL0     C55608   2.360   0.271   6.231  0.9169  0.1930 -0.6284
  422MOL0     C55609   2.214   0.212   6.208 -1.4416 -0.6246  0.3949
  422MOL0     C55610   2.203   0.083   6.135  0.3147  0.2814 -0.5899
  422MOL0     C55611   2.258   0.091   5.987  0.6655  0.2185 -0.7913
  422MOL0     C55612   2.179   0.001   5.902 -0.0035  0.3461 -0.5162
  422MOL0     C55613   2.177  -0.148   5.953  0.8713  0.0170  0.0814
  422MOL0     C55614   2.121  -0.255   5.845  0.2464  0.7084 -0.0183
  422MOL0     C55615   2.056  -0.389   5.902  0.2824  0.2881 -0.2695
  422MOL0    Cl55616   2.190  -0.487   5.971  0.2179  0.1624 -0.5797
  422MOL0     C55617   2.418   0.585   6.428  0.0501  0.6758  0.4954
  422MOL0     C55618   2.517   0.655   6.498  0.0739 -0.4875 -1.0755
  422MOL0     O55619   2.761   0.515   6.743  0.2028 -0.2103 -0.4049
  422MOL0     C55620   2.980   0.789   6.663  0.3028 -0.6720 -0.0893
  422MOL0     C55621   3.090   0.850   6.722  0.7213 -0.2632 -0.0540
  422MOL0     N55622   3.720   0.699   7.134  0.3587  0.1124  0.4897
  422MOL0     N55623   3.827   0.632   7.108  0.3097 -0.5955 -0.2670
  422MOL0     C55624   4.567   0.706   7.316 -0.3395  0.0570  0.0734
  422MOL0     C55625   4.555   0.565   7.324 -0.3750  0.4135  0.4670
  422MOL0     C55626   4.599   0.149   7.380  0.9626 -0.1972  0.5859
  422MOL0     C55627   4.620   0.068   7.495 -0.6314  0.3337 -0.0068
  422MOL0     C55628   4.609  -0.072   7.491 -0.0732 -0.2176 -0.3763
  422MOL0     C55629   4.570  -0.130   7.372 -0.2777  0.0973 -0.2173
  422MOL0     O55630   4.569  -0.269   7.339  0.4962  0.0741 -0.7110
  422MOL0     C55631   4.557  -0.367   7.446 -0.1477 -0.2310 -0.8196
  422MOL0     C55632   4.475  -0.484   7.406  0.3939 -1.0222 -0.2598
  422MOL0     C55633   4.348  -0.433   7.336  0.1248  0.6630  0.2070
  422MOL0     C55634   4.304  -0.535   7.239 -0.3360 -0.8353 -0.0703
  422MOL0     C55635   4.243  -0.661   7.293 -0.2635 -0.4752 -0.7799
  422MOL0     C55636   4.188  -0.766   7.326  0.7555 -0.1680 -0.2083
  422MOL0     C55637   4.529  -0.052   7.259 -0.5404 -0.2840 -0.4011
  422MOL0     C55638   4.553   0.085   7.264  0.3122  0.5663  1.1977
  422MOL0     H55639   4.849   0.488   7.174 -0.2300 -0.8598 -0.7212
  422MOL0     H55640   4.867   0.735   7.161  0.0851  0.0420  0.0355
  422MOL0     H55641   4.654   1.097   7.289  0.1364 -0.0451  0.5803
  422MOL0     H55642   4.547   0.969   7.374  1.9097 -1.4009  0.2607
  422MOL0     H55643   4.447   0.930   7.144  1.2542 -1.2249  1.0085
  422MOL0     H55644   4.544   1.074   7.095 -1.1391 -1.8869 -0.8862
  422MOL0     H55645   4.331   1.161   7.129 -0.2173 -0.2032 -0.0009
  422MOL0     H55646   4.422   1.193   7.278  0.7775 -0.2502 -0.5310
  422MOL0     H55647   4.329   0.973   7.380 -1.0946 -1.4886  0.1605
  422MOL0     H55648   4.210   1.093   7.373  1.1943 -1.1437  0.3502
  422MOL0     H55649   4.261   0.882   7.162  0.2995  0.3656  0.6392
  422MOL0     H55650   4.113   0.979   7.151 -2.9257 -0.0406  1.5379
  422MOL0     H55651   4.002   0.850   7.313 -0.1384  2.0205  0.8621
  422MOL0     H55652   4.155   0.817   7.391 -1.7084  3.7234  1.1258
  422MOL0     H55653   4.202   0.643   7.236  0.5754  1.3899  0.5388
  422MOL0     H55654   4.037   0.630   7.274 -0.8871 -0.8736 -0.6830
  422MOL0     H55655   4.089   0.603   7.025  3.6888  0.0840  1.4935
  422MOL0     H55656   4.123   0.768   7.017  0.2099 -1.6135 -1.2957
  422MOL0     H55657   3.910   0.930   7.017  0.1788  0.2166 -1.3341
  422MOL0     H55658   3.592   0.974   6.997 -2.5310 -2.1266 -1.6722
  422MOL0     H55659   3.623   0.983   7.168  1.9137  2.2317 -1.7886
  422MOL0     H55660   3.388   0.909   7.130  3.5255  2.3246  3.3575
  422MOL0     H55661   3.478   0.775   7.198  0.9013 -1.0983 -0.2619
  422MOL0     H55662   3.496   0.665   6.986 -0.6483 -1.0457  2.9437
  422MOL0     H55663   3.332   0.699   7.039 -2.0098  0.0730 -4.3422
  422MOL0     H55664   3.362   0.744   6.789  0.2142  1.2681 -1.5069
  422MOL0     H55665   3.454   0.885   6.843  1.0687 -0.4733  1.1880
  422MOL0     H55666   3.067   0.735   7.035  1.4235 -0.8536  0.2050
  422MOL0     H55667   2.860   0.632   6.941 -1.8331 -1.7541 -2.0856
  422MOL0     H55668   2.762   0.426   6.465  0.9894  1.7550 -1.2357
  422MOL0     H55669   2.594   0.321   6.336  0.4090  0.0924  1.3730
  422MOL0     H55670   2.397   0.193   6.298 -1.7471 -0.0478  0.7061
  422MOL0     H55671   2.411   0.264   6.135  0.7853  1.7783 -0.8423
  422MOL0     H55672   2.150   0.282   6.155  0.4746  1.3723  0.5806
  422MOL0     H55673   2.167   0.200   6.306 -1.4690  1.6216  0.7037
  422MOL0     H55674   2.097   0.058   6.145 -0.0111  2.2974  6.0087
  422MOL0     H55675   2.250   0.004   6.195 -0.0346 -1.9654 -3.0930
  422MOL0     H55676   2.232   0.193   5.958 -1.1202  0.0140 -0.0312
  422MOL0     H55677   2.365   0.075   5.972  1.3707  0.4745  2.9355
  422MOL0     H55678   2.232   0.003   5.806  1.9570 -2.1754  0.4013
  422MOL0     H55679   2.072   0.025   5.899  0.0991  1.0546  0.7188
  422MOL0     H55680   2.108  -0.157   6.037 -0.5692 -2.4548 -1.2569
  422MOL0     H55681   2.275  -0.176   5.990  1.9900  2.3055 -0.9619
  422MOL0     H55682   2.036  -0.215   5.788 -0.4696  1.0598  1.2602
  422MOL0     H55683   2.200  -0.291   5.779 -0.1211 -2.2305  1.0190
  422MOL0     H55684   2.002  -0.433   5.819  0.4501  0.4171 -0.4481
  422MOL0     H55685   1.982  -0.366   5.979 -0.8359  0.2634 -1.3156
  422MOL0     H55686   2.321   0.633   6.424  1.1974  3.0754 -3.1001
  422MOL0     H55687   2.499   0.752   6.544 -1.4126 -1.6032  0.8167
  422MOL0     H55688   2.964   0.796   6.556  2.0097  1.1827 -0.2653
  422MOL0     H55689   3.154   0.919   6.668 -0.9151  1.6618  0.3610
  422MOL0     H55690   4.501   0.762   7.382  1.3808  1.7973  0.4363
  422MOL0     H55691   4.470   0.523   7.378 -0.6171 -1.0063 -0.9394
  422MOL0     H55692   4.658   0.099   7.592  2.3024 -1.6653 -0.3684
  422MOL0     H55693   4.655  -0.124   7.574  1.4627  0.8574 -0.5194
  422MOL0     H55694   4.528  -0.324   7.542  2.5987 -1.3498  0.6213
  422MOL0     H55695   4.656  -0.410   7.465  0.5029  1.0153 -1.3305
  422MOL0     H55696   4.543  -0.523   7.330 -1.2577 -1.7167 -1.4275
  422MOL0     H55697   4.455  -0.556   7.485 -2.9308  0.6329  0.5973
  422MOL0     H55698   4.358  -0.341   7.278 -0.4464 -0.5756 -1.9523
  422MOL0     H55699   4.279  -0.415   7.419  1.8649  0.1182  1.8495
  422MOL0     H55700   4.228  -0.479   7.185 -1.2698 -1.6189  0.3993
  422MOL0     H55701   4.390  -0.560   7.175 -1.1188 -0.9731 -1.0894
  422MOL0     H55702   4.141  -0.860   7.347 -0.2547 -0.4298 -3.1508
  422MOL0     H55703   4.502  -0.104   7.168 -0.5159  0.5453 -0.8838
  422MOL0     H55704   4.533   0.159   7.187 -0.5239  3.3159  3.8649
  423MOL0     O55705   8.558   0.445   3.663 -0.2182  0.5144  0.7752
  423MOL0     C55706   8.531   0.413   3.548  1.1843  0.1103  1.2374
  423MOL0     O55707   8.429   0.334   3.504 -0.0409 -0.9011 -0.1898
  423MOL0     C55708   8.354   0.290   3.610  0.1077  0.3109  1.3704
  423MOL0     C55709   8.397   0.194   3.690 -0.3707 -0.0873 -0.5254
  423MOL0     C55710   8.315   0.127   3.780  0.1819 -0.9397  0.2832
  423MOL0     C55711   8.180   0.165   3.798 -0.2722  0.7867  0.3833
  423MOL0     O55712   8.093   0.108   3.889 -0.8847 -0.7167  0.0775
  423MOL0     C55713   8.148   0.057   4.009  0.1737  0.8045  0.2801
  423MOL0     C55714   8.040   0.009   4.106 -1.3301 -0.8244  0.0819
  423MOL0     C55715   7.955  -0.101   4.048  0.4725  0.0851  0.5653
  423MOL0     C55716   7.834  -0.121   4.139 -0.4534 -1.2235  1.0812
  423MOL0     C55717   7.748  -0.238   4.100 -0.3361 -0.1120  0.6984
  423MOL0     C55718   7.695  -0.234   3.956  0.6486  0.5302  0.3234
  423MOL0     C55719   7.584  -0.340   3.951  0.7489  0.2494 -0.2547
  423MOL0     C55720   7.606  -0.480   4.020 -0.2629 -0.3732 -0.1698
  423MOL0     N55721   7.473  -0.548   3.994 -0.5338 -0.2826 -0.9329
  423MOL0     C55722   7.359  -0.515   4.045 -0.6315  0.7941 -0.7708
  423MOL0     C55723   7.268  -0.599   3.985  0.2830 -0.2527  0.9418
  423MOL0     C55724   7.126  -0.648   4.013  0.9809  0.3774  0.5611
  423MOL0     C55725   7.028  -0.545   3.947  0.2492  0.1956 -0.3240
  423MOL0     C55726   6.879  -0.586   3.978  0.3073 -0.7693 -0.7697
  423MOL0     C55727   6.787  -0.464   3.960 -0.3798 -0.4281 -0.5414
  423MOL0     O55728   6.662  -0.486   4.013 -0.4267 -0.3018 -0.2809
  423MOL0     C55729   6.563  -0.505   3.920 -0.6524  0.0685  0.3671
  423MOL0     C55730   6.497  -0.626   3.899 -0.3805  0.4596 -0.6037
  423MOL0     C55731   6.381  -0.634   3.821 -0.2561  0.0184  0.9450
  423MOL0     C55732   6.336  -0.513   3.757 -0.2900 -0.0220  0.1721
  423MOL0     C55733   6.207  -0.523   3.687  0.1697  0.3488  0.4718
  423MOL0     O55734   6.122  -0.624   3.714  0.1455 -0.1572  0.1608
  423MOL0     C55735   5.999  -0.623   3.654  0.6198  2.2482 -0.7265
  423MOL0     C55736   5.938  -0.728   3.592 -0.7892  0.2861 -0.5335
  423MOL0     C55737   5.814  -0.721   3.536  1.1483  0.5629  0.1254
  423MOL0     C55738   5.741  -0.604   3.556  0.1119  0.7503 -0.4206
  423MOL0     O55739   5.610  -0.616   3.508 -0.5894 -0.4793  0.3875
  423MOL0     C55740   5.507  -0.516   3.524  0.1135  0.5812 -0.8707
  423MOL0     C55741   5.524  -0.393   3.431 -0.2019 -0.2765  0.9573
  423MOL0     C55742   5.476  -0.427   3.290  0.8480 -0.2276  0.4008
  423MOL0     C55743   5.464  -0.300   3.204  0.8476 -0.3160  0.6298
  423MOL0     C55744   5.469  -0.333   3.061  0.5855  0.0940  0.2445
  423MOL0     C55745   5.473  -0.200   2.982  0.7137 -1.0369  0.0061
  423MOL0     C55746   5.506  -0.211   2.833 -0.7150 -0.8058  0.3650
  423MOL0     C55747   5.535  -0.070   2.770 -0.3219  0.0415 -0.3976
  423MOL0    Cl55748   5.397   0.045   2.814 -0.1944  0.1962 -0.4036
  423MOL0     C55749   5.802  -0.491   3.610  0.0023 -1.2677 -0.4457
  423MOL0     C55750   5.928  -0.506   3.667  0.2942 -0.1286 -0.3482
  423MOL0     O55751   6.195  -0.435   3.603 -0.7077 -0.2228 -0.0596
  423MOL0     C55752   6.407  -0.394   3.774  0.0404 -0.3821 -0.7996
  423MOL0     C55753   6.522  -0.390   3.851 -0.0074 -0.4879  0.4509
  423MOL0     N55754   7.341  -0.665   3.883 -0.2145 -0.0202  0.3207
  423MOL0     N55755   7.467  -0.643   3.893 -0.3918 -0.6072  0.8282
  423MOL0     C55756   8.138   0.268   3.714 -0.4962 -0.3468 -0.1014
  423MOL0     C55757   8.221   0.323   3.611  0.4858 -0.0284 -0.1216
  423MOL0     C55758   8.626   0.477   3.449  0.4570  0.7897  0.0856
  423MOL0     C55759   8.741   0.541   3.496  0.2394 -0.3327  0.1712
  423MOL0     C55760   8.823   0.603   3.405 -0.9453  0.0928  0.1930
  423MOL0     C55761   8.807   0.593   3.264 -0.4987 -0.5957  1.0012
  423MOL0     O55762   8.878   0.659   3.161 -0.4300  0.1844 -0.4435
  423MOL0     C55763   8.968   0.766   3.207 -0.8656 -0.4274  0.1118
  423MOL0     C55764   9.025   0.834   3.079 -0.1804 -0.3058  0.3476
  423MOL0     C55765   9.108   0.956   3.116  0.3079  0.0538  0.5306
  423MOL0     C55766   9.157   1.029   2.980  0.0907 -0.5277 -0.5853
  423MOL0     C55767   9.058   1.059   2.873  0.0493 -0.9173 -0.4208
  423MOL0     C55768   8.977   1.078   2.782 -0.7642  0.2752  0.7511
  423MOL0     C55769   8.700   0.518   3.219  0.5781  0.4217  0.7761
  423MOL0     C55770   8.601   0.469   3.310 -0.4776  0.1984 -0.0978
  423MOL0     H55771   8.504   0.173   3.692 -0.7210 -2.5417  2.8012
  423MOL0     H55772   8.345   0.038   3.836  0.7572 -0.9971 -0.1105
  423MOL0     H55773   8.204   0.134   4.062  0.9722  1.2865 -1.2251
  423MOL0     H55774   8.214  -0.030   3.999  2.4131  2.2204  1.9780
  423MOL0     H55775   7.974   0.086   4.145 -2.1567 -0.6449 -1.5722
  423MOL0     H55776   8.095  -0.002   4.200 -1.5778  5.6302  1.4532
  423MOL0     H55777   8.003  -0.199   4.039  1.7522  0.8101 -1.0146
  423MOL0     H55778   7.926  -0.075   3.946 -1.4949 -2.1268  0.4673
  423MOL0     H55779   7.879  -0.148   4.235  2.3622 -5.2484 -1.0851
  423MOL0     H55780   7.783  -0.025   4.148  3.3151  0.9422  1.6671
  423MOL0     H55781   7.656  -0.227   4.158 -1.5212  0.1072 -1.1403
  423MOL0     H55782   7.798  -0.332   4.126  0.7269  0.3495  0.3441
  423MOL0     H55783   7.775  -0.245   3.882  1.4360  1.8399  0.9432
  423MOL0     H55784   7.660  -0.130   3.951  0.8325  0.5854  0.1653
  423MOL0     H55785   7.499  -0.295   4.003  0.7620  3.4131 -2.6946
  423MOL0     H55786   7.552  -0.358   3.848  1.6196 -3.1105 -0.0624
  423MOL0     H55787   7.627  -0.475   4.127  0.3150  0.5914 -0.3164
  423MOL0     H55788   7.692  -0.529   3.973 -2.1104 -1.0607 -3.1510
  423MOL0     H55789   7.333  -0.448   4.126  0.7628  1.0915 -0.5410
  423MOL0     H55790   7.119  -0.652   4.123  0.6881 -0.0009  0.5301
  423MOL0     H55791   7.107  -0.748   3.973 -2.9620  0.7583  1.0462
  423MOL0     H55792   7.040  -0.550   3.838 -1.8277 -1.3673 -0.5411
  423MOL0     H55793   7.043  -0.443   3.984 -0.2976 -0.0171  0.5010
  423MOL0     H55794   6.844  -0.668   3.914  3.0977 -1.0999 -2.0101
  423MOL0     H55795   6.872  -0.614   4.084 -0.8333 -0.5127 -0.7641
  423MOL0     H55796   6.775  -0.431   3.857  0.1019 -3.2583 -1.5760
  423MOL0     H55797   6.838  -0.386   4.018  0.5663 -1.6492  0.3188
  423MOL0     H55798   6.531  -0.713   3.955 -0.3784 -0.3022 -1.7639
  423MOL0     H55799   6.328  -0.728   3.814 -2.1306  1.0638  0.6931
  423MOL0     H55800   6.004  -0.813   3.591  1.3617  1.8807 -1.4217
  423MOL0     H55801   5.766  -0.807   3.491  2.1152  1.0476 -1.9264
  423MOL0     H55802   5.505  -0.479   3.627 -2.0484 -1.0575 -0.2807
  423MOL0     H55803   5.418  -0.573   3.500 -0.0120 -0.0434  0.9669
  423MOL0     H55804   5.628  -0.361   3.422 -0.7804  0.9936 -2.6586
  423MOL0     H55805   5.468  -0.309   3.476 -0.6317  1.2470 -2.1687
  423MOL0     H55806   5.386  -0.488   3.292 -0.3661  1.4753  0.1043
  423MOL0     H55807   5.549  -0.493   3.243  0.5996  0.0611 -0.3951
  423MOL0     H55808   5.379  -0.238   3.236 -0.6048 -1.3693 -1.0616
  423MOL0     H55809   5.550  -0.236   3.229  0.3991  1.2072 -1.4241
  423MOL0     H55810   5.374  -0.371   3.022 -0.3668  2.2204  0.3594
  423MOL0     H55811   5.549  -0.403   3.036 -1.2486 -1.9557 -0.2651
  423MOL0     H55812   5.544  -0.129   3.024 -1.5337  0.9578  0.5813
  423MOL0     H55813   5.376  -0.153   2.996 -0.3755 -2.9396 -0.6451
  423MOL0     H55814   5.603  -0.262   2.834 -1.1552 -1.7020 -0.7416
  423MOL0     H55815   5.430  -0.270   2.781  0.3058 -3.3009  1.5474
  423MOL0     H55816   5.541  -0.092   2.663 -2.4572 -0.4426 -0.4682
  423MOL0     H55817   5.628  -0.031   2.812 -2.0545  2.5362  1.4456
  423MOL0     H55818   5.746  -0.398   3.611  0.5741 -0.9138  0.7842
  423MOL0     H55819   5.975  -0.420   3.713 -1.1225  0.4249  0.1309
  423MOL0     H55820   6.376  -0.298   3.733 -1.1335  0.2785  1.4424
  423MOL0     H55821   6.562  -0.293   3.877  1.1680 -1.3070  1.8277
  423MOL0     H55822   8.033   0.292   3.701 -0.3828  0.3977  0.3244
  423MOL0     H55823   8.177   0.392   3.539 -0.4352  1.8902  2.1338
  423MOL0     H55824   8.773   0.537   3.599  0.0506  0.5962  0.2792
  423MOL0     H55825   8.907   0.656   3.448  0.1061 -1.8529  0.6440
  423MOL0     H55826   9.056   0.735   3.263  1.4406  2.0136 -1.8846
  423MOL0     H55827   8.920   0.843   3.267 -1.5130  0.5507 -1.5934
  423MOL0     H55828   9.090   0.759   3.032  0.7601 -0.0849  1.2677
  423MOL0     H55829   8.945   0.853   3.007 -0.1899 -0.8117  0.2161
  423MOL0     H55830   9.191   0.919   3.176  0.2434 -1.3207 -0.1989
  423MOL0     H55831   9.049   1.021   3.181 -1.3155 -2.2048  1.4315
  423MOL0     H55832   9.203   1.125   3.002  2.0011 -1.8115  1.5179
  423MOL0     H55833   9.242   0.973   2.937  2.9172  0.9250  2.6358
  423MOL0     H55834   8.926   1.118   2.696 -0.5701  1.6455  1.2459
  423MOL0     H55835   8.666   0.505   3.117  2.7844 -1.8576  0.2297
  423MOL0     H55836   8.506   0.432   3.275 -2.0497  3.5320  0.3055
  424MOL0     O55837   4.970   5.495   9.032 -0.4583  0.3957  0.8492
  424MOL0     C55838   4.991   5.545   8.920 -0.7011 -0.6861 -0.6899
  424MOL0     O55839   4.889   5.582   8.830 -0.0278 -0.6805  0.1360
  424MOL0     C55840   4.761   5.539   8.855 -1.3314  0.2721  0.0677
  424MOL0     C55841   4.737   5.412   8.900  0.6923  0.3376 -0.4913
  424MOL0     C55842   4.606   5.367   8.935 -0.0927  0.4166  0.7239
  424MOL0     C55843   4.500   5.456   8.902 -0.2427 -0.1965  1.0290
  424MOL0     O55844   4.369   5.419   8.923  0.9917  0.3830  0.4130
  424MOL0     C55845   4.333   5.307   9.005 -0.1070  1.1310 -0.5720
  424MOL0     C55846   4.205   5.346   9.081  0.1950 -0.1956  0.8996
  424MOL0     C55847   4.074   5.341   9.001 -0.2814  0.0023 -0.0556
  424MOL0     C55848   4.060   5.453   8.895  0.3043 -0.0796  0.1095
  424MOL0     C55849   3.917   5.444   8.829  1.0163  0.0695  0.0824
  424MOL0     C55850   3.895   5.304   8.768  0.5674  0.8305 -0.8997
  424MOL0     C55851   3.779   5.307   8.679 -0.1749  0.1458  0.3461
  424MOL0     C55852   3.789   5.217   8.561  0.6776  0.1699 -0.0308
  424MOL0     N55853   3.782   5.071   8.589 -1.6322 -0.0328  0.5981
  424MOL0     C55854   3.664   5.004   8.572  0.4095  0.9751 -0.3574
  424MOL0     C55855   3.702   4.875   8.604 -0.4653  0.3250  0.9203
  424MOL0     C55856   3.612   4.749   8.605  0.2701 -0.8434  0.6533
  424MOL0     C55857   3.659   4.655   8.494  0.1915  0.0283  0.4450
  424MOL0     C55858   3.793   4.597   8.533  0.4457  0.4834 -0.9681
  424MOL0     C55859   3.828   4.464   8.463  0.0315  1.1186 -0.3956
  424MOL0     O55860   3.898   4.379   8.554  0.2194 -0.3947  0.5507
  424MOL0     C55861   3.883   4.247   8.545  0.0764  0.1300  0.1587
  424MOL0     C55862   3.947   4.172   8.648  0.1265 -2.0237  0.7218
  424MOL0     C55863   3.944   4.033   8.649  0.0018  0.7205 -0.4994
  424MOL0     C55864   3.882   3.954   8.552 -0.4189 -0.4591 -0.3783
  424MOL0     C55865   3.884   3.811   8.545 -0.8002 -0.4517 -0.0772
  424MOL0     O55866   3.802   3.753   8.445  0.9773 -0.4619  0.1019
  424MOL0     C55867   3.812   3.620   8.428 -1.0686 -0.1474 -0.1163
  424MOL0     C55868   3.934   3.549   8.435  1.3042 -0.9677  0.1345
  424MOL0     C55869   3.936   3.413   8.403  0.4482 -0.3667 -0.4908
  424MOL0     C55870   3.823   3.339   8.362 -0.8377  0.2190  0.0944
  424MOL0     O55871   3.842   3.207   8.337 -0.2933 -0.3973  0.1225
  424MOL0     C55872   3.739   3.152   8.251 -0.8125 -0.7394  0.5007
  424MOL0     C55873   3.798   3.018   8.187  0.3640 -0.5605  0.9265
  424MOL0     C55874   3.912   3.057   8.085 -0.1839  0.3600 -1.0163
  424MOL0     C55875   4.061   3.072   8.142  0.6628 -0.0509  0.7961
  424MOL0     C55876   4.173   3.056   8.028  0.4318 -0.4624 -0.2781
  424MOL0     C55877   4.140   3.152   7.904 -0.1404  0.3634 -0.6960
  424MOL0     C55878   4.256   3.139   7.806 -0.1826  0.1122  0.2059
  424MOL0     C55879   4.223   3.187   7.665  0.0365 -0.5923  0.2007
  424MOL0    Cl55880   4.128   3.340   7.672  0.5851 -0.4944 -0.1111
  424MOL0     C55881   3.697   3.403   8.360 -0.2627  0.4644  0.4520
  424MOL0     C55882   3.698   3.546   8.381 -0.1688 -0.1992 -0.4237
  424MOL0     O55883   3.948   3.751   8.629 -0.6975 -0.4568  0.0206
  424MOL0     C55884   3.826   4.034   8.446  0.5192 -0.3139  0.1220
  424MOL0     C55885   3.832   4.168   8.448 -0.0521 -0.7319  0.1018
  424MOL0     N55886   3.835   4.881   8.643  0.3540 -0.8588  0.0288
  424MOL0     N55887   3.878   4.990   8.618 -0.1896  0.0368 -0.3648
  424MOL0     C55888   4.524   5.588   8.858 -0.0063 -0.1263  0.2927
  424MOL0     C55889   4.659   5.629   8.837  0.2453 -0.4925  0.5435
  424MOL0     C55890   5.125   5.562   8.873 -0.7627 -0.3576 -0.0084
  424MOL0     C55891   5.228   5.514   8.954 -0.4544  0.3889 -0.0707
  424MOL0     C55892   5.359   5.558   8.925 -0.2449 -0.2719 -0.2580
  424MOL0     C55893   5.396   5.632   8.816 -0.2809  0.4086 -0.8614
  424MOL0     O55894   5.526   5.666   8.792  1.3086  0.7357 -0.2759
  424MOL0     C55895   5.566   5.722   8.668  0.1102  0.5116  0.3317
  424MOL0     C55896   5.712   5.693   8.648  0.5244  0.1624 -0.0144
  424MOL0     C55897   5.754   5.761   8.514 -0.0800 -0.0880 -0.4346
  424MOL0     C55898   5.810   5.908   8.529  1.1014 -0.5735  0.3490
  424MOL0     C55899   5.726   6.010   8.590  0.6066  1.1021 -1.1196
  424MOL0     C55900   5.660   6.105   8.625 -0.0998 -0.2430  0.3083
  424MOL0     C55901   5.295   5.682   8.742  0.0241 -0.0059  0.2920
  424MOL0     C55902   5.164   5.649   8.767  0.8234 -0.2669  0.0501
  424MOL0     H55903   4.821   5.343   8.900 -0.6114 -1.5664  3.5571
  424MOL0     H55904   4.602   5.261   8.957 -1.4405 -0.0738 -1.5852
  424MOL0     H55905   4.401   5.290   9.089 -1.1631 -0.4264  0.0054
  424MOL0     H55906   4.325   5.212   8.952  2.4654 -0.7197  2.0196
  424MOL0     H55907   4.209   5.447   9.122  0.0417  0.1578  0.0530
  424MOL0     H55908   4.196   5.272   9.161  1.0262 -0.6984  0.5436
  424MOL0     H55909   4.000   5.371   9.076  0.5700 -1.4136  1.4078
  424MOL0     H55910   4.058   5.237   8.972  2.7267 -1.1576  1.9001
  424MOL0     H55911   4.068   5.551   8.943  4.2956 -0.0619 -0.3279
  424MOL0     H55912   4.126   5.445   8.809  0.2593 -0.3181  0.0946
  424MOL0     H55913   3.914   5.528   8.760  3.0346  0.3090  0.2311
  424MOL0     H55914   3.841   5.457   8.907  4.2017  1.4156  3.2370
  424MOL0     H55915   3.884   5.221   8.838 -0.6352 -0.7778 -2.8610
  424MOL0     H55916   3.986   5.278   8.713  1.2793 -1.4940  1.2294
  424MOL0     H55917   3.688   5.274   8.731  1.8158 -2.1514  2.6024
  424MOL0     H55918   3.758   5.405   8.634 -2.2452 -0.8276 -0.9784
  424MOL0     H55919   3.888   5.224   8.516  0.6831  0.3345  0.0060
  424MOL0     H55920   3.706   5.234   8.493 -1.1056 -0.3834  1.8833
  424MOL0     H55921   3.565   5.038   8.544 -0.5373 -0.6108  0.8696
  424MOL0     H55922   3.510   4.785   8.590  0.7527  2.2734  3.5081
  424MOL0     H55923   3.612   4.691   8.697 -0.4465 -4.2378 -1.3235
  424MOL0     H55924   3.680   4.715   8.405  0.1696  0.8966  1.0115
  424MOL0     H55925   3.587   4.575   8.471  0.0230 -0.2988  2.0029
  424MOL0     H55926   3.864   4.678   8.517 -1.2230  2.1008 -0.4853
  424MOL0     H55927   3.783   4.567   8.637 -0.9074  1.7697 -0.6962
  424MOL0     H55928   3.899   4.486   8.382  1.7377 -1.8539  0.1311
  424MOL0     H55929   3.741   4.406   8.432  0.6625 -2.0365  3.0135
  424MOL0     H55930   3.998   4.239   8.716 -2.0887  0.4491  0.1256
  424MOL0     H55931   3.999   3.987   8.731 -0.1576 -1.2028 -1.4032
  424MOL0     H55932   4.021   3.609   8.460  0.3052 -0.6881  3.4826
  424MOL0     H55933   4.032   3.364   8.414  1.4342  0.8928 -2.8314
  424MOL0     H55934   3.715   3.224   8.173  0.9548 -0.1880  0.4368
  424MOL0     H55935   3.644   3.121   8.297 -0.4568 -3.2860 -0.3242
  424MOL0     H55936   3.720   2.960   8.136 -0.4355  1.6547 -0.5496
  424MOL0     H55937   3.852   2.965   8.265  1.8441  0.0971  0.3979
  424MOL0     H55938   3.873   3.142   8.027 -3.8372 -0.9922 -0.8404
  424MOL0     H55939   3.924   2.969   8.021  0.7066 -1.4861  1.5313
  424MOL0     H55940   4.086   3.167   8.189  0.2293  0.6927 -0.4305
  424MOL0     H55941   4.085   2.992   8.214  2.5591  0.1657  0.4421
  424MOL0     H55942   4.171   2.951   7.996 -0.3936 -0.7012  0.5080
  424MOL0     H55943   4.270   3.080   8.071  0.5047 -0.1689 -0.6065
  424MOL0     H55944   4.140   3.259   7.928 -0.2895  0.9396 -3.0353
  424MOL0     H55945   4.043   3.121   7.863  0.0580 -0.5357 -0.4969
  424MOL0     H55946   4.332   3.211   7.838  0.9540 -0.6797 -0.6468
  424MOL0     H55947   4.296   3.038   7.800 -1.7244 -0.4620 -1.0941
  424MOL0     H55948   4.158   3.120   7.609 -1.1778  1.8400 -1.4753
  424MOL0     H55949   4.316   3.205   7.611 -0.0746  2.8265  0.9541
  424MOL0     H55950   3.605   3.360   8.323  2.2966 -4.0022 -1.4952
  424MOL0     H55951   3.611   3.608   8.362 -0.8953 -0.4816  1.7446
  424MOL0     H55952   3.782   3.978   8.364  1.1026 -1.3755  0.5169
  424MOL0     H55953   3.797   4.221   8.360 -0.3560  1.0980  1.2500
  424MOL0     H55954   4.440   5.653   8.836 -0.5025 -0.5578  0.9040
  424MOL0     H55955   4.683   5.733   8.815 -0.6232 -0.3059  0.4356
  424MOL0     H55956   5.216   5.446   9.037 -1.2018  0.5630 -0.0281
  424MOL0     H55957   5.432   5.510   8.988  0.4802 -1.5395 -1.9786
  424MOL0     H55958   5.549   5.830   8.672  2.6077  0.9356  3.3274
  424MOL0     H55959   5.502   5.679   8.591 -0.8649  0.4659  1.1461
  424MOL0     H55960   5.777   5.730   8.728  0.7391  3.8848 -1.6675
  424MOL0     H55961   5.718   5.587   8.624  1.2321  0.8379 -3.2536
  424MOL0     H55962   5.677   5.774   8.437  0.1186  0.5221 -0.5327
  424MOL0     H55963   5.831   5.699   8.468  0.4379 -0.5260  0.9721
  424MOL0     H55964   5.902   5.901   8.588  3.6346 -1.4889 -3.2784
  424MOL0     H55965   5.827   5.940   8.425  0.2032  1.4210  0.7688
  424MOL0     H55966   5.611   6.194   8.657 -1.1011  0.2871 -2.4260
  424MOL0     H55967   5.311   5.765   8.674 -0.5684  3.4805  3.9699
  424MOL0     H55968   5.087   5.700   8.711  1.5215  0.7961  0.0213
  425MOL0     O55969   2.743   3.490   9.764  0.7302  0.3516  1.0194
  425MOL0     C55970   2.690   3.416   9.843  0.8047  0.0200  0.0967
  425MOL0     O55971   2.720   3.287   9.857 -0.8767 -0.4832 -0.5869
  425MOL0     C55972   2.847   3.243   9.844 -0.3231 -0.4007 -0.2438
  425MOL0     C55973   2.960   3.322   9.842  0.4804  0.0949  0.1882
  425MOL0     C55974   3.086   3.269   9.819 -0.7141  0.7650  0.9390
  425MOL0     C55975   3.096   3.128   9.823 -0.3967  0.5699  0.2811
  425MOL0     O55976   3.215   3.054   9.809 -0.0932 -0.1892 -0.3339
  425MOL0     C55977   3.314   3.100   9.716  0.1078  0.4336 -0.3057
  425MOL0     C55978   3.411   2.989   9.677  0.4554  0.1024 -0.1130
  425MOL0     C55979   3.515   3.049   9.585 -0.7879  1.1645 -0.2937
  425MOL0     C55980   3.587   2.935   9.513  0.3853 -0.1411  0.8099
  425MOL0     C55981   3.695   2.988   9.422  0.0780  1.4634  0.1184
  425MOL0     C55982   3.730   2.869   9.331  0.5914 -0.7604  0.1371
  425MOL0     C55983   3.870   2.873   9.278  0.1283 -0.2678  0.1454
  425MOL0     C55984   3.877   2.973   9.156 -0.3527 -1.0197 -0.5629
  425MOL0     N55985   4.017   3.004   9.111 -0.7644 -1.3063  0.8993
  425MOL0     C55986   4.110   2.910   9.086  0.7011 -0.5279  0.2996
  425MOL0     C55987   4.214   2.987   9.042  0.4617  0.1747  0.6031
  425MOL0     C55988   4.342   2.945   8.979 -0.2377 -0.1083  0.8907
  425MOL0     C55989   4.392   2.820   9.049  0.4716  0.3439 -1.1755
  425MOL0     C55990   4.544   2.798   9.049 -0.0921  0.0224 -0.4253
  425MOL0     C55991   4.610   2.890   9.151  0.3600 -0.7709 -0.0175
  425MOL0     O55992   4.753   2.875   9.151 -0.1179 -0.6342 -0.0843
  425MOL0     C55993   4.814   2.959   9.244  0.8897  0.0663  0.3586
  425MOL0     C55994   4.942   2.925   9.292  1.1068  0.6729 -0.0283
  425MOL0     C55995   5.008   3.017   9.384  0.0784 -0.1004 -0.8042
  425MOL0     C55996   4.944   3.134   9.433 -0.3564 -0.0149 -0.3566
  425MOL0     C55997   5.022   3.228   9.511 -0.2145 -0.0843  1.2719
  425MOL0     O55998   5.164   3.208   9.524 -0.4864 -0.3250  0.3030
  425MOL0     C55999   5.222   3.277   9.629 -0.8163 -0.6484  0.0732
  425MOL0     C56000   5.176   3.273   9.765  0.3183  0.4223 -0.0643
  425MOL0     C56001   5.238   3.344   9.865  0.4263 -0.7662 -0.1077
  425MOL0     C56002   5.355   3.412   9.831 -0.8623  0.0809 -0.4631
  425MOL0     O56003   5.402   3.496   9.928 -0.4377  0.2177 -0.3798
  425MOL0     C56004   5.535   3.541   9.907 -0.5561  0.1515 -0.0592
  425MOL0     C56005   5.638   3.431   9.920 -0.8300 -0.0653  0.6661
  425MOL0     C56006   5.781   3.488   9.915  0.5115 -0.0937  0.2014
  425MOL0     C56007   5.888   3.388   9.936  0.4360  0.9664 -0.8527
  425MOL0     C56008   6.026   3.428   9.889 -0.4177  0.6347 -0.3169
  425MOL0     C56009   6.092   3.553   9.957 -0.7204  0.0077 -0.1031
  425MOL0     C56010   6.246   3.541   9.954 -0.2432  1.3333  0.3668
  425MOL0     C56011   6.312   3.661  10.014  0.0631 -0.4592  0.2658
  425MOL0    Cl56012   6.374   3.766   9.885 -0.1245  0.3048  0.2781
  425MOL0     C56013   5.408   3.404   9.697 -0.0946  0.0727 -0.0677
  425MOL0     C56014   5.338   3.343   9.601  0.0482 -0.0809  0.0507
  425MOL0     O56015   4.957   3.314   9.571  0.6223  1.1892  0.1169
  425MOL0     C56016   4.816   3.156   9.397 -0.3284 -0.7149  1.3677
  425MOL0     C56017   4.751   3.081   9.303  0.3504  0.3495  0.7827
  425MOL0     N56018   4.183   3.117   9.041  0.0964 -0.3806 -0.2321
  425MOL0     N56019   4.061   3.130   9.082  0.0629  0.0481 -0.0111
  425MOL0     C56020   2.982   3.049   9.825 -0.5202  0.1651  0.7601
  425MOL0     C56021   2.857   3.107   9.833 -0.5277  0.2902 -0.0055
  425MOL0     C56022   2.571   3.475   9.925 -0.6815  0.4796  0.9801
  425MOL0     C56023   2.558   3.617   9.941  0.1900 -0.1225 -0.4024
  425MOL0     C56024   2.452   3.671  10.020 -0.1762 -0.1462 -0.0879
  425MOL0     C56025   2.356   3.580  10.073  0.1763  0.0933 -0.6452
  425MOL0     O56026   2.244   3.632  10.120  0.9447  0.0960  0.1844
  425MOL0     C56027   2.257   3.695  10.245  0.3118 -0.4125  0.1096
  425MOL0     C56028   2.233   3.585  10.340 -0.4326 -0.0814 -0.3717
  425MOL0     C56029   2.087   3.521  10.321 -0.1105  0.4887  0.4604
  425MOL0     C56030   1.976   3.621  10.333  1.3464  0.1120  1.2821
  425MOL0     C56031   1.948   3.688  10.465 -0.5525 -0.2684 -0.7928
  425MOL0     C56032   1.914   3.742  10.575 -1.0534 -0.5246  0.3771
  425MOL0     C56033   2.376   3.439  10.055  1.8235  0.4932  0.2459
  425MOL0     C56034   2.485   3.392   9.991 -0.3081  0.1320 -1.1083
  425MOL0     H56035   2.954   3.430   9.847  2.6840  0.3084 -0.5066
  425MOL0     H56036   3.166   3.343   9.817 -1.9921  2.2003 -1.2942
  425MOL0     H56037   3.372   3.174   9.772 -1.5986  1.9501 -0.4424
  425MOL0     H56038   3.271   3.162   9.637  0.2865 -1.3779 -1.9059
  425MOL0     H56039   3.345   2.918   9.627 -0.2242 -0.5325  1.5964
  425MOL0     H56040   3.451   2.943   9.768 -0.0037  2.0586  1.1427
  425MOL0     H56041   3.592   3.103   9.642  0.9794 -0.5808 -0.9165
  425MOL0     H56042   3.465   3.121   9.520  0.2150  0.2126 -2.1762
  425MOL0     H56043   3.619   2.862   9.588 -3.2787 -0.7618  1.9786
  425MOL0     H56044   3.519   2.876   9.450  0.7550 -0.0052  0.2694
  425MOL0     H56045   3.787   3.018   9.473  1.9501  0.3974 -2.3807
  425MOL0     H56046   3.664   3.073   9.360  2.7806  0.3621 -3.0551
  425MOL0     H56047   3.658   2.859   9.249  0.7167  1.4178 -0.2933
  425MOL0     H56048   3.719   2.783   9.397 -0.4118  0.5371  1.7584
  425MOL0     H56049   3.940   2.910   9.354  3.7444  0.5131 -3.2614
  425MOL0     H56050   3.898   2.775   9.240 -0.7679  0.6963 -3.3200
  425MOL0     H56051   3.822   3.064   9.183 -1.4799 -2.0506  0.7422
  425MOL0     H56052   3.827   2.927   9.070 -1.0549 -4.6094  1.5639
  425MOL0     H56053   4.107   2.802   9.083  1.1184 -0.5098 -1.1224
  425MOL0     H56054   4.413   3.028   8.985 -2.6617  2.4002 -1.9049
  425MOL0     H56055   4.333   2.924   8.872  1.7387 -0.3584  0.7441
  425MOL0     H56056   4.352   2.734   8.994  2.0437 -1.1597 -0.0519
  425MOL0     H56057   4.364   2.812   9.155  2.2351 -0.0467 -0.7089
  425MOL0     H56058   4.567   2.695   9.080 -1.5680 -0.2991 -0.3099
  425MOL0     H56059   4.599   2.814   8.956  1.9332  2.6088  1.1100
  425MOL0     H56060   4.562   2.884   9.248 -1.0683 -2.0579 -0.7668
  425MOL0     H56061   4.604   2.988   9.102  1.7252 -0.6006  0.1110
  425MOL0     H56062   4.996   2.839   9.254 -0.2193 -0.8028  1.3348
  425MOL0     H56063   5.115   2.998   9.382  0.4674  1.5079 -4.4816
  425MOL0     H56064   5.083   3.224   9.791 -0.6998  1.6657 -1.1556
  425MOL0     H56065   5.194   3.350   9.964  0.1519  0.8965 -0.3013
  425MOL0     H56066   5.567   3.609   9.986  1.2671 -0.6451 -0.0659
  425MOL0     H56067   5.547   3.596   9.813  3.2116  0.1671  0.3096
  425MOL0     H56068   5.653   3.355   9.843  1.8200  0.4412  0.5836
  425MOL0     H56069   5.634   3.369  10.010  1.8618 -3.3096 -1.2028
  425MOL0     H56070   5.799   3.566   9.990 -0.2026 -1.8117  2.2400
  425MOL0     H56071   5.796   3.526   9.813  0.2614 -4.4143 -1.6324
  425MOL0     H56072   5.901   3.350  10.038 -3.3220 -0.4970 -0.7890
  425MOL0     H56073   5.855   3.298   9.885 -1.5542 -0.2314  2.2491
  425MOL0     H56074   6.022   3.455   9.783  0.7917  0.8404 -0.3334
  425MOL0     H56075   6.095   3.342   9.894 -0.4599  0.6382  0.5097
  425MOL0     H56076   6.066   3.560  10.063  0.6213 -2.7784  0.5052
  425MOL0     H56077   6.069   3.644   9.901  1.2103 -0.7568 -2.3063
  425MOL0     H56078   6.275   3.449  10.006  0.6881  0.0270 -2.3142
  425MOL0     H56079   6.286   3.523   9.854  2.4461  0.5603  1.4790
  425MOL0     H56080   6.392   3.624  10.079 -0.5647 -0.8072  0.8588
  425MOL0     H56081   6.244   3.711  10.084  1.6000 -1.2077  2.4240
  425MOL0     H56082   5.499   3.456   9.668 -1.2414  1.6094 -1.1052
  425MOL0     H56083   5.373   3.341   9.499 -1.5686  1.4548 -0.5919
  425MOL0     H56084   4.784   3.255   9.430  1.1968 -0.7807  3.1856
  425MOL0     H56085   4.657   3.118   9.264  1.4470 -0.9091 -3.7290
  425MOL0     H56086   2.999   2.942   9.832 -0.6687  0.0188 -0.6903
  425MOL0     H56087   2.768   3.045   9.832  0.0697 -0.5868  0.3424
  425MOL0     H56088   2.635   3.673   9.891  1.6814  0.1833  2.0755
  425MOL0     H56089   2.432   3.775  10.044  1.9492 -0.1026  1.7972
  425MOL0     H56090   2.189   3.778  10.264  1.2051  0.7271 -1.3742
  425MOL0     H56091   2.358   3.729  10.271  0.7143 -2.0401  0.8732
  425MOL0     H56092   2.323   3.524  10.342  0.0454  0.5173  3.3026
  425MOL0     H56093   2.209   3.629  10.437 -2.1347 -4.5373  1.4979
  425MOL0     H56094   2.080   3.455  10.408 -0.5395  2.3456  1.8756
  425MOL0     H56095   2.068   3.470  10.226 -1.4059  2.2586 -0.2708
  425MOL0     H56096   1.966   3.692  10.251  1.6483 -0.4905  0.7151
  425MOL0     H56097   1.890   3.556  10.315  2.0233 -0.3415 -0.4725
  425MOL0     H56098   1.874   3.788  10.663 -2.1585 -0.3104 -0.2191
  425MOL0     H56099   2.309   3.364  10.095  1.5277 -1.0776 -2.9182
  425MOL0     H56100   2.488   3.284   9.983 -1.9473 -0.1573  1.0216
  426MOL0     O56101   2.163   6.712   4.991 -0.5266 -0.2670 -0.5852
  426MOL0     C56102   2.043   6.700   4.968  0.4967 -0.4957 -0.5089
  426MOL0     O56103   1.952   6.786   5.026 -0.5613 -0.3839  0.4036
  426MOL0     C56104   1.998   6.880   5.118 -0.7759  0.3126  0.2850
  426MOL0     C56105   2.067   6.988   5.065 -0.2344 -0.6006  0.6260
  426MOL0     C56106   2.124   7.084   5.151 -0.6241  0.1290 -0.2369
  426MOL0     C56107   2.113   7.067   5.299 -0.1528  0.3057 -0.3804
  426MOL0     O56108   2.171   7.147   5.399 -0.4970  0.7089  0.2555
  426MOL0     C56109   2.292   7.220   5.360  0.7028 -0.1008 -0.6012
  426MOL0     C56110   2.345   7.294   5.483 -0.0038 -0.0292  0.1174
  426MOL0     C56111   2.403   7.216   5.592 -0.4493  0.9404 -0.2123
  426MOL0     C56112   2.470   7.306   5.691 -0.5441  0.6501 -0.2368
  426MOL0     C56113   2.473   7.231   5.825  0.3379  0.6407  0.2851
  426MOL0     C56114   2.563   7.309   5.929 -0.0419 -0.7897  1.4412
  426MOL0     C56115   2.554   7.236   6.061  0.7548 -0.2364 -0.9026
  426MOL0     C56116   2.613   7.340   6.165 -1.1689  0.2707  0.9528
  426MOL0     N56117   2.623   7.310   6.305 -0.7910  0.8862 -0.2077
  426MOL0     C56118   2.661   7.395   6.408 -0.3004 -0.0478  0.6685
  426MOL0     C56119   2.617   7.332   6.522 -0.7505 -0.6472  1.6043
  426MOL0     C56120   2.648   7.386   6.658  0.5253 -0.3101 -0.0640
  426MOL0     C56121   2.761   7.316   6.723 -0.3124 -0.2323  0.0880
  426MOL0     C56122   2.726   7.173   6.776  0.4846 -0.1496  0.0317
  426MOL0     C56123   2.847   7.082   6.787 -1.4261 -0.1364  0.2377
  426MOL0     O56124   2.960   7.151   6.852 -0.3016 -0.6350  0.0383
  426MOL0     C56125   3.045   7.103   6.946  0.1787 -0.5053 -0.6443
  426MOL0     C56126   3.142   7.195   7.004 -0.4550  0.3154 -0.7841
  426MOL0     C56127   3.251   7.146   7.086  0.8539 -0.2456  0.0465
  426MOL0     C56128   3.271   7.013   7.112  0.8338  0.3867  0.9647
  426MOL0     C56129   3.384   6.965   7.190 -0.5026 -0.1795 -0.3212
  426MOL0     O56130   3.449   7.064   7.272  0.1453  0.7122 -0.4531
  426MOL0     C56131   3.562   7.035   7.339  0.6185  1.4225  0.0527
  426MOL0     C56132   3.675   6.960   7.287 -0.2932  0.1461 -0.1897
  426MOL0     C56133   3.783   6.930   7.375 -0.1366 -0.1093 -0.5329
  426MOL0     C56134   3.790   6.993   7.504  0.7739 -0.2422  0.1668
  426MOL0     O56135   3.873   6.963   7.604  0.0036 -0.3824  0.5374
  426MOL0     C56136   3.992   6.891   7.571  0.1151  0.6090 -0.1698
  426MOL0     C56137   4.085   6.906   7.691  0.6921  1.2122 -0.0606
  426MOL0     C56138   4.130   7.053   7.697  0.4258 -0.3206  0.7720
  426MOL0     C56139   4.174   7.095   7.832  0.0539  0.1777 -1.2245
  426MOL0     C56140   4.260   7.227   7.842 -0.0144 -0.5416  0.0465
  426MOL0     C56141   4.277   7.268   7.989 -0.6750  0.4408  0.1025
  426MOL0     C56142   4.304   7.419   7.989 -0.9000 -0.1812 -0.2073
  426MOL0     C56143   4.320   7.465   8.136 -0.7294  0.3564  1.2538
  426MOL0    Cl56144   4.371   7.640   8.133  0.0479  0.4007 -0.4846
  426MOL0     C56145   3.684   7.068   7.549 -0.4274 -0.1066 -0.7084
  426MOL0     C56146   3.576   7.089   7.472  0.5449 -0.6626  0.3737
  426MOL0     O56147   3.418   6.846   7.175 -0.4138  0.4551  0.4845
  426MOL0     C56148   3.169   6.923   7.060 -0.1943 -0.1220  0.3674
  426MOL0     C56149   3.059   6.967   6.981  0.1072 -0.4597  0.1393
  426MOL0     N56150   2.545   7.219   6.492 -0.1279  0.0579  0.4616
  426MOL0     N56151   2.550   7.209   6.368 -0.4524  0.9010 -0.5194
  426MOL0     C56152   2.033   6.957   5.344  0.3479  0.0552  0.2519
  426MOL0     C56153   1.971   6.873   5.256  0.7346 -0.2511 -0.9538
  426MOL0     C56154   2.004   6.592   4.891  0.0364  0.9364  0.8142
  426MOL0     C56155   1.872   6.570   4.848  0.4622  0.2843 -0.4905
  426MOL0     C56156   1.822   6.453   4.789  0.6441  0.3887  0.0343
  426MOL0     C56157   1.907   6.353   4.762 -0.0370  0.1338  0.7416
  426MOL0     O56158   1.869   6.234   4.699 -0.2863 -0.2150 -0.2255
  426MOL0     C56159   1.757   6.150   4.745  0.4499  0.0396  0.0338
  426MOL0     C56160   1.756   6.008   4.679  0.6137  0.0539 -0.3352
  426MOL0     C56161   1.655   5.919   4.762 -0.6246 -0.6264 -0.6968
  426MOL0     C56162   1.661   5.778   4.703 -0.1636  0.1974  0.7737
  426MOL0     C56163   1.779   5.695   4.741  0.2281  0.6685 -0.3713
  426MOL0     C56164   1.875   5.652   4.802 -0.4743 -0.1207  0.7554
  426MOL0     C56165   2.042   6.369   4.792  0.4160  0.6750  0.2499
  426MOL0     C56166   2.092   6.483   4.860  0.1282  0.1991 -0.0506
  426MOL0     H56167   2.074   6.997   4.957 -1.8550 -0.4931  0.5009
  426MOL0     H56168   2.185   7.166   5.114  0.3447  0.4060  1.8495
  426MOL0     H56169   2.259   7.293   5.286 -3.8616 -2.5922 -1.3764
  426MOL0     H56170   2.366   7.148   5.323  0.4099 -0.6830 -0.0675
  426MOL0     H56171   2.262   7.349   5.529 -2.5631 -1.6292 -2.3348
  426MOL0     H56172   2.416   7.376   5.463  1.6313 -1.1686  0.9504
  426MOL0     H56173   2.467   7.141   5.544  4.1264  3.5334  1.2848
  426MOL0     H56174   2.307   7.174   5.624 -0.4086  0.1688 -1.0526
  426MOL0     H56175   2.564   7.338   5.645 -1.8584  1.2775 -2.6459
  426MOL0     H56176   2.414   7.398   5.711 -1.0038  0.1985  0.5697
  426MOL0     H56177   2.531   7.141   5.801  0.1586  0.0951  1.8108
  426MOL0     H56178   2.377   7.210   5.873  0.7966 -1.8923  0.2248
  426MOL0     H56179   2.520   7.410   5.937 -2.2157 -1.3722 -1.2029
  426MOL0     H56180   2.666   7.315   5.893 -0.7571  0.9084 -0.5321
  426MOL0     H56181   2.452   7.212   6.090  0.0769  2.4401 -0.8455
  426MOL0     H56182   2.607   7.141   6.058  2.5577  0.7346 -1.3626
  426MOL0     H56183   2.551   7.429   6.154 -2.9903 -1.1619 -1.3048
  426MOL0     H56184   2.717   7.364   6.139 -0.0430 -2.6505  2.2109
  426MOL0     H56185   2.706   7.492   6.393 -2.0989  0.4095 -2.8587
  426MOL0     H56186   2.560   7.371   6.722 -0.1270  3.5133  0.2199
  426MOL0     H56187   2.677   7.492   6.656  0.6431 -0.2420  2.1276
  426MOL0     H56188   2.807   7.366   6.809 -0.1957 -1.8215  0.9723
  426MOL0     H56189   2.844   7.311   6.651  0.6881  3.1141  0.8341
  426MOL0     H56190   2.682   7.181   6.876 -1.5405  1.1044 -0.8908
  426MOL0     H56191   2.660   7.127   6.701  1.7792  0.8332 -1.7958
  426MOL0     H56192   2.890   7.059   6.689 -2.0347  1.5609 -0.4757
  426MOL0     H56193   2.816   6.989   6.834 -3.0050  1.4354  2.5098
  426MOL0     H56194   3.132   7.302   6.991  0.7278  0.5260 -0.0724
  426MOL0     H56195   3.326   7.210   7.130  2.3029 -3.4791  2.6837
  426MOL0     H56196   3.673   6.927   7.184 -0.7443 -0.3918 -0.0116
  426MOL0     H56197   3.869   6.881   7.331 -1.1680 -0.0405 -2.7816
  426MOL0     H56198   4.042   6.935   7.484 -0.7751 -0.7419 -1.4083
  426MOL0     H56199   3.973   6.784   7.566  2.3298  0.1255  0.5295
  426MOL0     H56200   4.175   6.848   7.670 -0.3544 -0.2377 -0.6466
  426MOL0     H56201   4.026   6.873   7.777 -0.6637  2.3646 -0.5010
  426MOL0     H56202   4.061   7.135   7.674 -0.3065 -0.8960  0.8693
  426MOL0     H56203   4.209   7.063   7.623 -1.9136  2.2011 -1.6067
  426MOL0     H56204   4.084   7.114   7.891  0.6862 -0.8369  0.0899
  426MOL0     H56205   4.234   7.015   7.875  2.7606  1.1770 -2.8827
  426MOL0     H56206   4.197   7.297   7.786 -0.8376 -0.7347  0.7030
  426MOL0     H56207   4.357   7.215   7.793 -1.0920  1.2385 -2.8068
  426MOL0     H56208   4.359   7.210   8.031 -1.4655  0.4831  1.7829
  426MOL0     H56209   4.189   7.249   8.052 -0.8681  0.6451 -0.1035
  426MOL0     H56210   4.385   7.449   7.921 -1.0267 -0.6078 -0.5501
  426MOL0     H56211   4.217   7.469   7.946  0.8821  2.7602 -0.7734
  426MOL0     H56212   4.386   7.392   8.182 -0.8762 -0.1120  0.7359
  426MOL0     H56213   4.224   7.447   8.186 -0.7364 -0.0590  1.0968
  426MOL0     H56214   3.694   7.113   7.648  0.6111 -0.9627 -0.4113
  426MOL0     H56215   3.491   7.141   7.515  1.0092  3.1075 -2.7251
  426MOL0     H56216   3.176   6.817   7.083  0.6354  0.0307  0.8704
  426MOL0     H56217   2.982   6.899   6.947 -1.8865  1.2873  0.9285
  426MOL0     H56218   2.008   6.961   5.449 -0.3492 -0.7121  0.1262
  426MOL0     H56219   1.905   6.800   5.303 -2.2668  2.3496 -0.8479
  426MOL0     H56220   1.814   6.660   4.868  1.8370  0.6861  2.2249
  426MOL0     H56221   1.719   6.440   4.760  1.0601 -0.4983 -1.0828
  426MOL0     H56222   1.663   6.190   4.705 -0.2977 -2.5489 -1.0377
  426MOL0     H56223   1.750   6.144   4.854  1.7818  0.2559  0.1475
  426MOL0     H56224   1.735   6.008   4.572 -0.6516 -0.6353 -0.1046
  426MOL0     H56225   1.859   5.975   4.698 -0.0006 -0.5505  2.4062
  426MOL0     H56226   1.553   5.958   4.755 -0.6702 -0.4014  0.8666
  426MOL0     H56227   1.685   5.920   4.867  2.2603  0.8917 -1.4311
  426MOL0     H56228   1.565   5.725   4.714  0.1703 -0.5573  0.2045
  426MOL0     H56229   1.677   5.789   4.595 -1.9186  2.5245  0.6675
  426MOL0     H56230   1.965   5.628   4.854 -1.2634  1.3355  2.9137
  426MOL0     H56231   2.122   6.300   4.767  0.4241 -0.0172  2.0238
  426MOL0     H56232   2.197   6.480   4.888  0.3798 -1.8377 -1.0770
  427MOL0     O56233   0.876   2.272   7.427  0.3015  0.0827 -0.5574
  427MOL0     C56234   0.878   2.389   7.466  0.3331 -0.6640 -0.5226
  427MOL0     O56235   0.955   2.494   7.420 -0.4418  0.1409  0.4491
  427MOL0     C56236   1.057   2.468   7.334 -0.2603 -0.2186 -0.3126
  427MOL0     C56237   1.184   2.522   7.359  1.2742 -0.7200 -0.5932
  427MOL0     C56238   1.290   2.514   7.270 -0.3879  0.4492 -0.1157
  427MOL0     C56239   1.274   2.424   7.167  0.1783 -0.4767 -0.3297
  427MOL0     O56240   1.367   2.383   7.076 -0.4144 -0.6291  0.0357
  427MOL0     C56241   1.504   2.383   7.110  0.7577 -0.2652 -0.2081
  427MOL0     C56242   1.579   2.285   7.018  0.5798  0.5752  0.3084
  427MOL0     C56243   1.723   2.306   7.001 -0.1745  0.1728  1.1131
  427MOL0     C56244   1.754   2.414   6.896  0.4944  0.1551  0.1560
  427MOL0     C56245   1.902   2.438   6.879  0.2556  0.8583 -0.0253
  427MOL0     C56246   1.993   2.310   6.873 -0.6641  0.6877 -0.0304
  427MOL0     C56247   2.131   2.338   6.814 -0.7922  0.2563 -0.0620
  427MOL0     C56248   2.198   2.468   6.855 -0.2336 -0.0168 -0.2429
  427MOL0     N56249   2.243   2.452   7.000 -0.6404 -0.1461 -0.3017
  427MOL0     C56250   2.343   2.360   7.047 -0.1780 -1.2601 -0.1457
  427MOL0     C56251   2.343   2.376   7.182  0.2523  0.1561  0.4689
  427MOL0     C56252   2.433   2.299   7.276 -0.1770  0.2345  0.1333
  427MOL0     C56253   2.579   2.339   7.244 -0.1251  0.0446 -0.5431
  427MOL0     C56254   2.686   2.296   7.355  0.6259  0.2641 -0.1612
  427MOL0     C56255   2.665   2.354   7.499 -0.6091 -0.1564 -0.5145
  427MOL0     O56256   2.616   2.493   7.484 -0.0135 -0.0811  0.4804
  427MOL0     C56257   2.619   2.570   7.603 -0.1502 -0.7675 -0.6358
  427MOL0     C56258   2.589   2.703   7.590 -0.6715  0.2228  0.4587
  427MOL0     C56259   2.590   2.785   7.695  0.8519 -0.0308 -0.4947
  427MOL0     C56260   2.630   2.744   7.828  0.2620  0.5592  0.4252
  427MOL0     C56261   2.636   2.843   7.943 -0.9731  0.0077 -0.1417
  427MOL0     O56262   2.603   2.973   7.912 -0.6041  0.2041 -0.2645
  427MOL0     C56263   2.614   3.071   8.007 -1.0700 -1.0031  0.4044
  427MOL0     C56264   2.692   3.178   7.973  0.8697  0.0150 -0.2471
  427MOL0     C56265   2.714   3.289   8.049  0.1262 -0.3899  0.4721
  427MOL0     C56266   2.646   3.303   8.174 -0.1000  0.7018 -0.0589
  427MOL0     O56267   2.667   3.414   8.246 -0.0837  0.2292  0.4093
  427MOL0     C56268   2.648   3.409   8.389  0.3178 -0.2269  0.2361
  427MOL0     C56269   2.750   3.330   8.472  0.1124  0.9102  0.5527
  427MOL0     C56270   2.712   3.348   8.620  0.4029  0.4681 -0.6671
  427MOL0     C56271   2.795   3.455   8.686  0.4136 -0.3509 -0.1579
  427MOL0     C56272   2.924   3.392   8.735  0.6349  0.3591 -0.9683
  427MOL0     C56273   3.002   3.491   8.825  0.0427 -0.4806  0.2716
  427MOL0     C56274   3.107   3.413   8.894 -0.2691  0.2687 -0.1717
  427MOL0     C56275   3.189   3.492   8.991 -0.0410  0.3106  0.3970
  427MOL0    Cl56276   3.115   3.479   9.146  0.4956 -0.1001  0.1072
  427MOL0     C56277   2.561   3.195   8.208 -1.2727  0.0069  0.5471
  427MOL0     C56278   2.543   3.082   8.123  0.4413 -0.2245  0.2363
  427MOL0     O56279   2.685   2.806   8.048 -0.9013 -0.0685 -0.1674
  427MOL0     C56280   2.665   2.608   7.838 -0.5383 -1.5609 -0.3888
  427MOL0     C56281   2.657   2.520   7.728 -0.2252  0.0187  0.3518
  427MOL0     N56282   2.264   2.484   7.218 -0.0404  0.2879 -0.4308
  427MOL0     N56283   2.195   2.526   7.117  0.1125 -0.8674 -0.0522
  427MOL0     C56284   1.148   2.364   7.146 -0.7240  0.2296 -0.1048
  427MOL0     C56285   1.037   2.391   7.224  0.1743  0.5461  0.7867
  427MOL0     C56286   0.762   2.428   7.552 -0.0446  0.4258 -0.3216
  427MOL0     C56287   0.690   2.332   7.623  0.7527  0.0255 -0.3088
  427MOL0     C56288   0.577   2.374   7.705 -0.6399  0.6389 -0.4447
  427MOL0     C56289   0.529   2.502   7.708  0.1315 -0.8553 -0.5666
  427MOL0     O56290   0.428   2.527   7.793  0.6658 -0.8819 -0.3533
  427MOL0     C56291   0.340   2.642   7.788 -0.0801  0.0727 -0.3503
  427MOL0     C56292   0.267   2.673   7.656 -0.7654  0.0660  0.5591
  427MOL0     C56293   0.213   2.542   7.588  0.2411 -0.0919  0.9067
  427MOL0     C56294   0.105   2.467   7.675 -0.1340  0.1322 -0.3457
  427MOL0     C56295  -0.008   2.556   7.705  0.3755  0.0055 -0.3791
  427MOL0     C56296  -0.105   2.625   7.724  0.7025 -0.1173 -0.4382
  427MOL0     C56297   0.597   2.601   7.636 -0.0558 -0.1719  0.3937
  427MOL0     C56298   0.717   2.570   7.570  0.3875 -0.7409  0.2735
  427MOL0     H56299   1.206   2.579   7.449  1.5281 -1.1898 -0.3570
  427MOL0     H56300   1.387   2.553   7.299 -0.2604  0.3053 -0.3442
  427MOL0     H56301   1.524   2.351   7.213 -1.8085 -1.9105 -0.1332
  427MOL0     H56302   1.540   2.485   7.097  1.0225 -0.5765 -2.2388
  427MOL0     H56303   1.531   2.297   6.920  1.2428  0.4077 -0.0456
  427MOL0     H56304   1.559   2.184   7.054  0.3243 -1.9371 -5.6499
  427MOL0     H56305   1.762   2.214   6.956  2.3178  0.3007  2.7816
  427MOL0     H56306   1.773   2.336   7.094 -1.3371  2.2442  1.1370
  427MOL0     H56307   1.712   2.392   6.798  1.0054 -2.1153  0.3882
  427MOL0     H56308   1.724   2.510   6.938  2.6917  0.0527  2.2041
  427MOL0     H56309   1.933   2.499   6.964 -0.6041 -0.9747  1.6847
  427MOL0     H56310   1.923   2.492   6.785  1.9240  1.6396  0.7569
  427MOL0     H56311   1.947   2.231   6.813 -0.3893  1.3335 -1.1086
  427MOL0     H56312   1.986   2.269   6.975  0.0584 -0.7673 -0.5380
  427MOL0     H56313   2.203   2.257   6.827  1.0210  1.9643  1.3493
  427MOL0     H56314   2.129   2.345   6.705  0.9512 -1.2439 -0.2443
  427MOL0     H56315   2.125   2.550   6.849 -0.3823  0.0846  1.9807
  427MOL0     H56316   2.279   2.477   6.783 -0.9403 -0.6401 -1.1365
  427MOL0     H56317   2.395   2.287   6.985  0.3103 -0.8509 -0.2195
  427MOL0     H56318   2.417   2.191   7.273 -0.8994  0.3297  0.3906
  427MOL0     H56319   2.408   2.331   7.377 -0.5250  3.4121 -0.8583
  427MOL0     H56320   2.576   2.445   7.218 -0.0609 -0.1932 -1.5572
  427MOL0     H56321   2.605   2.288   7.151 -0.4657 -0.6219 -0.2787
  427MOL0     H56322   2.689   2.187   7.360 -0.3390  0.2875  2.2492
  427MOL0     H56323   2.785   2.337   7.334  0.7923 -0.1772 -0.2557
  427MOL0     H56324   2.764   2.361   7.546 -0.0103  3.0587 -1.9692
  427MOL0     H56325   2.591   2.298   7.557  2.2022 -2.4882  1.1075
  427MOL0     H56326   2.547   2.738   7.496 -0.6138 -0.5690  0.1301
  427MOL0     H56327   2.556   2.887   7.676  1.6247  0.6208  1.3456
  427MOL0     H56328   2.739   3.179   7.875 -0.4609 -0.5130 -0.9147
  427MOL0     H56329   2.766   3.377   8.014  0.6413 -1.3168 -1.1740
  427MOL0     H56330   2.544   3.385   8.414  0.1560  0.0410 -0.1683
  427MOL0     H56331   2.654   3.509   8.432 -1.4780  1.4827 -3.0979
  427MOL0     H56332   2.852   3.355   8.444  1.2272 -1.0595  2.4625
  427MOL0     H56333   2.753   3.221   8.458  0.3797  1.0594 -0.6168
  427MOL0     H56334   2.716   3.255   8.677 -0.8868  0.6178 -0.3200
  427MOL0     H56335   2.607   3.377   8.625  0.6158  1.1747 -0.1281
  427MOL0     H56336   2.813   3.535   8.613 -2.4268  1.5290  1.0239
  427MOL0     H56337   2.742   3.500   8.770  0.6795 -0.8267  0.2687
  427MOL0     H56338   2.983   3.354   8.651 -3.4263 -0.9479 -3.5334
  427MOL0     H56339   2.899   3.304   8.796  1.1457 -0.0930 -1.4006
  427MOL0     H56340   2.942   3.536   8.905  0.4617 -0.4699  0.5828
  427MOL0     H56341   3.040   3.574   8.764  1.2162  0.3410  2.0286
  427MOL0     H56342   3.077   3.315   8.931 -0.3336 -1.5580 -4.4011
  427MOL0     H56343   3.177   3.396   8.812  3.5060  4.7368  1.6971
  427MOL0     H56344   3.199   3.593   8.949 -0.3161 -0.8475 -2.7191
  427MOL0     H56345   3.291   3.456   9.010 -0.2788 -1.1798 -0.9293
  427MOL0     H56346   2.509   3.194   8.303 -1.3960  3.0804  0.5960
  427MOL0     H56347   2.486   2.994   8.149  0.1425  0.0950  0.6685
  427MOL0     H56348   2.694   2.571   7.936 -0.4538  1.6019  0.8977
  427MOL0     H56349   2.683   2.417   7.749  0.0001 -0.0536 -0.2688
  427MOL0     H56350   1.140   2.303   7.057 -2.0196 -0.5097  0.4902
  427MOL0     H56351   0.944   2.343   7.195  0.2858  2.4697 -3.3704
  427MOL0     H56352   0.734   2.233   7.622  0.5188 -0.0740 -0.5716
  427MOL0     H56353   0.535   2.295   7.767  1.8548  0.1176  0.7017
  427MOL0     H56354   0.406   2.729   7.796  1.3603 -0.7136 -2.6768
  427MOL0     H56355   0.266   2.640   7.868 -0.5820  0.8427 -0.7833
  427MOL0     H56356   0.182   2.739   7.672 -0.1909  0.7266  0.9418
  427MOL0     H56357   0.342   2.717   7.589 -0.6359 -0.7441  0.1539
  427MOL0     H56358   0.290   2.466   7.574  0.3262 -1.1093  5.5299
  427MOL0     H56359   0.160   2.569   7.496 -4.9090 -0.9694  3.2756
  427MOL0     H56360   0.082   2.386   7.605  2.1320  1.2376 -2.5306
  427MOL0     H56361   0.150   2.444   7.772  0.9538  0.2849 -0.8014
  427MOL0     H56362  -0.191   2.685   7.748 -0.7359 -2.0815 -0.4288
  427MOL0     H56363   0.572   2.706   7.639  4.1861  1.2040 -2.7755
  427MOL0     H56364   0.765   2.651   7.516 -1.6456  1.1615  1.1731
  428MOL0     O56365  11.074  10.197   6.479  0.2013  0.0819  1.2686
  428MOL0     C56366  11.024  10.145   6.576  0.2222  0.4818  0.3857
  428MOL0     O56367  11.072  10.153   6.709  0.5948 -0.3515  0.1029
  428MOL0     C56368  11.186  10.230   6.721 -0.4774  0.0129  0.0617
  428MOL0     C56369  11.292  10.169   6.801 -0.9027 -0.4975 -0.6258
  428MOL0     C56370  11.426  10.221   6.804 -0.8015  0.3313  0.3093
  428MOL0     C56371  11.452  10.336   6.724 -0.1776 -0.4514 -0.0851
  428MOL0     O56372  11.578  10.389   6.720 -0.2255  0.7810  0.6845
  428MOL0     C56373  11.617  10.489   6.826  0.1443  0.9730 -0.3871
  428MOL0     C56374  11.768  10.510   6.829  1.6419 -0.2667  0.3942
  428MOL0     C56375  11.807  10.629   6.740  0.0661  0.1686 -0.2873
  428MOL0     C56376  11.949  10.676   6.750 -0.2492  0.5225 -0.0927
  428MOL0     C56377  12.048  10.582   6.684 -0.4793 -0.4011  0.0532
  428MOL0     C56378  12.191  10.602   6.742 -0.7568  0.1009 -0.0830
  428MOL0     C56379  12.297  10.516   6.684 -0.7930 -0.5070  0.5296
  428MOL0     C56380  12.438  10.550   6.715 -0.4110 -0.1849 -0.4301
  428MOL0     N56381  12.521  10.436   6.683 -0.3115  0.4733 -1.2003
  428MOL0     C56382  12.581  10.412   6.566  0.1886 -0.4604 -0.7288
  428MOL0     C56383  12.624  10.285   6.572  0.1088 -0.7949  0.0682
  428MOL0     C56384  12.675  10.217   6.452  0.3990  0.1957  0.0421
  428MOL0     C56385  12.602  10.263   6.319 -0.8372  0.4062  0.6200
  428MOL0     C56386  12.656  10.183   6.199  0.2283 -0.1867 -0.3753
  428MOL0     C56387  12.579  10.237   6.080  0.2882 -0.4027  0.0246
  428MOL0     O56388  12.647  10.356   6.021  0.4240  0.1965  0.5927
  428MOL0     C56389  12.604  10.393   5.902  0.0047 -0.5645  0.2214
  428MOL0     C56390  12.704  10.435   5.817  0.7127 -0.1619  0.1717
  428MOL0     C56391  12.670  10.477   5.686  0.0833  1.2166  0.0916
  428MOL0     C56392  12.532  10.486   5.646 -0.5422  0.4236  0.7359
  428MOL0     C56393  12.502  10.519   5.505  0.3346 -0.3088 -0.5991
  428MOL0     O56394  12.364  10.507   5.473 -0.0272 -0.3358  0.7445
  428MOL0     C56395  12.325  10.542   5.349  0.3716 -1.4177 -0.5618
  428MOL0     C56396  12.293  10.675   5.326 -0.5580 -0.9554  0.1959
  428MOL0     C56397  12.233  10.712   5.205  0.0294 -0.1613 -0.7777
  428MOL0     C56398  12.219  10.617   5.107  0.6947 -0.1478 -1.0572
  428MOL0     O56399  12.151  10.663   5.002 -0.0563 -0.3765 -0.3741
  428MOL0     C56400  12.228  10.718   4.897 -1.1655 -0.5122 -0.5820
  428MOL0     C56401  12.159  10.691   4.765  0.3202 -0.5030 -0.0489
  428MOL0     C56402  12.137  10.548   4.732  0.5582 -0.8536 -0.1597
  428MOL0     C56403  12.062  10.530   4.600 -0.7837 -0.3446  0.2975
  428MOL0     C56404  11.969  10.412   4.617  0.3280  0.4229 -0.8877
  428MOL0     C56405  11.837  10.456   4.683  0.8156  0.7818  0.4437
  428MOL0     C56406  11.737  10.345   4.684 -0.3831 -0.3369  0.0767
  428MOL0     C56407  11.773  10.242   4.786 -0.0325  1.0617  0.4424
  428MOL0    Cl56408  11.643  10.113   4.812  0.0602 -0.2260  0.2992
  428MOL0     C56409  12.264  10.484   5.121  0.1716 -0.4038 -0.4072
  428MOL0     C56410  12.309  10.452   5.245 -0.1736  0.0039  0.3482
  428MOL0     O56411  12.590  10.544   5.428 -0.1317  0.3266  0.5006
  428MOL0     C56412  12.432  10.443   5.739  0.2786 -1.1489  0.9178
  428MOL0     C56413  12.471  10.401   5.864 -0.2483  0.6614 -0.9372
  428MOL0     N56414  12.605  10.241   6.699  0.4188  0.6110 -1.1214
  428MOL0     N56415  12.555  10.334   6.774  0.5065 -0.4098  0.1168
  428MOL0     C56416  11.343  10.407   6.669 -0.1096 -1.3540 -0.4353
  428MOL0     C56417  11.213  10.356   6.663  0.0132  0.8690  0.4446
  428MOL0     C56418  10.909  10.044   6.556 -0.0067 -1.2984 -0.3854
  428MOL0     C56419  10.846  10.046   6.436 -0.5517  0.2585  0.1320
  428MOL0     C56420  10.721   9.972   6.416  0.4048  0.1918  0.3427
  428MOL0     C56421  10.669   9.892   6.521 -0.7350  0.5248  0.0785
  428MOL0     O56422  10.554   9.820   6.519 -1.1618 -0.0611  0.3088
  428MOL0     C56423  10.444   9.863   6.435 -0.1788 -0.3373 -0.0319
  428MOL0     C56424  10.443   9.833   6.279  0.7886 -0.4193 -0.6835
  428MOL0     C56425  10.501   9.698   6.237 -0.8815  0.8150 -0.0771
  428MOL0     C56426  10.418   9.572   6.270 -0.2247 -0.5377 -0.3988
  428MOL0     C56427  10.299   9.565   6.196  0.8196 -0.1825 -0.2530
  428MOL0     C56428  10.205   9.560   6.126  0.7514 -0.1499  0.1083
  428MOL0     C56429  10.760   9.868   6.632 -0.1704  0.0940 -0.6252
  428MOL0     C56430  10.870   9.950   6.656  0.3034 -0.2545  0.2252
  428MOL0     H56431  11.284  10.073   6.852  0.9659 -0.1268  0.4579
  428MOL0     H56432  11.504  10.172   6.862  0.8870  0.3765 -1.7852
  428MOL0     H56433  11.585  10.435   6.915 -0.0373  0.8616 -0.5214
  428MOL0     H56434  11.564  10.584   6.819  2.0015  1.9495 -2.5437
  428MOL0     H56435  11.817  10.422   6.785  0.0181  0.0660 -2.3220
  428MOL0     H56436  11.786  10.531   6.935  0.7274  0.2019  0.4668
  428MOL0     H56437  11.736  10.708   6.766 -1.2617 -1.0371 -0.0890
  428MOL0     H56438  11.792  10.597   6.636  1.4961 -2.2748  0.1579
  428MOL0     H56439  11.956  10.772   6.698 -1.2769  1.0783  0.7548
  428MOL0     H56440  11.975  10.688   6.855  1.1730  1.5402 -0.5299
  428MOL0     H56441  12.057  10.615   6.580 -0.9347  2.5520  0.8486
  428MOL0     H56442  12.025  10.475   6.682  0.9281 -0.7990  1.9875
  428MOL0     H56443  12.186  10.569   6.846  1.6056  2.3884  0.8581
  428MOL0     H56444  12.214  10.709   6.740 -2.4855  0.5942  2.0485
  428MOL0     H56445  12.279  10.416   6.726  1.1394 -2.0064 -1.8991
  428MOL0     H56446  12.276  10.514   6.576 -2.2085 -0.0566  0.7714
  428MOL0     H56447  12.443  10.577   6.821 -0.4727  2.1829 -0.9748
  428MOL0     H56448  12.461  10.634   6.649 -1.4455  1.2692  0.9913
  428MOL0     H56449  12.586  10.478   6.480  2.3461  1.2284  0.5936
  428MOL0     H56450  12.659  10.109   6.458  0.1947  0.2975  3.7976
  428MOL0     H56451  12.783  10.234   6.444  0.6907 -1.9896 -1.9036
  428MOL0     H56452  12.619  10.368   6.294 -1.9128 -0.1320 -2.8435
  428MOL0     H56453  12.494  10.248   6.326 -0.8464 -0.3631 -0.7379
  428MOL0     H56454  12.761  10.201   6.176  1.6124 -0.8864  4.2961
  428MOL0     H56455  12.634  10.075   6.202 -1.7293  0.0538 -2.6492
  428MOL0     H56456  12.480  10.274   6.109  0.4850  2.1932 -2.2152
  428MOL0     H56457  12.557  10.162   6.004 -1.0043 -0.1534  0.1291
  428MOL0     H56458  12.810  10.426   5.839  0.9990 -0.5323 -1.2537
  428MOL0     H56459  12.746  10.490   5.610 -2.6027  2.5258 -2.5959
  428MOL0     H56460  12.311  10.753   5.400  1.5944 -0.2630 -0.9606
  428MOL0     H56461  12.196  10.812   5.184 -0.1580 -0.0050  0.2229
  428MOL0     H56462  12.330  10.679   4.891 -0.9868 -0.4779  1.4468
  428MOL0     H56463  12.227  10.828   4.894 -3.6174 -0.4905 -1.9399
  428MOL0     H56464  12.228  10.727   4.688 -0.7828  0.5732 -0.5503
  428MOL0     H56465  12.061  10.739   4.760 -0.5485 -2.0326  1.1267
  428MOL0     H56466  12.070  10.515   4.812  0.6609 -0.8663 -0.0798
  428MOL0     H56467  12.235  10.501   4.727  0.7786 -0.4394  0.1739
  428MOL0     H56468  12.003  10.615   4.565 -1.3899 -1.5524 -1.8186
  428MOL0     H56469  12.132  10.515   4.517 -0.2599  4.1490 -0.3515
  428MOL0     H56470  12.020  10.336   4.677  1.5099  1.8966  0.0252
  428MOL0     H56471  11.945  10.374   4.517  1.9119  0.7470 -1.4140
  428MOL0     H56472  11.798  10.545   4.633  0.3282 -0.0129 -0.6313
  428MOL0     H56473  11.856  10.478   4.788 -4.3358  1.5151  1.4722
  428MOL0     H56474  11.643  10.387   4.720  1.0356  1.5846  1.7702
  428MOL0     H56475  11.720  10.312   4.581 -0.0492  0.9967 -0.4195
  428MOL0     H56476  11.831  10.284   4.868 -0.2350  1.6983  0.2617
  428MOL0     H56477  11.840  10.171   4.736 -0.1473  0.0594  1.6649
  428MOL0     H56478  12.266  10.418   5.035 -1.2235 -1.3796  0.2730
  428MOL0     H56479  12.344  10.352   5.267 -1.8665 -0.5023  0.9188
  428MOL0     H56480  12.329  10.454   5.706  0.4979 -0.2599  0.5182
  428MOL0     H56481  12.398  10.368   5.937  1.9147 -0.9429  0.6364
  428MOL0     H56482  11.371  10.500   6.620 -1.0852  0.3225  2.0041
  428MOL0     H56483  11.152  10.405   6.588 -0.2462 -1.2712 -0.8343
  428MOL0     H56484  10.879  10.102   6.349 -0.1654  0.5358  0.4529
  428MOL0     H56485  10.668   9.984   6.322  0.6272  1.9667  0.4067
  428MOL0     H56486  10.424   9.970   6.451 -1.0754 -0.2260 -1.6982
  428MOL0     H56487  10.348   9.826   6.472  0.1975 -1.1746  0.1306
  428MOL0     H56488  10.346   9.851   6.231  1.9514 -0.3460 -3.1316
  428MOL0     H56489  10.508   9.912   6.239  0.8096  0.5242  1.0795
  428MOL0     H56490  10.597   9.690   6.290 -1.5936  3.9143  1.9666
  428MOL0     H56491  10.515   9.697   6.129  0.2446  0.9264  0.0562
  428MOL0     H56492  10.483   9.492   6.234 -0.6762 -1.1731  0.1799
  428MOL0     H56493  10.412   9.549   6.377  2.4192 -0.9470 -0.2693
  428MOL0     H56494  10.141   9.570   6.041 -0.2311 -3.1054  0.3773
  428MOL0     H56495  10.738   9.792   6.706 -2.1763  1.2545  0.0730
  428MOL0     H56496  10.919   9.944   6.753  3.4783 -4.5847 -1.3406
  429MOL0     O56497   5.126   1.709   9.692 -0.0146  0.0257 -0.1369
  429MOL0     C56498   5.045   1.660   9.613 -0.4677  0.1359  0.1368
  429MOL0     O56499   5.076   1.603   9.487 -0.2721  0.0328 -0.8085
  429MOL0     C56500   5.206   1.610   9.456 -0.2825  0.7431  0.6741
  429MOL0     C56501   5.288   1.497   9.447 -0.3875  0.2743  0.4608
  429MOL0     C56502   5.421   1.497   9.404 -1.2673  0.3338 -0.2217
  429MOL0     C56503   5.475   1.623   9.366  0.4652 -0.2871 -0.2027
  429MOL0     O56504   5.600   1.635   9.309 -0.1243 -0.3471  1.2709
  429MOL0     C56505   5.618   1.718   9.192 -0.5700  0.0570 -0.6811
  429MOL0     C56506   5.730   1.648   9.112 -0.2984 -0.0973  0.2617
  429MOL0     C56507   5.770   1.746   9.005 -0.6902 -0.9244 -0.5854
  429MOL0     C56508   5.886   1.693   8.927  0.4159  0.0058 -0.9114
  429MOL0     C56509   5.915   1.783   8.817  0.3890 -0.4098  1.0631
  429MOL0     C56510   5.982   1.917   8.861  0.5490 -1.5369 -0.2922
  429MOL0     C56511   6.012   2.011   8.742  0.0533 -0.3454  0.4224
  429MOL0     C56512   6.101   2.129   8.770  0.1830 -0.1314 -0.8720
  429MOL0     N56513   6.053   2.229   8.863  0.7669 -0.0112 -0.3434
  429MOL0     C56514   5.953   2.316   8.831 -0.3111  0.4178 -0.3712
  429MOL0     C56515   5.945   2.393   8.945  0.2645 -0.3261  0.1694
  429MOL0     C56516   5.844   2.497   8.957 -0.0439  0.2834  0.3352
  429MOL0     C56517   5.909   2.633   8.936 -0.3298 -0.0978  0.5080
  429MOL0     C56518   5.948   2.658   8.785 -1.1136  0.3774  0.2575
  429MOL0     C56519   5.906   2.796   8.729  0.0887 -0.0443 -0.9112
  429MOL0     O56520   5.761   2.811   8.729  0.7938  0.5049  0.9598
  429MOL0     C56521   5.696   2.923   8.677 -0.5495 -0.1857 -0.8019
  429MOL0     C56522   5.556   2.920   8.682  0.1170  0.1182 -0.3464
  429MOL0     C56523   5.493   3.038   8.638 -0.1111 -0.2137 -0.8867
  429MOL0     C56524   5.564   3.149   8.578 -0.3838  0.3205  0.6609
  429MOL0     C56525   5.483   3.258   8.511  0.1355 -0.6419  0.4698
  429MOL0     O56526   5.349   3.259   8.547 -0.1596  0.2920 -0.7272
  429MOL0     C56527   5.265   3.366   8.511 -0.3962 -0.1635  0.4527
  429MOL0     C56528   5.136   3.331   8.530  0.3545 -0.8330  0.1717
  429MOL0     C56529   5.045   3.432   8.523  0.2377 -0.1506 -0.8239
  429MOL0     C56530   5.074   3.563   8.493  0.4711  0.6877 -0.3951
  429MOL0     O56531   4.979   3.659   8.486  0.0111  0.1442  0.0068
  429MOL0     C56532   4.852   3.617   8.426 -0.5950  0.2815  1.2283
  429MOL0     C56533   4.806   3.748   8.349 -0.2024  0.4719  0.1645
  429MOL0     C56534   4.660   3.739   8.280 -0.4899 -0.4056 -0.5168
  429MOL0     C56535   4.556   3.711   8.393  0.5094 -0.0359 -0.1416
  429MOL0     C56536   4.413   3.738   8.344 -0.8635 -0.2509  0.1978
  429MOL0     C56537   4.300   3.681   8.429  0.0073 -0.8967 -0.6880
  429MOL0     C56538   4.308   3.752   8.566  0.0871 -0.2270 -0.9939
  429MOL0     C56539   4.260   3.679   8.686 -0.8144 -0.7257 -0.1235
  429MOL0    Cl56540   4.325   3.748   8.839  0.1289  0.0728  0.4404
  429MOL0     C56541   5.212   3.599   8.479 -0.3839  0.3382 -0.2077
  429MOL0     C56542   5.305   3.494   8.477  0.1440 -1.4230 -0.4379
  429MOL0     O56543   5.532   3.326   8.422  0.1798  0.3759 -0.1082
  429MOL0     C56544   5.703   3.137   8.549 -0.3815  0.4210 -0.4308
  429MOL0     C56545   5.770   3.029   8.612  0.4804  0.1180  0.4030
  429MOL0     N56546   6.053   2.367   9.035  0.2459 -0.8346 -0.4270
  429MOL0     N56547   6.109   2.259   8.983  0.4718 -0.7703  0.6870
  429MOL0     C56548   5.405   1.743   9.395  0.6207  0.1647 -0.7223
  429MOL0     C56549   5.272   1.731   9.438  0.6698  1.1292  0.7960
  429MOL0     C56550   4.899   1.654   9.645 -1.0548 -0.3144  0.5268
  429MOL0     C56551   4.809   1.614   9.541  0.3622 -0.2184 -0.1249
  429MOL0     C56552   4.677   1.601   9.576 -0.9124  0.4121 -0.4958
  429MOL0     C56553   4.634   1.612   9.711 -0.7651 -0.0812 -0.2984
  429MOL0     O56554   4.502   1.580   9.741  0.1770  0.2058  0.1177
  429MOL0     C56555   4.458   1.594   9.879 -0.4023  0.6581  0.0698
  429MOL0     C56556   4.334   1.526   9.910  0.9839  0.3911 -0.2123
  429MOL0     C56557   4.198   1.604   9.883 -0.4161 -0.1304 -0.0353
  429MOL0     C56558   4.087   1.509   9.847  0.2913 -0.1406  0.1828
  429MOL0     C56559   4.053   1.414   9.949 -1.0602  0.1635  0.2589
  429MOL0     C56560   4.047   1.337  10.041  0.5983  0.4552 -0.0086
  429MOL0     C56561   4.732   1.666   9.804 -0.0710  0.6950  0.6589
  429MOL0     C56562   4.866   1.673   9.780  0.5938 -0.4244 -0.1702
  429MOL0     H56563   5.250   1.403   9.486 -0.5394  0.8567  1.7568
  429MOL0     H56564   5.470   1.401   9.397 -2.3000 -0.2543  0.4004
  429MOL0     H56565   5.647   1.821   9.214 -0.4622 -0.2244  0.5880
  429MOL0     H56566   5.527   1.722   9.131 -2.6948  0.1696  2.2834
  429MOL0     H56567   5.709   1.545   9.084  0.3304  0.4868 -2.7361
  429MOL0     H56568   5.824   1.634   9.167  0.3046  1.5594 -0.2694
  429MOL0     H56569   5.786   1.850   9.036  1.1601 -0.5220 -2.6278
  429MOL0     H56570   5.681   1.746   8.941 -2.7525 -1.1316  2.1280
  429MOL0     H56571   5.980   1.687   8.982 -0.1967  0.2615  0.1855
  429MOL0     H56572   5.859   1.595   8.887 -3.0039  0.8735 -1.0797
  429MOL0     H56573   5.823   1.816   8.769 -0.4792  2.4039  4.2739
  429MOL0     H56574   5.977   1.729   8.745  1.1867  0.0383  1.3960
  429MOL0     H56575   6.075   1.895   8.913 -0.2760 -2.0961  0.9840
  429MOL0     H56576   5.925   1.975   8.935  4.0256  1.7137  0.1407
  429MOL0     H56577   6.067   1.952   8.668  2.8895  2.3753  0.1256
  429MOL0     H56578   5.919   2.049   8.698  0.1972  1.1458  1.3229
  429MOL0     H56579   6.148   2.186   8.689 -0.3671  0.6833 -0.6359
  429MOL0     H56580   6.179   2.075   8.824 -1.5134 -0.9763  0.8436
  429MOL0     H56581   5.902   2.319   8.735 -0.6329 -0.3824 -0.2261
  429MOL0     H56582   5.800   2.502   9.057 -0.5227  3.6099  0.0851
  429MOL0     H56583   5.756   2.481   8.893 -0.6200 -0.8234  1.3688
  429MOL0     H56584   5.993   2.656   9.003  1.0452  1.1516 -1.5272
  429MOL0     H56585   5.831   2.706   8.959 -2.4389 -1.2461 -2.4580
  429MOL0     H56586   6.058   2.659   8.790 -1.0796 -1.8805  0.7782
  429MOL0     H56587   5.910   2.582   8.717  0.9853  0.2801 -0.8925
  429MOL0     H56588   5.954   2.796   8.631  0.9399 -2.4612 -0.5678
  429MOL0     H56589   5.946   2.872   8.797  2.0286  0.1084 -2.1442
  429MOL0     H56590   5.495   2.843   8.727  3.0732 -1.0886  1.9585
  429MOL0     H56591   5.389   3.044   8.668  0.8644 -0.1383  2.9843
  429MOL0     H56592   5.103   3.233   8.561  1.2638 -1.4223 -0.6927
  429MOL0     H56593   4.943   3.409   8.550  0.3646 -0.3712 -0.5160
  429MOL0     H56594   4.778   3.574   8.494  0.2504 -0.3647  1.7521
  429MOL0     H56595   4.856   3.543   8.345 -3.8140  1.4841 -0.2130
  429MOL0     H56596   4.877   3.767   8.268  0.0850 -1.7064 -0.1574
  429MOL0     H56597   4.801   3.824   8.427  1.7489  0.8714 -0.0604
  429MOL0     H56598   4.649   3.661   8.205 -2.7003 -1.0099  0.3573
  429MOL0     H56599   4.640   3.839   8.239  1.5857  0.3417  0.1405
  429MOL0     H56600   4.561   3.609   8.433 -2.0159  0.1649  0.8584
  429MOL0     H56601   4.589   3.771   8.478  1.2865 -1.6013  0.7054
  429MOL0     H56602   4.409   3.687   8.248  0.8123 -2.7044  1.3171
  429MOL0     H56603   4.386   3.841   8.323  0.5225  0.2648  0.7907
  429MOL0     H56604   4.306   3.572   8.441 -0.0275 -0.6896  1.8745
  429MOL0     H56605   4.201   3.701   8.389 -0.6503  0.1119  1.2908
  429MOL0     H56606   4.408   3.793   8.584 -1.1013  1.9183  1.4843
  429MOL0     H56607   4.240   3.838   8.560  1.4106  1.0034  0.6853
  429MOL0     H56608   4.311   3.583   8.695  0.9832  0.1559 -0.5502
  429MOL0     H56609   4.153   3.657   8.699 -0.5070 -1.0448  2.3151
  429MOL0     H56610   5.220   3.704   8.453 -2.5582 -0.0220 -2.8680
  429MOL0     H56611   5.408   3.523   8.458  1.8411 -4.1400  3.3233
  429MOL0     H56612   5.761   3.211   8.496  2.6798  0.8741  3.1716
  429MOL0     H56613   5.877   3.016   8.609  0.2905 -1.5919 -0.4090
  429MOL0     H56614   5.437   1.847   9.389  2.2195 -0.2586 -0.0725
  429MOL0     H56615   5.220   1.825   9.454 -1.8469 -0.0192  0.0317
  429MOL0     H56616   4.849   1.590   9.443 -0.9001 -2.7733 -0.0942
  429MOL0     H56617   4.609   1.557   9.503  0.8433 -0.0872 -1.9041
  429MOL0     H56618   4.442   1.702   9.892  1.6541  1.0099  0.1325
  429MOL0     H56619   4.531   1.551   9.948 -2.7466  0.5772  2.6735
  429MOL0     H56620   4.323   1.432   9.856  0.1523 -1.0025  2.2605
  429MOL0     H56621   4.329   1.509  10.018 -2.7627  0.2320 -0.2658
  429MOL0     H56622   4.199   1.673   9.798 -1.9183  2.0667  1.6194
  429MOL0     H56623   4.192   1.651   9.981  0.9498 -1.2269  0.6115
  429MOL0     H56624   3.997   1.571   9.833  0.2673 -0.8713 -3.9673
  429MOL0     H56625   4.108   1.476   9.745 -0.7155  1.8694 -0.7259
  429MOL0     H56626   4.045   1.259  10.114 -2.2736  1.8347  1.5808
  429MOL0     H56627   4.694   1.688   9.903  2.7528  0.7329  1.8280
  429MOL0     H56628   4.938   1.711   9.852 -0.1746  0.9793 -0.1054
  430MOL0     O56629   6.700   9.495   5.405 -0.0979 -0.4504 -0.1682
  430MOL0     C56630   6.771   9.481   5.502  0.0687  0.3627  0.0915
  430MOL0     O56631   6.774   9.551   5.621  0.2005 -0.3461  0.0223
  430MOL0     C56632   6.712   9.671   5.644  0.7029 -1.2059 -0.1417
  430MOL0     C56633   6.734   9.727   5.774  0.3830  0.0055  0.1159
  430MOL0     C56634   6.678   9.852   5.815 -0.0924  0.3410 -0.0109
  430MOL0     C56635   6.586   9.920   5.731 -0.4348 -0.2128 -0.2637
  430MOL0     O56636   6.530  10.033   5.786  0.5321 -0.2506 -0.1006
  430MOL0     C56637   6.467  10.122   5.697 -0.0699 -0.6270 -0.0435
  430MOL0     C56638   6.469  10.262   5.756 -0.4449  0.1057 -0.1548
  430MOL0     C56639   6.362  10.283   5.855  0.2918  0.3313 -1.1095
  430MOL0     C56640   6.327  10.432   5.868  0.0636  0.1662 -0.1017
  430MOL0     C56641   6.203  10.462   5.952 -0.8489  0.0880 -1.2896
  430MOL0     C56642   6.200  10.602   6.014 -0.6768 -0.4748 -0.6880
  430MOL0     C56643   6.078  10.613   6.100  0.5546  0.3044 -1.0277
  430MOL0     C56644   6.079  10.545   6.240 -0.2448 -0.5151 -0.7484
  430MOL0     N56645   6.186  10.612   6.318 -0.2861 -0.9437 -0.1947
  430MOL0     C56646   6.257  10.556   6.415  0.4275 -0.3314  0.0987
  430MOL0     C56647   6.346  10.641   6.461 -0.3228  0.8530 -0.5696
  430MOL0     C56648   6.448  10.629   6.566 -0.8309 -0.3496  0.3028
  430MOL0     C56649   6.413  10.680   6.707  0.4609  0.0810 -0.0621
  430MOL0     C56650   6.344  10.820   6.708 -0.7167  0.7420  0.3924
  430MOL0     C56651   6.200  10.822   6.727 -0.0518  0.4484  0.5398
  430MOL0     O56652   6.177  10.792   6.869  1.3275  1.3325  0.1306
  430MOL0     C56653   6.040  10.751   6.881  0.2575 -0.9701  0.2874
  430MOL0     C56654   5.932  10.835   6.869  0.4561  1.0397 -0.4437
  430MOL0     C56655   5.795  10.784   6.862 -0.4932  0.3712  0.8862
  430MOL0     C56656   5.771  10.651   6.882  0.9534  0.7266 -0.0089
  430MOL0     C56657   5.635  10.607   6.896  0.2411 -0.0012 -0.6714
  430MOL0     O56658   5.616  10.471   6.900 -0.9620  0.2030  0.5997
  430MOL0     C56659   5.489  10.424   6.940  0.0014  0.6251 -0.6452
  430MOL0     C56660   5.450  10.434   7.075  0.5041 -0.4400 -0.4766
  430MOL0     C56661   5.341  10.370   7.121 -0.3518 -0.5750 -0.6694
  430MOL0     C56662   5.244  10.334   7.023 -0.1884  1.0599  0.2957
  430MOL0     O56663   5.113  10.299   7.042  0.7950 -0.0085 -0.4710
  430MOL0     C56664   5.037  10.343   7.149  0.3755 -0.0477 -0.7697
  430MOL0     C56665   5.033  10.497   7.175  0.3378  0.0064  0.7021
  430MOL0     C56666   4.924  10.542   7.272 -0.6553  0.6346 -0.0802
  430MOL0     C56667   4.788  10.531   7.211  0.3180  0.2935  0.1653
  430MOL0     C56668   4.663  10.575   7.291  0.8590  0.0697 -0.5315
  430MOL0     C56669   4.638  10.475   7.405 -0.1047  0.2429  0.2316
  430MOL0     C56670   4.537  10.531   7.503  0.6991 -0.4935 -0.7122
  430MOL0     C56671   4.502  10.443   7.631 -0.3104 -0.7082 -0.1210
  430MOL0    Cl56672   4.657  10.464   7.734 -0.3846 -0.1402  0.1730
  430MOL0     C56673   5.280  10.325   6.885  0.3256  0.0798 -0.9509
  430MOL0     C56674   5.404  10.377   6.843  1.1076 -0.3187  1.2570
  430MOL0     O56675   5.531  10.686   6.906 -0.5769  0.2108 -0.3453
  430MOL0     C56676   5.884  10.567   6.880  0.2918  0.1914  0.3946
  430MOL0     C56677   6.009  10.618   6.882 -0.5160  0.2908  0.1843
  430MOL0     N56678   6.324  10.757   6.400  0.0888 -0.1215  0.5314
  430MOL0     N56679   6.227  10.745   6.318  0.7724  0.5151 -0.4655
  430MOL0     C56680   6.559   9.856   5.611  0.2395 -0.6722  0.3152
  430MOL0     C56681   6.614   9.742   5.567 -0.0151 -0.1577 -0.2790
  430MOL0     C56682   6.878   9.364   5.492 -0.2551 -0.6031  0.2872
  430MOL0     C56683   6.894   9.299   5.371  0.7708  0.5270 -0.2268
  430MOL0     C56684   6.963   9.182   5.369 -0.0658  0.4031 -0.5057
  430MOL0     C56685   7.025   9.122   5.482 -0.6915  0.1847 -0.1946
  430MOL0     O56686   7.070   8.988   5.480  0.0433 -0.0621  0.2136
  430MOL0     C56687   7.123   8.953   5.354  0.1555 -0.9201  0.0782
  430MOL0     C56688   7.196   8.823   5.366 -0.3694  0.1816  0.2600
  430MOL0     C56689   7.105   8.711   5.336  0.5805 -0.0027 -0.3921
  430MOL0     C56690   7.162   8.575   5.311 -0.8196  0.2101  0.0464
  430MOL0     C56691   7.247   8.525   5.425  0.1483  0.2601 -0.5123
  430MOL0     C56692   7.319   8.495   5.528  0.0939  0.5325  0.1677
  430MOL0     C56693   7.005   9.185   5.601 -0.6380  0.5186  0.1272
  430MOL0     C56694   6.942   9.315   5.602  0.8172 -0.9013 -0.4125
  430MOL0     H56695   6.793   9.679   5.852 -2.4390  0.3455  2.6306
  430MOL0     H56696   6.712   9.889   5.911  1.6612 -0.6274 -0.2361
  430MOL0     H56697   6.361  10.097   5.685  0.1105 -1.2053 -0.4961
  430MOL0     H56698   6.520  10.117   5.601  1.9507 -1.0050  1.0352
  430MOL0     H56699   6.453  10.332   5.673  2.0792  0.0437 -0.7750
  430MOL0     H56700   6.571  10.280   5.792 -0.2264  2.4925 -1.7163
  430MOL0     H56701   6.395  10.241   5.950  2.5969  3.5824 -0.2817
  430MOL0     H56702   6.270  10.243   5.812 -0.4927  1.2198 -0.3052
  430MOL0     H56703   6.416  10.485   5.903 -1.1678  1.8230  0.6848
  430MOL0     H56704   6.303  10.468   5.767 -1.2339 -0.3871 -0.0130
  430MOL0     H56705   6.187  10.397   6.038 -2.0408  1.0180 -0.7708
  430MOL0     H56706   6.110  10.435   5.900 -0.4914 -1.5948 -1.1033
  430MOL0     H56707   6.199  10.676   5.933 -1.2456 -1.8085 -1.9689
  430MOL0     H56708   6.293  10.617   6.068  0.1486 -0.0077 -2.1715
  430MOL0     H56709   6.067  10.721   6.111  0.4146  0.1456  0.7147
  430MOL0     H56710   5.993  10.582   6.038 -1.0311  1.0727  0.6697
  430MOL0     H56711   6.104  10.439   6.238  2.1594 -0.0096 -0.7308
  430MOL0     H56712   5.981  10.555   6.289 -0.1304  0.5437 -0.7064
  430MOL0     H56713   6.260  10.452   6.447 -0.0122 -0.1383  0.7895
  430MOL0     H56714   6.542  10.675   6.535 -0.8748 -1.5296 -1.7287
  430MOL0     H56715   6.487  10.528   6.583  6.3681  1.7679 -0.3912
  430MOL0     H56716   6.500  10.685   6.773  0.8652 -1.7832 -0.4105
  430MOL0     H56717   6.358  10.598   6.754  3.2346 -2.0609 -0.2620
  430MOL0     H56718   6.380  10.871   6.797 -2.7059  0.6498  1.3052
  430MOL0     H56719   6.384  10.873   6.621  2.2215 -1.7953  0.0377
  430MOL0     H56720   6.162  10.742   6.663  0.4161 -1.8769  2.9323
  430MOL0     H56721   6.168  10.921   6.695  0.8629  1.0822  1.5210
  430MOL0     H56722   5.968  10.938   6.866  0.8679  0.9626  0.9962
  430MOL0     H56723   5.717  10.858   6.877  1.0589  1.8167  2.2017
  430MOL0     H56724   5.521  10.484   7.139  3.5111 -0.7844 -3.2563
  430MOL0     H56725   5.320  10.361   7.227 -1.2110 -0.5807 -0.8349
  430MOL0     H56726   5.073  10.300   7.243 -0.1278 -3.7829 -2.1190
  430MOL0     H56727   4.939  10.299   7.131  0.3539 -0.4138  0.1633
  430MOL0     H56728   5.030  10.544   7.076  0.9350 -1.3877 -0.0120
  430MOL0     H56729   5.132  10.519   7.215 -0.4481 -0.5822  3.1079
  430MOL0     H56730   4.944  10.644   7.303 -1.5354  1.1303 -1.0716
  430MOL0     H56731   4.934  10.471   7.355  4.3655 -1.2312 -1.8834
  430MOL0     H56732   4.794  10.603   7.129  0.8037  0.9006  0.7277
  430MOL0     H56733   4.772  10.430   7.171 -0.5800  2.2731 -5.4601
  430MOL0     H56734   4.570  10.582   7.235  0.4004 -0.4277  0.1531
  430MOL0     H56735   4.688  10.668   7.343 -1.5328 -0.5156  1.8859
  430MOL0     H56736   4.734  10.453   7.453  2.8316  1.0130 -4.6428
  430MOL0     H56737   4.591  10.383   7.369 -0.9915  0.9253 -0.3978
  430MOL0     H56738   4.572  10.622   7.553 -2.1329  0.2100  0.1976
  430MOL0     H56739   4.438  10.538   7.458  0.0653 -2.7072  0.1736
  430MOL0     H56740   4.476  10.340   7.604 -0.1681 -0.6144 -0.6460
  430MOL0     H56741   4.408  10.488   7.663 -0.5457  0.5363 -2.3602
  430MOL0     H56742   5.219  10.266   6.817  1.6074  0.6337 -2.6561
  430MOL0     H56743   5.416  10.354   6.738 -1.5258 -1.0193  1.0387
  430MOL0     H56744   5.867  10.463   6.902 -0.9384  0.5246  1.1082
  430MOL0     H56745   6.090  10.547   6.875  0.7861  1.6762  0.5819
  430MOL0     H56746   6.487   9.906   5.547  2.3031  0.3796 -1.3230
  430MOL0     H56747   6.599   9.690   5.473 -0.3617 -4.2525  1.8280
  430MOL0     H56748   6.847   9.328   5.277 -0.8009 -1.5738 -0.1579
  430MOL0     H56749   6.958   9.126   5.276  1.6538 -1.2308  0.2938
  430MOL0     H56750   7.187   9.036   5.323 -1.3125 -0.9248 -3.4319
  430MOL0     H56751   7.041   8.938   5.283  2.4135 -5.2343 -2.0766
  430MOL0     H56752   7.283   8.818   5.299 -2.3301  1.5668 -2.6026
  430MOL0     H56753   7.215   8.811   5.473 -1.1804 -0.9628  0.2955
  430MOL0     H56754   7.046   8.727   5.245 -2.5648  1.9906  1.7698
  430MOL0     H56755   7.024   8.703   5.409  0.2853  0.0768 -0.7067
  430MOL0     H56756   7.078   8.507   5.294 -0.1807 -0.7410  0.5997
  430MOL0     H56757   7.229   8.577   5.224 -0.9411 -2.1070 -0.1743
  430MOL0     H56758   7.364   8.457   5.618  0.3710  0.2865 -0.0727
  430MOL0     H56759   7.032   9.136   5.694 -1.7834 -0.0317  0.1858
  430MOL0     H56760   6.917   9.366   5.695  2.4745  0.8348 -0.8707
  431MOL0     O56761   1.658   9.766   1.900 -0.4582 -0.3288  0.8066
  431MOL0     C56762   1.707   9.863   1.845 -0.2160 -0.0994 -0.0751
  431MOL0     O56763   1.842   9.900   1.845  0.0990 -0.0491 -0.6447
  431MOL0     C56764   1.913   9.849   1.941  0.2868 -0.3971 -0.0374
  431MOL0     C56765   1.868   9.838   2.074  0.8571  0.2589 -0.6416
  431MOL0     C56766   1.943   9.786   2.183 -0.2293 -0.5459  0.5339
  431MOL0     C56767   2.068   9.730   2.154 -0.4799 -1.2923  0.4345
  431MOL0     O56768   2.137   9.667   2.254 -0.6931  0.3050  0.4628
  431MOL0     C56769   2.122   9.522   2.264  0.4697  0.0123  0.2307
  431MOL0     C56770   2.265   9.464   2.296 -0.1826 -0.2510 -0.1467
  431MOL0     C56771   2.367   9.493   2.179  0.2032  0.4826  1.0161
  431MOL0     C56772   2.491   9.414   2.185  1.0605  0.2385  0.1748
  431MOL0     C56773   2.616   9.499   2.182 -0.1328 -0.3863  0.1336
  431MOL0     C56774   2.673   9.513   2.040 -0.6122  0.3572  1.2508
  431MOL0     C56775   2.619   9.642   1.966 -0.5262 -1.6200 -1.0590
  431MOL0     C56776   2.663   9.778   2.028  0.0338  0.6348 -0.4999
  431MOL0     N56777   2.553   9.837   2.097  0.0524 -0.1602  0.4327
  431MOL0     C56778   2.545   9.881   2.232  0.5675 -0.7549  0.2847
  431MOL0     C56779   2.437   9.977   2.223 -0.2426  0.1509 -1.3671
  431MOL0     C56780   2.382  10.053   2.341 -0.0922  0.3053  0.3681
  431MOL0     C56781   2.321   9.947   2.430 -0.7189  0.3725 -0.2760
  431MOL0     C56782   2.252  10.010   2.552  0.3168 -0.2237  1.1479
  431MOL0     C56783   2.135  10.101   2.498 -0.1648 -0.2244 -0.0968
  431MOL0     O56784   2.038  10.125   2.603 -0.5065  0.0745  0.3234
  431MOL0     C56785   2.077  10.207   2.710  0.1598 -0.5332 -0.0597
  431MOL0     C56786   2.009  10.196   2.823  0.0169 -0.0789 -0.7298
  431MOL0     C56787   2.038  10.285   2.927  0.2511 -0.2443  0.8852
  431MOL0     C56788   2.140  10.390   2.927  0.3460  0.6916 -0.7224
  431MOL0     C56789   2.153  10.487   3.042 -0.3051  0.2074  0.4486
  431MOL0     O56790   2.253  10.577   3.030  0.3400  0.1113 -0.0034
  431MOL0     C56791   2.218  10.703   3.064 -1.0282 -0.3742  0.3813
  431MOL0     C56792   2.288  10.763   3.172 -0.2130 -0.0115  0.8575
  431MOL0     C56793   2.256  10.895   3.218 -0.4972 -0.0447 -0.0832
  431MOL0     C56794   2.132  10.947   3.188  0.3414  0.3403 -0.3710
  431MOL0     O56795   2.085  11.057   3.257  0.8653  0.4152 -0.6249
  431MOL0     C56796   2.028  11.029   3.390 -0.3283  0.0841  0.6179
  431MOL0     C56797   2.041  11.152   3.489  1.4568  0.2043  0.4934
  431MOL0     C56798   2.183  11.214   3.454 -0.5970 -0.2019 -0.0784
  431MOL0     C56799   2.215  11.328   3.551  0.4546 -0.2618 -0.3167
  431MOL0     C56800   2.309  11.437   3.501 -0.0976  0.0035 -0.6265
  431MOL0     C56801   2.243  11.537   3.414  0.1285 -1.1914  0.1909
  431MOL0     C56802   2.350  11.626   3.348  0.0325  0.8478 -0.2827
  431MOL0     C56803   2.301  11.741   3.255 -0.8456  0.4045  0.3042
  431MOL0    Cl56804   2.445  11.856   3.243  0.4519  0.3165  0.4456
  431MOL0     C56805   2.063  10.887   3.082 -0.2325  0.8577 -0.7810
  431MOL0     C56806   2.106  10.767   3.015 -0.2170  0.0766 -0.1498
  431MOL0     O56807   2.065  10.485   3.134 -0.5123 -0.8344 -0.4461
  431MOL0     C56808   2.218  10.389   2.809  0.4279  0.5534 -0.3762
  431MOL0     C56809   2.188  10.294   2.706 -0.1007 -0.2747 -0.7189
  431MOL0     N56810   2.390   9.980   2.093  0.0489  0.5535  0.1950
  431MOL0     N56811   2.456   9.897   2.021  0.1990 -0.7121 -0.8271
  431MOL0     C56812   2.120   9.747   2.022 -0.2775 -0.2621 -0.3966
  431MOL0     C56813   2.047   9.810   1.918 -0.2519  0.3800  0.0017
  431MOL0     C56814   1.617   9.938   1.757  0.0661  0.6034 -0.0046
  431MOL0     C56815   1.477   9.913   1.758  0.2637  0.1749 -0.5689
  431MOL0     C56816   1.391   9.979   1.666  0.4309 -0.4409 -0.8248
  431MOL0     C56817   1.440  10.092   1.596  0.5611 -0.4919 -0.1968
  431MOL0     O56818   1.358  10.169   1.524  0.6511  0.0500 -0.3299
  431MOL0     C56819   1.393  10.204   1.387 -0.0410  0.7036 -0.0231
  431MOL0     C56820   1.276  10.246   1.305 -0.0643  0.1946 -0.0078
  431MOL0     C56821   1.296  10.265   1.159 -0.6130 -0.6232  0.3526
  431MOL0     C56822   1.158  10.304   1.099  0.5102 -0.6183 -0.3193
  431MOL0     C56823   1.175  10.330   0.954  0.1542  0.7682 -0.4287
  431MOL0     C56824   1.176  10.347   0.835  0.2375 -0.6464  0.1013
  431MOL0     C56825   1.572  10.119   1.602 -0.3247 -0.3336 -0.8222
  431MOL0     C56826   1.666  10.030   1.668 -0.6048 -0.8359 -1.1256
  431MOL0     H56827   1.772   9.878   2.105 -0.3637 -4.5416  3.2342
  431MOL0     H56828   1.902   9.792   2.283 -2.4057  0.1936 -0.3484
  431MOL0     H56829   2.083   9.478   2.172  0.5034  0.7443 -0.1442
  431MOL0     H56830   2.067   9.496   2.354 -2.4925  2.9946 -0.5120
  431MOL0     H56831   2.255   9.357   2.317 -1.8180  0.1979  1.7381
  431MOL0     H56832   2.308   9.516   2.382  0.5319  0.0734 -0.6916
  431MOL0     H56833   2.406   9.595   2.173 -0.2034  0.6019 -3.4605
  431MOL0     H56834   2.327   9.484   2.077  1.1615  2.5728  0.3996
  431MOL0     H56835   2.484   9.361   2.280  4.0361  2.2293  1.6853
  431MOL0     H56836   2.495   9.333   2.111  0.4264 -0.9079  1.3613
  431MOL0     H56837   2.687   9.449   2.248 -0.5776 -2.1525 -0.6641
  431MOL0     H56838   2.602   9.590   2.241  0.6665  0.6374 -1.2047
  431MOL0     H56839   2.645   9.433   1.970  0.8899  1.1459 -0.3249
  431MOL0     H56840   2.780   9.520   2.059 -0.7591  0.7474  1.9686
  431MOL0     H56841   2.661   9.627   1.866 -1.6478 -3.7905 -1.2863
  431MOL0     H56842   2.512   9.643   1.941 -0.7602  1.8772 -0.3735
  431MOL0     H56843   2.682   9.847   1.945  0.4366  1.0896 -0.0329
  431MOL0     H56844   2.744   9.775   2.100 -0.1884 -1.4005 -0.2839
  431MOL0     H56845   2.605   9.850   2.317  2.4782  1.6233 -0.0767
  431MOL0     H56846   2.336  10.142   2.299  0.4718  0.1689 -0.5848
  431MOL0     H56847   2.469  10.093   2.394  0.5048 -1.5845  0.9190
  431MOL0     H56848   2.400   9.879   2.464 -1.7049 -0.8002 -0.2669
  431MOL0     H56849   2.249   9.890   2.370  0.2364 -1.8813  0.6161
  431MOL0     H56850   2.206   9.933   2.614 -2.1795  0.2912  0.0891
  431MOL0     H56851   2.324  10.053   2.622  1.5949 -2.4117  1.2689
  431MOL0     H56852   2.085  10.041   2.421 -1.4784  0.4415  0.1956
  431MOL0     H56853   2.165  10.189   2.441 -2.1835 -1.4601 -3.3462
  431MOL0     H56854   1.923  10.131   2.829 -0.5732  0.1973 -4.0479
  431MOL0     H56855   1.972  10.284   3.012  0.5681  0.1361  1.1364
  431MOL0     H56856   2.367  10.710   3.223 -1.6054  0.8364  4.1355
  431MOL0     H56857   2.313  10.951   3.291 -0.0259 -1.0356  0.3287
  431MOL0     H56858   2.082  10.948   3.440 -1.5366 -0.4242  1.1533
  431MOL0     H56859   1.922  11.006   3.372 -0.2329  1.1640 -1.5625
  431MOL0     H56860   2.016  11.131   3.593 -0.6666  1.8396  0.3851
  431MOL0     H56861   1.967  11.230   3.468  0.3887 -0.5474  1.3860
  431MOL0     H56862   2.181  11.251   3.351 -2.9692  0.1651  0.0319
  431MOL0     H56863   2.251  11.129   3.463 -1.6650 -1.0768 -0.0578
  431MOL0     H56864   2.124  11.381   3.580 -0.3674 -1.0006 -1.4611
  431MOL0     H56865   2.259  11.277   3.638  2.5831  0.1153 -1.1151
  431MOL0     H56866   2.401  11.390   3.464 -0.3743 -1.4920  0.4860
  431MOL0     H56867   2.336  11.489   3.594  0.7637 -1.6576  0.0985
  431MOL0     H56868   2.177  11.596   3.477 -0.8056 -3.3830  1.3594
  431MOL0     H56869   2.190  11.487   3.333 -0.3745 -0.1884 -0.1168
  431MOL0     H56870   2.403  11.668   3.433 -0.4733  3.3619 -1.1220
  431MOL0     H56871   2.419  11.567   3.287 -1.8645  1.6425 -3.4290
  431MOL0     H56872   2.226  11.800   3.309 -0.7003 -1.0449  2.1898
  431MOL0     H56873   2.275  11.703   3.156 -1.1772 -1.7955  1.1815
  431MOL0     H56874   1.969  10.939   3.063 -0.2891  1.5881  1.2174
  431MOL0     H56875   2.048  10.729   2.932 -1.3669 -0.1287  0.7228
  431MOL0     H56876   2.309  10.447   2.804  0.2005  0.7911 -2.3298
  431MOL0     H56877   2.256  10.300   2.621  2.5574 -0.3492  1.2805
  431MOL0     H56878   2.220   9.707   2.010 -0.8767 -1.1601 -2.9368
  431MOL0     H56879   2.081   9.821   1.816 -0.8290  0.1498 -0.2212
  431MOL0     H56880   1.423   9.850   1.827  0.4390  1.2645  0.6109
  431MOL0     H56881   1.285   9.955   1.670  0.2251  0.5928  2.3102
  431MOL0     H56882   1.430  10.110   1.343 -1.3364  0.9319 -1.7273
  431MOL0     H56883   1.474  10.277   1.379  0.4664  0.2363  0.7440
  431MOL0     H56884   1.199  10.169   1.307 -0.0041  0.1474  1.3082
  431MOL0     H56885   1.243  10.342   1.346  0.3435 -0.1908  1.2737
  431MOL0     H56886   1.331  10.171   1.117 -1.2247 -0.6082 -0.2064
  431MOL0     H56887   1.369  10.343   1.137 -0.9523  0.1910  1.9163
  431MOL0     H56888   1.080  10.229   1.113  1.9396 -2.0153  0.5594
  431MOL0     H56889   1.126  10.393   1.154 -0.3610  0.3312 -2.2873
  431MOL0     H56890   1.153  10.343   0.730 -0.0747 -1.4970  0.1938
  431MOL0     H56891   1.610  10.214   1.566 -1.3464  1.1732  1.8218
  431MOL0     H56892   1.774  10.030   1.659 -0.1906 -2.7376  2.1281
  432MOL0     O56893   2.490   4.391   7.317 -0.4080  0.2228  0.2447
  432MOL0     C56894   2.505   4.446   7.420  1.0926  0.1285 -0.7048
  432MOL0     O56895   2.418   4.541   7.471 -0.5245 -0.1756 -0.1208
  432MOL0     C56896   2.325   4.601   7.394  0.4411 -0.2107  0.3076
  432MOL0     C56897   2.204   4.536   7.367  0.8548 -0.4164  0.4067
  432MOL0     C56898   2.102   4.599   7.292  0.5321 -0.6499 -0.1140
  432MOL0     C56899   2.125   4.729   7.246 -1.0676  0.3144 -0.4414
  432MOL0     O56900   2.044   4.808   7.170  0.8958  0.0626 -0.3095
  432MOL0     C56901   1.906   4.768   7.134 -0.7333  0.2168 -0.0005
  432MOL0     C56902   1.849   4.890   7.055 -0.6887 -0.4256  0.2816
  432MOL0     C56903   1.916   4.932   6.929 -0.7541  1.6388 -0.1211
  432MOL0     C56904   1.890   5.072   6.875  0.5757  0.1766 -0.1521
  432MOL0     C56905   1.737   5.104   6.883  0.2805 -0.5913  0.0446
  432MOL0     C56906   1.706   5.249   6.861  0.6300 -0.0492  0.1470
  432MOL0     C56907   1.559   5.287   6.872  0.2371  0.0256 -0.1373
  432MOL0     C56908   1.512   5.313   7.013  1.0330 -0.7196 -0.6709
  432MOL0     N56909   1.368   5.299   7.021 -0.5630  0.4294  0.3415
  432MOL0     C56910   1.273   5.373   6.950 -0.8478  0.0384 -0.2370
  432MOL0     C56911   1.159   5.334   7.002  0.0036  1.3499 -0.7235
  432MOL0     C56912   1.028   5.391   6.961  0.5342  0.4116  0.5162
  432MOL0     C56913   0.935   5.289   6.906  0.6940 -0.4414 -0.0605
  432MOL0     C56914   0.992   5.215   6.779 -1.1427  0.2783 -1.1381
  432MOL0     C56915   1.050   5.314   6.670  0.6894 -0.5830 -0.0991
  432MOL0     O56916   1.053   5.250   6.544  0.4459 -0.1856  0.0235
  432MOL0     C56917   1.166   5.165   6.518 -0.7162  0.5227 -0.7668
  432MOL0     C56918   1.182   5.122   6.382 -0.0245  1.6445  0.7145
  432MOL0     C56919   1.287   5.034   6.342 -0.1117 -0.4858 -0.1271
  432MOL0     C56920   1.380   4.988   6.442  0.2736 -0.4560 -0.7769
  432MOL0     C56921   1.471   4.881   6.415  0.6185 -0.4099  0.3026
  432MOL0     O56922   1.515   4.803   6.516  0.6038 -0.2824  0.3468
  432MOL0     C56923   1.627   4.716   6.508  0.1984  0.2913 -0.2213
  432MOL0     C56924   1.695   4.673   6.396  1.1194 -0.0318 -1.1064
  432MOL0     C56925   1.809   4.594   6.413  0.1171  0.4542  0.4567
  432MOL0     C56926   1.850   4.543   6.540  0.2382  0.3983  0.1057
  432MOL0     O56927   1.968   4.469   6.567  0.8958  0.0430  0.1098
  432MOL0     C56928   2.049   4.431   6.453 -0.5268  0.3489 -1.0436
  432MOL0     C56929   2.167   4.353   6.514 -0.3823 -0.1624  1.1115
  432MOL0     C56930   2.276   4.324   6.420 -0.2312 -0.2119  0.5892
  432MOL0     C56931   2.369   4.228   6.491  1.0753  0.0329 -0.0085
  432MOL0     C56932   2.486   4.190   6.409  0.7729 -0.1080 -0.0387
  432MOL0     C56933   2.603   4.272   6.457  0.3187 -0.6101 -0.6227
  432MOL0     C56934   2.738   4.261   6.397 -1.1225  0.0880  0.8491
  432MOL0     C56935   2.749   4.337   6.263 -0.4048  0.9532  0.2090
  432MOL0    Cl56936   2.721   4.516   6.287 -0.4524  0.1247  0.4662
  432MOL0     C56937   1.776   4.578   6.649 -0.5455 -0.1721 -0.8249
  432MOL0     C56938   1.667   4.661   6.636 -0.1219 -1.1794  0.5275
  432MOL0     O56939   1.510   4.877   6.295  0.9800  0.0894 -0.3482
  432MOL0     C56940   1.358   5.028   6.572 -1.0656  0.9485 -0.1466
  432MOL0     C56941   1.263   5.118   6.610  0.5329 -0.4065  0.8737
  432MOL0     N56942   1.178   5.252   7.108  0.8536  0.3785  0.1120
  432MOL0     N56943   1.300   5.234   7.119 -0.8665  0.6169  0.2123
  432MOL0     C56944   2.248   4.791   7.263 -0.2277 -0.2013 -0.0694
  432MOL0     C56945   2.347   4.716   7.328  0.5219  0.1906 -0.3679
  432MOL0     C56946   2.600   4.398   7.512  0.4841  1.0859 -1.8983
  432MOL0     C56947   2.687   4.292   7.487 -0.0496  0.1800  0.2330
  432MOL0     C56948   2.766   4.233   7.583 -0.3568  0.1424 -0.5181
  432MOL0     C56949   2.793   4.300   7.701  0.1331  0.3257  0.3892
  432MOL0     O56950   2.888   4.255   7.789  0.4834 -0.3854  0.3026
  432MOL0     C56951   2.935   4.118   7.790 -0.1498  0.8540 -0.9627
  432MOL0     C56952   3.007   4.091   7.924  0.0229  0.0208 -0.2054
  432MOL0     C56953   3.031   3.938   7.959  1.6952  0.4240  0.1408
  432MOL0     C56954   3.064   3.847   7.836 -0.7045 -0.5513 -0.4023
  432MOL0     C56955   3.207   3.879   7.795 -0.1387  0.1882  0.4080
  432MOL0     C56956   3.325   3.882   7.753  0.5498 -0.0688  0.3648
  432MOL0     C56957   2.719   4.411   7.728  0.5617 -0.6337  0.2654
  432MOL0     C56958   2.617   4.464   7.640 -0.7319 -0.3285 -0.2043
  432MOL0     H56959   2.174   4.437   7.400 -1.1733 -0.9925 -2.7354
  432MOL0     H56960   2.007   4.549   7.280  1.2002 -1.7870 -0.9367
  432MOL0     H56961   1.854   4.742   7.227  0.4587  1.5978  1.1024
  432MOL0     H56962   1.902   4.687   7.061 -1.3825  0.5230 -0.3177
  432MOL0     H56963   1.832   4.976   7.119 -0.7690 -0.4505  0.2938
  432MOL0     H56964   1.748   4.857   7.029 -1.2548  0.1006  1.7366
  432MOL0     H56965   1.895   4.857   6.852  0.1614  0.4798  0.7256
  432MOL0     H56966   2.022   4.931   6.955 -0.7544 -1.9810  0.1734
  432MOL0     H56967   1.944   5.152   6.926  1.3051 -0.5279  0.2115
  432MOL0     H56968   1.926   5.070   6.772  0.1097  0.2686 -0.3170
  432MOL0     H56969   1.699   5.087   6.985  0.0028 -0.0042  0.0393
  432MOL0     H56970   1.672   5.044   6.819 -2.0432  3.1391 -1.4336
  432MOL0     H56971   1.744   5.273   6.761 -0.4703 -0.1082 -0.3117
  432MOL0     H56972   1.771   5.311   6.923  3.4928 -1.1191 -1.6096
  432MOL0     H56973   1.546   5.379   6.814  2.3253  1.7716  1.9588
  432MOL0     H56974   1.504   5.202   6.831  1.6251 -0.6694 -0.6368
  432MOL0     H56975   1.533   5.418   7.036 -1.0561 -0.9844  3.2204
  432MOL0     H56976   1.560   5.250   7.088  0.9735 -0.6883 -0.6066
  432MOL0     H56977   1.287   5.448   6.873  0.0241  1.9132  1.6211
  432MOL0     H56978   1.055   5.455   6.877  2.6434 -4.1973 -2.7807
  432MOL0     H56979   0.985   5.454   7.040  1.1933  1.6465 -0.0854
  432MOL0     H56980   0.843   5.342   6.879  0.7140 -0.3231  0.1104
  432MOL0     H56981   0.911   5.213   6.981  2.7362  0.0145  1.1057
  432MOL0     H56982   1.071   5.147   6.810 -1.2873  0.6456  0.1205
  432MOL0     H56983   0.913   5.165   6.723 -0.0422  0.7183 -3.1600
  432MOL0     H56984   1.153   5.346   6.691  0.5865 -0.8520  0.8538
  432MOL0     H56985   1.002   5.412   6.671  2.7166  0.4664  1.3555
  432MOL0     H56986   1.109   5.163   6.313 -0.6199  1.0754  0.9940
  432MOL0     H56987   1.297   5.006   6.238  0.0312  1.6602 -0.7518
  432MOL0     H56988   1.667   4.701   6.295 -0.8539  0.7655 -0.3884
  432MOL0     H56989   1.862   4.549   6.329 -1.1817 -2.9165  1.2742
  432MOL0     H56990   2.087   4.516   6.396  0.8705 -0.8029 -1.9048
  432MOL0     H56991   1.984   4.370   6.391 -0.2880 -0.7761 -0.2213
  432MOL0     H56992   2.120   4.261   6.551 -2.5465  0.6003  0.4302
  432MOL0     H56993   2.214   4.409   6.595  0.7674  1.2326 -0.4647
  432MOL0     H56994   2.318   4.420   6.390 -0.8025 -0.5702 -1.5291
  432MOL0     H56995   2.231   4.268   6.337 -2.5302  0.0748  1.5458
  432MOL0     H56996   2.393   4.277   6.586 -2.7738  2.4448 -0.0410
  432MOL0     H56997   2.312   4.139   6.517  1.0630 -0.1514 -0.6623
  432MOL0     H56998   2.464   4.213   6.304  1.0968  2.2725  0.3432
  432MOL0     H56999   2.502   4.085   6.432 -2.2341 -0.8470 -0.8830
  432MOL0     H57000   2.619   4.250   6.563  1.5827  0.9789 -0.4595
  432MOL0     H57001   2.576   4.377   6.445  4.3640  0.6753  0.2514
  432MOL0     H57002   2.813   4.308   6.461 -0.2874  1.2905 -0.9144
  432MOL0     H57003   2.755   4.154   6.384 -1.8352  0.1395 -0.7598
  432MOL0     H57004   2.673   4.297   6.196 -1.6563  2.9142  0.3771
  432MOL0     H57005   2.845   4.312   6.217 -1.2018 -4.7865  0.9088
  432MOL0     H57006   1.806   4.543   6.747  0.1144 -0.2161 -1.0339
  432MOL0     H57007   1.605   4.682   6.723 -0.2199 -0.8813  0.3868
  432MOL0     H57008   1.421   4.997   6.655 -0.0273 -0.1029 -1.2711
  432MOL0     H57009   1.262   5.155   6.712  0.1440 -0.4509  0.8891
  432MOL0     H57010   2.280   4.883   7.216  0.0603 -0.6156 -0.7040
  432MOL0     H57011   2.446   4.760   7.323 -0.5099  2.9472  1.1611
  432MOL0     H57012   2.687   4.255   7.385 -0.6450  1.3414 -0.2075
  432MOL0     H57013   2.846   4.173   7.540  0.2066  2.2114 -2.5263
  432MOL0     H57014   2.998   4.104   7.701  0.7399  0.0322 -0.2217
  432MOL0     H57015   2.854   4.052   7.760  1.3335 -1.5764  0.0801
  432MOL0     H57016   3.102   4.144   7.919  1.0854 -1.8680 -1.1179
  432MOL0     H57017   2.951   4.138   8.005  1.8996  0.9921  0.5886
  432MOL0     H57018   2.936   3.912   8.005  2.0750 -1.4689 -0.0718
  432MOL0     H57019   3.104   3.933   8.040  1.0784  3.2101  0.9901
  432MOL0     H57020   3.063   3.748   7.882 -2.3772  0.1759  1.2699
  432MOL0     H57021   2.987   3.854   7.759 -2.0758  0.8447  1.0139
  432MOL0     H57022   3.426   3.876   7.716  0.7655  1.0547  0.7427
  432MOL0     H57023   2.741   4.442   7.830 -0.5500 -0.2258  0.3977
  432MOL0     H57024   2.559   4.550   7.672  1.2586 -0.4723  4.6144
  433MOL0     O57025  10.487   6.065   6.149 -0.3397 -0.3167 -0.3279
  433MOL0     C57026  10.409   6.073   6.244 -0.5463  0.2438 -0.7781
  433MOL0     O57027  10.422   6.158   6.342  0.8140  0.0540  0.4725
  433MOL0     C57028  10.533   6.248   6.343 -0.7892  0.7095 -0.3448
  433MOL0     C57029  10.584   6.323   6.237 -0.1833  0.0272 -0.7690
  433MOL0     C57030  10.691   6.414   6.266 -0.5213  1.3853  0.2625
  433MOL0     C57031  10.766   6.395   6.394  0.7802 -0.3142  0.6055
  433MOL0     O57032  10.886   6.458   6.398 -0.2830 -0.5176 -0.4356
  433MOL0     C57033  10.981   6.422   6.499  1.0962 -0.7690  0.7307
  433MOL0     C57034  11.042   6.289   6.472  0.4554  0.0450  0.0115
  433MOL0     C57035  11.115   6.242   6.598 -1.0404 -0.5228 -0.9328
  433MOL0     C57036  11.165   6.093   6.604  0.2684 -0.6328 -0.0288
  433MOL0     C57037  11.240   6.071   6.477  0.2306  1.0515  1.0097
  433MOL0     C57038  11.301   5.935   6.471  0.5276 -0.6085 -0.2781
  433MOL0     C57039  11.208   5.810   6.452  0.5928 -0.0591 -0.0110
  433MOL0     C57040  11.143   5.741   6.583  0.2647  1.1305  0.6116
  433MOL0     N57041  11.253   5.691   6.672  0.2056 -0.8482  0.3555
  433MOL0     C57042  11.320   5.577   6.664  0.1128  0.2944  0.2133
  433MOL0     C57043  11.425   5.586   6.758  0.5657  0.4055 -0.4984
  433MOL0     C57044  11.533   5.485   6.802  0.1457  0.0087  1.1930
  433MOL0     C57045  11.499   5.418   6.935  0.3000  0.2268 -0.3992
  433MOL0     C57046  11.454   5.273   6.930  1.0109  0.9091 -0.0079
  433MOL0     C57047  11.323   5.247   6.851 -0.0787 -0.7497 -0.3779
  433MOL0     O57048  11.340   5.243   6.712  0.5618  0.6221 -0.2786
  433MOL0     C57049  11.217   5.229   6.639 -0.1059  0.2746 -0.0578
  433MOL0     C57050  11.238   5.243   6.505 -0.7826  0.3734 -0.2273
  433MOL0     C57051  11.128   5.230   6.415  0.1390  0.9784 -0.4671
  433MOL0     C57052  10.997   5.204   6.468  0.0811 -0.1713  1.2038
  433MOL0     C57053  10.894   5.148   6.365 -1.0047  0.1513  0.8976
  433MOL0     O57054  10.781   5.080   6.403 -0.2400 -0.3976  0.4283
  433MOL0     C57055  10.694   5.032   6.301 -0.3011  1.1771 -0.8349
  433MOL0     C57056  10.654   4.900   6.302  0.8715  0.6607  0.0971
  433MOL0     C57057  10.577   4.849   6.201 -0.6650  0.0354  0.8039
  433MOL0     C57058  10.532   4.941   6.104  0.1159 -0.1163 -0.8060
  433MOL0     O57059  10.459   4.891   5.998 -0.4487 -1.1900 -0.0390
  433MOL0     C57060  10.539   4.830   5.896 -0.3173 -0.0987 -0.5869
  433MOL0     C57061  10.511   4.910   5.778 -0.2565  0.1964 -0.6791
  433MOL0     C57062  10.593   4.852   5.660 -0.4563  0.5095  0.3212
  433MOL0     C57063  10.542   4.912   5.531 -0.3927 -0.8003 -0.6918
  433MOL0     C57064  10.586   4.843   5.394 -0.0427 -1.0990  0.3936
  433MOL0     C57065  10.530   4.705   5.398 -0.4661  0.1835  0.4788
  433MOL0     C57066  10.528   4.630   5.261  0.7503  0.0492 -0.3101
  433MOL0     C57067  10.664   4.557   5.228 -0.2318 -0.9638 -0.2928
  433MOL0    Cl57068  10.805   4.665   5.231 -0.2907 -0.3628  0.0421
  433MOL0     C57069  10.571   5.075   6.103 -0.2101 -0.0480  0.1834
  433MOL0     C57070  10.647   5.118   6.200 -1.2017 -0.7851  0.8413
  433MOL0     O57071  10.926   5.173   6.244  0.3896 -0.0690 -0.8644
  433MOL0     C57072  10.978   5.188   6.604 -0.6236 -0.6094 -0.1139
  433MOL0     C57073  11.084   5.202   6.687 -0.0403 -0.7169 -0.7715
  433MOL0     N57074  11.405   5.708   6.823 -0.5798 -0.1159  0.4504
  433MOL0     N57075  11.305   5.771   6.772 -0.1662 -0.3761  0.3984
  433MOL0     C57076  10.711   6.319   6.494 -0.6439  0.2684  0.0775
  433MOL0     C57077  10.595   6.247   6.470 -0.2740  0.1794  0.1055
  433MOL0     C57078  10.282   5.998   6.241 -0.2088 -0.2225  0.4535
  433MOL0     C57079  10.262   5.899   6.138 -0.2678 -0.1189 -0.5876
  433MOL0     C57080  10.148   5.828   6.140  0.0550  0.7565  0.3057
  433MOL0     C57081  10.049   5.845   6.248 -0.5081 -0.2415  0.3752
  433MOL0     O57082   9.942   5.759   6.243 -0.3430 -0.6756  0.1369
  433MOL0     C57083   9.883   5.701   6.365 -0.5002 -0.0632  1.0585
  433MOL0     C57084   9.769   5.778   6.427  0.5036  0.5652 -0.1202
  433MOL0     C57085   9.668   5.819   6.317 -0.0812  0.7851 -0.0433
  433MOL0     C57086   9.536   5.864   6.387  0.7722 -0.3659  0.7387
  433MOL0     C57087   9.441   5.902   6.285  0.1252 -0.5664  0.7407
  433MOL0     C57088   9.359   5.926   6.202  0.1975 -0.3910 -0.4052
  433MOL0     C57089  10.067   5.941   6.343 -0.3924 -0.1000 -0.5299
  433MOL0     C57090  10.189   6.014   6.347  0.6515  0.0260  1.2438
  433MOL0     H57091  10.536   6.325   6.140  0.9844  2.1256 -1.3664
  433MOL0     H57092  10.719   6.482   6.186 -2.1767  1.6514 -0.1240
  433MOL0     H57093  10.928   6.425   6.595 -1.5515  2.2463 -0.6360
  433MOL0     H57094  11.051   6.506   6.501 -0.0960  0.2864 -0.3466
  433MOL0     H57095  11.129   6.297   6.406  0.1273  1.1543 -0.3127
  433MOL0     H57096  10.971   6.215   6.434  0.9053  0.7908 -2.4681
  433MOL0     H57097  11.049   6.249   6.685 -2.5208 -0.2887 -2.0408
  433MOL0     H57098  11.196   6.313   6.614 -3.9839  2.7221  0.8163
  433MOL0     H57099  11.246   6.092   6.678  0.1040  4.5221  0.6164
  433MOL0     H57100  11.081   6.025   6.617  1.3604 -2.5005 -2.0401
  433MOL0     H57101  11.319   6.145   6.458  0.6488 -0.1660 -3.0757
  433MOL0     H57102  11.178   6.071   6.386  1.2500 -1.0095  0.2707
  433MOL0     H57103  11.364   5.933   6.560  0.7372  1.6004 -0.3219
  433MOL0     H57104  11.366   5.930   6.384  1.3443 -1.1561  0.3481
  433MOL0     H57105  11.112   5.842   6.411  1.0827  0.2521 -0.9322
  433MOL0     H57106  11.260   5.735   6.391  0.1404 -1.1410  0.8968
  433MOL0     H57107  11.078   5.663   6.542  0.6754  0.7314  0.7134
  433MOL0     H57108  11.067   5.806   6.629 -0.0658  1.0390  0.2033
  433MOL0     H57109  11.307   5.500   6.588  0.4891  0.1957  0.2506
  433MOL0     H57110  11.636   5.519   6.817 -0.1325  0.5974  1.7902
  433MOL0     H57111  11.540   5.410   6.722 -1.9257  1.4075 -0.4075
  433MOL0     H57112  11.423   5.477   6.986  1.4617  0.3713  1.2548
  433MOL0     H57113  11.586   5.425   7.001 -1.6384 -0.9748  2.4596
  433MOL0     H57114  11.531   5.205   6.892 -2.1511 -1.9946 -1.7902
  433MOL0     H57115  11.431   5.241   7.032 -1.5535  0.5532 -0.6203
  433MOL0     H57116  11.251   5.325   6.876  1.7636  2.0048 -3.0235
  433MOL0     H57117  11.288   5.146   6.879 -1.0611 -2.3389 -6.0334
  433MOL0     H57118  11.340   5.271   6.481 -0.1006 -1.7648 -0.0016
  433MOL0     H57119  11.140   5.231   6.307  1.0406 -1.6425 -0.4501
  433MOL0     H57120  10.691   4.825   6.372  1.8985  0.6004 -0.4933
  433MOL0     H57121  10.559   4.743   6.185 -0.6845  0.0482  0.7422
  433MOL0     H57122  10.500   4.729   5.877 -0.9079  0.1135 -0.5340
  433MOL0     H57123  10.645   4.831   5.923 -0.6240  3.5079  1.0464
  433MOL0     H57124  10.549   5.010   5.799  1.9372 -0.1591 -2.4615
  433MOL0     H57125  10.405   4.921   5.753  0.3770  0.3087 -3.7310
  433MOL0     H57126  10.575   4.744   5.665  0.7508  0.2358 -0.6835
  433MOL0     H57127  10.702   4.858   5.664 -0.0419 -3.7667  0.3481
  433MOL0     H57128  10.433   4.916   5.538 -0.2607  2.5957  1.8536
  433MOL0     H57129  10.584   5.013   5.527  2.4690 -1.8979 -2.2386
  433MOL0     H57130  10.696   4.848   5.399 -0.0212  2.1287 -0.8035
  433MOL0     H57131  10.544   4.903   5.313 -1.3212 -0.3986  1.5309
  433MOL0     H57132  10.430   4.709   5.442  0.7338  2.4489  3.3367
  433MOL0     H57133  10.588   4.641   5.465 -1.5190  0.1946  1.4380
  433MOL0     H57134  10.450   4.554   5.261  0.2378  0.5679 -0.3917
  433MOL0     H57135  10.505   4.701   5.181  0.7442 -0.0761 -0.4194
  433MOL0     H57136  10.664   4.503   5.132  3.4454 -0.6180 -0.6541
  433MOL0     H57137  10.688   4.476   5.298  0.3525  0.5334  1.3133
  433MOL0     H57138  10.543   5.151   6.030  0.9208  0.2855  0.0730
  433MOL0     H57139  10.678   5.221   6.213 -2.6271 -0.5308  2.6484
  433MOL0     H57140  10.878   5.175   6.644 -0.5700 -0.3162  0.1159
  433MOL0     H57141  11.060   5.204   6.793 -0.2996 -0.2027 -0.8373
  433MOL0     H57142  10.767   6.308   6.587  0.0681  2.7294  0.0173
  433MOL0     H57143  10.548   6.175   6.536 -0.7341  0.4775  0.1071
  433MOL0     H57144  10.341   5.885   6.064  0.6753  0.5621  0.2676
  433MOL0     H57145  10.122   5.755   6.063  1.6544  0.4576  0.0144
  433MOL0     H57146   9.960   5.687   6.441  1.1281  1.0524 -0.3145
  433MOL0     H57147   9.837   5.605   6.339 -0.8363 -0.2458  2.2453
  433MOL0     H57148   9.715   5.713   6.496 -1.1479  0.0967 -1.7653
  433MOL0     H57149   9.783   5.877   6.471 -0.5409 -0.2368  2.1645
  433MOL0     H57150   9.649   5.735   6.249 -0.5954  1.0540 -0.2422
  433MOL0     H57151   9.702   5.900   6.253 -2.1460  1.0081 -0.9403
  433MOL0     H57152   9.499   5.779   6.444  0.2689 -0.2297  0.6160
  433MOL0     H57153   9.565   5.945   6.455  1.6345 -1.8610  2.2178
  433MOL0     H57154   9.289   5.963   6.130 -2.3131  0.5796  2.3609
  433MOL0     H57155   9.992   5.958   6.419  0.1970 -1.0448  0.2992
  433MOL0     H57156  10.192   6.083   6.431  2.0474  1.2858  0.2086
  434MOL0     O57157   2.309   7.168   4.638  0.2676  0.1831  0.1107
  434MOL0     C57158   2.213   7.188   4.712  0.2324 -0.8465 -0.0823
  434MOL0     O57159   2.096   7.122   4.701 -0.0001 -0.2980 -0.8119
  434MOL0     C57160   2.089   7.000   4.632  0.7150 -0.7118 -0.0349
  434MOL0     C57161   2.135   6.885   4.680  0.1876 -0.3841 -0.4104
  434MOL0     C57162   2.139   6.768   4.609 -0.2499 -0.4059 -0.1309
  434MOL0     C57163   2.089   6.778   4.475  0.3522 -0.1902  0.1527
  434MOL0     O57164   2.053   6.665   4.398 -0.3759 -0.2563  0.0374
  434MOL0     C57165   2.138   6.555   4.429 -0.1527  0.2385 -0.0194
  434MOL0     C57166   2.285   6.585   4.389 -0.3380 -0.7477 -0.1192
  434MOL0     C57167   2.348   6.439   4.379 -0.3396 -0.7188 -0.0901
  434MOL0     C57168   2.501   6.445   4.379 -0.1593 -0.0290 -1.0817
  434MOL0     C57169   2.564   6.438   4.524  0.3185 -0.3186  0.5012
  434MOL0     C57170   2.725   6.433   4.524 -0.6236  0.1442 -0.6602
  434MOL0     C57171   2.775   6.577   4.493  0.1366 -0.1100  0.6420
  434MOL0     C57172   2.929   6.573   4.499  0.4033 -0.1318 -0.1765
  434MOL0     N57173   2.973   6.485   4.390 -1.5128  0.0845  0.0169
  434MOL0     C57174   2.968   6.516   4.253  0.2269 -0.4941 -1.4566
  434MOL0     C57175   3.027   6.399   4.201 -0.3780 -0.6127 -0.4318
  434MOL0     C57176   3.071   6.378   4.054  0.0011  0.4203  0.3230
  434MOL0     C57177   3.216   6.416   4.042  0.4395 -0.6751 -0.0237
  434MOL0     C57178   3.260   6.420   3.892  0.5860  0.4245  1.2420
  434MOL0     C57179   3.411   6.455   3.874  0.2846 -0.3867  0.0427
  434MOL0     O57180   3.473   6.388   3.759  0.6223 -0.2777 -0.0695
  434MOL0     C57181   3.511   6.257   3.778 -0.4434 -0.6285  0.9314
  434MOL0     C57182   3.511   6.182   3.894  0.1965  0.5413  0.2793
  434MOL0     C57183   3.544   6.038   3.895  0.5667 -0.2853  0.3182
  434MOL0     C57184   3.580   5.982   3.771  0.2795  0.0409 -0.4874
  434MOL0     C57185   3.617   5.844   3.760  0.1711  0.6558 -0.9472
  434MOL0     O57186   3.574   5.772   3.650  0.1517  0.6652  0.0575
  434MOL0     C57187   3.638   5.653   3.625  0.5118  0.0831  0.5028
  434MOL0     C57188   3.751   5.656   3.532 -0.5330 -0.1599  0.8644
  434MOL0     C57189   3.812   5.528   3.511 -0.7125  1.0852 -0.8034
  434MOL0     C57190   3.759   5.409   3.565  0.4453  1.2063 -0.8324
  434MOL0     O57191   3.812   5.282   3.540 -0.1456 -0.1769  0.0119
  434MOL0     C57192   3.876   5.256   3.412  0.1808  0.3765 -0.3903
  434MOL0     C57193   3.877   5.110   3.380  0.8390  0.0123 -0.0509
  434MOL0     C57194   3.921   5.028   3.507 -0.8232 -0.0732 -0.5095
  434MOL0     C57195   4.075   5.039   3.533 -0.5134  1.0951 -0.1692
  434MOL0     C57196   4.112   4.964   3.665 -0.3764  0.5128  0.0207
  434MOL0     C57197   4.132   4.815   3.631  0.1705  0.4195  0.9642
  434MOL0     C57198   4.212   4.757   3.750 -0.0425  0.0925  0.3563
  434MOL0     C57199   4.231   4.608   3.741 -0.0362  0.7068  0.4344
  434MOL0    Cl57200   4.369   4.571   3.841  0.1079  0.1522  0.5358
  434MOL0     C57201   3.650   5.412   3.646  0.7059 -0.7342 -0.1001
  434MOL0     C57202   3.597   5.535   3.681  0.3845 -0.1082 -0.1164
  434MOL0     O57203   3.685   5.807   3.851  0.0752  0.6872 -0.1157
  434MOL0     C57204   3.593   6.058   3.659  0.6565  0.5065 -0.5350
  434MOL0     C57205   3.548   6.194   3.656  0.5076  0.2478  0.3563
  434MOL0     N57206   3.053   6.309   4.302  0.5564  0.2409  0.0213
  434MOL0     N57207   3.030   6.363   4.412 -0.5777 -0.3560 -0.7918
  434MOL0     C57208   2.049   6.902   4.422  0.8642 -0.0436 -0.6917
  434MOL0     C57209   2.033   7.011   4.507 -0.1372  0.0326  0.1833
  434MOL0     C57210   2.231   7.289   4.814 -0.7289  0.5040 -0.9529
  434MOL0     C57211   2.117   7.343   4.879 -1.3538  0.3926 -0.5985
  434MOL0     C57212   2.140   7.435   4.983 -0.6100  0.9018  1.0878
  434MOL0     C57213   2.272   7.462   5.035  0.7790 -0.0288  0.4836
  434MOL0     O57214   2.276   7.536   5.147 -0.5807 -1.5611 -0.7176
  434MOL0     C57215   2.399   7.593   5.188 -0.3485 -0.4600 -0.2874
  434MOL0     C57216   2.385   7.681   5.317 -0.1312 -0.5153  0.3052
  434MOL0     C57217   2.520   7.713   5.378  0.6453 -0.4609  0.2528
  434MOL0     C57218   2.519   7.791   5.512 -0.4898 -0.2640  0.2357
  434MOL0     C57219   2.440   7.720   5.620 -0.4680 -0.6306  0.4710
  434MOL0     C57220   2.384   7.664   5.705 -0.2311 -0.5145  0.1908
  434MOL0     C57221   2.376   7.406   4.966  0.1567  0.4682  0.1576
  434MOL0     C57222   2.360   7.323   4.854 -0.3051 -0.1347  0.4397
  434MOL0     H57223   2.176   6.884   4.780 -0.8244 -0.4521  0.0190
  434MOL0     H57224   2.186   6.683   4.657 -0.8571 -1.6959 -1.7232
  434MOL0     H57225   2.107   6.482   4.355 -0.0069 -0.1727  0.3223
  434MOL0     H57226   2.123   6.502   4.524 -1.0454 -1.3142 -0.9957
  434MOL0     H57227   2.344   6.640   4.462  1.1035 -1.5441 -0.6402
  434MOL0     H57228   2.297   6.645   4.298  1.8466  1.0912  1.2844
  434MOL0     H57229   2.320   6.400   4.281  1.9247  0.2227 -1.1853
  434MOL0     H57230   2.310   6.370   4.455 -2.8504  2.5799  1.9305
  434MOL0     H57231   2.545   6.357   4.332  4.3400  1.1970  0.3675
  434MOL0     H57232   2.535   6.534   4.325  3.0360 -0.1269  0.5177
  434MOL0     H57233   2.532   6.344   4.569 -0.3723 -0.8274 -0.9698
  434MOL0     H57234   2.534   6.529   4.577  2.1066  1.4205 -1.2953
  434MOL0     H57235   2.757   6.360   4.449 -1.3394 -0.6415 -0.2199
  434MOL0     H57236   2.765   6.409   4.623 -2.1286 -1.3542 -0.3665
  434MOL0     H57237   2.749   6.615   4.394  0.6148  2.9515  1.5579
  434MOL0     H57238   2.729   6.656   4.554 -1.4417 -1.5290  1.3475
  434MOL0     H57239   2.963   6.540   4.598 -0.0958 -0.5169 -0.1282
  434MOL0     H57240   2.974   6.669   4.475  0.9881 -0.7948 -1.9004
  434MOL0     H57241   2.949   6.617   4.217  2.1209  1.4432  2.3984
  434MOL0     H57242   3.010   6.445   3.992  2.5187  2.3492 -0.2068
  434MOL0     H57243   3.060   6.274   4.023  2.7227  0.6521 -1.7635
  434MOL0     H57244   3.257   6.336   4.104 -4.7072 -2.5684  1.5120
  434MOL0     H57245   3.241   6.516   4.078 -1.6760  0.8894 -2.4952
  434MOL0     H57246   3.246   6.326   3.839  2.8935 -0.3638  1.9023
  434MOL0     H57247   3.196   6.488   3.835 -0.9925 -2.4490 -0.6492
  434MOL0     H57248   3.471   6.430   3.962 -0.8067 -0.7465  0.6970
  434MOL0     H57249   3.417   6.563   3.860 -0.8748 -0.4358 -1.0944
  434MOL0     H57250   3.479   6.225   3.988 -1.8661 -1.5014  0.6078
  434MOL0     H57251   3.552   5.972   3.981 -1.3193 -2.0166 -0.7347
  434MOL0     H57252   3.795   5.743   3.483  0.2014  0.5174  2.6090
  434MOL0     H57253   3.906   5.527   3.456  0.3007 -0.7214  0.8309
  434MOL0     H57254   3.977   5.295   3.397  0.6565 -1.3480 -2.0430
  434MOL0     H57255   3.820   5.297   3.328  2.0604 -0.1344 -1.9490
  434MOL0     H57256   3.941   5.104   3.292  1.0001 -2.2355  0.1632
  434MOL0     H57257   3.789   5.065   3.334  0.8049 -0.6535  0.6322
  434MOL0     H57258   3.888   4.926   3.484 -1.7783  0.1640 -0.2520
  434MOL0     H57259   3.865   5.061   3.595 -0.6105  1.4810 -0.9278
  434MOL0     H57260   4.133   4.994   3.451  1.1214 -1.2149  2.1067
  434MOL0     H57261   4.100   5.142   3.559  0.4820  0.4853  1.4450
  434MOL0     H57262   4.043   4.975   3.750  2.3242 -0.7000  2.5367
  434MOL0     H57263   4.207   5.004   3.699  0.1775 -2.8960  3.1485
  434MOL0     H57264   4.189   4.799   3.539 -2.0705 -0.8986 -0.2943
  434MOL0     H57265   4.039   4.758   3.619  0.0012  0.9013 -0.0868
  434MOL0     H57266   4.309   4.807   3.753  0.7840 -1.4928  2.3109
  434MOL0     H57267   4.154   4.780   3.840 -1.6908  3.4183 -1.3779
  434MOL0     H57268   4.259   4.570   3.642 -1.6576  0.5745 -0.0028
  434MOL0     H57269   4.141   4.556   3.777 -0.0472 -0.5671 -1.3159
  434MOL0     H57270   3.619   5.321   3.697  0.8002  0.1528  1.5996
  434MOL0     H57271   3.509   5.541   3.745  0.5349 -1.1688  0.1993
  434MOL0     H57272   3.622   6.010   3.566 -0.4755 -2.6987  0.6266
  434MOL0     H57273   3.552   6.254   3.565 -3.1853 -3.6996 -2.8802
  434MOL0     H57274   2.008   6.902   4.321 -0.9017 -1.4152 -0.0185
  434MOL0     H57275   2.002   7.114   4.492  3.4324  1.7907  3.3065
  434MOL0     H57276   2.018   7.308   4.852 -0.5689  0.5245 -3.9993
  434MOL0     H57277   2.058   7.477   5.040 -0.7776 -0.6750  2.0856
  434MOL0     H57278   2.446   7.651   5.108  2.6158 -1.2014  0.8005
  434MOL0     H57279   2.462   7.507   5.213  1.9771  1.9049  2.8260
  434MOL0     H57280   2.324   7.766   5.282 -1.9409 -2.4293 -1.4651
  434MOL0     H57281   2.330   7.622   5.391  3.1296 -2.7511  1.1396
  434MOL0     H57282   2.574   7.773   5.304  1.0016  0.9035  1.5584
  434MOL0     H57283   2.576   7.621   5.400  3.6540  1.2563  0.4407
  434MOL0     H57284   2.621   7.788   5.553  0.2279  0.0289 -1.4272
  434MOL0     H57285   2.479   7.888   5.482  0.8501  0.3842  0.4477
  434MOL0     H57286   2.338   7.619   5.791  3.1768 -4.8250  0.0900
  434MOL0     H57287   2.476   7.433   4.998  1.6149  0.5861 -3.9068
  434MOL0     H57288   2.451   7.291   4.805 -0.3344 -2.7170  1.8658
  435MOL0     O57289  10.461   5.791  10.097 -0.2999 -0.3753  0.1436
  435MOL0     C57290  10.586   5.778  10.085 -0.3370 -0.9862 -0.4375
  435MOL0     O57291  10.670   5.732  10.180 -0.5314 -0.3220 -0.4490
  435MOL0     C57292  10.627   5.680  10.304  0.5096  0.1237 -0.4472
  435MOL0     C57293  10.730   5.640  10.381 -0.3876  0.4523 -0.0345
  435MOL0     C57294  10.710   5.573  10.500 -1.1585 -0.1060 -0.2118
  435MOL0     C57295  10.593   5.556  10.554  0.4831  0.1055  0.3356
  435MOL0     O57296  10.576   5.502  10.676  0.0711  0.4922  0.6255
  435MOL0     C57297  10.687   5.419  10.720 -0.4314  0.7223  0.2143
  435MOL0     C57298  10.644   5.346  10.851 -0.4421  0.7324 -0.2252
  435MOL0     C57299  10.732   5.372  10.972 -0.7574  0.4787 -1.4869
  435MOL0     C57300  10.692   5.279  11.093 -0.7613 -0.1295  0.2939
  435MOL0     C57301  10.771   5.306  11.223 -0.6101  0.3609  0.6641
  435MOL0     C57302  10.764   5.202  11.324  0.4030 -0.4027  0.1985
  435MOL0     C57303  10.839   5.263  11.455  0.2422  0.9833  0.4289
  435MOL0     C57304  10.992   5.288  11.443  0.7176  0.3796  0.4290
  435MOL0     N57305  11.070   5.167  11.428  0.7972  0.5015  0.2208
  435MOL0     C57306  11.113   5.112  11.313 -0.5707  0.0919 -0.5693
  435MOL0     C57307  11.207   5.029  11.358 -0.2412 -0.3229  0.9453
  435MOL0     C57308  11.275   4.944  11.243 -0.1940 -0.1651 -1.3647
  435MOL0     C57309  11.319   4.810  11.295  0.0244  0.6724  0.8021
  435MOL0     C57310  11.340   4.724  11.163 -0.1376  0.3449 -1.7867
  435MOL0     C57311  11.390   4.584  11.214  0.3374  0.1660  0.3343
  435MOL0     O57312  11.523   4.590  11.259  0.4405 -0.1550  0.1261
  435MOL0     C57313  11.600   4.482  11.246 -0.2445  0.5659 -0.2028
  435MOL0     C57314  11.736   4.506  11.233  0.4569 -0.0584  0.5306
  435MOL0     C57315  11.833   4.410  11.232  0.3702  0.5847 -0.4066
  435MOL0     C57316  11.800   4.276  11.241  0.1657 -0.4248  0.3839
  435MOL0     C57317  11.905   4.179  11.253  0.7445 -0.2177 -0.3349
  435MOL0     O57318  12.035   4.215  11.252  0.4841 -0.0881 -0.0856
  435MOL0     C57319  12.134   4.113  11.269 -0.3655 -0.3382 -0.1273
  435MOL0     C57320  12.121   3.997  11.354  0.1906 -0.9970 -0.3262
  435MOL0     C57321  12.227   3.904  11.368 -0.2036  0.0256  0.0911
  435MOL0     C57322  12.349   3.927  11.298 -0.3053 -0.5354  0.5900
  435MOL0     O57323  12.452   3.846  11.328  0.3606  0.2809 -0.4027
  435MOL0     C57324  12.551   3.832  11.221  0.0907  0.4440 -0.1421
  435MOL0     C57325  12.669   3.743  11.271  1.5235 -0.9090  0.7633
  435MOL0     C57326  12.778   3.737  11.160 -0.2755 -0.2442  0.3284
  435MOL0     C57327  12.742   3.664  11.038 -0.2291  0.2490  1.6342
  435MOL0     C57328  12.861   3.619  10.964 -0.0694  0.7227 -0.3222
  435MOL0     C57329  12.822   3.538  10.834  0.4924 -0.4257  0.0149
  435MOL0     C57330  12.932   3.510  10.738  0.0889 -0.3546 -0.1377
  435MOL0     C57331  12.965   3.623  10.650  0.0524 -0.0601 -0.0191
  435MOL0    Cl57332  12.861   3.617  10.500 -0.1101 -0.2992 -0.6285
  435MOL0     C57333  12.353   4.045  11.220 -1.3302 -0.4288 -1.1597
  435MOL0     C57334  12.258   4.147  11.211 -0.3995  0.0793 -0.2241
  435MOL0     O57335  11.861   4.061  11.276  0.1768  0.2083 -0.0213
  435MOL0     C57336  11.656   4.243  11.240 -1.0020  1.1375  0.4358
  435MOL0     C57337  11.561   4.348  11.244 -0.7535  0.3724  0.4889
  435MOL0     N57338  11.202   5.019  11.498 -0.5362  0.9570  0.2206
  435MOL0     N57339  11.111   5.101  11.532  0.1569 -0.1461  0.9050
  435MOL0     C57340  10.486   5.625  10.489 -0.3269  0.5091 -0.3552
  435MOL0     C57341  10.498   5.680  10.362 -0.2629  0.2309  0.3265
  435MOL0     C57342  10.640   5.836   9.963  0.4203 -0.0045 -0.0187
  435MOL0     C57343  10.771   5.856   9.949 -0.8557  0.0749 -0.9880
  435MOL0     C57344  10.832   5.897   9.827  0.1154  0.3410 -0.2206
  435MOL0     C57345  10.750   5.913   9.716 -0.4163 -0.3499 -0.1240
  435MOL0     O57346  10.825   5.954   9.606 -0.4058 -0.2968  0.1294
  435MOL0     C57347  10.757   5.951   9.483  0.0003 -0.5532  0.0613
  435MOL0     C57348  10.678   6.085   9.464 -0.0370  0.2323 -0.6673
  435MOL0     C57349  10.775   6.203   9.486  0.2327  0.0134  0.0240
  435MOL0     C57350  10.737   6.323   9.406  0.1066 -0.2355  0.5027
  435MOL0     C57351  10.624   6.394   9.472 -0.2286  0.0563 -0.0913
  435MOL0     C57352  10.527   6.428   9.543 -0.5627  0.1593  0.3540
  435MOL0     C57353  10.615   5.893   9.731 -0.3196 -0.3492 -0.2296
  435MOL0     C57354  10.553   5.851   9.852  0.9080  0.7316  0.0508
  435MOL0     H57355  10.830   5.650  10.342 -0.6651  1.6260 -0.4665
  435MOL0     H57356  10.794   5.510  10.530 -1.9080 -1.6415 -1.2355
  435MOL0     H57357  10.780   5.471  10.746  1.3597 -2.2445  0.1978
  435MOL0     H57358  10.707   5.346  10.641  0.1787  2.1605 -1.0259
  435MOL0     H57359  10.647   5.244  10.811  0.8565  0.7705 -0.2938
  435MOL0     H57360  10.541   5.373  10.876  0.0585  1.1942  1.4651
  435MOL0     H57361  10.729   5.480  10.991 -0.8255 -0.0784  2.4615
  435MOL0     H57362  10.835   5.352  10.943 -0.4156  3.1352 -2.4012
  435MOL0     H57363  10.591   5.301  11.129 -1.7675 -1.9229 -1.2489
  435MOL0     H57364  10.692   5.175  11.059 -0.9085  0.6556 -2.3983
  435MOL0     H57365  10.736   5.406  11.250 -5.7312 -0.9690 -0.0149
  435MOL0     H57366  10.872   5.312  11.181 -0.4847  0.6479  1.0032
  435MOL0     H57367  10.815   5.113  11.286 -1.0012 -0.5891 -1.3831
  435MOL0     H57368  10.667   5.173  11.363  1.2474  0.9916  3.7447
  435MOL0     H57369  10.792   5.360  11.475  0.8645  1.2503  0.6187
  435MOL0     H57370  10.812   5.199  11.539 -1.2439  4.3905  2.7934
  435MOL0     H57371  11.022   5.352  11.527 -2.6981  1.1062  1.2602
  435MOL0     H57372  11.013   5.337  11.347 -2.7607  0.5249 -0.4026
  435MOL0     H57373  11.078   5.134  11.213 -1.8097  0.7136 -0.0167
  435MOL0     H57374  11.358   4.992  11.191 -0.9031  1.2494 -1.2351
  435MOL0     H57375  11.212   4.933  11.155 -0.8740 -0.1759 -0.8871
  435MOL0     H57376  11.237   4.769  11.355  1.5439 -0.9391  1.8706
  435MOL0     H57377  11.413   4.815  11.351  0.8382  2.3730 -0.5850
  435MOL0     H57378  11.249   4.710  11.104  0.1058  1.3853 -2.4366
  435MOL0     H57379  11.413   4.775  11.098  0.5819 -2.0516 -2.9568
  435MOL0     H57380  11.393   4.538  11.115 -3.4962  2.0335 -0.8330
  435MOL0     H57381  11.317   4.528  11.273  0.7920  0.6442  1.3668
  435MOL0     H57382  11.776   4.607  11.234 -1.2314  0.6860 -0.8219
  435MOL0     H57383  11.939   4.434  11.234  2.0245 -5.1983  0.5035
  435MOL0     H57384  12.030   3.983  11.412 -2.5627 -2.6098 -4.5052
  435MOL0     H57385  12.208   3.824  11.438  0.1909  0.0983  0.2836
  435MOL0     H57386  12.594   3.924  11.181  0.6467 -0.9986 -3.1239
  435MOL0     H57387  12.494   3.788  11.138 -0.2976 -2.2019  1.3971
  435MOL0     H57388  12.623   3.650  11.305 -0.5826 -0.4029 -0.5372
  435MOL0     H57389  12.720   3.782  11.360 -0.5255 -1.7729  2.4056
  435MOL0     H57390  12.866   3.693  11.208  0.2679  0.6005  0.1257
  435MOL0     H57391  12.800   3.838  11.125 -2.8426 -0.1568 -1.3021
  435MOL0     H57392  12.681   3.579  11.069 -0.1660 -0.2061  0.5645
  435MOL0     H57393  12.685   3.723  10.965 -0.8894 -2.3625 -0.1001
  435MOL0     H57394  12.918   3.551  11.029  2.3218  1.5546 -1.4163
  435MOL0     H57395  12.928   3.699  10.931  1.2366 -0.9370 -1.9481
  435MOL0     H57396  12.758   3.608  10.780  0.0881 -0.0193  0.9940
  435MOL0     H57397  12.768   3.446  10.860 -0.8108  0.6364  1.3023
  435MOL0     H57398  13.021   3.487  10.797 -1.6492 -0.8321  2.4945
  435MOL0     H57399  12.922   3.432  10.662  0.7894  0.7235 -1.3730
  435MOL0     H57400  13.066   3.607  10.612 -0.5033 -2.4390 -0.6140
  435MOL0     H57401  12.959   3.715  10.710  1.6035  0.4644 -0.6036
  435MOL0     H57402  12.451   4.077  11.185 -0.0932  1.0138  3.0050
  435MOL0     H57403  12.281   4.240  11.159 -1.2308  0.5772  0.2836
  435MOL0     H57404  11.617   4.142  11.250  1.6068 -0.0619 -0.6798
  435MOL0     H57405  11.457   4.318  11.242 -0.9218  0.9643 -1.1713
  435MOL0     H57406  10.395   5.634  10.548 -1.0527  0.8723 -1.5168
  435MOL0     H57407  10.408   5.719  10.315 -0.9175  2.1492  2.9712
  435MOL0     H57408  10.837   5.829  10.031  1.6850 -1.7934 -3.4358
  435MOL0     H57409  10.940   5.901   9.827  0.0763  1.6999 -0.5171
  435MOL0     H57410  10.695   5.860   9.485 -1.9211  0.7120  0.5348
  435MOL0     H57411  10.832   5.934   9.405 -0.3094 -2.1103  0.0533
  435MOL0     H57412  10.645   6.084   9.360 -0.0987 -0.7543 -0.6417
  435MOL0     H57413  10.592   6.101   9.531 -0.9715 -2.5213 -1.0972
  435MOL0     H57414  10.877   6.167   9.469  1.3129  2.0217  1.7979
  435MOL0     H57415  10.785   6.221   9.594  1.2972  0.7745 -0.1843
  435MOL0     H57416  10.822   6.391   9.394  0.5558 -1.1699 -2.7437
  435MOL0     H57417  10.695   6.310   9.306 -1.3526 -1.2435  1.2215
  435MOL0     H57418  10.441   6.450   9.602 -0.4514  3.8175 -0.6292
  435MOL0     H57419  10.556   5.914   9.643 -0.6151 -3.4527 -0.8806
  435MOL0     H57420  10.445   5.842   9.846  1.1848 -3.0667 -2.0828
  436MOL0     O57421   7.858   9.569   9.228  0.8314 -0.1170  0.2366
  436MOL0     C57422   7.911   9.642   9.142 -0.1277 -0.7229 -0.9405
  436MOL0     O57423   7.858   9.746   9.071  0.0291 -0.5121  0.2193
  436MOL0     C57424   7.729   9.774   9.087 -0.4210 -0.8055  0.4785
  436MOL0     C57425   7.664   9.823   9.203  0.3509  0.2028  1.1833
  436MOL0     C57426   7.535   9.862   9.200 -0.4860  1.5044  0.9370
  436MOL0     C57427   7.446   9.830   9.088 -0.3735 -0.2662 -0.7605
  436MOL0     O57428   7.303   9.835   9.082 -0.1335  0.1280  0.1500
  436MOL0     C57429   7.232   9.888   9.195 -0.1469  0.3868  0.0163
  436MOL0     C57430   7.204  10.031   9.189  0.2419  0.7580  0.4621
  436MOL0     C57431   7.082  10.055   9.287  0.0408 -0.5771 -0.2283
  436MOL0     C57432   7.108  10.203   9.317  1.4463  0.9000  0.2393
  436MOL0     C57433   7.028  10.250   9.438  0.2765  1.3869  0.3176
  436MOL0     C57434   6.876  10.211   9.445  0.5071 -0.4522  0.5358
  436MOL0     C57435   6.810  10.250   9.316  0.2135 -0.1582  0.2663
  436MOL0     C57436   6.648  10.253   9.330 -0.8093 -0.1495  0.7402
  436MOL0     N57437   6.614  10.376   9.405  0.5793 -0.4549  0.1920
  436MOL0     C57438   6.662  10.505   9.382 -0.6359  0.2016  1.3304
  436MOL0     C57439   6.634  10.563   9.497  1.0462 -0.6840  0.2194
  436MOL0     C57440   6.657  10.707   9.509 -0.7122 -0.1399 -0.0684
  436MOL0     C57441   6.538  10.798   9.456 -0.6109  0.1890  0.0179
  436MOL0     C57442   6.402  10.801   9.533  0.1935 -0.1789 -0.2232
  436MOL0     C57443   6.404  10.816   9.676  0.5478 -0.6506 -0.9668
  436MOL0     O57444   6.464  10.943   9.683  0.4034  0.0324 -0.1313
  436MOL0     C57445   6.533  10.983   9.795  0.2552 -0.1805  1.3561
  436MOL0     C57446   6.525  10.916   9.912 -0.1538 -1.3911  0.3758
  436MOL0     C57447   6.587  10.969  10.028 -0.8215  0.0299 -0.7582
  436MOL0     C57448   6.648  11.099  10.026  0.0600  0.7036  0.9941
  436MOL0     C57449   6.712  11.143  10.148  0.6916  0.2103 -0.2817
  436MOL0     O57450   6.791  11.255  10.132  0.9286 -0.6275  0.4302
  436MOL0     C57451   6.839  11.330  10.235 -0.4561  0.0153  0.0804
  436MOL0     C57452   6.866  11.305  10.374 -0.5913 -0.2056  0.3986
  436MOL0     C57453   6.938  11.392  10.459  0.3954  0.8576  0.0391
  436MOL0     C57454   6.968  11.522  10.420 -0.0109 -0.3793  0.4214
  436MOL0     O57455   7.043  11.593  10.517 -0.5723 -0.3621  0.2450
  436MOL0     C57456   6.991  11.726  10.538  0.0930  0.1894  0.7935
  436MOL0     C57457   7.086  11.817  10.619 -0.9849  0.2968 -0.6383
  436MOL0     C57458   7.229  11.835  10.540  0.0717  0.1819 -0.2484
  436MOL0     C57459   7.337  11.913  10.608  0.1409 -0.0542 -0.5973
  436MOL0     C57460   7.464  11.910  10.529 -0.3032  0.4625  0.6381
  436MOL0     C57461   7.553  11.791  10.560  0.3902 -0.1610 -0.3471
  436MOL0     C57462   7.630  11.825  10.683  0.4167  0.4495  0.0592
  436MOL0     C57463   7.741  11.728  10.701 -0.4931 -0.3478  0.3922
  436MOL0    Cl57464   7.670  11.573  10.759 -0.2231 -0.3653 -0.5471
  436MOL0     C57465   6.945  11.558  10.286 -0.8410  0.7210  0.1881
  436MOL0     C57466   6.880  11.462  10.201 -0.3321 -0.1706  0.1737
  436MOL0     O57467   6.685  11.084  10.256 -0.3077 -0.1197 -0.7253
  436MOL0     C57468   6.662  11.157   9.901  0.4189 -0.8643  0.1268
  436MOL0     C57469   6.599  11.106   9.786 -0.2586 -0.8002 -0.3721
  436MOL0     N57470   6.578  10.485   9.583  0.1696 -0.2457 -0.0343
  436MOL0     N57471   6.555  10.373   9.526  1.0026 -0.0740 -0.7516
  436MOL0     C57472   7.505   9.778   8.974  0.3509 -0.6349 -0.3001
  436MOL0     C57473   7.644   9.754   8.976 -0.4372 -0.1958  0.8407
  436MOL0     C57474   8.058   9.616   9.105  0.1524 -0.0063 -0.4473
  436MOL0     C57475   8.118   9.501   9.166 -0.4551 -0.7169  0.5080
  436MOL0     C57476   8.257   9.483   9.144 -0.4568 -0.5356  0.6400
  436MOL0     C57477   8.338   9.586   9.085  0.4423 -0.1977  0.2218
  436MOL0     O57478   8.473   9.554   9.090 -0.3259 -0.4093 -0.6141
  436MOL0     C57479   8.569   9.647   9.039 -0.4752  0.7480  0.1904
  436MOL0     C57480   8.680   9.562   8.976 -0.8161  0.2947 -0.3590
  436MOL0     C57481   8.651   9.496   8.833  0.0080  0.5450 -0.0309
  436MOL0     C57482   8.581   9.361   8.856  0.8290  0.3289 -0.2460
  436MOL0     C57483   8.514   9.322   8.730  0.1295 -0.3176 -0.0611
  436MOL0     C57484   8.454   9.291   8.627  0.2481  0.3769  0.8403
  436MOL0     C57485   8.273   9.692   9.022  0.2340 -0.1129  0.2347
  436MOL0     C57486   8.133   9.702   9.031  0.3847  0.1999 -0.5900
  436MOL0     H57487   7.721   9.832   9.295  1.5970  4.4392  0.1627
  436MOL0     H57488   7.487   9.901   9.289 -3.1220 -0.1368  0.3445
  436MOL0     H57489   7.284   9.867   9.289 -0.0844 -1.6751 -0.4127
  436MOL0     H57490   7.146   9.820   9.204  3.0147 -3.9211  1.7276
  436MOL0     H57491   7.165  10.064   9.092  2.1928 -0.5778 -0.8546
  436MOL0     H57492   7.296  10.083   9.217  0.5140  1.3059 -1.3050
  436MOL0     H57493   7.095   9.987   9.371  1.3973 -1.4511 -1.1068
  436MOL0     H57494   6.986  10.031   9.241 -0.3552  0.4033  0.0619
  436MOL0     H57495   7.212  10.209   9.350  1.5062 -2.2136  0.9224
  436MOL0     H57496   7.090  10.261   9.226  1.1917  1.4550  0.6371
  436MOL0     H57497   7.043  10.358   9.451 -0.8837  1.7856 -1.4076
  436MOL0     H57498   7.082  10.198   9.518  1.7495 -1.9450 -2.6129
  436MOL0     H57499   6.827  10.268   9.524  0.7423  1.2771 -0.5080
  436MOL0     H57500   6.866  10.104   9.465  0.7550  0.1597  4.8730
  436MOL0     H57501   6.848  10.344   9.276  2.0438 -0.3654  1.4105
  436MOL0     H57502   6.835  10.177   9.239  0.5715 -4.0347  3.7018
  436MOL0     H57503   6.601  10.161   9.366 -2.4724  0.1550 -0.5423
  436MOL0     H57504   6.620  10.271   9.226  1.5724  0.4051  0.1485
  436MOL0     H57505   6.726  10.536   9.300  2.9001 -1.6173  3.1840
  436MOL0     H57506   6.743  10.745   9.453 -0.1086  0.8555  1.4520
  436MOL0     H57507   6.685  10.728   9.613 -3.0815 -1.2491  0.8866
  436MOL0     H57508   6.516  10.769   9.353 -2.7966  1.3802  0.0771
  436MOL0     H57509   6.576  10.900   9.466  1.4726 -0.7387  2.8350
  436MOL0     H57510   6.345  10.886   9.494  0.5145  1.8482  3.2828
  436MOL0     H57511   6.340  10.713   9.516  2.0544 -1.6385  0.2035
  436MOL0     H57512   6.456  10.728   9.714 -1.9124 -1.7124  0.1963
  436MOL0     H57513   6.300  10.828   9.707  0.2572 -0.8026 -1.8676
  436MOL0     H57514   6.488  10.815   9.926  1.2526 -1.9817 -0.0450
  436MOL0     H57515   6.593  10.904  10.115 -0.6602 -1.7476 -2.0340
  436MOL0     H57516   6.835  11.207  10.410 -2.9004  1.1959  2.5306
  436MOL0     H57517   6.945  11.373  10.566 -0.2733 -3.1878 -0.4691
  436MOL0     H57518   6.891  11.729  10.582 -1.0787  0.5114 -1.7152
  436MOL0     H57519   6.968  11.763  10.438 -1.1149 -1.5824  0.3684
  436MOL0     H57520   7.106  11.785  10.722 -3.1417  2.6903  0.6220
  436MOL0     H57521   7.042  11.916  10.630 -0.1261  0.6013  0.1945
  436MOL0     H57522   7.226  11.895  10.448  1.5424  1.6112  0.5759
  436MOL0     H57523   7.262  11.736  10.508 -1.5024 -0.1452 -0.9531
  436MOL0     H57524   7.303  12.017  10.616  4.9070  1.7479 -0.8272
  436MOL0     H57525   7.364  11.876  10.707  1.3124  2.8265  0.2588
  436MOL0     H57526   7.517  12.004  10.548  0.5131  0.1760 -0.1734
  436MOL0     H57527   7.450  11.914  10.421 -1.1277  1.3432  0.7576
  436MOL0     H57528   7.615  11.783  10.471 -0.6182  2.5007 -1.3973
  436MOL0     H57529   7.489  11.702  10.572 -0.3805  0.1504 -1.9227
  436MOL0     H57530   7.665  11.928  10.666  0.6788  0.3570  0.0460
  436MOL0     H57531   7.577  11.827  10.778  3.0642  3.3796  1.6744
  436MOL0     H57532   7.795  11.757  10.792 -2.3041 -2.9806  2.4682
  436MOL0     H57533   7.810  11.720  10.616  0.2303 -0.3577  0.9665
  436MOL0     H57534   6.988  11.651  10.250  1.1393 -1.0875 -2.4479
  436MOL0     H57535   6.862  11.491  10.098  1.6018 -4.9551 -1.8278
  436MOL0     H57536   6.721  11.248   9.892 -3.0276  1.4863 -0.4164
  436MOL0     H57537   6.612  11.158   9.692  0.4440  3.0509  1.6477
  436MOL0     H57538   7.438   9.773   8.888 -2.8131  3.0147  1.6512
  436MOL0     H57539   7.689   9.728   8.881 -1.0443  1.3676  0.0807
  436MOL0     H57540   8.061   9.421   9.211 -1.7653 -1.2863 -1.9890
  436MOL0     H57541   8.308   9.400   9.193  1.7134  0.8931  0.9458
  436MOL0     H57542   8.613   9.708   9.118  0.9698 -3.0865  2.6386
  436MOL0     H57543   8.519   9.709   8.964 -1.5848  6.5294  4.9970
  436MOL0     H57544   8.768   9.627   8.977  0.1311 -0.9408  1.3767
  436MOL0     H57545   8.699   9.480   9.047 -0.1946 -0.5340 -1.4512
  436MOL0     H57546   8.731   9.487   8.759 -0.0462  0.9337 -0.1396
  436MOL0     H57547   8.582   9.559   8.776 -0.2027 -0.4569 -0.9060
  436MOL0     H57548   8.645   9.282   8.896  1.4451  2.0815  2.5028
  436MOL0     H57549   8.498   9.370   8.927 -0.1875 -0.5799 -1.2658
  436MOL0     H57550   8.398   9.279   8.537  1.2947  3.1192 -0.3072
  436MOL0     H57551   8.315   9.774   8.965 -0.4441 -0.6916 -1.1633
  436MOL0     H57552   8.082   9.787   8.986  1.7605 -0.1085 -2.9157
  437MOL0     O57553   0.253   8.130   8.252  0.1053 -0.0459  0.4984
  437MOL0     C57554   0.178   8.156   8.157 -0.8727  0.1255 -0.9602
  437MOL0     O57555   0.043   8.147   8.164  0.0436 -0.1471 -0.6083
  437MOL0     C57556  -0.018   8.095   8.278  0.5701  0.7462  0.4302
  437MOL0     C57557  -0.034   8.169   8.385  1.0821 -0.1114 -0.1706
  437MOL0     C57558  -0.108   8.127   8.500 -0.6559  0.4958 -0.3808
  437MOL0     C57559  -0.153   7.988   8.510  0.2346 -0.0172 -1.0490
  437MOL0     O57560  -0.231   7.925   8.606 -0.6552  0.9630 -0.9163
  437MOL0     C57561  -0.255   8.006   8.725  0.4052 -0.1051  0.0370
  437MOL0     C57562  -0.360   7.943   8.816 -0.4623  0.3542 -0.7186
  437MOL0     C57563  -0.354   7.794   8.847  0.6010  0.7314  0.1409
  437MOL0     C57564  -0.213   7.733   8.874  0.5793  0.3673  0.3999
  437MOL0     C57565  -0.197   7.579   8.898  1.0301 -0.7592  0.0153
  437MOL0     C57566  -0.057   7.521   8.924 -0.5390  0.9394 -0.4913
  437MOL0     C57567   0.003   7.525   9.063  0.3338  0.7660  0.5572
  437MOL0     C57568  -0.078   7.445   9.167  0.5808 -0.1623 -0.3535
  437MOL0     N57569  -0.012   7.351   9.254  0.3031 -0.2508 -0.2712
  437MOL0     C57570   0.040   7.229   9.216 -0.6715 -0.8683  0.6973
  437MOL0     C57571   0.087   7.170   9.328  0.1754  0.7409 -0.2953
  437MOL0     C57572   0.164   7.042   9.334  0.3901 -1.0687  0.0865
  437MOL0     C57573   0.279   7.029   9.227 -1.2198  0.3350  0.8239
  437MOL0     C57574   0.375   6.913   9.251 -0.4918  0.6571  0.0367
  437MOL0     C57575   0.314   6.769   9.234 -0.2257 -0.8315  1.0869
  437MOL0     O57576   0.229   6.732   9.340 -0.0788 -0.1283  0.4209
  437MOL0     C57577   0.212   6.606   9.375 -0.2579  0.4419 -0.4262
  437MOL0     C57578   0.242   6.488   9.296 -0.7422  0.0795 -0.5780
  437MOL0     C57579   0.226   6.361   9.359  0.5175  0.1577 -0.3116
  437MOL0     C57580   0.168   6.350   9.487 -0.2068 -0.2816  0.4688
  437MOL0     C57581   0.120   6.218   9.539  0.8846 -0.0802  0.4789
  437MOL0     O57582   0.180   6.106   9.484 -0.2826  0.0133  0.1104
  437MOL0     C57583   0.153   5.976   9.535 -0.3127  0.5144 -1.6294
  437MOL0     C57584   0.161   5.952   9.672 -0.1125  1.0671 -0.9371
  437MOL0     C57585   0.125   5.827   9.726 -0.0699 -0.0322 -0.1410
  437MOL0     C57586   0.101   5.720   9.642 -0.3645  0.0706  0.4376
  437MOL0     O57587   0.082   5.588   9.694 -0.0146 -0.6489  0.2197
  437MOL0     C57588   0.200   5.514   9.711 -0.2146  0.6668 -0.0544
  437MOL0     C57589   0.166   5.371   9.747 -1.0514  0.2275 -0.3579
  437MOL0     C57590   0.124   5.365   9.896  0.8057  0.3233  0.0269
  437MOL0     C57591   0.093   5.224   9.954  0.0203 -0.5063  0.3526
  437MOL0     C57592   0.010   5.137   9.856 -1.3725 -0.8095 -0.2210
  437MOL0     C57593  -0.040   5.014   9.918 -0.7196 -1.8051 -0.9114
  437MOL0     C57594  -0.132   4.938   9.821  0.2574 -0.7256 -1.3001
  437MOL0     C57595  -0.209   4.822   9.895  0.0603 -0.3951 -0.1956
  437MOL0    Cl57596  -0.359   4.762   9.816 -0.3166  0.0194 -0.2889
  437MOL0     C57597   0.102   5.739   9.503 -0.5678 -1.0016 -0.2687
  437MOL0     C57598   0.101   5.873   9.460 -0.1131  0.2683 -0.0267
  437MOL0     O57599   0.031   6.220   9.622 -0.4892 -0.1569 -0.4922
  437MOL0     C57600   0.137   6.465   9.561 -0.8096  0.6425 -0.0010
  437MOL0     C57601   0.158   6.586   9.499 -0.0147 -0.0122  0.8419
  437MOL0     N57602   0.061   7.253   9.441  0.0123 -0.2601  0.2558
  437MOL0     N57603   0.008   7.360   9.392 -0.3665  0.2461 -0.0946
  437MOL0     C57604  -0.118   7.905   8.401  0.2234 -0.1765 -0.8794
  437MOL0     C57605  -0.065   7.961   8.284  0.7148  0.6527  0.2384
  437MOL0     C57606   0.238   8.176   8.018 -0.2519  0.1616 -0.2337
  437MOL0     C57607   0.373   8.138   7.997  0.0521 -0.0229  0.9183
  437MOL0     C57608   0.436   8.149   7.864  1.0900 -0.3644 -0.7006
  437MOL0     C57609   0.359   8.203   7.759 -0.3075 -0.1826 -0.3399
  437MOL0     O57610   0.416   8.229   7.636  0.1737  0.0020 -0.3358
  437MOL0     C57611   0.353   8.307   7.527  0.8792  0.3134  0.2270
  437MOL0     C57612   0.429   8.294   7.393 -0.1204 -0.4927 -1.1024
  437MOL0     C57613   0.577   8.304   7.416 -0.0292 -0.3589  0.4286
  437MOL0     C57614   0.631   8.389   7.295 -0.0260  0.8614  1.2963
  437MOL0     C57615   0.585   8.336   7.165  0.1378  0.1826 -0.8464
  437MOL0     C57616   0.551   8.284   7.060 -0.4846 -0.5005 -0.3922
  437MOL0     C57617   0.219   8.221   7.782 -0.0367  0.5288  0.5525
  437MOL0     C57618   0.158   8.209   7.909  0.7607 -0.4316 -0.3836
  437MOL0     H57619   0.012   8.267   8.378 -0.4547  0.6500 -0.2684
  437MOL0     H57620  -0.100   8.193   8.586 -1.3965 -1.7496  1.5247
  437MOL0     H57621  -0.297   8.105   8.710  0.1507 -0.3472 -0.9883
  437MOL0     H57622  -0.154   8.006   8.766  0.4192  0.2654 -0.0029
  437MOL0     H57623  -0.459   7.965   8.776 -1.3878 -0.6769  0.9012
  437MOL0     H57624  -0.351   7.988   8.915 -0.8764 -2.1257  0.5251
  437MOL0     H57625  -0.395   7.733   8.766 -3.2942  0.1762  2.2778
  437MOL0     H57626  -0.423   7.784   8.932 -2.0540  0.3310 -1.9149
  437MOL0     H57627  -0.148   7.764   8.792  0.8074 -2.2297 -0.4702
  437MOL0     H57628  -0.169   7.786   8.959 -1.8192  1.1070  1.2717
  437MOL0     H57629  -0.235   7.526   8.810 -1.9549  0.1048  0.6667
  437MOL0     H57630  -0.263   7.553   8.981 -0.5518 -1.3502 -1.3688
  437MOL0     H57631   0.017   7.563   8.856  0.3477 -1.8566 -1.3516
  437MOL0     H57632  -0.065   7.416   8.894 -3.6636  0.7777  0.4322
  437MOL0     H57633   0.105   7.486   9.061 -0.1865 -0.6490 -1.4337
  437MOL0     H57634   0.005   7.631   9.091  1.1362  0.4695  1.6840
  437MOL0     H57635  -0.160   7.394   9.116 -0.2826  2.5148 -1.8497
  437MOL0     H57636  -0.116   7.517   9.241 -1.7182 -0.4893 -1.1711
  437MOL0     H57637   0.056   7.183   9.119  2.7701 -3.6801  2.3766
  437MOL0     H57638   0.087   6.968   9.311 -0.0533 -0.0776 -1.7993
  437MOL0     H57639   0.208   7.031   9.434  0.2658  2.7372  0.6891
  437MOL0     H57640   0.341   7.116   9.251  0.4763 -0.7211  0.4785
  437MOL0     H57641   0.254   7.017   9.121 -1.0358  0.2485  0.7890
  437MOL0     H57642   0.463   6.927   9.188  0.4019 -2.2281  0.5120
  437MOL0     H57643   0.419   6.921   9.351 -0.9125  0.5633  0.2301
  437MOL0     H57644   0.397   6.702   9.212  1.1936  0.8324  1.1565
  437MOL0     H57645   0.249   6.763   9.146  0.8374  1.9709 -0.0068
  437MOL0     H57646   0.292   6.498   9.200  1.3360 -3.3285 -0.0311
  437MOL0     H57647   0.246   6.277   9.294 -3.1281  0.7126 -2.4416
  437MOL0     H57648   0.192   6.026   9.746 -1.6127 -1.2745  2.2801
  437MOL0     H57649   0.123   5.823   9.834 -0.8554  1.3746 -0.0854
  437MOL0     H57650   0.268   5.541   9.793 -0.8482 -3.5661  2.1754
  437MOL0     H57651   0.245   5.494   9.613 -0.5872  3.0287 -0.7510
  437MOL0     H57652   0.243   5.300   9.716 -1.2761  0.2733 -1.0436
  437MOL0     H57653   0.077   5.355   9.685 -0.9034  3.5335 -1.6559
  437MOL0     H57654   0.031   5.422   9.900 -0.8453 -2.1471 -1.0187
  437MOL0     H57655   0.196   5.421   9.957 -1.5121  2.9593  0.5252
  437MOL0     H57656   0.184   5.174   9.988 -0.8877  0.2183  4.3022
  437MOL0     H57657   0.036   5.231  10.047 -1.2045  2.4524 -0.5197
  437MOL0     H57658   0.083   5.125   9.776 -5.0268  0.0041 -4.0096
  437MOL0     H57659  -0.071   5.198   9.816 -1.5342 -1.7755 -1.4239
  437MOL0     H57660  -0.091   5.037  10.012 -2.2852 -0.1371 -2.1012
  437MOL0     H57661   0.042   4.946   9.941 -2.4378 -3.4035  0.8883
  437MOL0     H57662  -0.209   5.007   9.785  3.2960  2.6442 -1.8897
  437MOL0     H57663  -0.078   4.895   9.736  0.6180 -0.1103 -1.3891
  437MOL0     H57664  -0.243   4.865   9.990  2.4431 -1.5682  1.3089
  437MOL0     H57665  -0.133   4.745   9.918  1.1237  0.8608  0.6258
  437MOL0     H57666   0.091   5.651   9.440 -1.4786 -0.1212 -1.3979
  437MOL0     H57667   0.104   5.891   9.353  2.6189 -0.4841 -0.1644
  437MOL0     H57668   0.090   6.447   9.657  0.7906 -0.7487  0.5780
  437MOL0     H57669   0.128   6.684   9.535  3.1067  0.9919  1.0407
  437MOL0     H57670  -0.156   7.804   8.408  0.8767 -0.4549 -1.2731
  437MOL0     H57671  -0.044   7.900   8.196 -0.7559  1.5050 -0.7624
  437MOL0     H57672   0.431   8.103   8.082  0.9310  0.6311  0.5997
  437MOL0     H57673   0.540   8.116   7.865  1.1939 -0.0493  0.5917
  437MOL0     H57674   0.349   8.413   7.553 -0.8641  0.6110 -1.1501
  437MOL0     H57675   0.252   8.268   7.516  1.5899 -1.8764  0.7871
  437MOL0     H57676   0.410   8.193   7.355  5.5834 -1.8608 -1.2765
  437MOL0     H57677   0.394   8.368   7.321  0.6036  2.5027  1.4095
  437MOL0     H57678   0.612   8.200   7.412 -0.6725 -0.6137  1.2265
  437MOL0     H57679   0.610   8.352   7.509  2.6012  1.6821 -1.4027
  437MOL0     H57680   0.612   8.496   7.304  2.8936  1.3779  2.5921
  437MOL0     H57681   0.740   8.377   7.297 -0.2947 -2.2023  1.3664
  437MOL0     H57682   0.520   8.236   6.969  0.6817  1.6643 -2.0172
  437MOL0     H57683   0.147   8.257   7.708  1.1828 -0.8117 -1.3721
  437MOL0     H57684   0.054   8.233   7.931  1.2031 -0.6484  2.2166
  438MOL0     O57685   6.584   0.766   4.378  0.2697  0.5002  0.8949
  438MOL0     C57686   6.472   0.804   4.356  0.4375  0.1878  0.0860
  438MOL0     O57687   6.391   0.877   4.437 -0.0002 -0.1696 -0.4177
  438MOL0     C57688   6.442   0.932   4.548  0.2369 -0.3573  0.0873
  438MOL0     C57689   6.524   0.868   4.631  0.3312  0.3970 -0.8208
  438MOL0     C57690   6.572   0.929   4.750  1.3078 -0.9102  0.3088
  438MOL0     C57691   6.513   1.047   4.799  0.6523 -0.5623 -0.0684
  438MOL0     O57692   6.548   1.093   4.932  0.1675 -0.2649  0.6897
  438MOL0     C57693   6.532   1.232   4.953  1.1440  0.1561 -0.2891
  438MOL0     C57694   6.395   1.263   5.019 -0.0674  1.1097  0.3450
  438MOL0     C57695   6.337   1.401   4.989 -1.0439  0.8159  0.8780
  438MOL0     C57696   6.208   1.437   5.064  0.4901 -0.5171 -0.0492
  438MOL0     C57697   6.169   1.580   5.015  0.3041  0.0597 -0.6593
  438MOL0     C57698   6.019   1.569   4.969 -0.0422  0.2979 -0.7934
  438MOL0     C57699   5.917   1.560   5.083 -0.8339  0.0650 -0.6328
  438MOL0     C57700   5.946   1.660   5.194  0.5916  0.3425 -0.1779
  438MOL0     N57701   5.845   1.664   5.294 -0.7066  1.1977 -0.2853
  438MOL0     C57702   5.720   1.704   5.274  0.5172 -0.2709 -0.2365
  438MOL0     C57703   5.667   1.711   5.392  0.6643 -1.3868 -0.0871
  438MOL0     C57704   5.539   1.770   5.430 -0.0831 -0.1490  0.7540
  438MOL0     C57705   5.414   1.711   5.369  0.1478 -0.0246 -0.5532
  438MOL0     C57706   5.287   1.777   5.414 -0.0907  0.6328  0.0487
  438MOL0     C57707   5.270   1.918   5.352 -0.1076  0.4667 -1.2853
  438MOL0     O57708   5.145   1.960   5.391 -0.2502  0.2235 -0.3004
  438MOL0     C57709   5.026   1.931   5.325  0.1114  0.1120 -0.5057
  438MOL0     C57710   4.918   2.007   5.364 -0.0820 -0.4988 -1.1513
  438MOL0     C57711   4.795   1.989   5.302  0.9287  0.3979 -0.8855
  438MOL0     C57712   4.773   1.906   5.187 -0.5142  0.3170  0.5348
  438MOL0     C57713   4.641   1.903   5.114 -0.2754  0.2349  0.3458
  438MOL0     O57714   4.553   1.994   5.166 -0.1062  0.2973  1.2435
  438MOL0     C57715   4.423   2.005   5.114  0.0269 -0.6803 -0.8876
  438MOL0     C57716   4.356   1.948   4.999  0.4947 -0.4120 -0.5570
  438MOL0     C57717   4.224   1.983   4.953 -0.4382  0.0893 -0.1650
  438MOL0     C57718   4.152   2.062   5.043 -0.6330  0.1353  2.3958
  438MOL0     O57719   4.029   2.099   5.022  0.2978  0.0956  0.3384
  438MOL0     C57720   4.013   2.142   4.880  0.7633 -0.0050 -0.3628
  438MOL0     C57721   3.897   2.251   4.888 -0.3401  0.6478  0.4496
  438MOL0     C57722   3.940   2.378   4.964 -0.3080  0.4183  0.3200
  438MOL0     C57723   3.806   2.439   5.018 -0.4559  0.3910  0.6200
  438MOL0     C57724   3.833   2.582   5.059  0.0357  0.2556 -0.7324
  438MOL0     C57725   3.757   2.634   5.179  0.3789 -0.1374  0.0261
  438MOL0     C57726   3.835   2.599   5.308  0.2113  0.0394  0.7677
  438MOL0     C57727   3.750   2.612   5.432  0.5769 -0.3992 -0.5607
  438MOL0    Cl57728   3.575   2.569   5.418  0.0049  0.1912 -0.1389
  438MOL0     C57729   4.212   2.112   5.158 -0.0181 -0.1692  0.2398
  438MOL0     C57730   4.339   2.092   5.186 -0.7004  0.3472  0.0026
  438MOL0     O57731   4.628   1.827   5.017 -0.4596  0.2821  0.4672
  438MOL0     C57732   4.884   1.823   5.145  0.9293 -0.1872  0.5887
  438MOL0     C57733   5.007   1.838   5.222  0.6224  0.4833 -1.0880
  438MOL0     N57734   5.758   1.667   5.488  0.1801  0.7033  0.3066
  438MOL0     N57735   5.869   1.639   5.432  0.3539  0.0952  0.8043
  438MOL0     C57736   6.428   1.108   4.710 -0.8919 -0.2645 -0.0666
  438MOL0     C57737   6.379   1.047   4.591  0.0357 -0.7546  0.2150
  438MOL0     C57738   6.402   0.765   4.222 -0.1338  0.6508 -0.3282
  438MOL0     C57739   6.477   0.686   4.133 -0.0372 -0.9371 -0.6512
  438MOL0     C57740   6.415   0.632   4.025 -0.2285 -0.6030  0.0934
  438MOL0     C57741   6.282   0.651   3.996 -0.2932  0.2094 -0.6918
  438MOL0     O57742   6.226   0.582   3.886 -0.0899  0.8093 -0.6837
  438MOL0     C57743   6.154   0.465   3.926 -0.7829 -0.3777  0.0724
  438MOL0     C57744   6.222   0.381   4.047 -0.1401  0.1618 -0.1003
  438MOL0     C57745   6.148   0.247   4.054 -0.2350  0.2864 -0.1671
  438MOL0     C57746   6.016   0.272   4.123 -0.0048  0.3114 -0.5733
  438MOL0     C57747   5.950   0.147   4.155  0.1701  0.1399  0.2180
  438MOL0     C57748   5.900   0.038   4.168 -0.2597 -0.1285  0.3183
  438MOL0     C57749   6.208   0.735   4.077 -0.1196 -0.2269  0.1966
  438MOL0     C57750   6.268   0.787   4.197 -0.5486 -0.4627  0.9007
  438MOL0     H57751   6.564   0.770   4.605 -0.0830  0.1470 -0.5344
  438MOL0     H57752   6.645   0.888   4.818  1.4157  2.2708  2.3260
  438MOL0     H57753   6.537   1.291   4.861 -0.8858  0.4933 -0.2269
  438MOL0     H57754   6.618   1.263   5.014  0.2017  1.5766  0.3607
  438MOL0     H57755   6.404   1.269   5.128 -2.3631 -2.4997  0.9148
  438MOL0     H57756   6.333   1.177   4.992  1.7385 -0.6892  1.6120
  438MOL0     H57757   6.322   1.405   4.880 -2.3018  0.1034  1.0096
  438MOL0     H57758   6.412   1.480   4.997  0.1369  0.1025 -1.8767
  438MOL0     H57759   6.134   1.362   5.037  0.5063 -1.1838  1.6469
  438MOL0     H57760   6.222   1.446   5.172  0.5196 -0.6600 -0.0406
  438MOL0     H57761   6.219   1.611   4.923 -1.3066  0.0996 -1.5656
  438MOL0     H57762   6.188   1.656   5.091  1.3961 -3.3278  2.7580
  438MOL0     H57763   6.002   1.486   4.900 -3.6665 -1.4989  1.9261
  438MOL0     H57764   5.996   1.658   4.911 -0.8765  0.2301 -0.5848
  438MOL0     H57765   5.816   1.588   5.052 -1.4093  0.8053  1.6700
  438MOL0     H57766   5.919   1.457   5.121 -1.8113 -0.8957 -2.9886
  438MOL0     H57767   5.953   1.762   5.154  0.8431  0.3742 -0.0548
  438MOL0     H57768   6.042   1.632   5.239  1.1248  0.7221 -1.0562
  438MOL0     H57769   5.689   1.746   5.179 -0.2749  0.8424  0.4851
  438MOL0     H57770   5.530   1.878   5.413 -3.8588 -0.4323  0.2093
  438MOL0     H57771   5.537   1.768   5.539 -1.5423  0.7430  0.7808
  438MOL0     H57772   5.401   1.604   5.388  1.1969 -0.0034  0.4465
  438MOL0     H57773   5.421   1.723   5.261 -0.1802 -2.5394 -0.8974
  438MOL0     H57774   5.207   1.712   5.380 -0.3742  0.5225  0.8974
  438MOL0     H57775   5.297   1.784   5.523  0.9429  1.6356 -0.0916
  438MOL0     H57776   5.259   1.903   5.244  0.1470 -1.3916 -1.0853
  438MOL0     H57777   5.335   1.998   5.387 -0.4170  1.5009 -2.9819
  438MOL0     H57778   4.925   2.080   5.444 -0.7274 -3.1595  1.5125
  438MOL0     H57779   4.719   2.053   5.346 -0.1374 -0.9580 -0.7183
  438MOL0     H57780   4.400   1.898   4.913 -2.5465 -1.9307 -1.3654
  438MOL0     H57781   4.186   1.947   4.857  0.5651 -0.3790 -0.4045
  438MOL0     H57782   3.975   2.059   4.820 -1.9153 -0.2422  1.4403
  438MOL0     H57783   4.100   2.191   4.837  1.4442  1.4188  2.3706
  438MOL0     H57784   3.809   2.202   4.930  0.5624 -2.4540 -0.9518
  438MOL0     H57785   3.868   2.296   4.793 -0.3446  1.0747  0.6515
  438MOL0     H57786   3.992   2.448   4.898  1.7918  0.7564  2.1987
  438MOL0     H57787   4.012   2.350   5.042 -0.6545 -3.5911 -0.5709
  438MOL0     H57788   3.717   2.426   4.956 -0.7867  0.3481  1.0962
  438MOL0     H57789   3.775   2.386   5.108  0.8211  1.1408  1.5278
  438MOL0     H57790   3.813   2.641   4.969  2.5172  2.3564 -0.0220
  438MOL0     H57791   3.941   2.599   5.070  0.1769  1.6147 -3.3601
  438MOL0     H57792   3.655   2.596   5.180  0.3309 -0.0258  1.3709
  438MOL0     H57793   3.754   2.742   5.163 -2.3123  0.0098  1.0460
  438MOL0     H57794   3.871   2.496   5.298 -1.8804 -0.7602  0.8140
  438MOL0     H57795   3.913   2.674   5.324 -1.2004  1.2762  2.2827
  438MOL0     H57796   3.754   2.718   5.459 -0.1211 -0.4029 -0.4370
  438MOL0     H57797   3.791   2.544   5.507 -0.9398  0.5674  1.2387
  438MOL0     H57798   4.146   2.166   5.226  0.1096  0.0314  0.2060
  438MOL0     H57799   4.378   2.143   5.274 -0.0694 -2.1729  1.2865
  438MOL0     H57800   4.879   1.762   5.056 -0.7384 -1.0289  1.2155
  438MOL0     H57801   5.095   1.781   5.193  0.5242  0.0758 -0.6021
  438MOL0     H57802   6.388   1.206   4.732  3.0846  1.3488  0.7209
  438MOL0     H57803   6.307   1.088   4.521 -1.3388  0.9875  2.4667
  438MOL0     H57804   6.580   0.667   4.160  1.1443  2.9747 -1.7183
  438MOL0     H57805   6.472   0.563   3.962 -0.5255  0.3659 -1.2780
  438MOL0     H57806   6.154   0.399   3.839 -0.5234 -0.5649  0.2141
  438MOL0     H57807   6.057   0.499   3.964  0.5434  2.5294  1.1483
  438MOL0     H57808   6.326   0.356   4.028 -0.2111 -0.0333 -0.2365
  438MOL0     H57809   6.215   0.426   4.146 -2.0246 -0.9624  0.3298
  438MOL0     H57810   6.201   0.180   4.122 -4.2555 -1.6360  1.4343
  438MOL0     H57811   6.137   0.207   3.952 -0.2732 -1.7786  0.5997
  438MOL0     H57812   6.030   0.324   4.218 -1.7989 -0.9609  0.4455
  438MOL0     H57813   5.944   0.333   4.068 -2.0974 -1.2015  0.3731
  438MOL0     H57814   5.868  -0.053   4.214 -0.3177  0.4874  1.5516
  438MOL0     H57815   6.104   0.753   4.052  0.4048  0.5700 -1.5316
  438MOL0     H57816   6.204   0.855   4.253 -1.2655  2.4129 -2.9844
  439MOL0     O57817   0.217   3.496   6.828 -0.0774  0.5446 -0.0083
  439MOL0     C57818   0.249   3.612   6.831  0.5026 -0.1031 -0.0002
  439MOL0     O57819   0.178   3.718   6.884 -0.8348  0.1630 -0.3597
  439MOL0     C57820   0.046   3.703   6.935 -0.3959 -0.4635 -0.1970
  439MOL0     C57821   0.027   3.707   7.070  0.2478 -0.0260 -1.2860
  439MOL0     C57822  -0.093   3.726   7.135  0.0104 -0.3681  0.7411
  439MOL0     C57823  -0.213   3.700   7.055  0.1666  0.9339  1.3620
  439MOL0     O57824  -0.339   3.678   7.108  0.3684 -0.4777 -0.3739
  439MOL0     C57825  -0.411   3.803   7.140  0.2094  0.4628 -0.7357
  439MOL0     C57826  -0.417   3.816   7.293 -0.1933 -1.2792  0.7028
  439MOL0     C57827  -0.515   3.710   7.356 -0.0879  0.8788 -0.4527
  439MOL0     C57828  -0.622   3.761   7.453  0.3675  0.4170 -0.2206
  439MOL0     C57829  -0.703   3.648   7.529  0.5102 -0.2110 -0.1618
  439MOL0     C57830  -0.628   3.522   7.579  0.3078 -0.6314  0.9292
  439MOL0     C57831  -0.523   3.556   7.683 -0.3122  0.1926 -0.3319
  439MOL0     C57832  -0.506   3.430   7.776 -0.3559  0.1270  0.5784
  439MOL0     N57833  -0.465   3.308   7.704 -0.8942  0.0054  0.1781
  439MOL0     C57834  -0.341   3.275   7.657 -0.0058  0.1950  0.1439
  439MOL0     C57835  -0.346   3.143   7.614 -0.1969 -1.0877 -0.4139
  439MOL0     C57836  -0.228   3.057   7.585 -0.4236 -0.4850 -0.6380
  439MOL0     C57837  -0.216   3.034   7.433  0.4709 -0.2633 -0.4120
  439MOL0     C57838  -0.105   2.929   7.401 -1.4456  0.5798  0.3094
  439MOL0     C57839   0.027   2.959   7.475  0.0170  0.1235 -0.5138
  439MOL0     O57840   0.117   2.861   7.420  0.3263  0.2079  0.8116
  439MOL0     C57841   0.219   2.927   7.358 -0.6503  0.7522 -0.7239
  439MOL0     C57842   0.306   2.993   7.434  0.3425  0.3876 -0.3243
  439MOL0     C57843   0.413   3.059   7.385  0.0268  0.8669 -0.1760
  439MOL0     C57844   0.436   3.059   7.248  0.5939 -0.4669  0.0241
  439MOL0     C57845   0.551   3.141   7.195  0.2340 -0.3418 -0.3802
  439MOL0     O57846   0.537   3.199   7.077 -0.0974 -0.0107  0.1177
  439MOL0     C57847   0.647   3.247   6.997  0.5084 -0.2986  0.0426
  439MOL0     C57848   0.625   3.329   6.881 -0.0137 -0.8581 -0.0564
  439MOL0     C57849   0.719   3.385   6.793  1.5740  0.4996 -0.0101
  439MOL0     C57850   0.854   3.363   6.818  0.4816  0.7105  1.1966
  439MOL0     O57851   0.953   3.414   6.716  0.3331  1.1007 -0.6884
  439MOL0     C57852   1.093   3.426   6.753 -0.9970 -0.0556  0.1766
  439MOL0     C57853   1.155   3.523   6.646  0.2452 -0.5356 -0.2191
  439MOL0     C57854   1.305   3.517   6.635 -0.5086 -0.6478  0.1751
  439MOL0     C57855   1.359   3.593   6.513  0.3965  1.5454 -0.0673
  439MOL0     C57856   1.296   3.554   6.378 -0.0659 -0.3051  0.7154
  439MOL0     C57857   1.306   3.412   6.335 -0.7653 -0.1304 -0.5794
  439MOL0     C57858   1.234   3.393   6.198 -0.0527 -0.3971 -1.1383
  439MOL0     C57859   1.278   3.271   6.119 -1.2130  0.7028 -0.5111
  439MOL0    Cl57860   1.452   3.300   6.068  0.3900  0.0947 -0.6493
  439MOL0     C57861   0.884   3.300   6.938 -0.3030 -0.2015  0.0665
  439MOL0     C57862   0.789   3.243   7.029 -0.2837 -0.4620 -0.1390
  439MOL0     O57863   0.652   3.144   7.262 -0.1880 -0.4176  0.6765
  439MOL0     C57864   0.347   2.985   7.168  0.8336  0.5437 -1.2317
  439MOL0     C57865   0.242   2.909   7.219 -0.1999 -0.8051  0.1033
  439MOL0     N57866  -0.480   3.104   7.620 -0.2265  0.7034 -0.5211
  439MOL0     N57867  -0.547   3.199   7.681 -0.2276 -0.0461 -0.8732
  439MOL0     C57868  -0.194   3.675   6.915  0.6693  0.3946 -0.0569
  439MOL0     C57869  -0.065   3.689   6.859 -0.5809  0.0745  1.3592
  439MOL0     C57870   0.375   3.647   6.768  0.7426 -0.9383  0.0659
  439MOL0     C57871   0.421   3.599   6.639  0.6357 -0.7252 -0.0665
  439MOL0     C57872   0.549   3.628   6.596 -0.0829 -0.4036  0.0240
  439MOL0     C57873   0.630   3.728   6.667  0.2229  0.3264 -1.3569
  439MOL0     O57874   0.755   3.771   6.624  0.5049  0.1593  0.4257
  439MOL0     C57875   0.808   3.710   6.504 -0.0720 -1.3198  0.3909
  439MOL0     C57876   0.936   3.775   6.446  0.7384 -0.2330  0.5747
  439MOL0     C57877   0.918   3.906   6.364 -0.3796 -0.2430  0.1298
  439MOL0     C57878   1.056   3.978   6.343  0.2498  0.3123  0.8042
  439MOL0     C57879   1.091   4.052   6.468  0.4722  0.8081  0.3514
  439MOL0     C57880   1.133   4.107   6.566 -0.0034  0.5837 -0.0764
  439MOL0     C57881   0.578   3.784   6.783 -0.0522  0.2851 -1.4052
  439MOL0     C57882   0.450   3.740   6.837 -0.1803 -1.2436  1.0151
  439MOL0     H57883   0.113   3.716   7.135  0.2865  0.0452 -1.3472
  439MOL0     H57884  -0.110   3.746   7.240  0.6611  2.3087  0.4020
  439MOL0     H57885  -0.508   3.793   7.091 -0.9949  1.4950  1.3344
  439MOL0     H57886  -0.363   3.890   7.094  1.6569 -1.3174 -2.8234
  439MOL0     H57887  -0.445   3.918   7.318  2.8379  0.0935 -1.0058
  439MOL0     H57888  -0.316   3.815   7.333 -0.4090  0.6084  1.3747
  439MOL0     H57889  -0.445   3.633   7.390 -1.3709 -0.3635 -0.5356
  439MOL0     H57890  -0.578   3.667   7.278  1.8296 -4.5021  0.5660
  439MOL0     H57891  -0.577   3.817   7.535 -1.6682  2.3159 -0.2971
  439MOL0     H57892  -0.698   3.826   7.410  0.2178  1.2284  1.2118
  439MOL0     H57893  -0.785   3.610   7.467  0.8743 -0.6116 -0.4053
  439MOL0     H57894  -0.759   3.700   7.607  2.2386  1.5734 -0.0518
  439MOL0     H57895  -0.579   3.471   7.496  0.3486  1.5379 -0.4615
  439MOL0     H57896  -0.699   3.448   7.618  3.4344 -3.8943  1.0142
  439MOL0     H57897  -0.425   3.588   7.646  0.0154 -0.2453  0.1278
  439MOL0     H57898  -0.559   3.638   7.746  1.1615  1.2190 -0.7688
  439MOL0     H57899  -0.599   3.423   7.833 -2.7073 -0.0215 -2.9436
  439MOL0     H57900  -0.420   3.443   7.843  0.6420 -1.6520 -0.2586
  439MOL0     H57901  -0.254   3.340   7.665  0.1050  0.2538 -1.3346
  439MOL0     H57902  -0.246   2.961   7.634  1.8272  0.1418  1.6054
  439MOL0     H57903  -0.138   3.103   7.627 -1.2160  0.3347  0.2248
  439MOL0     H57904  -0.186   3.130   7.389  1.6724 -0.9400 -1.1404
  439MOL0     H57905  -0.309   3.002   7.385 -1.1263  3.7383 -0.3350
  439MOL0     H57906  -0.131   2.825   7.426 -1.3899  0.7303  1.0101
  439MOL0     H57907  -0.093   2.933   7.292 -3.6693 -0.4025 -0.0411
  439MOL0     H57908   0.015   2.942   7.583 -0.3879  0.3926 -0.5148
  439MOL0     H57909   0.063   3.060   7.455  1.5427 -1.0178 -4.5361
  439MOL0     H57910   0.283   3.015   7.537 -0.8509  2.2388 -0.9332
  439MOL0     H57911   0.485   3.106   7.452  0.3522 -0.6721  0.5945
  439MOL0     H57912   0.521   3.351   6.863  0.2903  1.1219  0.4581
  439MOL0     H57913   0.694   3.444   6.706  2.3249  0.6787 -0.1103
  439MOL0     H57914   1.151   3.333   6.749  0.4731  0.7729  1.4562
  439MOL0     H57915   1.108   3.474   6.850  0.6131 -0.4584  0.1520
  439MOL0     H57916   1.126   3.624   6.677 -0.6841  0.3168 -3.4963
  439MOL0     H57917   1.106   3.503   6.551  0.6526  0.3922 -0.6405
  439MOL0     H57918   1.343   3.415   6.625  0.8166 -0.1149 -0.4623
  439MOL0     H57919   1.353   3.550   6.728 -3.0053  0.2338  1.2497
  439MOL0     H57920   1.368   3.701   6.528  1.6634  1.2762  1.2829
  439MOL0     H57921   1.465   3.568   6.501 -0.2412 -2.6981  1.2718
  439MOL0     H57922   1.365   3.610   6.315 -1.2334  1.8875  1.2781
  439MOL0     H57923   1.195   3.592   6.362  0.0718 -0.2942 -0.1495
  439MOL0     H57924   1.267   3.355   6.420  1.5087  1.5162  1.7510
  439MOL0     H57925   1.409   3.376   6.329 -1.0368 -2.2945  3.8916
  439MOL0     H57926   1.127   3.387   6.218  0.3528  1.0822  2.2075
  439MOL0     H57927   1.236   3.489   6.145  0.9686  0.2824  0.0655
  439MOL0     H57928   1.213   3.257   6.032  0.1956  3.5204 -2.1534
  439MOL0     H57929   1.278   3.190   6.192 -0.9822  2.1462  1.1629
  439MOL0     H57930   0.991   3.301   6.960  0.7390  2.1363 -3.9589
  439MOL0     H57931   0.831   3.216   7.125 -4.9192 -0.9322  1.9987
  439MOL0     H57932   0.355   2.990   7.060  0.1810 -2.7156 -1.5524
  439MOL0     H57933   0.168   2.857   7.159  0.4958  1.6142 -3.1175
  439MOL0     H57934  -0.278   3.648   6.852  0.2282  3.2548 -0.8443
  439MOL0     H57935  -0.058   3.685   6.751 -0.3522 -0.3603  1.3902
  439MOL0     H57936   0.352   3.529   6.593  0.5949 -0.1417 -0.9192
  439MOL0     H57937   0.588   3.580   6.507  1.3385 -0.1957  0.5045
  439MOL0     H57938   0.743   3.724   6.417  1.9746  0.1190 -0.9967
  439MOL0     H57939   0.830   3.604   6.517  3.6450 -0.6402  0.7637
  439MOL0     H57940   1.018   3.787   6.517  3.9818  1.8599 -3.1524
  439MOL0     H57941   0.969   3.708   6.366 -1.0757  3.5854 -3.8205
  439MOL0     H57942   0.864   3.975   6.430  2.7517  3.0537 -0.4353
  439MOL0     H57943   0.858   3.894   6.273 -3.3602 -3.0268  2.2321
  439MOL0     H57944   1.131   3.903   6.314 -0.4191  0.9936 -3.1980
  439MOL0     H57945   1.054   4.045   6.257 -1.2250  1.2065  1.4892
  439MOL0     H57946   1.175   4.145   6.656  3.6943 -2.6429 -0.1572
  439MOL0     H57947   0.637   3.847   6.849 -0.6322  0.2998 -0.9008
  439MOL0     H57948   0.410   3.772   6.932 -1.1862 -1.5366  0.7047
  440MOL0     O57949   2.215   9.618   0.557 -0.1701  0.6030  0.1904
  440MOL0     C57950   2.208   9.738   0.577 -0.6955  1.0673  0.7326
  440MOL0     O57951   2.098   9.817   0.579  0.4345 -0.2828 -0.6704
  440MOL0     C57952   1.974   9.758   0.574  0.2808  0.2133 -0.3800
  440MOL0     C57953   1.879   9.788   0.673 -0.3836  0.3925  0.3198
  440MOL0     C57954   1.754   9.727   0.676 -0.1142 -0.8370 -0.5202
  440MOL0     C57955   1.722   9.643   0.569  1.0434 -0.0598 -0.1444
  440MOL0     O57956   1.596   9.577   0.565  0.1149 -0.2230 -0.9984
  440MOL0     C57957   1.490   9.614   0.477 -0.0008 -0.4001  0.1481
  440MOL0     C57958   1.365   9.546   0.505  0.1089 -0.5115 -0.2561
  440MOL0     C57959   1.254   9.555   0.395 -0.2122 -0.2471 -1.0420
  440MOL0     C57960   1.123   9.493   0.465  0.2872 -0.2277  0.2213
  440MOL0     C57961   1.039   9.600   0.536 -0.3020 -0.1375  0.2625
  440MOL0     C57962   0.929   9.536   0.626  0.4174  0.1839 -0.3867
  440MOL0     C57963   0.824   9.632   0.685  0.3063  0.3648  0.3166
  440MOL0     C57964   0.708   9.556   0.759  0.2831  0.3073  0.0859
  440MOL0     N57965   0.653   9.635   0.871 -0.5878  0.2445  0.3842
  440MOL0     C57966   0.723   9.684   0.980 -0.3458 -0.1566 -0.3187
  440MOL0     C57967   0.627   9.719   1.073 -0.7311 -0.8319 -0.6540
  440MOL0     C57968   0.630   9.805   1.197 -0.0667 -0.4379  0.2732
  440MOL0     C57969   0.753   9.762   1.285  0.1402  0.0185  0.4004
  440MOL0     C57970   0.730   9.626   1.354  0.6007 -1.0508  1.0527
  440MOL0     C57971   0.831   9.584   1.454  0.2123  0.1916 -0.7721
  440MOL0     O57972   0.872   9.697   1.532 -0.5052 -0.2152  0.3994
  440MOL0     C57973   0.963   9.683   1.642 -0.0020  0.2410  0.1063
  440MOL0     C57974   1.034   9.566   1.671 -0.5543 -1.5870  0.0261
  440MOL0     C57975   1.111   9.539   1.787  0.2394 -0.4711  0.6628
  440MOL0     C57976   1.127   9.651   1.876 -0.3744 -0.4201  0.0775
  440MOL0     C57977   1.238   9.656   1.981  1.0268 -0.5214 -0.1616
  440MOL0     O57978   1.224   9.760   2.068  0.0721 -0.9561  0.1718
  440MOL0     C57979   1.318   9.789   2.161  0.9031 -0.4683  0.1714
  440MOL0     C57980   1.277   9.885   2.260  0.9059  1.8094  0.0898
  440MOL0     C57981   1.357   9.921   2.367 -0.3943 -0.9567  0.0347
  440MOL0     C57982   1.494   9.884   2.370  0.9478 -1.4986 -0.2224
  440MOL0     O57983   1.588   9.937   2.461  0.7140 -0.3041 -0.0523
  440MOL0     C57984   1.574  10.077   2.490  0.6688 -0.0219 -0.0246
  440MOL0     C57985   1.711  10.140   2.496 -0.1717 -0.7808  1.0207
  440MOL0     C57986   1.710  10.283   2.563  0.0267  0.4411  0.2634
  440MOL0     C57987   1.810  10.372   2.481 -0.2093 -0.5300 -0.1894
  440MOL0     C57988   1.818  10.509   2.552 -0.1766  0.1131  0.5117
  440MOL0     C57989   1.693  10.594   2.506  0.2341 -0.1391 -0.6505
  440MOL0     C57990   1.646  10.601   2.361 -0.8877  0.5130 -0.2048
  440MOL0     C57991   1.634  10.746   2.308  0.1068  0.4244 -0.7455
  440MOL0    Cl57992   1.797  10.832   2.318 -0.3751 -0.1400  0.1879
  440MOL0     C57993   1.536   9.792   2.272  0.4000  0.2255 -0.5083
  440MOL0     C57994   1.452   9.745   2.167 -0.9580  0.6157  0.0445
  440MOL0     O57995   1.317   9.564   1.984 -0.1890 -0.1718 -0.6212
  440MOL0     C57996   1.051   9.769   1.850 -0.5770 -0.0107  0.5226
  440MOL0     C57997   0.969   9.786   1.732  0.7783  0.2212 -0.3014
  440MOL0     N57998   0.507   9.689   1.026  0.4395  0.0516 -0.0674
  440MOL0     N57999   0.521   9.644   0.904  0.0420 -0.7089 -0.4819
  440MOL0     C58000   1.807   9.618   0.466 -0.5769 -1.3473 -0.2774
  440MOL0     C58001   1.938   9.679   0.463 -0.2115  0.1580  0.2276
  440MOL0     C58002   2.339   9.809   0.616 -0.4687 -0.4377  0.4684
  440MOL0     C58003   2.460   9.742   0.647 -0.0917  0.8164  0.1835
  440MOL0     C58004   2.569   9.807   0.682  0.0931  0.1351 -0.1118
  440MOL0     C58005   2.578   9.953   0.677  1.4095  0.7479  0.1876
  440MOL0     O58006   2.679  10.039   0.709 -0.1029  0.2475 -0.3165
  440MOL0     C58007   2.800   9.988   0.655  0.0194 -0.4168  0.8760
  440MOL0     C58008   2.879   9.947   0.767 -0.2184  0.4186 -0.1738
  440MOL0     C58009   3.022   9.902   0.736  0.2700  0.4055 -0.1541
  440MOL0     C58010   3.129  10.004   0.699 -1.0084  0.0222 -0.7394
  440MOL0     C58011   3.123  10.082   0.576 -0.0350 -0.1000  0.6155
  440MOL0     C58012   3.121  10.136   0.462  0.0035 -0.8321  0.1077
  440MOL0     C58013   2.463  10.026   0.651  0.7895  0.2179 -0.1930
  440MOL0     C58014   2.342   9.952   0.626 -0.3317  0.0540 -0.2157
  440MOL0     H58015   1.905   9.858   0.751  1.8588  0.3797 -0.3376
  440MOL0     H58016   1.679   9.740   0.753  0.4350  0.6624 -0.2067
  440MOL0     H58017   1.522   9.594   0.375  0.2465  2.8278 -0.4839
  440MOL0     H58018   1.475   9.722   0.482 -1.1430 -0.5535  0.2530
  440MOL0     H58019   1.332   9.587   0.601  2.2967 -0.9244  0.7259
  440MOL0     H58020   1.380   9.440   0.528  0.3546  0.1423  3.0037
  440MOL0     H58021   1.286   9.513   0.299  0.5641  0.1503 -0.9677
  440MOL0     H58022   1.228   9.660   0.377 -0.9061  0.0566  1.4740
  440MOL0     H58023   1.072   9.465   0.372  3.1624 -1.7252 -1.0212
  440MOL0     H58024   1.152   9.412   0.531  1.6168  0.5262  0.5893
  440MOL0     H58025   0.992   9.665   0.461 -2.3471 -0.5357  1.1121
  440MOL0     H58026   1.106   9.666   0.591  0.4037 -0.8688  0.3036
  440MOL0     H58027   0.967   9.479   0.711 -1.9681  0.6804  1.0955
  440MOL0     H58028   0.871   9.461   0.572  0.6224 -0.1788 -0.1136
  440MOL0     H58029   0.881   9.704   0.744  0.7913 -1.0387  1.6391
  440MOL0     H58030   0.779   9.696   0.609 -1.3578  1.3076  2.0091
  440MOL0     H58031   0.761   9.465   0.788  0.3518 -0.3991 -2.0612
  440MOL0     H58032   0.624   9.532   0.694 -1.0214  1.9147  1.1086
  440MOL0     H58033   0.831   9.692   0.990 -0.0016 -2.4586 -1.6753
  440MOL0     H58034   0.533   9.774   1.239 -0.7644  0.0516 -0.9286
  440MOL0     H58035   0.622   9.912   1.176  2.9310 -0.1952  0.0168
  440MOL0     H58036   0.782   9.830   1.366  2.6037 -3.2552  2.5302
  440MOL0     H58037   0.844   9.767   1.225  0.7812 -0.4703  1.3029
  440MOL0     H58038   0.643   9.655   1.412 -0.3969  0.5753 -1.1467
  440MOL0     H58039   0.713   9.547   1.280 -0.8658 -0.0762  0.3112
  440MOL0     H58040   0.920   9.546   1.403  0.9045 -1.7115  1.6562
  440MOL0     H58041   0.790   9.510   1.524  0.2794  1.1095  0.2748
  440MOL0     H58042   1.036   9.489   1.595 -0.0311 -0.4509 -1.1429
  440MOL0     H58043   1.157   9.441   1.796 -1.8590 -1.7081 -1.2011
  440MOL0     H58044   1.186   9.942   2.243 -1.2378 -0.5283  2.5951
  440MOL0     H58045   1.325   9.993   2.441  2.9718  0.0032  0.7316
  440MOL0     H58046   1.539  10.088   2.593 -0.1124  1.9457 -0.4701
  440MOL0     H58047   1.519  10.138   2.417  1.3682  0.9436  0.2418
  440MOL0     H58048   1.738  10.140   2.390  0.4486 -1.0917  1.1757
  440MOL0     H58049   1.780  10.072   2.548 -0.2097 -2.1136 -0.5799
  440MOL0     H58050   1.736  10.273   2.668 -0.0447  0.6899  0.3053
  440MOL0     H58051   1.607  10.317   2.556 -0.9420 -2.0443  1.6093
  440MOL0     H58052   1.912  10.333   2.492  1.2238  2.2052 -2.4742
  440MOL0     H58053   1.787  10.363   2.374  0.2570  0.1074 -0.3478
  440MOL0     H58054   1.914  10.560   2.543  0.1399  0.3723  4.1960
  440MOL0     H58055   1.816  10.492   2.660  1.6789 -2.0323  0.2655
  440MOL0     H58056   1.713  10.700   2.521  1.4233  0.1539 -3.6058
  440MOL0     H58057   1.610  10.551   2.562  0.3665 -2.3050 -1.9921
  440MOL0     H58058   1.704  10.550   2.283 -1.0507  2.3539 -1.6122
  440MOL0     H58059   1.548  10.554   2.351 -0.9990  0.4722  0.9852
  440MOL0     H58060   1.568  10.797   2.377 -2.9036 -0.3316 -2.8604
  440MOL0     H58061   1.601  10.736   2.204 -0.0337 -0.7520 -0.6099
  440MOL0     H58062   1.638   9.755   2.271 -1.0447 -4.3866 -1.6982
  440MOL0     H58063   1.481   9.657   2.110  0.9362  0.2851  1.4039
  440MOL0     H58064   1.052   9.849   1.924 -2.4502 -1.1837  1.9313
  440MOL0     H58065   0.916   9.880   1.715 -0.6842 -0.6130 -0.5121
  440MOL0     H58066   1.775   9.551   0.387 -2.5799 -0.1148 -0.6070
  440MOL0     H58067   2.011   9.673   0.383  0.8970  2.9643  0.9311
  440MOL0     H58068   2.464   9.634   0.653  2.1836  0.7324 -1.4828
  440MOL0     H58069   2.650   9.754   0.729  0.7599  1.3296  0.1388
  440MOL0     H58070   2.837  10.063   0.584 -1.3087 -1.4681 -0.9946
  440MOL0     H58071   2.785   9.897   0.596  1.4439 -2.1879  3.0751
  440MOL0     H58072   2.877  10.024   0.845  0.8132  0.2027  0.0777
  440MOL0     H58073   2.816   9.872   0.815 -0.9570 -0.7293 -2.7565
  440MOL0     H58074   3.029   9.817   0.668 -3.1998 -0.3102  0.1833
  440MOL0     H58075   3.056   9.866   0.833 -0.8223 -0.5472 -0.1014
  440MOL0     H58076   3.141  10.065   0.789  0.4259 -2.1987  0.6644
  440MOL0     H58077   3.229   9.959   0.692 -0.6338  0.8041 -0.5918
  440MOL0     H58078   3.142  10.182   0.368  3.9702  0.1307  1.2861
  440MOL0     H58079   2.446  10.133   0.665  0.7031  0.1541  0.2131
  440MOL0     H58080   2.250  10.009   0.614 -1.2493 -1.3124  0.0125
  441MOL0     O58081   7.187   6.777   7.274  0.0712  0.1377 -0.1007
  441MOL0     C58082   7.175   6.883   7.343  0.2339  0.7150  0.2097
  441MOL0     O58083   7.120   6.997   7.306 -0.0549  0.0089  0.7716
  441MOL0     C58084   7.067   7.000   7.178 -0.6577 -0.3808 -0.7496
  441MOL0     C58085   7.146   6.962   7.070  0.8918  0.1184  0.3926
  441MOL0     C58086   7.107   6.994   6.946  0.2489 -1.0635 -0.3139
  441MOL0     C58087   6.985   7.064   6.928  0.4121 -0.4636 -0.7907
  441MOL0     O58088   6.940   7.089   6.801  0.1776  0.1010 -0.1266
  441MOL0     C58089   6.808   7.080   6.764 -0.3638  0.1574  0.3637
  441MOL0     C58090   6.733   6.965   6.826  1.0780 -0.5117 -0.2882
  441MOL0     C58091   6.587   6.969   6.791 -0.3532  0.6848 -1.2229
  441MOL0     C58092   6.505   6.875   6.889 -0.1326 -0.6045  0.2728
  441MOL0     C58093   6.353   6.862   6.851  0.3333 -0.2148 -0.0954
  441MOL0     C58094   6.334   6.788   6.711  0.7263 -0.2061  0.0521
  441MOL0     C58095   6.185   6.754   6.674  1.1218  1.4794  0.0638
  441MOL0     C58096   6.184   6.686   6.542 -0.8032  1.1430  0.0475
  441MOL0     N58097   6.199   6.780   6.428 -0.0096 -0.6414 -0.7732
  441MOL0     C58098   6.097   6.849   6.358  0.0813 -1.0408 -0.8832
  441MOL0     C58099   6.152   6.906   6.247  0.4315  0.4685 -0.2424
  441MOL0     C58100   6.075   6.992   6.156 -0.2629  0.9502  0.7074
  441MOL0     C58101   6.096   6.943   6.013 -0.2988 -1.2499  0.1423
  441MOL0     C58102   6.039   7.048   5.913  0.5583 -0.0058  0.0869
  441MOL0     C58103   5.886   7.026   5.884  0.4044 -0.1614 -0.1288
  441MOL0     O58104   5.850   7.136   5.803  0.3695  0.0643  0.0348
  441MOL0     C58105   5.718   7.158   5.774  0.1355  0.1521 -0.7112
  441MOL0     C58106   5.688   7.274   5.708  1.3439 -0.3267  0.4302
  441MOL0     C58107   5.556   7.305   5.665  0.1273  0.2583  0.2497
  441MOL0     C58108   5.457   7.206   5.690 -0.3779 -0.9202 -0.1639
  441MOL0     C58109   5.317   7.226   5.657  0.4767  0.8076  0.6014
  441MOL0     O58110   5.280   7.359   5.648  0.1171  0.6489  0.3550
  441MOL0     C58111   5.151   7.391   5.614 -1.0313  0.0580 -0.0944
  441MOL0     C58112   5.051   7.433   5.702  0.0148  1.4731  0.1272
  441MOL0     C58113   4.919   7.456   5.650 -0.4954  1.0692 -0.7456
  441MOL0     C58114   4.892   7.453   5.511  0.7619  0.9558 -0.5939
  441MOL0     O58115   4.776   7.474   5.450 -0.2879  0.1382 -0.0254
  441MOL0     C58116   4.649   7.484   5.516  0.2413  1.0729 -0.8158
  441MOL0     C58117   4.541   7.429   5.410  0.2195  0.5886 -0.2699
  441MOL0     C58118   4.509   7.526   5.297  0.3707 -0.8454  0.1698
  441MOL0     C58119   4.442   7.458   5.169  0.5631  0.8030 -0.2337
  441MOL0     C58120   4.293   7.438   5.190 -0.1739  0.1595 -0.3134
  441MOL0     C58121   4.222   7.383   5.069 -0.8032  0.0699 -0.1471
  441MOL0     C58122   4.238   7.464   4.935 -0.2266 -1.3200 -0.6402
  441MOL0     C58123   4.217   7.383   4.809 -0.7321  0.8456 -0.7778
  441MOL0    Cl58124   4.056   7.309   4.811 -0.2050 -0.8585 -0.5266
  441MOL0     C58125   5.003   7.454   5.433 -0.6413  0.2760 -0.5747
  441MOL0     C58126   5.133   7.417   5.479  1.7206  0.0854  0.1459
  441MOL0     O58127   5.234   7.136   5.667  0.2779  0.3553  0.1567
  441MOL0     C58128   5.498   7.086   5.749  0.3094 -0.1326 -0.2285
  441MOL0     C58129   5.627   7.060   5.787  0.0839  0.2562  0.4911
  441MOL0     N58130   6.286   6.855   6.247  0.2265  0.1382 -0.0678
  441MOL0     N58131   6.318   6.793   6.358  0.0876 -0.0340 -0.0915
  441MOL0     C58132   6.910   7.104   7.036 -0.0885  0.1027  0.0222
  441MOL0     C58133   6.946   7.064   7.162 -0.4121 -0.5982  0.0409
  441MOL0     C58134   7.197   6.867   7.483 -0.8115  0.3682 -0.1693
  441MOL0     C58135   7.204   6.979   7.562 -0.1502 -0.2186 -0.1613
  441MOL0     C58136   7.250   6.963   7.698 -0.0297 -0.4785 -0.5979
  441MOL0     C58137   7.297   6.843   7.754  0.3168 -0.2963 -0.4567
  441MOL0     O58138   7.343   6.841   7.881 -0.8301  1.2325 -0.5790
  441MOL0     C58139   7.308   6.730   7.967  0.4423 -0.8092  0.7975
  441MOL0     C58140   7.353   6.758   8.108 -0.6339 -0.5853 -0.1608
  441MOL0     C58141   7.275   6.874   8.161 -0.1565 -0.1422 -0.1627
  441MOL0     C58142   7.303   6.888   8.316 -0.3197  0.5084 -0.1246
  441MOL0     C58143   7.216   6.993   8.371  0.2092  0.0702 -0.4085
  441MOL0     C58144   7.144   7.084   8.410  0.4140  1.2702 -0.0488
  441MOL0     C58145   7.276   6.732   7.674 -0.8253  0.2680 -0.1854
  441MOL0     C58146   7.222   6.745   7.545 -0.4050  1.2198 -0.8822
  441MOL0     H58147   7.240   6.908   7.078  0.8545  0.3167  4.2756
  441MOL0     H58148   7.168   6.960   6.864  1.5648  2.4006 -0.9357
  441MOL0     H58149   6.806   7.068   6.655  1.3006  0.9469  0.2175
  441MOL0     H58150   6.750   7.167   6.797  1.8494  1.3662  1.2509
  441MOL0     H58151   6.748   6.943   6.932  0.2891  2.7252  0.6206
  441MOL0     H58152   6.773   6.875   6.779  2.1948 -1.2927  1.9873
  441MOL0     H58153   6.574   6.925   6.692 -2.5520 -1.4216 -0.0966
  441MOL0     H58154   6.550   7.072   6.787  1.4482  1.4457  0.2739
  441MOL0     H58155   6.552   6.777   6.901  0.2709 -0.5736 -0.9038
  441MOL0     H58156   6.503   6.916   6.990 -0.2136 -0.3214  0.1569
  441MOL0     H58157   6.312   6.962   6.836  1.6477  0.3393 -0.0566
  441MOL0     H58158   6.303   6.809   6.932 -1.1164  1.4273  0.1525
  441MOL0     H58159   6.387   6.694   6.728 -1.8649 -1.8695 -0.4773
  441MOL0     H58160   6.389   6.838   6.630  1.1178  0.1257  0.5195
  441MOL0     H58161   6.154   6.677   6.745  0.2675  0.8958 -0.9028
  441MOL0     H58162   6.121   6.842   6.685  0.6121  1.0034  1.0457
  441MOL0     H58163   6.102   6.616   6.527  1.3873 -1.6615  0.3072
  441MOL0     H58164   6.272   6.621   6.545  0.1258  2.3070 -0.9210
  441MOL0     H58165   5.998   6.863   6.400 -1.0685  1.0680 -3.9588
  441MOL0     H58166   6.114   7.094   6.172  2.1016  0.2671 -0.2430
  441MOL0     H58167   5.968   6.983   6.174 -0.5978  0.3203 -1.3920
  441MOL0     H58168   6.054   6.844   5.993 -1.1310 -0.6110 -1.4322
  441MOL0     H58169   6.206   6.948   6.008 -0.3701  3.4660 -0.6228
  441MOL0     H58170   6.055   7.145   5.960  1.0184 -1.6255  3.6487
  441MOL0     H58171   6.091   7.043   5.817 -0.3736  2.0746 -0.5804
  441MOL0     H58172   5.823   7.012   5.972 -0.9825 -2.6360 -1.4134
  441MOL0     H58173   5.879   6.936   5.822 -3.9161 -0.8440  1.0466
  441MOL0     H58174   5.754   7.355   5.678 -0.2650  2.2866  3.2922
  441MOL0     H58175   5.541   7.400   5.615 -3.0473  0.4406  1.3120
  441MOL0     H58176   5.066   7.434   5.810 -1.9290  4.0464  0.4672
  441MOL0     H58177   4.838   7.467   5.722 -0.3394 -2.8787  0.2295
  441MOL0     H58178   4.635   7.590   5.537  2.0068  1.3918 -1.1446
  441MOL0     H58179   4.635   7.424   5.606 -3.8443 -0.4138 -2.1852
  441MOL0     H58180   4.447   7.411   5.463  0.2341 -2.5366 -1.0710
  441MOL0     H58181   4.568   7.330   5.372 -4.9361 -2.0422  1.8563
  441MOL0     H58182   4.600   7.573   5.260 -0.9675  2.7215  1.0296
  441MOL0     H58183   4.461   7.616   5.337  2.5351 -0.0819  1.2229
  441MOL0     H58184   4.472   7.521   5.084 -2.8693  1.9976 -0.7058
  441MOL0     H58185   4.483   7.359   5.150 -0.6056  0.6916 -2.5395
  441MOL0     H58186   4.253   7.537   5.213  0.0166 -0.1597  1.5389
  441MOL0     H58187   4.271   7.375   5.276  0.4885  1.5081  0.8954
  441MOL0     H58188   4.118   7.379   5.105 -1.6581  0.6836 -2.3521
  441MOL0     H58189   4.251   7.278   5.058 -3.6381 -0.6461 -1.9256
  441MOL0     H58190   4.173   7.552   4.928  0.2772 -0.7304  1.4771
  441MOL0     H58191   4.338   7.509   4.932 -0.8084  0.5075  2.5356
  441MOL0     H58192   4.292   7.303   4.813  1.8870  2.9843 -2.7888
  441MOL0     H58193   4.227   7.453   4.725 -4.1539  1.1886 -1.0509
  441MOL0     H58194   4.993   7.468   5.326  2.4941 -0.1807 -1.0388
  441MOL0     H58195   5.201   7.384   5.401 -2.0546 -1.3185 -2.8661
  441MOL0     H58196   5.431   7.005   5.775  1.5187 -0.9103  0.5547
  441MOL0     H58197   5.621   6.957   5.820 -2.3651  0.4440  0.7984
  441MOL0     H58198   6.819   7.160   7.019  0.5081  0.7717 -1.0862
  441MOL0     H58199   6.884   7.095   7.246  2.1349  0.5527  1.6190
  441MOL0     H58200   7.173   7.077   7.528 -0.9300 -1.2445 -2.5854
  441MOL0     H58201   7.246   7.055   7.756  2.0306 -0.6235 -0.1220
  441MOL0     H58202   7.357   6.639   7.933  1.0452 -1.6933  3.7041
  441MOL0     H58203   7.201   6.722   7.951  0.8761 -1.8104 -2.2214
  441MOL0     H58204   7.334   6.667   8.167 -0.0867 -1.0422 -0.6824
  441MOL0     H58205   7.458   6.786   8.103 -1.0793  2.0923  2.5395
  441MOL0     H58206   7.167   6.865   8.145 -0.2575 -0.6167  0.7285
  441MOL0     H58207   7.298   6.961   8.098 -0.6865 -0.7896 -1.2909
  441MOL0     H58208   7.275   6.799   8.373 -1.4959  1.0518  0.1849
  441MOL0     H58209   7.407   6.910   8.342 -0.3730 -0.5898  1.1274
  441MOL0     H58210   7.073   7.157   8.443  0.0248  0.3938  1.1240
  441MOL0     H58211   7.319   6.642   7.718  0.5707  1.8191  1.8511
  441MOL0     H58212   7.205   6.655   7.487  1.7121  1.7148 -2.3688
  442MOL0     O58213   1.398   0.648   8.284  0.0347 -0.3771  0.0240
  442MOL0     C58214   1.438   0.535   8.249  0.3026  0.3542 -0.5010
  442MOL0     O58215   1.409   0.477   8.129 -0.0372  0.5894 -0.5715
  442MOL0     C58216   1.355   0.552   8.021  0.6902  0.3081 -0.1013
  442MOL0     C58217   1.366   0.689   8.000 -0.1636 -0.0451  1.0510
  442MOL0     C58218   1.319   0.747   7.882  0.6094  0.5255  0.8468
  442MOL0     C58219   1.248   0.673   7.794 -0.3116 -0.2311  0.1228
  442MOL0     O58220   1.209   0.730   7.675 -0.9319  0.4807 -0.2119
  442MOL0     C58221   1.079   0.713   7.626 -0.0361 -0.9383 -0.1475
  442MOL0     C58222   1.040   0.848   7.573  0.9964  0.7958  0.4851
  442MOL0     C58223   1.087   0.859   7.428  0.3630  0.4044  0.2727
  442MOL0     C58224   1.029   0.984   7.357 -0.4526  0.3573  0.1992
  442MOL0     C58225   1.058   0.984   7.208 -0.1303 -0.3809  0.6096
  442MOL0     C58226   0.960   0.900   7.131  0.2046 -0.9185  0.8638
  442MOL0     C58227   0.961   0.925   6.971 -0.3007 -0.4786 -0.1841
  442MOL0     C58228   1.096   0.895   6.905 -0.1797 -0.1838 -0.0936
  442MOL0     N58229   1.133   0.755   6.922  0.5208  0.2866 -0.0231
  442MOL0     C58230   1.056   0.650   6.864  0.8934 -0.6181  0.3005
  442MOL0     C58231   1.118   0.541   6.918  0.0932  1.0354 -0.3233
  442MOL0     C58232   1.091   0.388   6.881 -0.1435 -1.0464 -0.7029
  442MOL0     C58233   0.982   0.354   6.782  0.4481  0.0181 -0.0430
  442MOL0     C58234   0.845   0.378   6.859 -0.2906  0.6967 -0.1149
  442MOL0     C58235   0.735   0.305   6.795 -0.0205 -0.6475 -0.4272
  442MOL0     O58236   0.747   0.167   6.829  0.5199 -0.5691  0.7231
  442MOL0     C58237   0.657   0.113   6.914 -0.5855  0.3579  0.8375
  442MOL0     C58238   0.566   0.027   6.855 -0.6554 -0.2829 -0.6192
  442MOL0     C58239   0.466  -0.033   6.940 -0.5561 -0.2150 -0.0076
  442MOL0     C58240   0.491  -0.026   7.078  0.5966 -0.3473 -0.0023
  442MOL0     C58241   0.400  -0.106   7.170 -0.5636  0.5179  0.1164
  442MOL0     O58242   0.297  -0.167   7.123  0.1525  0.2127  0.4096
  442MOL0     C58243   0.195  -0.209   7.198  0.7320  0.7560  0.6155
  442MOL0     C58244   0.210  -0.274   7.317  1.1992 -0.1093  0.0570
  442MOL0     C58245   0.097  -0.326   7.383  0.3441 -0.5176 -0.4642
  442MOL0     C58246  -0.032  -0.291   7.335 -0.4975  0.4068 -0.0957
  442MOL0     O58247  -0.145  -0.340   7.393  0.3012 -0.1419 -0.6144
  442MOL0     C58248  -0.157  -0.488   7.416 -1.1654 -0.2916  0.0949
  442MOL0     C58249  -0.302  -0.524   7.431 -0.3441 -0.3913 -0.3104
  442MOL0     C58250  -0.337  -0.670   7.465  1.0830  0.2460 -0.1971
  442MOL0     C58251  -0.265  -0.719   7.592  0.5165  0.3570  0.0744
  442MOL0     C58252  -0.305  -0.852   7.640 -0.5275  0.3499 -0.6225
  442MOL0     C58253  -0.424  -0.844   7.729  0.2034 -0.3338 -0.9036
  442MOL0     C58254  -0.480  -0.979   7.758  0.2963 -0.8301 -0.1645
  442MOL0     C58255  -0.594  -0.966   7.856  0.2523  0.2866 -0.3120
  442MOL0    Cl58256  -0.702  -0.828   7.825  0.4393  0.2178 -0.2005
  442MOL0     C58257  -0.048  -0.221   7.217 -0.1142 -0.1748 -0.2366
  442MOL0     C58258   0.063  -0.189   7.143  0.3051  0.0099 -0.2822
  442MOL0     O58259   0.437  -0.103   7.284 -0.6177 -0.0868 -0.6728
  442MOL0     C58260   0.603   0.050   7.134  0.0646  0.3571  0.0562
  442MOL0     C58261   0.669   0.136   7.051 -0.1447  0.1676  0.0469
  442MOL0     N58262   1.218   0.583   7.013 -0.0770 -0.6826 -0.3929
  442MOL0     N58263   1.215   0.713   7.020  0.0084  0.2050 -0.3441
  442MOL0     C58264   1.225   0.540   7.811 -0.1586  0.0101 -1.5410
  442MOL0     C58265   1.278   0.477   7.925 -0.8429  0.6059 -0.9498
  442MOL0     C58266   1.511   0.463   8.354 -0.0008 -0.7524  0.9227
  442MOL0     C58267   1.535   0.520   8.476 -0.2945 -0.3110  0.9666
  442MOL0     C58268   1.610   0.450   8.573  0.5618 -0.8836  1.1266
  442MOL0     C58269   1.661   0.325   8.536  0.7884 -0.2429 -0.2839
  442MOL0     O58270   1.737   0.267   8.640 -0.0642 -0.3156  0.1803
  442MOL0     C58271   1.787   0.129   8.619 -0.2356  0.8282  0.3995
  442MOL0     C58272   1.682   0.026   8.651  0.3226 -0.5918  0.3124
  442MOL0     C58273   1.732  -0.114   8.601  0.6417  0.4024  0.1502
  442MOL0     C58274   1.631  -0.233   8.621  0.6621 -0.4649  0.1019
  442MOL0     C58275   1.491  -0.203   8.577 -0.3578 -0.8587 -0.3782
  442MOL0     C58276   1.375  -0.184   8.539 -0.4616 -0.2745  0.5015
  442MOL0     C58277   1.635   0.267   8.407  0.3491 -0.7344  0.2311
  442MOL0     C58278   1.568   0.343   8.316  0.0063 -1.3225 -0.0857
  442MOL0     H58279   1.431   0.754   8.057  0.9294  1.3669 -1.6155
  442MOL0     H58280   1.321   0.854   7.863  1.4596  0.1345 -1.5881
  442MOL0     H58281   1.007   0.686   7.704 -3.4140 -1.0667 -3.0761
  442MOL0     H58282   1.064   0.636   7.551 -0.5993  0.6877 -1.7688
  442MOL0     H58283   1.076   0.930   7.636  0.9949  0.5794  0.7740
  442MOL0     H58284   0.930   0.848   7.575  0.5540 -5.9957  0.7384
  442MOL0     H58285   1.057   0.773   7.368  0.0029  1.1309 -0.6119
  442MOL0     H58286   1.196   0.865   7.439  0.2636  1.8040  0.7822
  442MOL0     H58287   0.920   0.995   7.366 -0.5906  3.7917 -3.1249
  442MOL0     H58288   1.070   1.079   7.394 -0.6749 -0.1476  1.8091
  442MOL0     H58289   1.159   0.948   7.190 -0.0730  0.4352 -0.8814
  442MOL0     H58290   1.058   1.092   7.187  1.9491  0.0666  2.4822
  442MOL0     H58291   0.857   0.929   7.155  0.0424  1.2816 -1.9390
  442MOL0     H58292   0.996   0.803   7.165  0.9510 -0.6334  0.8931
  442MOL0     H58293   0.879   0.866   6.931  1.3527 -1.4956 -2.2139
  442MOL0     H58294   0.924   1.025   6.946  2.6310  0.4919 -0.9409
  442MOL0     H58295   1.179   0.959   6.936  0.7893 -1.9527  1.1377
  442MOL0     H58296   1.088   0.913   6.797  1.9036 -2.4898 -0.7420
  442MOL0     H58297   0.979   0.664   6.788  2.5349  1.2873 -1.1373
  442MOL0     H58298   1.089   0.326   6.971 -0.5616 -2.1959 -1.4683
  442MOL0     H58299   1.182   0.340   6.843 -0.3321  0.5872 -3.4647
  442MOL0     H58300   0.993   0.249   6.755 -1.3819 -0.4196  0.7506
  442MOL0     H58301   0.996   0.409   6.689 -2.1303  1.0764  0.0949
  442MOL0     H58302   0.856   0.350   6.964  3.4091  2.0342 -0.0175
  442MOL0     H58303   0.825   0.485   6.860  1.6693  1.0999 -0.5489
  442MOL0     H58304   0.756   0.311   6.688  3.8109 -2.1950  0.0850
  442MOL0     H58305   0.639   0.351   6.824  1.5142  1.5292  1.6572
  442MOL0     H58306   0.553   0.031   6.747  0.2884 -0.5310 -0.7488
  442MOL0     H58307   0.394  -0.094   6.885  0.7809  0.3274 -2.5426
  442MOL0     H58308   0.301  -0.290   7.375  0.1233  2.6733  2.7961
  442MOL0     H58309   0.109  -0.389   7.470  1.2904 -1.0467 -0.9651
  442MOL0     H58310  -0.098  -0.518   7.504  2.1933  2.1874 -1.1045
  442MOL0     H58311  -0.122  -0.542   7.327 -2.5368 -1.9547  0.5068
  442MOL0     H58312  -0.359  -0.495   7.342 -0.1061  3.1408  0.5389
  442MOL0     H58313  -0.346  -0.458   7.507 -1.8281  1.1935 -2.4273
  442MOL0     H58314  -0.301  -0.725   7.377  3.1112  0.7885  0.2319
  442MOL0     H58315  -0.446  -0.674   7.466  1.0726 -1.7483 -2.1584
  442MOL0     H58316  -0.158  -0.729   7.571 -0.1028 -2.4011 -2.3788
  442MOL0     H58317  -0.275  -0.651   7.677 -0.0051 -0.9854  1.1365
  442MOL0     H58318  -0.228  -0.898   7.703  0.2793  2.1321 -0.2512
  442MOL0     H58319  -0.313  -0.911   7.549  0.4339 -0.5801 -0.1232
  442MOL0     H58320  -0.495  -0.777   7.681  1.3914  2.0273  0.4400
  442MOL0     H58321  -0.392  -0.796   7.823 -2.0496 -2.2990  1.0094
  442MOL0     H58322  -0.522  -1.008   7.662 -2.3984 -1.2177  1.0593
  442MOL0     H58323  -0.405  -1.049   7.796  1.6098  0.7629  0.2901
  442MOL0     H58324  -0.552  -0.941   7.954  0.4910  5.6907 -1.5131
  442MOL0     H58325  -0.642  -1.065   7.864  0.6997  0.1141  0.3243
  442MOL0     H58326  -0.141  -0.200   7.166 -0.4134  1.4531  0.9027
  442MOL0     H58327   0.039  -0.138   7.050 -2.9742 -0.5685  0.1427
  442MOL0     H58328   0.631   0.050   7.239 -1.5228  1.3569  0.5005
  442MOL0     H58329   0.744   0.212   7.069 -0.8546  1.3953 -1.8034
  442MOL0     H58330   1.167   0.483   7.740  0.1895 -1.8791 -0.3894
  442MOL0     H58331   1.256   0.371   7.937 -0.2095  0.4530 -1.0974
  442MOL0     H58332   1.479   0.611   8.498 -1.1040 -0.8154  1.0101
  442MOL0     H58333   1.631   0.501   8.666  1.0198  1.3880 -0.1408
  442MOL0     H58334   1.866   0.117   8.694  1.0991  0.7289 -0.9741
  442MOL0     H58335   1.834   0.109   8.523 -0.7424 -1.0802  0.4971
  442MOL0     H58336   1.654   0.016   8.756 -1.6115 -0.3913 -0.1380
  442MOL0     H58337   1.590   0.039   8.594 -0.0005 -0.9373  0.7538
  442MOL0     H58338   1.816  -0.144   8.664 -1.2182 -2.1517  1.5829
  442MOL0     H58339   1.773  -0.127   8.500 -0.3863  0.3997 -0.2816
  442MOL0     H58340   1.672  -0.305   8.550  1.1524  1.9573 -2.2179
  442MOL0     H58341   1.628  -0.275   8.722  1.0409 -0.0990  0.2708
  442MOL0     H58342   1.274  -0.169   8.507  0.0565 -1.0184 -1.6403
  442MOL0     H58343   1.665   0.170   8.369 -1.3142 -0.6600 -1.3767
  442MOL0     H58344   1.567   0.302   8.216  0.5999 -1.3408 -0.0885
  443MOL0     O58345   2.360   5.650   7.612  0.0417 -0.1844  0.0200
  443MOL0     C58346   2.282   5.557   7.630  0.3227 -0.1799  1.2446
  443MOL0     O58347   2.150   5.558   7.593 -0.6621 -0.0688  0.1507
  443MOL0     C58348   2.107   5.668   7.518  0.9486  0.0837  0.1020
  443MOL0     C58349   2.160   5.702   7.386  0.7156 -0.0924 -0.8646
  443MOL0     C58350   2.103   5.799   7.309  0.1925 -0.1750  0.2252
  443MOL0     C58351   1.993   5.866   7.361 -0.6073 -0.3305  0.4485
  443MOL0     O58352   1.939   5.970   7.286 -0.3759 -0.4807 -0.1585
  443MOL0     C58353   1.848   6.064   7.351  0.7936  0.3233  0.1273
  443MOL0     C58354   1.806   6.173   7.263 -0.1470 -0.2516  0.1743
  443MOL0     C58355   1.734   6.118   7.144 -0.8327 -0.1163  0.7748
  443MOL0     C58356   1.743   6.200   7.011 -0.1062  0.7014 -0.2421
  443MOL0     C58357   1.642   6.321   7.016  0.0987 -0.0479  0.1018
  443MOL0     C58358   1.678   6.406   6.899  0.6010 -0.0265  0.2502
  443MOL0     C58359   1.591   6.519   6.863  0.6778 -0.0126  0.0675
  443MOL0     C58360   1.450   6.487   6.836  0.8815  0.7672  0.8542
  443MOL0     N58361   1.389   6.573   6.734  0.5117 -0.3317 -0.7731
  443MOL0     C58362   1.397   6.552   6.605  0.3273  0.2333 -0.2919
  443MOL0     C58363   1.331   6.653   6.552 -0.1551 -0.3363  0.6064
  443MOL0     C58364   1.329   6.679   6.402  0.8667  0.3549 -0.9083
  443MOL0     C58365   1.191   6.734   6.350 -0.5621  0.7842  0.1841
  443MOL0     C58366   1.071   6.657   6.410  0.8941 -0.6509 -0.6274
  443MOL0     C58367   0.946   6.724   6.362 -1.0346  0.1505 -0.7901
  443MOL0     O58368   0.920   6.723   6.215 -0.5490  0.5309 -0.1194
  443MOL0     C58369   0.894   6.596   6.153  0.5954 -0.9945  0.1405
  443MOL0     C58370   0.850   6.478   6.214 -0.1246 -0.4115  0.2418
  443MOL0     C58371   0.813   6.361   6.145  0.5268 -0.4876  0.1573
  443MOL0     C58372   0.813   6.368   6.007 -0.5339 -0.0592 -0.3967
  443MOL0     C58373   0.773   6.260   5.919  1.3806  0.5103 -0.6458
  443MOL0     O58374   0.718   6.156   5.988  0.4687  0.2728  0.3743
  443MOL0     C58375   0.655   6.050   5.925  0.5330 -0.5008  0.6112
  443MOL0     C58376   0.641   5.928   5.999 -0.4123 -0.2732  0.4802
  443MOL0     C58377   0.613   5.811   5.935 -0.6535  0.7067  0.7252
  443MOL0     C58378   0.577   5.808   5.802 -0.2970 -0.5522 -0.2316
  443MOL0     O58379   0.552   5.685   5.742 -0.2203 -0.2848  0.3320
  443MOL0     C58380   0.483   5.676   5.614  0.2795  0.3431 -0.4413
  443MOL0     C58381   0.483   5.539   5.551 -0.4754 -1.0683  0.1235
  443MOL0     C58382   0.619   5.472   5.526  0.8492 -0.8496 -0.1124
  443MOL0     C58383   0.607   5.332   5.487  0.3929  0.0399 -1.4219
  443MOL0     C58384   0.742   5.252   5.488  0.7719  0.2667  0.1047
  443MOL0     C58385   0.702   5.111   5.434 -0.0457  1.3029  0.3912
  443MOL0     C58386   0.572   5.043   5.471  0.7156 -0.3540 -0.1664
  443MOL0     C58387   0.557   4.905   5.418 -0.7845 -0.0767 -0.7138
  443MOL0    Cl58388   0.589   4.923   5.239  0.1889  0.0787 -0.0044
  443MOL0     C58389   0.561   5.929   5.739 -0.1567 -0.7239 -0.6835
  443MOL0     C58390   0.607   6.051   5.796  1.0740  0.4784 -0.0450
  443MOL0     O58391   0.776   6.267   5.796 -0.1272 -0.3385 -0.7841
  443MOL0     C58392   0.853   6.485   5.939  0.8063  0.2339 -0.2286
  443MOL0     C58393   0.900   6.595   6.015  0.4046  0.3882  0.0781
  443MOL0     N58394   1.286   6.741   6.648  0.5687  0.7235 -0.8692
  443MOL0     N58395   1.321   6.691   6.763  0.0186  0.1559  0.4719
  443MOL0     C58396   1.944   5.829   7.488  1.0410 -0.5233  0.0563
  443MOL0     C58397   1.994   5.725   7.558 -1.0876  0.8101  0.2494
  443MOL0     C58398   2.351   5.430   7.664  0.4272  0.2462  0.7752
  443MOL0     C58399   2.291   5.310   7.628  0.4649 -0.6062  0.0356
  443MOL0     C58400   2.370   5.195   7.640  0.7230 -0.4521 -0.7173
  443MOL0     C58401   2.482   5.194   7.727  0.5656 -0.2762 -0.2383
  443MOL0     O58402   2.557   5.081   7.754  0.7781  0.9109 -0.1962
  443MOL0     C58403   2.515   4.946   7.717  0.6233  0.5433 -0.1271
  443MOL0     C58404   2.615   4.851   7.771  0.3962  0.3712  0.1657
  443MOL0     C58405   2.639   4.860   7.918 -0.1779 -0.6653 -0.1091
  443MOL0     C58406   2.774   4.908   7.969 -0.0379  0.1957  0.5373
  443MOL0     C58407   2.876   4.798   7.990  0.2643  0.2612 -0.2492
  443MOL0     C58408   2.966   4.713   7.996 -0.0741 -0.4110  0.3462
  443MOL0     C58409   2.532   5.316   7.771  0.4722 -0.0606  0.8283
  443MOL0     C58410   2.468   5.439   7.741 -0.1809 -0.5071  0.5357
  443MOL0     H58411   2.251   5.648   7.361 -0.8300 -3.7807  0.7599
  443MOL0     H58412   2.138   5.818   7.208 -3.2087  2.2482 -0.6891
  443MOL0     H58413   1.900   6.113   7.434 -0.7015  1.5135  0.4081
  443MOL0     H58414   1.766   6.006   7.395  0.6059  0.1435 -0.4559
  443MOL0     H58415   1.894   6.232   7.236 -0.7548  0.1462 -1.0124
  443MOL0     H58416   1.739   6.234   7.324  0.9103  0.4565  0.6499
  443MOL0     H58417   1.626   6.101   7.155 -0.8084 -0.3165  0.6995
  443MOL0     H58418   1.778   6.021   7.122 -1.1945 -0.8358  2.9958
  443MOL0     H58419   1.847   6.229   6.997  1.1476 -3.6173 -1.6578
  443MOL0     H58420   1.725   6.126   6.932  3.3643 -0.6984  0.1238
  443MOL0     H58421   1.658   6.370   7.113  1.0385  2.0617 -1.0390
  443MOL0     H58422   1.540   6.282   7.013  0.9711 -2.4075 -1.4143
  443MOL0     H58423   1.680   6.341   6.811 -4.7364  1.5235 -1.3974
  443MOL0     H58424   1.768   6.461   6.928 -0.5346  2.4860 -0.6974
  443MOL0     H58425   1.604   6.597   6.940 -0.5708 -0.9542  1.2789
  443MOL0     H58426   1.628   6.557   6.767 -0.2522 -0.0111 -0.3014
  443MOL0     H58427   1.383   6.490   6.922  0.5625  2.6172  0.5822
  443MOL0     H58428   1.444   6.381   6.807 -3.5543  0.0759  3.4081
  443MOL0     H58429   1.424   6.460   6.553  0.2155 -0.5741  1.0430
  443MOL0     H58430   1.345   6.581   6.358  0.2701 -0.4322  0.5646
  443MOL0     H58431   1.401   6.753   6.367 -1.7013  3.8174  0.5048
  443MOL0     H58432   1.198   6.712   6.243  0.9606 -1.0757  0.5956
  443MOL0     H58433   1.185   6.841   6.368  2.5685  1.2627 -1.0137
  443MOL0     H58434   1.065   6.555   6.370 -0.6052 -0.6244 -0.5255
  443MOL0     H58435   1.076   6.653   6.519  3.9136 -1.1272 -0.7144
  443MOL0     H58436   0.955   6.830   6.388  1.0127 -0.5436  1.7267
  443MOL0     H58437   0.858   6.682   6.412 -1.8418  0.2794 -2.0456
  443MOL0     H58438   0.853   6.489   6.322  1.6924  1.0417  0.0983
  443MOL0     H58439   0.790   6.264   6.188  1.3985 -1.4134 -1.3702
  443MOL0     H58440   0.676   5.923   6.102 -0.2133 -0.8171  0.3882
  443MOL0     H58441   0.635   5.719   5.989  1.3950 -1.0583 -2.7605
  443MOL0     H58442   0.507   5.753   5.540  0.5997  1.9605  1.2523
  443MOL0     H58443   0.382   5.714   5.632 -0.6657 -2.2576  0.2021
  443MOL0     H58444   0.416   5.528   5.466 -2.1650 -0.5787  1.3352
  443MOL0     H58445   0.423   5.487   5.626  0.1738 -0.8501  0.8052
  443MOL0     H58446   0.687   5.482   5.612 -1.1131  0.9964  1.3366
  443MOL0     H58447   0.653   5.541   5.449  0.9223  1.6897  2.0232
  443MOL0     H58448   0.537   5.288   5.559  0.0332 -1.9731 -2.9203
  443MOL0     H58449   0.554   5.337   5.392 -1.4185  2.5529 -0.3745
  443MOL0     H58450   0.783   5.240   5.589  1.5737 -0.3530 -0.2845
  443MOL0     H58451   0.808   5.302   5.416 -0.7828  1.1099 -0.7919
  443MOL0     H58452   0.789   5.053   5.466 -1.1971 -2.0905 -2.0883
  443MOL0     H58453   0.693   5.125   5.326  1.8913 -0.4055 -0.0555
  443MOL0     H58454   0.559   5.053   5.580 -2.8804  0.3172 -0.5331
  443MOL0     H58455   0.492   5.103   5.427  4.8960  3.2461 -3.8615
  443MOL0     H58456   0.453   4.880   5.441 -1.3801 -0.4165 -3.4821
  443MOL0     H58457   0.611   4.823   5.465  2.7542  1.0542 -2.4593
  443MOL0     H58458   0.516   5.935   5.640 -2.3077  2.0240  0.3046
  443MOL0     H58459   0.598   6.140   5.735  0.9634  1.2564  1.0798
  443MOL0     H58460   0.873   6.495   5.833  0.5088  0.0966 -0.2982
  443MOL0     H58461   0.922   6.683   5.955 -2.8394  0.2279 -1.5303
  443MOL0     H58462   1.855   5.866   7.538 -1.3956 -2.1239 -2.7260
  443MOL0     H58463   1.968   5.709   7.662 -0.9858  1.6881  0.4194
  443MOL0     H58464   2.196   5.300   7.575 -0.7264 -3.1453  2.4255
  443MOL0     H58465   2.317   5.118   7.584  1.9010 -0.9816 -1.1654
  443MOL0     H58466   2.496   4.939   7.609  0.6251  3.0766 -0.3645
  443MOL0     H58467   2.419   4.942   7.770  1.4084  1.2466  1.4257
  443MOL0     H58468   2.579   4.749   7.761  1.1671  0.0942  0.1533
  443MOL0     H58469   2.713   4.859   7.722 -0.2004  0.0765 -1.1047
  443MOL0     H58470   2.636   4.758   7.959  0.8055 -0.9495 -0.7376
  443MOL0     H58471   2.560   4.923   7.960  0.6631  0.9551 -0.8910
  443MOL0     H58472   2.813   4.980   7.897 -0.3927  0.1217  0.2661
  443MOL0     H58473   2.762   4.968   8.060 -1.7419  2.6770 -1.2075
  443MOL0     H58474   3.029   4.627   7.998 -0.7999 -0.9633  2.7466
  443MOL0     H58475   2.613   5.312   7.843  1.3584 -0.7530 -0.1794
  443MOL0     H58476   2.518   5.535   7.750  3.0431 -1.9166 -0.6332
  444MOL0     O58477   2.844   9.615   8.395 -0.2258  0.7404  0.1929
  444MOL0     C58478   2.864   9.564   8.286 -0.1433 -0.1650 -0.1866
  444MOL0     O58479   2.965   9.591   8.191  0.4604  0.3373 -0.0424
  444MOL0     C58480   3.079   9.636   8.241 -0.4620 -0.0775 -0.6185
  444MOL0     C58481   3.168   9.554   8.307 -0.5134  1.1769  0.8765
  444MOL0     C58482   3.285   9.587   8.358  0.0151 -0.3880  0.7171
  444MOL0     C58483   3.322   9.720   8.343 -0.0060 -1.0207 -0.3222
  444MOL0     O58484   3.448   9.762   8.398 -0.0488 -0.2587  0.9091
  444MOL0     C58485   3.458   9.905   8.391 -0.2190 -0.5626  0.4776
  444MOL0     C58486   3.535   9.946   8.260  0.2904 -0.1180  0.0968
  444MOL0     C58487   3.644   9.843   8.241 -0.5880  0.1862  0.0380
  444MOL0     C58488   3.751   9.900   8.148  0.6048  0.0165 -0.3301
  444MOL0     C58489   3.871   9.812   8.147 -0.1403 -0.5863 -0.1134
  444MOL0     C58490   3.968   9.852   8.030  0.1634 -0.1027  0.0546
  444MOL0     C58491   4.110   9.844   8.080  0.9060 -0.3077 -0.1175
  444MOL0     C58492   4.187   9.716   8.022  1.1041 -0.2320  0.2404
  444MOL0     N58493   4.306   9.696   8.109  0.7645 -0.1640 -0.6437
  444MOL0     C58494   4.387   9.587   8.099  1.0787 -0.5744 -0.2382
  444MOL0     C58495   4.502   9.625   8.164  0.1521 -0.0931 -1.0221
  444MOL0     C58496   4.631   9.546   8.196 -0.5476 -0.1237 -0.1112
  444MOL0     C58497   4.723   9.533   8.074 -0.7187 -0.1387  0.6509
  444MOL0     C58498   4.812   9.659   8.069 -0.1971  0.4599  0.6913
  444MOL0     C58499   4.946   9.618   7.992  1.2398  0.0044  0.6459
  444MOL0     O58500   5.028   9.534   8.078  0.1112  0.4381  0.6343
  444MOL0     C58501   5.168   9.524   8.048  0.0895  0.6245 -1.0008
  444MOL0     C58502   5.255   9.610   7.975  0.7386  0.2182  0.3790
  444MOL0     C58503   5.397   9.593   7.981  0.2872  0.8485  0.6788
  444MOL0     C58504   5.453   9.482   8.047 -0.3349  0.9901 -0.4166
  444MOL0     C58505   5.603   9.463   8.059  0.1595 -0.0092  0.0111
  444MOL0     O58506   5.679   9.530   7.967 -0.0395 -0.2538  0.8069
  444MOL0     C58507   5.813   9.538   8.000  0.5399  0.4819  0.6695
  444MOL0     C58508   5.905   9.497   7.908  1.3548 -0.5322  0.3729
  444MOL0     C58509   6.041   9.516   7.935  0.9103 -0.5300  0.9797
  444MOL0     C58510   6.095   9.579   8.042 -0.0109  0.7456 -0.3234
  444MOL0     O58511   6.229   9.599   8.066  0.7347  0.7773  0.1595
  444MOL0     C58512   6.275   9.625   8.201 -0.3420 -0.1419  0.0779
  444MOL0     C58513   6.426   9.614   8.209 -0.4579 -0.0499  0.5016
  444MOL0     C58514   6.471   9.466   8.184 -0.5412  0.1874  0.1637
  444MOL0     C58515   6.624   9.461   8.200 -0.5722 -0.8106  1.1123
  444MOL0     C58516   6.687   9.326   8.233 -0.7646 -1.2953 -0.9246
  444MOL0     C58517   6.637   9.216   8.148  0.0206 -0.3382  0.3897
  444MOL0     C58518   6.726   9.097   8.170 -0.2948 -0.1188 -0.6504
  444MOL0     C58519   6.660   8.977   8.105  1.2042  0.0041  0.1781
  444MOL0    Cl58520   6.753   8.829   8.155  0.0414 -0.5393  0.1013
  444MOL0     C58521   6.001   9.635   8.134  0.2392  0.3555 -0.1587
  444MOL0     C58522   5.865   9.611   8.113  0.4822  0.0647 -0.2043
  444MOL0     O58523   5.642   9.397   8.152 -0.0065 -0.1649 -0.8591
  444MOL0     C58524   5.367   9.386   8.095 -0.2740  0.1479  0.0310
  444MOL0     C58525   5.226   9.415   8.100  0.4618  0.4235 -0.5963
  444MOL0     N58526   4.489   9.751   8.214  0.7576  0.0291 -0.1504
  444MOL0     N58527   4.375   9.790   8.171  0.8789 -0.4111 -0.4939
  444MOL0     C58528   3.235   9.812   8.284  0.3929  0.9276  0.3664
  444MOL0     C58529   3.113   9.764   8.232 -0.8880 -0.0561 -0.4019
  444MOL0     C58530   2.770   9.457   8.247  0.1123 -0.0609  0.4171
  444MOL0     C58531   2.797   9.377   8.138 -0.3392  0.3736  0.4089
  444MOL0     C58532   2.703   9.273   8.096 -0.8143 -0.1886  0.3143
  444MOL0     C58533   2.591   9.243   8.169 -0.1480  0.0625 -0.1161
  444MOL0     O58534   2.514   9.136   8.123 -0.8059  0.0365  0.1474
  444MOL0     C58535   2.396   9.106   8.181 -0.1205 -0.3440  0.7572
  444MOL0     C58536   2.325   8.992   8.111  0.8976  0.4783  0.8281
  444MOL0     C58537   2.423   8.874   8.103 -0.8427  0.6119  0.7043
  444MOL0     C58538   2.375   8.748   8.026 -0.6377 -0.7075 -0.3467
  444MOL0     C58539   2.258   8.686   8.092  0.2819 -0.4276  0.3155
  444MOL0     C58540   2.162   8.640   8.146 -0.0136  0.2787 -0.0166
  444MOL0     C58541   2.559   9.336   8.267  0.2378  0.8597  0.0668
  444MOL0     C58542   2.648   9.430   8.318 -0.5846 -0.1298  0.1173
  444MOL0     H58543   3.140   9.449   8.312 -1.3797  1.0883 -2.7097
  444MOL0     H58544   3.348   9.521   8.416  0.0261  1.9201  3.5492
  444MOL0     H58545   3.524   9.933   8.474  3.2698 -1.7046 -1.6921
  444MOL0     H58546   3.362   9.954   8.408 -1.2471 -2.5297  0.6562
  444MOL0     H58547   3.571  10.048   8.274  0.3660 -0.0735 -0.4127
  444MOL0     H58548   3.468   9.950   8.174  0.0918 -1.8889  0.1221
  444MOL0     H58549   3.609   9.752   8.190 -0.0960  1.2800 -2.3701
  444MOL0     H58550   3.689   9.818   8.338 -0.0785 -1.5729 -0.6117
  444MOL0     H58551   3.702   9.912   8.051  1.3161  2.5924 -0.4565
  444MOL0     H58552   3.783  10.002   8.169 -1.7294  0.8499 -0.5421
  444MOL0     H58553   3.832   9.711   8.131 -2.0406  0.2084 -0.7652
  444MOL0     H58554   3.916   9.790   8.245 -0.5815  0.3158  0.3034
  444MOL0     H58555   3.952   9.960   8.024 -0.3860 -0.1193  1.0968
  444MOL0     H58556   3.956   9.802   7.933  2.1744 -2.9123  1.1351
  444MOL0     H58557   4.164   9.933   8.046 -0.1245 -0.0026 -1.0131
  444MOL0     H58558   4.108   9.843   8.189 -0.6141  2.1352 -0.0488
  444MOL0     H58559   4.200   9.727   7.914  0.0133 -2.3288 -0.1419
  444MOL0     H58560   4.122   9.628   8.018  0.9481 -0.1045 -0.1088
  444MOL0     H58561   4.364   9.494   8.048 -0.8230 -0.8067  0.9274
  444MOL0     H58562   4.603   9.441   8.210 -0.5357  0.1593  2.4922
  444MOL0     H58563   4.680   9.589   8.284 -0.9100 -0.1004  0.0797
  444MOL0     H58564   4.659   9.539   7.985  0.8093 -0.7838 -0.5220
  444MOL0     H58565   4.773   9.438   8.092  2.0937  1.4390  1.8243
  444MOL0     H58566   4.768   9.738   8.008  1.2570 -1.0737 -2.5917
  444MOL0     H58567   4.836   9.695   8.169  0.2403 -1.5804  1.3663
  444MOL0     H58568   4.996   9.714   7.975 -1.8901  1.7487  0.4817
  444MOL0     H58569   4.924   9.561   7.901  2.6218  0.0616  0.2556
  444MOL0     H58570   5.200   9.697   7.942  1.0785  0.5467  0.6682
  444MOL0     H58571   5.461   9.669   7.937 -1.9198  0.3174 -4.1523
  444MOL0     H58572   5.868   9.449   7.818  1.6329  1.5426 -0.9379
  444MOL0     H58573   6.117   9.489   7.863 -0.0038 -1.1915  0.2301
  444MOL0     H58574   6.228   9.561   8.275  0.4232 -3.6502 -2.2034
  444MOL0     H58575   6.265   9.732   8.222  2.6686  0.4472 -0.9112
  444MOL0     H58576   6.463   9.659   8.301  1.5516  0.6800 -0.5942
  444MOL0     H58577   6.470   9.668   8.124  0.5075 -0.9948  0.3796
  444MOL0     H58578   6.443   9.428   8.085  1.5329 -0.4575 -0.2250
  444MOL0     H58579   6.423   9.406   8.262 -0.1684  2.2006  2.0388
  444MOL0     H58580   6.676   9.497   8.111  0.5912 -0.1804  2.0225
  444MOL0     H58581   6.663   9.531   8.274 -0.1128 -2.0841  2.1208
  444MOL0     H58582   6.679   9.296   8.338  0.7202  0.2612 -0.3276
  444MOL0     H58583   6.795   9.340   8.233 -0.9169  0.5231  1.6244
  444MOL0     H58584   6.658   9.245   8.045  2.0095 -1.3252  0.4717
  444MOL0     H58585   6.528   9.203   8.150 -0.0044 -0.3995 -0.9730
  444MOL0     H58586   6.822   9.120   8.123 -0.1015 -0.6055 -0.4963
  444MOL0     H58587   6.741   9.077   8.276 -1.4740  1.0283 -0.2392
  444MOL0     H58588   6.658   8.994   7.997  4.0720  0.5897  0.1392
  444MOL0     H58589   6.556   8.967   8.138  0.6931 -0.6167 -1.5224
  444MOL0     H58590   6.038   9.682   8.224  1.7998 -1.1285  0.0248
  444MOL0     H58591   5.793   9.646   8.187  0.7649  2.2189 -0.8635
  444MOL0     H58592   5.403   9.289   8.127  0.4267  0.2563 -0.4241
  444MOL0     H58593   5.163   9.343   8.152  4.2876 -3.7436 -1.1624
  444MOL0     H58594   3.250   9.916   8.258  1.8952  0.6026 -0.2269
  444MOL0     H58595   3.051   9.844   8.192 -1.4724 -0.5116 -0.4086
  444MOL0     H58596   2.880   9.387   8.070  1.3087 -0.2668  2.2354
  444MOL0     H58597   2.705   9.219   8.002 -0.9270  0.1317  0.1250
  444MOL0     H58598   2.340   9.199   8.189  0.9036  0.3130  0.4977
  444MOL0     H58599   2.412   9.072   8.284  0.7371 -0.3122  0.6422
  444MOL0     H58600   2.244   8.961   8.177  0.1907 -1.2750 -0.7506
  444MOL0     H58601   2.273   9.029   8.022  1.3073  0.9711  0.7906
  444MOL0     H58602   2.446   8.839   8.204  0.0675 -1.8660 -0.2805
  444MOL0     H58603   2.510   8.919   8.054  0.5872 -0.0589  2.4827
  444MOL0     H58604   2.338   8.772   7.925 -0.0260 -0.7883 -0.5945
  444MOL0     H58605   2.450   8.671   8.007  1.8717  1.7414 -0.9556
  444MOL0     H58606   2.083   8.595   8.202  0.1937 -1.6747 -1.1998
  444MOL0     H58607   2.469   9.316   8.324 -0.7635  1.1659 -1.3473
  444MOL0     H58608   2.619   9.490   8.403 -1.4425  0.5719 -0.6433
  445MOL0     O58609   9.812  10.765   3.651  0.6752  0.6936 -0.1940
  445MOL0     C58610   9.723  10.788   3.731 -0.5049 -0.8004 -0.3664
  445MOL0     O58611   9.744  10.844   3.852 -0.4891  0.1227 -0.9143
  445MOL0     C58612   9.877  10.867   3.882  0.3741  0.7088 -0.2996
  445MOL0     C58613   9.936  10.977   3.838  0.2039 -1.1440  0.5651
  445MOL0     C58614  10.067  11.001   3.863  0.4905 -0.1934  0.9264
  445MOL0     C58615  10.154  10.917   3.935  0.8200 -0.2536 -0.0314
  445MOL0     O58616  10.282  10.941   3.966 -0.5615  0.3472 -0.1089
  445MOL0     C58617  10.340  11.067   3.936 -0.3439 -0.0562  0.2673
  445MOL0     C58618  10.472  11.085   4.016 -0.9251 -0.2439 -0.1444
  445MOL0     C58619  10.446  11.108   4.161  0.4491 -0.0055  0.7591
  445MOL0     C58620  10.549  11.172   4.249 -0.1397  0.1415 -0.1241
  445MOL0     C58621  10.637  11.081   4.324 -1.0039 -0.2839 -0.7884
  445MOL0     C58622  10.776  11.148   4.360 -0.0050 -0.1620  0.0540
  445MOL0     C58623  10.871  11.069   4.457 -0.8409 -0.4332 -0.3076
  445MOL0     C58624  11.010  11.134   4.489 -0.4071  0.2931 -0.4822
  445MOL0     N58625  11.022  11.152   4.635 -0.6697  0.3247  0.0810
  445MOL0     C58626  10.978  11.266   4.704  0.3416 -0.8325 -0.3961
  445MOL0     C58627  11.018  11.249   4.825  0.6824  0.5748  0.2161
  445MOL0     C58628  11.007  11.326   4.954  1.3903  0.1956 -0.5822
  445MOL0     C58629  10.865  11.288   5.022  0.4534  0.2530  0.3780
  445MOL0     C58630  10.830  11.375   5.140  0.0245 -0.0661  0.3556
  445MOL0     C58631  10.683  11.366   5.178  1.5162  0.4975 -0.1736
  445MOL0     O58632  10.651  11.234   5.214 -0.5452 -0.2900  0.3397
  445MOL0     C58633  10.521  11.205   5.256  0.1369 -1.3303  0.6958
  445MOL0     C58634  10.492  11.088   5.312 -0.6550  0.2284  0.9907
  445MOL0     C58635  10.360  11.058   5.344 -0.2716  0.4394  0.3443
  445MOL0     C58636  10.253  11.152   5.330  1.0681  0.6412  0.7744
  445MOL0     C58637  10.113  11.125   5.383  0.4221 -0.0208 -1.1659
  445MOL0     O58638  10.040  11.232   5.381  0.5220  0.6801 -0.3823
  445MOL0     C58639   9.906  11.219   5.429  0.0172  0.7870  0.2063
  445MOL0     C58640   9.800  11.239   5.329 -0.8208 -0.7365  0.0121
  445MOL0     C58641   9.667  11.222   5.365  0.1469 -0.0401  0.0822
  445MOL0     C58642   9.635  11.187   5.501  0.0457  0.5598  0.3713
  445MOL0     O58643   9.498  11.170   5.521 -0.0211 -0.9365 -0.7059
  445MOL0     C58644   9.445  11.118   5.641 -0.0407 -0.7792 -0.1703
  445MOL0     C58645   9.288  11.135   5.640 -0.7601  0.1636 -0.5167
  445MOL0     C58646   9.255  11.286   5.637  0.8472 -0.2543 -0.2024
  445MOL0     C58647   9.102  11.312   5.631  0.6913 -0.6666 -0.1103
  445MOL0     C58648   9.038  11.323   5.769  0.2800 -0.0769 -0.1335
  445MOL0     C58649   8.890  11.344   5.748 -0.5656  0.1832 -0.0066
  445MOL0     C58650   8.829  11.360   5.890 -0.7116  0.6661  0.0122
  445MOL0     C58651   8.740  11.247   5.934  0.7375 -0.7910 -0.3377
  445MOL0    Cl58652   8.583  11.238   5.844 -0.0751 -0.0101 -0.2211
  445MOL0     C58653   9.738  11.166   5.594 -0.0485  0.7756  0.0367
  445MOL0     C58654   9.874  11.172   5.558  0.4914  0.2798  0.2179
  445MOL0     O58655  10.081  11.014   5.418 -0.0245  0.0167 -0.8935
  445MOL0     C58656  10.284  11.269   5.262  0.1005 -0.4177  0.1770
  445MOL0     C58657  10.421  11.292   5.236  0.6310  0.5156  0.3485
  445MOL0     N58658  11.091  11.128   4.825  0.6223  0.2885 -0.0475
  445MOL0     N58659  11.094  11.074   4.710 -0.1023  0.1759  0.1684
  445MOL0     C58660  10.086  10.805   3.991  1.4396  0.0997 -0.0531
  445MOL0     C58661   9.954  10.777   3.960  0.8946  0.1479  0.0073
  445MOL0     C58662   9.586  10.740   3.695 -0.4613 -0.7728  0.9676
  445MOL0     C58663   9.481  10.743   3.791 -0.1035  0.3984 -0.0501
  445MOL0     C58664   9.364  10.682   3.755 -0.3635  0.7198  0.2386
  445MOL0     C58665   9.339  10.637   3.626  0.2692 -0.1296 -0.0636
  445MOL0     O58666   9.224  10.563   3.600 -0.4447  0.3636 -0.7100
  445MOL0     C58667   9.096  10.620   3.598  0.2596  0.3143  0.2066
  445MOL0     C58668   9.041  10.641   3.461  0.7040 -0.0152 -0.6370
  445MOL0     C58669   9.022  10.515   3.381  0.1474 -0.5048  0.0843
  445MOL0     C58670   8.905  10.526   3.293 -0.1453 -0.5133 -0.5705
  445MOL0     C58671   8.768  10.521   3.353 -0.7769  0.0830  1.2576
  445MOL0     C58672   8.586  10.502   3.424 -0.7530 -1.2012  0.6590
  445MOL0     C58673   9.436  10.646   3.527 -0.5505 -0.3231  0.5253
  445MOL0     C58674   9.560  10.693   3.563  0.1763  0.2233  0.8141
  445MOL0     H58675   9.880  11.058   3.791  0.6651 -0.7326  0.7208
  445MOL0     H58676  10.124  11.081   3.817 -1.0167  0.2359 -0.2551
  445MOL0     H58677  10.281  11.154   3.967 -0.0021  1.2357 -2.3651
  445MOL0     H58678  10.357  11.077   3.828  1.1774 -2.4511  0.2122
  445MOL0     H58679  10.532  11.173   3.992  0.3331  0.4160  4.3254
  445MOL0     H58680  10.532  10.994   4.005 -1.5250 -0.4143 -2.2395
  445MOL0     H58681  10.427  11.009   4.205  1.1027 -0.1937  0.6226
  445MOL0     H58682  10.354  11.166   4.166  0.8629  0.6663  0.6567
  445MOL0     H58683  10.606  11.231   4.177  0.6359 -2.2590 -1.6130
  445MOL0     H58684  10.497  11.234   4.322  0.9696  1.1625 -0.1789
  445MOL0     H58685  10.659  10.992   4.264  2.9402 -1.0695  1.4459
  445MOL0     H58686  10.596  11.036   4.416  2.9453 -0.0779  1.3016
  445MOL0     H58687  10.756  11.243   4.411  2.5310  1.9707 -2.5726
  445MOL0     H58688  10.825  11.177   4.267  0.9503 -0.4287  0.4604
  445MOL0     H58689  10.812  11.061   4.549  0.6439  1.0828  0.8665
  445MOL0     H58690  10.890  10.968   4.421 -1.4966 -0.3179 -0.9772
  445MOL0     H58691  11.029  11.218   4.421 -2.7569  0.0761 -1.4810
  445MOL0     H58692  11.087  11.060   4.463  1.9231  1.9387  1.2319
  445MOL0     H58693  10.920  11.352   4.672 -0.0827  0.1658  2.7427
  445MOL0     H58694  11.031  11.430   4.930  0.9414  0.5314  0.3682
  445MOL0     H58695  11.085  11.304   5.027 -1.1807 -0.8818  2.0396
  445MOL0     H58696  10.856  11.186   5.059 -2.7510  0.0348 -0.7596
  445MOL0     H58697  10.784  11.296   4.949 -0.3341 -0.1330  1.1968
  445MOL0     H58698  10.891  11.354   5.228 -1.4354 -2.1369  0.9487
  445MOL0     H58699  10.851  11.480   5.116 -0.0701  0.1543  1.2225
  445MOL0     H58700  10.633  11.410   5.091  2.6265  2.0861 -0.0616
  445MOL0     H58701  10.660  11.428   5.265  1.7820 -1.3406  1.2640
  445MOL0     H58702  10.578  11.031   5.345  0.7508  3.1306  2.7400
  445MOL0     H58703  10.350  10.958   5.385  1.3893 -0.5340 -1.4271
  445MOL0     H58704   9.837  11.271   5.233  0.0363  1.7978  1.0977
  445MOL0     H58705   9.592  11.249   5.291 -2.7273 -0.0292  2.7837
  445MOL0     H58706   9.482  11.169   5.730 -1.2697  1.3185 -0.7974
  445MOL0     H58707   9.473  11.013   5.652 -1.3383 -0.9511  2.0042
  445MOL0     H58708   9.243  11.084   5.726 -0.5099  1.7337  0.5863
  445MOL0     H58709   9.248  11.099   5.544  2.5952 -2.2829 -1.1794
  445MOL0     H58710   9.294  11.340   5.549 -0.4673 -1.8297 -1.8162
  445MOL0     H58711   9.285  11.330   5.732  0.0227  1.4619 -0.6988
  445MOL0     H58712   9.095  11.401   5.569 -1.0205 -1.8456 -1.7020
  445MOL0     H58713   9.069  11.233   5.562  2.1810 -1.6187  0.2317
  445MOL0     H58714   9.079  11.408   5.824  1.8596 -2.5171  2.7788
  445MOL0     H58715   9.063  11.237   5.833 -1.5562  0.8832  2.0279
  445MOL0     H58716   8.850  11.263   5.687 -3.9237  1.7215 -0.0840
  445MOL0     H58717   8.878  11.437   5.693  0.0228 -1.4016 -2.9938
  445MOL0     H58718   8.901  11.355   5.972 -1.5356 -1.2842  0.6810
  445MOL0     H58719   8.781  11.458   5.903 -1.0021  0.9544 -2.6987
  445MOL0     H58720   8.705  11.259   6.037 -0.0076  0.0090 -0.6714
  445MOL0     H58721   8.792  11.151   5.945  1.5730 -0.2573  0.4849
  445MOL0     H58722   9.706  11.134   5.692  0.8096 -0.7249 -0.1336
  445MOL0     H58723   9.957  11.146   5.624 -1.5242 -2.2396  1.9722
  445MOL0     H58724  10.209  11.346   5.242  2.3383  1.4139 -1.8357
  445MOL0     H58725  10.443  11.377   5.173 -1.7458  1.6538  0.9372
  445MOL0     H58726  10.144  10.733   4.048 -1.6093 -1.5512  1.2100
  445MOL0     H58727   9.911  10.682   3.991  2.7946 -0.6141  0.4459
  445MOL0     H58728   9.495  10.785   3.890  4.3989  0.6718 -0.5984
  445MOL0     H58729   9.298  10.672   3.841  1.8021  0.4460  1.9683
  445MOL0     H58730   9.083  10.710   3.658 -0.5539  0.2058  0.2052
  445MOL0     H58731   9.032  10.548   3.650 -0.3649  1.0538  0.4739
  445MOL0     H58732   8.940  10.677   3.481  0.3112  0.3640 -3.0787
  445MOL0     H58733   9.091  10.721   3.406  0.9129 -0.4200 -1.0394
  445MOL0     H58734   9.009  10.426   3.443 -0.4910 -0.6102 -0.1931
  445MOL0     H58735   9.110  10.519   3.316  0.5876  1.2904  0.7271
  445MOL0     H58736   8.907  10.612   3.225 -1.9483 -0.5507 -0.7067
  445MOL0     H58737   8.922  10.449   3.218  1.1824  2.1289 -3.1844
  445MOL0     H58738   8.485  10.503   3.459 -1.3079 -0.8172 -0.8770
  445MOL0     H58739   9.425  10.609   3.426  1.7962  0.1394  0.0453
  445MOL0     H58740   9.635  10.684   3.485 -0.8242  0.3349 -0.1769
  446MOL0     O58741   6.540   4.383   6.955 -0.3739  0.2049  0.2717
  446MOL0     C58742   6.569   4.491   7.009  0.0628  0.8154 -0.5797
  446MOL0     O58743   6.647   4.498   7.127 -0.1486  0.8390  0.5746
  446MOL0     C58744   6.702   4.391   7.182  0.2428 -0.9948 -0.7671
  446MOL0     C58745   6.631   4.273   7.207 -0.1374  0.1491 -0.2000
  446MOL0     C58746   6.693   4.161   7.268  0.5048 -0.5034 -1.4215
  446MOL0     C58747   6.825   4.170   7.315  0.9179 -0.4783 -0.3108
  446MOL0     O58748   6.890   4.055   7.365  0.3183 -0.2387 -0.1724
  446MOL0     C58749   7.038   4.044   7.396  0.3267  0.1980 -0.4513
  446MOL0     C58750   7.069   3.890   7.434  0.2166 -1.2910  0.1635
  446MOL0     C58751   7.211   3.860   7.436 -0.4050  1.6861  0.3038
  446MOL0     C58752   7.257   3.819   7.295 -0.0162  0.5720  0.5897
  446MOL0     C58753   7.250   3.673   7.279  0.2619  0.0658 -0.1186
  446MOL0     C58754   7.292   3.634   7.135 -0.4595 -0.1359  0.8157
  446MOL0     C58755   7.279   3.480   7.108 -0.0681  0.6859 -0.9578
  446MOL0     C58756   7.304   3.450   6.960 -0.6574 -0.7386 -0.2607
  446MOL0     N58757   7.254   3.315   6.922 -0.0212 -0.4994 -0.1788
  446MOL0     C58758   7.297   3.192   6.969  1.3717 -0.9832 -0.4488
  446MOL0     C58759   7.203   3.093   6.926 -0.6997 -0.6340  0.3403
  446MOL0     C58760   7.183   2.951   6.965  0.3279  0.3887 -0.1625
  446MOL0     C58761   7.160   2.932   7.114  0.4297  0.7408 -0.1909
  446MOL0     C58762   7.149   2.775   7.148  0.1442 -0.0742 -0.2720
  446MOL0     C58763   7.114   2.741   7.291 -0.3731  0.7745  0.1822
  446MOL0     O58764   7.226   2.753   7.372  0.0467  0.0544  0.2128
  446MOL0     C58765   7.219   2.726   7.504 -0.4950  0.0402 -0.5217
  446MOL0     C58766   7.108   2.723   7.576 -0.1656  0.5390 -0.1706
  446MOL0     C58767   7.114   2.685   7.713  0.7055  0.3802 -0.1838
  446MOL0     C58768   7.238   2.650   7.778  0.1274 -0.3662  0.9449
  446MOL0     C58769   7.249   2.595   7.907 -0.6228  0.0944 -0.8474
  446MOL0     O58770   7.136   2.569   7.976 -0.2914 -0.3250 -0.6839
  446MOL0     C58771   7.110   2.602   8.104 -0.2199 -0.4073  0.2109
  446MOL0     C58772   7.189   2.685   8.185  0.5736  0.5717 -0.1473
  446MOL0     C58773   7.154   2.708   8.317  0.2292  0.6330 -0.3718
  446MOL0     C58774   7.044   2.639   8.380  0.0302 -0.0935 -1.1463
  446MOL0     O58775   7.015   2.663   8.518 -0.3997 -0.0058  0.1646
  446MOL0     C58776   6.927   2.556   8.574 -0.8159 -0.0881  1.0966
  446MOL0     C58777   6.883   2.557   8.722 -0.3329 -0.2309 -0.0233
  446MOL0     C58778   7.005   2.527   8.813 -0.0872 -0.6518 -0.8291
  446MOL0     C58779   6.967   2.587   8.948  0.5264 -0.0342 -1.7917
  446MOL0     C58780   7.038   2.518   9.065  0.0345 -0.6121  0.1776
  446MOL0     C58781   7.026   2.617   9.184  1.1997 -0.0696  0.6180
  446MOL0     C58782   7.122   2.577   9.293 -0.9152  0.5666  0.1453
  446MOL0     C58783   7.074   2.456   9.384  0.0274  0.1267  1.1642
  446MOL0    Cl58784   7.223   2.364   9.420 -0.1782 -0.0685 -0.3326
  446MOL0     C58785   6.974   2.549   8.297 -0.4929 -1.0472  0.1709
  446MOL0     C58786   6.998   2.531   8.160 -0.2809 -1.0490 -0.0228
  446MOL0     O58787   7.358   2.588   7.961 -0.8452 -0.0749 -0.2904
  446MOL0     C58788   7.348   2.659   7.692  0.6440 -0.4839 -0.3325
  446MOL0     C58789   7.339   2.698   7.558  0.5789 -0.2290 -0.3795
  446MOL0     N58790   7.111   3.169   6.861  0.0952  0.3604  1.2377
  446MOL0     N58791   7.140   3.297   6.854  0.2539  0.0124  0.0973
  446MOL0     C58792   6.898   4.296   7.297  0.2969 -0.0066 -0.2271
  446MOL0     C58793   6.835   4.402   7.233 -0.5024 -0.4044 -0.1237
  446MOL0     C58794   6.506   4.612   6.958 -0.6553  0.3343  0.4301
  446MOL0     C58795   6.498   4.715   7.045 -0.1692 -0.2087  0.3614
  446MOL0     C58796   6.441   4.836   7.009  0.7756 -1.6144  0.7263
  446MOL0     C58797   6.395   4.863   6.882 -0.2764  0.0203 -0.5151
  446MOL0     O58798   6.357   5.001   6.862  0.1165 -0.2459  1.2459
  446MOL0     C58799   6.316   5.042   6.728  0.0166 -0.6660  0.1336
  446MOL0     C58800   6.166   5.046   6.696 -0.0025  0.5390 -0.3036
  446MOL0     C58801   6.097   4.912   6.663  0.0876 -0.6694 -0.0708
  446MOL0     C58802   5.952   4.911   6.614 -0.2880  0.6596  0.4339
  446MOL0     C58803   5.893   4.774   6.625  0.5720 -0.6638  0.6673
  446MOL0     C58804   5.838   4.668   6.638 -0.2429  0.1557  0.3882
  446MOL0     C58805   6.397   4.754   6.793  0.4256  0.5537  0.1120
  446MOL0     C58806   6.439   4.621   6.838  0.6541 -0.8452  0.6543
  446MOL0     H58807   6.531   4.256   7.169  0.4806  2.3251 -3.1694
  446MOL0     H58808   6.647   4.062   7.262 -0.4941 -0.3679  1.9289
  446MOL0     H58809   7.054   4.103   7.487  1.1522 -0.8324  0.0849
  446MOL0     H58810   7.113   4.070   7.320  2.5010 -0.2498  1.4329
  446MOL0     H58811   7.027   3.817   7.364 -0.5370 -0.8744  0.1757
  446MOL0     H58812   7.034   3.873   7.536  2.1750  0.3689  1.1880
  446MOL0     H58813   7.232   3.782   7.510 -1.4978 -0.1000 -1.1707
  446MOL0     H58814   7.254   3.951   7.478  0.1145  1.2828  0.6561
  446MOL0     H58815   7.193   3.876   7.227  0.4029 -0.2743 -0.5645
  446MOL0     H58816   7.358   3.854   7.275 -0.2113  1.4836  1.1684
  446MOL0     H58817   7.152   3.628   7.295  1.9155 -3.3765  1.6098
  446MOL0     H58818   7.326   3.628   7.344  2.0309  1.0341 -1.4364
  446MOL0     H58819   7.396   3.652   7.108 -0.9128 -1.9836 -2.7684
  446MOL0     H58820   7.241   3.690   7.057  0.4688 -3.3150 -2.3187
  446MOL0     H58821   7.357   3.427   7.164  0.0140  1.0697 -0.7117
  446MOL0     H58822   7.178   3.459   7.145  1.4633 -2.1527  2.2182
  446MOL0     H58823   7.413   3.452   6.952 -0.6826 -0.9319 -0.6725
  446MOL0     H58824   7.270   3.529   6.893 -0.5760  0.2183  0.8045
  446MOL0     H58825   7.384   3.181   7.033  3.0069  1.9067 -1.9733
  446MOL0     H58826   7.274   2.892   6.948 -0.5705 -0.8745 -0.6817
  446MOL0     H58827   7.117   2.913   6.886  0.9630 -0.5601 -0.2453
  446MOL0     H58828   7.066   2.987   7.128 -0.1650  0.0976 -1.4894
  446MOL0     H58829   7.248   2.975   7.162  1.1280 -1.3971  0.5236
  446MOL0     H58830   7.076   2.726   7.084  0.0909  1.4869 -1.4817
  446MOL0     H58831   7.245   2.727   7.129 -0.9274 -1.8201 -1.5828
  446MOL0     H58832   7.083   2.636   7.289  1.2515  0.2643  0.3874
  446MOL0     H58833   7.024   2.796   7.321  0.0662  0.8094  1.4763
  446MOL0     H58834   7.012   2.754   7.535 -1.5647 -0.9469  1.7991
  446MOL0     H58835   7.024   2.679   7.774  0.4397 -0.7545 -0.6590
  446MOL0     H58836   7.263   2.759   8.154 -0.7741  3.4400  2.8597
  446MOL0     H58837   7.218   2.759   8.388  0.0465 -0.4929  0.6351
  446MOL0     H58838   6.965   2.456   8.552  1.6010  1.0288 -0.2063
  446MOL0     H58839   6.831   2.565   8.523 -0.9905  2.2181  1.7263
  446MOL0     H58840   6.800   2.491   8.750  0.0038 -0.4450  0.4910
  446MOL0     H58841   6.862   2.662   8.745 -1.1014  0.6046 -3.8089
  446MOL0     H58842   7.096   2.576   8.777 -0.1793 -0.0426 -0.2593
  446MOL0     H58843   7.034   2.423   8.831  4.4255  0.9104  2.8580
  446MOL0     H58844   6.985   2.695   8.938 -3.2420  0.8205 -0.9633
  446MOL0     H58845   6.860   2.580   8.968  0.8472 -1.7813 -0.4264
  446MOL0     H58846   7.143   2.511   9.033  0.2957  2.1027  0.1888
  446MOL0     H58847   7.003   2.416   9.084  0.9091 -0.7177  1.3528
  446MOL0     H58848   6.924   2.618   9.224  0.2565  2.0399 -1.5866
  446MOL0     H58849   7.030   2.724   9.162  0.3803 -0.3356 -0.9973
  446MOL0     H58850   7.216   2.543   9.249 -3.0487 -1.8465 -2.9624
  446MOL0     H58851   7.139   2.662   9.360 -0.3967 -0.0919  0.8721
  446MOL0     H58852   7.007   2.390   9.328  1.8467 -1.2169  0.4752
  446MOL0     H58853   7.024   2.477   9.479 -0.4467 -2.9676  1.6893
  446MOL0     H58854   6.882   2.501   8.330 -1.3645 -0.0105 -0.6580
  446MOL0     H58855   6.941   2.459   8.103 -0.0490 -0.0693 -1.5480
  446MOL0     H58856   7.441   2.630   7.739 -0.1202 -0.5213  1.2371
  446MOL0     H58857   7.432   2.689   7.503  0.1234 -2.4571 -0.8695
  446MOL0     H58858   7.003   4.303   7.325  0.3545 -4.1065  1.2929
  446MOL0     H58859   6.894   4.492   7.224  2.4615 -1.6597  3.8452
  446MOL0     H58860   6.546   4.709   7.143  2.2386  0.6930 -0.6836
  446MOL0     H58861   6.443   4.916   7.082  0.3397  0.7221 -1.6641
  446MOL0     H58862   6.372   4.986   6.652  0.5807  2.8517 -2.2954
  446MOL0     H58863   6.339   5.148   6.713  1.4593 -0.9183  0.4115
  446MOL0     H58864   6.109   5.089   6.779 -2.6275  0.0207 -1.7451
  446MOL0     H58865   6.159   5.126   6.621  3.5280  2.0652  0.7606
  446MOL0     H58866   6.115   4.856   6.756  0.8850  2.3998  1.7770
  446MOL0     H58867   6.156   4.867   6.583  2.6427  1.2121  0.6492
  446MOL0     H58868   5.896   4.958   6.696 -1.2276 -2.6308  1.8604
  446MOL0     H58869   5.937   4.951   6.514  1.2535 -0.3921 -0.2573
  446MOL0     H58870   5.799   4.570   6.654  0.3345 -0.3361 -1.0595
  446MOL0     H58871   6.342   4.767   6.701 -2.0414 -2.1927  1.0325
  446MOL0     H58872   6.417   4.534   6.777 -1.8936  1.5878 -2.2072
  447MOL0     O58873   9.780   2.923   1.014  0.2322  0.2120 -0.2521
  447MOL0     C58874   9.751   2.813   0.968 -0.0062 -0.6415  0.1462
  447MOL0     O58875   9.666   2.728   1.019 -0.6317  0.1650  0.1002
  447MOL0     C58876   9.610   2.777   1.138 -0.6484  0.3221  0.0179
  447MOL0     C58877   9.516   2.883   1.141 -0.1739 -0.5295  0.3677
  447MOL0     C58878   9.460   2.903   1.272  0.2274 -1.0046  0.3197
  447MOL0     C58879   9.490   2.824   1.381  0.0436  0.2737 -0.3070
  447MOL0     O58880   9.414   2.851   1.499  0.1956 -0.1298 -0.3862
  447MOL0     C58881   9.496   2.867   1.617  0.1284  1.0350 -0.1566
  447MOL0     C58882   9.513   2.738   1.700 -0.4324  0.0366  0.4556
  447MOL0     C58883   9.450   2.751   1.844 -0.7794  0.4631  0.2430
  447MOL0     C58884   9.471   2.636   1.934  0.5655  0.0963  0.3277
  447MOL0     C58885   9.435   2.663   2.076 -0.0993 -0.5048 -0.6325
  447MOL0     C58886   9.511   2.768   2.149  0.3042  0.1145 -0.7979
  447MOL0     C58887   9.662   2.740   2.178  1.1332  1.0254 -0.6868
  447MOL0     C58888   9.703   2.595   2.239  0.1286 -0.3234 -0.7821
  447MOL0     N58889   9.837   2.603   2.297 -0.4993  0.5309  0.2825
  447MOL0     C58890   9.951   2.550   2.237  0.0224  0.1535 -0.2706
  447MOL0     C58891  10.059   2.605   2.301  0.6423 -0.7352 -0.0465
  447MOL0     C58892  10.193   2.548   2.264  0.2195  0.5402 -0.1566
  447MOL0     C58893  10.233   2.588   2.121  0.1547  0.2061  0.0788
  447MOL0     C58894  10.322   2.487   2.053  0.3098 -0.9134 -0.5242
  447MOL0     C58895  10.394   2.551   1.935  0.4890 -0.2782 -1.2695
  447MOL0     O58896  10.493   2.453   1.903  0.5951  0.4422  0.1573
  447MOL0     C58897  10.578   2.459   1.794 -0.8394 -0.7955 -0.8810
  447MOL0     C58898  10.670   2.357   1.763 -0.3362  0.7586 -0.3374
  447MOL0     C58899  10.774   2.375   1.672 -0.5121 -0.3140 -1.4794
  447MOL0     C58900  10.806   2.502   1.617 -0.0282 -0.8324 -0.3723
  447MOL0     C58901  10.939   2.530   1.551 -0.4967  0.0805  0.6588
  447MOL0     O58902  10.975   2.658   1.528 -0.4236 -0.1822  0.3926
  447MOL0     C58903  11.100   2.679   1.479  0.9942 -0.1075  0.2659
  447MOL0     C58904  11.114   2.678   1.341 -0.3016  0.0884 -0.0709
  447MOL0     C58905  11.234   2.714   1.288 -0.8382  0.3843  0.0336
  447MOL0     C58906  11.340   2.753   1.366  0.2396  0.2659  0.5836
  447MOL0     O58907  11.447   2.808   1.304  0.3159 -0.4092 -0.3999
  447MOL0     C58908  11.576   2.831   1.363  0.4587  0.0769 -0.4554
  447MOL0     C58909  11.586   2.966   1.440 -0.7252  0.5930  0.6194
  447MOL0     C58910  11.739   2.981   1.476 -0.8374  0.0742  0.5762
  447MOL0     C58911  11.832   3.062   1.378  0.0869  0.6890 -0.1254
  447MOL0     C58912  11.969   3.082   1.444 -0.7368 -0.6126  0.7169
  447MOL0     C58913  12.049   2.953   1.428  0.2386 -0.5799  0.2241
  447MOL0     C58914  12.196   2.993   1.443 -0.3813  0.3048 -0.3539
  447MOL0     C58915  12.241   3.055   1.569  0.2473 -0.5183  0.3894
  447MOL0    Cl58916  12.177   2.977   1.714 -0.0354 -0.0351 -0.0351
  447MOL0     C58917  11.331   2.733   1.504  0.7140  0.8932 -0.0598
  447MOL0     C58918  11.208   2.691   1.560 -0.6983 -0.6766 -0.4257
  447MOL0     O58919  11.009   2.434   1.526  0.1736 -0.0384  0.8344
  447MOL0     C58920  10.724   2.607   1.657  0.7395 -0.2839  0.1617
  447MOL0     C58921  10.604   2.584   1.733  0.6198  0.7146 -1.3110
  447MOL0     N58922  10.015   2.684   2.403  0.7571  0.2047 -0.3018
  447MOL0     N58923   9.878   2.676   2.405 -0.3078 -0.4836  0.6424
  447MOL0     C58924   9.571   2.712   1.367  0.1974  0.2777 -0.5293
  447MOL0     C58925   9.631   2.692   1.247 -0.4546  0.6206  0.0542
  447MOL0     C58926   9.799   2.771   0.834 -0.1152  0.5912 -0.4822
  447MOL0     C58927   9.748   2.648   0.776 -0.1149  0.2308  0.7073
  447MOL0     C58928   9.795   2.616   0.642 -0.0527  0.3907 -0.0299
  447MOL0     C58929   9.881   2.697   0.558  0.9221 -0.1541  0.2005
  447MOL0     O58930   9.909   2.672   0.430 -0.0864  0.3706  1.0260
  447MOL0     C58931   9.829   2.568   0.359 -0.6317  0.4193  0.3305
  447MOL0     C58932   9.917   2.441   0.346 -0.6481 -0.1609  0.0164
  447MOL0     C58933   9.991   2.414   0.208  0.3979 -0.3380 -0.6810
  447MOL0     C58934  10.025   2.266   0.190 -0.9061  0.8768 -0.0543
  447MOL0     C58935   9.904   2.192   0.171 -0.6964 -0.4404 -0.1549
  447MOL0     C58936   9.800   2.141   0.130 -0.0351  0.5406 -0.0899
  447MOL0     C58937   9.937   2.805   0.631  0.1339 -0.9876  0.2256
  447MOL0     C58938   9.893   2.837   0.759 -0.0901 -0.6851 -0.3130
  447MOL0     H58939   9.488   2.936   1.050 -1.7568  4.1103  3.2010
  447MOL0     H58940   9.385   2.981   1.275  1.5518  0.3833 -1.0364
  447MOL0     H58941   9.434   2.937   1.674 -2.1415  0.8811 -2.2996
  447MOL0     H58942   9.588   2.918   1.587 -0.1895  1.1631 -0.9228
  447MOL0     H58943   9.612   2.692   1.693  0.3095  1.5243  0.8000
  447MOL0     H58944   9.458   2.651   1.663  0.1580 -2.7467  5.2496
  447MOL0     H58945   9.341   2.758   1.833 -0.7000 -0.0882 -1.0968
  447MOL0     H58946   9.482   2.846   1.887  0.2793  0.4813 -0.5572
  447MOL0     H58947   9.409   2.550   1.905  0.2421  1.3883 -3.2877
  447MOL0     H58948   9.576   2.608   1.919  0.5040  0.8774 -1.9496
  447MOL0     H58949   9.441   2.573   2.139  3.1898 -2.3899 -3.3175
  447MOL0     H58950   9.332   2.700   2.070  1.7434  5.4990 -2.0986
  447MOL0     H58951   9.467   2.795   2.246  0.0827 -0.5258 -0.7169
  447MOL0     H58952   9.495   2.858   2.089 -0.2989 -1.0958 -2.5068
  447MOL0     H58953   9.716   2.742   2.083 -0.0844 -0.4812 -1.4658
  447MOL0     H58954   9.700   2.819   2.243 -1.2467  0.4159  1.6094
  447MOL0     H58955   9.689   2.516   2.165 -1.6401  0.7500 -1.6769
  447MOL0     H58956   9.637   2.576   2.324  2.3269  0.6142  1.2586
  447MOL0     H58957   9.952   2.485   2.150  2.9869  0.2427 -0.3856
  447MOL0     H58958  10.190   2.442   2.293  0.7743  0.8057  0.9192
  447MOL0     H58959  10.275   2.585   2.326  0.2504 -2.9715  2.1884
  447MOL0     H58960  10.278   2.687   2.133 -1.1735  0.8249  0.1536
  447MOL0     H58961  10.144   2.590   2.056  0.9266 -0.7464 -1.0454
  447MOL0     H58962  10.396   2.456   2.127 -1.0608  1.4032  2.0042
  447MOL0     H58963  10.266   2.394   2.039 -1.3025 -0.0590 -0.0126
  447MOL0     H58964  10.429   2.648   1.971 -1.6600 -0.3705  1.3269
  447MOL0     H58965  10.335   2.566   1.844 -1.4977  0.6498  0.1012
  447MOL0     H58966  10.656   2.268   1.823 -1.0371  1.8870  1.2361
  447MOL0     H58967  10.833   2.285   1.658 -1.0724 -0.6936 -1.3883
  447MOL0     H58968  11.026   2.657   1.281  1.1274  0.3019 -2.3348
  447MOL0     H58969  11.242   2.736   1.182 -0.0787  1.7364  0.3559
  447MOL0     H58970  11.649   2.834   1.280 -1.2265 -0.6438 -2.0328
  447MOL0     H58971  11.613   2.757   1.434  3.6983  1.2936 -0.6556
  447MOL0     H58972  11.525   2.963   1.531 -2.0495  0.3493 -0.2422
  447MOL0     H58973  11.542   3.043   1.376 -0.5159  2.5688  2.6993
  447MOL0     H58974  11.777   2.879   1.490  2.4939  1.1152  0.0121
  447MOL0     H58975  11.745   3.032   1.572  2.3376  0.7359  0.1437
  447MOL0     H58976  11.839   3.019   1.278  1.9744  0.8360 -0.0991
  447MOL0     H58977  11.789   3.162   1.374 -1.1628  0.4116  3.3163
  447MOL0     H58978  11.959   3.118   1.547  2.0730 -1.7687  1.4910
  447MOL0     H58979  12.021   3.160   1.388 -0.8333  0.8826  2.6253
  447MOL0     H58980  12.034   2.915   1.327 -0.5026  1.5927 -0.5459
  447MOL0     H58981  12.024   2.880   1.506 -0.2041 -1.4367 -0.6951
  447MOL0     H58982  12.236   2.891   1.456 -1.8658 -0.6079 -2.4464
  447MOL0     H58983  12.236   3.026   1.347  0.9717  0.2759  0.1645
  447MOL0     H58984  12.199   3.156   1.561  0.4411 -0.4324  0.4407
  447MOL0     H58985  12.348   3.075   1.579 -0.1080  2.4677 -0.7569
  447MOL0     H58986  11.418   2.739   1.568  0.4663 -1.1229  0.5648
  447MOL0     H58987  11.191   2.667   1.665 -1.5952 -1.7148 -0.7912
  447MOL0     H58988  10.739   2.708   1.619 -2.7128  1.1049  1.9745
  447MOL0     H58989  10.535   2.666   1.751  0.0418 -0.5412  4.1961
  447MOL0     H58990   9.584   2.635   1.443  2.8330 -1.3656 -2.4941
  447MOL0     H58991   9.686   2.599   1.233 -2.9703 -1.0716  0.7191
  447MOL0     H58992   9.690   2.577   0.834 -1.0349  1.4272  1.2822
  447MOL0     H58993   9.755   2.519   0.616  1.2162 -0.0160 -0.5157
  447MOL0     H58994   9.806   2.609   0.260  3.8494 -0.7421 -1.4694
  447MOL0     H58995   9.730   2.553   0.403 -1.0003 -0.4150 -0.7193
  447MOL0     H58996   9.993   2.431   0.425  0.5839 -0.0826 -1.1299
  447MOL0     H58997   9.843   2.361   0.354  0.0085 -0.9185 -1.1954
  447MOL0     H58998  10.079   2.479   0.215  1.2310 -1.4365 -0.5161
  447MOL0     H58999   9.934   2.436   0.117 -1.7463  0.5590  0.8088
  447MOL0     H59000  10.073   2.257   0.092 -2.1179  1.8365 -0.7627
  447MOL0     H59001  10.080   2.234   0.279 -1.7431 -0.7974 -0.0869
  447MOL0     H59002   9.702   2.099   0.115  1.1328 -3.8536  2.7189
  447MOL0     H59003  10.011   2.867   0.582  0.0498 -2.3872 -1.8387
  447MOL0     H59004   9.947   2.923   0.797  1.6420  0.9566 -5.7256
  448MOL0     O59005  10.008   3.986   7.504  0.0198 -0.1827  0.3336
  448MOL0     C59006  10.089   4.065   7.452  0.0735  0.2026  0.5926
  448MOL0     O59007  10.062   4.151   7.355 -0.3313  0.4795 -0.1411
  448MOL0     C59008   9.953   4.143   7.271  0.8665  0.5058 -0.3499
  448MOL0     C59009   9.946   4.249   7.178 -0.9454 -0.0241 -0.4176
  448MOL0     C59010   9.834   4.261   7.094  0.3821 -0.5297  0.3649
  448MOL0     C59011   9.730   4.172   7.090  0.2355  0.3690  0.5570
  448MOL0     O59012   9.621   4.172   6.997 -0.9286  0.4985  0.1411
  448MOL0     C59013   9.576   4.301   6.941 -0.6834  0.7477  0.0830
  448MOL0     C59014   9.433   4.281   6.899 -0.6569 -0.1711 -0.9655
  448MOL0     C59015   9.418   4.250   6.746  0.5963  0.3360  0.7263
  448MOL0     C59016   9.277   4.236   6.698 -0.3433 -0.8923 -0.3520
  448MOL0     C59017   9.204   4.375   6.692 -0.6650  0.2887  0.2130
  448MOL0     C59018   9.270   4.487   6.605 -0.2651 -0.2138 -0.2804
  448MOL0     C59019   9.205   4.614   6.666 -0.3185 -0.3055 -0.3919
  448MOL0     C59020   9.052   4.622   6.632 -0.9986 -0.1940  0.0719
  448MOL0     N59021   9.015   4.757   6.612 -0.4801 -0.9368 -0.1303
  448MOL0     C59022   8.912   4.815   6.680  0.6869  0.0010 -0.3683
  448MOL0     C59023   8.889   4.936   6.622  0.1428  0.1269 -0.4982
  448MOL0     C59024   8.795   5.049   6.662 -1.3871  0.8955 -0.4026
  448MOL0     C59025   8.839   5.121   6.794  0.3949 -1.2847 -0.5535
  448MOL0     C59026   8.975   5.177   6.810  0.6704 -0.5571 -0.2185
  448MOL0     C59027   9.091   5.082   6.835 -0.5893  0.0603 -0.0363
  448MOL0     O59028   9.066   4.988   6.941  0.3039 -0.0969 -0.6029
  448MOL0     C59029   9.165   4.917   7.007  0.1259 -0.7749  0.2569
  448MOL0     C59030   9.304   4.935   6.979  0.4093 -0.0875 -0.4385
  448MOL0     C59031   9.404   4.869   7.063  0.5528 -0.3946 -0.8543
  448MOL0     C59032   9.364   4.781   7.166  0.3851 -0.2395  1.1733
  448MOL0     C59033   9.459   4.716   7.252  0.8330  0.7704  0.3419
  448MOL0     O59034   9.567   4.784   7.263  0.2348 -0.1942 -0.0779
  448MOL0     C59035   9.674   4.720   7.323  0.7947  0.5510  0.8675
  448MOL0     C59036   9.783   4.672   7.249 -0.6894 -0.1785  0.9023
  448MOL0     C59037   9.894   4.605   7.307  0.5808 -0.0777  1.3664
  448MOL0     C59038   9.898   4.593   7.444  0.4621 -0.1514  1.0450
  448MOL0     O59039  10.010   4.531   7.500  0.1915  0.1224  0.8010
  448MOL0     C59040  10.020   4.522   7.643  0.3388 -0.1269  0.4370
  448MOL0     C59041  10.151   4.474   7.689  0.4963  0.2045  0.9564
  448MOL0     C59042  10.159   4.476   7.838 -0.1825 -0.0227 -0.4780
  448MOL0     C59043  10.303   4.452   7.894 -0.0233 -0.0735 -0.0778
  448MOL0     C59044  10.292   4.457   8.052  0.2071  1.1996  0.4974
  448MOL0     C59045  10.427   4.463   8.129  0.0987 -0.7292  0.4971
  448MOL0     C59046  10.530   4.352   8.085  0.0398  0.2479 -0.4085
  448MOL0     C59047  10.665   4.401   8.028  0.2730  0.6564 -0.1269
  448MOL0    Cl59048  10.734   4.532   8.134 -0.0714  0.2029 -0.1765
  448MOL0     C59049   9.787   4.631   7.514 -0.0804  0.6999  0.4947
  448MOL0     C59050   9.674   4.690   7.459 -0.0429  0.2297 -0.3539
  448MOL0     O59051   9.427   4.613   7.313  0.2349  0.1144 -0.0184
  448MOL0     C59052   9.225   4.773   7.188  0.0983  1.4288 -0.5782
  448MOL0     C59053   9.132   4.846   7.122 -0.7195 -0.5676 -0.4421
  448MOL0     N59054   8.982   4.943   6.518  0.8118 -0.1873 -0.5826
  448MOL0     N59055   9.051   4.836   6.504 -0.1039  0.1060 -0.5275
  448MOL0     C59056   9.737   4.064   7.177  0.2293 -0.5029  0.1396
  448MOL0     C59057   9.845   4.041   7.266 -0.8313  0.1338  0.8731
  448MOL0     C59058  10.223   4.082   7.504  0.6517 -0.7594 -0.0089
  448MOL0     C59059  10.286   4.004   7.602 -0.1471  0.5154 -0.1889
  448MOL0     C59060  10.414   4.035   7.652 -0.4640 -0.1866  0.0035
  448MOL0     C59061  10.495   4.138   7.599  1.2467  0.6188  0.2109
  448MOL0     O59062  10.626   4.170   7.623  0.9974 -0.3435 -0.4212
  448MOL0     C59063  10.700   4.066   7.691  0.2971  0.6516  0.0657
  448MOL0     C59064  10.667   4.066   7.837  0.0114 -0.7548  0.7904
  448MOL0     C59065  10.709   3.937   7.898  0.0089 -0.6057 -0.4064
  448MOL0     C59066  10.738   3.948   8.050 -0.3029  0.6739 -0.1000
  448MOL0     C59067  10.839   4.046   8.078  1.0571  0.5980  0.3732
  448MOL0     C59068  10.914   4.135   8.101 -0.9693 -0.1589 -0.4595
  448MOL0     C59069  10.431   4.213   7.498  0.1389 -0.2278  0.4057
  448MOL0     C59070  10.307   4.185   7.450  0.9078 -0.5051 -0.5130
  448MOL0     H59071  10.008   4.339   7.182 -3.5154  1.9419 -2.0618
  448MOL0     H59072   9.838   4.346   7.026  0.0086 -0.1958  0.7585
  448MOL0     H59073   9.644   4.323   6.858 -2.1502 -0.1741 -1.4200
  448MOL0     H59074   9.583   4.383   7.013  1.9363  1.0815 -0.4769
  448MOL0     H59075   9.380   4.376   6.912 -2.2447 -0.9072 -1.7397
  448MOL0     H59076   9.388   4.201   6.959 -0.0820 -0.6079 -1.1163
  448MOL0     H59077   9.468   4.154   6.730 -1.3607 -0.7337  0.7889
  448MOL0     H59078   9.464   4.333   6.693 -0.5066  1.0398  0.8366
  448MOL0     H59079   9.259   4.184   6.603 -0.4659  1.3060 -1.6264
  448MOL0     H59080   9.220   4.184   6.775 -2.3500 -0.0922 -1.2121
  448MOL0     H59081   9.199   4.406   6.797  4.0579  1.6969  0.2747
  448MOL0     H59082   9.100   4.364   6.662 -1.3979  2.5227  1.6460
  448MOL0     H59083   9.250   4.487   6.497  2.1914 -0.0643 -0.7870
  448MOL0     H59084   9.377   4.499   6.621 -0.1705 -0.6380 -0.5724
  448MOL0     H59085   9.223   4.651   6.768 -1.5981  0.3828 -0.3953
  448MOL0     H59086   9.257   4.692   6.610  1.6339 -1.0873  0.2581
  448MOL0     H59087   8.995   4.572   6.711 -1.7591  0.3394 -0.1268
  448MOL0     H59088   9.048   4.560   6.542 -1.6833 -4.4056  2.7162
  448MOL0     H59089   8.865   4.768   6.765  1.7554  0.1807  0.3437
  448MOL0     H59090   8.690   5.019   6.670 -1.0711  0.1506  1.9866
  448MOL0     H59091   8.804   5.117   6.577 -1.6034 -0.4155 -1.5108
  448MOL0     H59092   8.829   5.047   6.874  0.8737 -0.8077 -0.0450
  448MOL0     H59093   8.771   5.206   6.802  2.1868  0.1094  0.6791
  448MOL0     H59094   9.001   5.236   6.721  4.4622  3.0597  2.8942
  448MOL0     H59095   8.963   5.240   6.898 -1.9879 -3.1195  1.4530
  448MOL0     H59096   9.185   5.131   6.865 -0.3999 -1.0766  1.3356
  448MOL0     H59097   9.122   5.033   6.742  0.5959 -2.1817  1.4468
  448MOL0     H59098   9.354   4.995   6.904  0.4321 -1.0755 -1.2289
  448MOL0     H59099   9.509   4.892   7.048  0.5912 -1.5307 -2.6577
  448MOL0     H59100   9.786   4.696   7.144  1.3720  3.1398  1.5949
  448MOL0     H59101   9.978   4.582   7.242 -1.4001 -1.2714 -0.9268
  448MOL0     H59102   9.942   4.457   7.684  0.3737  0.0890  0.8598
  448MOL0     H59103   9.998   4.622   7.683 -2.9328 -0.1713 -0.9016
  448MOL0     H59104  10.226   4.546   7.654  0.3923  0.0579  0.4310
  448MOL0     H59105  10.170   4.384   7.630  1.3408  1.6334 -1.0624
  448MOL0     H59106  10.084   4.407   7.878  1.1083 -1.1720  0.0581
  448MOL0     H59107  10.123   4.572   7.876  2.1406  0.2323  1.2974
  448MOL0     H59108  10.351   4.354   7.881 -0.4130 -0.6876  2.4579
  448MOL0     H59109  10.379   4.525   7.865 -1.4399 -0.1721 -4.7863
  448MOL0     H59110  10.253   4.370   8.107 -2.4628  1.2076 -1.1874
  448MOL0     H59111  10.228   4.543   8.075 -2.9965 -0.5838 -0.9454
  448MOL0     H59112  10.401   4.468   8.235  0.7173 -1.9537  0.7302
  448MOL0     H59113  10.473   4.556   8.093  1.1045 -1.5494 -0.4277
  448MOL0     H59114  10.557   4.296   8.176  1.5269  1.6686  0.0851
  448MOL0     H59115  10.482   4.278   8.021 -2.1049 -0.2995  1.6901
  448MOL0     H59116  10.658   4.448   7.929 -0.6351 -0.3843 -0.5852
  448MOL0     H59117  10.728   4.314   8.005 -1.0386 -0.4678  0.3860
  448MOL0     H59118   9.784   4.619   7.622  0.0747  0.1018  0.4328
  448MOL0     H59119   9.602   4.716   7.536  0.3042  0.1334  0.0079
  448MOL0     H59120   9.184   4.716   7.271 -0.5238 -2.4292 -3.2781
  448MOL0     H59121   9.033   4.837   7.165 -0.0377 -1.4179  1.0160
  448MOL0     H59122   9.648   4.002   7.176 -0.3797  0.3611 -0.0922
  448MOL0     H59123   9.853   3.949   7.325  1.3750  0.0683  0.5429
  448MOL0     H59124  10.230   3.916   7.633  1.4043 -0.6746 -0.6548
  448MOL0     H59125  10.444   3.968   7.732  2.9222 -2.2086 -2.7089
  448MOL0     H59126  10.808   4.074   7.680  0.9623 -0.8770  3.8348
  448MOL0     H59127  10.683   3.965   7.651  0.4753 -1.5033  4.7635
  448MOL0     H59128  10.727   4.150   7.874 -1.3082  0.1986  0.8770
  448MOL0     H59129  10.561   4.087   7.853 -0.9756 -1.4085 -3.5667
  448MOL0     H59130  10.806   3.901   7.862  0.0188 -0.0823 -0.9148
  448MOL0     H59131  10.629   3.863   7.888 -0.4192 -0.3143  0.6673
  448MOL0     H59132  10.648   3.980   8.103 -0.0209 -1.5030  1.8970
  448MOL0     H59133  10.772   3.852   8.091  2.3913  1.8468  0.6524
  448MOL0     H59134  10.979   4.220   8.110  1.2964 -2.0560  3.0857
  448MOL0     H59135  10.488   4.287   7.443  1.0636 -0.9263  0.3997
  448MOL0     H59136  10.268   4.243   7.368 -3.7516 -4.9681 -1.9565
  449MOL0     O59137   5.239   4.025   7.432  0.0112 -0.8257 -0.3584
  449MOL0     C59138   5.265   4.056   7.548  0.4323  1.2714  0.3727
  449MOL0     O59139   5.201   4.143   7.621  0.6544 -0.6165  0.6004
  449MOL0     C59140   5.086   4.197   7.574 -0.1514 -0.8280 -0.1188
  449MOL0     C59141   5.093   4.306   7.487 -0.3733 -0.1462  0.1508
  449MOL0     C59142   4.979   4.364   7.428  0.1383  0.8413 -0.5657
  449MOL0     C59143   4.848   4.315   7.460 -0.7997  0.4883  0.3692
  449MOL0     O59144   4.745   4.374   7.397  0.3531 -0.9052  0.7038
  449MOL0     C59145   4.626   4.356   7.465 -0.4496  0.8050  0.0837
  449MOL0     C59146   4.519   4.435   7.397 -0.4162 -0.2774  0.0742
  449MOL0     C59147   4.377   4.401   7.445 -0.2428  0.2430 -0.3622
  449MOL0     C59148   4.267   4.459   7.363 -0.6891 -0.8696  0.3402
  449MOL0     C59149   4.141   4.469   7.436  0.0849  0.6586 -0.1619
  449MOL0     C59150   4.035   4.551   7.369  0.7833  0.5105  0.0456
  449MOL0     C59151   3.900   4.470   7.385  0.6712  0.1530 -0.1076
  449MOL0     C59152   3.896   4.334   7.324 -0.1028 -0.6481  0.7967
  449MOL0     N59153   3.751   4.312   7.295 -0.5427  0.2840 -0.0062
  449MOL0     C59154   3.669   4.229   7.372  0.3936  0.0465  0.3608
  449MOL0     C59155   3.550   4.221   7.303  0.2739 -0.3074 -0.0342
  449MOL0     C59156   3.434   4.145   7.347  0.6174  0.2239  1.0577
  449MOL0     C59157   3.304   4.225   7.365  0.2885  0.0279 -0.5470
  449MOL0     C59158   3.199   4.153   7.461  1.0636  0.7019 -0.8015
  449MOL0     C59159   3.150   4.024   7.400  0.2299 -0.0658 -0.3990
  449MOL0     O59160   3.046   3.973   7.473 -0.0673  0.7177  0.0023
  449MOL0     C59161   2.984   3.871   7.403 -0.0891  0.4275  0.5350
  449MOL0     C59162   2.866   3.904   7.332 -0.5698 -0.0005 -0.4948
  449MOL0     C59163   2.806   3.807   7.261  0.1102 -0.4409 -0.0298
  449MOL0     C59164   2.854   3.674   7.253  0.1637  0.3263 -0.3960
  449MOL0     C59165   2.785   3.574   7.177  0.1506 -0.6737 -0.0430
  449MOL0     O59166   2.669   3.610   7.110  0.2252 -0.1580 -0.9869
  449MOL0     C59167   2.579   3.515   7.091  0.3724  0.7977  0.9703
  449MOL0     C59168   2.539   3.407   7.176  0.7761  0.4185 -0.5731
  449MOL0     C59169   2.440   3.316   7.141 -0.6058  0.1320 -0.6702
  449MOL0     C59170   2.367   3.336   7.020 -0.0499 -0.1621  0.7711
  449MOL0     O59171   2.260   3.259   6.988  0.1578  0.5339 -0.4974
  449MOL0     C59172   2.146   3.324   6.929 -0.2279 -0.2412 -0.1536
  449MOL0     C59173   2.014   3.251   6.968  0.5539  0.4224 -0.1299
  449MOL0     C59174   1.991   3.260   7.122 -0.4008 -0.9568  0.5342
  449MOL0     C59175   1.871   3.167   7.172  0.2844 -0.2007 -0.2078
  449MOL0     C59176   1.822   3.213   7.311  0.1307 -0.7513 -0.2844
  449MOL0     C59177   1.932   3.193   7.429 -0.2693  0.1551 -1.0876
  449MOL0     C59178   1.873   3.236   7.571 -0.5655  0.3897  0.7678
  449MOL0     C59179   1.974   3.294   7.670  0.2808  0.6605  0.5829
  449MOL0    Cl59180   1.867   3.317   7.817 -0.0236 -0.3861  0.2551
  449MOL0     C59181   2.404   3.437   6.939 -0.5321 -0.9547 -0.5173
  449MOL0     C59182   2.513   3.531   6.967  0.1333 -0.3294 -0.8069
  449MOL0     O59183   2.827   3.459   7.179 -0.3025 -0.0432 -0.2865
  449MOL0     C59184   2.952   3.632   7.334 -0.2354 -0.0488 -0.4798
  449MOL0     C59185   3.014   3.728   7.412  1.2407 -0.6398  0.1720
  449MOL0     N59186   3.555   4.315   7.198  0.8130 -0.1388  0.8070
  449MOL0     N59187   3.675   4.358   7.189 -0.2560  0.1124 -0.1581
  449MOL0     C59188   4.848   4.193   7.531  0.5565  1.3302 -0.3421
  449MOL0     C59189   4.971   4.125   7.589  0.1086 -1.4977 -0.2333
  449MOL0     C59190   5.392   4.005   7.612  0.1435 -0.6127  0.5435
  449MOL0     C59191   5.496   3.937   7.535 -0.0960 -0.7966 -0.1409
  449MOL0     C59192   5.603   3.893   7.608 -0.9557  0.3397 -0.9047
  449MOL0     C59193   5.620   3.913   7.741 -1.2068  1.0015 -0.0631
  449MOL0     O59194   5.728   3.862   7.804 -0.9697 -0.4021 -0.4398
  449MOL0     C59195   5.732   3.845   7.947 -0.0255  0.8695 -0.6370
  449MOL0     C59196   5.805   3.722   7.987 -0.0445  0.8975  1.1184
  449MOL0     C59197   5.800   3.720   8.137  0.7143 -0.0442  0.6958
  449MOL0     C59198   5.933   3.787   8.181  0.5019 -0.4217  0.1906
  449MOL0     C59199   6.041   3.696   8.219  0.5868  0.5099  0.5680
  449MOL0     C59200   6.124   3.612   8.248  0.3584  0.2828  0.2795
  449MOL0     C59201   5.521   3.978   7.814  0.3867 -1.0560  0.1652
  449MOL0     C59202   5.408   4.019   7.748 -0.0773 -0.3748  0.4821
  449MOL0     H59203   5.193   4.335   7.456  0.9501 -4.5475 -0.3761
  449MOL0     H59204   4.999   4.447   7.360  1.0628 -1.0638 -2.7673
  449MOL0     H59205   4.637   4.388   7.569  2.1722  0.9002 -0.1694
  449MOL0     H59206   4.587   4.253   7.465  1.2040  0.1482 -0.7276
  449MOL0     H59207   4.519   4.419   7.289  3.3332 -0.8412  0.0148
  449MOL0     H59208   4.540   4.540   7.421  3.3304 -0.6725 -0.7410
  449MOL0     H59209   4.364   4.450   7.542  0.4360 -0.2472 -0.0116
  449MOL0     H59210   4.366   4.293   7.436 -0.1243  0.1466  0.5905
  449MOL0     H59211   4.303   4.554   7.322 -0.7700 -0.6848  0.6910
  449MOL0     H59212   4.256   4.396   7.274  1.1565 -1.0561  0.2186
  449MOL0     H59213   4.161   4.528   7.526  1.6390 -1.2802  0.8385
  449MOL0     H59214   4.108   4.368   7.459 -0.8751  1.3615  1.7698
  449MOL0     H59215   4.059   4.564   7.263  0.7303  2.6193  0.2476
  449MOL0     H59216   4.019   4.654   7.403  0.1194  0.5446 -0.3448
  449MOL0     H59217   3.880   4.469   7.492 -1.6354 -0.3375 -0.4978
  449MOL0     H59218   3.821   4.535   7.347 -0.6346 -1.3877 -0.1421
  449MOL0     H59219   3.941   4.264   7.396 -2.5360 -2.7383  0.4494
  449MOL0     H59220   3.947   4.336   7.228  0.1600 -0.6796  0.9360
  449MOL0     H59221   3.719   4.172   7.449  1.9114  1.6813  0.6268
  449MOL0     H59222   3.458   4.112   7.449 -1.3346  1.3611  1.9499
  449MOL0     H59223   3.435   4.061   7.277  0.5112  0.9300  0.1936
  449MOL0     H59224   3.269   4.247   7.264 -0.4336  0.6579 -0.1728
  449MOL0     H59225   3.342   4.312   7.420  2.0988 -2.3618  2.2743
  449MOL0     H59226   3.238   4.124   7.559  0.4645  0.5406 -0.6066
  449MOL0     H59227   3.111   4.216   7.475 -0.0757 -1.4287  2.7349
  449MOL0     H59228   3.230   3.950   7.401  0.0964 -0.2048  0.2210
  449MOL0     H59229   3.110   4.055   7.303 -2.2785  2.5739  1.3287
  449MOL0     H59230   2.826   4.005   7.321 -0.5649  0.0442 -0.1006
  449MOL0     H59231   2.719   3.835   7.204  1.3783 -0.4522 -2.0774
  449MOL0     H59232   2.593   3.394   7.269  0.6150  0.3218 -0.4935
  449MOL0     H59233   2.400   3.240   7.208 -1.8780  0.9745 -0.4450
  449MOL0     H59234   2.162   3.309   6.822 -3.1394  0.7866 -0.8110
  449MOL0     H59235   2.135   3.431   6.950 -0.8477 -0.1826 -0.7541
  449MOL0     H59236   2.021   3.147   6.934 -1.9766  0.7983 -2.1530
  449MOL0     H59237   1.932   3.281   6.900 -0.1581  2.1695  1.4027
  449MOL0     H59238   1.963   3.361   7.154 -1.1283 -1.0381  0.1754
  449MOL0     H59239   2.086   3.257   7.176  0.6080  0.2694 -1.0893
  449MOL0     H59240   1.786   3.189   7.106  0.0260  2.0618  0.7649
  449MOL0     H59241   1.892   3.060   7.167 -0.0620 -0.2289 -1.6923
  449MOL0     H59242   1.727   3.166   7.338  0.6663 -0.8168  1.6087
  449MOL0     H59243   1.791   3.318   7.302 -0.9229 -1.0976 -0.9497
  449MOL0     H59244   2.028   3.240   7.410 -0.2278  0.5143 -0.0049
  449MOL0     H59245   1.948   3.084   7.433  0.2514  0.2748  0.6943
  449MOL0     H59246   1.795   3.309   7.547 -0.1135  1.1402  1.5455
  449MOL0     H59247   1.812   3.154   7.611  0.3689 -0.9605 -0.4812
  449MOL0     H59248   2.018   3.387   7.633  2.9536 -0.9013 -0.4445
  449MOL0     H59249   2.044   3.213   7.691 -0.4571 -0.5512 -1.3205
  449MOL0     H59250   2.363   3.454   6.839  1.4417  0.2025 -1.1911
  449MOL0     H59251   2.540   3.613   6.901 -1.7530 -0.0061 -1.2325
  449MOL0     H59252   2.993   3.532   7.348 -1.3021 -0.0331  4.9723
  449MOL0     H59253   3.094   3.690   7.474  0.0533 -1.0387  1.5053
  449MOL0     H59254   4.753   4.140   7.533  0.9365  0.6217 -0.6671
  449MOL0     H59255   4.963   4.035   7.649 -1.5047 -1.1556  0.1087
  449MOL0     H59256   5.485   3.920   7.428  4.5708 -0.3690 -0.8822
  449MOL0     H59257   5.692   3.856   7.557  0.8745  1.9069  0.9664
  449MOL0     H59258   5.630   3.830   7.983  0.6110 -1.8089  0.3023
  449MOL0     H59259   5.784   3.932   7.987  3.3277 -1.8147  1.4809
  449MOL0     H59260   5.760   3.636   7.937 -1.7153  1.1253  2.1367
  449MOL0     H59261   5.905   3.736   7.945  0.5278 -3.9743  0.2869
  449MOL0     H59262   5.786   3.624   8.188 -1.7615 -1.3923 -2.1952
  449MOL0     H59263   5.714   3.779   8.169 -2.3933 -2.5633 -2.2593
  449MOL0     H59264   5.981   3.847   8.104  0.4792  0.2983  0.7179
  449MOL0     H59265   5.904   3.847   8.268  1.6622 -0.5756  0.7051
  449MOL0     H59266   6.194   3.533   8.268  1.1195  0.7306 -0.5435
  449MOL0     H59267   5.525   4.003   7.919  1.7211  0.8790 -0.2883
  449MOL0     H59268   5.328   4.051   7.813 -0.4492 -1.2864  0.4985
  450MOL0     O59269   6.759   2.160   6.444  0.6543  0.7378  0.3711
  450MOL0     C59270   6.742   2.266   6.390  0.0398 -1.0001  0.1510
  450MOL0     O59271   6.627   2.318   6.329  0.1325  0.1646 -0.0661
  450MOL0     C59272   6.511   2.240   6.341 -0.0836  0.3790  0.6165
  450MOL0     C59273   6.406   2.286   6.426  0.7713  0.4220  0.4872
  450MOL0     C59274   6.280   2.215   6.436  0.5456 -0.1295  0.5999
  450MOL0     C59275   6.272   2.096   6.356  0.4106 -0.0939 -0.1141
  450MOL0     O59276   6.162   2.018   6.395  0.8935 -0.5133 -0.3769
  450MOL0     C59277   6.124   1.902   6.328  0.1425 -0.1111  0.9000
  450MOL0     C59278   6.003   1.834   6.370 -0.1194  0.5998  0.6455
  450MOL0     C59279   6.017   1.733   6.483  0.0218  0.2857 -0.4933
  450MOL0     C59280   5.876   1.698   6.545 -0.6485 -0.6539 -1.2496
  450MOL0     C59281   5.865   1.604   6.662 -0.0446  0.2781  0.2773
  450MOL0     C59282   5.898   1.459   6.629  0.1221  0.4051  0.2687
  450MOL0     C59283   5.793   1.398   6.538 -0.7329 -0.1885  0.9400
  450MOL0     C59284   5.807   1.248   6.543 -0.2886 -0.1984 -0.5540
  450MOL0     N59285   5.714   1.188   6.449 -0.3300 -0.6257 -0.6602
  450MOL0     C59286   5.720   1.162   6.319  0.4078  0.1716 -0.0486
  450MOL0     C59287   5.597   1.112   6.284 -0.4630 -0.6332 -0.7128
  450MOL0     C59288   5.587   1.057   6.147 -0.1463  0.5144 -0.3467
  450MOL0     C59289   5.453   1.118   6.089 -0.2496 -0.1185  0.7337
  450MOL0     C59290   5.461   1.104   5.938  0.5642  1.1316  0.0012
  450MOL0     C59291   5.326   1.104   5.880  0.1275 -0.3419  0.0352
  450MOL0     O59292   5.252   1.226   5.894 -0.1224 -0.2316  0.5557
  450MOL0     C59293   5.119   1.212   5.891  0.1755  0.3169 -0.8049
  450MOL0     C59294   5.050   1.316   5.946  0.1517 -0.8645 -0.3224
  450MOL0     C59295   4.908   1.326   5.932 -0.2936 -0.5381  0.6113
  450MOL0     C59296   4.840   1.224   5.864  1.2668  0.0652 -0.0566
  450MOL0     C59297   4.697   1.223   5.868  0.4246  0.1401 -0.7831
  450MOL0     O59298   4.627   1.345   5.856  0.2090  0.5628 -0.1254
  450MOL0     C59299   4.489   1.351   5.858 -1.5473  0.2012 -0.6212
  450MOL0     C59300   4.393   1.259   5.811 -0.1239 -0.6671 -0.5780
  450MOL0     C59301   4.253   1.269   5.830 -0.2607 -0.6246  0.4844
  450MOL0     C59302   4.207   1.370   5.904  0.1413 -0.0128  0.0011
  450MOL0     O59303   4.071   1.378   5.947 -0.2467  0.2406  0.0168
  450MOL0     C59304   4.035   1.399   6.088  0.0430  0.3031 -0.8343
  450MOL0     C59305   3.947   1.280   6.137 -0.2224 -0.2700 -0.3196
  450MOL0     C59306   3.873   1.314   6.270  0.1482 -0.0797  0.0412
  450MOL0     C59307   3.767   1.205   6.319 -0.0762  0.0326 -0.3146
  450MOL0     C59308   3.688   1.259   6.429 -0.4063  0.2690 -0.4816
  450MOL0     C59309   3.593   1.150   6.472 -0.2689 -0.1538 -0.2050
  450MOL0     C59310   3.536   1.184   6.606  1.3680  0.1188  0.0016
  450MOL0     C59311   3.419   1.096   6.647  0.7981  1.1080 -1.0894
  450MOL0    Cl59312   3.267   1.131   6.572  0.4013  0.0444  0.3487
  450MOL0     C59313   4.296   1.473   5.955  0.0058  0.1234  1.3402
  450MOL0     C59314   4.431   1.462   5.935 -0.0533 -0.5503  0.4159
  450MOL0     O59315   4.635   1.108   5.872  0.1832  0.6577  0.6522
  450MOL0     C59316   4.912   1.123   5.805  0.5001  0.3023  0.3825
  450MOL0     C59317   5.049   1.113   5.815 -0.2640 -0.4673 -0.5237
  450MOL0     N59318   5.521   1.107   6.397  0.3044 -0.2259  0.2717
  450MOL0     N59319   5.588   1.171   6.485 -0.1072  0.4925  0.1440
  450MOL0     C59320   6.374   2.056   6.272 -0.8812  0.0777  0.2769
  450MOL0     C59321   6.498   2.121   6.271 -0.1984 -0.5279  0.1113
  450MOL0     C59322   6.868   2.349   6.401  0.0762 -0.0212 -0.2663
  450MOL0     C59323   6.858   2.487   6.386  0.5060 -1.2427 -0.1957
  450MOL0     C59324   6.977   2.566   6.394 -0.9918  0.1347 -0.5147
  450MOL0     C59325   7.100   2.513   6.432  0.3645 -0.3203 -0.1019
  450MOL0     O59326   7.216   2.593   6.437 -0.2849 -0.3519  0.0296
  450MOL0     C59327   7.199   2.701   6.530  1.0781 -0.7056 -0.0549
  450MOL0     C59328   7.254   2.662   6.670  0.0213  0.2538 -0.0720
  450MOL0     C59329   7.400   2.623   6.672  0.1585  0.4452 -0.5527
  450MOL0     C59330   7.498   2.735   6.661  1.0500 -0.4081 -0.3680
  450MOL0     C59331   7.612   2.684   6.590 -0.5141 -0.2413 -0.0808
  450MOL0     C59332   7.708   2.620   6.537  0.2205  0.1036 -0.4294
  450MOL0     C59333   7.105   2.375   6.431  0.0072  0.4771 -0.1723
  450MOL0     C59334   6.996   2.288   6.416  0.0929  1.0939 -0.1724
  450MOL0     H59335   6.426   2.377   6.482  0.9179  0.6168  0.1291
  450MOL0     H59336   6.215   2.242   6.518 -1.8553 -5.4067  0.8592
  450MOL0     H59337   6.206   1.831   6.346 -1.1856 -1.7277  0.7964
  450MOL0     H59338   6.113   1.917   6.220 -0.9255 -0.8622  0.8888
  450MOL0     H59339   5.957   1.787   6.283 -0.5627  3.3400 -0.6970
  450MOL0     H59340   5.935   1.915   6.395 -1.6117 -0.4209  0.0322
  450MOL0     H59341   6.075   1.771   6.568 -0.7319  1.7796 -0.6041
  450MOL0     H59342   6.058   1.637   6.452 -1.5139 -2.0931  3.9131
  450MOL0     H59343   5.832   1.787   6.592 -0.4727 -1.2077 -0.0002
  450MOL0     H59344   5.807   1.669   6.465 -0.7462  0.8944 -1.7496
  450MOL0     H59345   5.762   1.608   6.699 -0.3305 -5.5410  0.9245
  450MOL0     H59346   5.930   1.639   6.743  2.2546 -0.4190 -1.1905
  450MOL0     H59347   5.886   1.410   6.726 -0.0335  1.4115  0.7773
  450MOL0     H59348   5.997   1.442   6.587  0.7290  2.3484  0.8116
  450MOL0     H59349   5.696   1.442   6.561 -0.4589 -0.2762  2.3487
  450MOL0     H59350   5.804   1.426   6.433  1.6827 -2.6335  0.4176
  450MOL0     H59351   5.774   1.212   6.640  1.0323 -0.4571 -0.1813
  450MOL0     H59352   5.914   1.226   6.530  0.1471  1.1180  0.5862
  450MOL0     H59353   5.805   1.187   6.255  1.3513 -0.3444  0.9727
  450MOL0     H59354   5.577   0.948   6.138 -1.0708  0.6582 -1.2386
  450MOL0     H59355   5.668   1.089   6.080  0.5612 -1.0168 -0.2811
  450MOL0     H59356   5.449   1.226   6.108  1.3714 -0.1551  1.5188
  450MOL0     H59357   5.369   1.061   6.128  0.5407 -0.6327  1.7161
  450MOL0     H59358   5.505   1.183   5.875  0.3673  0.6685 -0.7215
  450MOL0     H59359   5.521   1.015   5.917 -0.5165  1.0408 -3.2253
  450MOL0     H59360   5.262   1.018   5.903 -2.1523  1.0103 -0.8517
  450MOL0     H59361   5.336   1.088   5.772 -1.9725 -0.1540 -0.2352
  450MOL0     H59362   5.093   1.398   6.002 -2.4184  1.1995 -1.1520
  450MOL0     H59363   4.857   1.406   5.983  2.8886  0.9470  1.7242
  450MOL0     H59364   4.428   1.172   5.755  0.6665 -1.3156  0.8767
  450MOL0     H59365   4.179   1.191   5.814 -1.5049 -0.1967  3.3997
  450MOL0     H59366   3.976   1.490   6.100 -1.4295 -0.2253 -3.3374
  450MOL0     H59367   4.124   1.424   6.147 -1.7343  1.4197  1.5563
  450MOL0     H59368   4.027   1.208   6.154 -0.9219 -0.7720  1.1111
  450MOL0     H59369   3.875   1.252   6.059 -1.4194  2.8472 -0.4796
  450MOL0     H59370   3.806   1.401   6.265 -0.6480 -0.6457  0.7337
  450MOL0     H59371   3.948   1.317   6.350  0.8367 -5.3585 -0.0953
  450MOL0     H59372   3.692   1.185   6.242 -0.8761 -0.7305  0.6563
  450MOL0     H59373   3.828   1.122   6.355 -0.5379 -0.4324 -0.5989
  450MOL0     H59374   3.633   1.343   6.386  2.0867  1.7066 -1.0265
  450MOL0     H59375   3.754   1.294   6.509 -0.2020  1.7120 -1.2441
  450MOL0     H59376   3.661   1.065   6.488 -1.9340 -1.1641  2.1007
  450MOL0     H59377   3.524   1.113   6.395  0.6043  0.4960 -1.3307
  450MOL0     H59378   3.615   1.190   6.682  0.4439 -0.8080  1.0624
  450MOL0     H59379   3.493   1.284   6.600  2.9393  0.7638 -1.7234
  450MOL0     H59380   3.393   1.104   6.753  1.7953 -1.0328 -0.6254
  450MOL0     H59381   3.439   0.990   6.630  3.7222  0.9707  2.0523
  450MOL0     H59382   4.260   1.560   6.009  1.5951  1.7073 -0.0212
  450MOL0     H59383   4.492   1.544   5.969 -1.8839  0.3105  1.7572
  450MOL0     H59384   4.870   1.036   5.755  1.1685 -0.3913  1.0124
  450MOL0     H59385   5.101   1.036   5.759  2.0263  0.1626  0.6308
  450MOL0     H59386   6.357   1.965   6.216 -0.3381  1.7614 -2.8176
  450MOL0     H59387   6.572   2.093   6.196  1.3367  1.9973  0.5777
  450MOL0     H59388   6.766   2.534   6.352 -0.9672 -2.5219  1.7883
  450MOL0     H59389   6.963   2.671   6.375  1.9455  0.3292 -2.2910
  450MOL0     H59390   7.093   2.727   6.543  0.9486 -1.1694 -0.1507
  450MOL0     H59391   7.251   2.789   6.490 -1.7875  0.4068 -1.6628
  450MOL0     H59392   7.235   2.748   6.735 -0.7506 -1.4006  1.9967
  450MOL0     H59393   7.195   2.574   6.695  0.3920  0.0805  0.1954
  450MOL0     H59394   7.408   2.561   6.582 -0.5284 -0.6000  0.0853
  450MOL0     H59395   7.419   2.556   6.756 -2.5897 -0.7299 -0.7778
  450MOL0     H59396   7.455   2.814   6.599  1.5039 -1.3772 -1.9843
  450MOL0     H59397   7.527   2.781   6.756 -0.8871  1.7919 -0.7484
  450MOL0     H59398   7.789   2.573   6.485  3.4854  3.3601  1.2543
  450MOL0     H59399   7.201   2.326   6.442 -0.7111 -0.7587  0.8096
  450MOL0     H59400   7.001   2.180   6.421 -1.8071  0.9491 -0.5972
  451MOL0     O59401   0.589   9.203   2.045  0.6120 -0.8258 -0.0624
  451MOL0     C59402   0.676   9.288   2.009  0.1284  1.2610 -0.2102
  451MOL0     O59403   0.649   9.409   1.942  0.1937  0.1251 -0.4134
  451MOL0     C59404   0.511   9.425   1.921  0.0393 -0.1396  0.3162
  451MOL0     C59405   0.456   9.395   1.792  0.4129  0.0038  0.6209
  451MOL0     C59406   0.321   9.398   1.770 -0.2054 -0.3961  0.1185
  451MOL0     C59407   0.232   9.439   1.875 -0.2297  0.2087  0.3154
  451MOL0     O59408   0.101   9.462   1.829  0.0523 -0.4122 -0.0370
  451MOL0     C59409   0.005   9.447   1.926 -0.1017 -0.1702 -0.8590
  451MOL0     C59410  -0.134   9.444   1.865 -0.4166  0.5867  0.1918
  451MOL0     C59411  -0.235   9.433   1.978 -0.2545 -0.1451  0.1220
  451MOL0     C59412  -0.248   9.294   2.037 -1.1521  0.3831 -0.1535
  451MOL0     C59413  -0.368   9.276   2.125 -0.5661  0.5524  0.5321
  451MOL0     C59414  -0.353   9.136   2.198  0.1001 -0.4775 -0.4463
  451MOL0     C59415  -0.489   9.105   2.269 -0.8843 -0.1551  0.3789
  451MOL0     C59416  -0.519   9.189   2.405 -0.7489  0.3086 -0.0293
  451MOL0     N59417  -0.630   9.131   2.468 -0.6609  1.0783  0.1111
  451MOL0     C59418  -0.762   9.177   2.468 -0.5274 -1.1268  0.3512
  451MOL0     C59419  -0.827   9.097   2.551 -0.8189 -0.1193 -1.0330
  451MOL0     C59420  -0.977   9.076   2.548  0.7901  1.0831  0.2342
  451MOL0     C59421  -1.044   9.175   2.636  0.7354 -0.4003 -0.3388
  451MOL0     C59422  -1.196   9.164   2.628  0.5638 -0.8964 -0.3265
  451MOL0     C59423  -1.268   9.277   2.709  0.0950  0.7563  0.0597
  451MOL0     O59424  -1.413   9.280   2.685 -0.2525 -0.1422  0.6718
  451MOL0     C59425  -1.497   9.239   2.782 -1.0252 -0.0653  0.7349
  451MOL0     C59426  -1.613   9.198   2.732  0.9413  0.9696 -0.0010
  451MOL0     C59427  -1.720   9.169   2.821  0.2052 -0.2056  0.1922
  451MOL0     C59428  -1.702   9.175   2.962 -0.5531 -0.6162 -0.9020
  451MOL0     C59429  -1.814   9.159   3.063 -0.2020 -1.1611 -0.6478
  451MOL0     O59430  -1.788   9.181   3.191  0.3080  0.0716 -0.8165
  451MOL0     C59431  -1.897   9.203   3.271  0.6217  0.2455  0.4292
  451MOL0     C59432  -1.903   9.127   3.386 -0.0921  0.3156  0.7708
  451MOL0     C59433  -2.011   9.131   3.465  0.4202  0.3899 -0.1104
  451MOL0     C59434  -2.116   9.220   3.446  0.0690 -0.6831  0.3688
  451MOL0     O59435  -2.218   9.237   3.531  0.7057  0.0913  0.0644
  451MOL0     C59436  -2.250   9.146   3.634  0.5127 -1.1682  0.4766
  451MOL0     C59437  -2.177   9.181   3.761  0.1520  1.2677  0.2870
  451MOL0     C59438  -2.221   9.099   3.893  0.0361  0.4816  0.5291
  451MOL0     C59439  -2.213   9.188   4.018 -0.6636 -0.5679  0.5337
  451MOL0     C59440  -2.259   9.118   4.149  0.2470  0.2797 -0.1048
  451MOL0     C59441  -2.259   9.198   4.272  0.2290 -0.1099 -0.3384
  451MOL0     C59442  -2.386   9.290   4.288 -0.1631 -0.1652 -0.1472
  451MOL0     C59443  -2.395   9.354   4.422 -0.2473  0.0105 -0.3062
  451MOL0    Cl59444  -2.354   9.252   4.561 -0.2878 -0.0220  0.0729
  451MOL0     C59445  -2.106   9.315   3.342 -0.0186  0.2631 -0.2955
  451MOL0     C59446  -2.000   9.304   3.249  0.3602  0.0959 -0.8070
  451MOL0     O59447  -1.925   9.143   3.014 -0.1495  0.0703  0.0227
  451MOL0     C59448  -1.571   9.205   3.008 -0.2810  0.4943 -0.0841
  451MOL0     C59449  -1.473   9.246   2.917 -0.1466 -0.1020 -0.5805
  451MOL0     N59450  -0.739   9.004   2.602 -0.2022  0.5253  0.8281
  451MOL0     N59451  -0.620   9.039   2.566  1.0581  0.3710  0.6733
  451MOL0     C59452   0.287   9.470   2.000 -0.3023 -0.1077 -0.4322
  451MOL0     C59453   0.426   9.463   2.019 -0.6601 -0.3514 -0.4569
  451MOL0     C59454   0.816   9.255   2.039  0.0225  0.3596 -0.1474
  451MOL0     C59455   0.900   9.363   2.047 -0.0748 -0.5271  0.3608
  451MOL0     C59456   1.037   9.339   2.071 -0.4143 -0.3504  0.5679
  451MOL0     C59457   1.097   9.210   2.086  0.4249 -0.3892 -0.8346
  451MOL0     O59458   1.231   9.203   2.104  0.4366  0.0574 -0.5274
  451MOL0     C59459   1.312   9.134   2.003  0.1508  1.3100  0.3981
  451MOL0     C59460   1.444   9.177   1.986  0.1902 -0.2393 -0.5108
  451MOL0     C59461   1.501   9.152   1.855 -0.2189  0.6488  0.3934
  451MOL0     C59462   1.457   9.243   1.740  0.0568  0.2052 -0.7131
  451MOL0     C59463   1.515   9.206   1.617 -1.0354  0.1337  0.1599
  451MOL0     C59464   1.555   9.191   1.507  0.5205  0.1633  0.3190
  451MOL0     C59465   1.001   9.102   2.084 -0.7054  0.0607 -0.1178
  451MOL0     C59466   0.858   9.121   2.059 -0.8062  0.6761 -0.2349
  451MOL0     H59467   0.514   9.362   1.706 -1.4951  2.9188 -2.0284
  451MOL0     H59468   0.281   9.365   1.675  3.2914 -2.9263 -0.6661
  451MOL0     H59469   0.018   9.534   1.991 -4.1214 -1.2286  1.7321
  451MOL0     H59470   0.009   9.351   1.979  0.0353  0.5663  0.5011
  451MOL0     H59471  -0.143   9.366   1.789 -1.1504 -0.1856  1.0300
  451MOL0     H59472  -0.137   9.534   1.802  1.8559  0.0842 -0.7284
  451MOL0     H59473  -0.329   9.450   1.926 -1.3723 -1.0579  1.7521
  451MOL0     H59474  -0.223   9.514   2.051 -2.2172  0.1053  0.2250
  451MOL0     H59475  -0.254   9.217   1.960 -1.2482  0.4920 -0.2546
  451MOL0     H59476  -0.162   9.261   2.096 -0.1119 -4.0280 -3.5714
  451MOL0     H59477  -0.462   9.289   2.070 -1.1889  1.0794  1.6801
  451MOL0     H59478  -0.360   9.350   2.205  0.4420  0.5688  0.4246
  451MOL0     H59479  -0.271   9.132   2.270  0.1561  0.5537 -0.4277
  451MOL0     H59480  -0.326   9.060   2.125 -2.0873 -1.0127 -0.7556
  451MOL0     H59481  -0.572   9.126   2.201  0.8472 -2.0747 -2.5102
  451MOL0     H59482  -0.485   8.999   2.295 -0.9354 -0.1166  0.5451
  451MOL0     H59483  -0.536   9.294   2.379 -0.5646  0.3270 -0.0793
  451MOL0     H59484  -0.431   9.175   2.469 -0.7200 -0.2841 -0.2010
  451MOL0     H59485  -0.790   9.259   2.402  0.5818  0.2164  1.4787
  451MOL0     H59486  -0.997   8.977   2.589 -0.3314  2.4748  3.3154
  451MOL0     H59487  -1.012   9.082   2.444 -2.7948 -1.1725  1.1456
  451MOL0     H59488  -1.024   9.273   2.592  0.3078 -0.6061 -1.0122
  451MOL0     H59489  -1.011   9.166   2.740 -3.8760  4.2700  2.0097
  451MOL0     H59490  -1.219   9.165   2.521 -0.0095  0.7002 -0.2131
  451MOL0     H59491  -1.226   9.069   2.674  0.0401 -2.0746 -2.9420
  451MOL0     H59492  -1.230   9.375   2.680  0.0662  0.4950 -0.9079
  451MOL0     H59493  -1.236   9.264   2.813  0.7900  2.1138  0.0289
  451MOL0     H59494  -1.627   9.196   2.624  1.0595 -0.9687 -0.0162
  451MOL0     H59495  -1.815   9.160   2.768  1.7203 -4.4212 -2.2578
  451MOL0     H59496  -1.830   9.047   3.401 -0.9066 -0.3920  1.0483
  451MOL0     H59497  -2.013   9.059   3.546  1.5935  1.5699  1.0328
  451MOL0     H59498  -2.229   9.048   3.591  0.3615 -0.4323 -1.3425
  451MOL0     H59499  -2.357   9.137   3.657  0.4292 -1.9716 -0.1779
  451MOL0     H59500  -2.183   9.289   3.779 -0.0735  1.7371 -2.2306
  451MOL0     H59501  -2.072   9.162   3.736 -0.7571 -3.1043 -1.0347
  451MOL0     H59502  -2.152   9.015   3.907  2.4414  2.7057  3.3658
  451MOL0     H59503  -2.324   9.063   3.883  0.5745 -0.7212 -1.1325
  451MOL0     H59504  -2.107   9.217   4.024 -0.3987 -1.6480  1.6735
  451MOL0     H59505  -2.270   9.279   4.002  0.6348  0.2212  0.2696
  451MOL0     H59506  -2.182   9.047   4.179  0.4039  1.4415  2.5699
  451MOL0     H59507  -2.355   9.068   4.131  0.4796 -0.0318 -0.4905
  451MOL0     H59508  -2.180   9.272   4.263 -0.7974  1.2527  1.2278
  451MOL0     H59509  -2.238   9.140   4.362 -1.2261 -1.1978 -0.6643
  451MOL0     H59510  -2.394   9.356   4.201  4.9124  0.1507 -0.6298
  451MOL0     H59511  -2.470   9.220   4.281 -1.3667  1.1119  0.6945
  451MOL0     H59512  -2.499   9.385   4.437 -0.9828 -1.7769 -1.4121
  451MOL0     H59513  -2.329   9.441   4.424  0.4786 -0.5474  0.2164
  451MOL0     H59514  -2.173   9.400   3.339  0.3095  0.5104 -0.6406
  451MOL0     H59515  -1.985   9.371   3.165 -0.6202  2.2829  0.6431
  451MOL0     H59516  -1.563   9.215   3.116  0.5547 -0.3066 -0.0579
  451MOL0     H59517  -1.375   9.282   2.948 -0.7009  1.9302 -1.0649
  451MOL0     H59518   0.220   9.499   2.080  0.7567  0.2853  0.3346
  451MOL0     H59519   0.480   9.486   2.110 -0.9183  0.4901 -0.5007
  451MOL0     H59520   0.860   9.463   2.032  2.7096  0.4536 -1.3658
  451MOL0     H59521   1.102   9.426   2.073 -0.1576 -0.4165 -1.6980
  451MOL0     H59522   1.256   9.135   1.909  1.3551 -1.0545 -0.4032
  451MOL0     H59523   1.321   9.027   2.025  0.9890  1.5626  1.3716
  451MOL0     H59524   1.457   9.284   2.004  2.5283 -0.1516 -2.2044
  451MOL0     H59525   1.509   9.127   2.059 -0.2738 -1.1626 -0.7115
  451MOL0     H59526   1.494   9.049   1.820  2.9476  0.0265  1.1919
  451MOL0     H59527   1.607   9.159   1.881  0.9601  0.2756 -3.6044
  451MOL0     H59528   1.348   9.233   1.736  0.0298 -1.9949  2.2841
  451MOL0     H59529   1.480   9.349   1.757 -2.6271  1.2058 -2.6008
  451MOL0     H59530   1.589   9.172   1.407 -0.4877  1.0862 -0.2155
  451MOL0     H59531   1.042   9.002   2.087 -2.5425 -0.7248  0.5226
  451MOL0     H59532   0.800   9.031   2.045 -0.0966  0.1677 -0.0126
  452MOL0     O59533   6.861   0.977   9.078  0.5371 -0.0411 -0.3489
  452MOL0     C59534   6.918   0.863   9.067 -0.3529 -0.7834 -0.3626
  452MOL0     O59535   7.029   0.831   9.139 -0.8296  0.3296 -0.3931
  452MOL0     C59536   7.058   0.904   9.257  0.3834 -0.3637  0.1187
  452MOL0     C59537   6.964   0.964   9.344  0.1223  0.6939 -0.1108
  452MOL0     C59538   7.005   1.036   9.455  0.1630  0.1616  0.6291
  452MOL0     C59539   7.135   1.058   9.478 -0.2515 -0.2158 -0.2810
  452MOL0     O59540   7.171   1.140   9.582 -0.2279  0.4995 -0.3126
  452MOL0     C59541   7.303   1.130   9.641  0.7325  0.1065  0.0141
  452MOL0     C59542   7.316   1.236   9.755  1.4562 -0.6685 -0.2780
  452MOL0     C59543   7.234   1.178   9.879  0.1981 -0.2670  0.1909
  452MOL0     C59544   7.261   1.274   9.999  0.1328  0.0961 -0.3893
  452MOL0     C59545   7.191   1.223  10.129 -0.5933 -0.1082  0.4936
  452MOL0     C59546   7.044   1.221  10.107  0.2666 -0.0535  0.6495
  452MOL0     C59547   6.960   1.172  10.225  0.6459  0.4700 -0.2624
  452MOL0     C59548   6.813   1.170  10.194  1.2957 -0.1498 -0.4237
  452MOL0     N59549   6.767   1.063  10.095 -0.0503  0.0179 -0.1377
  452MOL0     C59550   6.778   1.079   9.959  0.9205 -0.9395 -1.2681
  452MOL0     C59551   6.765   0.958   9.911  0.3346 -0.0446  0.8615
  452MOL0     C59552   6.783   0.918   9.767 -0.3239  0.5736 -0.2811
  452MOL0     C59553   6.654   0.898   9.703 -0.0665 -0.0333 -0.2535
  452MOL0     C59554   6.673   0.897   9.554 -0.1719  0.1773 -0.3199
  452MOL0     C59555   6.546   0.857   9.486  0.2308 -0.4197  0.8409
  452MOL0     O59556   6.568   0.843   9.346 -0.1969  0.3783 -0.2673
  452MOL0     C59557   6.513   0.742   9.275  1.5543  0.4465 -0.6756
  452MOL0     C59558   6.573   0.681   9.167  0.1696  0.2205  0.5230
  452MOL0     C59559   6.505   0.602   9.080  0.4077  0.3172 -0.6848
  452MOL0     C59560   6.367   0.560   9.108 -0.9898  0.1808  0.2955
  452MOL0     C59561   6.293   0.468   9.019 -0.4842  0.4814 -0.6718
  452MOL0     O59562   6.155   0.464   9.031  0.8765 -0.7873 -0.4921
  452MOL0     C59563   6.089   0.364   8.969  0.5457 -0.5547 -0.0306
  452MOL0     C59564   6.128   0.232   8.991 -0.7841  1.1469  0.6635
  452MOL0     C59565   6.035   0.132   8.961  0.0031 -0.0780  0.8402
  452MOL0     C59566   5.907   0.157   8.911  0.8795 -0.5188 -0.1134
  452MOL0     O59567   5.816   0.065   8.860 -0.1620  0.5525  0.0704
  452MOL0     C59568   5.783  -0.046   8.948  0.2189 -0.8349 -0.4545
  452MOL0     C59569   5.810  -0.182   8.877 -0.5758  0.3449 -0.6336
  452MOL0     C59570   5.809  -0.286   8.983  0.0777  0.1089 -0.4214
  452MOL0     C59571   5.810  -0.426   8.939  0.8658  1.1710 -1.0536
  452MOL0     C59572   5.678  -0.482   8.897  0.7591  0.3037  0.3868
  452MOL0     C59573   5.590  -0.511   9.022  0.9916 -0.3280 -0.5239
  452MOL0     C59574   5.514  -0.643   8.994 -0.0200  0.0561 -0.4869
  452MOL0     C59575   5.388  -0.623   8.916  0.3023  0.1044  1.2000
  452MOL0    Cl59576   5.435  -0.677   8.741 -0.0687 -0.1361  0.0307
  452MOL0     C59577   5.869   0.285   8.885 -0.1718  1.3908  0.5542
  452MOL0     C59578   5.955   0.393   8.917  1.6543  0.5942 -0.6086
  452MOL0     O59579   6.360   0.406   8.933  0.1492  0.4109  1.0110
  452MOL0     C59580   6.311   0.611   9.228  1.4953 -0.4246  0.7920
  452MOL0     C59581   6.378   0.703   9.302 -0.1309 -0.6631 -0.4541
  452MOL0     N59582   6.741   0.865  10.010 -0.5421  1.0837 -0.5939
  452MOL0     N59583   6.746   0.934  10.116 -0.4449 -0.7091 -0.3884
  452MOL0     C59584   7.234   1.004   9.390  0.0524 -0.8957 -0.1921
  452MOL0     C59585   7.191   0.926   9.287  0.0959 -0.4095  0.9719
  452MOL0     C59586   6.869   0.772   8.957 -0.4732  0.3503 -0.5641
  452MOL0     C59587   6.941   0.654   8.923 -0.3822  0.0820  0.4990
  452MOL0     C59588   6.886   0.566   8.828 -0.6717  0.5922  0.4895
  452MOL0     C59589   6.771   0.598   8.764  0.2504  0.1785 -0.2651
  452MOL0     O59590   6.731   0.505   8.669  0.1783  0.3107 -0.8756
  452MOL0     C59591   6.592   0.505   8.633 -1.5575 -0.6807  1.0759
  452MOL0     C59592   6.553   0.361   8.616 -0.7366  0.3110 -0.2858
  452MOL0     C59593   6.465   0.338   8.488 -0.5104 -0.1403 -0.1916
  452MOL0     C59594   6.408   0.196   8.504 -0.0288 -0.2078  0.9389
  452MOL0     C59595   6.279   0.206   8.572  1.0872  0.7104 -0.2721
  452MOL0     C59596   6.162   0.200   8.614 -0.1691 -0.6709 -0.8431
  452MOL0     C59597   6.712   0.721   8.794 -0.1823 -0.2020 -0.0955
  452MOL0     C59598   6.767   0.809   8.882  0.0011  0.0666 -0.1816
  452MOL0     H59599   6.856   0.959   9.327  0.4194 -0.8732 -1.9281
  452MOL0     H59600   6.931   1.094   9.508  0.0737 -0.4077  1.1461
  452MOL0     H59601   7.375   1.148   9.561  0.9473  0.1999  0.2253
  452MOL0     H59602   7.323   1.031   9.682  0.2519 -0.8221 -1.9125
  452MOL0     H59603   7.273   1.329   9.719  3.4871  0.7557  0.7327
  452MOL0     H59604   7.414   1.254   9.801  1.1601  2.0053 -0.5482
  452MOL0     H59605   7.271   1.079   9.904 -1.0636 -0.1665  2.7396
  452MOL0     H59606   7.130   1.174   9.845  0.5257 -2.4118 -0.7382
  452MOL0     H59607   7.368   1.286  10.022  0.0562 -0.7895  0.4885
  452MOL0     H59608   7.220   1.371   9.968  1.1711  0.5068 -0.5518
  452MOL0     H59609   7.222   1.299  10.202  2.8076 -2.3642  1.6348
  452MOL0     H59610   7.233   1.129  10.165 -0.4270 -0.7575 -1.2577
  452MOL0     H59611   7.013   1.157  10.024 -0.5246 -0.9758  1.6145
  452MOL0     H59612   7.005   1.320  10.080  0.5584 -0.1972 -0.3193
  452MOL0     H59613   6.993   1.075  10.264 -0.9191  1.3899  3.7903
  452MOL0     H59614   6.966   1.242  10.308 -0.0392 -1.3396  1.3894
  452MOL0     H59615   6.779   1.268  10.159  2.1907  0.2667 -0.1504
  452MOL0     H59616   6.758   1.151  10.287  5.1229  2.7531  2.8005
  452MOL0     H59617   6.788   1.175   9.909  0.0352  0.2999  0.8125
  452MOL0     H59618   6.830   0.819   9.755  1.6641  1.7140 -2.8830
  452MOL0     H59619   6.844   0.988   9.711  0.8284 -0.4933 -0.4124
  452MOL0     H59620   6.583   0.980   9.720 -0.9025 -0.9178  0.6869
  452MOL0     H59621   6.608   0.811   9.751  0.9731  0.5166  1.8473
  452MOL0     H59622   6.704   0.994   9.514  1.3754  1.3442  3.3356
  452MOL0     H59623   6.746   0.821   9.524 -2.3951 -3.3085  2.3110
  452MOL0     H59624   6.475   0.940   9.488 -1.0213 -1.3674 -1.3964
  452MOL0     H59625   6.503   0.767   9.530  0.3807 -0.5842  0.6527
  452MOL0     H59626   6.677   0.695   9.141  0.1693 -0.9482 -0.2017
  452MOL0     H59627   6.546   0.557   8.991 -0.5957  0.5129 -1.2682
  452MOL0     H59628   6.213   0.198   9.048 -3.2038  0.5283  4.2154
  452MOL0     H59629   6.054   0.030   8.994  0.4676  0.4476  2.2695
  452MOL0     H59630   5.675  -0.033   8.961  0.0301  0.7405 -2.9215
  452MOL0     H59631   5.826  -0.037   9.049  0.9014 -0.0660 -0.8055
  452MOL0     H59632   5.902  -0.176   8.817  0.4965  1.1219  1.0099
  452MOL0     H59633   5.733  -0.207   8.804 -0.2776 -1.7181 -0.2846
  452MOL0     H59634   5.717  -0.264   9.037  1.3672  0.3882  1.7817
  452MOL0     H59635   5.893  -0.274   9.053 -2.0074  1.0458  2.0651
  452MOL0     H59636   5.888  -0.437   8.863  1.9524  3.2332 -0.3009
  452MOL0     H59637   5.846  -0.480   9.026 -0.9346 -1.1152 -1.6092
  452MOL0     H59638   5.704  -0.573   8.842  3.2156  0.6885  0.7648
  452MOL0     H59639   5.624  -0.410   8.836 -1.3347 -0.0981  1.6624
  452MOL0     H59640   5.528  -0.421   9.037  2.9736  1.0705 -0.3161
  452MOL0     H59641   5.653  -0.521   9.111  1.0069  1.8422 -0.2312
  452MOL0     H59642   5.569  -0.726   8.949  2.2777  1.0877  0.2698
  452MOL0     H59643   5.487  -0.682   9.093 -2.0296 -0.4668 -1.1925
  452MOL0     H59644   5.367  -0.516   8.903  2.2651  0.1655 -3.1122
  452MOL0     H59645   5.298  -0.667   8.959 -2.0227  4.9904  2.0394
  452MOL0     H59646   5.764   0.303   8.867 -1.1455 -2.2881  1.6689
  452MOL0     H59647   5.908   0.491   8.925 -2.0372 -1.1273  1.9844
  452MOL0     H59648   6.206   0.586   9.242  0.9727  0.4021 -1.2440
  452MOL0     H59649   6.318   0.743   9.382 -1.2156 -1.5417 -0.8082
  452MOL0     H59650   7.341   1.007   9.405  0.2987 -1.8383 -1.5280
  452MOL0     H59651   7.267   0.889   9.219  0.8035 -1.3147  2.2097
  452MOL0     H59652   7.038   0.631   8.966  0.7362  0.6099 -1.5987
  452MOL0     H59653   6.940   0.477   8.799  0.8380  1.5472  0.2739
  452MOL0     H59654   6.586   0.551   8.534  1.8562 -1.2841  0.4944
  452MOL0     H59655   6.513   0.555   8.691 -1.5462  0.7687 -0.1052
  452MOL0     H59656   6.639   0.293   8.614 -0.7010  0.1617  2.5004
  452MOL0     H59657   6.507   0.324   8.708  0.8765  1.9532  1.2502
  452MOL0     H59658   6.532   0.344   8.401  3.0256  0.8622  2.3337
  452MOL0     H59659   6.389   0.416   8.479  2.3703  2.8301 -0.7916
  452MOL0     H59660   6.391   0.159   8.403 -0.7449  0.7065  0.7119
  452MOL0     H59661   6.476   0.126   8.554  2.2293  2.0455  1.2770
  452MOL0     H59662   6.060   0.201   8.647  0.0213 -0.3830 -0.2472
  452MOL0     H59663   6.612   0.748   8.762  0.0184 -1.2843 -1.7407
  452MOL0     H59664   6.735   0.911   8.900  4.0644  1.4206  0.4714
  453MOL0     O59665   8.272   0.888   4.206 -0.5815 -0.2976 -0.0815
  453MOL0     C59666   8.285   0.770   4.216  0.1172 -0.0223 -0.4393
  453MOL0     O59667   8.372   0.699   4.144  0.2379  0.4016 -0.1180
  453MOL0     C59668   8.448   0.752   4.038  0.7578 -0.3196 -0.1067
  453MOL0     C59669   8.455   0.884   3.986  0.6677 -0.9336  0.3041
  453MOL0     C59670   8.549   0.925   3.897  0.1814  1.7702 -0.2833
  453MOL0     C59671   8.643   0.831   3.851 -0.7755 -0.7762  0.2834
  453MOL0     O59672   8.743   0.886   3.762 -0.1625  0.2528 -0.1695
  453MOL0     C59673   8.877   0.886   3.818  1.0227  0.6549  0.0484
  453MOL0     C59674   8.982   0.884   3.707 -0.5579  0.2506  0.1175
  453MOL0     C59675   8.950   0.991   3.598  0.1214 -0.3548 -0.1820
  453MOL0     C59676   8.940   1.143   3.660 -0.9577  0.1123 -0.6477
  453MOL0     C59677   8.925   1.262   3.557 -0.8277 -0.7478 -0.3468
  453MOL0     C59678   8.801   1.262   3.462 -0.0829 -0.8133 -0.1163
  453MOL0     C59679   8.667   1.233   3.532 -0.0869 -0.2382  0.5322
  453MOL0     C59680   8.626   1.331   3.644 -0.1044  0.2467  0.3142
  453MOL0     N59681   8.504   1.282   3.707  1.0015 -0.2149  0.2584
  453MOL0     C59682   8.385   1.247   3.642  0.3386  0.8287  0.4220
  453MOL0     C59683   8.284   1.234   3.736 -0.8370 -0.9302 -0.3599
  453MOL0     C59684   8.142   1.190   3.709 -0.0949  0.1725 -1.1030
  453MOL0     C59685   8.116   1.082   3.818  0.8305  0.2766 -0.2130
  453MOL0     C59686   8.067   1.131   3.956 -0.6718 -0.6631  1.3011
  453MOL0     C59687   7.957   1.243   3.964  0.9566 -0.4370 -0.7520
  453MOL0     O59688   7.841   1.215   3.889 -0.0386  0.0412  0.5627
  453MOL0     C59689   7.769   1.110   3.938 -0.9259 -0.0981  0.0197
  453MOL0     C59690   7.761   0.991   3.854 -0.9104  0.0658 -0.3737
  453MOL0     C59691   7.697   0.878   3.898  0.1781  0.1663 -0.4909
  453MOL0     C59692   7.629   0.879   4.028 -0.3032 -0.4892  0.4684
  453MOL0     C59693   7.553   0.762   4.083  0.0516 -0.8308  0.0524
  453MOL0     O59694   7.541   0.749   4.212  0.1316 -0.7929  0.3006
  453MOL0     C59695   7.475   0.645   4.266  1.0023  0.4297 -0.6085
  453MOL0     C59696   7.546   0.551   4.343  0.1693  0.1236 -0.1758
  453MOL0     C59697   7.462   0.460   4.408 -0.0899  1.2838  0.0038
  453MOL0     C59698   7.325   0.448   4.387  0.1160  0.6480 -0.8061
  453MOL0     O59699   7.245   0.353   4.451 -0.4883  0.0554 -0.2226
  453MOL0     C59700   7.295   0.264   4.552 -0.3753 -0.2193 -0.6104
  453MOL0     C59701   7.190   0.159   4.589  1.1335 -0.0888  1.0328
  453MOL0     C59702   7.217   0.091   4.718  0.9514  1.0210 -0.3014
  453MOL0     C59703   7.112  -0.008   4.761 -0.4920 -0.1805 -0.2128
  453MOL0     C59704   7.172  -0.106   4.874 -0.1944  0.2762 -0.3371
  453MOL0     C59705   7.255  -0.219   4.817 -0.4631  0.2408  0.0263
  453MOL0     C59706   7.197  -0.309   4.710  0.8714  0.0787 -0.0567
  453MOL0     C59707   7.069  -0.371   4.747  0.2240  0.3358  0.8411
  453MOL0    Cl59708   7.092  -0.526   4.817  0.0950 -0.0633  0.2082
  453MOL0     C59709   7.264   0.539   4.306  0.2591 -0.3166  0.5033
  453MOL0     C59710   7.339   0.640   4.251 -0.8339 -0.8343 -0.1373
  453MOL0     O59711   7.514   0.680   4.000 -0.4869 -0.2085  0.0406
  453MOL0     C59712   7.622   0.998   4.098  0.2496  0.1450 -0.2549
  453MOL0     C59713   7.698   1.118   4.054  0.2596  0.0088 -0.7039
  453MOL0     N59714   8.344   1.276   3.858  0.9998  0.6969 -0.1064
  453MOL0     N59715   8.472   1.300   3.839  0.5995  0.2047  0.1727
  453MOL0     C59716   8.632   0.698   3.891 -0.6040  0.0610  0.9833
  453MOL0     C59717   8.538   0.662   3.986 -0.3636 -0.0068 -0.4853
  453MOL0     C59718   8.205   0.686   4.316  0.6644 -0.4048  0.0201
  453MOL0     C59719   8.260   0.571   4.371  0.4116  0.2337  0.8070
  453MOL0     C59720   8.172   0.503   4.459  0.1902 -0.4179  0.2941
  453MOL0     C59721   8.047   0.540   4.496 -0.0593 -0.5636  0.5047
  453MOL0     O59722   7.975   0.485   4.595 -1.3816  0.3785  0.3043
  453MOL0     C59723   8.046   0.408   4.700  0.4482 -0.2864 -0.6742
  453MOL0     C59724   7.955   0.388   4.823 -0.3989 -0.8096 -0.1666
  453MOL0     C59725   7.861   0.263   4.814 -0.8390  0.3142  0.0061
  453MOL0     C59726   7.719   0.288   4.766  0.6320 -0.1074  0.6077
  453MOL0     C59727   7.645   0.173   4.778 -0.0015  0.6911  0.0972
  453MOL0     C59728   7.568   0.083   4.794  0.3303  0.2156 -0.5252
  453MOL0     C59729   7.990   0.654   4.423 -0.0997 -0.0180  0.5763
  453MOL0     C59730   8.071   0.737   4.345 -0.2189  0.7305 -0.5002
  453MOL0     H59731   8.381   0.957   4.017 -0.0090 -2.5248  2.7502
  453MOL0     H59732   8.557   1.029   3.869  2.2146  1.3389 -1.5160
  453MOL0     H59733   8.901   0.800   3.882 -1.7324  0.4072  0.8691
  453MOL0     H59734   8.888   0.982   3.869  1.1857  1.3757 -1.2989
  453MOL0     H59735   8.989   0.785   3.660  0.2445 -0.6906  2.1075
  453MOL0     H59736   9.081   0.904   3.747  0.0481  0.1554 -1.2719
  453MOL0     H59737   8.855   0.978   3.544 -0.8623 -0.3874  1.5051
  453MOL0     H59738   9.027   0.983   3.521 -1.1514 -1.7531 -1.3923
  453MOL0     H59739   8.853   1.144   3.726 -1.4408 -2.2434 -1.1387
  453MOL0     H59740   9.031   1.167   3.716 -1.7592  1.5537  0.0987
  453MOL0     H59741   9.009   1.275   3.489 -1.8509 -0.1639 -1.5324
  453MOL0     H59742   8.924   1.348   3.624  0.4549  0.8542 -2.2566
  453MOL0     H59743   8.810   1.182   3.388  0.2537 -0.6987 -0.2013
  453MOL0     H59744   8.810   1.359   3.412  0.7607  0.2191  1.9316
  453MOL0     H59745   8.586   1.233   3.458  0.2704 -3.0928  0.0477
  453MOL0     H59746   8.662   1.130   3.569 -1.5681 -0.1732  0.5762
  453MOL0     H59747   8.598   1.433   3.614 -1.7621 -0.1180  0.5118
  453MOL0     H59748   8.707   1.334   3.717  0.4348  0.1705 -0.2778
  453MOL0     H59749   8.374   1.224   3.536 -0.7828  0.4614  0.6047
  453MOL0     H59750   8.128   1.141   3.612 -3.1701  0.2671 -0.8213
  453MOL0     H59751   8.075   1.276   3.712 -0.2432  0.1251 -2.5447
  453MOL0     H59752   8.202   1.015   3.827  1.4855  1.2395  1.2289
  453MOL0     H59753   8.038   1.024   3.768  0.5175 -0.5888  1.2165
  453MOL0     H59754   8.036   1.057   4.030  0.5900 -2.0112  0.5320
  453MOL0     H59755   8.159   1.158   4.008  1.7636 -3.2553 -1.2526
  453MOL0     H59756   7.997   1.339   3.931  0.5097  0.8079  2.0190
  453MOL0     H59757   7.935   1.252   4.071  0.5960  2.0931 -0.9661
  453MOL0     H59758   7.820   0.993   3.763 -0.0362 -0.5965  0.1622
  453MOL0     H59759   7.686   0.792   3.833 -1.2200  1.5233 -2.1228
  453MOL0     H59760   7.652   0.553   4.364 -0.2938  1.6326  2.7170
  453MOL0     H59761   7.504   0.395   4.484 -2.1181  0.0299  0.1244
  453MOL0     H59762   7.332   0.318   4.640  2.2738  0.1638 -1.8524
  453MOL0     H59763   7.387   0.221   4.510  0.0837  0.8290 -0.7070
  453MOL0     H59764   7.187   0.096   4.500  0.7251  4.1464 -2.2730
  453MOL0     H59765   7.098   0.218   4.598 -0.4856 -2.1561 -0.8625
  453MOL0     H59766   7.226   0.167   4.796 -2.6240  3.1986 -1.7390
  453MOL0     H59767   7.303   0.033   4.685 -0.6652 -1.3621 -0.6130
  453MOL0     H59768   7.029   0.052   4.801 -0.7783 -0.3103 -0.6062
  453MOL0     H59769   7.059  -0.059   4.680 -1.4839  1.6892 -0.8075
  453MOL0     H59770   7.083  -0.129   4.932  0.6529  0.1843  0.9774
  453MOL0     H59771   7.232  -0.051   4.947 -1.0882 -0.1693  0.7588
  453MOL0     H59772   7.286  -0.281   4.902 -0.1766 -2.8521 -2.1542
  453MOL0     H59773   7.348  -0.172   4.781  0.1852 -0.5079  0.6885
  453MOL0     H59774   7.195  -0.251   4.617  4.6370 -0.6457 -0.7645
  453MOL0     H59775   7.265  -0.392   4.687  2.7009  1.6449 -0.5281
  453MOL0     H59776   7.024  -0.389   4.649  1.5124  0.0461  0.2801
  453MOL0     H59777   7.004  -0.307   4.806  1.8031  0.8925  2.0507
  453MOL0     H59778   7.159   0.513   4.299 -0.3278  1.6743  1.1500
  453MOL0     H59779   7.286   0.719   4.199  1.5953  2.3500  1.8050
  453MOL0     H59780   7.568   1.006   4.191  0.6245  0.6925 -0.0757
  453MOL0     H59781   7.677   1.214   4.099  0.5298  0.2955 -1.1923
  453MOL0     H59782   8.694   0.625   3.840  0.1697  0.7485  0.9315
  453MOL0     H59783   8.549   0.567   4.039 -0.9401  1.6917  3.0155
  453MOL0     H59784   8.357   0.531   4.345 -0.1317 -2.9502  3.0998
  453MOL0     H59785   8.211   0.411   4.500 -0.0420 -0.6642 -0.0353
  453MOL0     H59786   8.122   0.471   4.747 -1.1127 -0.7426  2.7646
  453MOL0     H59787   8.099   0.318   4.666 -0.2919 -0.1641 -2.2080
  453MOL0     H59788   8.003   0.383   4.921 -0.3601  2.3725  0.1031
  453MOL0     H59789   7.891   0.476   4.833  2.3519  1.4364 -1.0231
  453MOL0     H59790   7.857   0.223   4.915 -2.6091 -0.1766 -0.2134
  453MOL0     H59791   7.906   0.198   4.738 -0.6293  1.5525 -0.9704
  453MOL0     H59792   7.672   0.377   4.811  1.6881  1.8051 -1.8226
  453MOL0     H59793   7.727   0.298   4.658 -3.8700 -5.9099 -0.7466
  453MOL0     H59794   7.488   0.018   4.823  1.1525  0.3965  2.4440
  453MOL0     H59795   7.884   0.679   4.425 -0.7777 -1.8262 -3.1340
  453MOL0     H59796   8.039   0.831   4.301 -0.4657  1.7953  1.7865
  454MOL0     O59797   5.858   5.051   7.049  0.1044  0.5186 -0.0893
  454MOL0     C59798   5.838   4.947   7.104 -0.5619 -0.6279  0.1497
  454MOL0     O59799   5.890   4.907   7.227  0.3943  0.2005  0.5551
  454MOL0     C59800   6.001   4.974   7.279 -0.3464  0.4427  0.3995
  454MOL0     C59801   6.130   4.929   7.249 -0.3333 -0.4007 -0.9823
  454MOL0     C59802   6.238   5.007   7.290 -0.0072  0.8713 -0.0472
  454MOL0     C59803   6.232   5.127   7.347  0.2869 -0.7655 -0.0744
  454MOL0     O59804   6.342   5.182   7.398 -0.0785  0.4802  0.3716
  454MOL0     C59805   6.344   5.247   7.527  0.2674 -0.2013  0.6128
  454MOL0     C59806   6.495   5.287   7.567  0.4047 -0.0980 -0.3872
  454MOL0     C59807   6.594   5.169   7.589 -0.1350  0.2662  0.5195
  454MOL0     C59808   6.742   5.219   7.589 -0.0661 -0.0749 -0.2565
  454MOL0     C59809   6.773   5.323   7.700  0.0629 -0.4069 -0.0635
  454MOL0     C59810   6.892   5.278   7.781 -0.3832  0.4937  0.1729
  454MOL0     C59811   6.875   5.161   7.870 -0.4817 -0.0024  0.3366
  454MOL0     C59812   7.014   5.106   7.923 -0.0855 -0.1486  0.0908
  454MOL0     N59813   7.100   5.060   7.825 -0.5420 -0.2211  0.3005
  454MOL0     C59814   7.212   5.143   7.789  0.4920  1.0635  0.6302
  454MOL0     C59815   7.266   5.079   7.681 -0.0442  0.1386 -0.2502
  454MOL0     C59816   7.398   5.124   7.627 -0.3728  0.0475 -0.0341
  454MOL0     C59817   7.472   5.002   7.569  0.5816  0.1764 -0.3611
  454MOL0     C59818   7.538   4.920   7.678  0.2681  0.3132 -0.0201
  454MOL0     C59819   7.564   4.782   7.608  0.5423 -0.8276 -0.4571
  454MOL0     O59820   7.660   4.705   7.686 -0.5604  0.1778 -0.0460
  454MOL0     C59821   7.785   4.743   7.678 -0.7497  0.2825 -0.4286
  454MOL0     C59822   7.869   4.662   7.756 -0.2479 -0.2901 -0.1333
  454MOL0     C59823   8.012   4.672   7.739 -0.6599 -0.3298  1.1714
  454MOL0     C59824   8.061   4.778   7.658 -0.1256  0.2398  0.2196
  454MOL0     C59825   8.209   4.797   7.656 -0.0277  0.0732 -0.4449
  454MOL0     O59826   8.277   4.754   7.768 -0.0627 -0.5544  0.1136
  454MOL0     C59827   8.417   4.768   7.765 -0.1677  0.0629  0.4836
  454MOL0     C59828   8.469   4.891   7.805 -0.4843 -0.4154  0.1711
  454MOL0     C59829   8.608   4.908   7.840  0.3709 -0.1880  0.4248
  454MOL0     C59830   8.692   4.792   7.841 -0.3044 -1.2041 -0.0998
  454MOL0     O59831   8.827   4.810   7.870 -0.4885 -0.4280  0.6321
  454MOL0     C59832   8.901   4.727   7.956  0.9881 -0.0236 -0.0055
  454MOL0     C59833   9.013   4.816   8.016 -0.3589  0.6097 -0.7704
  454MOL0     C59834   9.132   4.847   7.925 -0.4792  1.0918  1.2881
  454MOL0     C59835   9.244   4.913   8.000 -0.6668  1.0753 -0.0235
  454MOL0     C59836   9.222   5.059   8.042  0.3471  0.4138 -0.4765
  454MOL0     C59837   9.353   5.141   8.044  0.2166 -0.4445  1.3116
  454MOL0     C59838   9.426   5.155   7.906  0.2614 -0.6394 -0.9710
  454MOL0     C59839   9.495   5.290   7.888  0.7220  0.0456 -0.1122
  454MOL0    Cl59840   9.369   5.427   7.845 -0.1411  0.5225 -0.2321
  454MOL0     C59841   8.640   4.670   7.801 -0.6148 -0.2223  0.1240
  454MOL0     C59842   8.502   4.657   7.754 -0.3497  0.7442 -0.5769
  454MOL0     O59843   8.260   4.830   7.550  0.1215  0.4988  0.2710
  454MOL0     C59844   7.981   4.861   7.583 -0.0518 -0.5786 -0.2020
  454MOL0     C59845   7.843   4.844   7.587 -0.6560  0.2191  0.7121
  454MOL0     N59846   7.188   4.966   7.651 -1.2052 -0.8605  0.2158
  454MOL0     N59847   7.082   4.961   7.726  0.5943  0.2265  0.1442
  454MOL0     C59848   6.106   5.168   7.377  0.4041  0.1005  0.6611
  454MOL0     C59849   5.993   5.093   7.348  0.5084  0.4339 -0.2343
  454MOL0     C59850   5.758   4.843   7.044  0.4290 -0.5677 -0.4958
  454MOL0     C59851   5.725   4.719   7.115  0.2216 -0.8014  0.0390
  454MOL0     C59852   5.642   4.620   7.066  1.1114 -0.7299 -0.3618
  454MOL0     C59853   5.572   4.656   6.945  0.2579 -0.4815  0.5401
  454MOL0     O59854   5.505   4.554   6.878 -0.0070 -0.4582  0.9681
  454MOL0     C59855   5.368   4.563   6.883 -0.9500  0.1721 -0.3057
  454MOL0     C59856   5.320   4.486   7.010  0.4829  0.5328  0.6440
  454MOL0     C59857   5.193   4.529   7.077  0.2314 -0.4781  0.7459
  454MOL0     C59858   5.075   4.441   7.041 -0.4631  0.0578 -0.9805
  454MOL0     C59859   5.035   4.452   6.900  0.6282  0.1453  0.6483
  454MOL0     C59860   5.004   4.476   6.781 -0.1644 -0.3808  0.5817
  454MOL0     C59861   5.595   4.785   6.875  0.1080  0.8142  0.2694
  454MOL0     C59862   5.684   4.871   6.929 -0.9794  0.1748  0.3657
  454MOL0     H59863   6.141   4.831   7.204  1.0699  0.1097 -1.8318
  454MOL0     H59864   6.333   4.969   7.255 -0.7514  0.8574 -2.1984
  454MOL0     H59865   6.298   5.186   7.605  1.7507  0.3512  1.9804
  454MOL0     H59866   6.286   5.339   7.521  3.5362  1.9059 -2.3281
  454MOL0     H59867   6.487   5.349   7.657 -0.9527 -1.1346  0.2397
  454MOL0     H59868   6.529   5.353   7.487  0.8230 -0.1857 -0.2795
  454MOL0     H59869   6.572   5.102   7.506 -0.9500 -2.2689  2.6557
  454MOL0     H59870   6.570   5.106   7.675  0.7842 -1.1670 -0.2370
  454MOL0     H59871   6.798   5.126   7.607  1.3799  0.2194 -2.7572
  454MOL0     H59872   6.769   5.256   7.490  1.1611 -4.6515 -1.8562
  454MOL0     H59873   6.687   5.346   7.764 -1.5858  0.7961 -2.5948
  454MOL0     H59874   6.805   5.418   7.658  0.7175 -0.7858 -0.4450
  454MOL0     H59875   6.928   5.361   7.842 -2.0460  1.4165 -0.0471
  454MOL0     H59876   6.969   5.245   7.711 -2.0858  2.1173 -2.6830
  454MOL0     H59877   6.809   5.185   7.953 -3.4949 -2.1203 -1.2692
  454MOL0     H59878   6.838   5.071   7.820 -0.6390 -0.1153  0.6549
  454MOL0     H59879   7.003   5.015   7.983  0.2860 -2.0106 -2.5405
  454MOL0     H59880   7.060   5.179   7.991  0.2627 -1.1161  0.9180
  454MOL0     H59881   7.256   5.230   7.837 -0.3779  1.2325  1.1464
  454MOL0     H59882   7.458   5.177   7.701 -3.6989  3.3117  0.6285
  454MOL0     H59883   7.382   5.197   7.546  2.1833  1.5739  0.7238
  454MOL0     H59884   7.538   5.039   7.490  1.3322  0.9432  0.5857
  454MOL0     H59885   7.403   4.944   7.507  0.5663  1.0454 -1.1812
  454MOL0     H59886   7.630   4.973   7.703  0.7030 -1.1566  1.8104
  454MOL0     H59887   7.480   4.895   7.767  1.2765 -4.2253 -0.3898
  454MOL0     H59888   7.594   4.785   7.503 -1.5693 -1.4000 -1.1383
  454MOL0     H59889   7.472   4.724   7.617 -0.2887  0.5392  0.2263
  454MOL0     H59890   7.812   4.595   7.820  1.4989 -0.3014  1.5110
  454MOL0     H59891   8.067   4.594   7.790 -1.2598 -2.1066 -0.7495
  454MOL0     H59892   8.399   4.973   7.822  2.5148  1.7786  3.4593
  454MOL0     H59893   8.663   4.995   7.873  0.5404 -0.9541  2.2900
  454MOL0     H59894   8.948   4.653   7.891  1.8752 -0.1049  0.7078
  454MOL0     H59895   8.844   4.680   8.036  3.6079 -0.0013  2.0316
  454MOL0     H59896   9.063   4.766   8.099 -2.0427  0.8577  0.4447
  454MOL0     H59897   8.977   4.910   8.058  0.0204 -0.2929  1.7243
  454MOL0     H59898   9.096   4.916   7.848  2.0450  0.6280 -0.4130
  454MOL0     H59899   9.171   4.754   7.882  2.1886  1.0974  3.4351
  454MOL0     H59900   9.274   4.856   8.088 -1.5212  0.5814 -0.0505
  454MOL0     H59901   9.323   4.891   7.928 -1.5345  0.1361 -0.7145
  454MOL0     H59902   9.154   5.073   8.127  0.4012 -0.1295 -0.3424
  454MOL0     H59903   9.166   5.112   7.964 -0.6152  1.7233  1.0460
  454MOL0     H59904   9.421   5.089   8.112  1.7222  0.4398  0.5513
  454MOL0     H59905   9.339   5.241   8.084  0.2978 -0.7895  2.2188
  454MOL0     H59906   9.495   5.075   7.877  0.1707 -0.0161 -3.1139
  454MOL0     H59907   9.341   5.155   7.837 -2.2825  1.3227  1.8854
  454MOL0     H59908   9.558   5.280   7.800  0.2725  0.9426 -0.5444
  454MOL0     H59909   9.572   5.308   7.964  0.9786 -1.3648 -0.0128
  454MOL0     H59910   8.700   4.581   7.787  0.2334  0.4063 -0.3897
  454MOL0     H59911   8.458   4.561   7.730 -0.5044 -0.2358  3.0038
  454MOL0     H59912   8.019   4.949   7.533  0.2585 -1.3934 -1.4565
  454MOL0     H59913   7.777   4.901   7.522 -2.1290 -1.5197  0.5973
  454MOL0     H59914   6.097   5.272   7.405  1.9174  1.3141 -2.8363
  454MOL0     H59915   5.892   5.122   7.373  0.6465  0.3978  0.3851
  454MOL0     H59916   5.761   4.700   7.216  2.8420 -2.4189 -1.1108
  454MOL0     H59917   5.626   4.528   7.120 -3.1395  0.8018  1.4471
  454MOL0     H59918   5.323   4.515   6.795 -0.3957  1.6654 -1.4454
  454MOL0     H59919   5.347   4.670   6.888  1.2326  0.6797 -1.1624
  454MOL0     H59920   5.334   4.379   6.992 -0.9597 -0.1770  3.3714
  454MOL0     H59921   5.389   4.509   7.091  0.3613 -2.1118  1.6008
  454MOL0     H59922   5.184   4.637   7.063  2.4216 -0.4496 -0.9724
  454MOL0     H59923   5.207   4.522   7.185 -2.0071  2.2656  1.3509
  454MOL0     H59924   5.107   4.338   7.059  1.8850  0.3785 -2.7920
  454MOL0     H59925   4.989   4.458   7.106 -0.1876 -3.8401  0.7033
  454MOL0     H59926   4.996   4.471   6.674 -1.3449 -2.3729  0.7155
  454MOL0     H59927   5.564   4.797   6.772 -1.4806 -2.5201  0.2224
  454MOL0     H59928   5.711   4.970   6.895 -1.3406  0.4821  0.9654
  455MOL0     O59929   8.176   6.670  10.960  0.3351 -0.3461  0.3888
  455MOL0     C59930   8.262   6.734  10.900 -0.7888 -0.0867  0.3457
  455MOL0     O59931   8.342   6.828  10.962 -0.1674 -0.1110  0.4369
  455MOL0     C59932   8.366   6.822  11.100 -0.0784 -0.5655 -0.3140
  455MOL0     C59933   8.355   6.704  11.184  0.0695 -0.2366  0.2522
  455MOL0     C59934   8.367   6.716  11.318  0.8448  0.9800  0.3794
  455MOL0     C59935   8.388   6.832  11.385 -0.3379 -0.5089 -0.5908
  455MOL0     O59936   8.419   6.836  11.520  0.2400 -0.5362  0.9390
  455MOL0     C59937   8.387   6.726  11.599 -1.3366 -0.6307  0.6893
  455MOL0     C59938   8.506   6.632  11.619  0.1442  0.3768 -0.7828
  455MOL0     C59939   8.485   6.518  11.723 -0.1978 -0.6117  0.5116
  455MOL0     C59940   8.606   6.420  11.728  0.0199 -0.4179 -0.2798
  455MOL0     C59941   8.593   6.308  11.830  0.9148 -0.4535  0.1884
  455MOL0     C59942   8.467   6.225  11.818 -0.3448  0.7581  0.3644
  455MOL0     C59943   8.467   6.123  11.929  0.8522 -0.0887 -0.8071
  455MOL0     C59944   8.418   6.177  12.067 -0.3041 -0.3174  0.2341
  455MOL0     N59945   8.275   6.207  12.070 -0.4355 -0.0627 -0.0950
  455MOL0     C59946   8.213   6.315  12.135 -0.0380 -0.1161 -0.2184
  455MOL0     C59947   8.079   6.314  12.101 -0.1282  0.5544 -0.0954
  455MOL0     C59948   7.972   6.408  12.119 -0.2285  1.0781  0.2525
  455MOL0     C59949   8.006   6.542  12.060 -0.2749  0.0137 -0.4686
  455MOL0     C59950   8.116   6.619  12.130  0.3049  0.0681  1.2153
  455MOL0     C59951   8.117   6.762  12.097 -0.7572  0.9170  0.2618
  455MOL0     O59952   8.028   6.831  12.184  0.0468 -0.3994 -0.0139
  455MOL0     C59953   8.064   6.957  12.219  1.0370  0.0208 -0.0802
  455MOL0     C59954   8.160   7.033  12.155 -0.4330 -0.2282 -0.2545
  455MOL0     C59955   8.197   7.152  12.199 -0.5658  0.8428  0.2122
  455MOL0     C59956   8.123   7.223  12.298 -0.1164  0.7361  0.1463
  455MOL0     C59957   8.153   7.362  12.329 -0.4569  0.0784 -0.0918
  455MOL0     O59958   8.063   7.440  12.395 -0.1562  0.0360 -0.0199
  455MOL0     C59959   8.100   7.569  12.430 -0.1728 -0.3622  0.0163
  455MOL0     C59960   8.206   7.575  12.522  0.2390  0.2870  0.2307
  455MOL0     C59961   8.251   7.700  12.554  0.3290 -0.3642  0.4241
  455MOL0     C59962   8.187   7.820  12.494  0.1810 -0.1964  0.7474
  455MOL0     O59963   8.237   7.944  12.511  1.0530  0.7785 -0.1829
  455MOL0     C59964   8.362   7.954  12.585 -0.9268 -0.9873 -0.1703
  455MOL0     C59965   8.420   8.092  12.596 -0.6103  0.5238 -0.3078
  455MOL0     C59966   8.526   8.088  12.711  0.2362 -0.7019 -0.8725
  455MOL0     C59967   8.543   8.232  12.773 -0.4182  0.4199 -0.1073
  455MOL0     C59968   8.659   8.255  12.867 -0.1404 -0.4091  0.3816
  455MOL0     C59969   8.787   8.177  12.841 -0.6904  0.5772  0.4968
  455MOL0     C59970   8.857   8.230  12.707  0.5450 -0.5456 -0.3681
  455MOL0     C59971   8.997   8.163  12.673  0.4360 -0.0861  0.1415
  455MOL0    Cl59972   9.115   8.220  12.815  0.4831 -0.0980  0.4060
  455MOL0     C59973   8.084   7.808  12.405 -0.1822  0.3118  0.3146
  455MOL0     C59974   8.029   7.678  12.376 -0.4850  0.3587 -0.9801
  455MOL0     O59975   8.263   7.395  12.293 -0.0010 -0.3978  0.0636
  455MOL0     C59976   8.009   7.154  12.357 -0.2347 -1.0462 -0.3354
  455MOL0     C59977   7.984   7.020  12.318  0.5274 -0.5108  0.2958
  455MOL0     N59978   8.072   6.213  12.004 -0.7187  0.1005 -1.2081
  455MOL0     N59979   8.193   6.169  11.972  0.0175  0.1823  0.0904
  455MOL0     C59980   8.407   6.947  11.312 -0.0545  0.1741 -0.2441
  455MOL0     C59981   8.396   6.941  11.172 -0.5768 -0.0122 -0.1184
  455MOL0     C59982   8.271   6.728  10.749 -0.3044 -0.2178  0.1282
  455MOL0     C59983   8.191   6.639  10.681  0.2585 -0.2730 -0.2478
  455MOL0     C59984   8.180   6.651  10.546 -0.4516  0.2769 -1.0135
  455MOL0     C59985   8.253   6.740  10.461  0.9213  0.5613 -0.9105
  455MOL0     O59986   8.244   6.723  10.328  0.2068  0.3310  0.0317
  455MOL0     C59987   8.251   6.838  10.237  0.2897 -1.3345  0.0457
  455MOL0     C59988   8.216   6.800  10.088 -0.1303  0.4626 -0.4224
  455MOL0     C59989   8.092   6.710  10.083  0.8958  0.4963 -0.3942
  455MOL0     C59990   7.960   6.769  10.139  0.1931 -0.1921 -0.4405
  455MOL0     C59991   7.927   6.885  10.068 -0.5853  0.6795 -0.2791
  455MOL0     C59992   7.902   6.989  10.008 -0.3702  0.4720  0.9315
  455MOL0     C59993   8.337   6.829  10.534 -1.0862  0.4582 -0.1540
  455MOL0     C59994   8.347   6.822  10.675 -0.3342  0.0515  0.2295
  455MOL0     H59995   8.345   6.607  11.136  1.1912  0.6364 -1.8849
  455MOL0     H59996   8.377   6.625  11.375  0.1581  0.8810  0.3435
  455MOL0     H59997   8.301   6.666  11.571 -0.2241 -3.6276  3.0971
  455MOL0     H59998   8.355   6.774  11.692 -1.1973  2.0658 -0.5705
  455MOL0     H59999   8.591   6.694  11.649 -0.3274  1.6384 -1.9297
  455MOL0     H60000   8.543   6.587  11.527 -1.6453 -1.6429 -0.5965
  455MOL0     H60001   8.394   6.460  11.702 -0.4420 -1.5150  3.4681
  455MOL0     H60002   8.468   6.569  11.818  1.5875  1.7818 -0.3636
  455MOL0     H60003   8.617   6.378  11.627 -0.3837  1.5509 -1.1884
  455MOL0     H60004   8.694   6.478  11.755 -1.1412  1.4366 -0.2670
  455MOL0     H60005   8.579   6.357  11.927 -3.2194  1.9721 -1.4244
  455MOL0     H60006   8.681   6.242  11.834  0.2265 -1.4288 -0.3193
  455MOL0     H60007   8.466   6.176  11.720 -0.8644  1.6893 -0.1110
  455MOL0     H60008   8.373   6.280  11.828 -2.1540 -2.4720  3.7167
  455MOL0     H60009   8.402   6.036  11.912  1.4863 -0.9423  0.9013
  455MOL0     H60010   8.567   6.085  11.954  0.5928  0.5854  1.5366
  455MOL0     H60011   8.480   6.266  12.082  0.5466  0.0626 -4.1480
  455MOL0     H60012   8.442   6.111  12.150 -1.3861 -1.3847 -0.2743
  455MOL0     H60013   8.263   6.389  12.197 -1.8431 -0.0177  1.2390
  455MOL0     H60014   7.934   6.410  12.222 -0.8701 -0.6361  0.0827
  455MOL0     H60015   7.881   6.374  12.069 -0.5560  1.6689  0.4441
  455MOL0     H60016   7.914   6.602  12.057 -0.6022 -0.2289  2.2131
  455MOL0     H60017   8.036   6.524  11.957 -2.0117  2.3477 -1.4857
  455MOL0     H60018   8.110   6.611  12.239  1.7003  1.8185  1.4839
  455MOL0     H60019   8.210   6.571  12.101 -0.8139 -1.1473 -0.5354
  455MOL0     H60020   8.090   6.776  11.992 -1.3785  1.1364  0.4466
  455MOL0     H60021   8.221   6.796  12.106 -0.7521  1.2553 -0.9073
  455MOL0     H60022   8.222   7.000  12.072  1.5969 -2.6692  2.0314
  455MOL0     H60023   8.289   7.185  12.153 -1.1706 -2.2357 -3.8219
  455MOL0     H60024   8.246   7.478  12.551  0.9049  0.3032 -0.5722
  455MOL0     H60025   8.339   7.703  12.618  1.8731  0.2865 -1.5888
  455MOL0     H60026   8.439   7.898  12.530  0.3130 -0.3820  0.9120
  455MOL0     H60027   8.338   7.916  12.684  0.8053  0.5278  0.8813
  455MOL0     H60028   8.336   8.161  12.614 -2.2244 -1.3953 -0.0713
  455MOL0     H60029   8.465   8.123  12.501 -5.8483  1.0366 -3.0043
  455MOL0     H60030   8.621   8.056  12.667  0.9752  0.2589 -0.0048
  455MOL0     H60031   8.490   8.029  12.796  1.5045 -0.2209  0.0209
  455MOL0     H60032   8.536   8.302  12.690 -2.4739  1.8642  1.2052
  455MOL0     H60033   8.458   8.263  12.833 -0.3332  0.8577 -0.2127
  455MOL0     H60034   8.622   8.232  12.967 -0.1486  1.1583  0.7737
  455MOL0     H60035   8.679   8.363  12.862  0.5317 -0.5091  0.7749
  455MOL0     H60036   8.778   8.069  12.826  2.2031  0.5638 -1.9188
  455MOL0     H60037   8.853   8.166  12.928 -2.9711 -2.8587  2.0383
  455MOL0     H60038   8.793   8.218  12.619 -3.3834 -0.9365  2.2741
  455MOL0     H60039   8.881   8.335  12.724 -1.4390 -0.0027 -0.6363
  455MOL0     H60040   9.034   8.196  12.576  1.6552  0.0338  0.6359
  455MOL0     H60041   8.967   8.058  12.667 -1.3236  0.4200 -0.6161
  455MOL0     H60042   8.039   7.887  12.345 -5.7990 -0.7896  2.4084
  455MOL0     H60043   7.944   7.670  12.308 -3.0310 -0.8460  2.0731
  455MOL0     H60044   7.957   7.190  12.445  0.2843  1.8404 -1.1023
  455MOL0     H60045   7.899   6.974  12.365 -2.5928  3.1275 -1.2452
  455MOL0     H60046   8.420   7.041  11.367 -1.9702  1.6022 -2.0867
  455MOL0     H60047   8.411   7.027  11.107 -0.4751 -1.5275 -2.1850
  455MOL0     H60048   8.120   6.582  10.740 -1.4379 -0.1930 -2.1112
  455MOL0     H60049   8.110   6.588  10.493 -2.9324  2.7285 -0.8903
  455MOL0     H60050   8.349   6.886  10.236 -0.5663  0.5041 -0.5916
  455MOL0     H60051   8.179   6.909  10.280  2.7157  1.3322  0.0231
  455MOL0     H60052   8.202   6.887  10.024 -1.7861 -0.0541 -0.7973
  455MOL0     H60053   8.309   6.761  10.046 -1.0591 -2.0358 -0.2870
  455MOL0     H60054   8.111   6.616  10.136  0.1282  0.5328 -0.0484
  455MOL0     H60055   8.081   6.674   9.980 -1.6407 -0.7963  0.2662
  455MOL0     H60056   7.879   6.695  10.142  0.1166 -0.0903  1.2791
  455MOL0     H60057   7.975   6.808  10.241 -0.6650 -0.0685 -0.3536
  455MOL0     H60058   7.882   7.080   9.955  1.2042 -1.7512 -4.1361
  455MOL0     H60059   8.387   6.908  10.479  2.5221 -1.7486 -0.4065
  455MOL0     H60060   8.403   6.897  10.730 -0.8585  0.1088  0.6964
  456MOL0     O60061   9.952   3.625   1.753  0.1740  0.0839 -0.6779
  456MOL0     C60062   9.938   3.535   1.672  0.2114 -0.1862  0.1860
  456MOL0     O60063   9.828   3.520   1.586  0.4321  0.1609  0.6842
  456MOL0     C60064   9.710   3.586   1.613  0.5196 -0.3591  0.2659
  456MOL0     C60065   9.629   3.575   1.731  0.4027 -0.5564  0.3070
  456MOL0     C60066   9.511   3.657   1.755  0.6890 -0.2255  0.2488
  456MOL0     C60067   9.458   3.750   1.668 -0.4744 -0.0686  0.7765
  456MOL0     O60068   9.365   3.846   1.687  0.7532  0.0402 -0.6673
  456MOL0     C60069   9.263   3.815   1.783  0.1004 -0.1350 -1.1746
  456MOL0     C60070   9.161   3.931   1.802 -1.1187 -0.6515 -0.5704
  456MOL0     C60071   9.093   3.964   1.666  0.9990  0.1132  0.6426
  456MOL0     C60072   9.178   4.029   1.558  0.4706 -0.4228  0.3185
  456MOL0     C60073   9.094   4.120   1.471  0.0948  0.6429 -0.3729
  456MOL0     C60074   9.038   4.235   1.559 -0.2048 -0.0391 -1.4213
  456MOL0     C60075   9.034   4.368   1.476 -0.7162 -0.6681  0.8105
  456MOL0     C60076   8.974   4.488   1.551  0.2498 -0.4713  0.9618
  456MOL0     N60077   8.829   4.483   1.528 -0.1280  0.6084 -0.1912
  456MOL0     C60078   8.733   4.547   1.600  0.3820  0.0835  0.3511
  456MOL0     C60079   8.616   4.520   1.544  0.0008  0.0139 -0.1040
  456MOL0     C60080   8.495   4.578   1.598  0.3291 -0.1093 -0.7130
  456MOL0     C60081   8.411   4.653   1.488 -0.8624  0.0942  0.2084
  456MOL0     C60082   8.270   4.689   1.555 -0.1145  0.2274 -0.3396
  456MOL0     C60083   8.186   4.768   1.458 -0.4907  0.4372 -0.1082
  456MOL0     O60084   8.054   4.798   1.503  0.2400 -0.1266 -0.0531
  456MOL0     C60085   7.940   4.734   1.458  0.0122  1.2510  0.9129
  456MOL0     C60086   7.935   4.642   1.363  0.1877 -0.1690  1.0893
  456MOL0     C60087   7.800   4.596   1.327  0.8165  0.4857 -0.6422
  456MOL0     C60088   7.685   4.638   1.390  0.7211  0.1735  0.1515
  456MOL0     C60089   7.552   4.580   1.357 -0.2666 -0.6033 -0.6443
  456MOL0     O60090   7.449   4.617   1.438 -0.5901  0.2810 -1.1828
  456MOL0     C60091   7.327   4.612   1.385 -0.2111  1.6188  0.3679
  456MOL0     C60092   7.291   4.662   1.254  0.1655  0.4396  1.1545
  456MOL0     C60093   7.150   4.662   1.215 -0.0817 -0.9691  1.6810
  456MOL0     C60094   7.063   4.608   1.311  0.1596 -0.5164  0.3927
  456MOL0     O60095   6.922   4.612   1.291  0.2982 -0.2062  0.0969
  456MOL0     C60096   6.868   4.721   1.221 -0.1442 -0.4596 -0.1514
  456MOL0     C60097   6.717   4.701   1.214  0.1452 -0.6394 -0.2468
  456MOL0     C60098   6.647   4.789   1.106 -1.0012  0.3445 -0.8239
  456MOL0     C60099   6.503   4.831   1.140 -0.0719 -0.0238  0.4998
  456MOL0     C60100   6.402   4.726   1.102 -0.6298  0.5528  0.2050
  456MOL0     C60101   6.353   4.751   0.953 -0.8112 -0.0118 -0.7604
  456MOL0     C60102   6.269   4.883   0.939  0.0711 -0.3226  0.1204
  456MOL0     C60103   6.192   4.884   0.801  0.2645 -0.0248 -0.0395
  456MOL0    Cl60104   6.093   4.736   0.788  0.0072  0.0352  0.0334
  456MOL0     C60105   7.099   4.544   1.426  0.5125 -0.4599 -0.2290
  456MOL0     C60106   7.234   4.548   1.472 -0.1303  0.4433  0.5640
  456MOL0     O60107   7.550   4.511   1.259 -0.5325  0.1885  0.1184
  456MOL0     C60108   7.701   4.729   1.495 -0.3112 -1.0769  0.2932
  456MOL0     C60109   7.825   4.774   1.530  0.6117 -0.1194  0.4620
  456MOL0     N60110   8.639   4.445   1.434 -0.5562  0.8209 -0.5228
  456MOL0     N60111   8.767   4.419   1.423  0.9288 -1.1371 -0.1612
  456MOL0     C60112   9.529   3.747   1.541  0.0635  0.0232 -0.1925
  456MOL0     C60113   9.650   3.670   1.517  0.1350  0.6904 -0.5098
  456MOL0     C60114  10.034   3.425   1.685 -0.3332  0.1423  0.4699
  456MOL0     C60115  10.144   3.433   1.773  0.2156  0.1764  1.1178
  456MOL0     C60116  10.246   3.341   1.777 -1.2652  0.5314 -0.9653
  456MOL0     C60117  10.233   3.212   1.720 -0.3308 -0.1476 -0.1988
  456MOL0     O60118  10.329   3.112   1.757 -0.1395 -0.0482  0.1566
  456MOL0     C60119  10.315   2.990   1.698 -0.0887  0.9972  0.1921
  456MOL0     C60120  10.224   2.903   1.788 -0.6348 -0.7583 -0.1822
  456MOL0     C60121  10.072   2.906   1.764  0.2245 -0.4796 -0.6568
  456MOL0     C60122   9.999   2.801   1.857  0.4404 -0.3798 -0.1759
  456MOL0     C60123   9.988   2.839   1.999 -0.4773 -0.1031  0.1242
  456MOL0     C60124   9.989   2.883   2.110 -0.0790 -0.1186 -0.7823
  456MOL0     C60125  10.125   3.199   1.632  0.7109  0.2708 -0.3425
  456MOL0     C60126  10.031   3.301   1.612 -0.3262  0.4351 -0.5121
  456MOL0     H60127   9.662   3.519   1.817 -0.0617  0.3738  1.1134
  456MOL0     H60128   9.484   3.657   1.860 -2.1831 -0.6233 -0.4040
  456MOL0     H60129   9.293   3.797   1.887 -2.2983  0.2169 -0.3496
  456MOL0     H60130   9.208   3.722   1.771  4.3719 -2.9739 -0.9407
  456MOL0     H60131   9.215   4.020   1.837 -0.7829 -0.9825 -0.2455
  456MOL0     H60132   9.089   3.912   1.882 -1.3779  3.7747  0.5183
  456MOL0     H60133   9.002   4.019   1.691 -0.2310  0.2563 -3.4701
  456MOL0     H60134   9.055   3.877   1.613 -0.1464  0.8868  0.1565
  456MOL0     H60135   9.258   4.086   1.606  1.1489 -0.6921 -0.4801
  456MOL0     H60136   9.220   3.956   1.489  2.7910 -0.6455  1.8438
  456MOL0     H60137   9.020   4.063   1.413  0.5560 -1.3318  0.9006
  456MOL0     H60138   9.156   4.174   1.398  0.8435 -1.1558 -1.1321
  456MOL0     H60139   9.102   4.253   1.647 -0.1616  0.7585 -1.6000
  456MOL0     H60140   8.936   4.208   1.586  0.5667 -1.3178  0.4556
  456MOL0     H60141   9.138   4.394   1.458 -0.9963 -0.0913 -0.0142
  456MOL0     H60142   8.988   4.360   1.377 -2.3684 -0.1784  1.4984
  456MOL0     H60143   9.012   4.576   1.500 -1.4838  0.3184  0.9406
  456MOL0     H60144   8.979   4.499   1.660  0.5839  2.1664  0.7378
  456MOL0     H60145   8.751   4.606   1.689 -1.4985  1.0392  0.1355
  456MOL0     H60146   8.514   4.634   1.690  4.6079 -3.7596  1.0130
  456MOL0     H60147   8.432   4.496   1.632 -0.1778 -0.1765 -1.7544
  456MOL0     H60148   8.409   4.594   1.395 -0.7264  2.8383 -1.6469
  456MOL0     H60149   8.458   4.748   1.462  0.9973 -0.6964  0.5114
  456MOL0     H60150   8.218   4.601   1.594  0.1585  0.1870 -0.0648
  456MOL0     H60151   8.291   4.760   1.636  0.6244  3.5514 -3.2064
  456MOL0     H60152   8.192   4.730   1.355  1.6034 -0.1671  0.1982
  456MOL0     H60153   8.236   4.865   1.459 -0.3002  0.3389 -0.1038
  456MOL0     H60154   8.020   4.608   1.305  0.9693  0.2081  1.9929
  456MOL0     H60155   7.781   4.530   1.242 -3.6572  2.2315 -1.3091
  456MOL0     H60156   7.371   4.712   1.200 -0.9540 -0.0070 -1.0612
  456MOL0     H60157   7.120   4.709   1.122  0.9664  0.4472  2.0366
  456MOL0     H60158   6.900   4.718   1.117  3.3164  0.6928  0.7307
  456MOL0     H60159   6.898   4.815   1.269 -0.7674  0.1716 -0.9716
  456MOL0     H60160   6.662   4.719   1.307 -1.1545  1.7790 -1.3850
  456MOL0     H60161   6.690   4.599   1.185  0.5425 -1.1151  1.0125
  456MOL0     H60162   6.658   4.746   1.005  0.7826  0.2011 -0.5973
  456MOL0     H60163   6.708   4.879   1.098  0.5283 -0.7676 -2.5888
  456MOL0     H60164   6.492   4.850   1.247  0.4957  2.1148  0.2387
  456MOL0     H60165   6.481   4.930   1.098  0.0560  0.3648  1.3240
  456MOL0     H60166   6.311   4.722   1.163 -0.9270 -1.3677 -0.3046
  456MOL0     H60167   6.462   4.634   1.111  0.2554  1.1730  0.8445
  456MOL0     H60168   6.307   4.662   0.910  1.2435 -1.6170  0.1880
  456MOL0     H60169   6.446   4.755   0.895 -0.1603 -1.6406  0.0866
  456MOL0     H60170   6.197   4.887   1.021  3.0400 -0.6839  2.9969
  456MOL0     H60171   6.325   4.977   0.948 -0.8731  0.4530 -1.5876
  456MOL0     H60172   6.260   4.870   0.717 -1.9123 -2.7663 -1.5243
  456MOL0     H60173   6.117   4.964   0.796  1.6182  1.1936 -1.5018
  456MOL0     H60174   7.021   4.489   1.478 -1.8324  2.7067 -0.1014
  456MOL0     H60175   7.269   4.499   1.562  1.9710  2.6086  1.0431
  456MOL0     H60176   7.614   4.776   1.539 -0.4896  1.3041 -2.3407
  456MOL0     H60177   7.835   4.848   1.609 -2.6399 -0.5336  1.4022
  456MOL0     H60178   9.508   3.823   1.466  3.2758  1.8649  0.6083
  456MOL0     H60179   9.695   3.695   1.421  0.3596  1.0949 -0.3010
  456MOL0     H60180  10.163   3.524   1.828 -0.7560 -0.4320  2.4962
  456MOL0     H60181  10.329   3.352   1.846 -1.1090 -2.5566 -0.4917
  456MOL0     H60182  10.417   2.949   1.692 -0.8983 -1.6139  2.1634
  456MOL0     H60183  10.287   2.987   1.593  0.9174 -0.6194 -0.0721
  456MOL0     H60184  10.259   2.801   1.773 -0.6519 -0.7455 -0.3144
  456MOL0     H60185  10.243   2.926   1.893  1.3469 -0.3707 -0.5786
  456MOL0     H60186  10.061   2.888   1.657 -2.6391  0.4420 -0.6095
  456MOL0     H60187  10.034   3.008   1.772 -0.5390 -0.4824 -3.2807
  456MOL0     H60188   9.903   2.783   1.809 -0.7782  2.4971  0.9748
  456MOL0     H60189  10.061   2.711   1.850  1.1034 -0.2317  2.4392
  456MOL0     H60190   9.997   2.927   2.207  1.4902 -4.2681  1.2309
  456MOL0     H60191  10.109   3.100   1.588 -2.2726 -0.8957  2.8842
  456MOL0     H60192   9.946   3.289   1.546 -1.9627  2.3388  1.1151
  457MOL0     O60193   0.516   2.244   8.988 -0.2623  0.0971  0.3405
  457MOL0     C60194   0.576   2.175   8.903 -0.2755  0.5308 -0.0992
  457MOL0     O60195   0.606   2.219   8.773 -0.0709 -0.1627 -0.6979
  457MOL0     C60196   0.590   2.350   8.739  0.3844 -0.1097 -0.9973
  457MOL0     C60197   0.525   2.379   8.620  0.7385 -0.2477  0.4009
  457MOL0     C60198   0.505   2.505   8.570  0.5612 -0.2925 -0.8567
  457MOL0     C60199   0.553   2.615   8.641 -0.9155  0.6965 -0.4883
  457MOL0     O60200   0.561   2.741   8.596  0.3995 -0.2139  0.0054
  457MOL0     C60201   0.443   2.788   8.530  0.9772 -0.0514  0.9203
  457MOL0     C60202   0.483   2.838   8.386  0.3557 -0.9002 -0.4091
  457MOL0     C60203   0.361   2.866   8.293  0.9553 -0.6101  0.8627
  457MOL0     C60204   0.285   2.991   8.342 -1.1305  0.1172 -0.4349
  457MOL0     C60205   0.187   3.056   8.236 -0.1279  0.0032 -0.4611
  457MOL0     C60206   0.092   3.132   8.329  0.3087  0.0271 -0.4248
  457MOL0     C60207   0.022   3.229   8.232  0.0733  0.1164  1.4936
  457MOL0     C60208  -0.109   3.293   8.277  0.4289  0.2007 -0.9855
  457MOL0     N60209  -0.171   3.397   8.195  0.0249 -0.2453  0.4976
  457MOL0     C60210  -0.117   3.521   8.188  0.1368 -0.7672  0.0845
  457MOL0     C60211  -0.193   3.590   8.094 -0.3274 -0.0749 -0.3178
  457MOL0     C60212  -0.180   3.732   8.055  0.3261  0.0394  0.2962
  457MOL0     C60213  -0.173   3.831   8.164 -0.2606  0.2119  0.3568
  457MOL0     C60214  -0.039   3.909   8.167 -1.4383  0.0624  0.4220
  457MOL0     C60215  -0.052   4.020   8.262 -1.3196 -0.7777 -0.3008
  457MOL0     O60216  -0.140   4.119   8.208  0.2401  0.8860  0.2643
  457MOL0     C60217  -0.190   4.215   8.282 -0.2995  0.3170 -1.1171
  457MOL0     C60218  -0.168   4.343   8.222  0.5627 -0.4426  0.6630
  457MOL0     C60219  -0.215   4.460   8.289  0.3304 -0.6776  0.4189
  457MOL0     C60220  -0.299   4.447   8.402 -0.2478  0.0554 -0.0386
  457MOL0     C60221  -0.369   4.567   8.469  0.7670  0.6742  0.6727
  457MOL0     O60222  -0.324   4.676   8.402 -0.7916  0.4796  0.7444
  457MOL0     C60223  -0.384   4.797   8.428 -0.3679 -0.3495 -0.1473
  457MOL0     C60224  -0.305   4.907   8.395  0.2126 -0.0022  0.1738
  457MOL0     C60225  -0.350   5.037   8.408 -1.3006 -0.4106  0.0682
  457MOL0     C60226  -0.477   5.068   8.451  0.0358 -0.9266  0.8030
  457MOL0     O60227  -0.529   5.194   8.465  0.1960 -0.6995 -0.6936
  457MOL0     C60228  -0.502   5.237   8.603  0.0963  0.6498 -0.3037
  457MOL0     C60229  -0.381   5.335   8.621  0.0307  0.0089 -0.4066
  457MOL0     C60230  -0.365   5.373   8.766 -0.4384 -0.4099 -0.1811
  457MOL0     C60231  -0.228   5.432   8.777 -0.3303 -0.5300 -0.8017
  457MOL0     C60232  -0.187   5.432   8.924  0.3239  0.4202 -0.6251
  457MOL0     C60233  -0.055   5.493   8.947 -0.9253 -0.4421 -0.7038
  457MOL0     C60234  -0.045   5.547   9.091  0.9331  0.3356  0.0121
  457MOL0     C60235   0.100   5.581   9.116 -0.4046 -0.2086 -0.1387
  457MOL0    Cl60236   0.194   5.424   9.135 -0.0312  0.0329  0.2937
  457MOL0     C60237  -0.563   4.960   8.478  1.1182  0.0753 -0.5418
  457MOL0     C60238  -0.514   4.832   8.477  0.3097  0.9732 -0.4505
  457MOL0     O60239  -0.451   4.563   8.561  0.6438  0.1330  0.5261
  457MOL0     C60240  -0.303   4.324   8.463 -0.3406 -0.1940 -0.2946
  457MOL0     C60241  -0.256   4.204   8.396 -0.7192 -0.2404 -0.4196
  457MOL0     N60242  -0.275   3.501   8.035 -0.7626 -0.1666  0.1371
  457MOL0     N60243  -0.264   3.389   8.093 -0.2965  0.3604 -0.7722
  457MOL0     C60244   0.595   2.590   8.771  0.6478 -0.4518 -0.8179
  457MOL0     C60245   0.631   2.464   8.813 -0.1161 -0.5656  0.4427
  457MOL0     C60246   0.581   2.034   8.938 -0.3506 -0.9879  0.0949
  457MOL0     C60247   0.613   1.934   8.839 -0.4079 -0.1972  0.7206
  457MOL0     C60248   0.616   1.796   8.875  0.9512  0.0584 -0.0971
  457MOL0     C60249   0.581   1.749   9.000  0.6602  0.5496 -0.6802
  457MOL0     O60250   0.571   1.614   9.024  0.5805  0.3533 -0.1374
  457MOL0     C60251   0.519   1.531   8.924 -0.6187 -0.1262  0.1207
  457MOL0     C60252   0.482   1.397   8.979  0.5544 -0.0939  0.0373
  457MOL0     C60253   0.387   1.406   9.098  0.1947 -0.3231  0.2803
  457MOL0     C60254   0.350   1.273   9.145  0.9547 -0.1548 -0.4671
  457MOL0     C60255   0.217   1.251   9.082 -0.2858  0.4187  0.3319
  457MOL0     C60256   0.102   1.235   9.041  0.0880  0.0390 -0.5471
  457MOL0     C60257   0.548   1.842   9.092  0.2744  0.2709 -0.3350
  457MOL0     C60258   0.545   1.980   9.068  0.3784 -0.3408  0.3725
  457MOL0     H60259   0.499   2.299   8.551  2.1919  1.5586 -2.3890
  457MOL0     H60260   0.469   2.525   8.470 -0.5611  2.7606  0.0551
  457MOL0     H60261   0.414   2.873   8.592  0.2879 -0.1298  0.7032
  457MOL0     H60262   0.359   2.719   8.530  0.1644  0.8672  2.7538
  457MOL0     H60263   0.545   2.769   8.328  0.8874 -1.1835  0.4779
  457MOL0     H60264   0.543   2.929   8.393  1.5875 -1.8165  2.0352
  457MOL0     H60265   0.286   2.787   8.291 -0.8661  1.0512 -1.0722
  457MOL0     H60266   0.392   2.884   8.190  1.9479  2.9850  1.6329
  457MOL0     H60267   0.241   2.955   8.436  1.6891 -0.2337  0.8586
  457MOL0     H60268   0.364   3.059   8.374 -1.5879 -0.0847  1.2365
  457MOL0     H60269   0.136   2.977   8.179 -0.6339  1.2245 -1.7687
  457MOL0     H60270   0.246   3.116   8.166 -0.4060 -0.6764 -1.2956
  457MOL0     H60271   0.146   3.178   8.413 -2.0858 -1.1175  1.8500
  457MOL0     H60272   0.023   3.067   8.383  0.5622  1.5114  1.8085
  457MOL0     H60273   0.096   3.304   8.201 -0.2301  0.5823  1.8813
  457MOL0     H60274  -0.005   3.180   8.138 -0.7605 -0.3670  1.9724
  457MOL0     H60275  -0.079   3.343   8.370  0.7965  2.7559 -2.3847
  457MOL0     H60276  -0.186   3.217   8.293 -2.0176  2.1245 -2.8748
  457MOL0     H60277  -0.045   3.567   8.255 -0.8665  0.3424  0.4408
  457MOL0     H60278  -0.263   3.758   7.990  1.5489 -0.1652 -1.4049
  457MOL0     H60279  -0.092   3.727   7.990  2.9254  2.1011  3.3025
  457MOL0     H60280  -0.182   3.793   8.266  1.5887  1.6434  1.1256
  457MOL0     H60281  -0.260   3.897   8.153 -2.5319 -2.6443  0.0634
  457MOL0     H60282   0.033   3.839   8.212 -2.2444 -0.2917  1.1808
  457MOL0     H60283   0.004   3.949   8.075  1.0617 -1.2828  0.8981
  457MOL0     H60284   0.047   4.061   8.287 -1.7242 -1.2544  2.4381
  457MOL0     H60285  -0.088   3.991   8.361  1.1189 -1.6144  0.4283
  457MOL0     H60286  -0.114   4.364   8.130 -1.3947  0.3878 -0.3582
  457MOL0     H60287  -0.197   4.559   8.249  2.7263 -0.5431  1.6216
  457MOL0     H60288  -0.203   4.883   8.367  1.3718  0.1539  3.7313
  457MOL0     H60289  -0.275   5.112   8.386  1.7653 -3.5073 -0.8535
  457MOL0     H60290  -0.508   5.146   8.664 -0.6458 -0.3255 -1.7729
  457MOL0     H60291  -0.588   5.300   8.629 -1.3804 -1.2407 -0.3334
  457MOL0     H60292  -0.382   5.417   8.548 -0.3436 -0.3703 -0.8356
  457MOL0     H60293  -0.302   5.268   8.587 -1.0096 -1.8724  0.7295
  457MOL0     H60294  -0.366   5.282   8.826 -0.4770 -1.4772 -1.7378
  457MOL0     H60295  -0.439   5.441   8.810 -0.8284  0.2783 -1.8240
  457MOL0     H60296  -0.143   5.390   8.722  1.3303 -0.3894  1.5175
  457MOL0     H60297  -0.242   5.537   8.750 -2.6029 -0.8559 -1.0609
  457MOL0     H60298  -0.173   5.327   8.950 -2.6246 -0.0259 -0.5409
  457MOL0     H60299  -0.262   5.467   8.996  1.3789 -0.5813  1.0075
  457MOL0     H60300  -0.039   5.583   8.888  1.0647 -0.4403 -0.2409
  457MOL0     H60301   0.023   5.424   8.914 -1.7129 -0.0961 -3.4998
  457MOL0     H60302  -0.107   5.637   9.099  1.3168  0.5230  0.9602
  457MOL0     H60303  -0.085   5.472   9.160  0.8795  1.7710  1.6089
  457MOL0     H60304   0.125   5.627   9.213  0.3148 -1.7984  0.4696
  457MOL0     H60305   0.146   5.635   9.033  0.5760 -0.2931  0.3302
  457MOL0     H60306  -0.668   4.978   8.498  0.9576 -1.8614  0.6385
  457MOL0     H60307  -0.578   4.752   8.515  1.3399 -0.7055 -2.0744
  457MOL0     H60308  -0.369   4.325   8.549 -0.5477  1.9639 -0.4159
  457MOL0     H60309  -0.261   4.101   8.428 -2.6797 -0.7095 -2.0630
  457MOL0     H60310   0.622   2.668   8.841 -0.7027 -2.4365  2.0833
  457MOL0     H60311   0.693   2.457   8.902 -1.0348 -1.2826  1.0401
  457MOL0     H60312   0.627   1.963   8.736 -1.5465  0.3770  0.7104
  457MOL0     H60313   0.624   1.724   8.795 -0.7572 -2.6068  1.9422
  457MOL0     H60314   0.583   1.509   8.838 -1.0124  1.0712 -0.5139
  457MOL0     H60315   0.431   1.580   8.882 -0.7607  0.6882  1.3167
  457MOL0     H60316   0.427   1.335   8.907 -1.5931 -1.0774  2.3617
  457MOL0     H60317   0.573   1.338   8.995  0.1509 -0.3005  1.7943
  457MOL0     H60318   0.304   1.472   9.071  0.2198 -0.8363 -1.1656
  457MOL0     H60319   0.441   1.457   9.177  2.3322 -3.0172  0.7297
  457MOL0     H60320   0.411   1.185   9.120 -0.1467 -1.0223 -0.1571
  457MOL0     H60321   0.317   1.268   9.249 -1.3729  0.6532 -1.1050
  457MOL0     H60322   0.001   1.218   9.011 -0.3077 -1.1022  1.2953
  457MOL0     H60323   0.514   1.812   9.191 -1.5102  3.7100  0.2501
  457MOL0     H60324   0.513   2.048   9.146  1.2992  1.5862 -0.8506
  458MOL0     O60325   6.809  10.752   0.978 -0.0925  0.1428  0.2209
  458MOL0     C60326   6.917  10.724   1.012 -0.1088 -0.8559  0.1433
  458MOL0     O60327   6.961  10.731   1.139  0.0362  0.4787  0.1566
  458MOL0     C60328   6.909  10.802   1.237  0.3161  0.3799 -0.1323
  458MOL0     C60329   6.938  10.754   1.365 -0.2216 -0.1235 -0.1266
  458MOL0     C60330   6.895  10.811   1.477  0.3474 -0.6191 -0.0114
  458MOL0     C60331   6.812  10.930   1.466 -1.0834  0.2878 -0.3302
  458MOL0     O60332   6.760  10.992   1.572 -0.1355  0.3373 -0.3971
  458MOL0     C60333   6.756  10.929   1.706 -0.3540 -0.2800  1.3000
  458MOL0     C60334   6.666  11.020   1.790 -0.3064 -0.9680 -0.0306
  458MOL0     C60335   6.505  11.004   1.752 -0.6560 -0.8870  0.2668
  458MOL0     C60336   6.450  10.863   1.797  0.1238 -0.0831 -0.5158
  458MOL0     C60337   6.299  10.855   1.767 -0.1934 -0.1882 -0.5018
  458MOL0     C60338   6.235  10.720   1.776  0.5121  1.4249 -0.1300
  458MOL0     C60339   6.082  10.731   1.758  0.0020  0.1199 -0.2743
  458MOL0     C60340   6.024  10.587   1.751 -0.1159 -0.2658  0.1446
  458MOL0     N60341   5.883  10.563   1.779 -0.4733 -0.0164  0.1356
  458MOL0     C60342   5.799  10.503   1.691  0.2253  0.1702 -0.5010
  458MOL0     C60343   5.674  10.506   1.748  0.0650  1.2990  0.4949
  458MOL0     C60344   5.540  10.470   1.681 -0.2795 -0.6077  0.6210
  458MOL0     C60345   5.481  10.604   1.628 -0.1464  0.4421 -0.1904
  458MOL0     C60346   5.329  10.597   1.589 -0.6887  0.3119  0.3405
  458MOL0     C60347   5.267  10.729   1.541 -0.3654 -0.4885  0.1593
  458MOL0     O60348   5.127  10.705   1.544  0.6955  0.2975 -1.0223
  458MOL0     C60349   5.030  10.804   1.508 -0.0549  0.2375  0.6405
  458MOL0     C60350   4.889  10.768   1.519  0.0875 -0.5062  0.0554
  458MOL0     C60351   4.785  10.849   1.477 -0.2779 -1.1279  0.5707
  458MOL0     C60352   4.815  10.985   1.441  0.7321 -0.3865  0.6797
  458MOL0     C60353   4.710  11.083   1.417  0.4229  0.3409 -0.4213
  458MOL0     O60354   4.588  11.030   1.443 -0.6389 -0.3491  0.6582
  458MOL0     C60355   4.469  11.106   1.463  0.4654  0.0130  1.3347
  458MOL0     C60356   4.355  11.062   1.396 -0.5141  0.5710 -0.6146
  458MOL0     C60357   4.233  11.133   1.421  0.2447 -0.0818  0.6733
  458MOL0     C60358   4.224  11.242   1.505 -0.8141  0.0303  0.8950
  458MOL0     O60359   4.117  11.316   1.541 -0.1918 -0.2641  0.5921
  458MOL0     C60360   3.986  11.274   1.485 -0.5457  0.6206  0.2339
  458MOL0     C60361   3.868  11.364   1.523  0.0495  0.7909  0.3582
  458MOL0     C60362   3.725  11.301   1.513  0.0140 -0.0488  0.1376
  458MOL0     C60363   3.630  11.412   1.544  0.7606  0.2170  0.6800
  458MOL0     C60364   3.483  11.369   1.520 -0.1913 -0.3685  0.3928
  458MOL0     C60365   3.422  11.271   1.622  0.4831 -0.1941 -0.9308
  458MOL0     C60366   3.291  11.316   1.692 -0.0443  0.3201  0.3137
  458MOL0     C60367   3.190  11.333   1.583  1.0229  0.6607 -0.2341
  458MOL0    Cl60368   3.011  11.287   1.623 -0.2328 -0.0710  0.6721
  458MOL0     C60369   4.345  11.281   1.566 -0.5509 -0.1427  0.0020
  458MOL0     C60370   4.464  11.215   1.548 -0.1640  1.1373 -0.3457
  458MOL0     O60371   4.729  11.202   1.381 -0.1967  1.0580  0.3398
  458MOL0     C60372   4.947  11.027   1.439 -0.0861 -0.0921 -1.6273
  458MOL0     C60373   5.056  10.938   1.472  0.0936  0.5465 -0.1845
  458MOL0     N60374   5.697  10.556   1.877  0.3306 -0.1032 -1.3649
  458MOL0     N60375   5.821  10.592   1.893  0.1291 -0.0930 -0.3520
  458MOL0     C60376   6.778  10.972   1.340  0.4007  0.3290  0.3789
  458MOL0     C60377   6.831  10.915   1.222 -0.4472 -0.0408 -0.8474
  458MOL0     C60378   7.008  10.663   0.903 -0.3230 -0.2636  0.2996
  458MOL0     C60379   7.148  10.659   0.917 -0.6630 -0.8231  0.0980
  458MOL0     C60380   7.237  10.603   0.828 -0.1613 -0.6824  0.4232
  458MOL0     C60381   7.175  10.558   0.705 -0.2379  0.1748 -0.1936
  458MOL0     O60382   7.257  10.509   0.606 -0.4111  0.0941 -0.3589
  458MOL0     C60383   7.227  10.516   0.474  0.6687 -0.1400  0.2092
  458MOL0     C60384   7.359  10.485   0.397 -1.2438  0.0626 -0.3405
  458MOL0     C60385   7.319  10.475   0.246  0.3822  0.1984  1.1042
  458MOL0     C60386   7.272  10.330   0.194 -0.5475 -0.3336  0.3044
  458MOL0     C60387   7.248  10.332   0.044  0.8727 -0.5012 -0.8545
  458MOL0     C60388   7.223  10.342  -0.077 -0.0931  0.4562  0.3200
  458MOL0     C60389   7.039  10.557   0.687  0.1730  0.8765 -0.2355
  458MOL0     C60390   6.951  10.614   0.784  0.5638 -0.0259 -0.1203
  458MOL0     H60391   6.995  10.662   1.372  1.8200  0.9277 -1.6567
  458MOL0     H60392   6.923  10.758   1.567  0.1258  0.1580  0.5205
  458MOL0     H60393   6.854  10.936   1.754 -0.2960 -1.7270  1.4326
  458MOL0     H60394   6.722  10.826   1.699  1.8417 -1.4815  5.1237
  458MOL0     H60395   6.705  11.121   1.778  3.0493 -1.7572  2.6299
  458MOL0     H60396   6.682  10.997   1.895  1.8395  0.7714  0.0796
  458MOL0     H60397   6.484  11.023   1.647  1.6139  2.9178  0.3098
  458MOL0     H60398   6.445  11.083   1.799 -2.9860 -0.5111 -3.0466
  458MOL0     H60399   6.504  10.788   1.738 -1.3162 -1.2334 -0.4434
  458MOL0     H60400   6.474  10.828   1.898  0.9044 -1.7170 -1.2403
  458MOL0     H60401   6.273  10.904   1.672  0.6826  2.1277  0.3901
  458MOL0     H60402   6.261  10.918   1.848  2.3859  1.6375 -0.6002
  458MOL0     H60403   6.258  10.673   1.873 -0.0186  1.6719  0.1195
  458MOL0     H60404   6.264  10.656   1.692 -1.6596 -0.8390  0.6979
  458MOL0     H60405   6.044  10.792   1.840 -2.7484 -0.8803 -0.6979
  458MOL0     H60406   6.065  10.780   1.662 -4.1958  0.8083  0.6298
  458MOL0     H60407   6.081  10.532   1.826  1.2620  1.1861  0.2099
  458MOL0     H60408   6.043  10.540   1.654  1.5729  0.8333 -0.1088
  458MOL0     H60409   5.820  10.478   1.588  3.4150 -1.8191  0.4774
  458MOL0     H60410   5.473  10.427   1.756 -2.3717  1.0471 -0.1891
  458MOL0     H60411   5.550  10.414   1.588 -1.3212  0.8498 -0.4206
  458MOL0     H60412   5.542  10.646   1.548 -1.9564  1.7808 -0.9498
  458MOL0     H60413   5.486  10.679   1.708 -2.4203 -0.4422  0.8745
  458MOL0     H60414   5.327  10.525   1.506  2.3317 -1.9993  2.0470
  458MOL0     H60415   5.270  10.568   1.676  0.0943 -0.2925  0.6832
  458MOL0     H60416   5.302  10.742   1.438 -2.7582 -4.5044 -1.4048
  458MOL0     H60417   5.299  10.815   1.601 -1.6982  0.4932 -0.4953
  458MOL0     H60418   4.873  10.680   1.581  3.2708 -0.0333  1.7165
  458MOL0     H60419   4.679  10.828   1.483 -1.2026  1.8991 -2.4427
  458MOL0     H60420   4.369  10.993   1.313  4.1759  0.5228 -0.0385
  458MOL0     H60421   4.140  11.102   1.374  0.9079 -0.0452 -0.7350
  458MOL0     H60422   3.953  11.179   1.528 -0.0258 -0.0547 -0.8107
  458MOL0     H60423   3.995  11.267   1.376  0.3903 -0.2714  0.3515
  458MOL0     H60424   3.866  11.449   1.454 -0.5821  3.5754  3.5104
  458MOL0     H60425   3.876  11.412   1.621 -0.5516 -1.3533  1.5214
  458MOL0     H60426   3.708  11.214   1.578  1.1231 -1.4185 -1.3356
  458MOL0     H60427   3.712  11.267   1.410 -4.8391 -0.5668  0.6730
  458MOL0     H60428   3.645  11.443   1.648  1.7368  0.3656  0.5041
  458MOL0     H60429   3.654  11.499   1.482 -2.1988 -2.2593 -4.6113
  458MOL0     H60430   3.473  11.324   1.420 -0.1756 -1.3209  0.8110
  458MOL0     H60431   3.424  11.461   1.523 -1.4241 -0.8051 -3.5957
  458MOL0     H60432   3.495  11.257   1.702 -1.6413  3.3779  1.9554
  458MOL0     H60433   3.411  11.167   1.591 -1.9163 -0.3819  0.2939
  458MOL0     H60434   3.269  11.238   1.766  0.8105  1.9594  2.4278
  458MOL0     H60435   3.298  11.414   1.740 -0.3101  1.3168 -1.6092
  458MOL0     H60436   3.219  11.268   1.499  0.9046 -0.0803  0.2903
  458MOL0     H60437   3.197  11.433   1.540  0.4829  0.3194 -1.1566
  458MOL0     H60438   4.345  11.372   1.626 -0.2182 -1.6585  2.4295
  458MOL0     H60439   4.554  11.247   1.601  0.4516  0.4915 -0.9759
  458MOL0     H60440   4.967  11.132   1.422 -1.2615  0.5018  0.3147
  458MOL0     H60441   5.160  10.965   1.454 -0.2049  1.4169 -0.7045
  458MOL0     H60442   6.724  11.064   1.320  1.9808  1.2590  0.1466
  458MOL0     H60443   6.784  10.942   1.128 -0.4974 -0.5478 -0.9701
  458MOL0     H60444   7.179  10.690   1.017 -1.2935 -1.2384  0.4304
  458MOL0     H60445   7.344  10.591   0.835 -0.3427 -4.4411 -0.8495
  458MOL0     H60446   7.173  10.608   0.450 -1.6902 -1.4384  0.1842
  458MOL0     H60447   7.154  10.435   0.465  0.5243 -0.2068  1.6103
  458MOL0     H60448   7.424  10.571   0.410 -0.8986 -0.4122  1.4391
  458MOL0     H60449   7.414  10.396   0.429 -1.4966  0.9774  3.0742
  458MOL0     H60450   7.405  10.506   0.187 -2.4939  2.1433 -2.4168
  458MOL0     H60451   7.248  10.551   0.215  2.8670  1.0904 -3.1243
  458MOL0     H60452   7.339  10.249   0.224 -1.2077  0.0468  3.0778
  458MOL0     H60453   7.174  10.316   0.241 -0.7934  1.5683  0.4020
  458MOL0     H60454   7.211  10.359  -0.182  1.5130  2.4251  0.3791
  458MOL0     H60455   6.995  10.521   0.594 -0.4927 -0.9010  0.7268
  458MOL0     H60456   6.844  10.623   0.769  0.2267  3.2134  2.8463
  459MOL0     O60457   3.012   3.299   2.720  0.4481  0.2220 -0.1331
  459MOL0     C60458   3.072   3.194   2.710 -0.3009  0.4130 -0.1019
  459MOL0     O60459   3.097   3.107   2.805 -0.1897 -0.5124 -0.1984
  459MOL0     C60460   3.059   3.123   2.933  0.1519  1.3964 -0.1981
  459MOL0     C60461   3.024   3.005   2.995  0.2373 -0.6170  0.1242
  459MOL0     C60462   2.983   3.005   3.128 -0.0052  0.6564 -0.1654
  459MOL0     C60463   2.978   3.123   3.207 -0.1934  0.8539  0.4994
  459MOL0     O60464   2.913   3.108   3.327 -0.1705  0.1710 -0.5046
  459MOL0     C60465   2.913   3.222   3.421  0.3537  0.3015  0.3563
  459MOL0     C60466   3.052   3.247   3.483  0.0564  0.3099  0.4515
  459MOL0     C60467   3.052   3.389   3.547 -0.7901  0.6815 -0.9633
  459MOL0     C60468   3.163   3.400   3.654 -0.3900 -0.4626 -0.9610
  459MOL0     C60469   3.301   3.363   3.600 -0.3332 -0.5208 -0.1876
  459MOL0     C60470   3.405   3.392   3.717  0.5092 -0.1202  0.1866
  459MOL0     C60471   3.555   3.386   3.676 -1.4278  0.0417 -0.3729
  459MOL0     C60472   3.611   3.240   3.673  0.0572 -1.0276 -0.3317
  459MOL0     N60473   3.732   3.235   3.588  0.7032 -0.1193  0.5912
  459MOL0     C60474   3.761   3.177   3.466 -0.2596 -0.1911  0.1955
  459MOL0     C60475   3.896   3.188   3.436  0.3965 -0.5835 -0.1062
  459MOL0     C60476   3.987   3.137   3.330  0.8256 -0.3250  0.3123
  459MOL0     C60477   4.035   3.008   3.395 -0.2115  0.2100 -0.5762
  459MOL0     C60478   4.111   2.937   3.288  0.2641 -0.6484 -0.2576
  459MOL0     C60479   4.151   2.796   3.326 -0.0860 -0.5015 -0.9680
  459MOL0     O60480   4.039   2.708   3.285 -0.4315  0.0886  0.3240
  459MOL0     C60481   4.009   2.685   3.152  0.7268  0.9768 -0.1806
  459MOL0     C60482   3.884   2.720   3.097 -0.2927  0.3642 -0.1265
  459MOL0     C60483   3.875   2.702   2.955 -1.2739 -0.4818 -0.4890
  459MOL0     C60484   3.982   2.637   2.884  0.1282  0.9281  0.6608
  459MOL0     C60485   3.979   2.626   2.734  0.0891 -0.4892 -0.0458
  459MOL0     O60486   3.856   2.660   2.676 -0.3396  0.0592 -0.3041
  459MOL0     C60487   3.868   2.668   2.534  0.1869 -1.2830 -1.2008
  459MOL0     C60488   3.882   2.561   2.451 -0.4980  1.8175 -0.4587
  459MOL0     C60489   3.871   2.559   2.309  0.0638  0.3410  0.1994
  459MOL0     C60490   3.876   2.682   2.240 -0.3255  0.8732  0.7773
  459MOL0     O60491   3.879   2.669   2.100  0.1617 -0.6649 -0.3888
  459MOL0     C60492   3.833   2.772   2.020 -0.0177  0.1117  0.5303
  459MOL0     C60493   3.956   2.841   1.954  1.0316  1.0012 -0.1106
  459MOL0     C60494   4.045   2.746   1.875  0.0608 -1.0450 -0.3770
  459MOL0     C60495   4.155   2.831   1.794  0.4822  0.4171  0.1923
  459MOL0     C60496   4.108   2.895   1.661 -0.1637  0.1061  0.0488
  459MOL0     C60497   4.058   2.800   1.554 -0.1789  0.1273  0.6017
  459MOL0     C60498   4.009   2.879   1.430 -0.2171  0.7960 -0.0614
  459MOL0     C60499   4.097   2.856   1.311 -0.6210  1.0204  0.7942
  459MOL0    Cl60500   4.101   2.680   1.257  0.2428 -0.2932  0.1035
  459MOL0     C60501   3.892   2.800   2.318 -1.0489 -0.5548  0.7842
  459MOL0     C60502   3.892   2.792   2.460  0.1955  0.1042 -0.1089
  459MOL0     O60503   4.086   2.616   2.678 -1.1460 -0.1677 -0.1572
  459MOL0     C60504   4.093   2.595   2.946 -0.2700 -0.1671 -0.4875
  459MOL0     C60505   4.114   2.625   3.080 -0.0261  0.0643 -0.6798
  459MOL0     N60506   3.946   3.263   3.545 -0.6775  0.1674 -0.4991
  459MOL0     N60507   3.844   3.303   3.622  0.6770  0.8821 -0.1042
  459MOL0     C60508   3.016   3.242   3.146 -0.3697 -0.3489 -0.2382
  459MOL0     C60509   3.057   3.241   3.014 -0.6865 -0.4465  0.0314
  459MOL0     C60510   3.130   3.166   2.580  0.3860 -0.1253  0.6042
  459MOL0     C60511   3.067   3.218   2.456  0.0293  0.0749 -0.1563
  459MOL0     C60512   3.108   3.175   2.335  0.9009 -0.2267 -0.9102
  459MOL0     C60513   3.223   3.096   2.320 -0.1351  0.2962  0.8801
  459MOL0     O60514   3.271   3.075   2.187  0.0843  0.2717 -0.1350
  459MOL0     C60515   3.231   2.955   2.125 -0.6744 -0.4316  0.5397
  459MOL0     C60516   3.225   2.989   1.979 -0.2637  0.6905  0.2350
  459MOL0     C60517   3.352   3.071   1.932  0.5746  0.6163  0.2138
  459MOL0     C60518   3.486   3.014   1.979 -0.1242  0.3490  1.0662
  459MOL0     C60519   3.502   2.884   1.908 -0.3366 -0.7890  0.6354
  459MOL0     C60520   3.498   2.793   1.835 -0.8067  0.0090  0.3888
  459MOL0     C60521   3.289   3.038   2.434  0.4215  0.3622  0.0420
  459MOL0     C60522   3.246   3.079   2.559 -0.4307  0.2781 -0.4928
  459MOL0     H60523   3.030   2.910   2.943 -1.3458 -0.5826 -0.1726
  459MOL0     H60524   2.933   2.916   3.163  1.7672  0.6913  2.7511
  459MOL0     H60525   2.835   3.214   3.498 -1.7370  3.0073 -1.2759
  459MOL0     H60526   2.886   3.310   3.362 -2.5672  0.2814  1.4831
  459MOL0     H60527   3.133   3.246   3.410  0.9132  1.8439  1.3383
  459MOL0     H60528   3.066   3.160   3.549 -0.8128 -0.5848 -0.5109
  459MOL0     H60529   2.963   3.400   3.609  1.8184 -1.8363  3.8182
  459MOL0     H60530   3.064   3.465   3.470 -1.6592  2.6807  0.7879
  459MOL0     H60531   3.166   3.503   3.691  3.1616 -1.0679  0.8215
  459MOL0     H60532   3.152   3.332   3.739  1.5823  1.8794  1.3387
  459MOL0     H60533   3.330   3.432   3.521 -0.5169  0.6869  0.7756
  459MOL0     H60534   3.305   3.262   3.558 -1.4706  0.2940 -2.3798
  459MOL0     H60535   3.382   3.333   3.806 -1.6057 -1.3668 -1.0946
  459MOL0     H60536   3.381   3.492   3.753 -3.3736 -1.1627  0.9384
  459MOL0     H60537   3.560   3.437   3.579  1.8983  4.4855  1.7502
  459MOL0     H60538   3.620   3.452   3.735 -1.1776 -0.0846 -0.5057
  459MOL0     H60539   3.533   3.174   3.635 -2.1263  0.7985  0.7617
  459MOL0     H60540   3.631   3.216   3.778 -0.5512 -0.4723 -0.0812
  459MOL0     H60541   3.696   3.120   3.400 -1.1841  2.5782 -1.4193
  459MOL0     H60542   4.075   3.199   3.314  0.7438  0.3877  2.3922
  459MOL0     H60543   3.938   3.116   3.234  4.1195  2.2556 -2.2029
  459MOL0     H60544   3.945   2.951   3.420 -0.0958  0.1140 -0.3761
  459MOL0     H60545   4.099   3.037   3.479  0.5605  2.4860 -1.8523
  459MOL0     H60546   4.052   2.921   3.197 -0.6291 -2.3159  0.5567
  459MOL0     H60547   4.194   3.006   3.274 -0.3122  0.6968  2.4093
  459MOL0     H60548   4.174   2.798   3.433 -1.4668  3.2650 -0.5882
  459MOL0     H60549   4.246   2.769   3.278  0.7304  1.2314 -0.4142
  459MOL0     H60550   3.790   2.749   3.144  0.5541  1.0712  1.1841
  459MOL0     H60551   3.785   2.711   2.895 -0.0395 -1.3784 -2.6076
  459MOL0     H60552   3.890   2.460   2.490 -2.7541  1.1031 -1.6955
  459MOL0     H60553   3.866   2.467   2.252 -1.2865 -1.5261  3.0756
  459MOL0     H60554   3.773   2.851   2.067 -0.0074  0.0440  0.6584
  459MOL0     H60555   3.762   2.734   1.946  0.0846 -3.0487  1.8853
  459MOL0     H60556   4.015   2.883   2.035 -0.7362  0.3640  1.5797
  459MOL0     H60557   3.917   2.908   1.877 -2.0508 -1.0525 -0.5337
  459MOL0     H60558   3.976   2.686   1.814 -0.7471 -0.4309 -0.0797
  459MOL0     H60559   4.097   2.678   1.943  0.4684 -0.2580  0.1085
  459MOL0     H60560   4.176   2.916   1.859  0.4071 -0.1419  0.9499
  459MOL0     H60561   4.253   2.784   1.787  0.9243  1.3449 -0.0118
  459MOL0     H60562   4.183   2.962   1.620  0.5145  0.1765  1.3537
  459MOL0     H60563   4.014   2.948   1.682 -1.1348 -1.3769 -0.3715
  459MOL0     H60564   3.986   2.729   1.595  0.7670  0.2181  2.5419
  459MOL0     H60565   4.139   2.737   1.516 -0.2941  0.7196 -0.6924
  459MOL0     H60566   3.908   2.846   1.406  0.1942 -1.9492  1.5075
  459MOL0     H60567   4.016   2.985   1.455  2.2345  0.3200  1.6728
  459MOL0     H60568   4.197   2.882   1.347 -0.4346  1.7503 -0.1997
  459MOL0     H60569   4.078   2.916   1.222 -0.4574 -1.0139 -0.6892
  459MOL0     H60570   3.904   2.893   2.263  0.2244 -0.8903  0.4603
  459MOL0     H60571   3.915   2.880   2.520  0.3152  2.2155 -3.0307
  459MOL0     H60572   4.166   2.543   2.885 -0.2284 -2.4626  1.3750
  459MOL0     H60573   4.212   2.601   3.123  0.5957  2.8135 -0.3798
  459MOL0     H60574   3.009   3.335   3.202 -0.9724 -1.2060  1.1545
  459MOL0     H60575   3.098   3.329   2.966  0.6945 -1.0183  0.0961
  459MOL0     H60576   2.989   3.293   2.458  1.2597  1.4202 -1.1293
  459MOL0     H60577   3.055   3.218   2.251 -0.2371  0.4365  0.1068
  459MOL0     H60578   3.141   2.917   2.173 -0.1176 -0.1877  1.8310
  459MOL0     H60579   3.303   2.874   2.142 -0.6636 -0.0412  2.6565
  459MOL0     H60580   3.228   2.896   1.921 -2.8515 -0.0108  1.1231
  459MOL0     H60581   3.131   3.042   1.963  0.6455  1.8035 -1.8977
  459MOL0     H60582   3.331   3.171   1.971 -1.6285 -0.0939  0.9762
  459MOL0     H60583   3.350   3.074   1.823 -1.8546 -2.5793  0.0377
  459MOL0     H60584   3.561   3.089   1.953  1.5810 -1.6820 -0.2437
  459MOL0     H60585   3.494   3.001   2.087 -3.4945 -1.7788  1.2083
  459MOL0     H60586   3.508   2.718   1.759  5.0036  0.0965  0.6587
  459MOL0     H60587   3.364   2.966   2.400  1.0673 -0.2378  2.5565
  459MOL0     H60588   3.307   3.040   2.640 -1.8104 -0.0060  0.4559
  460MOL0     O60589   2.666   2.233   7.936  0.4485  0.1044  0.5852
  460MOL0     C60590   2.746   2.234   8.028 -0.3073  0.4612  0.5638
  460MOL0     O60591   2.730   2.288   8.153 -0.0846  0.3984 -0.3103
  460MOL0     C60592   2.622   2.353   8.177  0.7952  0.8818 -1.0634
  460MOL0     C60593   2.502   2.282   8.199 -0.7572 -0.3038 -0.9518
  460MOL0     C60594   2.384   2.359   8.215  0.1720  0.4010  0.5211
  460MOL0     C60595   2.385   2.498   8.220 -0.0254 -0.1494  0.1304
  460MOL0     O60596   2.284   2.577   8.258  0.7757 -0.0609 -0.1326
  460MOL0     C60597   2.150   2.530   8.276  0.4328 -0.1673  0.3043
  460MOL0     C60598   2.052   2.653   8.296 -0.9300 -0.1266  0.9281
  460MOL0     C60599   1.901   2.623   8.339  0.1827  0.0554 -0.5705
  460MOL0     C60600   1.828   2.754   8.370 -0.1692 -0.0685 -0.2036
  460MOL0     C60601   1.736   2.735   8.488 -1.1944 -0.2946  0.5783
  460MOL0     C60602   1.616   2.637   8.466  0.0588 -0.8639 -0.5869
  460MOL0     C60603   1.547   2.588   8.602  1.2001 -0.3301 -0.2857
  460MOL0     C60604   1.432   2.693   8.650  0.0145 -0.4244  0.0124
  460MOL0     N60605   1.493   2.803   8.738  0.5927 -0.6062  0.8952
  460MOL0     C60606   1.532   2.929   8.703 -0.3227 -0.3939 -0.1469
  460MOL0     C60607   1.567   2.985   8.821 -0.0110 -0.3100 -0.3463
  460MOL0     C60608   1.641   3.109   8.848 -0.5526  0.4311 -0.0703
  460MOL0     C60609   1.793   3.111   8.806 -0.1693  0.4707 -0.2323
  460MOL0     C60610   1.879   3.050   8.917  0.6017  1.0138 -0.6516
  460MOL0     C60611   1.896   2.904   8.898 -0.0715 -0.0962 -0.9552
  460MOL0     O60612   1.954   2.866   8.769 -0.2077  0.3328 -0.1612
  460MOL0     C60613   1.997   2.732   8.753  0.4840  0.1807  0.0918
  460MOL0     C60614   2.111   2.705   8.684 -0.7183  0.2326  0.4674
  460MOL0     C60615   2.151   2.575   8.661 -0.2455 -0.6846  0.0853
  460MOL0     C60616   2.084   2.466   8.711  0.8379  0.2107  0.1493
  460MOL0     C60617   2.126   2.328   8.681  0.1408 -0.4369  0.3741
  460MOL0     O60618   2.245   2.313   8.614  0.2787  0.5035 -0.1188
  460MOL0     C60619   2.280   2.186   8.572 -0.7429  0.1720  0.8971
  460MOL0     C60620   2.195   2.099   8.507  0.8374 -0.2884 -0.5315
  460MOL0     C60621   2.236   1.985   8.437 -0.0110  0.0185 -0.3205
  460MOL0     C60622   2.369   1.951   8.425  0.1374 -0.9412  0.5300
  460MOL0     O60623   2.419   1.872   8.332  0.6481  0.5140 -0.5813
  460MOL0     C60624   2.357   1.744   8.349  0.8193  0.6162  0.1532
  460MOL0     C60625   2.447   1.648   8.279 -0.0173 -0.3425 -0.9842
  460MOL0     C60626   2.407   1.507   8.326  0.3725  0.2537 -0.3336
  460MOL0     C60627   2.263   1.470   8.282 -1.0004  0.5057 -0.4277
  460MOL0     C60628   2.235   1.321   8.278  0.0359 -0.1085  0.7321
  460MOL0     C60629   2.225   1.275   8.431 -0.6440  0.2991  0.2075
  460MOL0     C60630   2.092   1.296   8.498  0.2518  1.1843 -0.3887
  460MOL0     C60631   2.102   1.330   8.646  0.6403 -0.8702 -0.8806
  460MOL0    Cl60632   1.959   1.265   8.730 -0.2815 -0.1379 -0.0241
  460MOL0     C60633   2.458   2.042   8.504  0.1164  0.1261 -0.2867
  460MOL0     C60634   2.417   2.163   8.562 -1.4143 -0.2082 -0.2586
  460MOL0     O60635   2.054   2.241   8.717 -0.1928 -0.5615 -0.0258
  460MOL0     C60636   1.969   2.493   8.780  0.3331 -0.0405 -0.1964
  460MOL0     C60637   1.918   2.620   8.793 -0.9079  0.2570 -0.2285
  460MOL0     N60638   1.560   2.890   8.923 -0.2331  0.0983  0.2001
  460MOL0     N60639   1.518   2.779   8.878  0.1237 -0.9747  0.7490
  460MOL0     C60640   2.502   2.562   8.195  0.6941  0.2922 -0.2080
  460MOL0     C60641   2.618   2.488   8.177  0.3785  0.7907 -0.9225
  460MOL0     C60642   2.876   2.170   7.991 -0.8417  0.0789 -0.7754
  460MOL0     C60643   2.980   2.152   8.080 -0.0352  0.4249 -0.2784
  460MOL0     C60644   3.112   2.084   8.048  0.3437 -0.0469 -0.5282
  460MOL0     C60645   3.123   2.020   7.928 -0.1666  0.2429  0.0735
  460MOL0     O60646   3.248   1.962   7.910  0.3642  0.3922  1.4888
  460MOL0     C60647   3.255   1.850   7.815 -0.3587 -0.0197 -0.5670
  460MOL0     C60648   3.411   1.829   7.797  0.1195 -0.5000  0.9965
  460MOL0     C60649   3.426   1.711   7.694 -0.4868  0.2384  0.1504
  460MOL0     C60650   3.563   1.653   7.704 -0.3617 -0.1188  1.5062
  460MOL0     C60651   3.660   1.751   7.650 -0.1149 -0.6081 -0.2268
  460MOL0     C60652   3.742   1.825   7.605  0.0326 -0.2806  0.4499
  460MOL0     C60653   3.012   2.025   7.836 -0.9697  0.4147 -0.3243
  460MOL0     C60654   2.901   2.109   7.863  0.1848 -0.1734 -0.0684
  460MOL0     H60655   2.508   2.173   8.196  2.3730 -0.2478 -0.5928
  460MOL0     H60656   2.295   2.301   8.239  2.1922 -3.8212 -1.1876
  460MOL0     H60657   2.129   2.455   8.353 -1.3330  1.0007  1.0399
  460MOL0     H60658   2.120   2.479   8.184  1.8662 -2.7440  1.1757
  460MOL0     H60659   2.053   2.717   8.208  2.4252 -1.9112 -0.4846
  460MOL0     H60660   2.102   2.711   8.375  2.9045 -0.9282 -0.7244
  460MOL0     H60661   1.900   2.549   8.419 -0.8625 -0.2497 -0.8531
  460MOL0     H60662   1.861   2.572   8.251  3.1211 -0.9395 -1.4305
  460MOL0     H60663   1.901   2.827   8.405  0.3143 -1.4722  1.8844
  460MOL0     H60664   1.775   2.788   8.280 -0.7352  1.6908  0.7458
  460MOL0     H60665   1.697   2.836   8.504  0.8101  0.7160 -0.5922
  460MOL0     H60666   1.799   2.709   8.573 -0.4696  0.7157  0.3710
  460MOL0     H60667   1.660   2.558   8.404  1.9796  0.6177 -1.2424
  460MOL0     H60668   1.539   2.680   8.401 -1.1456 -0.9167  0.7683
  460MOL0     H60669   1.501   2.492   8.580  1.0982 -0.3528  0.0245
  460MOL0     H60670   1.627   2.581   8.676  0.3116 -0.0967  0.7315
  460MOL0     H60671   1.351   2.642   8.702  0.6466  2.9271  4.8884
  460MOL0     H60672   1.387   2.745   8.564  1.1910  0.5795 -0.0285
  460MOL0     H60673   1.522   2.980   8.608 -0.0599 -0.9661 -0.4831
  460MOL0     H60674   1.623   3.144   8.951 -0.3099 -0.9000  0.4490
  460MOL0     H60675   1.591   3.183   8.786 -0.9819  1.0884  1.0330
  460MOL0     H60676   1.823   3.216   8.809  2.8703 -0.2585 -1.4524
  460MOL0     H60677   1.806   3.072   8.704 -3.4519  2.4301 -1.5499
  460MOL0     H60678   1.979   3.094   8.912  1.4024 -0.8262 -2.1092
  460MOL0     H60679   1.840   3.084   9.013  1.8634  0.6647 -0.0025
  460MOL0     H60680   1.805   2.848   8.923 -0.3629  1.7336  2.8956
  460MOL0     H60681   1.969   2.882   8.976 -0.5190  1.8849  0.0889
  460MOL0     H60682   2.175   2.782   8.644 -1.4578  1.9697  2.4492
  460MOL0     H60683   2.234   2.567   8.591  1.9028  0.5866  2.2902
  460MOL0     H60684   2.087   2.107   8.505  0.8235 -0.3065  0.1096
  460MOL0     H60685   2.158   1.925   8.391  0.1737 -1.3582  1.0610
  460MOL0     H60686   2.257   1.750   8.307  0.8492 -0.6309 -0.1304
  460MOL0     H60687   2.348   1.713   8.454 -0.3384 -1.1669 -0.4295
  460MOL0     H60688   2.554   1.668   8.291 -0.0375 -0.8357  0.1726
  460MOL0     H60689   2.421   1.675   8.176 -1.5343  0.0926 -0.5072
  460MOL0     H60690   2.421   1.518   8.434 -0.7143  0.3044 -0.1962
  460MOL0     H60691   2.473   1.430   8.283 -0.8283  0.8332 -3.4620
  460MOL0     H60692   2.198   1.531   8.345 -1.2797 -2.6749  2.6680
  460MOL0     H60693   2.247   1.517   8.185 -0.2461  1.4763 -0.0865
  460MOL0     H60694   2.312   1.269   8.220  1.1958  1.4287  0.8281
  460MOL0     H60695   2.149   1.304   8.213  1.0334  0.3900 -0.7683
  460MOL0     H60696   2.306   1.326   8.484  0.9153  0.5933 -2.2918
  460MOL0     H60697   2.265   1.174   8.434  2.3741  1.4169  1.1157
  460MOL0     H60698   2.028   1.371   8.450  2.1160  4.1494  1.4110
  460MOL0     H60699   2.032   1.208   8.475 -0.3666  1.5467 -0.1960
  460MOL0     H60700   2.108   1.440   8.644  0.4435 -0.8539 -0.6040
  460MOL0     H60701   2.197   1.307   8.695  1.0700  1.2818 -0.5916
  460MOL0     H60702   2.562   2.012   8.510 -0.6617 -2.8640 -0.0295
  460MOL0     H60703   2.494   2.222   8.610  0.1207 -1.4396 -1.0916
  460MOL0     H60704   1.912   2.412   8.824  0.0453  0.6510  0.7204
  460MOL0     H60705   1.821   2.626   8.841 -1.7264 -3.0587 -1.2175
  460MOL0     H60706   2.523   2.668   8.202 -1.1113  0.6417  0.6528
  460MOL0     H60707   2.711   2.541   8.157  2.2960 -1.1402  1.9806
  460MOL0     H60708   2.982   2.203   8.176  4.9048  0.2767 -0.0105
  460MOL0     H60709   3.181   2.078   8.131 -2.0860 -2.6444  1.5061
  460MOL0     H60710   3.210   1.867   7.717  0.9532  0.0258 -1.1801
  460MOL0     H60711   3.215   1.757   7.857  0.8061  0.1090  0.9331
  460MOL0     H60712   3.457   1.914   7.745  0.6809 -2.1708 -1.3891
  460MOL0     H60713   3.459   1.814   7.894 -0.8323  0.2360  1.5996
  460MOL0     H60714   3.409   1.748   7.592  0.2469 -0.8206 -0.3796
  460MOL0     H60715   3.363   1.625   7.717  0.1547 -0.4911 -0.7315
  460MOL0     H60716   3.574   1.614   7.805  1.9424 -3.1546  0.2419
  460MOL0     H60717   3.558   1.576   7.627  1.3350  1.1928 -0.0272
  460MOL0     H60718   3.822   1.889   7.574 -0.5070  0.3942  0.4094
  460MOL0     H60719   3.023   1.988   7.735  2.0752  0.6916 -0.1848
  460MOL0     H60720   2.836   2.131   7.779 -0.1561  2.2781  0.7456
  461MOL0     O60721   9.697   0.628   2.302  0.4918 -0.0058 -0.1326
  461MOL0     C60722   9.709   0.512   2.324  1.0334 -0.0513  0.2567
  461MOL0     O60723   9.610   0.420   2.334  0.0626 -0.0229 -1.4112
  461MOL0     C60724   9.481   0.439   2.286  0.1544 -0.5852  0.5898
  461MOL0     C60725   9.402   0.328   2.277 -0.6648 -0.6283 -0.4003
  461MOL0     C60726   9.265   0.345   2.252  0.0680  0.4363  0.6863
  461MOL0     C60727   9.201   0.473   2.229  0.8330  0.2261 -0.0799
  461MOL0     O60728   9.062   0.478   2.208  0.5402 -0.2203 -0.2026
  461MOL0     C60729   8.974   0.431   2.308  0.0268 -0.6011  0.6061
  461MOL0     C60730   8.830   0.457   2.258  0.1188  0.2304  0.0589
  461MOL0     C60731   8.782   0.600   2.308 -0.2171  0.3005  0.3759
  461MOL0     C60732   8.655   0.655   2.252  0.8891 -0.9705  0.1942
  461MOL0     C60733   8.614   0.776   2.308 -0.1360  0.8934  0.2827
  461MOL0     C60734   8.473   0.793   2.245  0.2357 -0.5733  0.0001
  461MOL0     C60735   8.421   0.924   2.285  0.7253 -0.2756 -0.1528
  461MOL0     C60736   8.275   0.945   2.230  1.2292 -0.4266  0.0937
  461MOL0     N60737   8.181   0.838   2.279 -0.0148  0.3222  0.5170
  461MOL0     C60738   8.165   0.806   2.413  1.0151 -0.4142  0.0060
  461MOL0     C60739   8.075   0.702   2.406  0.4969  0.7412 -0.6273
  461MOL0     C60740   8.028   0.615   2.524  0.3697 -0.1023 -0.1892
  461MOL0     C60741   8.144   0.540   2.588 -0.0626  0.1135 -0.5426
  461MOL0     C60742   8.226   0.442   2.493  0.2932  0.6846 -0.0129
  461MOL0     C60743   8.361   0.406   2.546  0.3636 -0.5611 -0.6394
  461MOL0     O60744   8.424   0.304   2.463 -0.8563  0.6470 -0.5059
  461MOL0     C60745   8.554   0.268   2.478 -0.3745  0.4020  0.1593
  461MOL0     C60746   8.630   0.280   2.594 -0.6288  0.6022 -0.3482
  461MOL0     C60747   8.749   0.210   2.595  0.3674 -0.2846 -0.2421
  461MOL0     C60748   8.803   0.141   2.488 -0.1407 -0.1719 -0.7022
  461MOL0     C60749   8.940   0.092   2.488 -0.0506  0.6532  0.0078
  461MOL0     O60750   9.006   0.121   2.600 -0.9248 -0.1059 -0.1404
  461MOL0     C60751   9.144   0.106   2.614 -1.3015  0.3300 -0.0063
  461MOL0     C60752   9.204  -0.008   2.571  0.5876 -0.2216 -0.0192
  461MOL0     C60753   9.344  -0.015   2.570 -1.1945 -0.0881 -0.1993
  461MOL0     C60754   9.422   0.078   2.638 -0.1166 -0.1543  0.3345
  461MOL0     O60755   9.562   0.076   2.624  0.5187 -0.1050 -0.3211
  461MOL0     C60756   9.627   0.015   2.734 -0.2097  0.7707 -0.5757
  461MOL0     C60757   9.742   0.103   2.772 -0.2745 -0.8955 -0.5549
  461MOL0     C60758   9.877   0.032   2.756  0.3716 -0.0686 -0.1941
  461MOL0     C60759   9.987   0.125   2.811 -1.4632  0.3841 -1.4095
  461MOL0     C60760  10.125   0.102   2.751  0.5483 -0.7470  0.7887
  461MOL0     C60761  10.185  -0.036   2.782 -0.0025 -0.5589  1.1407
  461MOL0     C60762  10.207  -0.066   2.934  0.6984 -0.4011  0.7970
  461MOL0     C60763  10.289  -0.194   2.965  0.0490 -0.1293  0.3633
  461MOL0    Cl60764  10.175  -0.329   2.974  0.2610  0.4201  0.3183
  461MOL0     C60765   9.363   0.189   2.693  0.6791  0.4653 -0.1217
  461MOL0     C60766   9.224   0.202   2.681  0.5527 -0.6112 -0.1862
  461MOL0     O60767   8.976   0.023   2.394 -0.4480 -0.5381  0.4444
  461MOL0     C60768   8.722   0.127   2.372 -0.5252  0.0809  1.1356
  461MOL0     C60769   8.600   0.189   2.370 -0.1738  1.0300  0.1819
  461MOL0     N60770   8.046   0.669   2.275 -1.0152 -0.0863  0.3202
  461MOL0     N60771   8.106   0.758   2.200 -0.4871  0.3463  0.7911
  461MOL0     C60772   9.293   0.571   2.207 -0.2406 -0.4142  0.4505
  461MOL0     C60773   9.432   0.557   2.233 -0.1843 -0.1666 -0.2604
  461MOL0     C60774   9.835   0.475   2.379  1.0995  0.4167  0.1453
  461MOL0     C60775   9.844   0.347   2.442 -0.4408  0.5325 -0.2206
  461MOL0     C60776   9.971   0.306   2.494  0.2561  0.4192  0.2672
  461MOL0     C60777  10.075   0.398   2.511  0.5599  0.8272 -0.6516
  461MOL0     O60778  10.190   0.350   2.572 -0.5452 -0.1081 -0.5344
  461MOL0     C60779  10.300   0.427   2.607  0.2288 -0.4186 -0.3373
  461MOL0     C60780  10.265   0.506   2.734 -0.1297 -0.1506  0.2503
  461MOL0     C60781  10.390   0.562   2.811 -0.4189  0.1679  0.4261
  461MOL0     C60782  10.380   0.651   2.920  0.1996  0.8016 -1.0411
  461MOL0     C60783  10.317   0.586   3.039 -0.0842 -0.7382 -0.1225
  461MOL0     C60784  10.250   0.526   3.123  0.1333 -0.2313 -0.2845
  461MOL0     C60785  10.056   0.528   2.475 -0.0528 -0.7297 -0.0558
  461MOL0     C60786   9.940   0.569   2.405  1.1157  0.2347  1.4380
  461MOL0     H60787   9.436   0.233   2.315 -1.1480  0.2589  2.5369
  461MOL0     H60788   9.198   0.261   2.270  0.8199 -0.1795  0.6889
  461MOL0     H60789   8.974   0.466   2.412  0.7860  0.8907  0.1236
  461MOL0     H60790   8.979   0.322   2.305 -2.1573 -0.8144  2.1510
  461MOL0     H60791   8.768   0.374   2.295 -1.1587  0.3788 -1.6473
  461MOL0     H60792   8.816   0.442   2.151 -0.8865 -3.7556  0.5778
  461MOL0     H60793   8.860   0.675   2.290  1.0573 -0.5460  2.0262
  461MOL0     H60794   8.765   0.601   2.416  0.9026  1.2563  0.5674
  461MOL0     H60795   8.656   0.654   2.143  0.2543 -4.8765  0.0795
  461MOL0     H60796   8.571   0.591   2.283 -0.0136  1.3466  2.9687
  461MOL0     H60797   8.681   0.858   2.280 -1.6577  1.3768 -2.1894
  461MOL0     H60798   8.629   0.780   2.416  1.7098 -0.0423  0.1049
  461MOL0     H60799   8.413   0.715   2.294  3.3878 -1.7817  2.2512
  461MOL0     H60800   8.477   0.769   2.138  3.7973 -2.4216  0.3912
  461MOL0     H60801   8.429   0.928   2.394  3.8047  1.2026 -0.3161
  461MOL0     H60802   8.479   1.000   2.232  0.9854 -0.4581 -0.1320
  461MOL0     H60803   8.278   0.949   2.121  0.6612 -1.0104  0.0463
  461MOL0     H60804   8.230   1.039   2.262 -0.0323 -0.7111 -0.7751
  461MOL0     H60805   8.210   0.853   2.499 -2.3837 -0.0466  1.7613
  461MOL0     H60806   7.946   0.551   2.492  1.8383 -0.7573 -2.9818
  461MOL0     H60807   7.979   0.686   2.592 -1.7003 -0.7602 -0.9246
  461MOL0     H60808   8.111   0.491   2.680 -0.7304  1.2308 -0.1628
  461MOL0     H60809   8.211   0.622   2.614 -1.6694  1.5034 -0.5891
  461MOL0     H60810   8.171   0.347   2.487  2.0259 -0.2852 -1.5801
  461MOL0     H60811   8.227   0.492   2.397 -1.2445  2.1901  0.6993
  461MOL0     H60812   8.360   0.395   2.654  2.0115 -0.9310 -0.6248
  461MOL0     H60813   8.431   0.490   2.541  0.0433 -0.3427 -2.1087
  461MOL0     H60814   8.583   0.321   2.683 -0.9872 -1.0106  0.2515
  461MOL0     H60815   8.804   0.214   2.689  0.6358 -1.1591 -0.3503
  461MOL0     H60816   9.153  -0.092   2.524  1.2026 -0.3165 -0.5383
  461MOL0     H60817   9.399  -0.089   2.512 -0.6480 -0.7693  1.1365
  461MOL0     H60818   9.671  -0.083   2.715  0.8083  0.9839  0.5691
  461MOL0     H60819   9.557  -0.009   2.814 -0.6715 -3.0380 -1.9057
  461MOL0     H60820   9.721   0.143   2.872  0.0918  0.8257 -1.1418
  461MOL0     H60821   9.747   0.185   2.700  1.0302 -0.6017 -0.1685
  461MOL0     H60822   9.895   0.011   2.650  0.1108 -0.4375 -0.1691
  461MOL0     H60823   9.889  -0.064   2.808  4.2594  0.3377 -0.0542
  461MOL0     H60824   9.967   0.223   2.767  1.8693  2.4374  1.1557
  461MOL0     H60825   9.998   0.124   2.920  0.9561 -0.2541 -1.6120
  461MOL0     H60826  10.204   0.174   2.774  1.6855 -1.8263  0.4141
  461MOL0     H60827  10.117   0.108   2.642  1.2936 -1.5863  0.6704
  461MOL0     H60828  10.280  -0.042   2.727 -1.1809  2.7962 -1.6531
  461MOL0     H60829  10.122  -0.117   2.743  1.1953 -1.1440  0.3734
  461MOL0     H60830  10.252   0.024   2.978 -0.5852  1.8067 -2.0956
  461MOL0     H60831  10.108  -0.085   2.977  0.6016 -1.8245 -0.0001
  461MOL0     H60832  10.346  -0.188   3.058  1.0346  3.0018 -0.3472
  461MOL0     H60833  10.363  -0.218   2.888 -2.8857 -2.6191 -1.9707
  461MOL0     H60834   9.428   0.252   2.752  0.7482 -1.1119  1.5393
  461MOL0     H60835   9.180   0.288   2.729  0.6187  0.4557 -1.9386
  461MOL0     H60836   8.764   0.069   2.290 -0.6910 -2.6658  2.8675
  461MOL0     H60837   8.530   0.160   2.292  0.5746 -2.1298  0.5486
  461MOL0     H60838   9.260   0.667   2.171 -0.1762 -0.6223 -0.1736
  461MOL0     H60839   9.480   0.651   2.206 -0.1107 -0.0983  0.1046
  461MOL0     H60840   9.772   0.266   2.444  0.7268 -0.5631  1.9536
  461MOL0     H60841   9.979   0.205   2.531  1.5280  0.2108 -0.5141
  461MOL0     H60842  10.327   0.498   2.528  1.4029  0.2323  0.6265
  461MOL0     H60843  10.388   0.366   2.624  1.1281  0.8939 -0.1107
  461MOL0     H60844  10.217   0.594   2.689  0.6229 -0.4042 -1.0961
  461MOL0     H60845  10.185   0.463   2.794 -1.4961 -0.9070 -1.9806
  461MOL0     H60846  10.457   0.605   2.736 -0.3378  0.5493  0.7134
  461MOL0     H60847  10.440   0.473   2.849 -0.4228  1.0311  2.5761
  461MOL0     H60848  10.467   0.705   2.959 -1.5610  2.0014  1.5008
  461MOL0     H60849  10.307   0.723   2.880 -1.9360 -1.7060 -1.9433
  461MOL0     H60850  10.199   0.478   3.204 -0.5608 -0.9645 -1.1277
  461MOL0     H60851  10.146   0.589   2.473  0.8350 -2.0016 -0.4079
  461MOL0     H60852   9.919   0.668   2.365 -0.5098 -0.8305 -0.5149
  462MOL0     O60853  10.393   1.511   2.611 -0.4668 -0.4035  0.3602
  462MOL0     C60854  10.476   1.429   2.576  0.2893 -0.7346  0.0091
  462MOL0     O60855  10.456   1.307   2.514  0.7779 -0.8101  0.2763
  462MOL0     C60856  10.321   1.263   2.493  0.1832  1.1267 -0.4684
  462MOL0     C60857  10.228   1.350   2.434 -0.6325 -0.5035 -0.5038
  462MOL0     C60858  10.090   1.306   2.411  1.5411  0.2088 -0.7187
  462MOL0     C60859  10.059   1.177   2.434 -0.2724  0.9975  0.1786
  462MOL0     O60860   9.933   1.133   2.407  0.5683 -0.4251  0.4831
  462MOL0     C60861   9.877   1.010   2.459  0.2311 -0.5991 -0.6035
  462MOL0     C60862   9.828   1.024   2.610 -0.0457 -0.3844 -0.3595
  462MOL0     C60863   9.736   1.148   2.633 -0.7256 -0.5803 -0.7628
  462MOL0     C60864   9.715   1.192   2.778  0.5491  0.4133 -0.8679
  462MOL0     C60865   9.605   1.292   2.804  0.3453  1.1891  0.3551
  462MOL0     C60866   9.467   1.271   2.733  0.1082 -0.2933 -0.2279
  462MOL0     C60867   9.368   1.383   2.770 -0.5899 -0.3846 -0.6487
  462MOL0     C60868   9.243   1.350   2.692  0.2568 -0.7093  0.4189
  462MOL0     N60869   9.126   1.423   2.750  0.3733  0.0908 -0.1516
  462MOL0     C60870   9.072   1.408   2.880 -0.0136  0.7964 -0.9718
  462MOL0     C60871   8.957   1.478   2.886 -0.7802  0.0820  0.1415
  462MOL0     C60872   8.869   1.495   3.002 -0.0197  0.1872  1.0451
  462MOL0     C60873   8.812   1.643   3.019 -0.1503 -1.2192 -0.7757
  462MOL0     C60874   8.719   1.654   3.143  0.3705  1.0299  0.1349
  462MOL0     C60875   8.634   1.534   3.169  0.2422 -0.4487  0.0845
  462MOL0     O60876   8.512   1.580   3.238 -0.1952  0.1882  0.2932
  462MOL0     C60877   8.406   1.487   3.255 -0.8327 -0.2739  0.5080
  462MOL0     C60878   8.292   1.528   3.314  0.9552  0.9159 -0.4489
  462MOL0     C60879   8.184   1.444   3.338 -0.5117  1.0978  0.2066
  462MOL0     C60880   8.201   1.311   3.294  0.5253  0.3237  0.0439
  462MOL0     C60881   8.094   1.211   3.325  0.3377 -0.3603  0.9640
  462MOL0     O60882   7.977   1.274   3.340 -0.2381 -0.5633  0.9000
  462MOL0     C60883   7.872   1.200   3.395  0.1714 -0.4216 -0.2691
  462MOL0     C60884   7.829   1.250   3.522 -0.5351  0.4014  0.9229
  462MOL0     C60885   7.717   1.190   3.582  0.7128 -0.2818  0.7238
  462MOL0     C60886   7.630   1.103   3.516  1.2071  0.0522  0.0520
  462MOL0     O60887   7.511   1.059   3.559  0.1623  0.4569 -0.2666
  462MOL0     C60888   7.452   1.112   3.676 -0.8753  0.2189  0.3193
  462MOL0     C60889   7.315   1.055   3.728 -0.2603  0.4472  1.0127
  462MOL0     C60890   7.312   0.900   3.763 -1.4007  0.3997 -0.0605
  462MOL0     C60891   7.186   0.877   3.852 -0.2944  0.5956 -0.2300
  462MOL0     C60892   7.167   0.729   3.870  1.0514  0.2126 -0.9940
  462MOL0     C60893   7.067   0.680   3.977 -0.1679 -0.5707 -0.2540
  462MOL0     C60894   6.960   0.593   3.908 -0.0184 -0.0299 -0.2778
  462MOL0     C60895   6.869   0.547   4.015 -0.1579  0.7807  0.2343
  462MOL0    Cl60896   6.718   0.471   3.943  0.0553  0.3901  0.0278
  462MOL0     C60897   7.679   1.055   3.394  0.2861 -0.1721 -0.3945
  462MOL0     C60898   7.791   1.106   3.337 -0.4661 -0.1292  0.3637
  462MOL0     O60899   8.103   1.090   3.327 -0.1321  0.3802 -0.5692
  462MOL0     C60900   8.321   1.271   3.231  0.0500 -0.2449 -0.0929
  462MOL0     C60901   8.423   1.358   3.224  0.1059 -0.0466  0.9649
  462MOL0     N60902   8.957   1.556   2.768 -0.8441  0.2638  0.4170
  462MOL0     N60903   9.057   1.522   2.678 -0.5185 -0.1745 -0.0007
  462MOL0     C60904  10.146   1.091   2.491 -0.1955 -0.0351  0.0289
  462MOL0     C60905  10.282   1.135   2.518  0.2380 -0.1911 -1.2854
  462MOL0     C60906  10.618   1.463   2.593 -0.5691 -0.1324 -0.6322
  462MOL0     C60907  10.651   1.599   2.623 -0.2880 -0.5787  0.1740
  462MOL0     C60908  10.784   1.640   2.644 -0.6296 -0.1634 -0.3720
  462MOL0     C60909  10.892   1.545   2.630  0.0021 -0.2255  0.1375
  462MOL0     O60910  11.025   1.578   2.645  0.6508 -0.0098 -0.3460
  462MOL0     C60911  11.070   1.697   2.585  1.0726  0.1455 -0.0409
  462MOL0     C60912  11.070   1.697   2.434 -0.2962  1.4012 -0.6133
  462MOL0     C60913  11.179   1.617   2.359  0.2656 -0.7941  0.1294
  462MOL0     C60914  11.325   1.649   2.390  0.1508  0.5844 -0.1076
  462MOL0     C60915  11.387   1.577   2.503  0.0100  0.7156 -0.3435
  462MOL0     C60916  11.409   1.518   2.608 -0.3157  0.8720  0.3044
  462MOL0     C60917  10.860   1.414   2.601  0.4594 -0.4784 -0.4913
  462MOL0     C60918  10.727   1.377   2.578  0.2716  0.0831  0.1121
  462MOL0     H60919  10.258   1.454   2.430  0.4693 -0.4338  4.1701
  462MOL0     H60920  10.019   1.380   2.377  0.4558 -0.4856 -0.0463
  462MOL0     H60921   9.941   0.926   2.431  0.1466 -1.5821  1.8389
  462MOL0     H60922   9.780   0.989   2.413  0.8262  0.1604 -2.2658
  462MOL0     H60923   9.915   1.022   2.676 -0.0990 -0.9156 -0.2946
  462MOL0     H60924   9.775   0.933   2.641  0.2173  0.1384  1.8122
  462MOL0     H60925   9.642   1.113   2.589 -0.6900 -3.8134  1.3535
  462MOL0     H60926   9.780   1.237   2.588 -1.8701  2.5351  3.5531
  462MOL0     H60927   9.691   1.099   2.831 -1.9825  1.5497  0.1324
  462MOL0     H60928   9.814   1.230   2.806 -0.3168  1.3853  1.0693
  462MOL0     H60929   9.640   1.391   2.773 -1.8643  1.4891 -1.4567
  462MOL0     H60930   9.590   1.304   2.911 -0.5258 -2.1400  0.7205
  462MOL0     H60931   9.427   1.174   2.764 -1.6996  0.9938  1.7871
  462MOL0     H60932   9.488   1.273   2.626 -0.4334 -2.8677 -0.4302
  462MOL0     H60933   9.352   1.391   2.878  1.0481  1.5240 -0.4872
  462MOL0     H60934   9.408   1.479   2.736 -0.4547 -0.7031 -1.3955
  462MOL0     H60935   9.229   1.242   2.703  1.8099 -1.0285 -0.4277
  462MOL0     H60936   9.262   1.369   2.586 -1.4932 -0.0029  0.2029
  462MOL0     H60937   9.114   1.348   2.960  1.0867  1.7895 -0.7740
  462MOL0     H60938   8.918   1.457   3.093  0.5126  0.7506  0.9971
  462MOL0     H60939   8.779   1.435   2.985 -0.2974  0.4886  1.4276
  462MOL0     H60940   8.749   1.661   2.932 -3.3596  0.5543  1.7007
  462MOL0     H60941   8.892   1.718   3.027 -2.2638  0.9965  1.6834
  462MOL0     H60942   8.779   1.681   3.230  3.3979  0.2902 -1.5973
  462MOL0     H60943   8.647   1.736   3.131 -2.4058 -1.0712  1.3366
  462MOL0     H60944   8.690   1.460   3.226  1.3854  2.2882  2.7901
  462MOL0     H60945   8.596   1.495   3.074  0.5698  2.2031 -1.2271
  462MOL0     H60946   8.273   1.632   3.338 -0.1620  1.2550 -2.5437
  462MOL0     H60947   8.100   1.463   3.405 -0.2853  0.4229  0.6970
  462MOL0     H60948   7.890   1.324   3.573 -1.0255  0.2639  1.7153
  462MOL0     H60949   7.690   1.228   3.680  1.4360  0.6288  0.5894
  462MOL0     H60950   7.423   1.216   3.658 -3.3690  0.3137  3.7284
  462MOL0     H60951   7.525   1.123   3.757  1.3588 -0.0352 -1.5703
  462MOL0     H60952   7.236   1.054   3.653  2.1828  0.6573 -1.7635
  462MOL0     H60953   7.283   1.106   3.819 -2.8584 -0.1448  0.4960
  462MOL0     H60954   7.400   0.872   3.823 -0.1366  5.4906  0.8906
  462MOL0     H60955   7.314   0.835   3.675 -2.0741 -1.7429  1.4044
  462MOL0     H60956   7.196   0.914   3.954  1.3270 -1.1387  0.3062
  462MOL0     H60957   7.103   0.931   3.806  1.3361  2.5676 -1.0118
  462MOL0     H60958   7.265   0.692   3.902  1.0011  1.2527  0.4688
  462MOL0     H60959   7.143   0.687   3.772  0.8477  0.3889 -1.0209
  462MOL0     H60960   7.018   0.769   4.018  1.3259 -1.1665  3.0638
  462MOL0     H60961   7.126   0.626   4.051  1.7424  1.5387 -0.1316
  462MOL0     H60962   6.891   0.644   3.840 -2.6157 -3.6200 -0.6079
  462MOL0     H60963   7.009   0.518   3.846  3.4079  4.7022 -3.9923
  462MOL0     H60964   6.840   0.641   4.062 -1.9231  1.5049 -2.1045
  462MOL0     H60965   6.929   0.484   4.081 -0.2543 -1.6911 -1.8829
  462MOL0     H60966   7.629   0.973   3.344 -0.4103  0.3068 -0.5004
  462MOL0     H60967   7.827   1.086   3.237 -1.4941  2.0885 -0.4967
  462MOL0     H60968   8.338   1.166   3.209  1.3766 -0.2748  0.9026
  462MOL0     H60969   8.520   1.323   3.189  0.4842  1.8944 -0.1286
  462MOL0     H60970  10.126   0.987   2.512  1.2820 -0.1281  1.1335
  462MOL0     H60971  10.359   1.077   2.568  0.8175 -0.5206 -2.5398
  462MOL0     H60972  10.570   1.671   2.619 -0.6125 -0.9556 -2.6727
  462MOL0     H60973  10.809   1.744   2.665 -2.3720  0.4768 -1.2541
  462MOL0     H60974  11.169   1.714   2.628  1.1648 -0.5542  0.0202
  462MOL0     H60975  11.007   1.778   2.625 -0.1562 -0.2220 -1.1604
  462MOL0     H60976  10.972   1.682   2.387 -0.2094  1.4896 -0.8274
  462MOL0     H60977  11.089   1.803   2.414  0.1738  1.3053 -0.6655
  462MOL0     H60978  11.169   1.650   2.256 -0.3630 -0.2843  0.3476
  462MOL0     H60979  11.163   1.510   2.374 -2.8194 -0.2118  1.7336
  462MOL0     H60980  11.374   1.640   2.293  2.4337  0.7635  0.9691
  462MOL0     H60981  11.339   1.753   2.423 -0.2463  0.9405 -1.0339
  462MOL0     H60982  11.422   1.482   2.708 -3.6969 -1.4419  0.0848
  462MOL0     H60983  10.937   1.342   2.577  0.4298 -0.4544 -0.6583
  462MOL0     H60984  10.694   1.275   2.567  3.2732 -1.0485  0.7874
  463MOL0     O60985   0.776   4.112   8.187  0.2617 -0.2035  0.2434
  463MOL0     C60986   0.734   4.197   8.113  0.6159 -0.3142 -0.0552
  463MOL0     O60987   0.789   4.257   8.009  0.9059 -0.6634 -0.3054
  463MOL0     C60988   0.913   4.223   7.970 -0.3820  0.1317  0.7711
  463MOL0     C60989   1.011   4.204   8.062 -0.2564  0.1196 -0.2420
  463MOL0     C60990   1.135   4.151   8.019  0.6333 -0.4919  0.2470
  463MOL0     C60991   1.158   4.120   7.884  0.7192 -0.1742 -0.1831
  463MOL0     O60992   1.255   4.037   7.837  0.8122  0.2282  0.0412
  463MOL0     C60993   1.383   4.024   7.905 -0.4590 -0.8292 -0.2018
  463MOL0     C60994   1.454   4.163   7.909  0.2551  0.3632 -1.3131
  463MOL0     C60995   1.597   4.160   7.947  0.3132 -0.3275  0.1519
  463MOL0     C60996   1.648   4.302   7.951  0.1458  0.1466 -0.4887
  463MOL0     C60997   1.765   4.316   8.050  0.2424  0.6226 -0.2107
  463MOL0     C60998   1.797   4.457   8.061 -0.5031 -0.2027 -0.0353
  463MOL0     C60999   1.912   4.474   8.160 -0.2306 -0.4215  0.1976
  463MOL0     C61000   1.978   4.623   8.163 -0.6108  0.7777  0.0500
  463MOL0     N61001   2.065   4.665   8.051  0.1212 -0.2938  0.1532
  463MOL0     C61002   2.035   4.689   7.917 -0.4727  0.2896 -0.0086
  463MOL0     C61003   2.153   4.732   7.858 -0.7020 -0.1785 -0.3014
  463MOL0     C61004   2.169   4.775   7.719  0.3418  0.3121  0.5250
  463MOL0     C61005   2.097   4.907   7.689  0.0905  0.5984  0.6623
  463MOL0     C61006   1.944   4.902   7.658 -1.0207  0.4495  0.0442
  463MOL0     C61007   1.869   5.036   7.639  0.7958 -0.0755  0.0265
  463MOL0     O61008   1.885   5.099   7.765 -0.4016  1.0488 -0.7481
  463MOL0     C61009   1.824   5.227   7.781 -0.5748  0.5205 -0.1952
  463MOL0     C61010   1.815   5.282   7.907  0.3652  0.1065  0.2136
  463MOL0     C61011   1.759   5.410   7.927  0.5090  1.4100 -0.5392
  463MOL0     C61012   1.718   5.483   7.809 -0.6484  0.0642 -0.0235
  463MOL0     C61013   1.684   5.631   7.815 -0.2200  0.5025  0.2373
  463MOL0     O61014   1.674   5.711   7.702  0.4700  0.2064  0.5727
  463MOL0     C61015   1.610   5.830   7.708 -1.0006  0.1111  0.7670
  463MOL0     C61016   1.575   5.906   7.824  0.3912 -0.0043  0.2929
  463MOL0     C61017   1.505   6.023   7.819  1.1287  0.0902  0.3045
  463MOL0     C61018   1.467   6.070   7.694 -0.2754  0.4196 -0.0021
  463MOL0     O61019   1.382   6.179   7.688  0.5470 -0.3937  0.7133
  463MOL0     C61020   1.269   6.173   7.783 -0.4438  0.8755  1.5177
  463MOL0     C61021   1.170   6.296   7.773 -0.8849  1.0340 -0.3162
  463MOL0     C61022   1.256   6.421   7.766  0.9177  0.0512  0.7452
  463MOL0     C61023   1.148   6.534   7.747  0.8078  0.9845 -1.0031
  463MOL0     C61024   1.076   6.558   7.886 -0.3289 -0.3707  0.3718
  463MOL0     C61025   0.983   6.677   7.892 -0.2058 -0.1446 -0.0129
  463MOL0     C61026   0.885   6.667   8.008 -0.5494 -1.3346  0.1521
  463MOL0     C61027   0.812   6.807   8.010  0.5895 -0.3678 -0.3702
  463MOL0    Cl61028   0.716   6.788   8.159 -0.3264  0.0034 -0.0384
  463MOL0     C61029   1.522   6.015   7.577  0.0809 -0.1292  0.0751
  463MOL0     C61030   1.587   5.892   7.584  0.1204 -0.2858 -0.2146
  463MOL0     O61031   1.672   5.666   7.932 -0.2479  0.6002  0.4258
  463MOL0     C61032   1.733   5.428   7.680 -0.7876 -0.2860 -0.6175
  463MOL0     C61033   1.788   5.304   7.675 -0.0946  0.1610  1.3041
  463MOL0     N61034   2.243   4.734   7.952 -0.0114 -0.2924 -0.4300
  463MOL0     N61035   2.198   4.696   8.068 -0.1619 -1.1245  0.3582
  463MOL0     C61036   1.058   4.153   7.799 -0.7136 -0.6715  0.6586
  463MOL0     C61037   0.938   4.212   7.833  0.1125  0.0510 -1.0213
  463MOL0     C61038   0.602   4.249   8.146 -0.2459 -0.5572  0.5330
  463MOL0     C61039   0.557   4.371   8.084  0.7208  0.3828  0.5660
  463MOL0     C61040   0.441   4.434   8.124 -0.0259 -0.2660 -0.0587
  463MOL0     C61041   0.357   4.373   8.219 -0.2539 -0.0483 -0.0383
  463MOL0     O61042   0.242   4.440   8.254 -0.0558  0.7762 -0.0651
  463MOL0     C61043   0.163   4.403   8.376 -0.5401  0.4489 -0.2745
  463MOL0     C61044   0.112   4.533   8.421 -0.2306  0.3035  0.2767
  463MOL0     C61045   0.069   4.514   8.562 -0.8177 -0.3416 -0.0900
  463MOL0     C61046  -0.015   4.626   8.600 -1.1965 -0.3971  0.0098
  463MOL0     C61047  -0.106   4.578   8.705 -0.4910  0.4709 -0.7467
  463MOL0     C61048  -0.175   4.516   8.790 -0.5528 -0.3943 -0.0620
  463MOL0     C61049   0.393   4.250   8.276 -0.2269  0.0510 -0.6977
  463MOL0     C61050   0.517   4.193   8.239  0.3479  0.9509 -0.0585
  463MOL0     H61051   0.994   4.219   8.168 -0.3255  0.4473 -0.2989
  463MOL0     H61052   1.210   4.112   8.088  0.2704  0.6874  1.3511
  463MOL0     H61053   1.447   3.957   7.845 -1.1296 -0.1396 -1.7524
  463MOL0     H61054   1.374   3.990   8.008  0.5164  2.5126  1.1343
  463MOL0     H61055   1.412   4.214   7.996  1.6723  2.9858 -2.0605
  463MOL0     H61056   1.425   4.226   7.825 -2.5813 -0.1647 -0.8060
  463MOL0     H61057   1.644   4.102   7.867 -1.5739  1.4012 -2.3830
  463MOL0     H61058   1.598   4.118   8.048 -1.6941 -0.4438  0.1666
  463MOL0     H61059   1.685   4.332   7.853  0.6376  1.2419  0.0137
  463MOL0     H61060   1.562   4.362   7.983 -1.5810 -1.9615 -0.9167
  463MOL0     H61061   1.853   4.266   8.008 -1.1459 -1.9633 -0.2694
  463MOL0     H61062   1.736   4.271   8.145 -1.5238  0.2798 -0.8786
  463MOL0     H61063   1.715   4.517   8.101  3.4552  4.9307  1.4545
  463MOL0     H61064   1.828   4.500   7.965 -1.6192 -2.5802 -1.5503
  463MOL0     H61065   1.897   4.465   8.268  3.8279  0.0141  0.9589
  463MOL0     H61066   1.998   4.410   8.142  1.9663  2.0772  1.0489
  463MOL0     H61067   2.049   4.618   8.247  0.4615  0.0197 -0.8672
  463MOL0     H61068   1.916   4.710   8.187 -2.7330 -0.6186 -0.1685
  463MOL0     H61069   1.938   4.667   7.872  0.5189  0.0023 -2.1187
  463MOL0     H61070   2.120   4.699   7.656 -0.2078  0.5283  0.6921
  463MOL0     H61071   2.277   4.787   7.702  1.0782  0.3584  4.3674
  463MOL0     H61072   2.142   4.933   7.593  0.5036 -0.3562  0.5843
  463MOL0     H61073   2.129   4.981   7.762  1.0196 -0.0415  0.9274
  463MOL0     H61074   1.940   4.832   7.574 -0.6552  1.6389 -0.9984
  463MOL0     H61075   1.897   4.852   7.743  0.1467 -0.0422  0.4255
  463MOL0     H61076   1.763   5.033   7.612  0.5406 -0.0371  0.9705
  463MOL0     H61077   1.909   5.096   7.557  0.4944  0.4388  0.2518
  463MOL0     H61078   1.843   5.221   7.992  1.6539 -2.0953 -1.6865
  463MOL0     H61079   1.766   5.461   8.022 -0.8233  2.0749 -0.7701
  463MOL0     H61080   1.607   5.867   7.920 -2.6435 -5.1525 -0.3716
  463MOL0     H61081   1.483   6.057   7.919 -0.5236 -0.3691  0.1386
  463MOL0     H61082   1.306   6.175   7.886 -0.3515 -4.0248  1.8234
  463MOL0     H61083   1.216   6.078   7.766 -3.4619  2.4520  1.4024
  463MOL0     H61084   1.110   6.281   7.863  2.6019 -5.1004  1.5408
  463MOL0     H61085   1.102   6.292   7.687 -0.1612 -1.9138 -0.8685
  463MOL0     H61086   1.326   6.432   7.683 -0.8806 -0.7524 -0.9758
  463MOL0     H61087   1.324   6.449   7.847  2.2505 -0.6579 -0.0951
  463MOL0     H61088   1.191   6.630   7.717  3.4172  0.6759  1.2980
  463MOL0     H61089   1.073   6.519   7.669  1.1862  1.1111 -1.3920
  463MOL0     H61090   1.153   6.561   7.963  1.1496 -3.5212 -0.7823
  463MOL0     H61091   1.009   6.475   7.910 -0.1967 -0.0390  1.9505
  463MOL0     H61092   0.933   6.694   7.796 -1.9992  4.4337  1.4565
  463MOL0     H61093   1.051   6.762   7.901 -1.2829  0.8348 -0.7150
  463MOL0     H61094   0.806   6.592   8.002 -0.1893 -1.9953  2.6146
  463MOL0     H61095   0.927   6.652   8.108 -1.1690 -0.1130  0.6223
  463MOL0     H61096   0.746   6.821   7.924  1.5986  1.3917 -0.9013
  463MOL0     H61097   0.891   6.883   8.013  3.5623 -3.0891 -2.6432
  463MOL0     H61098   1.503   6.067   7.483  4.6329  2.6290  0.3919
  463MOL0     H61099   1.635   5.838   7.503  0.1482 -1.2239  0.4177
  463MOL0     H61100   1.726   5.486   7.589  0.9377  0.4437 -0.3417
  463MOL0     H61101   1.820   5.262   7.581 -2.8312  0.4405  0.1468
  463MOL0     H61102   1.084   4.133   7.695 -1.0541  0.8186  0.2632
  463MOL0     H61103   0.877   4.253   7.753  0.3456 -0.1788 -1.3184
  463MOL0     H61104   0.606   4.418   8.000  1.3371 -0.0040  0.6995
  463MOL0     H61105   0.417   4.522   8.064 -0.8469  0.8480  1.7920
  463MOL0     H61106   0.225   4.365   8.457 -3.5628 -2.4089  0.8860
  463MOL0     H61107   0.092   4.324   8.352  0.7127 -0.8543  0.1971
  463MOL0     H61108   0.181   4.616   8.410 -0.5850  0.3155 -2.6745
  463MOL0     H61109   0.018   4.558   8.371 -0.4956 -3.7257 -1.6443
  463MOL0     H61110   0.159   4.520   8.623  1.2171 -5.2573 -2.0724
  463MOL0     H61111   0.025   4.415   8.580  1.5288 -0.9094  3.3352
  463MOL0     H61112   0.037   4.719   8.625 -1.4126 -0.6862  1.5864
  463MOL0     H61113  -0.078   4.654   8.515 -0.9279 -2.4659 -0.9325
  463MOL0     H61114  -0.226   4.460   8.866 -1.3597  1.0995  0.5267
  463MOL0     H61115   0.316   4.193   8.327 -0.1740  1.1695  0.6694
  463MOL0     H61116   0.547   4.101   8.287  1.1987  1.7351  0.9463
  464MOL0     O61117   2.854   6.360   3.493  0.3050  0.7604 -0.4732
  464MOL0     C61118   2.970   6.336   3.527 -0.0176  0.6720 -0.4785
  464MOL0     O61119   3.008   6.245   3.621 -0.5581 -0.0601  0.1371
  464MOL0     C61120   2.923   6.219   3.727  0.4501  0.7817 -0.1785
  464MOL0     C61121   2.926   6.089   3.782 -0.3697  0.3301 -0.1749
  464MOL0     C61122   2.848   6.066   3.894  0.3817  0.1555  0.2842
  464MOL0     C61123   2.776   6.163   3.959 -0.3108 -0.7022 -0.7424
  464MOL0     O61124   2.710   6.153   4.081 -0.9758  0.3360  0.3916
  464MOL0     C61125   2.790   6.102   4.186  0.6635  0.1728  0.0648
  464MOL0     C61126   2.735   5.969   4.237 -0.5184  0.5977 -0.2070
  464MOL0     C61127   2.632   5.999   4.344  0.1986 -0.0399 -0.2261
  464MOL0     C61128   2.672   6.074   4.472  0.3030  0.3477  0.4515
  464MOL0     C61129   2.580   6.031   4.603 -0.3279 -0.7088  0.6017
  464MOL0     C61130   2.645   6.098   4.723 -0.3427 -0.8687  0.1759
  464MOL0     C61131   2.568   6.067   4.846  0.7553  0.2325 -0.7552
  464MOL0     C61132   2.503   6.191   4.899  0.7037 -0.4632  0.7598
  464MOL0     N61133   2.418   6.171   5.015  0.3613 -1.0960  0.2139
  464MOL0     C61134   2.469   6.174   5.143  0.4984 -0.7854  0.4923
  464MOL0     C61135   2.370   6.140   5.218 -0.6674  1.5519 -0.2119
  464MOL0     C61136   2.376   6.121   5.369 -0.1770  0.1385  0.2180
  464MOL0     C61137   2.249   6.155   5.454  0.5132 -0.5341 -0.2274
  464MOL0     C61138   2.279   6.122   5.594 -0.0542 -0.1804 -0.1259
  464MOL0     C61139   2.154   6.085   5.674  0.9321  0.0550 -1.3706
  464MOL0     O61140   2.210   6.072   5.807  0.5136 -0.4682 -0.6602
  464MOL0     C61141   2.114   6.042   5.910 -0.5474  0.6133  0.2194
  464MOL0     C61142   2.018   5.942   5.893 -0.7757  0.5175  0.3398
  464MOL0     C61143   1.919   5.920   5.987 -0.0258  0.6501 -0.0795
  464MOL0     C61144   1.919   6.008   6.100  0.1222  0.9663 -0.4185
  464MOL0     C61145   1.820   5.999   6.208 -1.1013 -0.3492  0.4810
  464MOL0     O61146   1.829   6.074   6.332 -0.2651 -0.2378  0.1413
  464MOL0     C61147   1.712   6.074   6.397  0.2509  0.5797 -0.2701
  464MOL0     C61148   1.618   6.166   6.354 -0.7440 -0.1581  0.7795
  464MOL0     C61149   1.509   6.212   6.433  0.2610  0.7211 -0.5012
  464MOL0     C61150   1.493   6.152   6.550  0.9021  0.9287 -0.4133
  464MOL0     O61151   1.384   6.200   6.622 -0.3179 -0.0927  0.4281
  464MOL0     C61152   1.264   6.119   6.595  0.6846 -0.5184  0.0754
  464MOL0     C61153   1.157   6.150   6.703  0.1520 -0.1099 -0.7366
  464MOL0     C61154   1.115   6.301   6.692  0.3457 -0.3886  0.1778
  464MOL0     C61155   1.029   6.337   6.818  0.7679 -0.0838  0.6987
  464MOL0     C61156   0.947   6.468   6.797  0.0405  0.3288 -0.4143
  464MOL0     C61157   0.823   6.433   6.714  0.4850 -0.4339 -0.0929
  464MOL0     C61158   0.715   6.541   6.725  0.4786  0.3404  0.5625
  464MOL0     C61159   0.587   6.514   6.636 -0.2405  0.5597 -0.7805
  464MOL0    Cl61160   0.622   6.546   6.463  0.0017  0.1388  0.0273
  464MOL0     C61161   1.582   6.054   6.595  0.2445  0.0116 -0.1040
  464MOL0     C61162   1.694   6.011   6.518 -0.3770 -0.5182  0.0477
  464MOL0     O61163   1.718   5.934   6.166 -0.8340 -0.9226 -0.2820
  464MOL0     C61164   2.022   6.103   6.115  0.7974  0.8095 -0.4883
  464MOL0     C61165   2.129   6.118   6.023 -0.1951  0.2647  0.9879
  464MOL0     N61166   2.259   6.108   5.145  0.7381 -0.0414  0.1868
  464MOL0     N61167   2.287   6.135   5.017  0.0602  0.0619 -0.5843
  464MOL0     C61168   2.787   6.293   3.912 -0.2743  0.1096  0.1370
  464MOL0     C61169   2.860   6.325   3.798 -0.6333  0.4259  0.0158
  464MOL0     C61170   3.080   6.397   3.447 -0.8376  0.0915  0.8061
  464MOL0     C61171   3.223   6.380   3.460 -0.3033  0.4119 -1.2000
  464MOL0     C61172   3.318   6.433   3.375  0.2107  0.1324  1.0614
  464MOL0     C61173   3.285   6.508   3.262  0.6066  0.7476  0.3560
  464MOL0     O61174   3.393   6.561   3.196  0.7315  0.1395 -0.4469
  464MOL0     C61175   3.360   6.612   3.063 -0.3660  0.0385  0.5329
  464MOL0     C61176   3.307   6.755   3.065  0.0397 -0.3678 -1.2162
  464MOL0     C61177   3.411   6.848   3.114  0.0271 -0.3034 -0.4896
  464MOL0     C61178   3.362   6.985   3.132  0.1931  0.5149  0.2996
  464MOL0     C61179   3.468   7.066   3.200 -0.7221  0.0800 -0.1648
  464MOL0     C61180   3.546   7.136   3.249  0.2272  0.0036  0.2176
  464MOL0     C61181   3.143   6.512   3.244  0.2017  0.0805 -0.0024
  464MOL0     C61182   3.039   6.468   3.332  0.8326  0.5557 -0.0827
  464MOL0     H61183   2.989   6.016   3.734 -1.5279 -1.2185  0.5906
  464MOL0     H61184   2.837   5.962   3.924  2.8526 -0.3948 -0.4057
  464MOL0     H61185   2.790   6.163   4.277 -1.0752 -1.7314  1.4397
  464MOL0     H61186   2.893   6.084   4.156  0.6718  0.1587  0.1016
  464MOL0     H61187   2.815   5.901   4.266  1.4777  1.9200 -2.2349
  464MOL0     H61188   2.681   5.926   4.152 -1.6165  0.8667  0.3403
  464MOL0     H61189   2.569   5.912   4.367 -0.3660 -0.3128 -2.6116
  464MOL0     H61190   2.552   6.060   4.301 -2.2145 -4.1894 -2.2038
  464MOL0     H61191   2.780   6.063   4.486  0.3144  2.6221  3.3222
  464MOL0     H61192   2.649   6.181   4.469 -1.2441  0.2784  4.2687
  464MOL0     H61193   2.598   5.925   4.619  1.9485 -0.0811  3.0675
  464MOL0     H61194   2.473   6.044   4.582  0.0554  1.3037 -0.3516
  464MOL0     H61195   2.655   6.204   4.697  0.8812 -0.5530  1.7520
  464MOL0     H61196   2.747   6.062   4.735 -0.1694 -1.1256 -1.7862
  464MOL0     H61197   2.498   5.985   4.828  0.8363 -0.6118  2.2277
  464MOL0     H61198   2.634   6.023   4.922 -0.8216 -1.9007 -0.5446
  464MOL0     H61199   2.433   6.233   4.826 -1.3771 -1.6656  1.9541
  464MOL0     H61200   2.576   6.271   4.916  0.3893 -0.1178  0.4885
  464MOL0     H61201   2.569   6.199   5.177 -0.3098  4.0863 -0.0091
  464MOL0     H61202   2.455   6.190   5.402 -1.5979  2.4181 -0.9210
  464MOL0     H61203   2.405   6.017   5.381 -1.5236 -0.4396 -1.2116
  464MOL0     H61204   2.167   6.094   5.414 -1.7514  0.4797  2.4931
  464MOL0     H61205   2.230   6.262   5.456  2.3605 -0.1404 -1.3147
  464MOL0     H61206   2.344   6.036   5.610 -0.9472 -0.5119  1.9824
  464MOL0     H61207   2.335   6.202   5.643  1.5235 -1.3522  0.0297
  464MOL0     H61208   2.111   5.989   5.644  2.7483 -2.3122  2.7453
  464MOL0     H61209   2.084   6.169   5.668 -0.2843 -0.8978 -0.9837
  464MOL0     H61210   2.028   5.873   5.810 -1.5876  0.6419  0.1303
  464MOL0     H61211   1.843   5.844   5.975 -1.1434  1.7050  0.0348
  464MOL0     H61212   1.649   6.221   6.266 -1.5402 -1.7610 -0.5630
  464MOL0     H61213   1.445   6.298   6.418 -1.6718 -0.6022 -0.2438
  464MOL0     H61214   1.289   6.013   6.598 -0.3983 -0.7767  0.0739
  464MOL0     H61215   1.214   6.130   6.499 -4.2541 -2.9428  2.0281
  464MOL0     H61216   1.205   6.135   6.800 -1.4723 -1.4115 -0.0937
  464MOL0     H61217   1.074   6.079   6.697  2.5302 -3.3064  0.9130
  464MOL0     H61218   1.057   6.304   6.599 -0.7098 -0.8271  0.8073
  464MOL0     H61219   1.205   6.362   6.679 -0.5979  0.6780 -1.8044
  464MOL0     H61220   0.954   6.258   6.823 -0.4019  0.9278 -0.3032
  464MOL0     H61221   1.089   6.331   6.909  1.5507 -1.5426  0.1273
  464MOL0     H61222   1.001   6.545   6.741 -0.9905 -0.2625 -2.2909
  464MOL0     H61223   0.918   6.503   6.897 -1.5508 -1.0511 -0.3456
  464MOL0     H61224   0.774   6.340   6.744 -2.0593  1.2108  1.0976
  464MOL0     H61225   0.860   6.410   6.613 -2.2593 -1.8834 -0.8591
  464MOL0     H61226   0.683   6.540   6.829  1.5898 -1.9504  0.9553
  464MOL0     H61227   0.771   6.631   6.698  0.7313 -0.0508 -0.2464
  464MOL0     H61228   0.516   6.586   6.677 -0.2368 -0.0974  0.4183
  464MOL0     H61229   0.561   6.409   6.653  6.0750 -1.5758 -1.3650
  464MOL0     H61230   1.568   6.021   6.697  0.4654 -0.9987 -0.3972
  464MOL0     H61231   1.761   5.936   6.559  0.8124  0.3159 -0.3037
  464MOL0     H61232   2.020   6.160   6.207 -1.7799 -0.2444  0.1709
  464MOL0     H61233   2.210   6.188   6.038 -1.7539  2.7940 -1.5830
  464MOL0     H61234   2.727   6.369   3.961 -1.9122 -0.2705 -1.1916
  464MOL0     H61235   2.871   6.429   3.769 -0.2388  0.2631 -0.4394
  464MOL0     H61236   3.253   6.324   3.548 -1.4078 -0.8950 -1.6260
  464MOL0     H61237   3.425   6.426   3.389  0.5193  0.2907 -0.9824
  464MOL0     H61238   3.292   6.546   3.008 -0.3899 -0.4323  1.1191
  464MOL0     H61239   3.456   6.609   3.011 -0.1119  3.1186  0.6247
  464MOL0     H61240   3.267   6.795   2.971 -1.2582 -2.4823 -1.6149
  464MOL0     H61241   3.229   6.760   3.140  0.7348 -0.5272 -0.4681
  464MOL0     H61242   3.492   6.852   3.040  1.7190  2.4017  1.3406
  464MOL0     H61243   3.460   6.811   3.204  2.5722  0.0714 -1.6359
  464MOL0     H61244   3.341   7.023   3.031 -0.4755 -3.3849 -1.2186
  464MOL0     H61245   3.260   6.988   3.171 -1.1657 -4.4112 -2.0971
  464MOL0     H61246   3.617   7.198   3.301 -0.4912  0.4786  0.6449
  464MOL0     H61247   3.108   6.571   3.160 -0.9867  2.0590  1.7699
  464MOL0     H61248   2.936   6.486   3.302 -0.3554 -2.8869  1.3966
  465MOL0     O61249   5.692   8.986   9.212  0.3294  0.4362 -0.0667
  465MOL0     C61250   5.580   9.032   9.233 -0.0058  0.1879  0.3225
  465MOL0     O61251   5.499   8.996   9.340 -0.2024  0.0577 -0.1580
  465MOL0     C61252   5.548   8.890   9.411  0.8739 -0.3955  0.3382
  465MOL0     C61253   5.494   8.763   9.388 -0.0546 -0.1621  0.0429
  465MOL0     C61254   5.543   8.649   9.454 -0.2448 -0.5763  0.0209
  465MOL0     C61255   5.641   8.665   9.542 -0.1240  0.2659 -0.0053
  465MOL0     O61256   5.685   8.551   9.597  0.1400  0.1819  0.3209
  465MOL0     C61257   5.662   8.543   9.738  0.4853  0.7164  0.6357
  465MOL0     C61258   5.789   8.501   9.814  0.2440 -0.6336 -0.6114
  465MOL0     C61259   5.809   8.349   9.826 -0.3002 -0.5678 -0.6526
  465MOL0     C61260   5.946   8.304   9.880 -1.0563  0.2420 -0.1160
  465MOL0     C61261   5.967   8.360  10.026  0.1553 -0.0922 -0.3150
  465MOL0     C61262   5.852   8.321  10.124  0.0749 -0.1045  0.2618
  465MOL0     C61263   5.830   8.169  10.121  0.0242  0.6327 -0.1842
  465MOL0     C61264   5.700   8.141  10.202  0.7168  0.6929  0.4178
  465MOL0     N61265   5.586   8.182  10.129  1.1480  0.8714 -0.1522
  465MOL0     C61266   5.545   8.116  10.022 -0.2527 -0.1509  0.2584
  465MOL0     C61267   5.439   8.196   9.994 -0.2760  0.2522  0.3820
  465MOL0     C61268   5.346   8.204   9.872 -0.1461 -0.4478 -0.0943
  465MOL0     C61269   5.373   8.336   9.799  0.4992  0.9329  0.5231
  465MOL0     C61270   5.241   8.376   9.736  0.2476 -0.7791 -0.3990
  465MOL0     C61271   5.242   8.535   9.714  0.4133 -0.3486 -0.3589
  465MOL0     O61272   5.104   8.585   9.687 -0.4535 -0.3727  0.7251
  465MOL0     C61273   5.090   8.685   9.598  0.2725  0.0289 -0.0593
  465MOL0     C61274   4.972   8.749   9.593  0.2983 -0.0502  0.0231
  465MOL0     C61275   4.939   8.855   9.507 -0.4265  0.2130 -0.3624
  465MOL0     C61276   5.029   8.914   9.416  0.1195  0.5882 -0.8876
  465MOL0     C61277   4.988   9.030   9.327 -0.1510 -0.9242 -0.1991
  465MOL0     O61278   4.902   9.118   9.368 -0.4915  0.2238  0.1771
  465MOL0     C61279   4.847   9.203   9.276  0.6160 -0.9008  0.0955
  465MOL0     C61280   4.761   9.166   9.161 -0.1428 -0.8850  0.2844
  465MOL0     C61281   4.709   9.269   9.076  1.0473  0.9620 -0.9130
  465MOL0     C61282   4.721   9.395   9.117 -0.3551 -0.5263  0.5598
  465MOL0     O61283   4.666   9.492   9.041 -0.1754 -0.2431  0.3269
  465MOL0     C61284   4.551   9.546   9.104  0.3924 -0.7222 -0.3019
  465MOL0     C61285   4.468   9.607   8.988  0.0715  0.6428  0.5439
  465MOL0     C61286   4.337   9.654   9.038  0.1125  0.0350 -0.6602
  465MOL0     C61287   4.239   9.651   8.934 -0.0327  0.9872  0.7457
  465MOL0     C61288   4.105   9.710   8.967  0.4324  0.4165 -0.5587
  465MOL0     C61289   4.039   9.660   9.093 -0.2489  0.4863  0.2719
  465MOL0     C61290   3.913   9.744   9.121  0.4689  0.0301  0.4121
  465MOL0     C61291   3.830   9.673   9.228 -0.5289  0.2044  0.2014
  465MOL0    Cl61292   3.664   9.740   9.240  0.0776  0.1458  0.5773
  465MOL0     C61293   4.799   9.431   9.226 -0.2375 -0.2140 -0.9399
  465MOL0     C61294   4.857   9.340   9.306  0.0834  0.4522 -0.1392
  465MOL0     O61295   5.049   9.039   9.216 -0.1254  0.0171 -0.7037
  465MOL0     C61296   5.159   8.860   9.418 -0.7784  0.4411 -0.0684
  465MOL0     C61297   5.185   8.748   9.505  1.2231 -0.5305 -0.1661
  465MOL0     N61298   5.427   8.297  10.087 -0.5109 -0.4123  0.5054
  465MOL0     N61299   5.519   8.290  10.166 -0.7286 -0.3317  0.0810
  465MOL0     C61300   5.685   8.793   9.565 -0.2476  1.0540 -0.5750
  465MOL0     C61301   5.644   8.908   9.508  1.2474  0.7460  0.0512
  465MOL0     C61302   5.536   9.138   9.141  0.6721 -0.3792  0.5705
  465MOL0     C61303   5.395   9.141   9.106 -0.1842 -0.0322 -0.7365
  465MOL0     C61304   5.359   9.217   9.002 -0.7596 -0.1643  0.7573
  465MOL0     C61305   5.439   9.297   8.924  0.4918 -0.2281 -0.4055
  465MOL0     O61306   5.376   9.378   8.827  0.1602  1.1867  0.1279
  465MOL0     C61307   5.438   9.467   8.738 -0.5029  0.5306  0.7525
  465MOL0     C61308   5.333   9.495   8.621 -1.0558  1.4523  0.3282
  465MOL0     C61309   5.359   9.405   8.501 -0.1103  0.0298 -0.0627
  465MOL0     C61310   5.362   9.254   8.545  0.2402 -0.1844  0.1288
  465MOL0     C61311   5.327   9.167   8.432 -1.0606  0.3578  0.4563
  465MOL0     C61312   5.269   9.099   8.349  0.0587  0.6274  0.8559
  465MOL0     C61313   5.571   9.307   8.964 -0.0760 -0.3131 -0.4233
  465MOL0     C61314   5.624   9.218   9.062 -0.3310 -0.3469 -0.1948
  465MOL0     H61315   5.416   8.754   9.313 -0.6808 -2.9902  0.9211
  465MOL0     H61316   5.503   8.554   9.420  0.2904 -2.4551  4.0064
  465MOL0     H61317   5.581   8.477   9.770 -2.0155  2.3264 -1.8932
  465MOL0     H61318   5.634   8.644   9.769 -2.7940 -0.4298  1.8139
  465MOL0     H61319   5.778   8.553   9.910 -0.1524  0.1868 -1.0860
  465MOL0     H61320   5.881   8.545   9.774  1.5228 -1.6654  1.0488
  465MOL0     H61321   5.809   8.309   9.724  1.4889 -3.4391  0.3604
  465MOL0     H61322   5.731   8.300   9.885  0.5481 -0.6100  0.4721
  465MOL0     H61323   5.963   8.198   9.863 -1.2745  0.3692 -1.1995
  465MOL0     H61324   6.014   8.348   9.807 -1.9272 -2.4555 -2.7308
  465MOL0     H61325   5.987   8.467  10.020  2.4633 -0.5222 -1.1124
  465MOL0     H61326   6.052   8.304  10.066  0.3215 -1.1166 -1.9964
  465MOL0     H61327   5.769   8.383  10.089  0.7078 -0.2976 -1.7058
  465MOL0     H61328   5.878   8.358  10.223  1.1139 -0.8831  0.3056
  465MOL0     H61329   5.816   8.125  10.022 -0.2164  1.8992 -0.7179
  465MOL0     H61330   5.909   8.111  10.171 -1.2322 -0.4267  0.6762
  465MOL0     H61331   5.715   8.192  10.298  0.7081 -2.0213  1.9488
  465MOL0     H61332   5.702   8.035  10.228  0.1898  1.0475  2.0109
  465MOL0     H61333   5.579   8.019   9.988 -1.3724 -0.0628 -1.2164
  465MOL0     H61334   5.245   8.201   9.915 -1.4296 -0.8091 -2.9395
  465MOL0     H61335   5.348   8.118   9.804 -4.4678 -1.1508  0.3458
  465MOL0     H61336   5.444   8.324   9.717 -1.5242 -0.1344 -1.1976
  465MOL0     H61337   5.416   8.410   9.866 -1.3995  2.2030  0.4277
  465MOL0     H61338   5.225   8.316   9.646 -2.3135 -5.2609  2.6568
  465MOL0     H61339   5.160   8.357   9.806  0.0311 -0.5201 -0.5794
  465MOL0     H61340   5.314   8.550   9.632  2.2301 -2.3127  0.7813
  465MOL0     H61341   5.276   8.568   9.812 -2.6032  0.0906  0.6332
  465MOL0     H61342   4.902   8.714   9.667  0.2516  1.3245  0.6641
  465MOL0     H61343   4.844   8.906   9.515 -0.5661  0.0173 -0.7367
  465MOL0     H61344   4.746   9.061   9.136  2.4456 -1.4555  0.8246
  465MOL0     H61345   4.644   9.245   8.993 -2.0345 -2.3575  2.0920
  465MOL0     H61346   4.577   9.611   9.188  0.6555  1.2003 -1.7909
  465MOL0     H61347   4.491   9.463   9.143  2.1782 -1.8192  0.2270
  465MOL0     H61348   4.449   9.536   8.907  0.8768  2.3744 -1.2461
  465MOL0     H61349   4.528   9.693   8.955 -2.0371  1.6916 -0.7598
  465MOL0     H61350   4.338   9.756   9.078 -0.3961 -0.8353  1.6902
  465MOL0     H61351   4.310   9.586   9.118 -2.9877 -1.1095 -2.5376
  465MOL0     H61352   4.286   9.708   8.853  1.3973 -2.3626 -0.9706
  465MOL0     H61353   4.229   9.545   8.908 -0.2364  0.7008  1.9340
  465MOL0     H61354   4.023   9.703   8.895 -0.3200 -2.4940  0.4260
  465MOL0     H61355   4.118   9.816   8.991  1.4123  0.4644 -1.2403
  465MOL0     H61356   4.104   9.662   9.181  3.5825 -0.6211 -2.2959
  465MOL0     H61357   4.007   9.558   9.072 -3.0002  1.2433  0.3910
  465MOL0     H61358   3.941   9.836   9.173  1.2944 -0.3364  0.6263
  465MOL0     H61359   3.855   9.754   9.029  0.2129 -2.4539  0.2310
  465MOL0     H61360   3.876   9.670   9.327 -0.3028  1.7767  0.1731
  465MOL0     H61361   3.811   9.569   9.198  2.2169 -1.2212  2.8492
  465MOL0     H61362   4.808   9.536   9.252  1.5318 -0.6941  0.5225
  465MOL0     H61363   4.919   9.370   9.390  0.5326 -0.2978 -0.1885
  465MOL0     H61364   5.238   8.910   9.363 -1.1827  1.2342  0.0546
  465MOL0     H61365   5.290   8.719   9.505  1.5658  0.6729  0.3284
  465MOL0     H61366   5.755   8.801   9.648  0.4519 -1.3518 -0.8765
  465MOL0     H61367   5.673   9.003   9.552 -1.3059  0.7716  1.9116
  465MOL0     H61368   5.335   9.081   9.174  1.4240  1.4671  2.2080
  465MOL0     H61369   5.252   9.223   8.982 -1.2282 -3.8332  1.4210
  465MOL0     H61370   5.530   9.422   8.700 -1.6613 -1.4370  0.1378
  465MOL0     H61371   5.457   9.565   8.784  1.1099 -1.7041  5.5852
  465MOL0     H61372   5.236   9.462   8.659  0.5347 -2.0252  1.8653
  465MOL0     H61373   5.335   9.603   8.602 -0.2253  1.4604  0.4069
  465MOL0     H61374   5.456   9.429   8.456  0.4943  1.4388  1.8747
  465MOL0     H61375   5.278   9.428   8.431  0.4998  4.6032  0.4575
  465MOL0     H61376   5.456   9.230   8.596 -0.6014  3.3934  3.8864
  465MOL0     H61377   5.283   9.232   8.618 -0.9435 -0.4090 -1.1774
  465MOL0     H61378   5.202   9.046   8.285  0.7477  1.1233 -0.3068
  465MOL0     H61379   5.631   9.387   8.924  1.5422 -2.2291 -1.9904
  465MOL0     H61380   5.727   9.223   9.097 -0.7922  0.0564  1.1805
  466MOL0     O61381   7.381  10.378   6.433 -0.5175  0.4203  0.0297
  466MOL0     C61382   7.413  10.460   6.520 -0.3937 -0.6062  0.5816
  466MOL0     O61383   7.336  10.482   6.629 -0.3949 -0.1556  0.2761
  466MOL0     C61384   7.233  10.396   6.648 -0.4836  0.6517  0.2229
  466MOL0     C61385   7.255  10.284   6.728  0.6810 -0.2846  0.3129
  466MOL0     C61386   7.155  10.193   6.754 -0.1510 -0.0688 -0.8036
  466MOL0     C61387   7.025  10.220   6.697  0.5607 -0.1797  0.0765
  466MOL0     O61388   6.916  10.140   6.723  0.1024 -0.7454  0.5984
  466MOL0     C61389   6.901  10.072   6.840 -1.2296 -1.2157 -0.0612
  466MOL0     C61390   6.763  10.002   6.860 -0.2873  1.4395  1.1214
  466MOL0     C61391   6.684  10.070   6.975  0.1079 -0.0740 -0.0615
  466MOL0     C61392   6.659  10.229   6.956 -0.4338  0.1762  0.5846
  466MOL0     C61393   6.587  10.276   6.828  0.3553  0.2236 -0.4505
  466MOL0     C61394   6.448  10.194   6.813 -0.0645 -0.7974 -0.3183
  466MOL0     C61395   6.347  10.235   6.705  0.4552 -0.5874 -0.6641
  466MOL0     C61396   6.239  10.128   6.671  0.1682  0.2364  0.7633
  466MOL0     N61397   6.123  10.193   6.618 -0.3807 -0.2609 -0.7611
  466MOL0     C61398   6.006  10.230   6.679 -0.4630  0.3083 -1.1047
  466MOL0     C61399   5.925  10.263   6.576  0.0397  0.0361 -0.3158
  466MOL0     C61400   5.785  10.325   6.602  0.3481  0.7127 -0.1453
  466MOL0     C61401   5.781  10.468   6.552  0.1234  0.6730  0.5376
  466MOL0     C61402   5.635  10.511   6.538  0.4212 -0.3103  0.2061
  466MOL0     C61403   5.625  10.650   6.506 -0.4123 -1.0278  0.3807
  466MOL0     O61404   5.505  10.679   6.429 -0.2268 -0.1694  0.4590
  466MOL0     C61405   5.381  10.672   6.486  0.0273 -0.1746 -0.2203
  466MOL0     C61406   5.275  10.676   6.395  0.6639 -0.7872 -0.0483
  466MOL0     C61407   5.147  10.655   6.433 -0.1577 -0.8816  0.1647
  466MOL0     C61408   5.102  10.640   6.566 -0.9539 -0.6486 -0.3921
  466MOL0     C61409   4.959  10.643   6.602 -0.4022  0.8092  0.2141
  466MOL0     O61410   4.873  10.646   6.491 -0.4051 -0.2997  0.0614
  466MOL0     C61411   4.737  10.648   6.495 -0.5433 -0.0191  0.1172
  466MOL0     C61412   4.658  10.529   6.480 -0.0575 -1.1820 -0.0439
  466MOL0     C61413   4.516  10.544   6.471  0.2567  0.5238  0.1357
  466MOL0     C61414   4.455  10.671   6.491  0.1068  0.5584  0.2453
  466MOL0     O61415   4.317  10.664   6.487 -0.2033  0.1021  0.8113
  466MOL0     C61416   4.244  10.780   6.525 -0.7365 -0.4649  0.4764
  466MOL0     C61417   4.095  10.785   6.473  0.1775 -0.3167 -0.3220
  466MOL0     C61418   4.027  10.919   6.491 -0.0821 -0.2202  0.7363
  466MOL0     C61419   3.878  10.905   6.475  1.4063 -0.1322  0.7425
  466MOL0     C61420   3.796  11.039   6.482  0.4306 -0.5893  0.0210
  466MOL0     C61421   3.785  11.094   6.622 -0.4069  0.5079 -0.3837
  466MOL0     C61422   3.697  11.223   6.620 -1.0700  1.2698 -0.4408
  466MOL0     C61423   3.711  11.286   6.756 -0.5198  0.5815 -0.8976
  466MOL0    Cl61424   3.633  11.187   6.893 -0.4183 -0.0473  0.2152
  466MOL0     C61425   4.541  10.776   6.518  0.1509  0.4184  0.3485
  466MOL0     C61426   4.675  10.764   6.522 -0.5164  0.7638 -0.1843
  466MOL0     O61427   4.925  10.641   6.718 -0.1780 -0.3037 -0.2476
  466MOL0     C61428   5.205  10.628   6.658  0.4003  0.3564 -0.3669
  466MOL0     C61429   5.341  10.648   6.624  0.5364  0.2020  0.1682
  466MOL0     N61430   5.994  10.260   6.459 -0.3179 -0.2099  1.1060
  466MOL0     N61431   6.112  10.217   6.486  0.3441  0.8288 -0.7511
  466MOL0     C61432   7.007  10.331   6.609 -0.1232  0.6566  0.2673
  466MOL0     C61433   7.115  10.418   6.586  0.3551  0.0888 -0.8481
  466MOL0     C61434   7.545  10.525   6.497 -0.0828  0.2999  1.1215
  466MOL0     C61435   7.610  10.589   6.605  0.1321  0.7875  0.4134
  466MOL0     C61436   7.724  10.651   6.591 -0.5672 -0.4835  0.3292
  466MOL0     C61437   7.783  10.668   6.467 -0.0555  0.3903 -1.1620
  466MOL0     O61438   7.896  10.748   6.444  0.4096 -0.1566 -0.0799
  466MOL0     C61439   7.961  10.799   6.560  0.0979 -0.4074 -0.2502
  466MOL0     C61440   8.103  10.846   6.528 -0.0151 -0.0117 -0.2673
  466MOL0     C61441   8.178  10.872   6.653 -1.1655  0.3431 -0.7891
  466MOL0     C61442   8.116  10.960   6.760 -0.4442 -0.3119 -0.4157
  466MOL0     C61443   8.210  11.017   6.855 -0.5810  1.4693 -0.0862
  466MOL0     C61444   8.297  11.039   6.938  0.3858 -1.0285  0.6917
  466MOL0     C61445   7.717  10.615   6.357 -0.0975  0.2969  0.1389
  466MOL0     C61446   7.605  10.530   6.370  0.7018  0.0407  0.1689
  466MOL0     H61447   7.351  10.262   6.775  1.0047  1.2731  0.4608
  466MOL0     H61448   7.171  10.108   6.819 -3.2444 -0.6103 -0.6082
  466MOL0     H61449   6.919  10.147   6.918 -1.2131  0.5252 -1.6634
  466MOL0     H61450   6.988  10.005   6.840 -1.2069 -1.2656 -2.5946
  466MOL0     H61451   6.774   9.895   6.881 -0.7291  1.1080 -0.1901
  466MOL0     H61452   6.713  10.015   6.763  3.5262  2.1537 -0.9612
  466MOL0     H61453   6.737  10.060   7.071  1.0916 -3.1179 -0.8147
  466MOL0     H61454   6.594  10.011   6.992  1.9200 -2.8366  0.6226
  466MOL0     H61455   6.597  10.246   7.045 -1.6468 -2.1557  0.2606
  466MOL0     H61456   6.755  10.279   6.972 -1.0808  1.6251  0.0598
  466MOL0     H61457   6.654  10.253   6.745  0.8272 -1.5439  0.3582
  466MOL0     H61458   6.572  10.384   6.820  1.8274  0.3553 -1.7997
  466MOL0     H61459   6.401  10.203   6.912 -0.8121  0.8381 -0.7862
  466MOL0     H61460   6.481  10.090   6.802  1.8302 -0.4540  1.5277
  466MOL0     H61461   6.291  10.325   6.732 -2.0571 -1.8233 -1.4379
  466MOL0     H61462   6.399  10.256   6.611 -0.1514 -1.5771 -1.2394
  466MOL0     H61463   6.208  10.077   6.763  1.9211 -2.0925  0.1519
  466MOL0     H61464   6.283  10.044   6.616  0.1620 -1.0122  2.5776
  466MOL0     H61465   5.973  10.218   6.782 -0.8529  0.7185 -1.1777
  466MOL0     H61466   5.751  10.324   6.706 -0.7238  2.1798 -0.4570
  466MOL0     H61467   5.716  10.266   6.543 -2.4096  2.1333  1.4584
  466MOL0     H61468   5.822  10.480   6.451 -1.7337 -0.2454 -0.3574
  466MOL0     H61469   5.822  10.532   6.631  1.9135 -3.2988  3.1775
  466MOL0     H61470   5.594  10.454   6.454 -0.9117  1.4406 -0.4135
  466MOL0     H61471   5.571  10.498   6.626 -3.3028 -2.1018 -2.4828
  466MOL0     H61472   5.710  10.680   6.444 -1.4190 -1.8340 -1.4866
  466MOL0     H61473   5.634  10.709   6.597 -2.2317 -0.3188  0.1286
  466MOL0     H61474   5.281  10.685   6.287 -2.6385 -0.7326 -0.3148
  466MOL0     H61475   5.068  10.667   6.360 -1.0845 -3.2994  0.6725
  466MOL0     H61476   4.717  10.438   6.467 -0.0919 -1.3257  0.7578
  466MOL0     H61477   4.455  10.455   6.461  2.1514 -1.3423  3.3906
  466MOL0     H61478   4.280  10.876   6.488 -0.7827 -0.7389 -0.2864
  466MOL0     H61479   4.246  10.782   6.635 -3.1849  1.3621  0.5836
  466MOL0     H61480   4.045  10.704   6.528 -3.3007  1.7765 -0.0748
  466MOL0     H61481   4.101  10.774   6.364 -0.3759  4.2271 -1.0051
  466MOL0     H61482   4.066  10.990   6.417 -1.1480 -0.5752 -0.2068
  466MOL0     H61483   4.058  10.963   6.585  2.6697  3.2917 -1.5486
  466MOL0     H61484   3.859  10.846   6.385 -0.1702  0.0057  0.9579
  466MOL0     H61485   3.843  10.842   6.557  0.8460 -0.0800  0.5508
  466MOL0     H61486   3.697  11.002   6.455  0.3653 -0.8412  0.5912
  466MOL0     H61487   3.813  11.112   6.402 -1.7562 -1.4472 -1.3205
  466MOL0     H61488   3.885  11.108   6.665 -0.4117 -1.5382  0.3691
  466MOL0     H61489   3.731  11.020   6.680  0.9668 -0.5967 -0.4612
  466MOL0     H61490   3.755  11.294   6.561  3.0236 -0.9642  0.4966
  466MOL0     H61491   3.594  11.213   6.584 -0.4494  2.1539 -2.6147
  466MOL0     H61492   3.652  11.379   6.754  1.7438  2.3660  3.0811
  466MOL0     H61493   3.815  11.304   6.786  0.0962 -5.9656  2.6974
  466MOL0     H61494   4.505  10.876   6.537  2.5022  1.3017  0.4910
  466MOL0     H61495   4.731  10.854   6.548  0.9994 -0.2792  0.3103
  466MOL0     H61496   5.174  10.617   6.761 -0.4756 -3.6481 -0.8816
  466MOL0     H61497   5.416  10.657   6.702  1.3840 -0.3345 -0.5733
  466MOL0     H61498   6.913  10.341   6.556 -0.0399 -0.7059 -0.1789
  466MOL0     H61499   7.117  10.502   6.518  1.9551  0.6769 -0.1408
  466MOL0     H61500   7.577  10.592   6.708 -1.7326 -0.8325 -0.0734
  466MOL0     H61501   7.770  10.691   6.681  0.7537 -2.6832  0.6945
  466MOL0     H61502   7.961  10.721   6.637 -1.0111  0.0042  0.1742
  466MOL0     H61503   7.915  10.882   6.613  1.2105 -1.6443  2.9204
  466MOL0     H61504   8.146  10.771   6.461 -0.7764  2.1662 -3.4531
  466MOL0     H61505   8.107  10.934   6.462  1.7683 -1.3929 -2.1255
  466MOL0     H61506   8.272  10.925   6.636 -2.3597  2.5853 -0.7735
  466MOL0     H61507   8.212  10.778   6.697  1.3465  1.5720  0.0663
  466MOL0     H61508   8.069  11.051   6.722  1.0272  1.7360  2.3037
  466MOL0     H61509   8.043  10.897   6.812 -1.3478  1.6238  0.8064
  466MOL0     H61510   8.361  11.076   7.015  1.7631 -3.5780  0.8670
  466MOL0     H61511   7.758  10.646   6.262 -1.2007 -2.2355 -1.2475
  466MOL0     H61512   7.555  10.492   6.282  0.3451 -2.4052  1.3629
  467MOL0     O61513   6.231   2.652   2.307  0.6697 -0.7171  0.0787
  467MOL0     C61514   6.282   2.604   2.203 -0.5028  0.3735 -0.2848
  467MOL0     O61515   6.332   2.679   2.100  0.3746  0.0292 -0.1354
  467MOL0     C61516   6.344   2.816   2.125 -0.6505 -0.4982  0.7618
  467MOL0     C61517   6.453   2.877   2.192  0.7631 -0.0827 -0.3947
  467MOL0     C61518   6.441   3.016   2.222 -1.0215  0.1450 -0.2046
  467MOL0     C61519   6.323   3.090   2.191  0.8941  0.2181 -0.3569
  467MOL0     O61520   6.299   3.220   2.226  0.4921  0.2673  0.7122
  467MOL0     C61521   6.343   3.242   2.355  0.1692 -0.9328 -0.6498
  467MOL0     C61522   6.271   3.373   2.404 -0.4758 -0.3227 -0.2811
  467MOL0     C61523   6.139   3.338   2.456  0.6467 -0.3999 -0.1548
  467MOL0     C61524   6.056   3.471   2.463 -1.0510 -0.7517  0.1448
  467MOL0     C61525   5.917   3.457   2.508  0.6360 -0.0757  0.3668
  467MOL0     C61526   5.812   3.390   2.411  0.3880  0.5606  0.6979
  467MOL0     C61527   5.811   3.434   2.268  0.0958 -0.5334  0.0524
  467MOL0     C61528   5.786   3.584   2.252 -0.6852 -0.6838 -0.2416
  467MOL0     N61529   5.689   3.649   2.331 -0.4798  0.4481 -0.0275
  467MOL0     C61530   5.555   3.656   2.315  0.0491 -0.6848 -0.2446
  467MOL0     C61531   5.518   3.745   2.408  0.1646  0.6057  0.1555
  467MOL0     C61532   5.373   3.786   2.441  0.4288 -0.4453 -0.8679
  467MOL0     C61533   5.328   3.878   2.334 -0.1291 -0.5940  0.8553
  467MOL0     C61534   5.368   4.015   2.374  0.2456  0.5829 -0.1880
  467MOL0     C61535   5.297   4.111   2.278  0.1601 -1.0659  0.4588
  467MOL0     O61536   5.360   4.235   2.258 -0.4008 -0.2102  0.2294
  467MOL0     C61537   5.298   4.346   2.205 -0.5445 -0.0129 -0.2123
  467MOL0     C61538   5.184   4.342   2.126  0.4827  0.4799  0.0636
  467MOL0     C61539   5.118   4.458   2.081 -0.7820  0.7378  0.2165
  467MOL0     C61540   5.182   4.582   2.111  1.3638 -0.0727 -0.3652
  467MOL0     C61541   5.113   4.712   2.079 -0.9317  0.6208 -0.4050
  467MOL0     O61542   4.986   4.696   2.027 -0.3707 -0.8319 -0.0253
  467MOL0     C61543   4.928   4.813   1.985  0.3337  1.4552  0.0393
  467MOL0     C61544   4.870   4.813   1.852 -0.7924 -0.1441 -0.1919
  467MOL0     C61545   4.810   4.928   1.809 -0.0595 -0.4484 -0.3775
  467MOL0     C61546   4.794   5.036   1.888 -0.1465  0.1443  0.0397
  467MOL0     O61547   4.708   5.136   1.838  1.0759 -0.3309  0.3568
  467MOL0     C61548   4.658   5.242   1.921  0.1295  0.4753 -0.1428
  467MOL0     C61549   4.578   5.345   1.839  0.8879  0.7594 -0.5590
  467MOL0     C61550   4.438   5.351   1.893 -0.3436  0.0883  0.0726
  467MOL0     C61551   4.360   5.448   1.803  0.0275 -0.0243 -1.1649
  467MOL0     C61552   4.213   5.478   1.864 -0.6509  0.1403  0.0817
  467MOL0     C61553   4.115   5.504   1.750  0.0882  0.0802 -0.9197
  467MOL0     C61554   3.970   5.503   1.802  0.5111  1.1330 -0.4095
  467MOL0     C61555   3.865   5.551   1.696 -0.2517  0.3922 -0.8538
  467MOL0    Cl61556   3.714   5.585   1.793 -0.0471  0.6704  0.2045
  467MOL0     C61557   4.847   5.041   2.017 -0.3423  0.9304  0.2050
  467MOL0     C61558   4.907   4.922   2.064 -1.5049 -0.7307 -0.1888
  467MOL0     O61559   5.174   4.817   2.086 -0.1207 -0.2254 -0.2581
  467MOL0     C61560   5.289   4.586   2.196 -0.0749  0.2370  0.3683
  467MOL0     C61561   5.349   4.468   2.245 -0.6903  0.4423  0.8379
  467MOL0     N61562   5.634   3.785   2.485  0.5176  0.6902  0.8443
  467MOL0     N61563   5.732   3.726   2.437  0.2430  0.2686  0.0815
  467MOL0     C61564   6.223   3.016   2.129 -0.4687  0.4604 -0.0496
  467MOL0     C61565   6.236   2.886   2.090 -0.2445 -0.0780 -1.1460
  467MOL0     C61566   6.256   2.457   2.175  0.7800 -1.0863  0.4544
  467MOL0     C61567   6.214   2.372   2.271  0.6335  0.3182  0.6882
  467MOL0     C61568   6.189   2.240   2.240 -0.8343 -0.7281  0.9180
  467MOL0     C61569   6.203   2.190   2.101 -0.3047  0.6461  1.4596
  467MOL0     O61570   6.171   2.066   2.063  0.9274 -0.0930  0.2798
  467MOL0     C61571   6.175   1.961   2.157  0.0363  0.2355 -0.0735
  467MOL0     C61572   6.185   1.830   2.071  0.1361  0.1149  0.1460
  467MOL0     C61573   6.174   1.710   2.159  0.1376  0.0577 -0.7267
  467MOL0     C61574   6.185   1.567   2.107  0.0040 -0.4219 -0.6610
  467MOL0     C61575   6.280   1.541   2.003  0.2692  0.6529  0.4316
  467MOL0     C61576   6.345   1.505   1.912  0.0145 -0.2035  0.0320
  467MOL0     C61577   6.230   2.284   2.007 -0.7163 -0.3711  0.2330
  467MOL0     C61578   6.268   2.420   2.039  0.5274  0.5812 -0.3084
  467MOL0     H61579   6.538   2.824   2.234  0.8394  0.8415  0.6910
  467MOL0     H61580   6.521   3.053   2.284  0.7221 -2.0867 -0.9943
  467MOL0     H61581   6.452   3.247   2.360  0.1127 -0.8258  0.8145
  467MOL0     H61582   6.301   3.161   2.414  2.0101 -0.2650  1.7239
  467MOL0     H61583   6.262   3.447   2.323  1.7533  2.0806  1.4656
  467MOL0     H61584   6.323   3.416   2.490 -0.2491 -2.1629  0.5550
  467MOL0     H61585   6.144   3.287   2.552  0.3565 -1.4942 -0.6989
  467MOL0     H61586   6.084   3.263   2.398  3.1418 -1.1188 -1.7569
  467MOL0     H61587   6.110   3.535   2.534 -2.5770 -0.7517  1.3595
  467MOL0     H61588   6.071   3.521   2.367 -3.5262 -0.2058 -0.0213
  467MOL0     H61589   5.882   3.553   2.546  0.5162  0.6807 -1.5403
  467MOL0     H61590   5.909   3.399   2.600 -1.6527  2.6338  2.0198
  467MOL0     H61591   5.711   3.411   2.445 -0.5759  1.1910 -2.3563
  467MOL0     H61592   5.813   3.280   2.410  5.8073  0.2917 -1.2754
  467MOL0     H61593   5.897   3.403   2.207  3.0195  4.1291  1.2519
  467MOL0     H61594   5.723   3.392   2.219 -0.6121  0.3486  0.5438
  467MOL0     H61595   5.776   3.623   2.150 -2.8360  2.2167  0.9598
  467MOL0     H61596   5.878   3.624   2.295 -1.5232 -2.0091  3.0643
  467MOL0     H61597   5.483   3.612   2.246  0.6697 -1.1227 -0.6244
  467MOL0     H61598   5.362   3.833   2.539  0.4958  1.3673 -1.6944
  467MOL0     H61599   5.306   3.700   2.435  0.0585 -0.1180 -1.5584
  467MOL0     H61600   5.219   3.876   2.321  0.0991 -2.6146 -1.6730
  467MOL0     H61601   5.375   3.844   2.241 -0.7542  1.9531 -0.4758
  467MOL0     H61602   5.328   4.037   2.473 -0.0337  1.5855 -0.5052
  467MOL0     H61603   5.477   4.024   2.376  0.1652  1.4974  1.7001
  467MOL0     H61604   5.198   4.121   2.324  0.9951 -2.6819  2.7774
  467MOL0     H61605   5.278   4.079   2.175  0.1870  2.5559 -0.8170
  467MOL0     H61606   5.133   4.248   2.111 -2.4643  1.8483  0.8645
  467MOL0     H61607   5.022   4.448   2.031 -0.7267 -2.4239  0.4936
  467MOL0     H61608   4.884   4.726   1.789  0.0267 -0.1645  0.0063
  467MOL0     H61609   4.767   4.931   1.709  2.4098  2.5680 -1.5297
  467MOL0     H61610   4.743   5.302   1.956 -1.2141  1.7792  1.0710
  467MOL0     H61611   4.599   5.200   2.004  2.5554  0.3630  1.6355
  467MOL0     H61612   4.576   5.315   1.734  1.4492 -1.1123 -0.0774
  467MOL0     H61613   4.619   5.446   1.849 -0.4515  1.5212 -2.3761
  467MOL0     H61614   4.425   5.387   1.995 -0.4041 -1.8047  0.7732
  467MOL0     H61615   4.398   5.250   1.878  0.6368 -0.2364 -0.4905
  467MOL0     H61616   4.408   5.546   1.797  1.4109  0.0222  4.5953
  467MOL0     H61617   4.355   5.399   1.705 -0.4315 -2.1997 -0.1267
  467MOL0     H61618   4.221   5.563   1.933 -1.8328  1.2521 -1.0900
  467MOL0     H61619   4.173   5.398   1.927 -0.0008  0.7592  1.3341
  467MOL0     H61620   4.131   5.437   1.665  1.3946  0.9260 -1.3812
  467MOL0     H61621   4.133   5.604   1.709  1.2072  1.4687  2.5095
  467MOL0     H61622   3.940   5.403   1.833 -0.1869  2.0753  2.2023
  467MOL0     H61623   3.955   5.564   1.892 -2.6534 -0.6312  0.4232
  467MOL0     H61624   3.844   5.480   1.616 -0.3940 -1.5406  0.8031
  467MOL0     H61625   3.906   5.642   1.652  0.6908  0.0574 -0.7010
  467MOL0     H61626   4.835   5.129   2.079 -0.8569  2.4315 -1.9053
  467MOL0     H61627   4.947   4.915   2.165 -0.5187  1.0577 -0.4144
  467MOL0     H61628   5.325   4.682   2.229  1.6293 -0.3970  0.4532
  467MOL0     H61629   5.441   4.463   2.303  0.0869 -2.3306 -0.4500
  467MOL0     H61630   6.133   3.068   2.096 -2.3702 -1.1932  2.1958
  467MOL0     H61631   6.151   2.833   2.048 -1.6076  0.2633  1.0552
  467MOL0     H61632   6.193   2.398   2.374  1.0573 -1.5645  1.2720
  467MOL0     H61633   6.152   2.179   2.322  0.9342 -1.9651  0.8509
  467MOL0     H61634   6.086   1.952   2.220 -0.3887 -1.3377 -0.8493
  467MOL0     H61635   6.266   1.969   2.217 -0.1370 -1.7142  0.4933
  467MOL0     H61636   6.114   1.823   1.988 -0.0280 -0.0423  0.2981
  467MOL0     H61637   6.282   1.815   2.023 -0.2262 -1.6820 -0.1123
  467MOL0     H61638   6.080   1.728   2.211  0.3676 -0.2153 -0.2155
  467MOL0     H61639   6.257   1.724   2.228 -1.8722  1.3136  1.5794
  467MOL0     H61640   6.207   1.508   2.196  0.2636  1.0991  0.3022
  467MOL0     H61641   6.086   1.544   2.066  0.4898 -0.4815 -1.8631
  467MOL0     H61642   6.402   1.460   1.833  3.3542  0.4166  1.9021
  467MOL0     H61643   6.253   2.248   1.907  0.5272  0.6188  0.1463
  467MOL0     H61644   6.315   2.476   1.958 -0.3255  1.1921 -0.3937
  468MOL0     O61645   0.115   1.073   4.349 -0.0342 -0.2254 -0.0665
  468MOL0     C61646   0.172   1.010   4.260 -0.5487 -0.4902  0.3143
  468MOL0     O61647   0.123   0.970   4.137 -0.6390 -0.4460 -0.3887
  468MOL0     C61648  -0.007   0.986   4.106 -0.5198 -0.5707 -0.6245
  468MOL0     C61649  -0.114   0.946   4.186 -0.5692  0.3394  0.1660
  468MOL0     C61650  -0.246   0.965   4.145 -0.0272  0.2755 -0.8576
  468MOL0     C61651  -0.273   1.026   4.030  0.0261 -0.4633 -0.3754
  468MOL0     O61652  -0.410   1.065   4.005 -0.7908  0.4300 -0.8749
  468MOL0     C61653  -0.438   1.155   3.904  0.9588  0.0409 -0.2651
  468MOL0     C61654  -0.590   1.191   3.901 -1.4230  0.5373 -0.0194
  468MOL0     C61655  -0.680   1.066   3.896 -0.1241 -1.1037 -0.6466
  468MOL0     C61656  -0.822   1.097   3.923  0.3100  0.0824 -0.2457
  468MOL0     C61657  -0.920   0.978   3.924  0.7286  1.0771 -0.5995
  468MOL0     C61658  -1.076   1.006   3.934 -0.3039 -0.2057  0.1915
  468MOL0     C61659  -1.156   0.897   4.008 -0.1189  0.7327  0.7301
  468MOL0     C61660  -1.298   0.897   3.967  0.1943  0.2307  0.2375
  468MOL0     N61661  -1.375   0.796   4.029 -0.1875 -0.5591  1.0390
  468MOL0     C61662  -1.341   0.685   4.103 -0.6980 -0.3639  0.0087
  468MOL0     C61663  -1.459   0.635   4.142  0.4969  0.2895  0.3533
  468MOL0     C61664  -1.477   0.539   4.259 -0.5387  0.5930  0.1029
  468MOL0     C61665  -1.617   0.502   4.303 -0.0414 -0.0181  0.8974
  468MOL0     C61666  -1.686   0.409   4.201 -0.1833  1.1922  0.0629
  468MOL0     C61667  -1.835   0.391   4.229  0.2726 -0.2972  0.9038
  468MOL0     O61668  -1.876   0.288   4.142 -0.2865  0.0654 -0.0538
  468MOL0     C61669  -1.996   0.227   4.174  0.2147 -0.6838 -0.8754
  468MOL0     C61670  -2.087   0.277   4.274  0.1283  0.8920 -0.9071
  468MOL0     C61671  -2.217   0.214   4.280 -0.4510  0.4501  0.1346
  468MOL0     C61672  -2.244   0.103   4.209  1.3613  0.1171 -0.5444
  468MOL0     C61673  -2.373   0.037   4.241  1.0487  0.1958  0.4932
  468MOL0     O61674  -2.377  -0.103   4.224 -0.3622  0.2925  0.0151
  468MOL0     C61675  -2.498  -0.160   4.249  0.5058  0.1271  0.8923
  468MOL0     C61676  -2.523  -0.223   4.375 -0.6629  0.1890 -0.8296
  468MOL0     C61677  -2.646  -0.292   4.402  0.0220  0.1756 -0.4821
  468MOL0     C61678  -2.733  -0.325   4.296  0.0141 -0.3961  1.5951
  468MOL0     O61679  -2.827  -0.421   4.313 -0.4786  0.7921 -0.2991
  468MOL0     C61680  -2.934  -0.426   4.220  0.4403 -0.0099 -0.1642
  468MOL0     C61681  -3.028  -0.534   4.276  0.1195  0.6851  0.0996
  468MOL0     C61682  -3.102  -0.476   4.396  0.4923 -0.3680  0.9371
  468MOL0     C61683  -3.198  -0.574   4.453 -1.2925  0.2126  0.5425
  468MOL0     C61684  -3.250  -0.545   4.596  1.0583 -0.6945 -0.6120
  468MOL0     C61685  -3.330  -0.667   4.646  0.0556 -0.3491 -0.2068
  468MOL0     C61686  -3.454  -0.629   4.736  0.2604  0.0886 -0.0019
  468MOL0     C61687  -3.486  -0.739   4.828  0.6385 -0.3563 -0.1226
  468MOL0    Cl61688  -3.348  -0.775   4.935  0.1376 -0.5066 -0.0460
  468MOL0     C61689  -2.693  -0.285   4.170 -0.2443 -0.9766  0.3174
  468MOL0     C61690  -2.593  -0.189   4.142 -0.2177  0.5792 -0.2384
  468MOL0     O61691  -2.462   0.102   4.295 -1.0014 -1.1706  0.1341
  468MOL0     C61692  -2.157   0.049   4.121 -1.2278 -0.5883  0.5002
  468MOL0     C61693  -2.036   0.118   4.099 -0.5014 -0.3446 -1.1708
  468MOL0     N61694  -1.558   0.690   4.064 -0.2668 -0.5860  0.6525
  468MOL0     N61695  -1.508   0.796   4.004 -0.3033 -0.6147  0.3361
  468MOL0     C61696  -0.170   1.056   3.949 -0.0222  0.1873 -0.2852
  468MOL0     C61697  -0.039   1.043   3.983 -0.4579  0.1316 -0.0496
  468MOL0     C61698   0.312   0.964   4.261 -0.4983 -0.5046  0.2511
  468MOL0     C61699   0.384   0.909   4.147  0.3686  1.1794 -0.7778
  468MOL0     C61700   0.503   0.850   4.160  0.0912  0.0162  0.4823
  468MOL0     C61701   0.579   0.850   4.276  0.1135  0.7098 -0.1606
  468MOL0     O61702   0.704   0.795   4.272  0.0233 -0.3493 -0.5245
  468MOL0     C61703   0.784   0.801   4.394  0.0215  0.9663  0.4582
  468MOL0     C61704   0.915   0.733   4.350 -0.2141  0.4322 -0.3523
  468MOL0     C61705   0.914   0.593   4.304 -1.1120 -0.7580 -0.2714
  468MOL0     C61706   1.060   0.545   4.294  0.1094  0.3907  0.3881
  468MOL0     C61707   1.077   0.404   4.264  0.0411 -0.5159  0.0677
  468MOL0     C61708   1.081   0.286   4.228 -0.1112 -0.4481  1.3324
  468MOL0     C61709   0.522   0.911   4.382  0.5981  0.5723 -0.0778
  468MOL0     C61710   0.392   0.972   4.376  0.3565 -0.7436  0.7143
  468MOL0     H61711  -0.084   0.889   4.273  1.0307  1.4820  0.4053
  468MOL0     H61712  -0.322   0.933   4.216 -1.3084  2.1835 -1.2879
  468MOL0     H61713  -0.417   1.119   3.803 -1.9168  2.5363 -1.9057
  468MOL0     H61714  -0.406   1.258   3.920 -0.3727  1.2331 -4.1128
  468MOL0     H61715  -0.604   1.262   3.819  2.8033  0.8655 -0.6878
  468MOL0     H61716  -0.615   1.251   3.988  0.8468 -0.4264  1.3920
  468MOL0     H61717  -0.642   0.994   3.969  2.2695  1.4910  0.8945
  468MOL0     H61718  -0.653   1.009   3.807  4.0093  1.7262 -1.5022
  468MOL0     H61719  -0.817   1.147   4.021  2.9356 -0.8289  0.1594
  468MOL0     H61720  -0.854   1.164   3.843  1.6743 -1.8296 -2.5177
  468MOL0     H61721  -0.900   0.914   4.011 -1.6227 -0.3428 -1.0020
  468MOL0     H61722  -0.895   0.919   3.836  2.2445  3.3678 -1.7899
  468MOL0     H61723  -1.111   1.026   3.832 -1.3777 -0.8061  0.4221
  468MOL0     H61724  -1.086   1.091   4.002  2.8667 -1.7173  2.8288
  468MOL0     H61725  -1.111   0.804   3.974  0.5343  1.7040 -1.2625
  468MOL0     H61726  -1.156   0.902   4.117 -1.7804 -3.3697  1.0863
  468MOL0     H61727  -1.314   0.889   3.859  0.5447 -1.2812  0.2670
  468MOL0     H61728  -1.334   0.997   3.994  3.5845  1.3005  1.2143
  468MOL0     H61729  -1.242   0.663   4.142 -0.0848 -1.0067 -1.7977
  468MOL0     H61730  -1.426   0.591   4.340  0.9760  0.9545 -1.0369
  468MOL0     H61731  -1.418   0.450   4.237 -1.2388  0.8851 -3.6607
  468MOL0     H61732  -1.671   0.597   4.301  2.4667  1.5194  1.8332
  468MOL0     H61733  -1.622   0.464   4.406 -1.6052  0.7501  1.1268
  468MOL0     H61734  -1.680   0.434   4.094 -0.1037 -2.1593 -0.8293
  468MOL0     H61735  -1.628   0.317   4.207  1.0774  1.7648 -2.0003
  468MOL0     H61736  -1.885   0.487   4.214 -0.2922 -0.9571 -2.2506
  468MOL0     H61737  -1.849   0.368   4.334 -1.9445  0.3971  0.7999
  468MOL0     H61738  -2.050   0.353   4.342 -0.3478  2.1115 -1.9644
  468MOL0     H61739  -2.290   0.258   4.347 -0.5505 -2.5236  2.1584
  468MOL0     H61740  -2.449  -0.203   4.451 -1.4522 -1.5153  0.4550
  468MOL0     H61741  -2.674  -0.341   4.495  1.1219 -0.8728 -0.6677
  468MOL0     H61742  -2.887  -0.458   4.127  0.7403 -0.3552  0.1018
  468MOL0     H61743  -2.991  -0.335   4.201  0.8573  0.0011 -1.4064
  468MOL0     H61744  -2.963  -0.619   4.297  0.2650  0.4912 -1.0912
  468MOL0     H61745  -3.100  -0.556   4.197 -1.2718  1.3405  1.1482
  468MOL0     H61746  -3.159  -0.393   4.353  1.8134  0.2137  0.2349
  468MOL0     H61747  -3.033  -0.445   4.476  0.6605 -1.2269  1.1314
  468MOL0     H61748  -3.283  -0.590   4.385 -0.2134 -2.1816 -0.3683
  468MOL0     H61749  -3.148  -0.671   4.461  1.2155  1.4073  0.3119
  468MOL0     H61750  -3.319  -0.461   4.582 -0.1526 -1.7526 -1.2744
  468MOL0     H61751  -3.177  -0.525   4.675  0.6683 -0.7847 -0.2270
  468MOL0     H61752  -3.259  -0.730   4.702  0.9662  2.0885  1.5729
  468MOL0     H61753  -3.359  -0.725   4.558  0.2468  1.4129 -1.4953
  468MOL0     H61754  -3.436  -0.533   4.786  1.6336 -0.6653  1.0412
  468MOL0     H61755  -3.537  -0.625   4.666  1.5499 -1.4163 -1.7050
  468MOL0     H61756  -3.538  -0.825   4.784 -1.9513  0.5606  0.9321
  468MOL0     H61757  -3.569  -0.696   4.885  1.2677 -3.0008  3.1486
  468MOL0     H61758  -2.750  -0.312   4.082  0.5297  0.1586 -0.5665
  468MOL0     H61759  -2.573  -0.143   4.046  1.1159  1.0550  0.2342
  468MOL0     H61760  -2.183  -0.045   4.072  0.6727 -0.2634 -1.2727
  468MOL0     H61761  -1.966   0.067   4.035  2.0170 -3.4784  3.5169
  468MOL0     H61762  -0.192   1.087   3.847 -0.8131 -1.2859 -0.5930
  468MOL0     H61763   0.026   1.076   3.903 -1.2681  0.5079 -0.5580
  468MOL0     H61764   0.322   0.921   4.058  1.6997  0.2637 -1.8595
  468MOL0     H61765   0.555   0.805   4.076  0.2229 -0.2766  0.7209
  468MOL0     H61766   0.729   0.754   4.476  2.0603 -1.3332  0.6370
  468MOL0     H61767   0.812   0.904   4.418  1.2357  0.7133  0.1906
  468MOL0     H61768   0.962   0.780   4.263  1.0208  0.4473  0.2976
  468MOL0     H61769   0.983   0.728   4.436  2.3827 -1.5377 -2.3476
  468MOL0     H61770   0.871   0.579   4.205 -1.0257 -2.2229 -0.1144
  468MOL0     H61771   0.850   0.539   4.374 -2.7511  0.7411 -0.5356
  468MOL0     H61772   1.121   0.594   4.218  0.5621 -1.6007 -0.5876
  468MOL0     H61773   1.108   0.557   4.391 -2.1926 -0.6898  1.7612
  468MOL0     H61774   1.093   0.182   4.207 -1.0826 -0.3136 -0.0840
  468MOL0     H61775   0.573   0.908   4.477  2.0151 -1.6107 -0.8340
  468MOL0     H61776   0.345   1.011   4.466 -0.3737 -1.3492  0.6081
  469MOL0     O61777   4.394  11.374   6.011 -1.2630  0.5548 -0.6515
  469MOL0     C61778   4.409  11.451   6.107 -0.1836  0.1401 -1.0556
  469MOL0     O61779   4.332  11.549   6.138  0.0759 -0.5885 -0.2063
  469MOL0     C61780   4.226  11.574   6.056  0.6430 -0.2680  0.2799
  469MOL0     C61781   4.094  11.560   6.106 -0.4339 -0.3078 -0.7436
  469MOL0     C61782   3.983  11.563   6.020 -0.2992  0.3711  0.0149
  469MOL0     C61783   4.000  11.599   5.885 -0.1717 -0.2862 -0.9246
  469MOL0     O61784   3.898  11.608   5.792 -0.3393 -0.4367  0.4233
  469MOL0     C61785   3.830  11.737   5.790 -0.5819  0.3989 -0.0353
  469MOL0     C61786   3.700  11.714   5.704 -0.3001  0.7748 -1.4647
  469MOL0     C61787   3.631  11.589   5.742  0.0012  0.6811 -0.2535
  469MOL0     C61788   3.576  11.588   5.888 -0.6542  0.9801  0.9740
  469MOL0     C61789   3.459  11.482   5.904 -0.2668 -1.0000 -1.0971
  469MOL0     C61790   3.481  11.329   5.859 -0.6529  0.1193 -0.4816
  469MOL0     C61791   3.365  11.247   5.885 -0.4208 -0.3510  0.2351
  469MOL0     C61792   3.251  11.292   5.785  0.0203  0.5347 -0.1485
  469MOL0     N61793   3.150  11.184   5.765 -0.0346  0.0876 -0.1483
  469MOL0     C61794   3.033  11.165   5.840 -1.4733 -0.7018  0.5649
  469MOL0     C61795   2.959  11.089   5.774  0.5561  0.8048 -1.1447
  469MOL0     C61796   2.830  11.018   5.829 -0.2541 -1.1107  0.2889
  469MOL0     C61797   2.707  11.109   5.829 -0.8407  0.1708  0.3730
  469MOL0     C61798   2.573  11.042   5.840 -0.5460  0.3868 -0.6498
  469MOL0     C61799   2.566  10.943   5.956 -0.6700  0.0544  0.8369
  469MOL0     O61800   2.650  10.827   5.957  0.4634  0.4198  0.4162
  469MOL0     C61801   2.617  10.716   5.876  0.1274  0.0725  0.0126
  469MOL0     C61802   2.688  10.596   5.872  0.2893 -0.3207  0.0091
  469MOL0     C61803   2.651  10.480   5.804 -0.1191 -0.2781 -0.2770
  469MOL0     C61804   2.537  10.499   5.717 -0.4970  0.5234 -0.2474
  469MOL0     C61805   2.502  10.382   5.630 -0.5450 -0.3394  0.9269
  469MOL0     O61806   2.413  10.426   5.532  0.0466 -0.5588 -0.4587
  469MOL0     C61807   2.341  10.335   5.460 -0.4362  0.5636  0.5331
  469MOL0     C61808   2.329  10.352   5.321 -0.5162  0.6401  0.0258
  469MOL0     C61809   2.270  10.252   5.247  0.7352  0.9367  0.0312
  469MOL0     C61810   2.218  10.133   5.299  0.6400 -0.0406 -0.9571
  469MOL0     O61811   2.170  10.045   5.201 -0.2316  0.3550 -0.2986
  469MOL0     C61812   2.169   9.900   5.227  0.0725  0.1483 -0.4342
  469MOL0     C61813   2.099   9.833   5.113 -0.6673  1.0390  0.3040
  469MOL0     C61814   1.986   9.915   5.055 -0.1923  0.4804  0.3656
  469MOL0     C61815   1.920   9.822   4.948 -0.5263  0.0888 -0.4360
  469MOL0     C61816   2.017   9.801   4.827 -0.2414 -0.2376 -0.1849
  469MOL0     C61817   1.941   9.773   4.697 -0.1804 -0.3123 -0.3603
  469MOL0     C61818   2.040   9.770   4.580 -0.1926 -0.5629 -0.9031
  469MOL0     C61819   2.151   9.663   4.586 -0.6242 -1.0409 -0.5405
  469MOL0    Cl61820   2.262   9.723   4.458  0.5137  0.3156  0.1753
  469MOL0     C61821   2.233  10.114   5.443  0.2084  0.0994  0.2461
  469MOL0     C61822   2.284  10.219   5.516 -0.3897 -0.1851 -1.1059
  469MOL0     O61823   2.548  10.267   5.638  0.2304 -0.1096  0.2289
  469MOL0     C61824   2.471  10.627   5.707  0.1652  1.1377  1.1475
  469MOL0     C61825   2.507  10.724   5.793 -0.4535 -0.5763  0.0548
  469MOL0     N61826   3.006  11.068   5.653 -0.6805 -0.8715 -0.1683
  469MOL0     N61827   3.133  11.119   5.649  0.1306  0.0528 -0.2413
  469MOL0     C61828   4.124  11.631   5.843 -0.4883  0.4125 -0.3915
  469MOL0     C61829   4.241  11.621   5.926 -0.2885  0.1998 -0.2451
  469MOL0     C61830   4.520  11.417   6.203 -0.2807 -0.7006  0.0096
  469MOL0     C61831   4.591  11.300   6.179  0.7767  0.1517 -0.2988
  469MOL0     C61832   4.697  11.285   6.259  0.4035 -0.4982 -1.2026
  469MOL0     C61833   4.731  11.371   6.368 -0.2449  0.1491 -0.2632
  469MOL0     O61834   4.820  11.340   6.461 -0.7089 -0.2449 -0.6565
  469MOL0     C61835   4.910  11.230   6.443  0.2895 -0.0261 -0.0170
  469MOL0     C61836   5.006  11.242   6.553 -0.7242 -0.5385 -0.1295
  469MOL0     C61837   4.996  11.122   6.654  0.7307  0.6779 -0.2057
  469MOL0     C61838   5.073  10.996   6.595 -0.2161 -0.4345 -0.0659
  469MOL0     C61839   5.215  11.022   6.566 -0.1041 -0.4637  0.4234
  469MOL0     C61840   5.327  11.065   6.531 -0.5873  0.0510 -0.6147
  469MOL0     C61841   4.652  11.473   6.404 -0.4974  0.2704 -0.0708
  469MOL0     C61842   4.552  11.502   6.311  0.3016 -0.1196  0.4346
  469MOL0     H61843   4.079  11.539   6.211 -1.3262  0.6497 -0.6592
  469MOL0     H61844   3.882  11.542   6.054 -0.2044 -0.4607 -0.1981
  469MOL0     H61845   3.896  11.809   5.742  2.8571 -1.3528  1.7309
  469MOL0     H61846   3.802  11.774   5.890  1.7957  1.5138  0.2813
  469MOL0     H61847   3.717  11.711   5.596 -2.2770 -3.1237 -1.8536
  469MOL0     H61848   3.635  11.799   5.728  4.0412  3.6787  1.4511
  469MOL0     H61849   3.701  11.506   5.731  0.2306  0.8573 -0.1347
  469MOL0     H61850   3.548  11.569   5.674 -0.4006  0.9552  0.1425
  469MOL0     H61851   3.653  11.562   5.961 -1.1147 -0.8165  0.8658
  469MOL0     H61852   3.525  11.681   5.914 -0.3955  0.6936  2.6583
  469MOL0     H61853   3.370  11.522   5.856 -0.0863  2.3449  1.0319
  469MOL0     H61854   3.445  11.491   6.012  0.0822  2.4889 -1.2359
  469MOL0     H61855   3.572  11.289   5.905  0.4008 -2.9601 -4.6605
  469MOL0     H61856   3.514  11.330   5.755  0.8405 -0.1145 -0.0398
  469MOL0     H61857   3.392  11.143   5.868  3.8990  0.2163  2.2168
  469MOL0     H61858   3.336  11.236   5.990 -0.6155  1.5608  0.4177
  469MOL0     H61859   3.286  11.335   5.691  0.2000  1.6261  0.3933
  469MOL0     H61860   3.199  11.369   5.843  0.6945  1.7331 -1.0800
  469MOL0     H61861   3.016  11.215   5.934 -2.5932  0.9479 -0.4505
  469MOL0     H61862   2.855  10.975   5.926  1.4431  0.1233  0.4509
  469MOL0     H61863   2.811  10.930   5.767  2.4890 -0.8454 -1.0803
  469MOL0     H61864   2.707  11.169   5.738  0.0854 -0.3253  0.0417
  469MOL0     H61865   2.716  11.178   5.914  3.1675 -0.0539  0.3352
  469MOL0     H61866   2.490  11.113   5.845  0.3449  1.3648  2.7361
  469MOL0     H61867   2.550  10.983   5.751 -1.3395 -1.9154  0.9726
  469MOL0     H61868   2.460  10.921   5.976 -0.6944  0.9158  1.7639
  469MOL0     H61869   2.598  11.001   6.043  0.7204 -2.1520  1.8761
  469MOL0     H61870   2.768  10.577   5.943 -1.8939 -0.7120  2.5318
  469MOL0     H61871   2.700  10.383   5.805 -0.5420 -0.5039  0.6992
  469MOL0     H61872   2.357  10.441   5.266  2.1696 -0.8201 -1.1884
  469MOL0     H61873   2.267  10.263   5.139 -4.1696 -1.0539 -0.3107
  469MOL0     H61874   2.107   9.890   5.317 -0.8345  1.0353 -0.9399
  469MOL0     H61875   2.272   9.869   5.248  1.4819  2.9309 -2.5510
  469MOL0     H61876   2.065   9.740   5.158 -1.9834  1.1122 -0.4805
  469MOL0     H61877   2.177   9.822   5.038  0.1672 -0.4512  1.3587
  469MOL0     H61878   2.030  10.001   5.004  1.1981 -0.4922 -0.1566
  469MOL0     H61879   1.914   9.950   5.129 -3.3227  0.8570 -2.6598
  469MOL0     H61880   1.901   9.719   4.979  1.3472 -0.6247 -1.5105
  469MOL0     H61881   1.817   9.851   4.925 -1.2641 -2.0408 -0.0679
  469MOL0     H61882   2.068   9.706   4.845  2.0328  0.9450 -0.0436
  469MOL0     H61883   2.093   9.876   4.802 -0.9235  0.1767 -1.0588
  469MOL0     H61884   1.878   9.857   4.666  0.1847  0.3920  0.7435
  469MOL0     H61885   1.877   9.684   4.705  3.3400 -3.0142  0.4590
  469MOL0     H61886   1.978   9.750   4.492 -3.3613 -0.6107  1.1657
  469MOL0     H61887   2.079   9.872   4.575 -2.8731  0.7916  2.0964
  469MOL0     H61888   2.123   9.558   4.577 -0.1029 -1.1476 -0.9723
  469MOL0     H61889   2.199   9.676   4.684 -0.6088  2.1783 -0.8658
  469MOL0     H61890   2.186  10.023   5.480 -2.8221 -0.3169 -3.8261
  469MOL0     H61891   2.299  10.208   5.622  1.3166  0.1325 -1.2854
  469MOL0     H61892   2.396  10.631   5.629  0.1186 -0.7506  1.0599
  469MOL0     H61893   2.444  10.812   5.789 -1.0236 -0.7837  2.8495
  469MOL0     H61894   4.132  11.672   5.742 -1.3714  0.0342 -0.6273
  469MOL0     H61895   4.338  11.644   5.882  0.3200 -0.3062  0.7915
  469MOL0     H61896   4.572  11.230   6.098 -0.2809  1.1768 -0.9770
  469MOL0     H61897   4.757  11.194   6.251  0.6151 -0.6057  1.0092
  469MOL0     H61898   4.960  11.234   6.345 -0.8533  0.4020 -0.6033
  469MOL0     H61899   4.867  11.131   6.458  1.1398 -0.6120 -1.2766
  469MOL0     H61900   5.110  11.250   6.520 -0.1647 -1.6314  1.2728
  469MOL0     H61901   4.976  11.339   6.595  1.6699  1.1854 -2.1199
  469MOL0     H61902   4.892  11.104   6.680 -1.2567  3.8046 -4.7473
  469MOL0     H61903   5.056  11.138   6.744  1.0597 -3.6336  0.5668
  469MOL0     H61904   5.040  10.917   6.664 -6.6580 -0.9790 -3.1240
  469MOL0     H61905   5.025  10.967   6.501 -1.7567  0.4646  0.4164
  469MOL0     H61906   5.412  11.123   6.502 -0.6349  1.8295  2.3261
  469MOL0     H61907   4.669  11.540   6.488 -2.7924 -2.1108  2.5124
  469MOL0     H61908   4.491  11.589   6.332  0.9842  0.7779 -1.1383
  470MOL0     O61909   0.947   7.188   3.658  0.3081  0.1340 -0.2735
  470MOL0     C61910   0.912   7.148   3.544 -0.5450  0.1768  0.7361
  470MOL0     O61911   0.836   7.036   3.520  0.1830  0.0536  0.1923
  470MOL0     C61912   0.766   6.956   3.602 -0.4721 -0.5345 -0.6803
  470MOL0     C61913   0.698   6.845   3.548  0.1484  0.7389  1.1062
  470MOL0     C61914   0.632   6.759   3.633 -0.1425 -0.0283  0.7133
  470MOL0     C61915   0.624   6.783   3.772 -0.0935 -1.1022 -0.1500
  470MOL0     O61916   0.551   6.709   3.865  0.3331  0.7801 -0.2992
  470MOL0     C61917   0.539   6.571   3.839  0.0666 -0.0765  0.3338
  470MOL0     C61918   0.431   6.511   3.933 -0.7091  0.0104  0.1083
  470MOL0     C61919   0.297   6.552   3.889  0.7892 -1.0271  0.9481
  470MOL0     C61920   0.192   6.478   3.972  0.3712  0.7522  0.3219
  470MOL0     C61921   0.054   6.553   3.970  0.0692  0.2614 -1.1480
  470MOL0     C61922  -0.039   6.499   4.080 -0.1951  0.0022  0.1970
  470MOL0     C61923  -0.181   6.525   4.051 -0.3016  0.6963 -0.5712
  470MOL0     C61924  -0.243   6.655   4.086 -0.5566 -0.6205 -0.1228
  470MOL0     N61925  -0.377   6.662   4.030 -0.1145 -0.2651  0.0158
  470MOL0     C61926  -0.442   6.570   3.940 -0.5841 -0.7387  1.0622
  470MOL0     C61927  -0.560   6.628   3.914 -0.2268 -0.5047  0.6110
  470MOL0     C61928  -0.676   6.590   3.820  0.3981  0.1616 -0.4343
  470MOL0     C61929  -0.802   6.677   3.834 -0.2715 -0.3341 -1.5727
  470MOL0     C61930  -0.899   6.676   3.716  0.1692  0.4151  0.1213
  470MOL0     C61931  -1.017   6.765   3.731 -0.1657  0.1815 -0.0354
  470MOL0     O61932  -1.117   6.736   3.636  0.3873 -0.7379  0.8046
  470MOL0     C61933  -1.245   6.771   3.663 -0.7512  0.5716 -0.4196
  470MOL0     C61934  -1.345   6.688   3.607 -0.2881  0.6092 -1.0961
  470MOL0     C61935  -1.477   6.720   3.638 -0.0473 -0.5177 -0.8808
  470MOL0     C61936  -1.516   6.843   3.707  0.4517  0.1753 -0.7194
  470MOL0     C61937  -1.659   6.883   3.740  0.5634 -0.1532 -0.9913
  470MOL0     O61938  -1.756   6.785   3.718 -0.0790 -0.1956  0.0267
  470MOL0     C61939  -1.891   6.801   3.717  0.0112  0.0365 -0.1718
  470MOL0     C61940  -1.960   6.684   3.684  0.2573  0.0489  0.3055
  470MOL0     C61941  -2.099   6.675   3.681 -0.0348 -0.9985  0.6034
  470MOL0     C61942  -2.172   6.786   3.723 -0.8435  0.5756  0.3820
  470MOL0     O61943  -2.308   6.781   3.753 -1.0046 -0.3119 -0.0189
  470MOL0     C61944  -2.342   6.668   3.835  0.3103  0.3917  0.0021
  470MOL0     C61945  -2.493   6.680   3.879  0.2545  0.4866 -0.4669
  470MOL0     C61946  -2.502   6.680   4.026 -0.2017 -0.9165 -0.8631
  470MOL0     C61947  -2.640   6.730   4.057 -0.3110 -0.5177 -0.2834
  470MOL0     C61948  -2.659   6.746   4.208 -0.2653 -0.1490  1.2266
  470MOL0     C61949  -2.652   6.618   4.292 -0.3233  1.2693 -0.2927
  470MOL0     C61950  -2.769   6.517   4.269 -0.0269  0.1124  0.1489
  470MOL0     C61951  -2.753   6.389   4.347  0.9124 -0.0362  0.5391
  470MOL0    Cl61952  -2.748   6.419   4.521  0.1069 -0.0603  0.2954
  470MOL0     C61953  -2.108   6.901   3.758  0.6758  0.0999 -0.9312
  470MOL0     C61954  -1.967   6.905   3.755 -0.0064  0.4077 -0.3950
  470MOL0     O61955  -1.676   7.004   3.772 -0.1782 -0.3764  0.5216
  470MOL0     C61956  -1.405   6.921   3.752  0.5665  0.0371  0.4973
  470MOL0     C61957  -1.272   6.880   3.730 -0.0155 -0.5947 -0.5260
  470MOL0     N61958  -0.569   6.746   3.992 -0.6514 -0.2828  0.5214
  470MOL0     N61959  -0.457   6.771   4.053  0.5786 -0.6334 -0.7190
  470MOL0     C61960   0.668   6.894   3.827  0.8208 -0.3202  0.4281
  470MOL0     C61961   0.748   6.979   3.742 -0.6865 -0.1698 -0.6800
  470MOL0     C61962   0.972   7.213   3.427  0.1663 -0.3289  0.4866
  470MOL0     C61963   1.046   7.326   3.442  0.0322 -0.0141  0.1374
  470MOL0     C61964   1.088   7.395   3.322 -0.3264 -0.8095 -0.2648
  470MOL0     C61965   1.068   7.340   3.191 -1.1965  0.1950 -0.0145
  470MOL0     O61966   1.134   7.410   3.089  0.8609 -0.7721  0.5961
  470MOL0     C61967   1.149   7.360   2.953  0.6359  0.4073 -0.4526
  470MOL0     C61968   1.293   7.302   2.925 -0.4248 -0.4058 -0.1302
  470MOL0     C61969   1.414   7.386   2.958 -0.5282 -0.6629  0.1579
  470MOL0     C61970   1.409   7.527   2.894  0.1317  0.1446  0.5441
  470MOL0     C61971   1.541   7.588   2.886 -0.2666 -0.8747 -0.5113
  470MOL0     C61972   1.652   7.645   2.879  0.5432 -1.3739 -0.3048
  470MOL0     C61973   0.993   7.225   3.179  0.8053 -0.4131  0.2410
  470MOL0     C61974   0.953   7.165   3.295 -0.8868  0.9545  0.6676
  470MOL0     H61975   0.709   6.823   3.442 -1.9526  0.8309  0.8402
  470MOL0     H61976   0.580   6.681   3.580  0.9513  0.3619 -1.0058
  470MOL0     H61977   0.636   6.521   3.852  2.1016  3.0324 -1.6389
  470MOL0     H61978   0.496   6.550   3.740 -1.2056 -1.6422  1.1521
  470MOL0     H61979   0.456   6.557   4.029  2.5441  1.3218 -1.1931
  470MOL0     H61980   0.441   6.403   3.921  0.4193  0.1167 -0.0618
  470MOL0     H61981   0.269   6.534   3.785 -0.6181  0.5947  1.0085
  470MOL0     H61982   0.301   6.660   3.903 -0.5217 -0.6737 -1.0427
  470MOL0     H61983   0.175   6.378   3.933 -0.4940  1.4145 -1.0392
  470MOL0     H61984   0.246   6.462   4.066  1.2302 -3.9307 -0.7142
  470MOL0     H61985   0.003   6.553   3.873  1.1947 -0.4009 -1.7458
  470MOL0     H61986   0.080   6.656   3.997  0.2936  0.5493 -2.4063
  470MOL0     H61987   0.001   6.530   4.177  1.3643  0.6243 -0.5973
  470MOL0     H61988  -0.020   6.392   4.077 -0.6126 -0.2467  3.2882
  470MOL0     H61989  -0.200   6.500   3.946  1.8274 -1.1397 -0.6056
  470MOL0     H61990  -0.240   6.454   4.110 -0.7507  2.5890  1.3500
  470MOL0     H61991  -0.200   6.738   4.030 -2.6894 -0.2144 -1.2826
  470MOL0     H61992  -0.252   6.669   4.194 -2.3806 -0.1933 -0.3004
  470MOL0     H61993  -0.402   6.484   3.888 -0.7893 -0.2490  0.0654
  470MOL0     H61994  -0.725   6.498   3.853 -1.5241  1.6206  1.0509
  470MOL0     H61995  -0.655   6.567   3.715 -0.1823 -2.7681  0.0078
  470MOL0     H61996  -0.773   6.782   3.844 -2.0038  0.2916 -2.7466
  470MOL0     H61997  -0.858   6.654   3.925 -1.6615 -0.9121 -2.5527
  470MOL0     H61998  -0.858   6.704   3.619 -0.7997 -0.1157 -0.4605
  470MOL0     H61999  -0.925   6.570   3.711  0.6012  0.2321  1.3993
  470MOL0     H62000  -0.978   6.867   3.739  2.6683 -0.7503 -0.5675
  470MOL0     H62001  -1.067   6.758   3.828 -2.4547  4.0390 -0.7355
  470MOL0     H62002  -1.317   6.607   3.541 -3.8343 -0.9077 -0.9505
  470MOL0     H62003  -1.561   6.664   3.598  0.8350 -1.6057 -1.2604
  470MOL0     H62004  -1.893   6.606   3.652  3.5945  2.1130  1.7427
  470MOL0     H62005  -2.141   6.584   3.640  4.0610 -2.0529 -1.8827
  470MOL0     H62006  -2.271   6.668   3.919  3.2036  1.0922 -2.2576
  470MOL0     H62007  -2.338   6.572   3.783  2.6650  0.1727  0.4666
  470MOL0     H62008  -2.563   6.607   3.838 -2.9120  2.0190  1.8211
  470MOL0     H62009  -2.542   6.764   3.829  1.7336  1.1431 -0.8844
  470MOL0     H62010  -2.434   6.758   4.060  0.2356 -1.0544 -1.4051
  470MOL0     H62011  -2.477   6.584   4.073  0.1771 -0.6070 -0.4260
  470MOL0     H62012  -2.651   6.828   4.011  2.4082  1.0695  2.1046
  470MOL0     H62013  -2.717   6.662   4.018 -0.0171  0.7912 -3.3609
  470MOL0     H62014  -2.761   6.786   4.215 -0.0149  1.0702 -0.9543
  470MOL0     H62015  -2.585   6.819   4.244  0.8543 -0.5296 -0.2016
  470MOL0     H62016  -2.654   6.657   4.395  0.6333 -2.5930  1.3689
  470MOL0     H62017  -2.554   6.571   4.280 -0.2058  1.5055 -0.2664
  470MOL0     H62018  -2.861   6.558   4.311  0.4255 -0.3886  1.7061
  470MOL0     H62019  -2.783   6.500   4.162 -1.4015  2.3882 -0.1023
  470MOL0     H62020  -2.657   6.345   4.318 -0.1769 -0.4083 -2.8768
  470MOL0     H62021  -2.837   6.325   4.321  1.0885  0.0926 -0.3584
  470MOL0     H62022  -2.159   6.983   3.806 -0.1483 -2.1296  2.4235
  470MOL0     H62023  -1.898   6.987   3.775  4.0223 -2.5097 -1.0048
  470MOL0     H62024  -1.426   7.010   3.810  1.5347  1.3382 -1.0680
  470MOL0     H62025  -1.208   6.949   3.784 -0.5757  0.0783 -0.7096
  470MOL0     H62026   0.648   6.927   3.928 -2.5374 -0.8770  0.0665
  470MOL0     H62027   0.789   7.063   3.797 -2.8326  1.5724 -1.6117
  470MOL0     H62028   1.048   7.370   3.540  2.0050 -0.2625  0.2531
  470MOL0     H62029   1.144   7.488   3.333  2.0109 -1.9311 -1.7754
  470MOL0     H62030   1.121   7.432   2.875  0.6998 -0.5898 -1.4185
  470MOL0     H62031   1.072   7.283   2.946  0.8470 -0.3115  3.0139
  470MOL0     H62032   1.306   7.216   2.991 -0.1305 -0.2217  0.0543
  470MOL0     H62033   1.311   7.274   2.821 -1.1761  2.7186 -1.1959
  470MOL0     H62034   1.502   7.335   2.919  0.7467  0.9105  0.8404
  470MOL0     H62035   1.436   7.397   3.065 -1.0521 -2.4124  0.4802
  470MOL0     H62036   1.366   7.515   2.794  0.6075 -3.1220  0.6227
  470MOL0     H62037   1.336   7.590   2.945 -1.4684 -0.9080 -0.3318
  470MOL0     H62038   1.746   7.691   2.854 -1.1972  2.9923  0.2790
  470MOL0     H62039   0.958   7.176   3.088 -0.7944 -0.7437  0.9861
  470MOL0     H62040   0.878   7.087   3.290 -0.4179  0.4795 -4.0238
  471MOL0     O62041   9.681   3.178   6.703  0.8556 -0.8199 -0.4209
  471MOL0     C62042   9.684   3.203   6.581 -0.0022 -0.0036  0.7146
  471MOL0     O62043   9.790   3.253   6.508  0.3022  0.1024 -1.0202
  471MOL0     C62044   9.906   3.279   6.570 -0.7484  0.8209  0.9987
  471MOL0     C62045   9.979   3.387   6.522 -0.2909 -0.0544  0.8951
  471MOL0     C62046  10.101   3.428   6.571 -0.2922 -0.5612 -0.3980
  471MOL0     C62047  10.157   3.351   6.673  0.2990 -1.1268 -0.2157
  471MOL0     O62048  10.275   3.384   6.738  0.6593 -0.4439  0.3364
  471MOL0     C62049  10.400   3.334   6.696  0.0928 -0.4052  0.5357
  471MOL0     C62050  10.497   3.315   6.817 -0.7174  0.0880  0.3352
  471MOL0     C62051  10.651   3.295   6.789 -0.7770 -0.2213 -0.5313
  471MOL0     C62052  10.745   3.289   6.904 -0.1270  0.1537 -0.0967
  471MOL0     C62053  10.890   3.265   6.877  1.2152 -0.1196  0.5312
  471MOL0     C62054  10.960   3.267   7.012  0.6662  0.0223  0.2531
  471MOL0     C62055  11.103   3.248   6.980  0.0068 -0.2339  0.1414
  471MOL0     C62056  11.219   3.272   7.079 -0.3888 -0.7923  0.1565
  471MOL0     N62057  11.340   3.199   7.025 -0.2193 -0.5967  0.6172
  471MOL0     C62058  11.438   3.260   6.952  0.0700 -0.3398 -0.5952
  471MOL0     C62059  11.526   3.159   6.932  0.8157 -0.1994  0.6370
  471MOL0     C62060  11.654   3.168   6.849 -0.6244  0.1026 -0.1597
  471MOL0     C62061  11.616   3.166   6.700 -0.6118  0.2457  1.2106
  471MOL0     C62062  11.744   3.177   6.611 -0.4419  0.0962  0.1708
  471MOL0     C62063  11.720   3.187   6.451  0.8228  0.0736 -0.2551
  471MOL0     O62064  11.659   3.313   6.408  0.3867 -0.3353  0.3401
  471MOL0     C62065  11.527   3.332   6.439  0.8977  0.9666 -0.7965
  471MOL0     C62066  11.426   3.235   6.413 -0.5344  0.3452 -1.1451
  471MOL0     C62067  11.293   3.272   6.439 -0.3816 -0.5220 -0.0910
  471MOL0     C62068  11.262   3.399   6.490 -0.1384  0.0038 -0.6782
  471MOL0     C62069  11.110   3.418   6.521  0.0143  0.0454 -0.0188
  471MOL0     O62070  11.026   3.327   6.465  0.0387  0.3622  0.2978
  471MOL0     C62071  10.894   3.377   6.432  0.1355  0.1813 -0.6655
  471MOL0     C62072  10.793   3.281   6.449  0.1479  0.8089  0.0809
  471MOL0     C62073  10.661   3.322   6.408 -0.1917  0.8259  0.1142
  471MOL0     C62074  10.628   3.445   6.367  0.1187 -0.3198 -0.9482
  471MOL0     O62075  10.496   3.483   6.337  0.3130  0.2664  0.0111
  471MOL0     C62076  10.398   3.371   6.330  0.2604 -0.9240  0.0999
  471MOL0     C62077  10.273   3.433   6.254 -0.0550 -0.5413 -0.1240
  471MOL0     C62078  10.196   3.325   6.193  0.9024  0.7301  0.3438
  471MOL0     C62079  10.058   3.376   6.126  0.2223  0.4514 -0.3344
  471MOL0     C62080   9.970   3.252   6.091  0.3804 -0.3123 -0.6134
  471MOL0     C62081   9.849   3.272   6.000  0.2077 -0.6296 -0.8684
  471MOL0     C62082   9.742   3.362   6.058 -1.3425  0.2529  0.9886
  471MOL0     C62083   9.599   3.332   6.035 -0.9067 -0.2943  0.0883
  471MOL0    Cl62084   9.580   3.284   5.856  0.0243  0.3566 -0.2710
  471MOL0     C62085  10.730   3.542   6.359  0.0377 -0.6133 -0.7275
  471MOL0     C62086  10.860   3.506   6.391  0.2614  0.2559 -0.2088
  471MOL0     O62087  11.077   3.513   6.585  0.2631 -0.7609  0.7311
  471MOL0     C62088  11.362   3.503   6.509  0.0178  0.3260 -0.6297
  471MOL0     C62089  11.492   3.461   6.483 -0.2843 -0.3656  0.1259
  471MOL0     N62090  11.478   3.040   6.993 -0.1416  0.1112  0.4656
  471MOL0     N62091  11.363   3.064   7.041 -0.4740 -0.3347  0.0849
  471MOL0     C62092  10.097   3.233   6.714 -0.8269 -0.0666 -0.2493
  471MOL0     C62093   9.972   3.193   6.666 -1.0663 -1.2250  0.2132
  471MOL0     C62094   9.568   3.150   6.503 -0.0770 -0.6632  0.3047
  471MOL0     C62095   9.583   3.109   6.363 -0.7800  0.0117 -0.2148
  471MOL0     C62096   9.471   3.071   6.285 -0.0808  0.4437 -1.2306
  471MOL0     C62097   9.354   3.053   6.343 -0.1854  0.3561 -0.2670
  471MOL0     O62098   9.264   3.006   6.253  0.0945  0.6744  0.1073
  471MOL0     C62099   9.134   2.958   6.296  0.2904 -0.4962 -0.0054
  471MOL0     C62100   9.040   2.914   6.178 -0.2111  0.9002  0.1722
  471MOL0     C62101   9.101   2.825   6.069  0.2738  0.6335  0.4185
  471MOL0     C62102   9.001   2.724   6.007  0.8143 -0.3702  0.0933
  471MOL0     C62103   8.990   2.602   6.079  0.1856  0.4436 -0.6653
  471MOL0     C62104   8.986   2.500   6.136  0.3095  0.3544  0.5861
  471MOL0     C62105   9.337   3.092   6.477  0.4909 -0.2942 -0.2423
  471MOL0     C62106   9.439   3.140   6.562  0.4719 -0.3183  0.0303
  471MOL0     H62107   9.940   3.438   6.434 -1.2773 -1.0651  0.7191
  471MOL0     H62108  10.158   3.514   6.538  1.5024 -0.1414  3.2698
  471MOL0     H62109  10.447   3.405   6.628  2.2348 -1.4936  0.7749
  471MOL0     H62110  10.397   3.239   6.642 -2.1115  1.6003 -3.2879
  471MOL0     H62111  10.462   3.228   6.873  0.7554  0.0303  1.2205
  471MOL0     H62112  10.492   3.406   6.878  3.2092 -1.1429  2.9361
  471MOL0     H62113  10.681   3.381   6.728  1.0481  1.3348  2.3313
  471MOL0     H62114  10.663   3.209   6.723 -2.6596  0.5985 -2.0369
  471MOL0     H62115  10.730   3.384   6.957 -0.0587 -0.3597  0.8762
  471MOL0     H62116  10.709   3.210   6.971 -1.5059  0.5450 -0.3443
  471MOL0     H62117  10.927   3.353   6.822  2.0370 -0.1925  0.9566
  471MOL0     H62118  10.918   3.179   6.816  4.9363  1.3589 -0.1067
  471MOL0     H62119  10.908   3.194   7.075 -1.4303 -1.0010 -2.4604
  471MOL0     H62120  10.949   3.368   7.051 -2.0411  0.0162 -0.2704
  471MOL0     H62121  11.110   3.143   6.950  2.6680 -0.2159  0.4633
  471MOL0     H62122  11.130   3.312   6.895  0.6115 -1.6664 -0.7847
  471MOL0     H62123  11.197   3.222   7.174 -1.5942  0.3011  0.4903
  471MOL0     H62124  11.242   3.378   7.092 -0.0418 -0.8120 -0.2862
  471MOL0     H62125  11.476   3.359   6.926 -1.0161  0.4365  0.6859
  471MOL0     H62126  11.714   3.080   6.874 -1.6638 -0.1019  1.7254
  471MOL0     H62127  11.715   3.253   6.880  0.0406 -0.8473  1.2386
  471MOL0     H62128  11.546   3.249   6.683  0.6636  1.2066  0.3871
  471MOL0     H62129  11.587   3.062   6.689  0.0130  0.1842  0.0569
  471MOL0     H62130  11.793   3.269   6.646  1.9397 -0.2983 -1.8066
  471MOL0     H62131  11.816   3.096   6.627 -0.5472 -0.4286 -1.7293
  471MOL0     H62132  11.654   3.106   6.420  2.0886 -0.8982 -0.4900
  471MOL0     H62133  11.811   3.174   6.392 -0.6824  1.2664 -2.9918
  471MOL0     H62134  11.448   3.135   6.379 -0.7937 -0.4349  0.8325
  471MOL0     H62135  11.216   3.197   6.428 -3.0942  1.3195  3.8172
  471MOL0     H62136  10.823   3.181   6.477 -0.7098  0.1964 -1.0730
  471MOL0     H62137  10.588   3.243   6.417 -1.4129  1.8534 -0.3803
  471MOL0     H62138  10.358   3.353   6.431 -2.0844  0.3563 -0.5297
  471MOL0     H62139  10.445   3.284   6.284 -2.6898 -1.8337 -1.4401
  471MOL0     H62140  10.323   3.487   6.173  1.4471  1.1930  1.8248
  471MOL0     H62141  10.213   3.505   6.310 -0.5350 -1.7654  0.9787
  471MOL0     H62142  10.167   3.257   6.274 -1.0955  1.6641  0.4819
  471MOL0     H62143  10.245   3.272   6.111 -3.3178 -2.7591 -0.3422
  471MOL0     H62144  10.013   3.442   6.201 -0.2529 -0.1327 -0.0957
  471MOL0     H62145  10.085   3.436   6.039  3.1729 -0.4511 -0.1299
  471MOL0     H62146   9.945   3.208   6.188 -0.2166  0.9630 -0.1742
  471MOL0     H62147  10.033   3.182   6.036  2.4516 -0.2025  1.4347
  471MOL0     H62148   9.819   3.170   5.972 -1.7752  0.2395 -2.1179
  471MOL0     H62149   9.878   3.311   5.902 -0.9515  1.3487 -0.4770
  471MOL0     H62150   9.764   3.383   6.163  0.9235 -1.0674  0.8493
  471MOL0     H62151   9.748   3.460   6.010 -0.4311  0.9654  2.4998
  471MOL0     H62152   9.542   3.424   6.054  1.1032  0.5431  2.7060
  471MOL0     H62153   9.563   3.248   6.094  1.4261 -2.2986 -1.1828
  471MOL0     H62154  10.715   3.644   6.326  3.4122  0.4495  0.6333
  471MOL0     H62155  10.943   3.575   6.386  0.3287  0.4011  1.8715
  471MOL0     H62156  11.336   3.604   6.538  2.3032 -0.1264  3.8292
  471MOL0     H62157  11.570   3.534   6.503  0.2732 -0.4344 -1.6245
  471MOL0     H62158  10.144   3.174   6.793  1.2094  3.0900  1.0957
  471MOL0     H62159   9.916   3.106   6.698 -1.0209 -0.0929  3.7783
  471MOL0     H62160   9.678   3.109   6.310 -1.3932 -0.1454 -1.3553
  471MOL0     H62161   9.469   3.046   6.179  0.1144 -1.0243 -0.9076
  471MOL0     H62162   9.089   3.041   6.352  1.2930 -0.5494  0.9035
  471MOL0     H62163   9.147   2.874   6.364  4.0637  0.7851  1.0686
  471MOL0     H62164   8.962   2.844   6.210 -1.7062  1.3196 -2.2517
  471MOL0     H62165   8.992   3.000   6.131 -1.5334 -0.3617 -0.9259
  471MOL0     H62166   9.184   2.767   6.112  0.0776 -1.8944 -2.3345
  471MOL0     H62167   9.142   2.890   5.991 -0.7515  0.7580 -0.0366
  471MOL0     H62168   8.903   2.767   5.987 -0.9377 -3.1771  1.8270
  471MOL0     H62169   9.038   2.697   5.908  4.9631 -0.0290  1.3334
  471MOL0     H62170   8.960   2.412   6.191 -0.4850 -0.3970 -0.9270
  471MOL0     H62171   9.241   3.081   6.526  1.0796  1.8013  1.4999
  471MOL0     H62172   9.430   3.167   6.666  0.6149  1.0005 -0.2815
  472MOL0     O62173   9.618   2.699   7.995 -0.7777  0.0388 -0.0209
  472MOL0     C62174   9.522   2.723   8.069 -0.4248  0.2255  0.3908
  472MOL0     O62175   9.530   2.754   8.193  0.0094 -0.8394 -0.4785
  472MOL0     C62176   9.654   2.774   8.249  0.6208 -0.2975 -0.0529
  472MOL0     C62177   9.741   2.876   8.207  0.7821 -0.2832 -0.0837
  472MOL0     C62178   9.862   2.896   8.276  1.1515 -0.1156 -0.0907
  472MOL0     C62179   9.888   2.823   8.393  0.0879  0.4563 -0.1286
  472MOL0     O62180   9.992   2.842   8.471  0.3920 -0.0789 -0.1544
  472MOL0     C62181  10.082   2.950   8.446  0.3823  0.1366  0.4595
  472MOL0     C62182  10.153   2.992   8.580  0.4343  0.8389 -0.2087
  472MOL0     C62183  10.204   3.133   8.579  0.3290  0.4312 -0.3193
  472MOL0     C62184  10.263   3.172   8.710  0.8739  0.3639  0.7930
  472MOL0     C62185  10.289   3.321   8.731 -0.0126 -0.2201  0.6146
  472MOL0     C62186  10.355   3.373   8.611  0.2220  0.1212 -0.3206
  472MOL0     C62187  10.402   3.523   8.638 -0.3649 -0.3534  0.3548
  472MOL0     C62188  10.285   3.615   8.657  0.1337 -1.0066  0.2439
  472MOL0     N62189  10.332   3.745   8.701  0.7701 -0.1944  0.8784
  472MOL0     C62190  10.352   3.857   8.623  1.0352 -0.1296  0.2459
  472MOL0     C62191  10.406   3.957   8.698 -0.0915  0.1355  0.2972
  472MOL0     C62192  10.454   4.085   8.640 -0.1280 -0.2683 -0.2716
  472MOL0     C62193  10.604   4.099   8.654  1.0691  0.0999 -0.7973
  472MOL0     C62194  10.688   4.182   8.562 -0.3535 -0.8784 -0.1967
  472MOL0     C62195  10.767   4.088   8.460  0.4692  0.1762  0.2356
  472MOL0     O62196  10.703   3.961   8.437 -0.4959  0.3525 -0.7547
  472MOL0     C62197  10.774   3.848   8.451  0.0356  0.9822 -0.7962
  472MOL0     C62198  10.749   3.755   8.557  0.5259  0.1438 -0.8094
  472MOL0     C62199  10.833   3.645   8.574 -0.1589 -0.3582 -0.6324
  472MOL0     C62200  10.939   3.625   8.485  0.0635 -0.5634  0.1570
  472MOL0     C62201  11.027   3.516   8.495 -0.9634  0.1503  0.4270
  472MOL0     O62202  11.001   3.411   8.581  0.0295  0.2357  0.7448
  472MOL0     C62203  11.072   3.294   8.591  0.4105 -0.5822  0.1279
  472MOL0     C62204  11.023   3.165   8.558 -0.3619 -1.0137  0.6442
  472MOL0     C62205  11.103   3.056   8.575  0.5127  0.4106  0.7919
  472MOL0     C62206  11.233   3.074   8.624 -0.2728 -0.2191  0.1183
  472MOL0     O62207  11.326   2.979   8.639 -0.1936  0.6515 -1.3317
  472MOL0     C62208  11.306   2.879   8.748 -0.2817 -0.3514  0.4220
  472MOL0     C62209  11.445   2.824   8.798  0.1016  0.3758  0.2487
  472MOL0     C62210  11.486   2.692   8.725  0.5869  0.3661  0.7939
  472MOL0     C62211  11.607   2.620   8.783 -0.4845 -0.7643  0.2887
  472MOL0     C62212  11.639   2.489   8.726 -0.1402 -0.2201  0.6622
  472MOL0     C62213  11.515   2.388   8.727  0.2868  0.0502  0.1963
  472MOL0     C62214  11.565   2.248   8.696 -0.5992 -0.6711 -1.6435
  472MOL0     C62215  11.453   2.159   8.640  0.0483  1.0802  0.6227
  472MOL0    Cl62216  11.336   2.091   8.754 -0.2580 -0.1235 -0.1694
  472MOL0     C62217  11.287   3.200   8.644 -0.4784  0.0700 -0.0454
  472MOL0     C62218  11.198   3.308   8.634 -0.9910 -0.1255  0.6951
  472MOL0     O62219  11.133   3.531   8.437  0.5204  0.9464  0.2733
  472MOL0     C62220  10.963   3.717   8.382  0.5585  0.6564 -0.0137
  472MOL0     C62221  10.884   3.830   8.369  1.4738  0.0901 -0.1602
  472MOL0     N62222  10.419   3.902   8.825  0.1036  0.2143 -0.3936
  472MOL0     N62223  10.380   3.775   8.815  0.0475  0.6138  0.0888
  472MOL0     C62224   9.792   2.735   8.443  1.3076 -1.1399  0.1272
  472MOL0     C62225   9.678   2.709   8.370  0.1688 -0.5162 -0.9495
  472MOL0     C62226   9.384   2.717   8.010 -0.2086 -0.6740 -0.5735
  472MOL0     C62227   9.287   2.813   8.053  1.0107  0.5553  0.7109
  472MOL0     C62228   9.147   2.795   8.017 -0.3033  0.3096 -0.6690
  472MOL0     C62229   9.105   2.695   7.932 -0.2925 -0.0320 -1.0507
  472MOL0     O62230   8.979   2.664   7.894 -0.6015  0.3514  0.1742
  472MOL0     C62231   8.869   2.739   7.954  0.4229 -0.5111  0.0980
  472MOL0     C62232   8.734   2.668   7.949  0.2456 -0.3315  0.9096
  472MOL0     C62233   8.628   2.777   7.957 -0.0094 -1.7359  0.1052
  472MOL0     C62234   8.579   2.825   7.817 -0.1843 -0.2845  0.3524
  472MOL0     C62235   8.520   2.711   7.744 -0.5821  0.4351  0.6672
  472MOL0     C62236   8.459   2.627   7.687 -0.2554  0.0068 -0.3690
  472MOL0     C62237   9.207   2.611   7.882  0.4694  0.5397  0.5713
  472MOL0     C62238   9.340   2.616   7.914  0.5694 -0.3953 -0.2403
  472MOL0     H62239   9.719   2.951   8.131  1.4637  2.4989  2.2582
  472MOL0     H62240   9.941   2.958   8.234  3.4938 -2.8044 -0.0025
  472MOL0     H62241  10.021   3.031   8.405 -1.7328 -2.0277 -0.9075
  472MOL0     H62242  10.154   2.933   8.365  0.9115  3.5187  0.0521
  472MOL0     H62243  10.225   2.918   8.617  2.3236  0.8896 -3.4099
  472MOL0     H62244  10.072   2.991   8.653  0.2777  2.4118 -0.3340
  472MOL0     H62245  10.119   3.200   8.562 -0.0551 -0.1550 -0.7386
  472MOL0     H62246  10.283   3.148   8.504 -1.8967  1.5542 -2.5985
  472MOL0     H62247  10.197   3.127   8.784 -1.6782  1.3524 -0.7426
  472MOL0     H62248  10.360   3.125   8.729  1.2664  1.4098  1.4787
  472MOL0     H62249  10.358   3.340   8.813  1.1037 -0.3961 -0.2563
  472MOL0     H62250  10.190   3.367   8.737 -0.1455 -0.5486  1.0344
  472MOL0     H62251  10.281   3.371   8.531  2.0201 -4.2834 -2.1999
  472MOL0     H62252  10.442   3.314   8.580  1.1505  1.6421 -0.7205
  472MOL0     H62253  10.467   3.543   8.723  4.1867 -3.9016 -1.8476
  472MOL0     H62254  10.473   3.564   8.565 -0.5612 -3.4918 -1.8214
  472MOL0     H62255  10.217   3.578   8.734  0.4677 -0.5346  0.7718
  472MOL0     H62256  10.225   3.605   8.567  1.5178 -3.3271 -0.5251
  472MOL0     H62257  10.336   3.864   8.516  0.0299 -1.1685  0.3104
  472MOL0     H62258  10.410   4.167   8.698 -1.6685 -1.3272  0.1188
  472MOL0     H62259  10.422   4.093   8.536 -1.6294 -0.0105  0.1755
  472MOL0     H62260  10.656   4.004   8.668  0.8342 -0.2809 -2.3524
  472MOL0     H62261  10.607   4.148   8.752 -1.3513  1.1465 -1.1738
  472MOL0     H62262  10.629   4.259   8.512  0.8316  0.3996  0.3044
  472MOL0     H62263  10.764   4.238   8.617 -2.6126  1.3743  0.8111
  472MOL0     H62264  10.869   4.073   8.496  0.3218  1.9393  1.5518
  472MOL0     H62265  10.761   4.146   8.368 -1.3585  3.0020  1.9496
  472MOL0     H62266  10.661   3.771   8.619 -0.5019 -0.4592 -2.0693
  472MOL0     H62267  10.819   3.576   8.656 -1.6926  1.0232  0.3169
  472MOL0     H62268  10.924   3.165   8.512  0.3657  0.7848 -1.0344
  472MOL0     H62269  11.062   2.957   8.558  3.1831 -0.3667 -2.2537
  472MOL0     H62270  11.243   2.796   8.714 -2.1749  0.5629  1.5893
  472MOL0     H62271  11.261   2.931   8.832  0.6483  2.6404 -0.8123
  472MOL0     H62272  11.438   2.795   8.903 -0.4366 -0.8164 -0.0932
  472MOL0     H62273  11.519   2.904   8.786 -2.2710  2.6978  0.2576
  472MOL0     H62274  11.493   2.711   8.618 -2.2725 -1.0323  0.2663
  472MOL0     H62275  11.403   2.622   8.736  2.2563 -1.9650 -0.4927
  472MOL0     H62276  11.695   2.685   8.779 -2.2521  2.1324  3.1909
  472MOL0     H62277  11.586   2.602   8.889 -2.6383 -2.2126 -0.3246
  472MOL0     H62278  11.728   2.451   8.777  1.2447  1.7077 -0.2353
  472MOL0     H62279  11.672   2.493   8.622  2.4327 -0.2942  1.4016
  472MOL0     H62280  11.461   2.424   8.639  2.5461 -1.1913 -1.8057
  472MOL0     H62281  11.453   2.384   8.817 -0.2758 -4.2716 -0.1698
  472MOL0     H62282  11.648   2.262   8.626  1.2853 -0.1804  0.5763
  472MOL0     H62283  11.606   2.193   8.782 -1.3559  1.6670  0.3330
  472MOL0     H62284  11.500   2.074   8.590 -0.8009  0.4458  0.8821
  472MOL0     H62285  11.393   2.212   8.566 -1.4495  0.4622  1.3531
  472MOL0     H62286  11.385   3.211   8.690 -1.1503 -2.4993  2.2893
  472MOL0     H62287  11.249   3.404   8.636  0.2151 -0.4185 -3.9702
  472MOL0     H62288  11.038   3.696   8.306  0.1770  2.4839 -0.9521
  472MOL0     H62289  10.879   3.900   8.286 -2.0248  1.4392  1.0093
  472MOL0     H62290   9.817   2.682   8.534  3.1159  2.6842  2.1173
  472MOL0     H62291   9.609   2.637   8.413 -1.5985  2.4319  1.5968
  472MOL0     H62292   9.311   2.889   8.127  1.3742  2.5685 -1.3586
  472MOL0     H62293   9.071   2.861   8.056  0.1120  0.2225  0.3188
  472MOL0     H62294   8.863   2.832   7.896 -1.3190 -0.6092  0.0415
  472MOL0     H62295   8.868   2.765   8.060 -0.6236  0.2558 -0.0728
  472MOL0     H62296   8.721   2.610   7.857  2.4861 -0.6852  0.7672
  472MOL0     H62297   8.716   2.605   8.037  0.9318 -0.1853  1.1574
  472MOL0     H62298   8.672   2.862   8.010 -2.8277 -1.4110  2.1776
  472MOL0     H62299   8.546   2.747   8.024 -1.1879 -2.5662 -1.6361
  472MOL0     H62300   8.495   2.895   7.819 -0.0606  0.0755 -2.5166
  472MOL0     H62301   8.658   2.875   7.759 -1.4188  1.7010  0.2868
  472MOL0     H62302   8.421   2.550   7.622 -3.5351  1.0381  0.1550
  472MOL0     H62303   9.172   2.545   7.803  0.3526 -0.0612  1.1079
  472MOL0     H62304   9.411   2.558   7.857 -1.2443 -2.0916 -0.9121
  473MOL0     O62305   5.818  10.152   6.938  0.7550 -0.1397  0.5799
  473MOL0     C62306   5.767  10.166   7.050 -0.5000  0.1223 -0.4734
  473MOL0     O62307   5.831  10.225   7.160 -0.4792 -0.2517 -0.3593
  473MOL0     C62308   5.951  10.282   7.148  0.4354 -0.6496 -0.2971
  473MOL0     C62309   6.069  10.208   7.107  0.0559  0.0851 -0.2219
  473MOL0     C62310   6.191  10.274   7.108 -1.1303  0.1872 -0.2163
  473MOL0     C62311   6.208  10.410   7.148  1.4601  0.4220 -0.0877
  473MOL0     O62312   6.333  10.472   7.136  0.4822  0.8310 -0.0113
  473MOL0     C62313   6.345  10.614   7.130  1.2006  0.2988 -1.4308
  473MOL0     C62314   6.479  10.666   7.086  0.3443 -0.0694  0.2856
  473MOL0     C62315   6.502  10.802   7.152 -0.4094 -0.0917  0.0555
  473MOL0     C62316   6.595  10.887   7.070  0.0209  0.3971  0.4972
  473MOL0     C62317   6.657  11.000   7.157 -0.5671 -0.1254  0.7362
  473MOL0     C62318   6.757  10.959   7.264  0.2598  0.5402 -0.1345
  473MOL0     C62319   6.877  10.882   7.194  0.6628  0.3649  0.0049
  473MOL0     C62320   6.995  10.896   7.285  0.3973  0.1257 -0.1879
  473MOL0     N62321   6.988  10.855   7.428  1.1425 -1.2043  1.1308
  473MOL0     C62322   6.928  10.739   7.476 -0.8030  0.5411  0.0349
  473MOL0     C62323   6.999  10.698   7.589  0.3567 -0.4193  0.0568
  473MOL0     C62324   6.955  10.605   7.698  0.7838  0.7882 -1.0641
  473MOL0     C62325   6.964  10.455   7.638 -0.2661 -2.5032  0.6262
  473MOL0     C62326   7.105  10.404   7.608 -0.3502 -0.4017 -0.0420
  473MOL0     C62327   7.095  10.258   7.566 -0.7079 -0.6217  0.0469
  473MOL0     O62328   7.227  10.197   7.568 -0.0188 -0.5815  0.3655
  473MOL0     C62329   7.309  10.204   7.454 -0.5494  0.0177 -0.7027
  473MOL0     C62330   7.298  10.295   7.347 -0.1491  0.0842  0.3495
  473MOL0     C62331   7.388  10.293   7.234  0.1628 -0.7072 -0.9527
  473MOL0     C62332   7.475  10.175   7.219 -0.1239 -0.5745 -0.1368
  473MOL0     C62333   7.543  10.130   7.093  0.1363 -0.3106  1.2294
  473MOL0     O62334   7.516  10.207   6.978  0.1018  0.5503  0.4607
  473MOL0     C62335   7.580  10.169   6.860 -0.5707 -0.1661  0.4082
  473MOL0     C62336   7.573  10.037   6.820 -0.4774 -0.6146 -0.1562
  473MOL0     C62337   7.643   9.997   6.707 -0.2809 -0.3525 -0.1722
  473MOL0     C62338   7.704  10.082   6.633  0.1312 -0.4372  0.2666
  473MOL0     O62339   7.748  10.027   6.516 -0.7855 -0.7757 -0.0577
  473MOL0     C62340   7.825  10.109   6.424  0.2958  0.0164  0.7041
  473MOL0     C62341   7.712  10.145   6.314 -0.1105 -0.3697 -0.9769
  473MOL0     C62342   7.772  10.255   6.215  0.9322  0.7266 -1.3048
  473MOL0     C62343   7.676  10.279   6.091 -1.2094 -0.7889  0.5112
  473MOL0     C62344   7.731  10.401   6.010 -0.4550 -0.7252 -0.1219
  473MOL0     C62345   7.664  10.434   5.874 -0.7967 -0.2867 -0.8496
  473MOL0     C62346   7.765  10.498   5.777  0.5207  0.2900  0.3107
  473MOL0     C62347   7.806  10.637   5.831 -0.3133 -0.3010 -0.2443
  473MOL0    Cl62348   7.874  10.736   5.702 -0.2385  0.2348  0.2482
  473MOL0     C62349   7.715  10.225   6.673  0.3011  0.7482 -0.2090
  473MOL0     C62350   7.653  10.261   6.790 -1.3215  0.6899 -0.8315
  473MOL0     O62351   7.625  10.040   7.098  0.3240 -0.4591 -0.3729
  473MOL0     C62352   7.489  10.097   7.338 -0.1492 -0.3321  0.2691
  473MOL0     C62353   7.408  10.106   7.449 -0.8556  0.5751  0.5970
  473MOL0     N62354   7.083  10.802   7.612  0.3903  0.2724 -0.0257
  473MOL0     N62355   7.074  10.897   7.519 -0.1696 -0.0386  0.3836
  473MOL0     C62356   6.092  10.468   7.188 -0.8988  0.2619 -0.5269
  473MOL0     C62357   5.964  10.410   7.188 -0.6659 -1.1003  0.4994
  473MOL0     C62358   5.627  10.120   7.079 -0.0598  0.7557 -0.1081
  473MOL0     C62359   5.574  10.088   7.201  0.2093  0.1105  0.0385
  473MOL0     C62360   5.428  10.048   7.213 -0.0198  1.3016 -0.2447
  473MOL0     C62361   5.343  10.026   7.104 -1.3644  0.1836  0.9421
  473MOL0     O62362   5.209   9.986   7.104  0.2730 -0.0909  0.2908
  473MOL0     C62363   5.165   9.929   7.229 -0.2570  0.2294  0.0445
  473MOL0     C62364   5.037   9.854   7.229 -0.5071  0.2520 -0.8499
  473MOL0     C62365   4.918   9.942   7.198  0.4393 -0.3743 -0.0192
  473MOL0     C62366   4.869  10.043   7.297 -0.6438  0.2509  0.5082
  473MOL0     C62367   4.762  10.002   7.388  0.5921 -0.8507  0.5023
  473MOL0     C62368   4.672   9.987   7.470  0.4361 -0.1890  0.2390
  473MOL0     C62369   5.408  10.054   6.979  0.1120  0.3560  0.6279
  473MOL0     C62370   5.534  10.100   6.968 -0.5845 -0.1859 -0.5469
  473MOL0     H62371   6.051  10.103   7.085 -5.0276  0.5787  0.2558
  473MOL0     H62372   6.284  10.223   7.086 -1.3532 -0.1009 -0.4819
  473MOL0     H62373   6.339  10.640   7.236  2.2803 -0.0810 -1.2572
  473MOL0     H62374   6.265  10.668   7.080 -0.0086  1.7926  1.8115
  473MOL0     H62375   6.479  10.680   6.977 -1.4199 -1.7629  0.0218
  473MOL0     H62376   6.561  10.595   7.102  0.8243  0.4680  0.2503
  473MOL0     H62377   6.546  10.787   7.251 -3.0411 -2.1327  1.0355
  473MOL0     H62378   6.404  10.847   7.170 -0.8393  0.3481 -2.9264
  473MOL0     H62379   6.662  10.827   7.007 -2.0957 -0.0489 -1.4437
  473MOL0     H62380   6.530  10.931   6.994  0.2894  0.8455  0.5259
  473MOL0     H62381   6.581  11.059   7.210  0.5969  0.9463  1.2467
  473MOL0     H62382   6.704  11.073   7.090 -2.3573  0.2049 -0.2274
  473MOL0     H62383   6.713  10.907   7.349  1.8495 -0.9032 -0.1317
  473MOL0     H62384   6.799  11.053   7.302 -0.6355  1.0182 -0.2866
  473MOL0     H62385   6.841  10.782   7.172 -1.4362  1.7538 -3.7676
  473MOL0     H62386   6.906  10.919   7.095 -2.2563  1.9180 -0.3750
  473MOL0     H62387   7.031  10.999   7.276 -2.3558  1.1744 -0.2569
  473MOL0     H62388   7.078  10.842   7.240  0.0669 -1.2361  0.7890
  473MOL0     H62389   6.855  10.680   7.421 -0.1935 -1.5280  1.3205
  473MOL0     H62390   6.858  10.645   7.728  1.6632  1.9262  0.4334
  473MOL0     H62391   7.021  10.600   7.786 -0.6861  1.1050  0.0977
  473MOL0     H62392   6.912  10.458   7.542 -1.4041 -1.2517  1.2482
  473MOL0     H62393   6.904  10.394   7.706 -3.3005 -1.6725 -1.1262
  473MOL0     H62394   7.150  10.481   7.546 -0.7172  2.0777  2.5886
  473MOL0     H62395   7.167  10.412   7.697 -0.2433 -0.5069 -0.1061
  473MOL0     H62396   7.062  10.246   7.462  1.8612 -0.1629 -0.9057
  473MOL0     H62397   7.034  10.197   7.634 -5.7787  2.7845 -0.8944
  473MOL0     H62398   7.231  10.377   7.370  1.2294  1.2510  0.3986
  473MOL0     H62399   7.375  10.359   7.149  0.6635  0.6372 -0.0130
  473MOL0     H62400   7.521   9.970   6.888 -0.7926  0.6751  0.9163
  473MOL0     H62401   7.648   9.892   6.679  0.1275  0.0846 -1.8328
  473MOL0     H62402   7.900  10.038   6.388  0.5763 -1.5724  3.9613
  473MOL0     H62403   7.874  10.197   6.466 -0.6169  0.7604  0.2484
  473MOL0     H62404   7.628  10.201   6.356  1.4465  0.8942  0.6548
  473MOL0     H62405   7.680  10.053   6.265  0.3846 -0.9693 -0.1991
  473MOL0     H62406   7.872  10.231   6.177  0.5423 -1.7209 -0.9807
  473MOL0     H62407   7.764  10.351   6.267  2.2631 -0.3326  1.0196
  473MOL0     H62408   7.673  10.196   6.019 -1.9706  2.5942 -3.7843
  473MOL0     H62409   7.577  10.314   6.121 -1.9501 -1.8740 -0.5666
  473MOL0     H62410   7.835  10.372   5.994 -0.8536 -2.0663 -0.4406
  473MOL0     H62411   7.746  10.486   6.077 -1.2012 -1.4933  1.0618
  473MOL0     H62412   7.580  10.501   5.895  1.6302  3.2241 -1.4012
  473MOL0     H62413   7.619  10.340   5.841 -0.8852 -2.0053  3.4203
  473MOL0     H62414   7.859  10.443   5.764  0.8634  0.5667  1.5629
  473MOL0     H62415   7.719  10.512   5.678  2.1853 -0.5605 -0.6238
  473MOL0     H62416   7.871  10.621   5.918 -0.3073  3.5917  0.6561
  473MOL0     H62417   7.723  10.701   5.862  1.0316  1.1978  0.4239
  473MOL0     H62418   7.779  10.294   6.618  1.5586 -0.3997 -0.2539
  473MOL0     H62419   7.665  10.364   6.822 -2.6226  0.6059 -0.0200
  473MOL0     H62420   7.546  10.004   7.343 -1.1519 -0.9160  2.2723
  473MOL0     H62421   7.395  10.022   7.516 -2.0696 -2.1254 -2.7633
  473MOL0     H62422   6.101  10.573   7.215 -0.6646  0.2964 -0.7383
  473MOL0     H62423   5.878  10.470   7.217 -1.2942 -1.9615  0.4580
  473MOL0     H62424   5.631  10.116   7.289  0.1221 -0.5936  0.3202
  473MOL0     H62425   5.384  10.035   7.311  1.9094 -0.1991  0.4792
  473MOL0     H62426   5.165  10.010   7.303  0.6557  0.7155 -0.4662
  473MOL0     H62427   5.250   9.868   7.263  3.6288  4.0974 -1.7406
  473MOL0     H62428   5.042   9.775   7.153 -2.8079  1.8307 -2.7852
  473MOL0     H62429   5.027   9.821   7.332  3.4753  2.2499  0.4093
  473MOL0     H62430   4.831   9.878   7.180 -1.9266  2.3329  1.0202
  473MOL0     H62431   4.945   9.994   7.105  2.7745 -2.9532 -0.9202
  473MOL0     H62432   4.947  10.068   7.370 -1.4419 -0.6310  1.6924
  473MOL0     H62433   4.858  10.141   7.250  0.8837  0.1883 -0.0374
  473MOL0     H62434   4.595   9.958   7.539 -0.3528  0.7819 -0.2195
  473MOL0     H62435   5.346  10.061   6.890  2.9876  3.4192 -1.3980
  473MOL0     H62436   5.576  10.112   6.868 -1.7918  0.9586 -0.9457
  474MOL0     O62437   5.614   1.328   1.407  0.0040 -0.1832 -0.3342
  474MOL0     C62438   5.675   1.232   1.446 -0.6971  0.1594 -0.3694
  474MOL0     O62439   5.797   1.235   1.515 -0.0322  0.2658  0.2624
  474MOL0     C62440   5.884   1.341   1.522  0.3965  0.3941  0.1461
  474MOL0     C62441   5.984   1.338   1.625  0.3114  0.4212 -0.3730
  474MOL0     C62442   6.084   1.437   1.635 -0.0015  0.2747  1.0493
  474MOL0     C62443   6.090   1.534   1.534  0.0432  0.0374  0.5337
  474MOL0     O62444   6.205   1.621   1.544 -0.2565 -0.3223  0.1016
  474MOL0     C62445   6.241   1.696   1.430  0.5182 -0.4434  0.2326
  474MOL0     C62446   6.376   1.778   1.447  0.3697  0.0387 -0.3211
  474MOL0     C62447   6.379   1.881   1.561 -0.0324 -0.2849 -0.1333
  474MOL0     C62448   6.513   1.964   1.565  0.4218 -0.9589 -0.4278
  474MOL0     C62449   6.635   1.876   1.599 -0.5348  0.4214 -0.0443
  474MOL0     C62450   6.764   1.957   1.582 -0.6727  0.2000  0.4236
  474MOL0     C62451   6.811   1.960   1.431 -0.1328 -0.4949  0.3645
  474MOL0     C62452   6.823   1.824   1.356 -0.2998  0.2641  0.0604
  474MOL0     N62453   6.924   1.746   1.432 -0.2867  0.9202  0.5459
  474MOL0     C62454   7.059   1.791   1.447  0.2614  0.3524  0.4169
  474MOL0     C62455   7.104   1.714   1.552  1.1982 -0.7314 -0.3295
  474MOL0     C62456   7.235   1.731   1.637  1.2946 -0.4540 -0.7716
  474MOL0     C62457   7.321   1.607   1.625  0.6566 -0.5424  0.2132
  474MOL0     C62458   7.421   1.597   1.511 -0.7555  0.9087  0.0991
  474MOL0     C62459   7.534   1.502   1.529 -0.7562  1.0275 -0.2952
  474MOL0     O62460   7.601   1.468   1.407 -0.2691 -0.1891  0.5781
  474MOL0     C62461   7.732   1.424   1.419 -0.1139 -0.2927 -0.3393
  474MOL0     C62462   7.776   1.374   1.546 -0.3866  0.1951 -0.1008
  474MOL0     C62463   7.908   1.329   1.556  0.6483 -0.0804  1.0982
  474MOL0     C62464   7.999   1.338   1.458  0.1615  1.2641  0.4341
  474MOL0     C62465   8.141   1.288   1.480  0.0180  0.4494 -0.4002
  474MOL0     O62466   8.207   1.270   1.357 -0.4758 -0.4962  0.6407
  474MOL0     C62467   8.334   1.223   1.365 -0.1205 -1.3432  0.5167
  474MOL0     C62468   8.363   1.091   1.334 -0.5825 -0.1219 -1.2596
  474MOL0     C62469   8.491   1.047   1.325 -0.1752 -0.0093  0.8800
  474MOL0     C62470   8.608   1.144   1.315  0.9530 -0.0806 -0.3066
  474MOL0     O62471   8.734   1.103   1.282 -0.3027 -0.5364  0.1746
  474MOL0     C62472   8.839   1.143   1.374  0.7694  0.1073 -0.1933
  474MOL0     C62473   8.928   1.028   1.379  0.2871  0.4122  0.0861
  474MOL0     C62474   9.027   1.037   1.492  0.6473  0.2391 -0.3636
  474MOL0     C62475   8.993   0.934   1.598  0.6214 -0.0293  0.1756
  474MOL0     C62476   9.103   0.949   1.697  0.2323 -0.0426 -0.2589
  474MOL0     C62477   9.091   0.889   1.830 -0.1482 -0.0713 -1.0604
  474MOL0     C62478   8.952   0.921   1.900  0.8711 -0.5536  0.3630
  474MOL0     C62479   8.948   0.862   2.042  0.5551  0.4825 -0.4891
  474MOL0    Cl62480   9.082   0.936   2.139  0.6031  0.3949  0.2355
  474MOL0     C62481   8.570   1.276   1.349 -1.1352 -0.4338  0.3740
  474MOL0     C62482   8.441   1.307   1.371  0.8528 -0.0939  0.2003
  474MOL0     O62483   8.179   1.253   1.588  1.0082  0.5024 -0.2952
  474MOL0     C62484   7.961   1.392   1.336 -0.2742 -1.2884  0.0098
  474MOL0     C62485   7.832   1.441   1.320  1.3464  0.0791  0.8340
  474MOL0     N62486   7.007   1.616   1.577 -0.0860 -0.0823  1.4435
  474MOL0     N62487   6.900   1.631   1.503  0.2973 -0.8516  0.6951
  474MOL0     C62488   5.996   1.535   1.429 -0.1904  0.3697  0.2350
  474MOL0     C62489   5.893   1.448   1.428  0.1097  1.7079  0.6747
  474MOL0     C62490   5.622   1.091   1.426 -0.1297 -0.6774 -1.2351
  474MOL0     C62491   5.669   0.993   1.514  0.3150  0.2921  0.3689
  474MOL0     C62492   5.614   0.869   1.489 -0.3296 -0.3802  0.2463
  474MOL0     C62493   5.536   0.836   1.378 -0.8951  0.7049 -0.8753
  474MOL0     O62494   5.505   0.705   1.370 -1.5802  0.0128  0.2538
  474MOL0     C62495   5.427   0.659   1.269  0.1396  0.7274  0.0912
  474MOL0     C62496   5.415   0.510   1.296 -0.0465  0.4541  0.3201
  474MOL0     C62497   5.528   0.428   1.240  0.9046 -0.2500 -0.0304
  474MOL0     C62498   5.551   0.289   1.301 -0.4925  1.5680 -0.0342
  474MOL0     C62499   5.421   0.215   1.324 -0.4857 -0.1139 -0.1300
  474MOL0     C62500   5.314   0.166   1.340  0.4066  0.0549 -0.0958
  474MOL0     C62501   5.484   0.941   1.301 -0.6847  0.3624 -0.5875
  474MOL0     C62502   5.534   1.062   1.333  0.1242  0.1414 -0.5704
  474MOL0     H62503   5.971   1.270   1.708  1.9126 -0.9521 -1.1927
  474MOL0     H62504   6.157   1.443   1.714  7.2269  0.8265 -4.6088
  474MOL0     H62505   6.157   1.760   1.402 -0.4696 -1.8128 -0.0281
  474MOL0     H62506   6.259   1.626   1.348 -0.5748 -1.1847  0.6019
  474MOL0     H62507   6.384   1.839   1.357 -0.3490  1.0154  0.2560
  474MOL0     H62508   6.456   1.703   1.451  0.9213  0.5368 -1.7258
  474MOL0     H62509   6.365   1.818   1.650  2.4017 -1.4557 -0.5147
  474MOL0     H62510   6.291   1.942   1.538  2.0094  2.3676 -1.5167
  474MOL0     H62511   6.525   2.018   1.471 -1.2583 -2.2049 -1.4109
  474MOL0     H62512   6.511   2.050   1.634 -0.9391  0.3686 -2.0462
  474MOL0     H62513   6.631   1.777   1.552  1.8076 -0.1424  0.7664
  474MOL0     H62514   6.621   1.854   1.705  1.5404 -0.9707  0.0140
  474MOL0     H62515   6.840   1.900   1.636  1.3806 -2.1598 -4.3068
  474MOL0     H62516   6.742   2.056   1.624  1.0928  0.2782  1.2185
  474MOL0     H62517   6.733   2.018   1.380  0.1284  1.2313  1.8442
  474MOL0     H62518   6.907   2.011   1.424  0.2261 -1.1688  0.2570
  474MOL0     H62519   6.850   1.837   1.251 -4.3559  0.7502 -1.1032
  474MOL0     H62520   6.732   1.763   1.349  1.1774 -1.8604 -1.9808
  474MOL0     H62521   7.119   1.867   1.399  0.4833  0.4231  0.8024
  474MOL0     H62522   7.214   1.749   1.743 -0.8617 -1.6798 -0.9393
  474MOL0     H62523   7.281   1.819   1.591 -1.2000  1.2897 -0.0981
  474MOL0     H62524   7.254   1.520   1.624 -0.2251  0.1130  0.4975
  474MOL0     H62525   7.377   1.607   1.718  0.6408  0.3123  0.2262
  474MOL0     H62526   7.366   1.558   1.425 -3.2321  0.7108  1.6901
  474MOL0     H62527   7.447   1.697   1.476 -0.1469 -0.2120 -2.9445
  474MOL0     H62528   7.499   1.416   1.586  0.3901  1.3951  1.0284
  474MOL0     H62529   7.610   1.552   1.589 -0.9101 -0.2070  0.9693
  474MOL0     H62530   7.717   1.359   1.636 -0.3288 -0.8529 -0.2303
  474MOL0     H62531   7.924   1.286   1.654 -1.8077 -0.4240  1.4231
  474MOL0     H62532   8.275   1.030   1.315 -2.4668  2.2474 -0.6208
  474MOL0     H62533   8.509   0.941   1.313  0.6613  0.0773  1.3076
  474MOL0     H62534   8.794   1.151   1.474 -0.7598  2.5767 -0.9899
  474MOL0     H62535   8.890   1.236   1.348 -1.1316  1.8147  1.7671
  474MOL0     H62536   8.991   1.025   1.290 -2.6477  0.4649 -2.1605
  474MOL0     H62537   8.866   0.938   1.381  0.5091 -0.0358 -3.9720
  474MOL0     H62538   9.013   1.136   1.536  2.7745 -0.2685  1.6757
  474MOL0     H62539   9.131   1.028   1.460  0.4678  0.5584 -1.0479
  474MOL0     H62540   8.895   0.959   1.638  1.3320  4.6071 -0.3476
  474MOL0     H62541   8.994   0.834   1.556  0.5429 -0.8838  2.0948
  474MOL0     H62542   9.124   1.054   1.721  1.1690 -0.6710  1.8985
  474MOL0     H62543   9.197   0.909   1.658  0.8121 -1.5050  2.3853
  474MOL0     H62544   9.166   0.935   1.895 -0.1236  0.0623 -1.1833
  474MOL0     H62545   9.113   0.782   1.823  3.2829  0.4124  0.1584
  474MOL0     H62546   8.934   1.028   1.912 -2.0092 -0.7773 -1.0063
  474MOL0     H62547   8.863   0.888   1.844  0.4668  2.0180 -0.6293
  474MOL0     H62548   8.963   0.754   2.041 -0.2482  0.3119  1.4225
  474MOL0     H62549   8.859   0.880   2.103  1.0876 -1.8014  1.0931
  474MOL0     H62550   8.643   1.356   1.348  1.7992 -2.9235 -1.6063
  474MOL0     H62551   8.416   1.413   1.379 -3.1216 -0.8509  0.1388
  474MOL0     H62552   8.040   1.397   1.261 -1.3999 -0.3567 -1.1752
  474MOL0     H62553   7.808   1.489   1.226 -0.9088 -0.0882  1.2480
  474MOL0     H62554   6.002   1.616   1.357  3.3853 -0.8727 -1.0672
  474MOL0     H62555   5.831   1.437   1.339  2.5606  0.7423 -1.0389
  474MOL0     H62556   5.732   1.025   1.596 -2.0391  2.3407  1.5054
  474MOL0     H62557   5.639   0.796   1.566 -1.6976  1.3844  2.5204
  474MOL0     H62558   5.463   0.677   1.168  0.4924  2.4467  0.4914
  474MOL0     H62559   5.327   0.702   1.262 -1.7769 -3.3467 -0.7524
  474MOL0     H62560   5.412   0.508   1.406  0.1115  1.0775  0.3413
  474MOL0     H62561   5.319   0.476   1.258  1.0930 -0.9090 -1.4961
  474MOL0     H62562   5.618   0.490   1.250  0.8695 -0.0028 -1.1092
  474MOL0     H62563   5.499   0.427   1.134 -3.2609 -0.6181  0.9540
  474MOL0     H62564   5.607   0.226   1.231  0.5272  1.1736  1.0854
  474MOL0     H62565   5.604   0.299   1.396  3.1717 -2.3080 -1.3392
  474MOL0     H62566   5.212   0.132   1.347  0.3908 -0.0837 -0.9083
  474MOL0     H62567   5.410   0.937   1.221  0.8616 -2.2303 -2.0228
  474MOL0     H62568   5.499   1.149   1.278  2.4290  0.9918 -0.7917
  475MOL0     O62569   8.220   8.274   6.828  0.8587  0.3850 -0.4829
  475MOL0     C62570   8.104   8.250   6.799  0.5951  0.4560  0.8738
  475MOL0     O62571   7.995   8.321   6.827  0.5193  0.8315 -0.1979
  475MOL0     C62572   8.016   8.436   6.901 -0.6009 -0.3111 -0.3595
  475MOL0     C62573   7.919   8.533   6.886  0.5528  0.3462 -0.3437
  475MOL0     C62574   7.920   8.659   6.951 -0.0671 -1.2437 -0.0497
  475MOL0     C62575   8.017   8.693   7.040 -0.1678 -0.0755 -0.5371
  475MOL0     O62576   8.032   8.817   7.101  0.1811  0.4220 -0.6352
  475MOL0     C62577   7.940   8.911   7.044 -0.3041 -0.5843 -0.1108
  475MOL0     C62578   7.938   9.045   7.117  0.0861  0.1610  1.0544
  475MOL0     C62579   7.841   9.147   7.045 -0.4535 -0.1229 -0.3523
  475MOL0     C62580   7.922   9.216   6.928 -0.4856  0.6249 -0.1221
  475MOL0     C62581   7.845   9.239   6.803  0.1388 -0.2165  1.0188
  475MOL0     C62582   7.749   9.354   6.829  0.4527 -0.1011  0.3618
  475MOL0     C62583   7.679   9.395   6.701 -0.2416 -0.5130 -0.0840
  475MOL0     C62584   7.567   9.309   6.652 -0.1559  0.2956 -0.2895
  475MOL0     N62585   7.460   9.276   6.749  0.2552 -0.0285 -0.0288
  475MOL0     C62586   7.344   9.347   6.764  0.4259  0.8922 -0.3313
  475MOL0     C62587   7.286   9.294   6.877  0.4632  0.3725 -1.1935
  475MOL0     C62588   7.162   9.354   6.950 -0.3092  0.1700 -0.0704
  475MOL0     C62589   7.040   9.266   6.983 -0.0536  0.0161  1.1877
  475MOL0     C62590   6.977   9.191   6.865 -1.1218 -0.6086 -0.5856
  475MOL0     C62591   6.934   9.276   6.744  0.3395  0.9925  0.6377
  475MOL0     O62592   6.867   9.197   6.650  0.1887  0.0157  0.2103
  475MOL0     C62593   6.729   9.212   6.647 -1.1750  0.2362  0.0332
  475MOL0     C62594   6.654   9.321   6.615  0.2653  0.2928 -0.2148
  475MOL0     C62595   6.522   9.305   6.613  1.0572  0.0744  0.0464
  475MOL0     C62596   6.452   9.182   6.624  0.6843 -0.7138 -0.8515
  475MOL0     C62597   6.303   9.172   6.624  0.1565 -0.3012  0.0091
  475MOL0     O62598   6.251   9.049   6.621 -0.4613 -0.3866 -0.2405
  475MOL0     C62599   6.115   9.024   6.591  0.1536  0.1233  0.6774
  475MOL0     C62600   6.030   9.116   6.526  0.2187 -0.4400  0.5008
  475MOL0     C62601   5.900   9.080   6.497  0.4042 -0.3969  0.0284
  475MOL0     C62602   5.847   8.953   6.514 -0.8201 -1.0134  0.9358
  475MOL0     O62603   5.724   8.925   6.477  0.5258 -0.1128  0.3658
  475MOL0     C62604   5.651   9.017   6.407  0.5266 -0.7479  0.5500
  475MOL0     C62605   5.517   8.954   6.367  0.2176 -0.1261  0.2770
  475MOL0     C62606   5.527   8.837   6.268  0.6316  0.0782  0.0970
  475MOL0     C62607   5.573   8.884   6.126 -0.8301 -0.3604  0.9010
  475MOL0     C62608   5.560   8.761   6.028  0.6380 -0.0297 -0.7646
  475MOL0     C62609   5.592   8.787   5.879  0.4850 -0.0574 -0.0215
  475MOL0     C62610   5.572   8.662   5.782 -0.3434  0.5145  0.6069
  475MOL0     C62611   5.431   8.622   5.741 -0.3181  0.1090  0.2610
  475MOL0    Cl62612   5.350   8.731   5.621  0.5469 -0.0166 -0.1392
  475MOL0     C62613   5.932   8.860   6.571 -0.5197  0.0281 -0.2237
  475MOL0     C62614   6.063   8.895   6.603 -0.4650  0.1649  0.2320
  475MOL0     O62615   6.245   9.280   6.617 -0.1541 -0.4960 -0.4027
  475MOL0     C62616   6.529   9.071   6.660 -0.0160 -1.1047 -0.4657
  475MOL0     C62617   6.675   9.087   6.658  0.5524  0.5570  0.3090
  475MOL0     N62618   7.379   9.201   6.927  0.4223 -0.1959  0.1701
  475MOL0     N62619   7.472   9.185   6.848  0.5978 -0.0751  0.2469
  475MOL0     C62620   8.117   8.597   7.068 -0.1009 -0.1535 -0.3935
  475MOL0     C62621   8.110   8.469   7.006  0.7365 -0.3667  0.5817
  475MOL0     C62622   8.072   8.125   6.738 -0.3553  0.2215  0.5347
  475MOL0     C62623   7.946   8.085   6.686 -0.3014 -0.4562 -0.3404
  475MOL0     C62624   7.919   7.958   6.651 -0.1207 -0.5526 -0.6076
  475MOL0     C62625   8.015   7.866   6.656 -0.3028  0.0009 -0.1766
  475MOL0     O62626   7.982   7.740   6.624 -0.8149 -1.0195 -0.2638
  475MOL0     C62627   7.898   7.672   6.725 -0.4167 -0.0075 -0.4949
  475MOL0     C62628   7.761   7.639   6.668  0.0061  0.0093  0.7097
  475MOL0     C62629   7.663   7.609   6.774 -0.4363 -0.6741 -0.7655
  475MOL0     C62630   7.540   7.540   6.719 -0.5349 -0.9156 -0.0433
  475MOL0     C62631   7.467   7.629   6.629 -0.6875 -0.2703  0.2546
  475MOL0     C62632   7.423   7.705   6.553  0.2003  0.3138  0.7433
  475MOL0     C62633   8.147   7.889   6.684  0.0885  0.3384  0.1187
  475MOL0     C62634   8.179   8.023   6.722  0.0781 -0.3699  0.0002
  475MOL0     H62635   7.844   8.514   6.809 -1.6841  1.5535  1.4270
  475MOL0     H62636   7.840   8.725   6.920  1.4917 -0.1539 -1.9942
  475MOL0     H62637   7.838   8.876   7.063 -0.3279 -0.1478  0.5836
  475MOL0     H62638   7.970   8.932   6.941  1.7843 -1.6673  0.2178
  475MOL0     H62639   8.039   9.085   7.126  0.1226  1.0741 -2.0835
  475MOL0     H62640   7.884   9.023   7.209 -1.4032 -1.1019 -0.0765
  475MOL0     H62641   7.811   9.237   7.098  2.0206 -0.1130  1.2106
  475MOL0     H62642   7.754   9.086   7.019 -2.2649  2.0481  0.3679
  475MOL0     H62643   7.967   9.308   6.965 -0.2735  1.0667 -1.4194
  475MOL0     H62644   7.997   9.137   6.913 -0.2274  0.4096  1.9299
  475MOL0     H62645   7.788   9.153   6.764 -1.8795  1.5309 -0.1243
  475MOL0     H62646   7.910   9.275   6.723 -3.9676  0.5371 -2.3829
  475MOL0     H62647   7.814   9.428   6.877  0.8228  0.0349 -0.3439
  475MOL0     H62648   7.676   9.336   6.909  2.2685  0.9969  2.3806
  475MOL0     H62649   7.636   9.495   6.708  1.2456  0.4975 -3.4099
  475MOL0     H62650   7.750   9.415   6.620 -1.8170 -0.8736 -1.6216
  475MOL0     H62651   7.609   9.213   6.623  5.2354  2.4884 -0.9241
  475MOL0     H62652   7.514   9.340   6.562 -1.3565 -2.5360 -0.6514
  475MOL0     H62653   7.301   9.430   6.709 -0.1575  2.0612  1.8037
  475MOL0     H62654   7.133   9.447   6.900 -2.2616 -0.2331  0.2375
  475MOL0     H62655   7.195   9.392   7.048 -1.6078  0.0445  0.4271
  475MOL0     H62656   6.965   9.329   7.031  1.1275 -0.2345  3.5252
  475MOL0     H62657   7.073   9.196   7.060  0.9082 -1.2632 -0.3374
  475MOL0     H62658   7.052   9.115   6.840  1.4249  0.4783  2.8793
  475MOL0     H62659   6.886   9.141   6.900 -0.5794 -1.7885 -0.8137
  475MOL0     H62660   7.015   9.319   6.685 -0.1338  1.1929  0.1323
  475MOL0     H62661   6.866   9.351   6.785 -2.1394  0.3713 -1.9984
  475MOL0     H62662   6.693   9.417   6.582 -1.3419  0.2127 -2.6180
  475MOL0     H62663   6.465   9.391   6.578 -0.6652 -2.0398 -2.7598
  475MOL0     H62664   6.061   9.218   6.506  0.2931 -0.6524 -0.5098
  475MOL0     H62665   5.842   9.157   6.447  1.7905  0.5675 -0.1484
  475MOL0     H62666   5.702   9.050   6.316  0.8236  0.3737  1.0974
  475MOL0     H62667   5.630   9.100   6.476  3.7149  0.0187  0.7699
  475MOL0     H62668   5.450   9.034   6.332  0.9483  0.4716  0.2086
  475MOL0     H62669   5.468   8.919   6.458  2.7894 -1.1823  1.3391
  475MOL0     H62670   5.426   8.793   6.261  1.0892 -0.9314 -0.4333
  475MOL0     H62671   5.586   8.761   6.320 -2.5975 -2.3888  0.4982
  475MOL0     H62672   5.507   8.969   6.104  1.6606  1.7156  1.0142
  475MOL0     H62673   5.676   8.920   6.130 -0.1519 -1.7863 -1.8419
  475MOL0     H62674   5.459   8.719   6.026  0.3771  0.4572  0.7569
  475MOL0     H62675   5.617   8.677   6.071  1.2599 -0.5038 -2.4395
  475MOL0     H62676   5.695   8.823   5.881  0.5143 -0.1702  1.0207
  475MOL0     H62677   5.530   8.862   5.829  2.3775  1.3325 -0.3769
  475MOL0     H62678   5.625   8.678   5.687  0.9895 -0.3417  1.1767
  475MOL0     H62679   5.617   8.582   5.840 -0.1161  2.0596  2.6793
  475MOL0     H62680   5.368   8.621   5.830  3.2254 -0.2910  2.9886
  475MOL0     H62681   5.437   8.518   5.707 -0.3725 -0.1763  1.1059
  475MOL0     H62682   5.891   8.761   6.589 -1.4097  0.2729 -0.8691
  475MOL0     H62683   6.130   8.826   6.654  1.1096 -0.6880 -2.7431
  475MOL0     H62684   6.483   8.975   6.683  0.6859 -0.7442  3.1487
  475MOL0     H62685   6.723   8.992   6.676 -0.3819  0.0448  0.1718
  475MOL0     H62686   8.175   8.621   7.156 -2.9489  0.6885  1.3784
  475MOL0     H62687   8.177   8.393   7.045  1.0109 -0.0686  0.6938
  475MOL0     H62688   7.857   8.147   6.684 -0.6286 -0.8419  1.0666
  475MOL0     H62689   7.816   7.938   6.624 -1.5139  4.1148  0.3487
  475MOL0     H62690   7.893   7.721   6.822  0.7550 -3.1237  1.3009
  475MOL0     H62691   7.943   7.573   6.741 -0.4930 -0.4720 -2.7725
  475MOL0     H62692   7.716   7.719   6.608 -0.2801  1.2273  2.4591
  475MOL0     H62693   7.771   7.546   6.612 -0.4216  0.4586 -0.1413
  475MOL0     H62694   7.632   7.702   6.822  1.1680  0.6593 -2.1967
  475MOL0     H62695   7.723   7.538   6.832 -0.5942 -1.4905 -1.5937
  475MOL0     H62696   7.563   7.442   6.677  1.7096 -1.0145  1.2442
  475MOL0     H62697   7.476   7.510   6.802 -0.3949 -2.3408 -0.4179
  475MOL0     H62698   7.416   7.779   6.476  1.4698 -0.4188 -0.1191
  475MOL0     H62699   8.235   7.827   6.672  1.2868  2.3233 -2.3310
  475MOL0     H62700   8.286   8.043   6.728 -0.0493  1.0262 -1.7475
  476MOL0     O62701   2.865   4.131   4.331  0.8789  0.1603 -0.2811
  476MOL0     C62702   2.895   4.244   4.369 -0.4880 -0.6849 -0.1431
  476MOL0     O62703   3.020   4.299   4.381  0.3386  0.2589  0.2070
  476MOL0     C62704   3.119   4.216   4.324 -0.2448  0.0298 -0.8376
  476MOL0     C62705   3.135   4.193   4.190  0.6882  0.5063  1.0399
  476MOL0     C62706   3.241   4.112   4.145 -0.1202 -0.2703 -0.3988
  476MOL0     C62707   3.345   4.084   4.233 -0.3437 -0.4519  0.4999
  476MOL0     O62708   3.457   4.030   4.182  0.6574  0.0895  0.0483
  476MOL0     C62709   3.556   3.970   4.267 -0.4193 -0.1462  0.1598
  476MOL0     C62710   3.679   3.918   4.185  0.5721  0.7328  0.8186
  476MOL0     C62711   3.742   4.017   4.108  0.6585  0.0557  0.7978
  476MOL0     C62712   3.859   3.958   4.012 -0.0652  0.9104 -0.0549
  476MOL0     C62713   3.958   3.885   4.095 -0.3058  0.0788  0.5883
  476MOL0     C62714   4.087   3.846   4.014  0.5252 -0.1560  0.0258
  476MOL0     C62715   4.209   3.826   4.107  0.5574  0.2739 -0.1539
  476MOL0     C62716   4.335   3.771   4.035  0.1322 -0.7219 -0.1390
  476MOL0     N62717   4.459   3.752   4.102  0.3271  0.2689 -0.5056
  476MOL0     C62718   4.520   3.809   4.215  0.4874 -0.0246 -0.0290
  476MOL0     C62719   4.644   3.753   4.230  0.3767  0.2696  0.4118
  476MOL0     C62720   4.750   3.769   4.335  0.1959 -0.0330 -0.9144
  476MOL0     C62721   4.684   3.769   4.476  0.4758 -0.2024 -0.7756
  476MOL0     C62722   4.643   3.636   4.529 -0.2861 -1.0101 -0.5491
  476MOL0     C62723   4.504   3.592   4.494  0.3586  0.1651 -0.2229
  476MOL0     O62724   4.405   3.674   4.556 -0.4865 -0.8690  0.2653
  476MOL0     C62725   4.273   3.663   4.518 -0.7225  0.4282  0.4551
  476MOL0     C62726   4.223   3.574   4.422  0.4201 -0.0989  0.4350
  476MOL0     C62727   4.080   3.577   4.395  0.0092  0.4801  0.3546
  476MOL0     C62728   3.997   3.670   4.455  0.1523 -0.5867  0.2157
  476MOL0     C62729   3.848   3.679   4.432 -0.6129  0.8316  0.8105
  476MOL0     O62730   3.777   3.752   4.519 -0.4758 -0.7413 -0.4571
  476MOL0     C62731   3.636   3.749   4.541 -0.3024  0.0147  0.1119
  476MOL0     C62732   3.547   3.651   4.481  0.6402  0.1497  0.8005
  476MOL0     C62733   3.410   3.671   4.485 -0.2062 -0.5483 -0.1514
  476MOL0     C62734   3.354   3.780   4.570 -0.4639  1.2467  0.4403
  476MOL0     O62735   3.220   3.811   4.580  1.6337  0.8170  0.9642
  476MOL0     C62736   3.127   3.769   4.482  0.9137  1.1383 -0.0933
  476MOL0     C62737   3.137   3.822   4.343  0.9478 -0.9628  0.2337
  476MOL0     C62738   3.020   3.764   4.263  0.9794  0.3323 -0.0390
  476MOL0     C62739   3.031   3.793   4.113 -0.0728 -0.1083 -0.8341
  476MOL0     C62740   2.941   3.701   4.036  0.5145 -0.1058  0.7888
  476MOL0     C62741   2.921   3.745   3.889 -0.6458 -0.1379  0.3463
  476MOL0     C62742   2.844   3.627   3.826  0.2820  0.4892  0.1265
  476MOL0     C62743   2.786   3.659   3.684 -0.2478  0.0467  0.9170
  476MOL0    Cl62744   2.633   3.573   3.651  0.0885  0.0395  0.0633
  476MOL0     C62745   3.443   3.860   4.635  0.0683 -0.2970  0.0217
  476MOL0     C62746   3.580   3.844   4.624  0.0682  0.8141 -0.1060
  476MOL0     O62747   3.799   3.608   4.343  0.2041  0.1848 -0.0547
  476MOL0     C62748   4.060   3.756   4.551 -0.6709 -1.1704  0.4883
  476MOL0     C62749   4.192   3.752   4.584 -1.2592 -0.2316  1.1168
  476MOL0     N62750   4.659   3.671   4.121  0.0876 -0.4978  0.3943
  476MOL0     N62751   4.555   3.672   4.041  0.1668  0.2478 -0.2758
  476MOL0     C62752   3.326   4.112   4.373 -0.2957 -0.0155  0.8459
  476MOL0     C62753   3.212   4.168   4.414  0.2292 -1.0133 -0.1843
  476MOL0     C62754   2.785   4.328   4.419  0.9448 -1.0048  0.9124
  476MOL0     C62755   2.796   4.468   4.447 -0.2724 -0.5724 -0.3521
  476MOL0     C62756   2.694   4.549   4.486 -0.4948  1.0025  0.4918
  476MOL0     C62757   2.569   4.497   4.479  0.3745 -0.1827  0.7826
  476MOL0     O62758   2.461   4.570   4.500  0.8110 -0.5680  0.3067
  476MOL0     C62759   2.460   4.613   4.640 -0.2281  0.1265 -0.3393
  476MOL0     C62760   2.422   4.760   4.633 -0.4789 -0.1578 -0.8458
  476MOL0     C62761   2.492   4.843   4.738  0.1027  0.1280 -0.0496
  476MOL0     C62762   2.459   4.994   4.719 -0.5831  1.1713  0.4790
  476MOL0     C62763   2.457   5.062   4.847  0.1133  0.1790 -0.2727
  476MOL0     C62764   2.443   5.140   4.933  0.7502 -0.2624 -0.3216
  476MOL0     C62765   2.552   4.360   4.446  1.1793  1.0189  0.1872
  476MOL0     C62766   2.654   4.278   4.409 -0.7459  0.7884 -0.3197
  476MOL0     H62767   3.059   4.240   4.128  0.2565 -3.0373 -1.4415
  476MOL0     H62768   3.244   4.077   4.042  1.0109 -0.7317 -0.2220
  476MOL0     H62769   3.531   3.880   4.323  1.1439 -1.7950 -1.6567
  476MOL0     H62770   3.610   4.034   4.338  2.8184 -0.4447 -1.8269
  476MOL0     H62771   3.645   3.831   4.128 -1.0589  0.6180  1.9115
  476MOL0     H62772   3.745   3.875   4.260  0.4364  0.3357  0.7145
  476MOL0     H62773   3.786   4.088   4.179 -2.6560  3.5025 -0.2855
  476MOL0     H62774   3.669   4.077   4.054  1.0124  0.1373  0.4069
  476MOL0     H62775   3.797   3.894   3.948 -0.4623  2.0218 -0.8168
  476MOL0     H62776   3.908   4.036   3.954  1.3944  0.7911  0.9743
  476MOL0     H62777   3.918   3.796   4.143  0.2944 -1.8266 -2.2466
  476MOL0     H62778   3.998   3.951   4.173  2.3898 -2.5761  1.6348
  476MOL0     H62779   4.112   3.919   3.936  3.0503 -2.3207 -1.3476
  476MOL0     H62780   4.067   3.754   3.959  1.0816  1.6649 -3.5132
  476MOL0     H62781   4.227   3.919   4.161  0.4776 -0.2487  0.7973
  476MOL0     H62782   4.175   3.748   4.176  0.5901 -0.0083 -0.4542
  476MOL0     H62783   4.351   3.834   3.947 -0.0948  0.3975  0.5962
  476MOL0     H62784   4.299   3.673   4.004 -2.9516  0.3291 -0.2834
  476MOL0     H62785   4.484   3.893   4.274 -1.1242 -0.1580 -0.7706
  476MOL0     H62786   4.797   3.865   4.312 -0.5553  1.0193  1.6719
  476MOL0     H62787   4.817   3.683   4.344 -0.9906 -0.7125  4.3237
  476MOL0     H62788   4.592   3.829   4.480 -0.6676 -1.9348  1.9908
  476MOL0     H62789   4.753   3.821   4.542  1.3640 -2.4129  0.1457
  476MOL0     H62790   4.707   3.554   4.495  1.8647  0.4786 -0.2706
  476MOL0     H62791   4.646   3.653   4.637 -0.4631 -0.4078 -0.6365
  476MOL0     H62792   4.485   3.493   4.535 -3.0435  1.6245  2.2026
  476MOL0     H62793   4.484   3.574   4.388 -2.6512 -0.4615  0.3604
  476MOL0     H62794   4.290   3.504   4.373  1.6509  1.3956 -0.0847
  476MOL0     H62795   4.034   3.514   4.320 -3.6661  2.2228  0.9227
  476MOL0     H62796   3.574   3.580   4.403  0.2235  1.9988 -1.1223
  476MOL0     H62797   3.350   3.610   4.420 -1.6365 -0.5113  1.0806
  476MOL0     H62798   3.031   3.804   4.522  2.6299  6.8321 -0.0350
  476MOL0     H62799   3.138   3.661   4.479  0.8648  1.1334 -0.1045
  476MOL0     H62800   3.234   3.805   4.297  1.2918  0.3300  0.4484
  476MOL0     H62801   3.124   3.930   4.351 -0.2425 -0.9880 -0.9557
  476MOL0     H62802   2.937   3.828   4.294  0.5194 -0.0296 -0.5088
  476MOL0     H62803   3.000   3.657   4.279  4.1183 -0.5378 -1.1125
  476MOL0     H62804   2.997   3.897   4.107 -0.8736 -0.3470 -0.6427
  476MOL0     H62805   3.134   3.777   4.082  0.0583 -0.9878  0.0370
  476MOL0     H62806   2.839   3.705   4.073  0.2219 -1.3929  0.1811
  476MOL0     H62807   2.980   3.599   4.036 -3.1551 -1.9102 -3.9712
  476MOL0     H62808   3.020   3.760   3.847 -0.1789 -0.3039  1.3472
  476MOL0     H62809   2.866   3.839   3.878  1.4389  0.9331 -1.6513
  476MOL0     H62810   2.916   3.547   3.807  0.6868  1.2276 -1.6466
  476MOL0     H62811   2.763   3.608   3.896 -0.1016  0.3580 -0.3493
  476MOL0     H62812   2.866   3.629   3.615 -0.6719 -1.0674  0.8892
  476MOL0     H62813   2.763   3.766   3.678 -1.8303 -0.3167 -0.5365
  476MOL0     H62814   3.394   3.938   4.693  0.4752 -0.6649  0.8733
  476MOL0     H62815   3.660   3.906   4.665  0.1662  0.7318 -0.1700
  476MOL0     H62816   3.987   3.822   4.597  0.9138 -1.2912  3.3719
  476MOL0     H62817   4.233   3.806   4.668 -1.1750 -0.1082  0.9972
  476MOL0     H62818   3.396   4.082   4.451 -3.0416 -0.8088  3.1723
  476MOL0     H62819   3.217   4.192   4.519  1.9494  1.8156 -0.8051
  476MOL0     H62820   2.894   4.510   4.432 -1.4559  2.0756 -1.2587
  476MOL0     H62821   2.710   4.655   4.507 -2.0712  1.1204  1.1680
  476MOL0     H62822   2.557   4.595   4.687 -1.0016  1.0090  1.7421
  476MOL0     H62823   2.389   4.566   4.708 -1.3473  2.2097  0.0476
  476MOL0     H62824   2.454   4.802   4.538  1.3840  1.8385  0.5484
  476MOL0     H62825   2.314   4.771   4.649 -0.4712 -0.0661 -0.8534
  476MOL0     H62826   2.598   4.831   4.713 -0.4093 -0.1879 -2.1946
  476MOL0     H62827   2.463   4.799   4.834  0.0241 -0.0933 -0.1745
  476MOL0     H62828   2.541   5.034   4.659  1.5647 -1.7100  1.2796
  476MOL0     H62829   2.357   5.010   4.683  0.2995  3.0739 -1.3745
  476MOL0     H62830   2.429   5.211   5.013  1.2955  0.3151 -0.7245
  476MOL0     H62831   2.449   4.328   4.434  2.1648 -1.3495 -3.5435
  476MOL0     H62832   2.640   4.176   4.374 -2.6585  1.4430 -1.6237
  477MOL0     O62833   8.319   0.498   4.852 -1.2237 -1.0529  0.0350
  477MOL0     C62834   8.443   0.494   4.858  0.0351  0.2140  0.2034
  477MOL0     O62835   8.507   0.429   4.959  0.2418  0.0204 -0.0288
  477MOL0     C62836   8.447   0.349   5.051 -0.1282 -0.7429 -0.1500
  477MOL0     C62837   8.347   0.262   5.017 -0.3612 -0.8545 -0.8304
  477MOL0     C62838   8.297   0.168   5.105 -0.4612 -0.3614 -0.1832
  477MOL0     C62839   8.354   0.153   5.236  0.3552  0.2083 -0.1821
  477MOL0     O62840   8.318   0.058   5.330  0.6928 -0.0103  0.5750
  477MOL0     C62841   8.334  -0.074   5.279 -0.7471 -0.4638  0.0800
  477MOL0     C62842   8.293  -0.156   5.406 -0.1649 -0.0910  0.9196
  477MOL0     C62843   8.142  -0.153   5.436  0.2858  0.0639 -0.0684
  477MOL0     C62844   8.117  -0.215   5.572 -0.5354  0.5540 -0.3289
  477MOL0     C62845   7.968  -0.251   5.596 -0.0711  0.1184  0.0057
  477MOL0     C62846   7.868  -0.145   5.579 -0.3615  0.6138 -0.0436
  477MOL0     C62847   7.729  -0.200   5.563 -0.4186 -0.7397 -1.3306
  477MOL0     C62848   7.627  -0.078   5.544  0.3830  0.0206  0.2725
  477MOL0     N62849   7.645   0.010   5.423  0.5763 -0.1203 -0.8684
  477MOL0     C62850   7.634   0.143   5.401  0.4507 -0.0123  0.3810
  477MOL0     C62851   7.643   0.158   5.267 -0.4040  0.3841 -0.2633
  477MOL0     C62852   7.654   0.296   5.199 -0.5270  0.5999 -0.4175
  477MOL0     C62853   7.534   0.311   5.099  1.2696 -0.4580 -0.7779
  477MOL0     C62854   7.402   0.328   5.187 -0.5668  0.6141  0.1003
  477MOL0     C62855   7.303   0.392   5.114  0.9019  0.1626  0.4569
  477MOL0     O62856   7.240   0.297   5.031  0.1435 -0.6470  0.3476
  477MOL0     C62857   7.098   0.314   5.022 -0.6533 -0.1071  0.0919
  477MOL0     C62858   7.043   0.348   4.903  0.0846 -0.1653 -0.0184
  477MOL0     C62859   6.904   0.364   4.893  0.4973  0.1172  0.2739
  477MOL0     C62860   6.816   0.340   5.004 -0.4516 -0.9441  0.6027
  477MOL0     C62861   6.678   0.366   4.997 -0.2000  0.0249  0.4502
  477MOL0     O62862   6.642   0.460   4.898 -0.3470  0.0422 -0.0398
  477MOL0     C62863   6.512   0.508   4.889  0.1785  0.1480  0.2789
  477MOL0     C62864   6.467   0.566   4.772 -0.4203  0.8942 -0.3647
  477MOL0     C62865   6.334   0.620   4.761 -0.3990 -0.5284  0.3811
  477MOL0     C62866   6.254   0.625   4.878  0.5073  0.3166  0.1316
  477MOL0     O62867   6.138   0.690   4.894  0.0232  0.5522 -0.5629
  477MOL0     C62868   6.147   0.818   4.832 -0.7920 -0.1913  0.0225
  477MOL0     C62869   6.021   0.902   4.853  0.2083  0.4249  0.5063
  477MOL0     C62870   6.023   1.020   4.748 -0.3285  1.0210  1.1085
  477MOL0     C62871   5.901   1.127   4.789 -1.9870  0.6411  0.0273
  477MOL0     C62872   5.901   1.247   4.693 -0.8650  1.7347 -0.8270
  477MOL0     C62873   6.018   1.256   4.587  0.1271  0.0137  0.4589
  477MOL0     C62874   6.032   1.391   4.512 -0.8151  0.0782 -1.2950
  477MOL0     C62875   6.147   1.401   4.415 -0.1071 -0.5375 -0.0110
  477MOL0    Cl62876   6.306   1.371   4.486 -0.4298 -0.3489  0.2274
  477MOL0     C62877   6.307   0.577   4.994  0.2303  0.5674 -0.3019
  477MOL0     C62878   6.432   0.522   5.001 -0.6436 -0.6450  0.6800
  477MOL0     O62879   6.609   0.313   5.088 -0.6429 -0.5196  1.1436
  477MOL0     C62880   6.883   0.292   5.121 -0.9121  1.5808  0.1143
  477MOL0     C62881   7.015   0.276   5.137 -0.3057 -0.4534 -0.5881
  477MOL0     N62882   7.657   0.036   5.211  0.0308 -0.2159  0.2916
  477MOL0     N62883   7.661  -0.052   5.302 -0.2636 -0.2921 -0.2784
  477MOL0     C62884   8.444   0.258   5.278  0.2304  0.0238  0.2178
  477MOL0     C62885   8.490   0.354   5.188  0.9245  0.2376  0.0592
  477MOL0     C62886   8.531   0.569   4.763 -0.7724  0.1265 -0.6057
  477MOL0     C62887   8.672   0.574   4.766  0.0401  0.2236 -0.4748
  477MOL0     C62888   8.735   0.654   4.672  0.1369  0.0757  0.2441
  477MOL0     C62889   8.672   0.685   4.550  0.0800 -0.2012  0.4091
  477MOL0     O62890   8.753   0.733   4.445  0.8319 -0.3047  0.5213
  477MOL0     C62891   8.693   0.738   4.310 -1.0103  0.2265  0.1973
  477MOL0     C62892   8.804   0.788   4.210 -0.1190  0.6841 -0.9722
  477MOL0     C62893   8.902   0.677   4.202 -0.5876  0.7941 -1.1670
  477MOL0     C62894   9.031   0.729   4.152 -0.3017 -0.1250 -0.6074
  477MOL0     C62895   9.146   0.643   4.149  0.8984  0.2124 -0.6602
  477MOL0     C62896   9.242   0.565   4.137  0.1843  0.4370 -0.2277
  477MOL0     C62897   8.530   0.684   4.546  0.6038  0.0197 -0.4178
  477MOL0     C62898   8.462   0.622   4.653 -0.1200  0.4265  0.3000
  477MOL0     H62899   8.305   0.265   4.917  0.3167 -0.5998 -1.1198
  477MOL0     H62900   8.220   0.101   5.068 -0.9939 -1.3668  2.5481
  477MOL0     H62901   8.438  -0.093   5.250 -0.5720 -0.4823  0.7203
  477MOL0     H62902   8.264  -0.108   5.202 -1.3903 -1.0897  0.9318
  477MOL0     H62903   8.337  -0.119   5.499  1.4521 -0.1267  0.2152
  477MOL0     H62904   8.305  -0.263   5.384 -1.1179  0.3851 -2.5279
  477MOL0     H62905   8.083  -0.199   5.357  1.6866  1.2438 -1.8855
  477MOL0     H62906   8.118  -0.046   5.437  2.5914  0.6423 -0.3724
  477MOL0     H62907   8.178  -0.304   5.592 -0.1004  1.4560  2.9452
  477MOL0     H62908   8.134  -0.139   5.649  1.3242  0.5438 -0.6872
  477MOL0     H62909   7.937  -0.294   5.692 -2.6995 -2.4212 -1.8186
  477MOL0     H62910   7.947  -0.329   5.523  0.2133 -1.6711  1.7518
  477MOL0     H62911   7.891  -0.096   5.483  1.1603  0.7206  0.3477
  477MOL0     H62912   7.876  -0.082   5.668 -0.3295 -2.3241  2.1663
  477MOL0     H62913   7.732  -0.274   5.482 -1.7794 -3.4051  0.9158
  477MOL0     H62914   7.710  -0.252   5.657  0.3956  2.4856  0.7867
  477MOL0     H62915   7.629  -0.024   5.639  0.8635 -1.3386  1.0699
  477MOL0     H62916   7.525  -0.113   5.532  1.3165 -2.6614 -0.4377
  477MOL0     H62917   7.620   0.228   5.468 -2.3508  0.2810 -0.4354
  477MOL0     H62918   7.742   0.293   5.135 -0.2242 -0.1596  0.0280
  477MOL0     H62919   7.667   0.379   5.270  0.3670  0.2230 -0.1180
  477MOL0     H62920   7.528   0.229   5.028  4.1395 -2.3857  1.0091
  477MOL0     H62921   7.550   0.406   5.047 -1.2780 -0.0145 -0.8579
  477MOL0     H62922   7.369   0.232   5.228  1.4692  1.1425  3.3497
  477MOL0     H62923   7.419   0.389   5.276 -1.8531  0.4248  0.4987
  477MOL0     H62924   7.345   0.472   5.053 -1.2537  0.0969 -1.2492
  477MOL0     H62925   7.238   0.434   5.191  1.8234  1.7288  0.4089
  477MOL0     H62926   7.100   0.375   4.815  0.4860  2.3489  0.9211
  477MOL0     H62927   6.864   0.402   4.798 -0.5111  0.1873  0.7089
  477MOL0     H62928   6.532   0.556   4.685  1.6097  0.8640  1.0980
  477MOL0     H62929   6.314   0.663   4.663 -0.3227 -3.7521 -1.1872
  477MOL0     H62930   6.155   0.794   4.726  1.2707 -1.8574  0.4939
  477MOL0     H62931   6.229   0.880   4.870 -0.8542 -1.0978  1.7496
  477MOL0     H62932   6.011   0.939   4.955 -1.1818 -0.6834  0.8011
  477MOL0     H62933   5.930   0.845   4.833  0.6578 -1.1732  2.7329
  477MOL0     H62934   6.032   0.990   4.643  0.2176  0.9475  1.1697
  477MOL0     H62935   6.121   1.064   4.772 -0.0071 -0.4009  2.5757
  477MOL0     H62936   5.804   1.078   4.784 -2.1833  0.6181  2.5241
  477MOL0     H62937   5.931   1.165   4.888  1.0285 -1.9382  0.2655
  477MOL0     H62938   5.907   1.339   4.751 -2.4774  0.5889  1.3348
  477MOL0     H62939   5.802   1.248   4.647 -0.9308 -0.7696 -0.9159
  477MOL0     H62940   6.015   1.163   4.530  3.2698  1.4690 -2.4239
  477MOL0     H62941   6.114   1.249   4.638  0.0853  0.4101  0.5988
  477MOL0     H62942   5.942   1.424   4.460 -1.2576  1.3188  0.1941
  477MOL0     H62943   6.055   1.464   4.590 -2.9616  2.0562 -2.4104
  477MOL0     H62944   6.151   1.506   4.385  2.3103 -0.0609  1.6712
  477MOL0     H62945   6.128   1.331   4.333  2.9722 -2.8681  1.0517
  477MOL0     H62946   6.251   0.589   5.086 -0.2653 -1.2706 -0.3266
  477MOL0     H62947   6.465   0.500   5.103 -1.7321 -0.6052  1.0570
  477MOL0     H62948   6.816   0.280   5.205 -0.2070  2.3720  0.8174
  477MOL0     H62949   7.075   0.246   5.223  1.5520  2.4640 -0.7379
  477MOL0     H62950   8.480   0.256   5.380  0.3965 -1.0169  0.1479
  477MOL0     H62951   8.556   0.433   5.223 -0.4473  1.4287  0.0717
  477MOL0     H62952   8.728   0.533   4.849 -0.2106  1.9225  0.5815
  477MOL0     H62953   8.843   0.647   4.677  0.1761 -3.0508 -2.2976
  477MOL0     H62954   8.617   0.815   4.294 -0.1154  0.7170 -2.1677
  477MOL0     H62955   8.653   0.641   4.277 -1.6179  0.5286  0.0374
  477MOL0     H62956   8.760   0.813   4.113 -0.9973 -1.3851 -1.1634
  477MOL0     H62957   8.860   0.871   4.254  4.7135 -3.5004  2.0467
  477MOL0     H62958   8.857   0.594   4.146 -1.1496 -1.3196  2.1755
  477MOL0     H62959   8.931   0.646   4.302  1.2405 -1.3161 -2.2736
  477MOL0     H62960   9.023   0.762   4.048 -0.6857 -1.4170 -1.0154
  477MOL0     H62961   9.076   0.808   4.213  3.8153 -1.8537 -1.0459
  477MOL0     H62962   9.318   0.493   4.118  1.1850  1.6121 -0.8140
  477MOL0     H62963   8.501   0.735   4.454  2.4810  0.1304 -0.9987
  477MOL0     H62964   8.355   0.617   4.636  0.4394 -1.5263 -4.3850
  478MOL0     O62965  10.144   2.692  10.646 -0.3490 -0.4526 -0.2389
  478MOL0     C62966  10.136   2.714  10.765  0.1461  0.2300  0.3581
  478MOL0     O62967  10.248   2.739  10.848 -0.7156  0.2986 -0.5020
  478MOL0     C62968  10.370   2.755  10.794 -0.6284  0.4640  0.1176
  478MOL0     C62969  10.435   2.874  10.805 -1.1009 -0.5781  0.4742
  478MOL0     C62970  10.559   2.904  10.739  0.3219  0.0546  0.8271
  478MOL0     C62971  10.616   2.806  10.664 -0.3408  0.5870 -0.4330
  478MOL0     O62972  10.739   2.845  10.624  0.2668  1.1692 -0.1521
  478MOL0     C62973  10.818   2.751  10.550  0.3879  0.6115 -0.2164
  478MOL0     C62974  10.965   2.802  10.551 -0.2862 -0.2870 -0.3158
  478MOL0     C62975  10.999   2.941  10.486  0.1099  0.2539  0.0367
  478MOL0     C62976  11.136   2.984  10.545  0.0871 -0.9366  0.6590
  478MOL0     C62977  11.197   3.094  10.447  0.3028  0.1389  0.0450
  478MOL0     C62978  11.146   3.236  10.491  0.0333  0.1068  0.4645
  478MOL0     C62979  11.212   3.341  10.407  0.8883 -0.9482  0.4567
  478MOL0     C62980  11.197   3.492  10.444 -0.0277 -0.3763 -0.7063
  478MOL0     N62981  11.312   3.539  10.522 -0.2743  0.5374  0.0283
  478MOL0     C62982  11.316   3.551  10.666 -0.5666 -1.2349  0.1466
  478MOL0     C62983  11.451   3.586  10.692  0.6901  0.0997 -0.1373
  478MOL0     C62984  11.508   3.613  10.828 -0.0287  0.1243 -0.2921
  478MOL0     C62985  11.644   3.674  10.817  1.4537  0.3578 -0.1656
  478MOL0     C62986  11.683   3.711  10.955  0.4298 -0.0125 -1.2629
  478MOL0     C62987  11.793   3.819  10.951 -0.3559  0.3518 -0.0115
  478MOL0     O62988  11.736   3.941  10.924  0.0826 -0.5873 -0.0857
  478MOL0     C62989  11.826   4.049  10.915  1.3984  0.7309 -0.3665
  478MOL0     C62990  11.776   4.179  10.921 -0.5454 -0.6610 -0.1102
  478MOL0     C62991  11.850   4.301  10.921 -0.3997  1.2941  0.1823
  478MOL0     C62992  11.986   4.294  10.905 -0.2648 -0.1631  0.8369
  478MOL0     C62993  12.074   4.411  10.910  0.1576 -0.9642 -0.5606
  478MOL0     O62994  12.007   4.537  10.919  0.4583  0.3248  0.6190
  478MOL0     C62995  12.066   4.647  10.966  0.0689 -0.2454  0.0379
  478MOL0     C62996  12.091   4.738  10.869  1.1736 -0.3178 -0.7327
  478MOL0     C62997  12.119   4.868  10.894 -0.7692  0.7598  0.4585
  478MOL0     C62998  12.146   4.905  11.021  0.1714 -1.0571 -1.0393
  478MOL0     O62999  12.162   5.042  11.040  0.0868  0.0743  0.6382
  478MOL0     C63000  12.259   5.084  11.144 -0.2386  0.9547 -1.1919
  478MOL0     C63001  12.286   5.239  11.127  0.1001  0.1934  0.1506
  478MOL0     C63002  12.153   5.312  11.111 -0.2882 -0.0867  1.0751
  478MOL0     C63003  12.191   5.472  11.080 -0.1931 -0.3057  0.7203
  478MOL0     C63004  12.196   5.512  10.932  0.4389 -0.3120 -0.1669
  478MOL0     C63005  12.229   5.661  10.927 -0.4365  0.2831  0.4402
  478MOL0     C63006  12.254   5.705  10.781  0.0188 -0.0158 -0.1056
  478MOL0     C63007  12.377   5.641  10.714 -0.1065  0.4215  0.4411
  478MOL0    Cl63008  12.394   5.724  10.549 -0.5782 -0.1492  0.0844
  478MOL0     C63009  12.117   4.810  11.127 -1.2920 -0.4673 -0.1728
  478MOL0     C63010  12.084   4.675  11.098  0.5957 -0.1625 -0.9491
  478MOL0     O63011  12.198   4.392  10.915 -0.0728  0.4078 -0.3063
  478MOL0     C63012  12.049   4.167  10.893  0.6390  0.2408  0.4323
  478MOL0     C63013  11.966   4.052  10.894 -0.5278 -0.5608  0.4389
  478MOL0     N63014  11.519   3.572  10.574  0.0836 -0.1245  0.8579
  478MOL0     N63015  11.447   3.545  10.476  1.2193  0.1056 -0.2146
  478MOL0     C63016  10.555   2.684  10.647  0.3615 -1.1244  0.1047
  478MOL0     C63017  10.427   2.661  10.710 -0.6038 -0.7650 -0.0705
  478MOL0     C63018  10.000   2.746  10.816  0.1668  0.4213 -0.0590
  478MOL0     C63019   9.979   2.798  10.941 -0.2213  0.3682 -0.0090
  478MOL0     C63020   9.852   2.831  10.993  1.2779  0.2864  0.9797
  478MOL0     C63021   9.735   2.801  10.919 -0.7762 -0.2570  0.6565
  478MOL0     O63022   9.609   2.838  10.974 -0.1298  0.4780  0.4704
  478MOL0     C63023   9.480   2.820  10.909  0.5720 -0.9827  0.1002
  478MOL0     C63024   9.381   2.779  11.018 -0.1287 -0.7270 -0.2333
  478MOL0     C63025   9.370   2.884  11.129  0.8187 -0.0820  0.6065
  478MOL0     C63026   9.273   2.835  11.238  0.7830  0.0848 -0.5092
  478MOL0     C63027   9.319   2.738  11.333  0.0940 -0.7563  0.5496
  478MOL0     C63028   9.362   2.642  11.384 -0.2022 -0.4860 -0.4296
  478MOL0     C63029   9.755   2.740  10.795 -0.5195  0.3116 -0.7134
  478MOL0     C63030   9.880   2.722  10.744  0.0573 -0.2585  1.0910
  478MOL0     H63031  10.385   2.944  10.871  0.3041 -1.4104  2.5404
  478MOL0     H63032  10.620   2.994  10.736  0.9196 -0.3512  0.6067
  478MOL0     H63033  10.784   2.750  10.446  1.4661 -0.0238 -0.5755
  478MOL0     H63034  10.815   2.646  10.581  0.0818 -0.6297 -3.9256
  478MOL0     H63035  11.030   2.730  10.501  0.9601  0.2749  0.4442
  478MOL0     H63036  10.991   2.814  10.657 -0.0343 -1.0820 -0.2809
  478MOL0     H63037  10.930   3.021  10.515  0.7616  0.9304 -0.2496
  478MOL0     H63038  10.996   2.928  10.378  0.3543  0.2280  0.0330
  478MOL0     H63039  11.129   3.027  10.646  1.2955 -1.3318  0.9203
  478MOL0     H63040  11.206   2.902  10.562 -0.0460 -1.0397  0.7100
  478MOL0     H63041  11.182   3.085  10.339  0.0120  2.2895 -0.1423
  478MOL0     H63042  11.306   3.095  10.440  0.1751 -0.2193 -3.5439
  478MOL0     H63043  11.183   3.253  10.593  3.0269  2.2448 -0.8227
  478MOL0     H63044  11.037   3.248  10.483 -0.0130  3.5617  3.6710
  478MOL0     H63045  11.321   3.330  10.402  0.6581 -3.3856 -3.8267
  478MOL0     H63046  11.176   3.331  10.305  3.4533 -0.0199 -0.6439
  478MOL0     H63047  11.095   3.517  10.475  0.2697  1.2564 -0.9275
  478MOL0     H63048  11.212   3.553  10.354  4.2600 -1.6525 -1.0782
  478MOL0     H63049  11.235   3.538  10.736 -0.4765  0.3856  0.5961
  478MOL0     H63050  11.513   3.518  10.883  1.4125 -0.1771 -0.9029
  478MOL0     H63051  11.438   3.674  10.886 -0.4556 -1.0361  0.4695
  478MOL0     H63052  11.643   3.754  10.742 -0.3175 -0.5464 -1.1509
  478MOL0     H63053  11.718   3.598  10.788  1.1111  0.3541 -1.0811
  478MOL0     H63054  11.599   3.740  11.018  0.2801  1.3986 -2.0732
  478MOL0     H63055  11.733   3.623  10.996 -1.4521  0.0798  1.4285
  478MOL0     H63056  11.876   3.798  10.883 -0.1896  1.1019 -0.0529
  478MOL0     H63057  11.843   3.828  11.048 -0.4341 -1.5349  0.2419
  478MOL0     H63058  11.669   4.188  10.931 -0.4409 -0.9309  1.6898
  478MOL0     H63059  11.809   4.394  10.958  0.2324  0.8952  2.0420
  478MOL0     H63060  12.076   4.712  10.765 -0.1705  0.0728 -0.6547
  478MOL0     H63061  12.122   4.942  10.814 -2.4644 -0.5271 -0.8819
  478MOL0     H63062  12.354   5.033  11.122  1.7006  4.1732 -0.8888
  478MOL0     H63063  12.225   5.054  11.243  0.4694  0.3914 -1.1059
  478MOL0     H63064  12.344   5.253  11.036  0.5538 -0.2387  0.3718
  478MOL0     H63065  12.347   5.283  11.206 -2.3484  1.1985  1.6009
  478MOL0     H63066  12.109   5.311  11.211 -1.7720  1.9464  0.5122
  478MOL0     H63067  12.078   5.278  11.039  0.3103  1.2624 -0.2367
  478MOL0     H63068  12.120   5.533  11.136 -0.2721 -2.0085  2.6124
  478MOL0     H63069  12.295   5.495  11.107 -0.8004  1.2202  1.8704
  478MOL0     H63070  12.098   5.489  10.890 -0.2303 -0.3807  1.3654
  478MOL0     H63071  12.270   5.447  10.884 -0.3265 -3.1554  2.2424
  478MOL0     H63072  12.320   5.681  10.984  1.9815  1.0120 -3.2894
  478MOL0     H63073  12.147   5.721  10.967 -0.3736  0.6170  0.0741
  478MOL0     H63074  12.168   5.703  10.713 -2.6467 -1.1055  3.0791
  478MOL0     H63075  12.268   5.813  10.794 -1.1051  0.0463  0.6736
  478MOL0     H63076  12.355   5.534  10.708  1.6676  0.0763 -0.3653
  478MOL0     H63077  12.470   5.648  10.771 -0.0629 -0.4595  0.4916
  478MOL0     H63078  12.132   4.842  11.230  1.5077  0.6254 -0.8155
  478MOL0     H63079  12.066   4.602  11.176  3.4289 -5.0842 -4.3367
  478MOL0     H63080  12.156   4.159  10.881  1.0718  2.4489  2.1382
  478MOL0     H63081  12.024   3.960  10.893  2.6655  1.3201  0.6616
  478MOL0     H63082  10.591   2.608  10.577  3.0649  1.1971 -1.2331
  478MOL0     H63083  10.367   2.571  10.703 -1.6554 -0.5490  3.7756
  478MOL0     H63084  10.063   2.815  11.008  3.1655 -2.4450 -3.1076
  478MOL0     H63085   9.846   2.873  11.093  0.8789  1.0618  0.6382
  478MOL0     H63086   9.486   2.743  10.832  1.4664  0.5531 -1.4282
  478MOL0     H63087   9.450   2.921  10.878  0.0630 -0.4549  2.1474
  478MOL0     H63088   9.287   2.778  10.963 -1.2970  1.2774  1.5628
  478MOL0     H63089   9.412   2.679  11.050  3.5954 -0.4461 -2.3331
  478MOL0     H63090   9.331   2.975  11.083  0.4700 -1.9312 -3.0565
  478MOL0     H63091   9.467   2.904  11.176  1.2357  0.2070 -0.3579
  478MOL0     H63092   9.251   2.927  11.293  0.8237 -1.3385  2.0640
  478MOL0     H63093   9.187   2.809  11.176  0.8425  1.7319 -1.3666
  478MOL0     H63094   9.377   2.543  11.422 -1.2901 -0.6839 -0.4820
  478MOL0     H63095   9.673   2.703  10.734 -3.8887  2.3956  2.1584
  478MOL0     H63096   9.887   2.685  10.643  0.7657  0.3832  0.8892
  479MOL0     O63097   4.922   5.242   0.445  0.1407  0.5120  0.1742
  479MOL0     C63098   4.977   5.203   0.337  0.7471 -0.1677 -0.7134
  479MOL0     O63099   5.107   5.219   0.296 -0.1643  0.0287  0.2180
  479MOL0     C63100   5.210   5.244   0.392 -0.2990  0.1928  0.8253
  479MOL0     C63101   5.307   5.146   0.410 -1.2922 -0.2331  0.5845
  479MOL0     C63102   5.413   5.171   0.495 -0.5602 -1.1482  0.1813
  479MOL0     C63103   5.423   5.296   0.568  0.0373  1.3882  0.2824
  479MOL0     O63104   5.536   5.314   0.644 -0.1230 -0.1020 -0.8719
  479MOL0     C63105   5.599   5.440   0.655 -0.0029  0.5741  1.1932
  479MOL0     C63106   5.738   5.410   0.703  0.7255 -0.1695 -0.1563
  479MOL0     C63107   5.834   5.360   0.593  0.9275  0.6154 -0.3636
  479MOL0     C63108   5.984   5.369   0.643  0.4025 -0.9649 -0.4570
  479MOL0     C63109   6.106   5.320   0.559  0.2181 -0.4675 -1.2046
  479MOL0     C63110   6.102   5.175   0.552 -0.8904  0.1913  0.2569
  479MOL0     C63111   6.224   5.121   0.462  0.0824  0.4402  0.1951
  479MOL0     C63112   6.362   5.154   0.521 -0.5429  0.4789  0.4087
  479MOL0     N63113   6.415   5.287   0.480  0.2801 -0.6612 -0.2234
  479MOL0     C63114   6.414   5.340   0.353 -0.1164  0.4322 -0.3176
  479MOL0     C63115   6.454   5.466   0.369  0.4324  0.3311 -0.2765
  479MOL0     C63116   6.478   5.579   0.271 -0.0377  0.8024  1.0200
  479MOL0     C63117   6.390   5.693   0.281 -0.5576 -0.4479 -0.2149
  479MOL0     C63118   6.438   5.802   0.188  0.9489  0.0277 -0.8276
  479MOL0     C63119   6.417   5.767   0.038  0.1036  0.1297  0.1530
  479MOL0     O63120   6.277   5.740   0.009 -0.7765 -0.5949  0.4406
  479MOL0     C63121   6.182   5.832   0.026 -0.5554 -0.9161  0.2360
  479MOL0     C63122   6.212   5.967   0.044 -0.3573 -0.2342 -0.4095
  479MOL0     C63123   6.107   6.056   0.081  0.1021 -0.7782  0.5877
  479MOL0     C63124   5.967   6.024   0.075 -0.8399 -1.0246  0.0283
  479MOL0     C63125   5.864   6.117   0.118  0.4853  0.0819 -0.1906
  479MOL0     O63126   5.730   6.090   0.074 -0.0860 -0.4709 -0.3439
  479MOL0     C63127   5.622   6.146   0.130 -0.8726 -0.3576  0.6930
  479MOL0     C63128   5.509   6.064   0.111 -0.5293 -0.3330  0.3162
  479MOL0     C63129   5.384   6.120   0.145  0.4724 -0.2816  0.0594
  479MOL0     C63130   5.364   6.252   0.191 -0.7648 -0.6302  0.1035
  479MOL0     O63131   5.244   6.318   0.207 -0.0240  0.9315  0.3504
  479MOL0     C63132   5.115   6.249   0.176  0.5458 -0.1820  1.0029
  479MOL0     C63133   5.057   6.194   0.304  0.6581 -0.8301  0.1011
  479MOL0     C63134   5.087   6.286   0.433  0.6636  0.0072 -0.6088
  479MOL0     C63135   4.998   6.226   0.546 -0.3603 -0.0819 -0.3109
  479MOL0     C63136   4.969   6.333   0.658 -0.4292  0.2416 -0.0046
  479MOL0     C63137   5.097   6.388   0.723  0.7949 -0.9294 -0.1138
  479MOL0     C63138   5.064   6.467   0.867  0.6421 -0.0185  0.9020
  479MOL0     C63139   5.163   6.585   0.902  0.3584 -0.4738  0.7970
  479MOL0    Cl63140   5.316   6.513   0.868 -0.4274  0.0181 -0.5645
  479MOL0     C63141   5.482   6.330   0.197  1.2343  0.3636  0.5631
  479MOL0     C63142   5.610   6.275   0.175 -0.1072 -0.7406  0.0890
  479MOL0     O63143   5.900   6.210   0.190  0.2420  0.1317  0.4315
  479MOL0     C63144   5.945   5.887   0.029 -0.1272 -1.2250 -0.3426
  479MOL0     C63145   6.048   5.798   0.013  0.8844  0.1041  0.7267
  479MOL0     N63146   6.473   5.489   0.502 -0.0390  0.0090 -0.4714
  479MOL0     N63147   6.451   5.377   0.570  0.3226  0.1332  0.5547
  479MOL0     C63148   5.315   5.375   0.566 -0.8151  0.0169  0.2937
  479MOL0     C63149   5.210   5.360   0.473  0.0263 -0.9080 -0.1719
  479MOL0     C63150   4.868   5.141   0.254 -0.9502 -0.2864 -0.5703
  479MOL0     C63151   4.913   5.063   0.145 -0.1041 -0.3839  0.0508
  479MOL0     C63152   4.826   5.014   0.049  0.1762  0.0121  0.2711
  479MOL0     C63153   4.691   5.030   0.067 -0.5282 -0.2957 -0.1351
  479MOL0     O63154   4.589   4.991  -0.026 -0.0830  0.5434 -0.5669
  479MOL0     C63155   4.621   4.894  -0.126  0.2379  0.3126  0.4669
  479MOL0     C63156   4.665   4.752  -0.064 -0.2564  0.1165 -0.5751
  479MOL0     C63157   4.663   4.641  -0.165 -0.4710  0.3027  0.4949
  479MOL0     C63158   4.799   4.565  -0.168  0.9392  0.4103 -0.1834
  479MOL0     C63159   4.910   4.658  -0.202 -0.1783  0.2561  0.2393
  479MOL0     C63160   5.004   4.729  -0.198 -0.3922  0.1397 -0.1003
  479MOL0     C63161   4.645   5.102   0.177  0.4809 -0.3639 -0.0068
  479MOL0     C63162   4.732   5.150   0.278 -0.3710 -0.7533  0.8377
  479MOL0     H63163   5.304   5.054   0.352  1.5467 -0.2652  0.3382
  479MOL0     H63164   5.497   5.103   0.506 -0.3378 -0.7493  1.1182
  479MOL0     H63165   5.538   5.507   0.715  1.6048  2.9172  0.3622
  479MOL0     H63166   5.604   5.464   0.549  3.1153 -1.3044  0.7645
  479MOL0     H63167   5.731   5.333   0.780  2.7132 -1.9816 -1.6675
  479MOL0     H63168   5.778   5.504   0.741 -0.0082  0.2173 -0.3284
  479MOL0     H63169   5.830   5.399   0.491  1.7360 -1.6981 -1.3480
  479MOL0     H63170   5.808   5.255   0.578  0.1930  0.6631  0.4540
  479MOL0     H63171   5.989   5.478   0.655 -1.6546 -0.4735 -3.1461
  479MOL0     H63172   5.997   5.330   0.744 -0.3055 -1.3919 -0.5210
  479MOL0     H63173   6.194   5.372   0.598 -1.5358  2.5450 -0.9805
  479MOL0     H63174   6.102   5.352   0.455  1.0584  2.0981 -0.5054
  479MOL0     H63175   6.004   5.147   0.512 -1.8314  1.1905  1.7698
  479MOL0     H63176   6.106   5.143   0.656 -1.4180  2.6590  1.0829
  479MOL0     H63177   6.227   5.012   0.454 -0.9664  0.1888  2.4200
  479MOL0     H63178   6.218   5.153   0.357  0.7664 -0.9176 -0.2860
  479MOL0     H63179   6.445   5.096   0.481  0.9576 -0.5207  4.5084
  479MOL0     H63180   6.360   5.128   0.627 -3.6088 -0.1592  0.2840
  479MOL0     H63181   6.385   5.287   0.262  0.3435  1.0164 -0.8134
  479MOL0     H63182   6.481   5.528   0.174  6.0705 -1.0392  1.7776
  479MOL0     H63183   6.579   5.620   0.273 -0.6931  2.8162 -1.1829
  479MOL0     H63184   6.372   5.728   0.383  4.0397  1.9289  0.0363
  479MOL0     H63185   6.292   5.663   0.245 -0.4409  0.7870 -1.6805
  479MOL0     H63186   6.399   5.899   0.220  0.4064  0.5422 -2.9336
  479MOL0     H63187   6.547   5.807   0.189  1.3252 -3.8488 -3.0181
  479MOL0     H63188   6.482   5.680   0.025  1.0843  0.9050 -0.2738
  479MOL0     H63189   6.461   5.841  -0.029  2.4029  0.4892  1.9641
  479MOL0     H63190   6.314   6.003   0.032 -1.1646  2.0091 -1.0179
  479MOL0     H63191   6.119   6.159   0.114 -4.1551 -0.4498  1.5717
  479MOL0     H63192   5.510   5.964   0.070 -1.4482 -0.9747  1.7763
  479MOL0     H63193   5.298   6.058   0.120  0.9597 -0.5519 -1.0067
  479MOL0     H63194   5.109   6.168   0.103 -1.0352  0.3354  0.5249
  479MOL0     H63195   5.041   6.324   0.147  1.8477  1.6662  2.2317
  479MOL0     H63196   5.082   6.090   0.324 -1.3711 -0.7576  4.1143
  479MOL0     H63197   4.947   6.194   0.309  0.6568  1.6726  1.7343
  479MOL0     H63198   5.048   6.386   0.415  2.1016  0.2514 -2.7105
  479MOL0     H63199   5.193   6.290   0.459  0.4981 -3.0569  1.0470
  479MOL0     H63200   4.905   6.183   0.508 -0.1578  0.1140 -1.0359
  479MOL0     H63201   5.050   6.137   0.584 -2.4466 -0.7777  1.0577
  479MOL0     H63202   4.912   6.289   0.741 -1.8838  1.1909 -0.4532
  479MOL0     H63203   4.896   6.402   0.615 -2.9702 -1.6421  1.0078
  479MOL0     H63204   5.158   6.452   0.659 -1.0032 -0.6106 -1.5716
  479MOL0     H63205   5.168   6.308   0.745  0.4259 -1.0184  0.8196
  479MOL0     H63206   4.957   6.488   0.860  1.3203  3.2711 -3.1790
  479MOL0     H63207   5.072   6.394   0.949 -0.8661 -1.2431  0.0227
  479MOL0     H63208   5.156   6.627   1.003 -1.1502  6.1225 -1.5703
  479MOL0     H63209   5.142   6.668   0.834  1.8685 -0.8211 -0.1490
  479MOL0     H63210   5.466   6.430   0.235  1.6402 -0.0487  1.8814
  479MOL0     H63211   5.694   6.342   0.184 -2.5703  2.4739  0.7728
  479MOL0     H63212   5.842   5.855   0.023 -1.8762  2.0581  5.0734
  479MOL0     H63213   6.023   5.699  -0.025 -3.2804  0.4952  1.9603
  479MOL0     H63214   5.308   5.463   0.630 -2.9521  0.5053 -0.5350
  479MOL0     H63215   5.128   5.432   0.469 -0.1804 -1.1791 -1.1052
  479MOL0     H63216   5.018   5.046   0.122 -0.8813 -0.4542 -4.3258
  479MOL0     H63217   4.862   4.962  -0.039 -1.3304 -0.4464 -0.1071
  479MOL0     H63218   4.706   4.922  -0.189  0.6957 -3.2025 -0.6869
  479MOL0     H63219   4.521   4.885  -0.170  0.2037  0.9020  0.4168
  479MOL0     H63220   4.767   4.760  -0.026 -0.4390 -3.9407  1.2296
  479MOL0     H63221   4.609   4.722   0.024 -0.2574 -1.9301 -1.2372
  479MOL0     H63222   4.655   4.681  -0.267  1.3251  1.3424  0.7187
  479MOL0     H63223   4.581   4.573  -0.138 -1.5540  0.9057 -1.0641
  479MOL0     H63224   4.818   4.526  -0.067 -2.7570  1.9468  1.3361
  479MOL0     H63225   4.817   4.488  -0.243  0.5138 -0.9735  1.0796
  479MOL0     H63226   5.093   4.785  -0.182 -0.2096 -0.4726  1.1446
  479MOL0     H63227   4.539   5.122   0.172  0.5736 -0.2652 -2.5296
  479MOL0     H63228   4.701   5.203   0.368 -1.9248  1.2109 -0.7674
  480MOL0     O63229   4.804   3.121   0.943 -0.4991 -0.0115  0.2536
  480MOL0     C63230   4.704   3.109   0.873  0.6311  0.4267 -0.0619
  480MOL0     O63231   4.586   3.045   0.904 -0.3294 -0.1741 -0.3864
  480MOL0     C63232   4.569   3.010   1.035 -0.0144  0.0885  0.0310
  480MOL0     C63233   4.482   2.895   1.066  1.4122 -0.3031 -0.6509
  480MOL0     C63234   4.449   2.873   1.198 -0.0886 -0.4159 -0.5819
  480MOL0     C63235   4.503   2.949   1.301 -0.1289  0.0260 -0.2683
  480MOL0     O63236   4.453   2.915   1.426  0.4243 -0.0600  0.5999
  480MOL0     C63237   4.552   2.914   1.538  0.2687  0.1668  0.1626
  480MOL0     C63238   4.629   2.783   1.528  0.3905 -0.1981 -0.5065
  480MOL0     C63239   4.549   2.651   1.520  0.6650 -0.4539 -0.0967
  480MOL0     C63240   4.448   2.625   1.636 -0.0049 -0.1394  0.9052
  480MOL0     C63241   4.357   2.499   1.621 -0.2876  0.8909 -0.3267
  480MOL0     C63242   4.264   2.477   1.739 -0.1768 -0.0580  0.3750
  480MOL0     C63243   4.185   2.361   1.719 -0.0078  0.2416  1.0854
  480MOL0     C63244   4.087   2.334   1.824  0.8481  0.1738  0.3328
  480MOL0     N63245   4.146   2.307   1.953  0.5682  0.1689  0.1718
  480MOL0     C63246   4.133   2.386   2.065  0.1273 -0.3689 -0.2568
  480MOL0     C63247   4.190   2.309   2.165  1.1219  0.2714  0.3730
  480MOL0     C63248   4.193   2.359   2.308  0.0666  0.1374  0.3928
  480MOL0     C63249   4.135   2.243   2.401  0.1423 -0.0709  0.0467
  480MOL0     C63250   4.140   2.288   2.547 -0.0489 -0.5108 -0.7758
  480MOL0     C63251   4.086   2.184   2.646  0.6212  0.1029  0.4814
  480MOL0     O63252   3.948   2.144   2.646  0.5829  0.3825 -0.5312
  480MOL0     C63253   3.866   2.201   2.741 -0.7638  0.2673 -0.4895
  480MOL0     C63254   3.912   2.271   2.860 -0.7187  0.8137  0.2257
  480MOL0     C63255   3.820   2.306   2.957 -0.0064  0.6707 -0.6225
  480MOL0     C63256   3.681   2.275   2.951  0.6473  0.9635 -0.0014
  480MOL0     C63257   3.591   2.326   3.058  0.1530  0.1082 -0.2638
  480MOL0     O63258   3.462   2.287   3.057 -0.2143  0.2556  0.1767
  480MOL0     C63259   3.400   2.285   3.183 -0.4377 -0.4160  0.2973
  480MOL0     C63260   3.319   2.395   3.217 -0.0222  0.2472 -0.0238
  480MOL0     C63261   3.286   2.414   3.351  0.4946  0.4202  0.3525
  480MOL0     C63262   3.312   2.313   3.440  0.1502 -0.0107 -0.0540
  480MOL0     O63263   3.254   2.326   3.561  0.3241 -0.1040 -1.0361
  480MOL0     C63264   3.291   2.244   3.672  0.9653  0.3917 -0.2384
  480MOL0     C63265   3.217   2.301   3.791  0.9099  1.1853  0.4251
  480MOL0     C63266   3.272   2.426   3.851 -0.0340  0.0300 -0.3335
  480MOL0     C63267   3.402   2.402   3.928 -0.3581 -0.1674 -1.0394
  480MOL0     C63268   3.446   2.500   4.031  0.2739 -0.4278  0.1657
  480MOL0     C63269   3.515   2.619   3.974 -0.7691  0.2217 -0.3278
  480MOL0     C63270   3.604   2.685   4.076 -0.4448  0.2201 -0.6461
  480MOL0     C63271   3.660   2.820   4.032 -0.1733 -0.1278  0.0935
  480MOL0    Cl63272   3.765   2.871   4.165 -0.2022 -0.0919  0.0947
  480MOL0     C63273   3.375   2.200   3.397  0.4359 -0.5891  0.3743
  480MOL0     C63274   3.432   2.195   3.272  0.2464  0.6826  0.1079
  480MOL0     O63275   3.642   2.389   3.149 -0.0477 -0.4703  0.1799
  480MOL0     C63276   3.636   2.219   2.827  0.1563  0.4194 -0.1850
  480MOL0     C63277   3.728   2.180   2.729 -0.0899 -0.1950 -0.2181
  480MOL0     N63278   4.238   2.191   2.124 -0.3078  0.1561  0.2813
  480MOL0     N63279   4.215   2.195   1.995  0.0333 -0.1753 -0.1817
  480MOL0     C63280   4.585   3.053   1.277  0.0851 -1.0254 -0.0177
  480MOL0     C63281   4.615   3.087   1.145 -0.0957 -0.6091 -0.1209
  480MOL0     C63282   4.712   3.171   0.745  0.7427 -0.8323  0.4216
  480MOL0     C63283   4.631   3.139   0.636  0.2421 -0.1190  0.6367
  480MOL0     C63284   4.654   3.189   0.500 -0.6051 -0.5146 -0.8756
  480MOL0     C63285   4.748   3.286   0.479 -0.2070 -0.3414  0.1346
  480MOL0     O63286   4.766   3.341   0.356 -0.0537 -0.7645 -0.2838
  480MOL0     C63287   4.868   3.297   0.267 -0.4354 -0.0358  0.1620
  480MOL0     C63288   4.799   3.301   0.135 -0.6177  0.0352  0.4461
  480MOL0     C63289   4.861   3.229   0.013 -0.7424  0.0044 -0.4122
  480MOL0     C63290   5.010   3.260  -0.014  0.0682  0.0541 -0.2247
  480MOL0     C63291   5.083   3.135   0.014  0.3240  0.0194 -0.1809
  480MOL0     C63292   5.148   3.037   0.039  0.1730 -0.2822 -0.7966
  480MOL0     C63293   4.829   3.314   0.595 -1.8678  0.0355 -0.4623
  480MOL0     C63294   4.814   3.264   0.723  0.1405  0.2978 -0.5741
  480MOL0     H63295   4.432   2.845   0.983 -4.2247 -1.1295  2.7090
  480MOL0     H63296   4.373   2.803   1.231 -2.0805  3.1953  3.5359
  480MOL0     H63297   4.496   2.931   1.630  2.6633  0.2713  1.7080
  480MOL0     H63298   4.621   2.999   1.536  1.4657 -0.7632 -2.7262
  480MOL0     H63299   4.678   2.774   1.626  0.7033 -1.7943 -0.7910
  480MOL0     H63300   4.721   2.783   1.468  0.2415 -0.9756 -0.7443
  480MOL0     H63301   4.623   2.571   1.519 -0.2505 -1.3384  0.2638
  480MOL0     H63302   4.499   2.653   1.423 -0.9758  0.0213  0.7028
  480MOL0     H63303   4.514   2.618   1.723  1.4744 -2.6332 -0.3140
  480MOL0     H63304   4.373   2.704   1.650  1.1073  0.7721  2.0223
  480MOL0     H63305   4.418   2.408   1.627 -0.1397  0.8268 -2.1450
  480MOL0     H63306   4.299   2.491   1.528 -0.2097  0.3189 -0.3292
  480MOL0     H63307   4.198   2.561   1.761 -1.6848 -1.4292  1.3675
  480MOL0     H63308   4.335   2.469   1.822  1.9968  0.7609 -1.2887
  480MOL0     H63309   4.132   2.372   1.625  0.4806  2.1244  0.9830
  480MOL0     H63310   4.248   2.272   1.712 -1.6842 -0.8399 -3.1607
  480MOL0     H63311   4.048   2.242   1.780  1.6627  0.7142 -1.6188
  480MOL0     H63312   4.012   2.413   1.824  2.0232  1.3496 -1.0514
  480MOL0     H63313   4.074   2.476   2.079 -0.3598 -0.8247  0.7544
  480MOL0     H63314   4.139   2.454   2.312  1.6029  1.0699 -0.0621
  480MOL0     H63315   4.296   2.382   2.338 -0.4564  0.0201  2.3547
  480MOL0     H63316   4.196   2.155   2.383 -0.8840 -0.7718 -0.0906
  480MOL0     H63317   4.028   2.240   2.380 -0.0281 -0.8251  0.9634
  480MOL0     H63318   4.244   2.299   2.579  0.2530 -1.4067 -1.4050
  480MOL0     H63319   4.088   2.384   2.555  0.3114 -0.4028  0.4504
  480MOL0     H63320   4.111   2.205   2.750  1.2624  0.7915  0.1881
  480MOL0     H63321   4.133   2.087   2.627 -1.6760 -1.3033  1.5843
  480MOL0     H63322   4.014   2.295   2.889 -0.9243 -0.2130  1.9382
  480MOL0     H63323   3.845   2.370   3.042 -1.6690 -0.9085  1.1654
  480MOL0     H63324   3.293   2.469   3.141 -1.8289  1.6657  1.8622
  480MOL0     H63325   3.233   2.506   3.376 -1.6067 -0.2226 -1.4442
  480MOL0     H63326   3.398   2.226   3.682  0.8633  0.3860  0.9145
  480MOL0     H63327   3.252   2.142   3.660 -1.3260  0.4631  4.4410
  480MOL0     H63328   3.210   2.222   3.867  1.9662  0.0378 -0.6278
  480MOL0     H63329   3.113   2.310   3.759  1.0746 -0.3595 -0.6711
  480MOL0     H63330   3.196   2.464   3.920 -1.9796  0.4232 -2.5608
  480MOL0     H63331   3.273   2.504   3.774  0.6349 -1.1643 -1.5686
  480MOL0     H63332   3.396   2.305   3.978 -0.2796  1.8380  3.2455
  480MOL0     H63333   3.482   2.406   3.853  0.8356  2.4480  0.2552
  480MOL0     H63334   3.521   2.445   4.090  0.1849 -0.0183  0.6664
  480MOL0     H63335   3.372   2.517   4.110  0.9249 -0.9712  0.9102
  480MOL0     H63336   3.440   2.689   3.935 -0.5402  0.2557 -0.7242
  480MOL0     H63337   3.580   2.600   3.888 -1.2748 -0.2715 -0.6033
  480MOL0     H63338   3.540   2.716   4.160 -0.1530 -1.3990  0.1996
  480MOL0     H63339   3.673   2.612   4.120 -1.9645  1.3303  4.2236
  480MOL0     H63340   3.585   2.895   4.007  1.8747  1.5339 -1.4709
  480MOL0     H63341   3.717   2.812   3.939  3.2356 -0.3269  2.0335
  480MOL0     H63342   3.397   2.125   3.473 -1.6204  0.9053  2.6010
  480MOL0     H63343   3.488   2.106   3.245  0.6915  0.0108  2.9051
  480MOL0     H63344   3.529   2.205   2.811  0.4752 -0.4133 -1.8586
  480MOL0     H63345   3.707   2.132   2.634  1.4964 -1.3128 -0.0464
  480MOL0     H63346   4.618   3.117   1.359  0.8764 -0.7500 -0.5274
  480MOL0     H63347   4.679   3.173   1.128 -1.8967  1.0063  0.8156
  480MOL0     H63348   4.558   3.059   0.647 -0.2234  0.2396  0.1552
  480MOL0     H63349   4.580   3.169   0.423 -2.7148 -4.1409  1.7683
  480MOL0     H63350   4.908   3.201   0.298  1.9787  0.7669 -0.2349
  480MOL0     H63351   4.949   3.370   0.270  0.8553 -1.3259 -1.4401
  480MOL0     H63352   4.698   3.259   0.148 -0.1989 -1.7251 -1.3784
  480MOL0     H63353   4.789   3.408   0.114 -1.0835 -0.1489 -0.3468
  480MOL0     H63354   4.813   3.284  -0.069  1.3282  4.2183  0.9128
  480MOL0     H63355   4.820   3.128   0.008 -2.2662  0.6493 -3.9301
  480MOL0     H63356   5.027   3.299  -0.115  1.2845 -0.9669 -0.4281
  480MOL0     H63357   5.050   3.336   0.054 -0.5570  1.4976 -1.4076
  480MOL0     H63358   5.196   2.944   0.063  1.2951 -0.0298 -1.9510
  480MOL0     H63359   4.905   3.391   0.590 -1.0695 -0.4144  2.5905
  480MOL0     H63360   4.881   3.304   0.798  0.3971  0.5823 -0.9512
  481MOL0     O63361   9.597   6.442   2.615 -0.4645  0.2978 -0.0716
  481MOL0     C63362   9.700   6.493   2.668 -0.1200  1.7104 -0.5637
  481MOL0     O63363   9.751   6.455   2.783  0.3269 -0.6884 -0.5228
  481MOL0     C63364   9.673   6.365   2.860 -0.2080 -0.9151  0.6354
  481MOL0     C63365   9.692   6.231   2.857 -1.2852  1.1456 -1.0793
  481MOL0     C63366   9.609   6.136   2.917  0.9305 -1.4703  0.4257
  481MOL0     C63367   9.502   6.187   2.997 -0.4636 -0.0380 -0.2950
  481MOL0     O63368   9.416   6.104   3.060 -0.6313  0.4334  0.3388
  481MOL0     C63369   9.388   5.972   3.004 -0.9901  0.1753 -0.2322
  481MOL0     C63370   9.249   5.970   2.962  0.1768 -0.2331 -0.4812
  481MOL0     C63371   9.158   5.996   3.082  0.2740  0.0972 -0.0515
  481MOL0     C63372   9.011   5.995   3.039  0.5847 -0.2496  0.0348
  481MOL0     C63373   8.929   6.098   3.121 -0.1979  0.1294 -0.0855
  481MOL0     C63374   8.897   6.060   3.268 -0.7725 -0.2584 -0.8390
  481MOL0     C63375   8.832   6.170   3.349  0.6403 -0.1272  0.0684
  481MOL0     C63376   8.813   6.134   3.496 -0.8350 -0.5815  0.6268
  481MOL0     N63377   8.686   6.182   3.555 -0.4900  0.4221 -0.4207
  481MOL0     C63378   8.551   6.153   3.515 -0.6445  0.1545 -0.2120
  481MOL0     C63379   8.478   6.233   3.598 -0.0639  0.7005  0.9906
  481MOL0     C63380   8.337   6.270   3.586  0.7249 -0.3129 -0.0647
  481MOL0     C63381   8.246   6.159   3.632  0.6965 -0.3275 -0.1141
  481MOL0     C63382   8.181   6.197   3.762 -0.5717  0.2686  0.2442
  481MOL0     C63383   8.055   6.105   3.772  0.4836 -0.1600  0.5181
  481MOL0     O63384   8.091   5.969   3.767 -0.6729  0.0715 -0.4387
  481MOL0     C63385   7.989   5.879   3.737 -0.2730 -0.0680  0.2111
  481MOL0     C63386   7.986   5.759   3.805  0.1685  0.2002  0.5267
  481MOL0     C63387   7.903   5.658   3.763 -0.3647  1.1554 -0.7918
  481MOL0     C63388   7.794   5.685   3.674 -0.3855 -1.2390  0.3957
  481MOL0     C63389   7.702   5.584   3.632  0.2466 -0.1665 -0.5552
  481MOL0     O63390   7.698   5.464   3.712  0.0456  0.7605  0.0838
  481MOL0     C63391   7.579   5.390   3.711  0.1467 -0.3066  0.1285
  481MOL0     C63392   7.448   5.443   3.715 -0.5310  0.0717  0.6242
  481MOL0     C63393   7.334   5.368   3.718  0.0410 -0.0091  0.4879
  481MOL0     C63394   7.341   5.229   3.729  1.9203 -0.4807  0.5327
  481MOL0     O63395   7.225   5.156   3.729 -0.8569 -1.0130  0.4105
  481MOL0     C63396   7.233   5.033   3.658 -0.3350  0.4259  0.3098
  481MOL0     C63397   7.093   4.958   3.669 -0.1866  0.4680  0.7401
  481MOL0     C63398   6.994   5.056   3.600 -0.3239  0.2887 -0.1725
  481MOL0     C63399   6.851   4.991   3.601  0.1719  0.2390  0.2380
  481MOL0     C63400   6.739   5.077   3.534 -0.2003  0.1160 -0.0794
  481MOL0     C63401   6.716   5.033   3.385  0.0030  0.4733  0.6431
  481MOL0     C63402   6.658   5.162   3.307 -0.1105  0.6001 -0.8547
  481MOL0     C63403   6.529   5.138   3.234 -0.4514  0.7487  0.6989
  481MOL0    Cl63404   6.429   5.023   3.320 -0.2141  0.2058  0.1268
  481MOL0     C63405   7.466   5.175   3.764  0.5162 -0.2812  0.2499
  481MOL0     C63406   7.587   5.248   3.739 -0.5774 -0.5863  0.3724
  481MOL0     O63407   7.624   5.628   3.539  0.2163  0.1242 -0.2950
  481MOL0     C63408   7.783   5.818   3.622 -0.2964  0.0732  0.2160
  481MOL0     C63409   7.883   5.906   3.651 -0.4519  0.5236 -0.4509
  481MOL0     N63410   8.556   6.307   3.680 -0.0105  0.9372  0.3434
  481MOL0     N63411   8.679   6.276   3.653  0.4300  0.4225 -0.2103
  481MOL0     C63412   9.473   6.331   3.008 -1.3332 -0.0013 -0.1387
  481MOL0     C63413   9.560   6.419   2.936  0.1476 -0.0148 -0.2233
  481MOL0     C63414   9.755   6.608   2.592  0.6748  0.5352  0.6937
  481MOL0     C63415   9.704   6.654   2.466 -0.8740  0.1007 -0.3442
  481MOL0     C63416   9.764   6.758   2.396 -0.1795  0.2954 -0.2805
  481MOL0     C63417   9.884   6.828   2.432  0.7357  0.0427 -0.4654
  481MOL0     O63418   9.930   6.934   2.366 -0.3579  0.7518 -0.0034
  481MOL0     C63419   9.904   6.960   2.227  0.6023  1.1783  0.7184
  481MOL0     C63420   9.944   7.100   2.186 -0.4066 -0.3077  0.2032
  481MOL0     C63421  10.096   7.120   2.173  0.2988 -0.2457 -0.3305
  481MOL0     C63422  10.178   7.136   2.302 -0.1537  0.2157 -0.5035
  481MOL0     C63423  10.134   7.240   2.397 -0.6375 -0.1650  0.7366
  481MOL0     C63424  10.092   7.338   2.464  0.2400 -0.1473  0.6992
  481MOL0     C63425   9.928   6.798   2.559  0.2970  0.1104  0.3979
  481MOL0     C63426   9.870   6.685   2.631  0.9535  0.1069  0.2991
  481MOL0     H63427   9.782   6.193   2.811 -1.6790  0.6235 -1.4338
  481MOL0     H63428   9.624   6.029   2.909 -0.2441 -1.8581  2.5066
  481MOL0     H63429   9.398   5.886   3.070 -0.0289 -1.7773 -2.7786
  481MOL0     H63430   9.452   5.951   2.918 -0.3879 -0.6074  0.3925
  481MOL0     H63431   9.225   5.870   2.923 -0.7009  0.6439 -2.3295
  481MOL0     H63432   9.230   6.043   2.883  1.3505 -0.8733 -1.3977
  481MOL0     H63433   9.189   6.097   3.108 -0.6573  1.2244 -2.9390
  481MOL0     H63434   9.181   5.933   3.168  0.4029  1.4355  0.9201
  481MOL0     H63435   9.011   6.032   2.936 -1.7702 -3.0311 -1.1083
  481MOL0     H63436   8.955   5.900   3.041  1.7654 -0.9506  0.7532
  481MOL0     H63437   8.832   6.116   3.074 -0.4670 -0.1808  0.3531
  481MOL0     H63438   8.986   6.191   3.135  0.8172 -0.6571  1.2243
  481MOL0     H63439   8.987   6.031   3.323 -1.4403 -0.1445  0.3540
  481MOL0     H63440   8.834   5.971   3.274  0.6514 -1.2629 -0.1240
  481MOL0     H63441   8.906   6.249   3.330 -1.8138  2.8038  1.7594
  481MOL0     H63442   8.737   6.192   3.298  1.1901 -0.6943 -1.2549
  481MOL0     H63443   8.897   6.180   3.547 -0.4486  0.6113 -1.0098
  481MOL0     H63444   8.820   6.025   3.503  0.0950 -0.5030  1.0612
  481MOL0     H63445   8.516   6.091   3.433 -1.4684 -0.9348  0.9283
  481MOL0     H63446   8.323   6.288   3.479  1.0908 -0.0955 -0.0799
  481MOL0     H63447   8.319   6.360   3.647 -0.4355 -0.7821  0.3046
  481MOL0     H63448   8.303   6.067   3.644  0.6116 -0.1711  1.6267
  481MOL0     H63449   8.171   6.154   3.552 -2.9591 -1.6495  3.0995
  481MOL0     H63450   8.240   6.182   3.853  1.0386 -0.7085 -0.8991
  481MOL0     H63451   8.150   6.301   3.750 -0.8035 -0.0610 -2.6154
  481MOL0     H63452   7.986   6.130   3.691  2.6325  0.1841 -1.3289
  481MOL0     H63453   8.004   6.124   3.867 -1.5398  0.9753 -0.7167
  481MOL0     H63454   8.062   5.749   3.882  0.3991  3.7328  0.9270
  481MOL0     H63455   7.909   5.560   3.809 -2.1033 -0.5464 -3.8479
  481MOL0     H63456   7.434   5.549   3.698  1.7961  0.7896  2.5503
  481MOL0     H63457   7.248   5.427   3.687 -0.1835 -1.9151 -3.0288
  481MOL0     H63458   7.316   4.978   3.703  0.3256  0.3051 -1.0127
  481MOL0     H63459   7.248   5.053   3.551 -2.0382  2.1152  0.3188
  481MOL0     H63460   7.054   4.934   3.768  2.0636  0.1557  1.6108
  481MOL0     H63461   7.102   4.862   3.617 -0.3372 -1.1243  3.4486
  481MOL0     H63462   7.023   5.078   3.498  0.9571  0.1136  0.1359
  481MOL0     H63463   6.986   5.147   3.660 -2.0623 -1.7585  3.0536
  481MOL0     H63464   6.856   4.889   3.561 -3.3213 -0.3275  0.9662
  481MOL0     H63465   6.829   4.973   3.707 -2.3981 -0.4268 -0.3517
  481MOL0     H63466   6.767   5.183   3.538 -1.0405  0.3297  0.4622
  481MOL0     H63467   6.648   5.068   3.594 -1.0687 -2.7823 -1.6391
  481MOL0     H63468   6.655   4.942   3.387 -1.3291  1.3168 -0.1022
  481MOL0     H63469   6.807   5.002   3.334  1.2229  1.2727  2.2264
  481MOL0     H63470   6.643   5.231   3.391 -4.0731 -3.2034  2.0431
  481MOL0     H63471   6.736   5.201   3.240  2.3365  0.8665  1.9507
  481MOL0     H63472   6.533   5.108   3.129  0.3651  2.2684  0.2655
  481MOL0     H63473   6.484   5.237   3.220 -0.4745  0.5385 -0.8829
  481MOL0     H63474   7.476   5.070   3.786  3.3814 -0.3986 -1.1441
  481MOL0     H63475   7.687   5.205   3.742  0.2015  0.6073 -3.1577
  481MOL0     H63476   7.696   5.844   3.562 -1.5832 -1.8840  1.1486
  481MOL0     H63477   7.884   6.002   3.601 -0.7073  0.7884  0.0442
  481MOL0     H63478   9.390   6.377   3.059 -0.7221  3.8028 -2.1682
  481MOL0     H63479   9.529   6.523   2.942 -1.5209 -0.5386  1.1354
  481MOL0     H63480   9.625   6.591   2.425 -1.0372 -0.7394  1.1794
  481MOL0     H63481   9.705   6.785   2.309  1.1872 -1.9753 -2.0215
  481MOL0     H63482   9.798   6.952   2.202  0.4623 -2.1404  1.8140
  481MOL0     H63483   9.952   6.876   2.175 -0.1798 -1.1154  3.4396
  481MOL0     H63484   9.896   7.124   2.091  1.0367  0.2815 -0.3945
  481MOL0     H63485   9.895   7.172   2.252 -1.0032 -1.0554  0.5989
  481MOL0     H63486  10.124   7.201   2.106  0.6792  2.4165  2.8294
  481MOL0     H63487  10.131   7.029   2.123  1.9954 -0.7124  1.5661
  481MOL0     H63488  10.164   7.040   2.353  0.6300 -1.3550 -3.0434
  481MOL0     H63489  10.285   7.151   2.284 -0.0355 -0.0948 -0.0749
  481MOL0     H63490  10.070   7.413   2.538  0.5229 -0.5956  1.2529
  481MOL0     H63491  10.010   6.849   2.609  0.7153 -0.9376  0.8136
  481MOL0     H63492   9.890   6.665   2.735 -2.8414  0.3367  1.2240
  482MOL0     O63493   8.826  10.149   2.827 -0.0192  0.4080 -0.1405
  482MOL0     C63494   8.813  10.046   2.891  0.1263  0.2347  0.8858
  482MOL0     O63495   8.867  10.028   3.016 -0.3681  0.8822 -0.6866
  482MOL0     C63496   8.989  10.087   3.044  0.6202  0.1183  0.1952
  482MOL0     C63497   9.004  10.125   3.179  0.0844 -0.0164 -0.2917
  482MOL0     C63498   9.126  10.180   3.220 -0.4994 -0.3775 -1.2507
  482MOL0     C63499   9.223  10.207   3.124  0.0772 -0.0802  0.5211
  482MOL0     O63500   9.345  10.268   3.138 -0.2888 -0.5236 -0.3691
  482MOL0     C63501   9.371  10.331   3.262  0.0691 -0.9732 -1.0608
  482MOL0     C63502   9.526  10.347   3.292  0.0670 -0.5860  0.3729
  482MOL0     C63503   9.598  10.204   3.284 -0.1190 -0.7988 -0.2129
  482MOL0     C63504   9.632  10.180   3.138 -0.5549  0.3380  0.6541
  482MOL0     C63505   9.678  10.036   3.088 -0.1869  0.2007 -0.4455
  482MOL0     C63506   9.809   9.975   3.139  0.2101 -0.2194 -0.0802
  482MOL0     C63507   9.925  10.059   3.082  0.0548  0.1928  0.7110
  482MOL0     C63508  10.059   9.986   3.089  0.5581 -0.0623  0.4282
  482MOL0     N63509  10.168  10.048   3.010  0.4624 -1.2003  0.0442
  482MOL0     C63510  10.183  10.059   2.874 -0.1857  0.3449 -0.0777
  482MOL0     C63511  10.303  10.126   2.862 -1.1105 -0.6389  0.9013
  482MOL0     C63512  10.351  10.146   2.712  0.0401 -0.5161  0.5608
  482MOL0     C63513  10.503  10.118   2.707 -0.0413  0.3528  0.0626
  482MOL0     C63514  10.603  10.247   2.726  0.8399  0.3911  0.7563
  482MOL0     C63515  10.634  10.277   2.873 -0.7106 -0.8621  0.2131
  482MOL0     O63516  10.725  10.393   2.870 -0.0630 -0.9603  0.6757
  482MOL0     C63517  10.857  10.388   2.919  0.2565  0.5476 -1.1384
  482MOL0     C63518  10.919  10.512   2.924 -0.8689 -0.0558  0.4608
  482MOL0     C63519  11.053  10.519   2.968 -1.0231  0.3722  1.6565
  482MOL0     C63520  11.132  10.406   2.998  0.5753 -0.5496 -0.1138
  482MOL0     C63521  11.276  10.417   3.038  0.3034 -0.2838 -0.5313
  482MOL0     O63522  11.357  10.308   3.014  0.2772 -0.7748  0.8895
  482MOL0     C63523  11.494  10.325   3.010 -0.1345  0.4856  0.8473
  482MOL0     C63524  11.558  10.415   2.914  0.1019  0.1417 -1.2194
  482MOL0     C63525  11.698  10.413   2.906  0.0358  0.3108  0.6279
  482MOL0     C63526  11.773  10.325   2.974  0.5953  0.0035  0.5073
  482MOL0     O63527  11.911  10.338   2.968 -0.4722 -0.0731  0.4516
  482MOL0     C63528  11.992  10.234   3.022 -0.3729 -0.2826  0.0139
  482MOL0     C63529  12.142  10.261   2.986 -0.0623 -0.2791 -0.0384
  482MOL0     C63530  12.193  10.396   3.050 -1.0307 -0.2754  1.0295
  482MOL0     C63531  12.344  10.398   3.012 -0.1974  0.4916  0.0745
  482MOL0     C63532  12.414  10.504   3.094 -0.3079  0.1424  1.3646
  482MOL0     C63533  12.567  10.501   3.073 -0.8267 -0.4914 -0.7772
  482MOL0     C63534  12.654  10.575   3.166 -0.5978  0.3984  0.2166
  482MOL0     C63535  12.593  10.708   3.211  0.2281  0.2264 -0.2449
  482MOL0    Cl63536  12.682  10.768   3.346 -0.6220 -0.4641 -0.3363
  482MOL0     C63537  11.709  10.237   3.064 -0.3357 -0.2128 -0.0898
  482MOL0     C63538  11.578  10.248   3.089  0.3622  0.7467  0.7193
  482MOL0     O63539  11.308  10.533   3.082 -0.3752  0.5323  0.5466
  482MOL0     C63540  11.068  10.287   2.993 -0.6624 -0.2156  1.0805
  482MOL0     C63541  10.926  10.272   2.964 -0.7682 -0.3625 -0.5662
  482MOL0     N63542  10.346  10.170   2.985 -0.0160 -0.8502  0.4064
  482MOL0     N63543  10.271  10.110   3.072 -0.4332 -0.7416  1.3121
  482MOL0     C63544   9.204  10.176   2.992  0.8086 -0.3152  0.4800
  482MOL0     C63545   9.078  10.131   2.958  0.2053 -0.1049 -0.0640
  482MOL0     C63546   8.715   9.943   2.836 -0.3168 -0.4534 -1.0276
  482MOL0     C63547   8.625   9.976   2.729  0.4222  0.4844 -0.1627
  482MOL0     C63548   8.534   9.873   2.686 -0.2512  0.4025  0.2885
  482MOL0     C63549   8.538   9.745   2.738  0.2975  0.2166  1.2443
  482MOL0     O63550   8.440   9.649   2.691 -0.7291 -0.0464 -0.7796
  482MOL0     C63551   8.446   9.514   2.743  0.1178  0.0161 -0.4439
  482MOL0     C63552   8.417   9.418   2.633 -1.1785 -0.0213 -0.3644
  482MOL0     C63553   8.450   9.275   2.663  0.2937  0.0646 -0.9706
  482MOL0     C63554   8.417   9.195   2.539 -0.7759 -0.2925  0.0069
  482MOL0     C63555   8.415   9.055   2.585 -0.2380  0.7426  0.7167
  482MOL0     C63556   8.394   8.936   2.617  0.1181  1.0046  0.6577
  482MOL0     C63557   8.625   9.720   2.838  0.3153 -0.2291 -0.6938
  482MOL0     C63558   8.716   9.812   2.883  0.4895  0.0691 -0.0190
  482MOL0     H63559   8.928  10.125   3.257  1.3555 -2.0940  1.0589
  482MOL0     H63560   9.129  10.194   3.328 -0.9437 -4.4910 -0.5255
  482MOL0     H63561   9.327  10.273   3.344  1.8130 -1.6960 -0.5905
  482MOL0     H63562   9.323  10.428   3.247  0.9327 -0.2433  0.6172
  482MOL0     H63563   9.544  10.373   3.396  1.4236 -0.4145  0.1057
  482MOL0     H63564   9.558  10.421   3.218 -2.9936  0.4884 -0.0329
  482MOL0     H63565   9.524  10.130   3.315  0.5710 -1.4874 -0.1969
  482MOL0     H63566   9.681  10.193   3.354  2.0245  1.6336 -2.1808
  482MOL0     H63567   9.563  10.222   3.064  2.4186  2.9635 -0.8806
  482MOL0     H63568   9.721  10.241   3.124  0.9221 -1.8926 -0.1608
  482MOL0     H63569   9.701  10.051   2.982 -0.1834 -0.2231 -0.5028
  482MOL0     H63570   9.596   9.964   3.087  0.5747 -0.6954 -2.2056
  482MOL0     H63571   9.811   9.871   3.105  1.8566  0.2763 -1.6557
  482MOL0     H63572   9.796   9.983   3.247 -2.7065  1.4606 -0.4263
  482MOL0     H63573   9.910  10.078   2.975  2.4466  1.4346  0.5344
  482MOL0     H63574   9.929  10.156   3.132 -0.1116  1.1412 -1.0232
  482MOL0     H63575  10.051   9.885   3.047  1.3155 -0.3463  0.9352
  482MOL0     H63576  10.094   9.964   3.190 -1.2508  0.5185  1.2260
  482MOL0     H63577  10.123  10.019   2.792 -0.5380  1.3040 -0.3013
  482MOL0     H63578  10.344  10.251   2.685  0.5800 -0.8852 -1.1589
  482MOL0     H63579  10.293  10.087   2.641  1.2581 -0.9612 -0.1056
  482MOL0     H63580  10.512  10.077   2.606 -3.5883 -2.1237  0.5634
  482MOL0     H63581  10.527  10.034   2.773 -2.6824 -0.6657 -0.1490
  482MOL0     H63582  10.696  10.240   2.669  0.2286 -1.2070 -0.1118
  482MOL0     H63583  10.560  10.334   2.675  3.0885 -0.7133 -3.4552
  482MOL0     H63584  10.689  10.201   2.930  4.1340  1.9291 -0.2633
  482MOL0     H63585  10.542  10.300   2.927  0.6973  2.0065  1.5611
  482MOL0     H63586  10.863  10.604   2.908 -0.8690 -0.5073 -2.8183
  482MOL0     H63587  11.104  10.614   2.975  3.6245 -1.6373 -0.5665
  482MOL0     H63588  11.507  10.493   2.860  0.0537  0.1277 -1.1945
  482MOL0     H63589  11.735  10.488   2.837 -1.3486  3.0023  2.6487
  482MOL0     H63590  11.970  10.145   2.962  0.4953 -1.4999  1.4244
  482MOL0     H63591  11.972  10.214   3.127 -0.2005  1.5146  0.4221
  482MOL0     H63592  12.153  10.260   2.877 -0.7128 -1.4745 -0.1141
  482MOL0     H63593  12.202  10.179   3.027 -1.5730 -1.5112 -0.1760
  482MOL0     H63594  12.179  10.402   3.159  1.7520  0.0521  1.4499
  482MOL0     H63595  12.141  10.478   3.000 -0.4780 -0.0723  0.7758
  482MOL0     H63596  12.390  10.302   3.036  0.6313  0.9944  0.5285
  482MOL0     H63597  12.367  10.399   2.905  2.0191 -0.2033  0.4935
  482MOL0     H63598  12.369  10.495   3.193 -2.3656 -2.7434  0.3228
  482MOL0     H63599  12.380  10.603   3.064  1.5153  0.4570  0.1705
  482MOL0     H63600  12.583  10.554   2.978  0.8153  2.5637  1.0519
  482MOL0     H63601  12.611  10.401   3.084 -0.0572 -0.5131 -3.2910
  482MOL0     H63602  12.668  10.508   3.252 -1.3860 -2.3127 -1.6398
  482MOL0     H63603  12.752  10.595   3.122 -1.4083  3.0717 -0.5501
  482MOL0     H63604  12.496  10.691   3.259  0.1953  0.5439 -0.1983
  482MOL0     H63605  12.594  10.778   3.127 -3.0194 -1.1981 -1.6331
  482MOL0     H63606  11.774  10.171   3.120 -0.4650 -0.7814 -0.6079
  482MOL0     H63607  11.527  10.194   3.169 -1.1088 -0.7066 -1.0860
  482MOL0     H63608  11.132  10.201   3.011  1.2735  0.4856 -1.6842
  482MOL0     H63609  10.890  10.170   2.963  3.1621 -2.0927  3.0790
  482MOL0     H63610   9.268  10.207   2.910  0.3664  4.0639  1.5703
  482MOL0     H63611   9.068  10.102   2.853 -0.7571 -1.0177  0.2580
  482MOL0     H63612   8.643  10.063   2.667 -1.4402  0.2870 -1.0397
  482MOL0     H63613   8.472   9.885   2.598 -1.3647 -0.3128  0.9570
  482MOL0     H63614   8.380   9.503   2.829  1.0614  1.7102  0.5696
  482MOL0     H63615   8.549   9.488   2.770  1.1669  2.3562 -1.7714
  482MOL0     H63616   8.310   9.425   2.609 -1.4752  0.2554  0.9749
  482MOL0     H63617   8.476   9.449   2.546 -1.0402 -0.4871 -0.4367
  482MOL0     H63618   8.397   9.250   2.756  2.9223  0.9289  0.8959
  482MOL0     H63619   8.558   9.268   2.681  0.3989  1.7014 -0.8014
  482MOL0     H63620   8.326   9.227   2.486  0.2799 -0.3510 -1.9406
  482MOL0     H63621   8.497   9.195   2.464  1.5221 -0.4642  2.3408
  482MOL0     H63622   8.366   8.833   2.623 -1.1895  1.3968  2.5310
  482MOL0     H63623   8.624   9.624   2.889 -0.0287 -0.4295 -1.0707
  482MOL0     H63624   8.792   9.774   2.952  2.1346  1.8102 -0.8016
  483MOL0     O63625   5.876   9.590  10.318  0.4635 -0.2250  0.7985
  483MOL0     C63626   5.901   9.664  10.414 -0.3878  0.5380 -0.3317
  483MOL0     O63627   5.820   9.761  10.466 -0.7689 -0.2957  0.7676
  483MOL0     C63628   5.701   9.790  10.401  0.2232 -0.1244 -1.1597
  483MOL0     C63629   5.618   9.692  10.352 -0.1526 -0.3927  0.2111
  483MOL0     C63630   5.501   9.733  10.289 -0.0857 -0.0459  0.6224
  483MOL0     C63631   5.465   9.863  10.267  0.6893 -0.2620 -0.0087
  483MOL0     O63632   5.352   9.903  10.199 -0.5065 -0.1554 -0.0687
  483MOL0     C63633   5.280   9.819  10.108 -0.1096 -0.5568 -0.5414
  483MOL0     C63634   5.148   9.868  10.042 -0.1457  0.6169 -0.5424
  483MOL0     C63635   5.071   9.773   9.946  0.1404 -0.4164  0.3975
  483MOL0     C63636   4.989   9.663  10.011 -0.0708 -0.0521 -0.4796
  483MOL0     C63637   4.946   9.535   9.929 -0.4116 -0.1658  0.2031
  483MOL0     C63638   4.874   9.427  10.011 -0.0916 -0.5236  0.1463
  483MOL0     C63639   4.845   9.301   9.928  0.2297 -1.4531  0.0295
  483MOL0     C63640   4.746   9.331   9.815  0.2714  0.1491  0.1583
  483MOL0     N63641   4.623   9.401   9.858 -1.0082 -0.1819 -0.1847
  483MOL0     C63642   4.614   9.537   9.870  0.2965  1.2603  0.5026
  483MOL0     C63643   4.485   9.551   9.919 -0.4610  0.0814 -0.2186
  483MOL0     C63644   4.425   9.678   9.968  0.8079  1.0003  1.3543
  483MOL0     C63645   4.278   9.688   9.925  0.4347 -0.2480  0.3924
  483MOL0     C63646   4.218   9.830   9.971 -0.8294  0.6638  1.1381
  483MOL0     C63647   4.072   9.835   9.937 -0.5129 -0.1777  0.9421
  483MOL0     O63648   4.009   9.721   9.986 -0.2403  0.2215 -0.2182
  483MOL0     C63649   3.874   9.712   9.985  0.6777 -0.0135  0.8475
  483MOL0     C63650   3.821   9.583  10.005 -0.2893 -0.3328 -0.1433
  483MOL0     C63651   3.686   9.556   9.995 -1.0437 -0.1898  0.1847
  483MOL0     C63652   3.593   9.658   9.989  0.6401 -0.4009  0.5880
  483MOL0     C63653   3.450   9.636   9.978  0.6038  0.0128 -0.2323
  483MOL0     O63654   3.375   9.734   9.920  0.1918  0.2209  1.0487
  483MOL0     C63655   3.241   9.712   9.897  0.1081  0.1662  0.7121
  483MOL0     C63656   3.193   9.729   9.774  0.0690 -0.5760  0.2024
  483MOL0     C63657   3.058   9.741   9.740  0.2433 -0.6735  0.0792
  483MOL0     C63658   2.967   9.728   9.845  0.3169 -0.7957 -0.3514
  483MOL0     O63659   2.831   9.742   9.819  0.6388 -0.1988  0.3412
  483MOL0     C63660   2.738   9.651   9.886  0.5145  0.2758  0.8092
  483MOL0     C63661   2.597   9.694   9.841  0.3305  0.9296  0.3314
  483MOL0     C63662   2.491   9.613   9.916 -0.7311  0.7099 -0.7273
  483MOL0     C63663   2.362   9.682   9.906 -0.1058  0.5701  0.2491
  483MOL0     C63664   2.245   9.583   9.899  0.0058 -0.6995 -0.4446
  483MOL0     C63665   2.126   9.644   9.823  0.1150  0.5868  0.4082
  483MOL0     C63666   2.085   9.781   9.889  0.2728 -0.5931  0.0985
  483MOL0     C63667   1.990   9.857   9.789 -0.3246  0.6193 -0.5179
  483MOL0    Cl63668   2.077   9.910   9.637  0.5592 -0.5618 -0.0822
  483MOL0     C63669   3.018   9.720   9.983  1.0812  0.0084  0.1493
  483MOL0     C63670   3.155   9.704  10.007 -1.2053  0.2351 -0.1526
  483MOL0     O63671   3.401   9.529  10.026  1.0606  0.4346 -0.3904
  483MOL0     C63672   3.646   9.787   9.960  0.2236  0.2599 -0.2365
  483MOL0     C63673   3.784   9.815   9.960  0.8609  0.1409  0.3468
  483MOL0     N63674   4.426   9.425   9.955 -1.2269  0.0151  0.7048
  483MOL0     N63675   4.515   9.337   9.915 -0.9518  0.2147  0.6979
  483MOL0     C63676   5.543   9.969  10.326 -0.9371 -0.1654 -0.4181
  483MOL0     C63677   5.661   9.927  10.391 -1.2565 -0.0381  0.3227
  483MOL0     C63678   6.033   9.644  10.479  0.8540 -1.5126 -0.0356
  483MOL0     C63679   6.121   9.540  10.441  0.4964  0.6343 -0.7264
  483MOL0     C63680   6.250   9.535  10.509  0.7196 -0.1141 -0.7101
  483MOL0     C63681   6.294   9.637  10.593  0.3170  0.1217  0.4690
  483MOL0     O63682   6.423   9.615  10.637  0.2115  0.3704  0.0576
  483MOL0     C63683   6.493   9.717  10.712 -0.5751  0.2325 -0.1688
  483MOL0     C63684   6.599   9.795  10.629 -0.5535 -0.2294 -0.0019
  483MOL0     C63685   6.724   9.688  10.591  0.3648 -0.0161 -1.0525
  483MOL0     C63686   6.816   9.747  10.500  0.1954 -0.4710 -0.2167
  483MOL0     C63687   6.941   9.662  10.486  0.1413 -0.5880  0.0286
  483MOL0     C63688   7.043   9.587  10.466 -1.1157 -0.3671 -0.0753
  483MOL0     C63689   6.203   9.733  10.633  1.2319  1.2833 -0.8372
  483MOL0     C63690   6.071   9.739  10.580  0.4010  0.1340  0.2046
  483MOL0     H63691   5.631   9.585  10.370 -1.0486 -0.2257  2.0230
  483MOL0     H63692   5.447   9.657  10.233  0.2114  0.5056 -0.4437
  483MOL0     H63693   5.255   9.726  10.157  0.4766 -0.4822 -0.0817
  483MOL0     H63694   5.352   9.798  10.028 -3.2408 -2.3496 -3.1080
  483MOL0     H63695   5.196   9.950   9.989  1.2543  1.4481  1.8446
  483MOL0     H63696   5.079   9.911  10.115 -3.7112 -2.3257 -1.8788
  483MOL0     H63697   5.150   9.726   9.886 -0.7119  0.8822 -1.9105
  483MOL0     H63698   5.006   9.828   9.876  0.7500  0.1474  0.2588
  483MOL0     H63699   5.044   9.644  10.103  0.1522  2.4873 -0.0150
  483MOL0     H63700   4.900   9.721  10.038 -0.4710 -0.9705  0.2166
  483MOL0     H63701   5.035   9.491   9.882 -0.5369  0.4032 -0.5936
  483MOL0     H63702   4.878   9.563   9.849 -0.0226  1.8100  0.5230
  483MOL0     H63703   4.784   9.475  10.050 -0.6168 -1.0397 -0.4062
  483MOL0     H63704   4.937   9.404  10.098  1.0543 -0.0125 -0.5166
  483MOL0     H63705   4.939   9.257   9.893 -0.7715 -3.1755 -0.5638
  483MOL0     H63706   4.801   9.227   9.995 -2.6325  1.6543  1.8876
  483MOL0     H63707   4.714   9.236   9.773 -1.6751  0.2128  1.3943
  483MOL0     H63708   4.788   9.387   9.731 -0.9100 -2.3363 -2.2218
  483MOL0     H63709   4.682   9.612   9.831  2.2097  0.2497  1.7269
  483MOL0     H63710   4.492   9.749   9.919  2.8183 -1.4337  0.3351
  483MOL0     H63711   4.439   9.691  10.076 -2.0642  2.7893  1.6229
  483MOL0     H63712   4.218   9.605   9.962 -0.3769 -0.8748 -2.1032
  483MOL0     H63713   4.271   9.691   9.815 -0.4922  1.9414  0.4721
  483MOL0     H63714   4.241   9.830  10.078 -2.2955 -0.5919  1.4870
  483MOL0     H63715   4.274   9.905   9.915 -0.0712  0.1974  1.2619
  483MOL0     H63716   4.063   9.835   9.828 -1.7983 -1.4026  1.0330
  483MOL0     H63717   4.015   9.922   9.970  1.1676  1.1716  0.4968
  483MOL0     H63718   3.893   9.506  10.031 -1.1260 -0.3851  2.2939
  483MOL0     H63719   3.649   9.457  10.019  0.1452 -0.5374  0.6842
  483MOL0     H63720   3.264   9.750   9.695 -1.8957  0.2443 -1.4626
  483MOL0     H63721   3.033   9.766   9.638  1.7325  2.2742  0.3532
  483MOL0     H63722   2.750   9.649   9.994  2.8096  1.4689  0.6303
  483MOL0     H63723   2.755   9.548   9.853  0.6284  0.3286  0.7041
  483MOL0     H63724   2.587   9.671   9.734 -2.5774 -1.1525  0.9242
  483MOL0     H63725   2.582   9.802   9.851  0.4499  1.2187 -2.0084
  483MOL0     H63726   2.523   9.595  10.019  1.8605  1.1748 -1.3976
  483MOL0     H63727   2.493   9.509   9.881 -1.4466 -0.6339  2.7217
  483MOL0     H63728   2.344   9.740   9.997  1.2471 -1.0596  1.6056
  483MOL0     H63729   2.363   9.757   9.826  0.9586  0.6231  0.3046
  483MOL0     H63730   2.221   9.561  10.004  2.0613 -1.1882 -0.0396
  483MOL0     H63731   2.282   9.491   9.852  0.1865  0.8567 -3.6091
  483MOL0     H63732   2.043   9.572   9.822  0.0794  0.6274  0.4171
  483MOL0     H63733   2.163   9.660   9.721  1.4932 -1.9136  0.4421
  483MOL0     H63734   2.043   9.773   9.989  1.0499  0.5766  0.5395
  483MOL0     H63735   2.172   9.846   9.903 -2.1569  2.7809  0.9088
  483MOL0     H63736   1.946   9.942   9.842 -2.6038  0.4573 -1.9903
  483MOL0     H63737   1.908   9.793   9.756  1.5566 -1.7626 -0.8870
  483MOL0     H63738   2.949   9.714  10.066 -0.2916 -1.2928 -1.0085
  483MOL0     H63739   3.196   9.701  10.108 -2.5846  0.9208  0.4588
  483MOL0     H63740   3.577   9.869   9.939 -2.2194 -1.9560 -1.3679
  483MOL0     H63741   3.822   9.915   9.942  4.4254 -0.2121  4.4202
  483MOL0     H63742   5.515  10.072  10.306  2.5609  1.3628  1.6025
  483MOL0     H63743   5.737   9.997  10.425 -1.1457  1.1777 -2.1936
  483MOL0     H63744   6.096   9.465  10.367  0.4589  1.0758 -1.1596
  483MOL0     H63745   6.313   9.450  10.486  1.7119 -0.2740  2.1830
  483MOL0     H63746   6.550   9.671  10.792  2.6830  3.7407 -0.1890
  483MOL0     H63747   6.426   9.787  10.763  0.8022  2.6172 -1.4664
  483MOL0     H63748   6.557   9.846  10.542 -1.5016  0.5470  0.8642
  483MOL0     H63749   6.628   9.872  10.701 -1.8759  3.2843 -2.9015
  483MOL0     H63750   6.689   9.591  10.553  2.4394 -1.8379  1.3313
  483MOL0     H63751   6.771   9.652  10.683 -1.6189 -1.7468 -0.6350
  483MOL0     H63752   6.789   9.768  10.396 -1.0403  1.0808  0.3827
  483MOL0     H63753   6.841   9.847  10.535  1.3427  0.0483 -2.3644
  483MOL0     H63754   7.134   9.531  10.461 -0.0243  1.3581 -0.4953
  483MOL0     H63755   6.239   9.808  10.703  1.6868  0.8798 -0.6301
  483MOL0     H63756   6.014   9.829  10.600  2.3068  1.8964 -1.7652
  484MOL0     O63757   1.192   4.799  10.740 -0.1891 -0.0246  0.4148
  484MOL0     C63758   1.112   4.738  10.808  1.2200  0.1204 -0.5418
  484MOL0     O63759   0.986   4.696  10.770 -0.2345 -0.0651 -0.2780
  484MOL0     C63760   0.938   4.747  10.653 -0.6577  0.0549  0.7002
  484MOL0     C63761   0.941   4.877  10.597  0.3860 -0.2684  0.1481
  484MOL0     C63762   0.876   4.911  10.481 -0.7770  0.2080  0.0830
  484MOL0     C63763   0.802   4.821  10.412  0.5773 -0.1008  0.5929
  484MOL0     O63764   0.735   4.842  10.296  0.0703  0.2614  0.2431
  484MOL0     C63765   0.701   4.975  10.256  0.1597  0.4115  0.9155
  484MOL0     C63766   0.632   4.970  10.118 -0.5268 -0.4557 -0.2814
  484MOL0     C63767   0.591   5.117  10.091 -0.0228  0.0321  0.1584
  484MOL0     C63768   0.578   5.146   9.945 -0.2585 -0.3737  0.5531
  484MOL0     C63769   0.593   5.294   9.930  0.0083  1.1334  0.2161
  484MOL0     C63770   0.556   5.320   9.783 -0.9515 -0.0284 -0.0857
  484MOL0     C63771   0.684   5.297   9.696 -0.3043 -0.0959  0.3083
  484MOL0     C63772   0.664   5.337   9.542  0.2204 -0.0518 -0.7972
  484MOL0     N63773   0.621   5.480   9.535  0.5404 -0.5792 -0.5230
  484MOL0     C63774   0.668   5.587   9.601 -0.0321 -0.0785 -1.1379
  484MOL0     C63775   0.598   5.693   9.562  1.1872 -0.1116 -0.4452
  484MOL0     C63776   0.589   5.821   9.646  0.6539  1.0705  0.5937
  484MOL0     C63777   0.539   5.944   9.569 -0.4614  0.3271  0.5371
  484MOL0     C63778   0.524   6.065   9.666 -1.0605  0.4137  0.1239
  484MOL0     C63779   0.514   6.192   9.593 -0.1587 -0.3879  0.4568
  484MOL0     O63780   0.636   6.197   9.518 -0.5577 -0.1243 -0.2250
  484MOL0     C63781   0.672   6.294   9.432  1.0159  0.4253  0.4202
  484MOL0     C63782   0.599   6.409   9.417  0.5627 -0.5009  0.7981
  484MOL0     C63783   0.655   6.518   9.336 -0.3437  0.2161  0.0003
  484MOL0     C63784   0.781   6.509   9.273 -0.3710  0.6614 -0.2151
  484MOL0     C63785   0.855   6.630   9.213  0.6239 -0.2005  0.0444
  484MOL0     O63786   0.985   6.618   9.196  0.7582  0.3904  0.1242
  484MOL0     C63787   1.065   6.733   9.172  0.5068  0.1606  0.2716
  484MOL0     C63788   1.058   6.848   9.246 -0.2243  0.2095  0.2025
  484MOL0     C63789   1.147   6.954   9.221  1.0479  0.5193 -0.6110
  484MOL0     C63790   1.246   6.946   9.125 -0.6046  0.2218  0.5683
  484MOL0     O63791   1.333   7.048   9.090  0.2795  0.7250  0.2970
  484MOL0     C63792   1.350   7.150   9.191  0.1634 -0.3316  0.5945
  484MOL0     C63793   1.480   7.233   9.161 -0.4342 -0.6695  1.1163
  484MOL0     C63794   1.474   7.340   9.038 -0.1442  0.1899 -0.7558
  484MOL0     C63795   1.602   7.430   9.047  0.0762 -0.6004  0.1103
  484MOL0     C63796   1.642   7.510   8.915  0.0200  0.0777 -0.3080
  484MOL0     C63797   1.781   7.591   8.911  0.8790  0.0426 -0.1823
  484MOL0     C63798   1.902   7.495   8.894  0.7484 -0.4606 -0.4843
  484MOL0     C63799   1.959   7.474   9.035  0.4135  0.0790  1.1615
  484MOL0    Cl63800   2.084   7.603   9.074 -0.0753  0.0064  0.5065
  484MOL0     C63801   1.249   6.828   9.052  0.5929  0.2103  0.9965
  484MOL0     C63802   1.161   6.718   9.076 -0.5939 -0.1972 -0.4502
  484MOL0     O63803   0.781   6.732   9.190  0.5979 -0.3496 -0.2317
  484MOL0     C63804   0.845   6.386   9.284 -0.1433 -0.0703  0.4869
  484MOL0     C63805   0.794   6.282   9.356  0.3899  1.1911 -0.0911
  484MOL0     N63806   0.503   5.649   9.467 -0.5455  0.1293 -0.2696
  484MOL0     N63807   0.532   5.524   9.439  0.6007 -0.7717 -0.0737
  484MOL0     C63808   0.813   4.679  10.461 -0.5652  0.0046  0.4908
  484MOL0     C63809   0.874   4.651  10.580 -0.0539  1.1109 -0.0712
  484MOL0     C63810   1.151   4.704  10.942  0.0729  0.5880  0.2601
  484MOL0     C63811   1.280   4.728  10.992 -0.0753  0.8417 -0.3583
  484MOL0     C63812   1.303   4.698  11.127 -1.1255 -0.6470 -0.3762
  484MOL0     C63813   1.213   4.623  11.205  0.3933  0.1411 -0.8997
  484MOL0     O63814   1.234   4.581  11.335 -0.5924  0.1877 -0.2545
  484MOL0     C63815   1.346   4.645  11.407  0.4553  0.4197 -0.4816
  484MOL0     C63816   1.318   4.624  11.550  0.3101  0.8149  0.5689
  484MOL0     C63817   1.346   4.486  11.611  0.0760  0.2858  0.3979
  484MOL0     C63818   1.299   4.466  11.761 -1.2955  0.2280 -0.5466
  484MOL0     C63819   1.352   4.340  11.808  0.4362 -0.0980 -0.4695
  484MOL0     C63820   1.380   4.234  11.857 -0.2278  0.3331  0.9872
  484MOL0     C63821   1.089   4.594  11.148 -0.2314  0.0195 -0.0478
  484MOL0     C63822   1.051   4.644  11.025  0.3158 -0.0276  0.3796
  484MOL0     H63823   0.993   4.948  10.659 -0.2060 -1.9183  2.7031
  484MOL0     H63824   0.891   5.011  10.442 -5.0406  1.5862  1.4876
  484MOL0     H63825   0.795   5.031  10.246  2.5285 -3.4534 -1.0140
  484MOL0     H63826   0.632   5.017  10.330  3.2549  2.4420  2.8947
  484MOL0     H63827   0.550   4.897  10.126 -0.9305 -0.5289 -3.8030
  484MOL0     H63828   0.703   4.929  10.047  1.1177 -1.3789  1.7801
  484MOL0     H63829   0.678   5.176  10.120  0.8471 -0.6907 -0.9047
  484MOL0     H63830   0.508   5.148  10.155 -1.6965 -0.1199 -1.8101
  484MOL0     H63831   0.646   5.081   9.889  0.5090 -0.6551  1.7630
  484MOL0     H63832   0.474   5.119   9.925 -0.1486 -1.3255  1.1693
  484MOL0     H63833   0.696   5.322   9.953  0.5980 -0.5162 -0.2098
  484MOL0     H63834   0.517   5.335   9.997 -1.3512  1.1952 -1.2807
  484MOL0     H63835   0.523   5.424   9.774 -1.1928 -0.1518 -0.6734
  484MOL0     H63836   0.468   5.263   9.753 -0.1281 -2.2418  1.4547
  484MOL0     H63837   0.770   5.352   9.733  0.0168 -1.3258  1.4798
  484MOL0     H63838   0.715   5.192   9.692 -0.9747 -0.2659 -1.1024
  484MOL0     H63839   0.576   5.284   9.504 -2.0330  1.8034  1.5035
  484MOL0     H63840   0.756   5.312   9.488  0.4725  1.2113 -0.9845
  484MOL0     H63841   0.738   5.579   9.684  2.1290  0.3131 -2.8378
  484MOL0     H63842   0.681   5.847   9.699  1.9656 -2.7736  0.4934
  484MOL0     H63843   0.523   5.800   9.731  0.8935  2.9960  1.2970
  484MOL0     H63844   0.438   5.923   9.532 -0.0105 -1.3307  0.1536
  484MOL0     H63845   0.609   5.971   9.490  0.6165  0.0732  1.3804
  484MOL0     H63846   0.436   6.048   9.729 -0.8733 -2.4014 -0.2081
  484MOL0     H63847   0.612   6.070   9.731 -1.5837 -0.1300  0.8959
  484MOL0     H63848   0.498   6.277   9.661 -1.1808  0.1572 -0.4341
  484MOL0     H63849   0.430   6.183   9.523 -0.7182 -1.9254  1.2847
  484MOL0     H63850   0.508   6.430   9.472 -0.4507 -0.3129 -0.8696
  484MOL0     H63851   0.603   6.613   9.335  2.1261  1.6373 -0.4395
  484MOL0     H63852   0.983   6.860   9.323 -1.4008  0.3358 -0.9387
  484MOL0     H63853   1.128   7.047   9.273 -0.9593 -0.2414  0.1265
  484MOL0     H63854   1.365   7.106   9.290  0.6056  3.3689  2.3394
  484MOL0     H63855   1.270   7.225   9.183 -0.4044 -0.9937 -0.0941
  484MOL0     H63856   1.562   7.164   9.140  1.3335  1.3737  0.9509
  484MOL0     H63857   1.511   7.283   9.253 -2.7653  0.3071  1.4310
  484MOL0     H63858   1.382   7.400   9.038  1.6456  3.7573  5.0865
  484MOL0     H63859   1.483   7.299   8.937 -0.4088  3.3876 -2.1827
  484MOL0     H63860   1.598   7.491   9.138  0.1687  1.2152 -1.0449
  484MOL0     H63861   1.690   7.366   9.058  1.5710  1.3700  0.2044
  484MOL0     H63862   1.568   7.590   8.902 -0.4224  0.2007  2.4805
  484MOL0     H63863   1.620   7.442   8.832 -3.8992 -1.0485  1.4235
  484MOL0     H63864   1.791   7.656   8.999  1.5227 -0.4823  0.1415
  484MOL0     H63865   1.776   7.656   8.824  1.0373  0.9632  0.4799
  484MOL0     H63866   1.868   7.403   8.847 -1.7210 -0.4139  1.0276
  484MOL0     H63867   1.985   7.525   8.830  2.0333 -2.4770  0.1543
  484MOL0     H63868   2.004   7.375   9.034  2.8618  1.0815 -1.5135
  484MOL0     H63869   1.886   7.470   9.117 -0.2209 -3.2761  0.5754
  484MOL0     H63870   1.317   6.837   8.967  1.6144  1.2672  1.8994
  484MOL0     H63871   1.176   6.627   9.019 -0.9025 -0.3170 -0.3438
  484MOL0     H63872   0.946   6.385   9.244 -0.6241 -0.2695 -0.7642
  484MOL0     H63873   0.844   6.187   9.367 -0.5753  0.7588  0.6284
  484MOL0     H63874   0.784   4.592  10.403  0.8192  0.4174 -0.8929
  484MOL0     H63875   0.874   4.553  10.625 -2.0033  1.7914  1.5172
  484MOL0     H63876   1.341   4.783  10.922 -0.9497  1.3515 -0.7347
  484MOL0     H63877   1.400   4.723  11.169 -2.3309  1.4078  1.3927
  484MOL0     H63878   1.343   4.751  11.381 -1.9473  0.0168 -2.1494
  484MOL0     H63879   1.442   4.598  11.381 -0.5020 -1.9297 -0.0614
  484MOL0     H63880   1.383   4.693  11.604 -0.1445  1.5560  0.1726
  484MOL0     H63881   1.217   4.659  11.573 -1.3735 -2.8014 -0.4462
  484MOL0     H63882   1.456   4.481  11.608  0.2864  0.3401  3.6875
  484MOL0     H63883   1.321   4.405  11.542  1.8985 -1.2941  1.4878
  484MOL0     H63884   1.342   4.545  11.823 -1.3824 -1.1314  1.3114
  484MOL0     H63885   1.192   4.472  11.780 -1.4111 -0.5046 -0.9354
  484MOL0     H63886   1.398   4.136  11.896 -2.2303 -0.7937 -0.6925
  484MOL0     H63887   1.015   4.533  11.198 -0.3671  0.4553  0.2924
  484MOL0     H63888   0.946   4.638  10.997 -0.2474  0.9144  2.1662
  485MOL0     O63889   6.890   5.208   2.284 -0.0059  0.2065  0.3429
  485MOL0     C63890   6.892   5.287   2.378  0.5709  0.3100 -0.3081
  485MOL0     O63891   7.008   5.307   2.459  0.8467 -0.8965  0.2939
  485MOL0     C63892   7.126   5.265   2.403  0.4992  0.2922  0.0402
  485MOL0     C63893   7.157   5.131   2.381 -0.8128  0.0273 -0.2086
  485MOL0     C63894   7.267   5.092   2.315 -0.1234 -0.7753  0.2447
  485MOL0     C63895   7.369   5.185   2.281  0.7316 -0.1201 -0.3047
  485MOL0     O63896   7.482   5.150   2.216  0.2819 -0.4849 -0.8801
  485MOL0     C63897   7.581   5.118   2.310 -0.2220 -0.0436  0.2193
  485MOL0     C63898   7.720   5.107   2.249 -0.3324  0.2153  0.6157
  485MOL0     C63899   7.707   5.003   2.135  0.2273  0.4311 -0.7224
  485MOL0     C63900   7.837   4.991   2.052  0.7403  0.9956 -1.0545
  485MOL0     C63901   7.841   4.873   1.949 -0.5632 -0.1322 -0.1664
  485MOL0     C63902   7.992   4.840   1.926  0.6677  0.1142 -0.1645
  485MOL0     C63903   8.011   4.695   1.865  0.6127 -1.3148  0.0991
  485MOL0     C63904   8.145   4.631   1.884 -0.1235  0.4475 -0.3925
  485MOL0     N63905   8.163   4.486   1.855 -0.4432 -0.5889 -0.2302
  485MOL0     C63906   8.107   4.429   1.736  0.0411 -0.8251  0.8163
  485MOL0     C63907   8.185   4.324   1.711  0.7452  0.5886  0.3216
  485MOL0     C63908   8.182   4.238   1.584 -0.3595  0.2172 -0.6370
  485MOL0     C63909   8.125   4.097   1.588  0.5440 -0.9102 -0.4151
  485MOL0     C63910   8.162   4.032   1.456 -0.6516 -0.5280 -0.0333
  485MOL0     C63911   8.085   3.904   1.413  0.3437  0.8427  0.9163
  485MOL0     O63912   8.163   3.810   1.330 -0.3681 -0.0799  0.5279
  485MOL0     C63913   8.196   3.849   1.200  0.4614 -0.8945 -0.1460
  485MOL0     C63914   8.308   3.788   1.147  0.2095  0.2353 -0.0627
  485MOL0     C63915   8.342   3.810   1.006 -0.0463 -0.1932  0.8936
  485MOL0     C63916   8.277   3.906   0.928 -0.1576 -0.3653  0.6169
  485MOL0     C63917   8.333   3.943   0.799 -0.5807  0.0994  0.6756
  485MOL0     O63918   8.434   3.859   0.755  0.0320  0.3843 -0.6760
  485MOL0     C63919   8.516   3.906   0.654 -0.4935 -1.0828  0.2873
  485MOL0     C63920   8.479   3.913   0.518 -0.5374 -0.1020  0.7435
  485MOL0     C63921   8.570   3.961   0.423  0.7240 -0.2734 -0.5395
  485MOL0     C63922   8.694   4.011   0.464  0.8017  0.7404 -0.4523
  485MOL0     O63923   8.794   4.049   0.381 -0.2384  0.2625  0.2503
  485MOL0     C63924   8.861   3.931   0.320  0.9889 -0.2178  0.6192
  485MOL0     C63925   8.947   3.980   0.202 -0.3985 -0.3207 -0.0846
  485MOL0     C63926   9.048   4.084   0.250  0.5386 -0.0358 -1.1719
  485MOL0     C63927   9.129   4.146   0.128  0.0610  0.2686 -0.1760
  485MOL0     C63928   9.250   4.220   0.154 -0.1517  0.5538  0.0238
  485MOL0     C63929   9.233   4.351   0.217  0.7594 -0.6959 -0.0380
  485MOL0     C63930   9.379   4.413   0.222  0.5265  0.3319  0.2544
  485MOL0     C63931   9.386   4.519   0.323  0.0153 -0.4961  0.2143
  485MOL0    Cl63932   9.299   4.657   0.258  0.0443  0.2603  0.3854
  485MOL0     C63933   8.722   4.016   0.604 -0.6167  0.1183  0.7781
  485MOL0     C63934   8.632   3.969   0.692  0.3521  0.2808  1.0279
  485MOL0     O63935   8.312   4.050   0.749  0.4250 -0.0721  0.2478
  485MOL0     C63936   8.158   3.962   0.979  0.5663 -0.1554  0.3699
  485MOL0     C63937   8.118   3.944   1.122  0.1861  0.1825 -1.4351
  485MOL0     N63938   8.280   4.312   1.807 -0.3697 -0.2801 -0.5696
  485MOL0     N63939   8.259   4.406   1.891 -0.3029  0.1703 -0.4388
  485MOL0     C63940   7.331   5.318   2.292  0.4973  1.1106  0.2412
  485MOL0     C63941   7.204   5.355   2.338  0.0656 -0.8009  0.0586
  485MOL0     C63942   6.759   5.351   2.416 -0.3756  0.0506 -1.4869
  485MOL0     C63943   6.755   5.487   2.457  0.1816 -0.3556  0.7473
  485MOL0     C63944   6.636   5.553   2.489  0.1861  0.1293 -0.5163
  485MOL0     C63945   6.513   5.488   2.477 -1.6618 -0.2358  0.0796
  485MOL0     O63946   6.401   5.559   2.490 -0.0198 -0.1312 -0.3315
  485MOL0     C63947   6.375   5.662   2.398 -0.2349 -0.2067 -0.3010
  485MOL0     C63948   6.322   5.609   2.275 -0.3786 -0.2532 -0.7996
  485MOL0     C63949   6.200   5.513   2.294  0.5906 -0.0032  0.2114
  485MOL0     C63950   6.137   5.485   2.152 -0.5206  0.8443  0.0592
  485MOL0     C63951   6.038   5.584   2.133  0.3632 -0.0166 -0.2215
  485MOL0     C63952   5.947   5.672   2.117 -1.0677  0.5024 -0.6257
  485MOL0     C63953   6.518   5.350   2.435  0.2271 -0.4794  0.1860
  485MOL0     C63954   6.638   5.289   2.398 -0.0635 -0.9853 -0.0790
  485MOL0     H63955   7.086   5.056   2.414 -0.1242 -0.1076  1.0336
  485MOL0     H63956   7.292   4.989   2.295  1.1456 -0.4784  0.2515
  485MOL0     H63957   7.569   5.022   2.362 -0.4165 -0.9340 -1.4103
  485MOL0     H63958   7.593   5.201   2.380 -2.4213  0.4033  0.1339
  485MOL0     H63959   7.797   5.071   2.317  1.2913  0.4997 -0.9841
  485MOL0     H63960   7.762   5.200   2.209 -0.6024 -0.5205 -1.5413
  485MOL0     H63961   7.625   5.030   2.067 -1.2721  1.2521  1.3273
  485MOL0     H63962   7.690   4.908   2.187  0.9335  1.5508  1.6867
  485MOL0     H63963   7.841   5.085   1.996 -2.7328  0.6281 -2.1422
  485MOL0     H63964   7.916   4.974   2.126  0.4762 -0.6747 -1.1159
  485MOL0     H63965   7.780   4.893   1.860 -0.0696  1.3273 -0.2051
  485MOL0     H63966   7.797   4.783   1.993  1.4011 -0.7796  0.5706
  485MOL0     H63967   8.046   4.842   2.021 -0.2926 -4.5435  0.6964
  485MOL0     H63968   8.029   4.919   1.859 -0.2534 -0.6910 -1.6942
  485MOL0     H63969   7.941   4.616   1.893  0.9275 -1.2823  0.9902
  485MOL0     H63970   7.999   4.701   1.756  1.4153 -2.7593 -0.0899
  485MOL0     H63971   8.164   4.639   1.992  2.3610 -2.9970 -0.4265
  485MOL0     H63972   8.220   4.684   1.825 -0.2841 -2.2945 -3.2783
  485MOL0     H63973   8.035   4.473   1.668  1.9928  0.1647 -0.7614
  485MOL0     H63974   8.285   4.227   1.548 -0.1375 -1.9206  0.4922
  485MOL0     H63975   8.133   4.295   1.504 -1.7398 -0.6379 -0.4246
  485MOL0     H63976   8.015   4.094   1.585  0.3452  2.7977 -2.7932
  485MOL0     H63977   8.172   4.033   1.663 -1.6726 -0.7053  1.2572
  485MOL0     H63978   8.153   4.101   1.372 -3.0846  0.0324  0.6010
  485MOL0     H63979   8.266   4.000   1.464 -0.8854 -1.0042  1.5062
  485MOL0     H63980   7.991   3.932   1.365  0.3348  3.2025  2.1234
  485MOL0     H63981   8.051   3.840   1.495 -0.8723 -1.2316 -1.0859
  485MOL0     H63982   8.350   3.722   1.223  0.3709  0.9546  0.4823
  485MOL0     H63983   8.420   3.748   0.961 -2.4404 -1.3051 -2.0304
  485MOL0     H63984   8.387   3.869   0.482 -0.9723  0.2903  1.3740
  485MOL0     H63985   8.542   3.967   0.319 -1.9979  0.0796  0.1168
  485MOL0     H63986   8.795   3.853   0.282  1.1798  0.3456 -0.9635
  485MOL0     H63987   8.914   3.891   0.407 -2.6426  0.1654  3.2174
  485MOL0     H63988   8.871   4.008   0.130  0.5776 -1.9311 -1.8186
  485MOL0     H63989   8.996   3.892   0.159 -1.2860 -0.0206 -1.7567
  485MOL0     H63990   9.118   4.044   0.324 -2.6837 -0.4773  1.9188
  485MOL0     H63991   9.003   4.160   0.315  1.6752 -0.3032 -0.0140
  485MOL0     H63992   9.158   4.061   0.066 -0.9744  0.5386 -1.0592
  485MOL0     H63993   9.060   4.201   0.064  0.1107  1.3442  0.6620
  485MOL0     H63994   9.313   4.210   0.065  1.4137 -3.2627  1.3535
  485MOL0     H63995   9.319   4.165   0.219  1.0188  0.7938 -0.9693
  485MOL0     H63996   9.173   4.347   0.309 -0.7270 -0.8345 -0.9746
  485MOL0     H63997   9.171   4.411   0.149  0.0377  0.0768  1.2467
  485MOL0     H63998   9.449   4.332   0.247 -0.7952 -1.2245 -0.8303
  485MOL0     H63999   9.407   4.445   0.121  1.2504 -2.2326 -0.4325
  485MOL0     H64000   9.491   4.542   0.340  0.0632 -1.2852  1.0344
  485MOL0     H64001   9.352   4.487   0.422  1.0753  0.9402  1.0836
  485MOL0     H64002   8.811   4.064   0.643  0.2052 -1.2184  0.6042
  485MOL0     H64003   8.650   3.982   0.798  2.5043  0.6061  0.6759
  485MOL0     H64004   8.089   4.032   0.933  0.0856  0.9653  2.6776
  485MOL0     H64005   8.028   3.983   1.167 -0.7513 -2.0584 -1.2478
  485MOL0     H64006   7.397   5.382   2.235  1.1450 -2.1470 -3.1064
  485MOL0     H64007   7.181   5.460   2.326  0.5417 -0.8292 -1.2153
  485MOL0     H64008   6.854   5.531   2.449 -0.3444  0.5856 -0.9789
  485MOL0     H64009   6.652   5.660   2.492  1.5415 -0.0498  2.4814
  485MOL0     H64010   6.464   5.723   2.384 -0.0424 -0.5584 -0.6389
  485MOL0     H64011   6.309   5.730   2.453  2.7536  1.3853  1.5872
  485MOL0     H64012   6.286   5.696   2.219 -0.5105 -0.3619 -0.8863
  485MOL0     H64013   6.405   5.562   2.221  2.7486  1.3281  2.2748
  485MOL0     H64014   6.127   5.562   2.360 -0.0601 -0.5858 -0.0683
  485MOL0     H64015   6.236   5.425   2.348  1.4159  1.5762  2.4199
  485MOL0     H64016   6.220   5.494   2.081  0.1514  1.4918  0.8890
  485MOL0     H64017   6.086   5.389   2.147 -1.4969  1.4138 -2.2508
  485MOL0     H64018   5.864   5.739   2.114 -1.5488  0.2316  2.8659
  485MOL0     H64019   6.429   5.288   2.425 -1.3075  1.2502  2.1493
  485MOL0     H64020   6.625   5.193   2.350  3.1398 -1.6533  0.1895
  486MOL0     O64021   4.714   8.189   2.953  0.2231  0.0287 -0.0048
  486MOL0     C64022   4.808   8.201   3.030 -0.1490  0.9365 -0.5424
  486MOL0     O64023   4.830   8.310   3.111 -0.4589 -0.2606  0.4382
  486MOL0     C64024   4.771   8.438   3.100 -0.5203 -0.0869 -0.0975
  486MOL0     C64025   4.809   8.526   3.004 -0.0006 -0.9580 -0.2565
  486MOL0     C64026   4.730   8.644   2.977 -0.4330  0.8547  0.2743
  486MOL0     C64027   4.617   8.676   3.066  0.7893  0.2017 -0.5457
  486MOL0     O64028   4.543   8.793   3.071 -0.7339  0.0826 -0.3893
  486MOL0     C64029   4.643   8.905   3.075  0.1099  0.6495 -0.1856
  486MOL0     C64030   4.573   9.022   3.152 -0.7888 -0.2728 -0.0120
  486MOL0     C64031   4.658   9.143   3.186  0.7349  0.0208 -0.8529
  486MOL0     C64032   4.579   9.251   3.256 -0.2276 -0.0900  1.0280
  486MOL0     C64033   4.660   9.334   3.352 -0.3428 -0.8310  0.6540
  486MOL0     C64034   4.595   9.460   3.397  0.6911 -0.6374  0.0004
  486MOL0     C64035   4.447   9.428   3.432  0.6207 -0.2107 -0.1240
  486MOL0     C64036   4.365   9.535   3.521 -0.3783 -0.1384 -0.1683
  486MOL0     N64037   4.310   9.639   3.425 -0.6986  0.0896 -0.9057
  486MOL0     C64038   4.198   9.623   3.340 -1.0368 -0.0385 -0.0684
  486MOL0     C64039   4.170   9.742   3.297 -0.3355 -0.3419  0.5433
  486MOL0     C64040   4.051   9.782   3.201 -1.0563  0.1922 -0.6039
  486MOL0     C64041   3.929   9.697   3.219 -0.2098  0.3533 -1.0802
  486MOL0     C64042   3.821   9.750   3.122  0.0381 -0.1441 -0.3579
  486MOL0     C64043   3.684   9.681   3.140 -1.1042 -0.6233  0.2633
  486MOL0     O64044   3.695   9.537   3.132 -0.0685 -0.0839  0.4804
  486MOL0     C64045   3.721   9.460   3.020 -0.2783 -0.1150  0.2774
  486MOL0     C64046   3.750   9.518   2.889  0.5490  0.7036 -0.5540
  486MOL0     C64047   3.789   9.447   2.778  0.5065 -0.2845 -0.3552
  486MOL0     C64048   3.809   9.313   2.787  0.0693 -0.6260  0.0879
  486MOL0     C64049   3.824   9.248   2.661  0.0127 -0.1575  0.0997
  486MOL0     O64050   3.934   9.292   2.580  0.6295 -0.7237  0.2135
  486MOL0     C64051   3.956   9.216   2.477 -0.6841  0.2779  1.0911
  486MOL0     C64052   4.093   9.193   2.455 -0.1490 -0.2932  0.3354
  486MOL0     C64053   4.131   9.127   2.334  0.3906  0.5887 -0.7088
  486MOL0     C64054   4.034   9.106   2.241  0.4131  0.1078  0.2563
  486MOL0     O64055   4.070   9.050   2.112  0.4831 -0.0976 -0.6400
  486MOL0     C64056   4.203   9.039   2.064 -0.7460  0.0727  0.2075
  486MOL0     C64057   4.192   9.001   1.912  0.2794  0.0588 -0.0649
  486MOL0     C64058   4.175   8.852   1.870 -0.3782 -1.5222 -0.0418
  486MOL0     C64059   4.056   8.784   1.933  0.3668  0.0673  0.3336
  486MOL0     C64060   3.920   8.848   1.900 -0.3921 -0.0401  0.4332
  486MOL0     C64061   3.818   8.817   2.003  0.6153  0.4025 -0.6607
  486MOL0     C64062   3.681   8.881   1.959  1.1098  0.1261  0.0366
  486MOL0     C64063   3.551   8.820   2.025  0.5951 -0.6195 -0.9310
  486MOL0    Cl64064   3.561   8.833   2.202 -0.2349 -0.2906 -0.0389
  486MOL0     C64065   3.901   9.136   2.255 -0.0017  1.5241 -0.3920
  486MOL0     C64066   3.854   9.185   2.377  0.2177 -0.5295 -0.5136
  486MOL0     O64067   3.752   9.154   2.641  0.3766 -0.2154 -0.5137
  486MOL0     C64068   3.792   9.245   2.908  0.6275 -0.0347 -0.2227
  486MOL0     C64069   3.741   9.321   3.027 -0.7712 -0.5585  0.4367
  486MOL0     N64070   4.267   9.830   3.347 -1.1513  0.5313 -0.1002
  486MOL0     N64071   4.346   9.771   3.424  0.4129  0.5880 -0.4875
  486MOL0     C64072   4.578   8.580   3.158  0.6524  0.3383 -0.2477
  486MOL0     C64073   4.653   8.465   3.172  0.2479 -0.4402 -0.3872
  486MOL0     C64074   4.907   8.085   3.046  0.3773 -0.8250 -1.0784
  486MOL0     C64075   4.913   7.970   2.963  0.5445 -0.3791  0.2881
  486MOL0     C64076   5.003   7.870   2.976  0.4843  0.0543 -0.4375
  486MOL0     C64077   5.102   7.881   3.077 -0.3864 -0.3955  1.2859
  486MOL0     O64078   5.215   7.785   3.085  0.2271 -0.4907  0.0537
  486MOL0     C64079   5.210   7.655   3.018  0.0170  0.1367 -0.6794
  486MOL0     C64080   5.334   7.648   2.934  0.3098  0.1743 -0.0462
  486MOL0     C64081   5.430   7.540   2.999 -0.0989  0.2519  0.6587
  486MOL0     C64082   5.583   7.559   2.965 -1.5155  0.1834  0.1361
  486MOL0     C64083   5.636   7.674   3.033 -0.0050 -0.1005 -1.4516
  486MOL0     C64084   5.656   7.771   3.101 -0.0891 -0.4253 -0.0840
  486MOL0     C64085   5.102   7.996   3.165 -0.0481  0.5891 -0.8824
  486MOL0     C64086   4.994   8.086   3.152  0.1197 -0.1318  0.3504
  486MOL0     H64087   4.898   8.501   2.946  1.2399  1.0309  0.6841
  486MOL0     H64088   4.752   8.719   2.901  0.4738 -0.8071 -1.1669
  486MOL0     H64089   4.683   8.944   2.981 -0.6232  0.1685 -0.7035
  486MOL0     H64090   4.727   8.874   3.137  0.9529 -0.1967 -1.6817
  486MOL0     H64091   4.545   8.972   3.245  3.2007 -1.6594  0.6117
  486MOL0     H64092   4.489   9.060   3.093 -1.7631 -3.2917 -0.7304
  486MOL0     H64093   4.687   9.183   3.088  0.1078  0.1834 -0.9784
  486MOL0     H64094   4.756   9.116   3.227  0.5279 -1.6575 -1.3931
  486MOL0     H64095   4.525   9.313   3.183 -2.7003  1.3209  3.8375
  486MOL0     H64096   4.500   9.198   3.309 -2.8185 -1.1953 -3.4259
  486MOL0     H64097   4.759   9.360   3.311 -1.3633  1.0645 -0.7776
  486MOL0     H64098   4.683   9.276   3.442  0.2608 -0.4910  0.7273
  486MOL0     H64099   4.584   9.542   3.326  0.3883  0.9447  1.8158
  486MOL0     H64100   4.643   9.497   3.488  0.3029  2.4251 -0.9444
  486MOL0     H64101   4.395   9.407   3.337  1.0156 -0.3030 -0.3215
  486MOL0     H64102   4.451   9.333   3.485 -1.2060 -0.5553 -0.5143
  486MOL0     H64103   4.431   9.575   3.599 -1.2744 -0.1036  0.5916
  486MOL0     H64104   4.279   9.489   3.570 -1.3022  1.6635 -0.0133
  486MOL0     H64105   4.148   9.526   3.338  3.3288 -2.6990  2.6612
  486MOL0     H64106   4.080   9.789   3.096 -2.2122  0.5395 -0.9152
  486MOL0     H64107   4.039   9.884   3.238  0.6624 -0.3172  1.6194
  486MOL0     H64108   3.898   9.702   3.324  1.7852  2.6013 -0.5209
  486MOL0     H64109   3.953   9.593   3.194 -1.6234 -0.2008 -0.2693
  486MOL0     H64110   3.805   9.856   3.144  1.2661  0.3166 -1.5331
  486MOL0     H64111   3.847   9.733   3.017  2.2463  1.8828 -0.2104
  486MOL0     H64112   3.630   9.721   3.054 -2.0104  5.4113  3.1104
  486MOL0     H64113   3.623   9.718   3.223 -0.4089  0.4074  0.3411
  486MOL0     H64114   3.728   9.624   2.877 -2.8609  0.2055  0.2716
  486MOL0     H64115   3.781   9.487   2.677 -0.8378  2.4277  0.7507
  486MOL0     H64116   4.180   9.218   2.514 -0.1254  0.0142  0.1711
  486MOL0     H64117   4.229   9.087   2.310  0.8701 -0.6212  2.6921
  486MOL0     H64118   4.254   8.957   2.116 -0.3180 -1.4081 -2.3962
  486MOL0     H64119   4.267   9.127   2.080  0.5245 -0.7747 -0.0506
  486MOL0     H64120   4.285   9.031   1.863 -0.1346 -1.1730 -1.6768
  486MOL0     H64121   4.121   9.067   1.864 -1.0926 -0.6343  0.9341
  486MOL0     H64122   4.267   8.798   1.894  0.5506 -0.1090 -0.3488
  486MOL0     H64123   4.156   8.847   1.763 -4.5069 -1.5076  0.5347
  486MOL0     H64124   4.061   8.681   1.896  0.5222  0.5865 -1.1564
  486MOL0     H64125   4.088   8.784   2.038 -0.8234 -3.0771  0.8147
  486MOL0     H64126   3.888   8.819   1.800  0.2841 -1.4563  0.5952
  486MOL0     H64127   3.931   8.956   1.895  1.3149 -0.2427 -2.9377
  486MOL0     H64128   3.844   8.859   2.100 -0.0463 -0.8255  0.0820
  486MOL0     H64129   3.811   8.708   2.000 -3.2942  0.5052 -3.9226
  486MOL0     H64130   3.684   8.989   1.972 -0.0061  0.2839 -0.8640
  486MOL0     H64131   3.669   8.861   1.852  1.2757 -0.3721  0.1056
  486MOL0     H64132   3.541   8.715   1.998 -0.6043 -0.8537  0.2965
  486MOL0     H64133   3.467   8.867   1.973 -1.3905 -1.5325  1.2775
  486MOL0     H64134   3.825   9.114   2.181 -2.8881  1.4601  2.3499
  486MOL0     H64135   3.750   9.218   2.385  1.2270  2.3854  3.5907
  486MOL0     H64136   3.785   9.137   2.916  1.2558 -0.0395  0.3471
  486MOL0     H64137   3.734   9.253   3.111 -0.0261 -3.9151 -1.9680
  486MOL0     H64138   4.485   8.580   3.216  0.1766 -4.4471 -0.6044
  486MOL0     H64139   4.631   8.388   3.246 -0.8057  0.9442  0.8257
  486MOL0     H64140   4.842   7.979   2.881 -0.5542  2.0791  1.3979
  486MOL0     H64141   4.991   7.799   2.895 -1.1010 -0.2412  0.0234
  486MOL0     H64142   5.124   7.645   2.951  0.3045 -3.2970 -0.7326
  486MOL0     H64143   5.199   7.573   3.089 -2.2685  0.8209 -0.1458
  486MOL0     H64144   5.303   7.608   2.837 -1.2100  0.3648  0.3434
  486MOL0     H64145   5.386   7.743   2.915 -0.0201  0.5501  0.8610
  486MOL0     H64146   5.403   7.437   2.973  1.5417 -0.2509  0.8476
  486MOL0     H64147   5.424   7.560   3.106 -0.1285  1.0775  0.5093
  486MOL0     H64148   5.638   7.470   2.994 -4.5971 -1.5618  1.0928
  486MOL0     H64149   5.595   7.574   2.857  0.7733 -2.5792 -0.1059
  486MOL0     H64150   5.672   7.859   3.160 -2.7706  0.6941 -0.8786
  486MOL0     H64151   5.176   8.011   3.242  0.6729  1.4055 -1.7168
  486MOL0     H64152   5.009   8.181   3.202  2.9294 -0.1195 -0.3410
  487MOL0     O64153   2.176   6.416   0.483  0.4536 -0.1112  0.6535
  487MOL0     C64154   2.075   6.395   0.412  0.1166  0.3449 -0.2446
  487MOL0     O64155   2.050   6.283   0.337  0.0512 -0.5054  0.3908
  487MOL0     C64156   2.120   6.175   0.356  0.0402  0.3246  0.1266
  487MOL0     C64157   2.059   6.067   0.426  0.2039  0.0463  0.6229
  487MOL0     C64158   2.123   5.959   0.484  0.3054 -0.1720 -0.3702
  487MOL0     C64159   2.259   5.932   0.445  0.2198 -0.0521 -0.7125
  487MOL0     O64160   2.333   5.821   0.491  0.3811  0.0652  0.1189
  487MOL0     C64161   2.274   5.701   0.540 -0.3273  1.1499  0.0638
  487MOL0     C64162   2.385   5.595   0.559 -0.1492 -0.2275 -0.0111
  487MOL0     C64163   2.420   5.529   0.431  0.5334  0.2222 -1.2475
  487MOL0     C64164   2.531   5.423   0.446 -0.3986 -0.2890  0.0914
  487MOL0     C64165   2.588   5.373   0.307 -0.4409  0.1408  0.1122
  487MOL0     C64166   2.698   5.285   0.340 -0.1327 -0.4708 -0.0307
  487MOL0     C64167   2.750   5.221   0.217  0.5490 -0.7630  0.2724
  487MOL0     C64168   2.839   5.319   0.137  0.4006 -0.2372 -0.1942
  487MOL0     N64169   2.883   5.255   0.010  1.3015  0.2997 -0.4567
  487MOL0     C64170   2.806   5.255  -0.105  0.1381  0.7177 -0.2331
  487MOL0     C64171   2.875   5.172  -0.183 -1.2262 -0.8838  0.3765
  487MOL0     C64172   2.833   5.132  -0.321 -0.8753  0.0466 -0.5884
  487MOL0     C64173   2.919   5.005  -0.363 -0.8904  0.7161  0.0828
  487MOL0     C64174   2.889   4.879  -0.272 -0.0908 -1.2842 -0.0913
  487MOL0     C64175   2.909   4.748  -0.324 -0.9998 -0.2273  0.2308
  487MOL0     O64176   2.825   4.728  -0.445  1.0720 -0.7473 -0.5317
  487MOL0     C64177   2.863   4.638  -0.528 -0.5717  1.3227 -0.6991
  487MOL0     C64178   2.939   4.522  -0.496  0.0934 -0.2653 -0.5190
  487MOL0     C64179   2.966   4.424  -0.583 -0.5152  0.2886  0.2603
  487MOL0     C64180   2.945   4.434  -0.721  1.2609  0.4930  0.5737
  487MOL0     C64181   2.966   4.329  -0.823  0.2877 -0.0479  0.7465
  487MOL0     O64182   3.019   4.211  -0.781 -0.6027  0.0203  0.3118
  487MOL0     C64183   3.030   4.116  -0.880  0.1594 -0.5637 -0.9449
  487MOL0     C64184   3.132   4.124  -0.974 -0.2175 -1.0484 -0.3367
  487MOL0     C64185   3.152   4.028  -1.070  0.0666  0.5093  0.9293
  487MOL0     C64186   3.052   3.931  -1.079 -0.0444 -0.4094  0.3104
  487MOL0     O64187   3.051   3.842  -1.180 -0.2464  0.8306  0.2183
  487MOL0     C64188   2.985   3.889  -1.291 -0.4963 -0.2535 -0.0599
  487MOL0     C64189   3.018   3.784  -1.396  0.8328 -0.1307 -0.4134
  487MOL0     C64190   3.004   3.848  -1.535  0.0586  0.0652 -0.1732
  487MOL0     C64191   3.038   3.760  -1.656 -0.7465 -0.7894  1.2436
  487MOL0     C64192   3.027   3.854  -1.772 -1.0798 -0.0283 -0.9004
  487MOL0     C64193   3.057   3.775  -1.904 -0.4811  0.5337  0.0434
  487MOL0     C64194   3.071   3.870  -2.026  0.4567  0.3856 -0.2844
  487MOL0     C64195   3.079   3.803  -2.165  0.5533  0.1969  0.7765
  487MOL0    Cl64196   2.919   3.727  -2.194  0.0924  0.3012  0.2134
  487MOL0     C64197   2.959   3.918  -0.987  0.4831  1.7883  0.5118
  487MOL0     C64198   2.944   4.006  -0.882  0.3686  0.2737 -0.5068
  487MOL0     O64199   2.941   4.371  -0.939 -0.5366 -0.1801  0.3248
  487MOL0     C64200   2.870   4.550  -0.752 -0.2113 -0.1065 -0.0977
  487MOL0     C64201   2.831   4.649  -0.659 -0.0643 -0.5135 -0.4387
  487MOL0     N64202   3.000   5.139  -0.131  0.4693  0.2518 -0.4805
  487MOL0     N64203   3.007   5.195  -0.008  0.5781 -0.5639 -1.2566
  487MOL0     C64204   2.326   6.030   0.368  0.1934  0.3181 -0.9116
  487MOL0     C64205   2.259   6.152   0.329 -0.6391  0.3147  0.4249
  487MOL0     C64206   1.994   6.523   0.380 -0.1798  0.3196 -0.1209
  487MOL0     C64207   1.861   6.513   0.333 -0.2380  0.1500  0.4509
  487MOL0     C64208   1.782   6.625   0.320 -0.3119 -0.8297  0.5939
  487MOL0     C64209   1.820   6.746   0.371 -0.2352  0.3031 -0.7936
  487MOL0     O64210   1.753   6.867   0.375  1.2232 -0.2283 -0.9139
  487MOL0     C64211   1.615   6.876   0.340  0.6680 -0.1020 -0.0990
  487MOL0     C64212   1.515   6.781   0.418 -0.3849  0.2773 -0.9167
  487MOL0     C64213   1.367   6.829   0.392 -0.0357  0.1830  0.8391
  487MOL0     C64214   1.266   6.818   0.503 -0.1308  0.0945 -0.0241
  487MOL0     C64215   1.230   6.677   0.536  0.7062  0.1543 -0.0673
  487MOL0     C64216   1.204   6.566   0.565 -0.5554 -0.2300  0.0483
  487MOL0     C64217   1.947   6.752   0.423  0.5764  0.1765  0.0650
  487MOL0     C64218   2.032   6.649   0.419  0.0471 -0.5522  0.3439
  487MOL0     H64219   1.951   6.077   0.423  0.3603  1.9795 -1.6049
  487MOL0     H64220   2.066   5.884   0.537  0.6028 -1.6389 -2.0217
  487MOL0     H64221   2.209   5.663   0.460 -0.8069  2.5277 -0.2343
  487MOL0     H64222   2.216   5.724   0.629 -2.1245  0.6360 -0.9242
  487MOL0     H64223   2.356   5.524   0.637  2.2471 -2.0309 -0.6434
  487MOL0     H64224   2.481   5.635   0.593 -1.3909  1.5123  1.7101
  487MOL0     H64225   2.430   5.614   0.363 -1.9775  5.1207  3.6823
  487MOL0     H64226   2.336   5.471   0.391 -0.1806  1.7239 -1.9936
  487MOL0     H64227   2.619   5.472   0.487 -3.0891  4.8202  0.4841
  487MOL0     H64228   2.490   5.343   0.509 -0.3177  1.4481  2.4962
  487MOL0     H64229   2.619   5.461   0.249 -4.0979  2.2783  1.0938
  487MOL0     H64230   2.507   5.324   0.252 -0.9816 -1.5005  2.2308
  487MOL0     H64231   2.676   5.200   0.404  1.8447 -2.6211 -2.0169
  487MOL0     H64232   2.778   5.350   0.379 -0.4124 -0.9117  1.3146
  487MOL0     H64233   2.803   5.132   0.252 -1.3835 -1.6767  1.0156
  487MOL0     H64234   2.668   5.187   0.153 -1.9120  2.3444  1.5462
  487MOL0     H64235   2.936   5.337   0.185  0.8545 -3.5681  0.3894
  487MOL0     H64236   2.794   5.416   0.112 -0.6149 -0.3807  0.9787
  487MOL0     H64237   2.710   5.297  -0.135  1.3724  2.2842 -2.3089
  487MOL0     H64238   2.840   5.220  -0.385 -1.0966 -0.9416 -2.0335
  487MOL0     H64239   2.725   5.112  -0.330 -0.9836  0.9166 -1.3458
  487MOL0     H64240   3.023   5.034  -0.345 -0.7146  0.9769 -1.2398
  487MOL0     H64241   2.912   4.987  -0.470 -0.9958 -1.3867  0.4002
  487MOL0     H64242   2.952   4.891  -0.183  2.9907 -0.7090 -2.1781
  487MOL0     H64243   2.787   4.876  -0.232 -0.4058 -1.6964 -0.8930
  487MOL0     H64244   2.881   4.676  -0.247 -0.1644 -0.6230  0.1805
  487MOL0     H64245   3.016   4.748  -0.349 -1.0946  1.9420 -0.4167
  487MOL0     H64246   2.964   4.517  -0.391  0.6208 -0.1035 -0.6336
  487MOL0     H64247   3.013   4.331  -0.553  3.0949  1.7497 -0.3532
  487MOL0     H64248   3.200   4.208  -0.967 -1.2762 -0.2458  0.7053
  487MOL0     H64249   3.229   4.026  -1.146  0.1180  0.5752  0.9807
  487MOL0     H64250   3.038   3.974  -1.337  0.8238 -0.4481  1.0277
  487MOL0     H64251   2.876   3.895  -1.290 -0.8965 -4.4322  1.8936
  487MOL0     H64252   2.963   3.690  -1.386  0.0056  0.4756  1.3106
  487MOL0     H64253   3.120   3.750  -1.381  1.1370 -0.2649 -2.5648
  487MOL0     H64254   3.084   3.923  -1.533  0.0604  0.0448  0.5754
  487MOL0     H64255   2.899   3.876  -1.547 -0.8511 -2.5204  1.2244
  487MOL0     H64256   3.142   3.728  -1.641 -0.6621 -0.7073  0.8505
  487MOL0     H64257   2.970   3.674  -1.655 -1.4276 -0.2587  1.2317
  487MOL0     H64258   3.104   3.932  -1.765  0.1377 -1.2416 -0.4595
  487MOL0     H64259   2.926   3.895  -1.783 -1.2011 -0.6277 -2.3359
  487MOL0     H64260   2.985   3.694  -1.919  2.8182 -2.4686 -0.8734
  487MOL0     H64261   3.152   3.721  -1.898  0.0022  1.3512  0.0438
  487MOL0     H64262   2.989   3.942  -2.032  1.8897  2.1290  0.2249
  487MOL0     H64263   3.161   3.931  -2.018  0.3768  0.8899 -2.5279
  487MOL0     H64264   3.158   3.727  -2.163  1.1197  0.6750 -1.3622
  487MOL0     H64265   3.088   3.870  -2.250  0.3126 -0.5118  0.1850
  487MOL0     H64266   2.882   3.842  -1.000 -0.9872  2.8671  2.3877
  487MOL0     H64267   2.864   4.010  -0.810 -0.2056 -1.3001 -1.0202
  487MOL0     H64268   2.841   4.568  -0.855 -0.1181 -1.8330 -0.4633
  487MOL0     H64269   2.766   4.731  -0.687 -0.5577 -0.0017  1.9218
  487MOL0     H64270   2.433   6.030   0.346  0.6157  1.6208  0.9305
  487MOL0     H64271   2.315   6.230   0.279 -2.7290  0.9703 -1.0258
  487MOL0     H64272   1.826   6.422   0.287  2.7320 -1.8706  1.8688
  487MOL0     H64273   1.682   6.615   0.279 -0.6691 -3.2532  1.8841
  487MOL0     H64274   1.614   6.851   0.234 -0.1232  2.3958 -0.7512
  487MOL0     H64275   1.583   6.979   0.354  1.8731  0.7720 -3.0356
  487MOL0     H64276   1.530   6.681   0.377  0.0150  0.0238 -0.1743
  487MOL0     H64277   1.534   6.799   0.524 -1.7341 -2.0457 -0.2061
  487MOL0     H64278   1.348   6.765   0.305  2.7041 -2.8740  2.2420
  487MOL0     H64279   1.365   6.935   0.367 -1.6241  0.4094  1.8479
  487MOL0     H64280   1.304   6.853   0.599 -2.1473  0.4498  0.6894
  487MOL0     H64281   1.176   6.873   0.473 -0.8243 -1.2730 -0.5281
  487MOL0     H64282   1.176   6.463   0.578  3.1566 -1.3446  0.4701
  487MOL0     H64283   1.980   6.843   0.472  1.1862 -0.5456  1.0228
  487MOL0     H64284   2.136   6.661   0.451  0.0867 -1.5192  0.5951
  488MOL0     O64285   4.687   1.566   2.787 -0.0482 -1.1751 -0.9828
  488MOL0     C64286   4.806   1.561   2.758 -0.2435  0.3234 -0.7784
  488MOL0     O64287   4.912   1.520   2.833  0.0513 -0.3947 -0.1970
  488MOL0     C64288   4.897   1.467   2.958 -0.7604  0.0019  0.3686
  488MOL0     C64289   5.008   1.495   3.042  0.6646  1.3556  0.1834
  488MOL0     C64290   5.012   1.450   3.176 -0.6017 -0.5566 -0.9073
  488MOL0     C64291   4.905   1.375   3.224  0.1744  0.3637  0.3679
  488MOL0     O64292   4.911   1.355   3.359 -0.6628  0.1913 -0.1901
  488MOL0     C64293   4.790   1.335   3.431  0.0674 -0.4008 -0.4928
  488MOL0     C64294   4.807   1.330   3.581 -0.3575  0.3665 -0.0176
  488MOL0     C64295   4.684   1.270   3.644  0.5245  0.6630 -0.0139
  488MOL0     C64296   4.686   1.266   3.803  0.1289 -0.0043  0.2641
  488MOL0     C64297   4.580   1.168   3.862 -0.3928  0.6771  0.1084
  488MOL0     C64298   4.581   1.178   4.016  0.4747  0.1208  0.2054
  488MOL0     C64299   4.546   1.048   4.076  0.0906  0.4521 -0.7929
  488MOL0     C64300   4.554   1.047   4.230  0.6120 -0.5517 -0.4747
  488MOL0     N64301   4.539   0.912   4.301  0.0978 -0.4406  0.4876
  488MOL0     C64302   4.595   0.887   4.423 -0.6104 -0.5455 -0.0547
  488MOL0     C64303   4.562   0.762   4.458 -0.5902 -1.3537  0.8518
  488MOL0     C64304   4.605   0.676   4.572  0.0554  0.0239 -0.5443
  488MOL0     C64305   4.488   0.613   4.652 -0.6438  0.8125  1.8320
  488MOL0     C64306   4.538   0.520   4.762 -0.3452  0.2623  0.5032
  488MOL0     C64307   4.542   0.586   4.897  0.2235 -0.5699  0.8920
  488MOL0     O64308   4.593   0.498   5.001 -0.0016 -0.4591  0.0840
  488MOL0     C64309   4.722   0.475   5.009  0.2745 -0.5874  0.1833
  488MOL0     C64310   4.762   0.339   5.001  0.2113 -0.4842 -0.3141
  488MOL0     C64311   4.892   0.297   5.011  0.7764  0.0548  1.2311
  488MOL0     C64312   4.995   0.398   5.023  0.3641 -0.3447 -0.0262
  488MOL0     C64313   5.139   0.353   5.035  0.4773  0.9441 -0.0710
  488MOL0     O64314   5.231   0.449   5.052 -0.2752  0.0057 -0.0590
  488MOL0     C64315   5.366   0.423   5.039 -0.0532 -0.1311  0.5456
  488MOL0     C64316   5.438   0.449   5.157  0.1134  0.2458  0.0433
  488MOL0     C64317   5.571   0.405   5.152 -0.0511 -0.4617  0.1955
  488MOL0     C64318   5.647   0.371   5.041  0.3392  0.5528 -0.3505
  488MOL0     O64319   5.783   0.365   5.042  0.2754  0.0728 -0.1845
  488MOL0     C64320   5.854   0.278   4.954  0.2398  0.2265 -0.2753
  488MOL0     C64321   6.004   0.301   4.964  0.4494  0.3352  0.3136
  488MOL0     C64322   6.079   0.187   4.889  0.0059 -0.4964 -0.2624
  488MOL0     C64323   6.229   0.225   4.882 -0.8945 -0.4149 -0.4781
  488MOL0     C64324   6.305   0.117   4.804  0.3169 -0.4176  0.6515
  488MOL0     C64325   6.465   0.139   4.797 -0.0611  0.0042 -0.0727
  488MOL0     C64326   6.535   0.016   4.743  0.7548 -0.3273  0.0509
  488MOL0     C64327   6.681   0.027   4.739 -0.1082 -0.2693  0.9812
  488MOL0    Cl64328   6.739   0.026   4.910 -0.1183 -0.4087  0.2467
  488MOL0     C64329   5.578   0.361   4.918  0.8410 -0.9079 -0.4120
  488MOL0     C64330   5.436   0.380   4.919  0.6754 -0.1732 -0.6569
  488MOL0     O64331   5.156   0.233   5.046 -0.2290  1.1917  0.2702
  488MOL0     C64332   4.956   0.529   5.049 -1.1414  0.7667  0.1121
  488MOL0     C64333   4.820   0.570   5.035 -1.0804 -0.0976 -0.5864
  488MOL0     N64334   4.479   0.714   4.358 -0.1022  0.2181  0.0142
  488MOL0     N64335   4.471   0.798   4.270  0.9033 -0.8094  0.3557
  488MOL0     C64336   4.794   1.354   3.144 -0.8313 -0.0058 -0.6134
  488MOL0     C64337   4.779   1.405   3.010  0.1112  0.4243  0.3431
  488MOL0     C64338   4.828   1.594   2.616  0.2345  0.2852  0.5414
  488MOL0     C64339   4.954   1.641   2.576 -0.1348 -0.1330 -0.2559
  488MOL0     C64340   4.966   1.684   2.446 -0.0339  0.5813  0.6709
  488MOL0     C64341   4.863   1.684   2.351 -0.5043 -0.4069 -0.5111
  488MOL0     O64342   4.887   1.747   2.235  0.0444 -0.7091  0.1339
  488MOL0     C64343   4.774   1.776   2.158 -0.0219 -0.5379  0.0351
  488MOL0     C64344   4.840   1.861   2.050  0.5583 -0.1853 -0.9940
  488MOL0     C64345   4.910   1.771   1.948 -0.0909  1.2737 -1.6625
  488MOL0     C64346   4.852   1.765   1.812 -0.0028 -0.1090 -0.2419
  488MOL0     C64347   4.887   1.894   1.754  0.1072 -0.3689  1.2920
  488MOL0     C64348   4.901   1.996   1.688 -0.4784 -0.6490  0.6706
  488MOL0     C64349   4.749   1.611   2.385  0.4316  0.2903 -0.0570
  488MOL0     C64350   4.727   1.572   2.515 -0.3047 -0.2890  0.5423
  488MOL0     H64351   5.086   1.557   3.001  0.0957  1.4358 -0.8116
  488MOL0     H64352   5.094   1.467   3.244 -3.1183  0.3102  2.1280
  488MOL0     H64353   4.740   1.240   3.409 -0.9582 -0.0926  0.4443
  488MOL0     H64354   4.716   1.412   3.406  0.9847  1.4077  1.9226
  488MOL0     H64355   4.828   1.434   3.611 -0.7206  0.7055 -0.9260
  488MOL0     H64356   4.897   1.269   3.596 -1.0402 -0.3040  1.5916
  488MOL0     H64357   4.678   1.166   3.610 -0.1413  1.6722 -3.3343
  488MOL0     H64358   4.589   1.318   3.617  0.0445 -0.6399 -0.7083
  488MOL0     H64359   4.789   1.243   3.829  0.6599  0.4107 -1.3363
  488MOL0     H64360   4.662   1.364   3.846  0.7726  0.5023 -0.4988
  488MOL0     H64361   4.622   1.071   3.835  1.3687  1.2064  0.8113
  488MOL0     H64362   4.478   1.154   3.827 -1.6739  0.0127  3.6853
  488MOL0     H64363   4.520   1.257   4.060  1.4352 -0.1428  2.1116
  488MOL0     H64364   4.684   1.204   4.043  0.9416 -1.3933 -0.0268
  488MOL0     H64365   4.445   1.020   4.043  1.4413 -1.0843 -4.0408
  488MOL0     H64366   4.602   0.969   4.027 -0.4931 -0.5966  0.1729
  488MOL0     H64367   4.469   1.105   4.266 -0.6549 -3.3506  1.4123
  488MOL0     H64368   4.649   1.089   4.264  0.5920 -1.7817  1.2475
  488MOL0     H64369   4.655   0.961   4.476 -0.3639  1.3523 -2.7275
  488MOL0     H64370   4.666   0.733   4.642  0.2360 -1.4375  0.5214
  488MOL0     H64371   4.667   0.595   4.534 -1.9146 -0.4524 -3.0820
  488MOL0     H64372   4.445   0.542   4.582 -0.2504 -1.0479  3.3936
  488MOL0     H64373   4.423   0.690   4.697 -0.2291  0.7938  2.4793
  488MOL0     H64374   4.471   0.435   4.772 -1.3702  1.2945  3.0208
  488MOL0     H64375   4.638   0.488   4.731  0.5600  3.1007  0.1150
  488MOL0     H64376   4.443   0.625   4.925  0.9575  0.4593  2.1735
  488MOL0     H64377   4.620   0.662   4.883 -0.0217 -0.1164  1.9318
  488MOL0     H64378   4.668   0.284   4.993 -0.3714  0.4161  0.1472
  488MOL0     H64379   4.906   0.190   4.999 -0.6092 -0.0053 -0.2547
  488MOL0     H64380   5.395   0.496   5.245  0.7451  0.8182  0.0489
  488MOL0     H64381   5.626   0.409   5.246  2.0206  0.0522 -0.9774
  488MOL0     H64382   5.835   0.300   4.849 -0.2410 -1.1094 -0.4831
  488MOL0     H64383   5.833   0.172   4.972  0.2448 -0.2510 -2.7354
  488MOL0     H64384   6.029   0.273   5.067  0.9259 -2.4245 -0.4654
  488MOL0     H64385   6.028   0.401   4.929  0.1073  0.1288 -0.5293
  488MOL0     H64386   6.051   0.191   4.783  1.1519 -0.5359 -0.5836
  488MOL0     H64387   6.059   0.086   4.926  0.6662 -0.4254  0.3076
  488MOL0     H64388   6.248   0.323   4.836  2.1601  0.3400  2.0181
  488MOL0     H64389   6.278   0.230   4.980 -1.5930  3.2606 -0.1604
  488MOL0     H64390   6.265   0.113   4.702 -0.0964  0.1605  0.7887
  488MOL0     H64391   6.290   0.018   4.848 -1.4050 -0.5902 -0.2064
  488MOL0     H64392   6.488   0.134   4.904  1.6260 -3.9991 -0.4437
  488MOL0     H64393   6.493   0.235   4.753  2.1442  0.3886  1.9941
  488MOL0     H64394   6.517  -0.073   4.805  1.3317  0.4057  1.3223
  488MOL0     H64395   6.490  -0.002   4.645 -0.5100 -0.5035  0.6379
  488MOL0     H64396   6.709   0.119   4.687  0.2630 -1.9865 -2.0729
  488MOL0     H64397   6.732  -0.053   4.684 -0.5079 -0.6148  1.1062
  488MOL0     H64398   5.632   0.340   4.827  4.1310  0.0315  1.1902
  488MOL0     H64399   5.379   0.360   4.828 -2.3728  1.8764  0.6255
  488MOL0     H64400   5.024   0.609   5.079 -1.8097  0.9892  1.0759
  488MOL0     H64401   4.796   0.673   5.057 -1.0678 -0.3517  0.6718
  488MOL0     H64402   4.712   1.293   3.181 -1.7812 -0.2785 -2.9916
  488MOL0     H64403   4.696   1.392   2.941  2.1645  2.5294 -2.8120
  488MOL0     H64404   5.030   1.658   2.652  1.2875  0.6598 -1.8074
  488MOL0     H64405   5.056   1.735   2.413 -1.9765  1.5285 -4.0850
  488MOL0     H64406   4.712   1.838   2.223  2.8914  1.8970  0.7231
  488MOL0     H64407   4.725   1.682   2.129 -0.0894 -0.8777  1.1977
  488MOL0     H64408   4.766   1.922   1.998  1.3975 -1.4347 -3.8855
  488MOL0     H64409   4.910   1.936   2.089  0.0575 -0.5106  0.5874
  488MOL0     H64410   4.898   1.666   1.978  2.0510  0.8334 -2.2020
  488MOL0     H64411   5.016   1.793   1.942  0.5708 -0.8684  0.4515
  488MOL0     H64412   4.898   1.682   1.757  0.0816  0.5459 -1.1955
  488MOL0     H64413   4.747   1.736   1.813 -0.4865  1.4343 -1.3436
  488MOL0     H64414   4.929   2.088   1.641 -0.8350  1.1941  3.7743
  488MOL0     H64415   4.669   1.583   2.317  1.4045 -2.3711 -0.2171
  488MOL0     H64416   4.635   1.520   2.537 -1.3657  1.8493  1.3986
  489MOL0     O64417   1.315  10.790   5.992 -0.1664  0.1989  0.1931
  489MOL0     C64418   1.197  10.769   6.016  0.0495  0.1073  0.5379
  489MOL0     O64419   1.149  10.722   6.133 -0.4395 -0.3054 -0.2987
  489MOL0     C64420   1.240  10.711   6.232  0.6238 -0.3231  0.6369
  489MOL0     C64421   1.204  10.762   6.357 -0.0737 -0.0569  0.4327
  489MOL0     C64422   1.291  10.746   6.472 -0.6977 -0.6640 -0.8034
  489MOL0     C64423   1.409  10.672   6.448  0.4460  0.6371 -0.1946
  489MOL0     O64424   1.480  10.644   6.567  0.0199 -0.2530  0.4395
  489MOL0     C64425   1.556  10.522   6.566  0.3760 -0.5747 -0.0926
  489MOL0     C64426   1.631  10.515   6.708  0.0010 -0.1353 -0.1769
  489MOL0     C64427   1.524  10.482   6.816 -0.3035  0.2137 -0.0443
  489MOL0     C64428   1.574  10.420   6.952  0.4212  0.1364  0.2109
  489MOL0     C64429   1.453  10.375   7.042  1.8468  0.3053 -0.4210
  489MOL0     C64430   1.475  10.235   7.077 -0.2452 -0.5752  0.1721
  489MOL0     C64431   1.434  10.137   6.965 -0.2632  0.1421 -0.9996
  489MOL0     C64432   1.421   9.996   7.017  0.5633  0.2155  0.4728
  489MOL0     N64433   1.412   9.892   6.909  0.7345  0.3867  0.1325
  489MOL0     C64434   1.327   9.905   6.795  0.0859  0.2470 -0.5689
  489MOL0     C64435   1.364   9.797   6.723  1.0639 -0.2991  0.1907
  489MOL0     C64436   1.332   9.765   6.568 -0.4805  0.1889 -1.7635
  489MOL0     C64437   1.425   9.804   6.462  0.4785  0.1639  0.1341
  489MOL0     C64438   1.565   9.735   6.452 -0.0428  0.6886 -0.4731
  489MOL0     C64439   1.668   9.799   6.354 -0.0161  0.1710  0.2781
  489MOL0     O64440   1.684   9.935   6.384  0.5614  0.7161  0.2417
  489MOL0     C64441   1.727   9.957   6.513  0.1014  0.0839 -0.6624
  489MOL0     C64442   1.667  10.062   6.592 -0.5570  0.7479 -1.2551
  489MOL0     C64443   1.705  10.086   6.726  0.1228  0.4932  1.2079
  489MOL0     C64444   1.804  10.002   6.783  0.8966  0.4921  0.1364
  489MOL0     C64445   1.848  10.006   6.922  0.2396  0.3159 -0.1070
  489MOL0     O64446   1.939   9.914   6.970  0.1799  0.0045  0.2401
  489MOL0     C64447   1.971   9.916   7.107  0.5616  0.6534 -0.0615
  489MOL0     C64448   2.030  10.016   7.183 -0.5470  1.1030  0.6609
  489MOL0     C64449   2.060   9.999   7.317 -0.3525  0.0560 -0.2113
  489MOL0     C64450   2.052   9.872   7.371  0.9380 -0.3857 -0.0282
  489MOL0     O64451   2.056   9.860   7.508 -0.3703 -0.2969 -0.3236
  489MOL0     C64452   2.156   9.761   7.545  0.2642  0.2791 -0.0925
  489MOL0     C64453   2.265   9.800   7.646  1.0084  1.1296 -0.1681
  489MOL0     C64454   2.343   9.927   7.623 -0.5864 -0.5406  0.0989
  489MOL0     C64455   2.428   9.927   7.485 -0.9905  0.3535 -0.5091
  489MOL0     C64456   2.485  10.063   7.450 -0.4584  0.1149 -0.3084
  489MOL0     C64457   2.382  10.155   7.399 -0.1324  0.4988  0.6749
  489MOL0     C64458   2.438  10.289   7.374  0.2464  0.4730 -1.4342
  489MOL0     C64459   2.348  10.390   7.305  1.2366  0.0748 -0.3523
  489MOL0    Cl64460   2.412  10.540   7.351  0.0136 -0.1929  0.2764
  489MOL0     C64461   1.978   9.776   7.301 -0.9626 -0.6165 -0.6239
  489MOL0     C64462   1.938   9.798   7.170 -0.4070  0.8368  0.4289
  489MOL0     O64463   1.800  10.091   6.992 -0.1637 -0.3953 -0.2295
  489MOL0     C64464   1.864   9.904   6.707 -0.1545 -0.2379 -0.2049
  489MOL0     C64465   1.828   9.881   6.575  0.7354 -0.4035 -0.7247
  489MOL0     N64466   1.461   9.727   6.779 -0.6052 -0.4515 -0.0120
  489MOL0     N64467   1.487   9.775   6.894  0.1872  0.2855 -0.1520
  489MOL0     C64468   1.443  10.613   6.325  0.0797 -0.3188  0.4044
  489MOL0     C64469   1.359  10.632   6.220  0.6733  0.0723 -0.1536
  489MOL0     C64470   1.102  10.792   5.900 -0.0928 -0.4896  0.5316
  489MOL0     C64471   1.143  10.813   5.768 -0.2199 -0.7787  0.3021
  489MOL0     C64472   1.063  10.853   5.661 -0.2225  0.3928 -0.0464
  489MOL0     C64473   0.923  10.858   5.678 -1.2486  1.1243  0.5152
  489MOL0     O64474   0.846  10.909   5.578  1.4319 -1.2040  0.5902
  489MOL0     C64475   0.704  10.928   5.605 -1.0542  0.0629  0.5022
  489MOL0     C64476   0.622  10.810   5.550  0.7159  0.8323  0.8492
  489MOL0     C64477   0.631  10.695   5.650 -0.1639  0.2286  0.1311
  489MOL0     C64478   0.547  10.567   5.610 -0.2401 -0.8013  0.1210
  489MOL0     C64479   0.559  10.460   5.715 -0.2788 -1.3486  0.1909
  489MOL0     C64480   0.578  10.369   5.797  0.2083 -0.3354  0.4322
  489MOL0     C64481   0.881  10.828   5.809  0.4992  0.4380 -0.7789
  489MOL0     C64482   0.963  10.799   5.919  0.4545 -0.5036 -0.1675
  489MOL0     H64483   1.114  10.821   6.368  0.1630  0.5870 -0.9658
  489MOL0     H64484   1.265  10.783   6.570  0.5362 -1.2989 -0.2237
  489MOL0     H64485   1.635  10.501   6.494  0.6184 -2.1796  0.5880
  489MOL0     H64486   1.483  10.441   6.557 -1.3825  0.9638 -0.2126
  489MOL0     H64487   1.669  10.617   6.721 -0.5371  0.5711 -3.2420
  489MOL0     H64488   1.722  10.454   6.709  0.3894  0.3854  1.8724
  489MOL0     H64489   1.455  10.412   6.768  0.5309 -2.4067  2.2947
  489MOL0     H64490   1.467  10.573   6.838  1.9078  1.3040  1.6118
  489MOL0     H64491   1.640  10.341   6.915  1.5314  2.3307 -2.9988
  489MOL0     H64492   1.616  10.501   7.013 -1.8645  1.1823  0.4973
  489MOL0     H64493   1.351  10.395   7.008  0.3227 -0.7651  3.0672
  489MOL0     H64494   1.454  10.439   7.131 -2.0798  0.5207 -0.3618
  489MOL0     H64495   1.405  10.216   7.159 -1.3357 -0.0182 -0.6058
  489MOL0     H64496   1.580  10.216   7.101  0.2582  1.9011  0.2186
  489MOL0     H64497   1.343  10.173   6.917 -0.9692 -0.6989 -0.3227
  489MOL0     H64498   1.509  10.138   6.885 -0.1719  0.1970 -0.9126
  489MOL0     H64499   1.331   9.983   7.078  0.1130  1.6567  0.1488
  489MOL0     H64500   1.511   9.977   7.076 -0.2248  1.9540  2.3632
  489MOL0     H64501   1.250   9.978   6.775  1.7405  3.5747  3.5443
  489MOL0     H64502   1.232   9.805   6.550 -0.3394  2.1680  1.0825
  489MOL0     H64503   1.318   9.657   6.563  1.1254 -0.0631 -1.4121
  489MOL0     H64504   1.439   9.912   6.476 -2.7476  0.5998  0.8980
  489MOL0     H64505   1.370   9.789   6.368 -4.3494  1.8773  2.3502
  489MOL0     H64506   1.607   9.730   6.553 -1.0116 -1.4514 -0.1193
  489MOL0     H64507   1.568   9.637   6.403 -0.5987  1.2336 -1.6389
  489MOL0     H64508   1.623   9.794   6.254  0.8735 -1.2578 -0.0922
  489MOL0     H64509   1.754   9.732   6.343 -4.1020 -6.4997  2.7561
  489MOL0     H64510   1.588  10.116   6.541 -0.0418  0.2063 -2.7043
  489MOL0     H64511   1.660  10.171   6.775 -0.8839 -0.1395  1.4112
  489MOL0     H64512   2.043  10.118   7.149 -2.3090  0.2873 -2.9801
  489MOL0     H64513   2.091  10.080   7.382  0.9877 -0.2044 -0.4875
  489MOL0     H64514   2.214   9.721   7.462 -0.7155 -0.1744 -0.5796
  489MOL0     H64515   2.091   9.682   7.584  0.9774 -0.9728 -1.3595
  489MOL0     H64516   2.330   9.712   7.652  1.5906  1.5901  0.3335
  489MOL0     H64517   2.207   9.813   7.737  1.0644 -0.2869  0.0912
  489MOL0     H64518   2.420   9.922   7.701 -1.3085  1.2418  0.9983
  489MOL0     H64519   2.276  10.013   7.623 -0.9478 -0.8167 -0.4096
  489MOL0     H64520   2.513   9.859   7.495  0.7244  2.7189  3.5660
  489MOL0     H64521   2.376   9.884   7.399  0.6891 -1.2915 -0.7677
  489MOL0     H64522   2.567  10.070   7.378  1.7878  2.3412  2.2078
  489MOL0     H64523   2.523  10.107   7.543 -1.5302 -1.9949  1.2142
  489MOL0     H64524   2.296  10.172   7.465 -2.0064  1.4150 -1.8111
  489MOL0     H64525   2.344  10.115   7.305 -2.2011 -1.5556  2.2665
  489MOL0     H64526   2.464  10.317   7.477 -2.5104 -2.9379  0.4044
  489MOL0     H64527   2.533  10.283   7.319 -0.2032 -1.3098 -2.1059
  489MOL0     H64528   2.247  10.394   7.348  0.4616  0.7986 -2.1384
  489MOL0     H64529   2.337  10.405   7.197 -1.9066  0.9921 -0.0206
  489MOL0     H64530   1.949   9.684   7.351  1.0641 -0.7011  0.5137
  489MOL0     H64531   1.899   9.715   7.111  0.0335  1.7794 -1.2437
  489MOL0     H64532   1.934   9.837   6.757  0.4723 -0.0744 -0.8450
  489MOL0     H64533   1.885   9.811   6.515  0.5870 -3.0145  1.9570
  489MOL0     H64534   1.531  10.555   6.301 -1.1331 -1.5239 -1.4099
  489MOL0     H64535   1.382  10.578   6.128  0.2417  2.2477 -1.6208
  489MOL0     H64536   1.250  10.803   5.753  0.4690 -0.5203  3.9635
  489MOL0     H64537   1.108  10.880   5.566  2.4530  4.9241  2.1673
  489MOL0     H64538   0.676  11.012   5.540 -0.7277 -1.1296 -1.2744
  489MOL0     H64539   0.680  10.949   5.709 -2.2450 -1.4584  0.5787
  489MOL0     H64540   0.516  10.837   5.542 -0.0925 -1.8371  1.5330
  489MOL0     H64541   0.649  10.778   5.449  0.8588 -2.0931  1.7104
  489MOL0     H64542   0.592  10.720   5.749  1.6065  2.4665  0.3563
  489MOL0     H64543   0.735  10.668   5.665  0.4662  1.6242 -1.3833
  489MOL0     H64544   0.440  10.589   5.601 -0.2139 -1.4064 -2.8781
  489MOL0     H64545   0.588  10.522   5.519  1.3681 -1.6687  1.2145
  489MOL0     H64546   0.586  10.282   5.859  0.0723 -1.1000 -0.5987
  489MOL0     H64547   0.779  10.832   5.847  0.7745  2.1604 -0.1693
  489MOL0     H64548   0.917  10.771   6.013  0.3488  2.4425  0.7606
  490MOL0     O64549   6.015   8.697   0.743  0.4059 -0.7099 -0.7762
  490MOL0     C64550   5.897   8.692   0.717 -0.0505  0.4079  0.7333
  490MOL0     O64551   5.837   8.591   0.649 -0.2438 -0.7072  0.3168
  490MOL0     C64552   5.916   8.490   0.602 -0.7750 -0.5818  0.1121
  490MOL0     C64553   5.966   8.389   0.693  0.4784  0.6628  1.2609
  490MOL0     C64554   6.042   8.278   0.647 -1.2377 -0.3584 -1.0250
  490MOL0     C64555   6.077   8.272   0.514  0.2115  0.1055 -1.6036
  490MOL0     O64556   6.152   8.169   0.452  0.2830 -0.6864  0.5239
  490MOL0     C64557   6.214   8.076   0.539 -0.4067 -0.6174 -0.2480
  490MOL0     C64558   6.305   7.990   0.453  0.1697 -0.6028  0.1835
  490MOL0     C64559   6.357   7.855   0.511  0.1851 -0.6784  0.3880
  490MOL0     C64560   6.434   7.859   0.633  0.5771  0.3621  0.0972
  490MOL0     C64561   6.558   7.955   0.623 -0.7484 -0.6052  0.0585
  490MOL0     C64562   6.636   7.959   0.746  0.3031  0.5634  1.0571
  490MOL0     C64563   6.784   8.001   0.713 -0.6088 -0.7494  0.5889
  490MOL0     C64564   6.886   7.982   0.821 -0.5136  0.0784  0.4288
  490MOL0     N64565   6.888   7.842   0.869 -0.3680 -0.1322 -0.3337
  490MOL0     C64566   6.977   7.743   0.828  0.6073  0.0457 -0.0169
  490MOL0     C64567   6.943   7.630   0.899 -0.2361 -1.1205 -0.4660
  490MOL0     C64568   7.001   7.489   0.888 -0.1984 -0.6250 -1.1107
  490MOL0     C64569   6.986   7.439   0.743  0.6930 -1.0726  0.6698
  490MOL0     C64570   6.845   7.370   0.711 -0.6343 -0.7770  0.8138
  490MOL0     C64571   6.716   7.445   0.738  1.3495 -0.4314 -0.0634
  490MOL0     O64572   6.698   7.566   0.664 -0.0748  0.4307  0.3558
  490MOL0     C64573   6.727   7.567   0.536 -0.3142 -0.8518  0.5449
  490MOL0     C64574   6.787   7.680   0.489  0.7676  0.1578 -0.0618
  490MOL0     C64575   6.811   7.704   0.356 -0.9324 -0.6917  0.3279
  490MOL0     C64576   6.770   7.612   0.266  0.0832  0.5886 -1.2716
  490MOL0     C64577   6.819   7.628   0.128  0.6650  0.3856  0.1715
  490MOL0     O64578   6.867   7.751   0.091 -0.2717 -0.7615  0.3543
  490MOL0     C64579   6.933   7.761  -0.020  0.6229  0.6192 -0.5788
  490MOL0     C64580   6.915   7.872  -0.098  0.2799 -1.3042 -0.9625
  490MOL0     C64581   6.957   7.883  -0.227  0.5554 -0.4853 -0.2667
  490MOL0     C64582   7.025   7.777  -0.289  0.1439  0.2088 -1.3253
  490MOL0     O64583   7.050   7.762  -0.423 -0.1607 -1.1048 -0.9986
  490MOL0     C64584   6.980   7.843  -0.518  0.6543  0.4344 -0.3932
  490MOL0     C64585   7.020   7.990  -0.536  0.9202 -0.3822  0.4527
  490MOL0     C64586   7.164   8.020  -0.571 -0.5658 -0.1204  0.1988
  490MOL0     C64587   7.264   8.026  -0.452 -0.1249 -1.0843 -0.4496
  490MOL0     C64588   7.403   8.007  -0.517 -0.2802  0.1418  0.3337
  490MOL0     C64589   7.485   7.940  -0.401 -0.3040 -0.2327 -0.2173
  490MOL0     C64590   7.636   7.910  -0.421  0.1806  0.4625 -0.3173
  490MOL0     C64591   7.676   7.846  -0.556 -0.1031  0.5480  0.9005
  490MOL0    Cl64592   7.606   7.682  -0.560 -0.1671  0.0145  0.0937
  490MOL0     C64593   7.059   7.672  -0.205  0.0767 -0.0830 -1.0830
  490MOL0     C64594   7.015   7.656  -0.078 -0.4199 -0.8084 -0.7186
  490MOL0     O64595   6.801   7.532   0.053  0.6820  0.5235 -0.1342
  490MOL0     C64596   6.706   7.494   0.310  0.3341 -0.1690 -1.0139
  490MOL0     C64597   6.689   7.471   0.445 -0.3486  0.4545  0.7637
  490MOL0     N64598   6.850   7.666   0.992  0.8054 -1.2027 -0.7315
  490MOL0     N64599   6.804   7.788   0.965 -0.5038 -0.5765  0.7446
  490MOL0     C64600   6.035   8.381   0.433  0.0927  0.2817  0.1108
  490MOL0     C64601   5.950   8.484   0.469  0.3600 -0.1894 -1.2439
  490MOL0     C64602   5.815   8.810   0.755  0.2546  0.2338 -0.2297
  490MOL0     C64603   5.677   8.811   0.737 -0.6254  0.7003 -0.2882
  490MOL0     C64604   5.593   8.915   0.758 -0.3031  0.2804 -0.5797
  490MOL0     C64605   5.647   9.026   0.818  0.3903  0.4859  0.3666
  490MOL0     O64606   5.575   9.138   0.855  0.2679  0.2108  0.6031
  490MOL0     C64607   5.431   9.127   0.864  0.0369  0.5131 -0.3018
  490MOL0     C64608   5.359   9.242   0.937  0.0002  1.2639  0.6182
  490MOL0     C64609   5.209   9.246   0.904  0.8913 -0.5538  0.8766
  490MOL0     C64610   5.142   9.362   0.981  0.1470 -0.2050  0.1301
  490MOL0     C64611   4.999   9.347   0.973  0.3291  0.2106  0.2055
  490MOL0     C64612   4.880   9.332   0.953 -0.1338 -0.2237  0.0441
  490MOL0     C64613   5.780   9.033   0.846 -0.3164 -0.6817 -0.0758
  490MOL0     C64614   5.868   8.928   0.811 -0.1927 -0.3040  0.1095
  490MOL0     H64615   5.933   8.386   0.796 -0.8481 -2.4343  0.8379
  490MOL0     H64616   6.071   8.209   0.726 -2.6186 -1.7286 -1.6963
  490MOL0     H64617   6.133   8.016   0.580 -2.5336  1.7961 -0.6483
  490MOL0     H64618   6.281   8.127   0.609 -0.4805 -1.1183  0.1876
  490MOL0     H64619   6.386   8.053   0.415 -1.3833  1.2352 -0.1873
  490MOL0     H64620   6.239   7.966   0.370  0.0757  0.6112 -0.1061
  490MOL0     H64621   6.402   7.794   0.432 -0.3696 -3.2461  1.9281
  490MOL0     H64622   6.270   7.796   0.544 -0.7847  0.6584  0.2881
  490MOL0     H64623   6.368   7.896   0.713  2.3157  0.2838  1.6406
  490MOL0     H64624   6.470   7.760   0.664  4.4763  1.7436  0.5901
  490MOL0     H64625   6.522   8.057   0.608  0.8925 -0.2765 -2.0337
  490MOL0     H64626   6.626   7.921   0.545  2.0590 -0.7683  2.3947
  490MOL0     H64627   6.624   7.862   0.795 -1.7586  0.6634  0.8113
  490MOL0     H64628   6.590   8.042   0.801 -0.8592  0.7753 -0.1881
  490MOL0     H64629   6.818   7.945   0.626  1.1320 -0.7113  1.2165
  490MOL0     H64630   6.792   8.106   0.682 -0.5142 -1.2005 -1.0022
  490MOL0     H64631   6.862   8.043   0.908 -2.6867 -0.9544  0.6185
  490MOL0     H64632   6.979   8.002   0.767 -1.2579 -0.7618 -1.2419
  490MOL0     H64633   7.052   7.747   0.749 -0.4052  2.6998 -0.9455
  490MOL0     H64634   6.948   7.431   0.964 -0.0834 -0.6976 -1.0861
  490MOL0     H64635   7.103   7.508   0.923 -1.4027  2.8520  1.0164
  490MOL0     H64636   7.055   7.355   0.731  1.9934  0.2546 -1.8325
  490MOL0     H64637   7.010   7.521   0.675 -1.2382  1.9277  3.2898
  490MOL0     H64638   6.845   7.340   0.606 -0.8867 -0.2212  0.6509
  490MOL0     H64639   6.848   7.282   0.776 -0.5113  0.1900  2.1807
  490MOL0     H64640   6.719   7.479   0.842  0.4320 -0.5134 -0.0059
  490MOL0     H64641   6.633   7.375   0.724  2.6474 -2.1962  0.6564
  490MOL0     H64642   6.835   7.751   0.555  2.2365 -2.4347  1.8718
  490MOL0     H64643   6.884   7.781   0.331  0.8706 -2.2392  0.5793
  490MOL0     H64644   6.848   7.945  -0.053 -1.7817 -4.3743  1.3087
  490MOL0     H64645   6.914   7.966  -0.281 -0.6888 -0.4123  0.7663
  490MOL0     H64646   6.875   7.853  -0.490  0.9645 -0.8086  1.3597
  490MOL0     H64647   6.988   7.794  -0.616 -0.4973 -0.8657  0.1370
  490MOL0     H64648   6.996   8.045  -0.445 -2.5960 -0.7038 -0.1437
  490MOL0     H64649   6.957   8.030  -0.616  2.0185  1.1040  0.2925
  490MOL0     H64650   7.147   8.121  -0.609 -0.4877 -0.6710 -1.3772
  490MOL0     H64651   7.190   7.949  -0.650  1.9160  1.0732 -0.1278
  490MOL0     H64652   7.269   8.123  -0.402  0.0086 -1.7656  0.8881
  490MOL0     H64653   7.241   7.942  -0.387 -0.0194 -1.2188 -0.5848
  490MOL0     H64654   7.452   8.101  -0.544  0.4640 -0.8002 -1.8128
  490MOL0     H64655   7.404   7.940  -0.603 -1.0284  0.4565  0.0638
  490MOL0     H64656   7.445   7.839  -0.386 -2.4520  0.4818 -0.8500
  490MOL0     H64657   7.474   7.995  -0.307  0.0130  0.1320 -0.3915
  490MOL0     H64658   7.674   8.013  -0.425 -1.1033  1.0243  1.1046
  490MOL0     H64659   7.679   7.847  -0.343  0.4424 -0.4056 -1.1467
  490MOL0     H64660   7.785   7.847  -0.548 -0.0508  0.7495  0.1986
  490MOL0     H64661   7.644   7.908  -0.640  1.2818 -0.6271 -0.5596
  490MOL0     H64662   7.126   7.603  -0.255 -0.2323  1.0745 -3.2371
  490MOL0     H64663   7.040   7.570  -0.017 -2.0040 -0.6392  0.2100
  490MOL0     H64664   6.668   7.421   0.240 -3.4775 -0.7996  1.3736
  490MOL0     H64665   6.646   7.375   0.471  2.2414 -0.2487  2.9939
  490MOL0     H64666   6.065   8.372   0.330 -1.2669 -0.8915 -0.2170
  490MOL0     H64667   5.914   8.561   0.401 -2.3838 -0.9262 -0.7619
  490MOL0     H64668   5.619   8.730   0.693 -2.1352 -0.4878  3.5377
  490MOL0     H64669   5.485   8.909   0.748 -0.1724 -2.0747 -1.1670
  490MOL0     H64670   5.412   9.027   0.905  0.3845 -0.8060 -3.1095
  490MOL0     H64671   5.385   9.133   0.765 -0.7602 -1.1052 -0.0614
  490MOL0     H64672   5.365   9.223   1.045 -1.5661  1.7566  0.8147
  490MOL0     H64673   5.402   9.342   0.924 -1.7015  2.1902  1.7317
  490MOL0     H64674   5.164   9.150   0.932  1.7623 -0.0959  4.1919
  490MOL0     H64675   5.210   9.266   0.796  0.0978 -0.6563  0.8435
  490MOL0     H64676   5.166   9.367   1.088  0.5017  2.9865 -0.0033
  490MOL0     H64677   5.170   9.456   0.934  1.3236  1.3276  3.5411
  490MOL0     H64678   4.773   9.324   0.946 -0.0396 -0.7126 -1.0001
  490MOL0     H64679   5.814   9.131   0.878 -2.6181  0.0143  0.3748
  490MOL0     H64680   5.971   8.931   0.846  0.8726 -1.0798 -2.6958
  491MOL0     O64681   6.220  10.838   1.054 -0.2221  0.4543  0.1982
  491MOL0     C64682   6.342  10.831   1.037 -0.0145  0.5574 -1.1965
  491MOL0     O64683   6.416  10.866   0.929  0.3078  0.5965  0.2111
  491MOL0     C64684   6.381  10.828   0.800 -0.3049 -0.0666 -0.3419
  491MOL0     C64685   6.247  10.803   0.752 -0.3683 -0.3140 -0.1163
  491MOL0     C64686   6.228  10.769   0.616 -0.0078 -0.0591  0.1294
  491MOL0     C64687   6.341  10.735   0.532  0.4246 -0.0784 -0.2271
  491MOL0     O64688   6.302  10.704   0.401  0.2540  0.0374  0.3866
  491MOL0     C64689   6.401  10.627   0.333 -0.0994 -0.2928  0.2128
  491MOL0     C64690   6.442  10.710   0.213  0.2976  0.3464  0.3566
  491MOL0     C64691   6.491  10.607   0.098  1.1680 -0.0016 -0.0192
  491MOL0     C64692   6.578  10.681  -0.007 -0.3421 -0.5625  0.1038
  491MOL0     C64693   6.527  10.815  -0.071 -0.6461  1.0073  0.4236
  491MOL0     C64694   6.413  10.811  -0.166 -0.4480 -0.1397 -0.1316
  491MOL0     C64695   6.425  10.696  -0.274  0.4909 -0.4103  0.1389
  491MOL0     C64696   6.540  10.733  -0.369 -0.0740 -1.4779  0.1651
  491MOL0     N64697   6.556  10.641  -0.481 -0.2418  0.0811  0.6326
  491MOL0     C64698   6.626  10.522  -0.476 -0.3421  0.2300  0.0903
  491MOL0     C64699   6.613  10.462  -0.604  0.6541  0.1443  0.7180
  491MOL0     C64700   6.693  10.335  -0.649 -0.4959 -0.0387  0.2281
  491MOL0     C64701   6.624  10.267  -0.760  0.3884 -0.1579 -0.2657
  491MOL0     C64702   6.699  10.144  -0.799 -0.5658 -0.6129  0.4050
  491MOL0     C64703   6.840  10.157  -0.878  1.1753 -0.7403 -0.6664
  491MOL0     O64704   6.848  10.255  -0.985  1.0066 -0.3214  0.8634
  491MOL0     C64705   6.980  10.276  -1.021  0.5778  0.2188  0.7363
  491MOL0     C64706   7.019  10.232  -1.145  0.9110 -1.0282 -0.0525
  491MOL0     C64707   7.150  10.235  -1.189  0.0180  0.8425 -0.0410
  491MOL0     C64708   7.250  10.281  -1.105  0.9038  0.2611 -1.0681
  491MOL0     C64709   7.384  10.260  -1.149  0.2031 -0.8385  0.3605
  491MOL0     O64710   7.397  10.239  -1.278 -0.4716  0.1952 -0.0578
  491MOL0     C64711   7.516  10.204  -1.338 -0.2328  0.0073  0.5099
  491MOL0     C64712   7.656  10.219  -1.286  0.0823 -0.3567  0.1950
  491MOL0     C64713   7.763  10.194  -1.361 -0.1829  1.1523 -0.1041
  491MOL0     C64714   7.765  10.148  -1.494  0.2567  0.1905  0.7693
  491MOL0     O64715   7.878  10.128  -1.577  0.0474  0.2042 -0.9358
  491MOL0     C64716   7.997  10.081  -1.508  0.2108  0.2007  0.2820
  491MOL0     C64717   8.082   9.998  -1.607  0.4891  0.8109  0.3479
  491MOL0     C64718   8.229   9.980  -1.565  0.4620  1.1586 -0.6379
  491MOL0     C64719   8.229   9.870  -1.457 -0.3566 -0.4432 -0.4359
  491MOL0     C64720   8.370   9.844  -1.397 -0.3496 -0.2243  0.0421
  491MOL0     C64721   8.483   9.816  -1.507  0.1408 -0.2820  0.3011
  491MOL0     C64722   8.604   9.737  -1.451  0.5410  0.3659 -0.1365
  491MOL0     C64723   8.678   9.824  -1.361  0.5074  0.3586  0.3164
  491MOL0    Cl64724   8.829   9.743  -1.342 -0.2946 -0.0883  0.3190
  491MOL0     C64725   7.633  10.143  -1.549 -1.1213  0.1541  1.5062
  491MOL0     C64726   7.512  10.170  -1.475 -0.4668 -0.1510  0.1065
  491MOL0     O64727   7.464  10.250  -1.063  0.9725  0.8527  0.2159
  491MOL0     C64728   7.217  10.341  -0.978 -0.0837 -0.1847  0.6526
  491MOL0     C64729   7.079  10.330  -0.941 -0.1895  0.3985  0.0414
  491MOL0     N64730   6.523  10.552  -0.675 -0.4329 -0.1072 -0.1487
  491MOL0     N64731   6.482  10.649  -0.602  0.1562  0.1581  0.3424
  491MOL0     C64732   6.473  10.760   0.573 -0.1481  0.0571 -0.0535
  491MOL0     C64733   6.487  10.816   0.701  0.2252  1.2630  0.1216
  491MOL0     C64734   6.413  10.776   1.158  0.8331  0.0661 -0.2833
  491MOL0     C64735   6.350  10.769   1.286  0.1550  0.5652 -0.6774
  491MOL0     C64736   6.413  10.716   1.402  0.7760  0.7957 -1.1830
  491MOL0     C64737   6.543  10.658   1.386  0.0668  0.8807  0.7132
  491MOL0     O64738   6.601  10.618   1.500 -0.1180  0.1554 -0.0296
  491MOL0     C64739   6.683  10.502   1.499  0.5556 -0.2077  0.0567
  491MOL0     C64740   6.651  10.426   1.630 -0.0510  0.4758  0.0786
  491MOL0     C64741   6.657  10.508   1.755  0.5835  0.7719 -0.4038
  491MOL0     C64742   6.665  10.414   1.877  0.1390  0.1767 -0.2266
  491MOL0     C64743   6.541  10.338   1.902 -0.7017  0.2517 -0.2848
  491MOL0     C64744   6.437  10.271   1.930 -0.7899 -0.6501 -0.1719
  491MOL0     C64745   6.601  10.643   1.260 -0.3432  0.0913  0.5654
  491MOL0     C64746   6.539  10.706   1.149 -0.7665  0.0581  0.2541
  491MOL0     H64747   6.153  10.789   0.804 -0.0180 -3.9132 -0.2150
  491MOL0     H64748   6.134  10.745   0.567  0.4909  0.3935 -1.0873
  491MOL0     H64749   6.360  10.534   0.291  0.1421  1.3930 -4.1947
  491MOL0     H64750   6.494  10.595   0.382 -1.8467 -5.0382  0.9912
  491MOL0     H64751   6.527  10.767   0.252  2.8743 -3.3271  0.6539
  491MOL0     H64752   6.360  10.776   0.180  0.7509 -0.4269 -2.6242
  491MOL0     H64753   6.409  10.551   0.051  0.1746  0.0629  1.5800
  491MOL0     H64754   6.558  10.532   0.141 -0.1932 -1.2031  0.1152
  491MOL0     H64755   6.660  10.720   0.054 -3.0034  3.2173  1.6857
  491MOL0     H64756   6.624  10.616  -0.082  1.9214  1.4761 -0.4011
  491MOL0     H64757   6.612  10.855  -0.126  0.1104  2.6686  2.6691
  491MOL0     H64758   6.507  10.891   0.006  2.4736  1.5441  0.8104
  491MOL0     H64759   6.410  10.912  -0.208 -1.3477 -0.4745 -0.8932
  491MOL0     H64760   6.317  10.816  -0.114 -0.6814  3.1030 -0.6529
  491MOL0     H64761   6.444  10.596  -0.235 -1.5974 -1.0453 -0.3314
  491MOL0     H64762   6.337  10.683  -0.338  1.5816 -0.6391 -1.3557
  491MOL0     H64763   6.636  10.735  -0.317 -0.1057  1.2990  0.2442
  491MOL0     H64764   6.535  10.838  -0.401  1.7824 -1.1680  0.7646
  491MOL0     H64765   6.697  10.490  -0.401  0.2349 -3.0217 -1.6628
  491MOL0     H64766   6.715  10.274  -0.562  1.1976 -1.1690 -0.9346
  491MOL0     H64767   6.790  10.372  -0.682 -0.5005 -2.0392 -2.4043
  491MOL0     H64768   6.607  10.336  -0.843 -3.8312  2.2032  2.1994
  491MOL0     H64769   6.521  10.242  -0.733 -1.0799  1.4040 -3.8301
  491MOL0     H64770   6.701  10.074  -0.714  3.5066 -2.0287 -0.6155
  491MOL0     H64771   6.633  10.106  -0.878  0.2843 -0.4963 -0.3834
  491MOL0     H64772   6.865  10.055  -0.912  0.5663 -1.1795  0.1732
  491MOL0     H64773   6.907  10.175  -0.794 -0.2415 -3.0758  1.0968
  491MOL0     H64774   6.933  10.201  -1.205  0.0671  3.3622 -1.4655
  491MOL0     H64775   7.168  10.173  -1.276 -2.7632  1.5544 -1.2346
  491MOL0     H64776   7.676  10.250  -1.184  1.0637 -3.0430  0.9096
  491MOL0     H64777   7.860  10.195  -1.312 -0.3542 -1.9699  0.4879
  491MOL0     H64778   7.974  10.008  -1.429 -3.2777  0.0131 -0.7301
  491MOL0     H64779   8.049  10.172  -1.477  1.7548  0.3234 -2.4067
  491MOL0     H64780   8.076  10.059  -1.697  3.2510  0.6821  0.0064
  491MOL0     H64781   8.045   9.895  -1.621  1.7468  0.0422  2.1802
  491MOL0     H64782   8.243  10.078  -1.519 -0.7314  2.2908 -2.5259
  491MOL0     H64783   8.307   9.952  -1.638  0.0928 -2.7805  0.2218
  491MOL0     H64784   8.157   9.903  -1.382 -0.0327 -0.5898 -0.0593
  491MOL0     H64785   8.191   9.775  -1.496 -0.2708 -0.5404 -0.2802
  491MOL0     H64786   8.367   9.758  -1.329 -0.3712  0.7679  1.3530
  491MOL0     H64787   8.402   9.930  -1.337 -1.1978  1.4453 -1.7814
  491MOL0     H64788   8.523   9.905  -1.558 -1.2875  0.6024  0.6635
  491MOL0     H64789   8.433   9.747  -1.576 -2.4916 -0.0475  1.8619
  491MOL0     H64790   8.562   9.648  -1.403  0.2449  1.2333  1.2645
  491MOL0     H64791   8.664   9.709  -1.538  0.8544 -0.1130  0.2264
  491MOL0     H64792   8.630   9.845  -1.265  0.3106  3.2598 -0.2989
  491MOL0     H64793   8.696   9.921  -1.409 -1.9541  0.4344 -0.5838
  491MOL0     H64794   7.622  10.133  -1.657 -2.1363  0.7704  1.5435
  491MOL0     H64795   7.414  10.174  -1.522  0.3059  1.6518 -1.4670
  491MOL0     H64796   7.294  10.376  -0.910  1.7428 -1.5995 -0.5915
  491MOL0     H64797   7.061  10.370  -0.842  3.0572 -1.8494  1.7167
  491MOL0     H64798   6.554  10.765   0.501 -3.0606 -0.9839 -3.7525
  491MOL0     H64799   6.589  10.841   0.730 -0.8953  2.0362  3.9370
  491MOL0     H64800   6.243  10.784   1.290  0.1768  0.9512 -1.3761
  491MOL0     H64801   6.363  10.707   1.499  0.8430 -1.8859 -1.3097
  491MOL0     H64802   6.787  10.536   1.497 -0.2048  2.4659  1.2520
  491MOL0     H64803   6.666  10.441   1.409 -0.0462 -0.7796  0.5402
  491MOL0     H64804   6.550  10.386   1.619  0.6232 -1.2530 -0.2433
  491MOL0     H64805   6.725  10.345   1.630  3.9078  3.7269  0.4790
  491MOL0     H64806   6.574  10.577   1.774 -0.0175 -0.2943  1.1155
  491MOL0     H64807   6.750  10.563   1.738  0.3884  1.8903  1.7907
  491MOL0     H64808   6.751  10.346   1.881  0.4555 -0.1306 -5.2399
  491MOL0     H64809   6.682  10.481   1.962 -1.9040  1.5673 -0.8229
  491MOL0     H64810   6.361  10.203   1.963 -0.6783  0.8971  3.7638
  491MOL0     H64811   6.695  10.590   1.246 -1.7271 -2.2119 -0.6128
  491MOL0     H64812   6.586  10.705   1.051 -0.6577 -0.3937  0.3072
  492MOL0     O64813   1.536   2.931   4.403  0.3974 -0.6559  0.8202
  492MOL0     C64814   1.509   2.894   4.514  0.6132  0.2223  1.1658
  492MOL0     O64815   1.391   2.911   4.577 -0.4267  0.5454 -0.1665
  492MOL0     C64816   1.288   2.997   4.534  0.7887 -0.3582 -0.4006
  492MOL0     C64817   1.165   2.948   4.581  0.3459 -0.0209  0.0200
  492MOL0     C64818   1.039   2.995   4.532  0.0687 -1.1456 -1.0347
  492MOL0     C64819   1.043   3.103   4.444 -1.7429 -1.1326  0.7254
  492MOL0     O64820   0.942   3.172   4.388 -0.3758  0.5631  0.4850
  492MOL0     C64821   0.809   3.137   4.424  0.0229  0.5357 -0.5810
  492MOL0     C64822   0.745   3.047   4.324 -0.1133 -0.3220  1.0138
  492MOL0     C64823   0.595   3.033   4.341  0.4122  0.9672  0.0612
  492MOL0     C64824   0.517   3.171   4.325 -0.2057 -0.8306 -0.8903
  492MOL0     C64825   0.370   3.157   4.353 -0.4270 -0.4257 -0.4982
  492MOL0     C64826   0.297   3.112   4.225 -0.3518  0.5095  0.4386
  492MOL0     C64827   0.173   3.029   4.238  0.7364  0.3407 -1.6599
  492MOL0     C64828   0.079   3.074   4.342 -0.3127 -0.4203 -1.3006
  492MOL0     N64829  -0.043   2.988   4.363 -0.8395  0.3034 -0.5932
  492MOL0     C64830  -0.162   3.013   4.312  0.8042  0.6897  0.8472
  492MOL0     C64831  -0.244   2.911   4.344  0.5016 -1.0088 -0.3969
  492MOL0     C64832  -0.382   2.912   4.310  0.2850 -0.2925  0.1914
  492MOL0     C64833  -0.440   2.776   4.329 -0.0380  0.1001  0.3810
  492MOL0     C64834  -0.473   2.752   4.471 -0.1048 -0.3816 -0.3061
  492MOL0     C64835  -0.519   2.610   4.504  0.8396 -0.0901  0.1888
  492MOL0     O64836  -0.653   2.599   4.450 -0.8617 -0.4539 -0.3983
  492MOL0     C64837  -0.717   2.477   4.462 -0.2733 -0.6191 -0.0598
  492MOL0     C64838  -0.676   2.382   4.556  0.1884 -1.1394  0.5657
  492MOL0     C64839  -0.743   2.260   4.566 -0.4963  0.1401  0.5223
  492MOL0     C64840  -0.862   2.242   4.499 -0.2467 -0.7386  0.0718
  492MOL0     C64841  -0.934   2.113   4.532 -0.5246 -0.5221  0.2756
  492MOL0     O64842  -1.057   2.103   4.486  0.3190  0.3435 -0.2113
  492MOL0     C64843  -1.124   1.983   4.504  0.6618  0.0318 -0.4280
  492MOL0     C64844  -1.189   1.954   4.624 -0.4217  0.1675 -0.1594
  492MOL0     C64845  -1.247   1.820   4.640  0.0816 -0.0338  0.5138
  492MOL0     C64846  -1.258   1.729   4.531  0.1264 -1.0086  0.5709
  492MOL0     O64847  -1.303   1.603   4.557 -0.8680 -0.5577 -0.2250
  492MOL0     C64848  -1.358   1.513   4.458  1.4428 -1.0253 -0.1525
  492MOL0     C64849  -1.507   1.565   4.441  0.8010 -0.6550  0.6794
  492MOL0     C64850  -1.590   1.578   4.574 -0.6587  0.3031 -0.1333
  492MOL0     C64851  -1.689   1.702   4.579 -0.1972 -0.8217 -0.1960
  492MOL0     C64852  -1.618   1.839   4.609 -0.9825 -0.5868 -0.8888
  492MOL0     C64853  -1.698   1.962   4.551  0.0022  0.0688  0.4777
  492MOL0     C64854  -1.812   2.009   4.643  0.5216 -0.2480 -0.1496
  492MOL0     C64855  -1.754   2.079   4.775 -0.3880 -0.1559  0.0391
  492MOL0    Cl64856  -1.880   2.183   4.846 -0.5290  0.2493  0.3575
  492MOL0     C64857  -1.184   1.764   4.407  0.1116  0.0722 -1.0836
  492MOL0     C64858  -1.123   1.888   4.395  0.6370 -0.8531 -0.2683
  492MOL0     O64859  -0.892   2.044   4.619  0.1430  0.6459 -0.3711
  492MOL0     C64860  -0.910   2.338   4.412 -0.2361  0.2605 -0.3416
  492MOL0     C64861  -0.827   2.454   4.387  0.5017  0.1869 -0.5908
  492MOL0     N64862  -0.174   2.837   4.432  0.1882  0.2295  0.5288
  492MOL0     N64863  -0.054   2.869   4.438  0.5306 -0.1842  0.0000
  492MOL0     C64864   1.163   3.162   4.401  0.1933  0.5915 -0.6134
  492MOL0     C64865   1.281   3.104   4.443  0.0259 -0.2283 -0.6606
  492MOL0     C64866   1.616   2.834   4.585  0.0043  0.0956 -0.8868
  492MOL0     C64867   1.587   2.779   4.713 -0.1708  0.6190  0.4291
  492MOL0     C64868   1.696   2.731   4.786 -0.1965  1.3124 -0.3686
  492MOL0     C64869   1.835   2.733   4.744  0.4431  0.3353  0.0574
  492MOL0     O64870   1.935   2.692   4.830 -0.1302 -0.3986  1.0425
  492MOL0     C64871   1.916   2.577   4.911  0.4546  0.8140 -0.3959
  492MOL0     C64872   2.050   2.509   4.956 -0.1983  0.0221  0.7367
  492MOL0     C64873   2.016   2.383   5.043  1.0429  0.2358 -0.4178
  492MOL0     C64874   2.147   2.302   5.053 -0.2429  1.0038 -0.4869
  492MOL0     C64875   2.241   2.372   5.141  0.3283  0.4846  0.0024
  492MOL0     C64876   2.323   2.387   5.227 -1.1194  0.1883 -0.4901
  492MOL0     C64877   1.863   2.796   4.622 -0.8710  0.7016  0.5025
  492MOL0     C64878   1.757   2.838   4.540 -0.2542 -1.5682  0.4628
  492MOL0     H64879   1.175   2.868   4.653  0.6636 -1.1367 -1.2246
  492MOL0     H64880   0.946   2.970   4.581  0.6328  0.4289  0.9631
  492MOL0     H64881   0.752   3.230   4.421 -0.8585  0.0355  0.1463
  492MOL0     H64882   0.790   3.093   4.523 -0.8054  2.9435  0.3962
  492MOL0     H64883   0.788   2.946   4.317 -1.8755 -1.2124  2.1546
  492MOL0     H64884   0.750   3.106   4.232 -0.0599  1.5093  2.1481
  492MOL0     H64885   0.566   2.981   4.433 -0.8852 -2.0324 -1.8961
  492MOL0     H64886   0.570   2.972   4.254  2.1652 -0.0458  0.2100
  492MOL0     H64887   0.565   3.246   4.389  3.1719 -0.7604 -3.1888
  492MOL0     H64888   0.530   3.217   4.226 -1.1267  3.0724  0.5995
  492MOL0     H64889   0.333   3.255   4.385  2.9884  0.6565  0.6142
  492MOL0     H64890   0.356   3.079   4.428 -2.2419  0.7342  0.4495
  492MOL0     H64891   0.369   3.065   4.156 -0.7984 -0.8491  0.8564
  492MOL0     H64892   0.265   3.202   4.171 -1.4532  1.1561  2.0725
  492MOL0     H64893   0.110   3.031   4.148 -2.4051  0.1327  0.3917
  492MOL0     H64894   0.200   2.925   4.258  3.9867  1.6621  2.0964
  492MOL0     H64895   0.045   3.176   4.326 -0.6521 -0.5156 -1.1839
  492MOL0     H64896   0.135   3.071   4.436  2.9022  1.7116 -2.9510
  492MOL0     H64897  -0.194   3.095   4.248  0.0204 -1.4566 -1.6462
  492MOL0     H64898  -0.374   2.938   4.204 -0.5805  0.0759  0.2059
  492MOL0     H64899  -0.444   2.974   4.376 -3.1275 -1.5254 -1.6402
  492MOL0     H64900  -0.374   2.693   4.304 -0.5312 -0.4028  0.7297
  492MOL0     H64901  -0.530   2.763   4.269 -0.1004 -0.1733  0.5333
  492MOL0     H64902  -0.389   2.772   4.538 -0.9688 -3.1246  1.8122
  492MOL0     H64903  -0.562   2.810   4.496 -1.0004 -1.1136 -1.6593
  492MOL0     H64904  -0.528   2.602   4.613  0.1244 -0.9574  0.0758
  492MOL0     H64905  -0.442   2.539   4.472  2.0049  1.6174 -0.9515
  492MOL0     H64906  -0.599   2.401   4.630  2.0256 -2.2711 -0.9753
  492MOL0     H64907  -0.703   2.196   4.644 -0.4036 -0.9589 -0.3983
  492MOL0     H64908  -1.191   2.030   4.701  0.8224 -0.0705  0.1240
  492MOL0     H64909  -1.285   1.792   4.738 -0.5781  1.5536  0.7536
  492MOL0     H64910  -1.347   1.410   4.492  1.7540 -0.6638  0.8940
  492MOL0     H64911  -1.294   1.513   4.370 -1.2363  0.2155 -2.2633
  492MOL0     H64912  -1.560   1.500   4.371 -0.9451  1.3177  0.0519
  492MOL0     H64913  -1.511   1.666   4.399  0.4367  0.0687  2.3439
  492MOL0     H64914  -1.519   1.597   4.655 -0.0076  0.6227 -0.7727
  492MOL0     H64915  -1.637   1.482   4.597  2.0421 -2.0611 -3.5493
  492MOL0     H64916  -1.755   1.701   4.492  1.1035  0.9980 -1.2559
  492MOL0     H64917  -1.754   1.701   4.668  2.9108  1.4522  2.3247
  492MOL0     H64918  -1.518   1.842   4.565 -0.0607 -1.4588  1.0419
  492MOL0     H64919  -1.606   1.849   4.717 -0.9075 -1.0224 -0.8547
  492MOL0     H64920  -1.731   1.930   4.451  3.1162 -2.1062  0.0002
  492MOL0     H64921  -1.635   2.048   4.528  0.8576 -1.2477 -2.5934
  492MOL0     H64922  -1.886   2.075   4.596  0.0795 -0.3049  0.4615
  492MOL0     H64923  -1.862   1.917   4.676 -0.3307  1.1496  2.7884
  492MOL0     H64924  -1.666   2.137   4.747 -0.2976  0.0223  0.6807
  492MOL0     H64925  -1.705   2.018   4.850  2.4642  2.2583  0.3182
  492MOL0     H64926  -1.177   1.694   4.325 -1.2799 -1.3266 -0.0890
  492MOL0     H64927  -1.066   1.904   4.304 -2.1714 -0.3147 -2.0665
  492MOL0     H64928  -1.002   2.311   4.359 -1.1612  0.9470  0.8747
  492MOL0     H64929  -0.860   2.527   4.315 -0.3393 -0.1336 -0.5374
  492MOL0     H64930   1.162   3.253   4.341  3.2910  0.2606 -1.3347
  492MOL0     H64931   1.370   3.147   4.398  1.0500 -1.9561 -0.3286
  492MOL0     H64932   1.497   2.769   4.773  0.0494  0.6174  0.7589
  492MOL0     H64933   1.676   2.682   4.881 -0.5925 -0.9872 -1.5585
  492MOL0     H64934   1.853   2.500   4.865 -3.0134  2.8969  0.4246
  492MOL0     H64935   1.857   2.606   4.998 -3.3079 -2.0649 -1.6831
  492MOL0     H64936   2.107   2.488   4.865  0.2039 -0.8773  1.1786
  492MOL0     H64937   2.107   2.576   5.022 -0.1008  1.7227 -0.9845
  492MOL0     H64938   1.946   2.313   4.997  1.0911  0.5570 -0.9812
  492MOL0     H64939   1.978   2.419   5.140  1.1161  3.7298 -1.5480
  492MOL0     H64940   2.141   2.203   5.098  1.2534  0.5454 -1.2499
  492MOL0     H64941   2.195   2.289   4.955  0.5642  1.8101 -0.2199
  492MOL0     H64942   2.401   2.394   5.301 -0.0460  4.4969 -1.7613
  492MOL0     H64943   1.962   2.808   4.579 -1.4561  0.6976 -0.9180
  492MOL0     H64944   1.784   2.872   4.441 -1.0815 -0.1561  0.6933
  493MOL0     O64945   0.243   2.408   6.527  0.6270 -0.0347  0.1821
  493MOL0     C64946   0.261   2.375   6.406 -0.1127 -0.2112 -0.5068
  493MOL0     O64947   0.194   2.278   6.340 -0.1332 -0.1410 -0.1197
  493MOL0     C64948   0.135   2.184   6.421  0.1315  0.5388 -0.4162
  493MOL0     C64949   0.226   2.077   6.478 -0.8837 -0.0208 -0.5704
  493MOL0     C64950   0.167   1.959   6.545  0.0078 -0.7138  0.8219
  493MOL0     C64951   0.034   1.962   6.571 -0.1879 -0.6247  0.4103
  493MOL0     O64952  -0.026   1.856   6.636  0.2169 -0.5081 -1.1868
  493MOL0     C64953   0.001   1.818   6.780  0.6387 -0.5788 -0.4688
  493MOL0     C64954  -0.101   1.868   6.881 -0.5466  0.2230 -1.0653
  493MOL0     C64955  -0.232   1.789   6.869 -0.2409  0.0043 -0.4938
  493MOL0     C64956  -0.318   1.807   6.993 -0.0604 -0.2219 -0.0156
  493MOL0     C64957  -0.452   1.738   6.971 -0.2620  0.8706  0.5681
  493MOL0     C64958  -0.436   1.585   6.988 -0.2238 -0.3169  0.1629
  493MOL0     C64959  -0.562   1.502   7.000  0.2723  0.1997 -1.2233
  493MOL0     C64960  -0.657   1.507   6.876 -0.0259 -0.5259  0.6041
  493MOL0     N64961  -0.756   1.401   6.858 -0.0922  0.2402  0.7259
  493MOL0     C64962  -0.861   1.380   6.942  0.6389  0.1633  0.0058
  493MOL0     C64963  -0.919   1.278   6.887 -0.1497 -0.4365 -0.8162
  493MOL0     C64964  -1.044   1.208   6.934  0.6206 -0.2444  0.5072
  493MOL0     C64965  -1.170   1.298   6.895 -0.2923 -0.7362 -0.2786
  493MOL0     C64966  -1.183   1.413   6.988  0.8450  1.3037 -0.6896
  493MOL0     C64967  -1.320   1.486   6.954  0.1534 -0.5642  0.6323
  493MOL0     O64968  -1.345   1.588   7.044  0.2448  0.3106  0.2977
  493MOL0     C64969  -1.454   1.666   7.018 -0.2029  0.6030 -0.3573
  493MOL0     C64970  -1.528   1.655   6.902  0.4594 -0.9780  0.1579
  493MOL0     C64971  -1.643   1.735   6.877 -0.3884  0.5407 -0.1632
  493MOL0     C64972  -1.671   1.826   6.979  0.9722 -0.2140 -0.1649
  493MOL0     C64973  -1.799   1.902   6.968 -0.5886 -0.0465  0.5787
  493MOL0     O64974  -1.889   1.882   6.869 -0.5260 -0.4860  0.3614
  493MOL0     C64975  -2.010   1.955   6.877 -0.4187 -0.1893 -0.1655
  493MOL0     C64976  -2.102   1.931   6.976 -0.0654  0.9305  0.3500
  493MOL0     C64977  -2.219   2.006   6.970  0.1794  0.1828 -1.2001
  493MOL0     C64978  -2.257   2.103   6.878  0.0666 -0.1112 -0.3834
  493MOL0     O64979  -2.383   2.168   6.895  0.4499 -0.2280  0.5500
  493MOL0     C64980  -2.398   2.293   6.826  0.3568 -0.0433  0.4481
  493MOL0     C64981  -2.528   2.353   6.891 -0.2634  0.0666 -0.4168
  493MOL0     C64982  -2.589   2.477   6.821  1.0879 -0.2914 -0.2655
  493MOL0     C64983  -2.668   2.561   6.924  0.1769 -0.0534 -0.5643
  493MOL0     C64984  -2.743   2.679   6.848 -0.1219  0.6887 -0.8873
  493MOL0     C64985  -2.820   2.747   6.961  0.6901 -0.1263 -0.0224
  493MOL0     C64986  -2.875   2.874   6.908  0.1791  0.0809 -0.0520
  493MOL0     C64987  -2.955   2.950   7.011 -0.6142  0.0174  0.8204
  493MOL0    Cl64988  -3.125   2.885   7.028  0.3925 -0.3879  0.0075
  493MOL0     C64989  -2.167   2.118   6.777 -0.5215 -0.9163 -0.2554
  493MOL0     C64990  -2.038   2.056   6.774  0.2271  0.8215 -0.5639
  493MOL0     O64991  -1.809   2.000   7.045  0.4299  0.6231 -0.0469
  493MOL0     C64992  -1.604   1.832   7.108  0.4493  1.0022  0.1517
  493MOL0     C64993  -1.493   1.748   7.121 -0.7695 -0.3966  0.0610
  493MOL0     N64994  -0.843   1.241   6.774  0.0930  0.1745 -0.0989
  493MOL0     N64995  -0.753   1.321   6.748  0.9595  0.4899 -0.0374
  493MOL0     C64996  -0.049   2.070   6.528 -0.5023 -0.9952 -0.0886
  493MOL0     C64997  -0.009   2.177   6.444 -0.6447 -0.3206  1.8205
  493MOL0     C64998   0.340   2.465   6.321  0.9067  0.1344 -0.5584
  493MOL0     C64999   0.389   2.419   6.198  0.1920 -0.6285 -0.6685
  493MOL0     C65000   0.476   2.494   6.118  0.2257  0.0930  0.2653
  493MOL0     C65001   0.508   2.621   6.159 -0.0230  0.3557  0.7708
  493MOL0     O65002   0.613   2.687   6.101  0.3473 -0.0783  0.0062
  493MOL0     C65003   0.704   2.636   6.001 -1.0237 -0.3467  0.1279
  493MOL0     C65004   0.800   2.533   6.063  0.0466 -0.0988  0.8221
  493MOL0     C65005   0.862   2.581   6.207 -0.0752 -0.0865 -0.5374
  493MOL0     C65006   0.945   2.718   6.213  0.2681  0.3193  1.4196
  493MOL0     C65007   1.062   2.727   6.129  0.9730 -0.0652 -0.1638
  493MOL0     C65008   1.155   2.741   6.052 -0.3358  0.4446 -0.0917
  493MOL0     C65009   0.472   2.666   6.281  0.6546  0.7285 -0.8687
  493MOL0     C65010   0.388   2.589   6.367 -0.1108 -0.8392 -0.2782
  493MOL0     H65011   0.333   2.082   6.462 -0.7092  1.3202  0.8107
  493MOL0     H65012   0.233   1.880   6.579  1.2475  0.0830  0.3419
  493MOL0     H65013   0.098   1.853   6.817 -0.3087  1.0556  0.5752
  493MOL0     H65014   0.019   1.710   6.774 -0.3635 -0.8941  1.3930
  493MOL0     H65015  -0.117   1.974   6.861  0.7534  0.8898  1.0645
  493MOL0     H65016  -0.051   1.870   6.978 -0.2534 -1.6791 -1.1304
  493MOL0     H65017  -0.204   1.686   6.891  0.3824  0.7895  3.0857
  493MOL0     H65018  -0.283   1.802   6.773 -0.4245 -1.5165 -0.6210
  493MOL0     H65019  -0.270   1.760   7.079 -3.1280 -1.1268  1.3637
  493MOL0     H65020  -0.344   1.911   7.014  0.1462 -0.3048  0.6747
  493MOL0     H65021  -0.503   1.778   6.882 -1.0131  0.5428  0.8401
  493MOL0     H65022  -0.520   1.768   7.051 -0.0182 -0.2399  1.2006
  493MOL0     H65023  -0.381   1.561   7.079  4.6113  3.3695 -1.3953
  493MOL0     H65024  -0.380   1.544   6.904  1.4018  1.2946  0.4024
  493MOL0     H65025  -0.542   1.396   7.018 -1.5026  0.2356  1.7373
  493MOL0     H65026  -0.617   1.531   7.091 -0.3641  0.9042 -1.8134
  493MOL0     H65027  -0.594   1.512   6.787  0.2195  2.3976  0.8474
  493MOL0     H65028  -0.710   1.602   6.873  0.5848 -0.1813  0.5820
  493MOL0     H65029  -0.894   1.438   7.027  0.7432 -1.6403  1.3555
  493MOL0     H65030  -1.048   1.181   7.039 -0.8322 -2.6571 -0.0789
  493MOL0     H65031  -1.061   1.121   6.869  0.2695  1.2580 -1.5064
  493MOL0     H65032  -1.264   1.243   6.898 -0.6329 -0.2386 -1.3969
  493MOL0     H65033  -1.166   1.345   6.797 -0.0312 -0.6339 -0.2214
  493MOL0     H65034  -1.197   1.369   7.087  2.2164  3.3484  0.4923
  493MOL0     H65035  -1.103   1.487   6.979  3.4564 -1.4126 -1.6820
  493MOL0     H65036  -1.411   1.425   6.961 -1.0994  1.3247  1.8603
  493MOL0     H65037  -1.312   1.524   6.852  0.4638 -1.3242  0.3630
  493MOL0     H65038  -1.495   1.605   6.812 -0.7895  2.9704 -2.7944
  493MOL0     H65039  -1.703   1.723   6.788 -1.2159  0.3473  0.4121
  493MOL0     H65040  -2.076   1.854   7.048 -0.8528 -0.0364 -0.3781
  493MOL0     H65041  -2.294   1.986   7.046 -1.4477 -1.4093 -3.1077
  493MOL0     H65042  -2.412   2.276   6.719 -1.0600  2.0225  0.2299
  493MOL0     H65043  -2.317   2.365   6.834  1.2416 -0.9743  0.0190
  493MOL0     H65044  -2.483   2.381   6.987  0.8304  0.8662 -1.1374
  493MOL0     H65045  -2.600   2.272   6.907 -0.9773  0.3650 -1.8907
  493MOL0     H65046  -2.655   2.444   6.741  1.9393  0.3091 -1.2265
  493MOL0     H65047  -2.516   2.535   6.764 -1.6239  2.8197 -0.8955
  493MOL0     H65048  -2.734   2.489   6.972  3.7728 -1.5280  2.7227
  493MOL0     H65049  -2.596   2.594   6.999  5.0675 -2.5577 -3.6038
  493MOL0     H65050  -2.797   2.635   6.763  0.2959 -1.9400  0.1228
  493MOL0     H65051  -2.673   2.747   6.799 -0.9463  0.6591 -2.1675
  493MOL0     H65052  -2.760   2.778   7.047  1.1133  3.3992 -1.4151
  493MOL0     H65053  -2.893   2.674   6.997  0.4152  0.3980  0.5011
  493MOL0     H65054  -2.789   2.936   6.882  0.5959  0.4644  2.0735
  493MOL0     H65055  -2.914   2.860   6.806 -2.4331  2.0303  0.5782
  493MOL0     H65056  -2.956   3.057   6.988  2.1183 -0.1346 -0.4616
  493MOL0     H65057  -2.903   2.938   7.106 -0.5414 -2.0934  0.5718
  493MOL0     H65058  -2.182   2.190   6.698  0.1043 -0.1328  0.3203
  493MOL0     H65059  -1.969   2.066   6.691 -2.2771 -0.8806 -3.0558
  493MOL0     H65060  -1.617   1.905   7.187 -0.4378  1.3235 -0.2824
  493MOL0     H65061  -1.430   1.756   7.209  0.9851 -2.5158 -0.9012
  493MOL0     H65062  -0.151   2.067   6.564 -0.1182 -2.0561  0.9538
  493MOL0     H65063  -0.078   2.253   6.408  0.8116  2.0559  3.7292
  493MOL0     H65064   0.363   2.324   6.150 -0.3550 -0.3911 -0.8496
  493MOL0     H65065   0.516   2.450   6.027  2.6447  0.5559  1.0509
  493MOL0     H65066   0.764   2.719   5.960  0.1117 -1.6242 -0.9046
  493MOL0     H65067   0.643   2.596   5.919 -1.1113 -2.4841  1.1710
  493MOL0     H65068   0.753   2.435   6.074  1.0555 -1.2640 -3.3231
  493MOL0     H65069   0.878   2.508   5.990 -0.6941 -1.4918  0.4685
  493MOL0     H65070   0.949   2.518   6.227  1.6518  1.7696 -1.8374
  493MOL0     H65071   0.799   2.573   6.296  1.6964 -2.2451  0.6126
  493MOL0     H65072   0.868   2.790   6.182 -0.6992 -1.3546 -0.2643
  493MOL0     H65073   0.979   2.734   6.316 -1.1973  2.1513  1.6900
  493MOL0     H65074   1.242   2.758   5.992  0.5313  3.5705  1.8391
  493MOL0     H65075   0.511   2.763   6.310  2.0288 -0.0021 -0.1664
  493MOL0     H65076   0.358   2.640   6.458  1.1485 -0.3461 -0.1236
  494MOL0     O65077   8.084   2.071   1.021  0.1399 -0.1240 -0.0268
  494MOL0     C65078   8.036   2.094   1.132 -0.8209 -0.4401  0.2495
  494MOL0     O65079   7.924   2.031   1.184 -0.1654  0.2670  0.1199
  494MOL0     C65080   7.847   1.969   1.094 -0.1901  0.0211 -1.0829
  494MOL0     C65081   7.870   1.835   1.074 -0.1703  0.0868  0.0436
  494MOL0     C65082   7.783   1.762   0.989 -0.1871 -0.4832  0.1601
  494MOL0     C65083   7.678   1.830   0.918 -0.3684 -0.5309  0.0905
  494MOL0     O65084   7.591   1.776   0.828 -0.1833  0.2756 -0.0883
  494MOL0     C65085   7.629   1.656   0.753  0.3176 -0.3455 -0.0305
  494MOL0     C65086   7.523   1.631   0.647 -0.3403  1.3481  0.2317
  494MOL0     C65087   7.383   1.580   0.706 -0.2985  0.3700 -0.7683
  494MOL0     C65088   7.272   1.546   0.613  0.3164 -0.6181  0.9642
  494MOL0     C65089   7.152   1.510   0.695  0.9624 -0.5814  0.5190
  494MOL0     C65090   7.043   1.453   0.610  0.4466  0.1130 -0.1170
  494MOL0     C65091   6.944   1.369   0.684 -0.5698  0.2129 -0.0025
  494MOL0     C65092   6.832   1.316   0.597 -0.0445 -0.2524 -0.2608
  494MOL0     N65093   6.713   1.396   0.573 -0.4839  0.0999 -0.0193
  494MOL0     C65094   6.632   1.405   0.463  0.2785 -0.2709  0.4264
  494MOL0     C65095   6.522   1.474   0.494 -0.7092  0.7512  0.0096
  494MOL0     C65096   6.415   1.512   0.398 -0.9429  0.0629  1.1190
  494MOL0     C65097   6.262   1.507   0.438  0.4905 -0.2366  0.3054
  494MOL0     C65098   6.206   1.370   0.455  0.1157 -0.7913  0.2145
  494MOL0     C65099   6.064   1.383   0.520  0.6508  0.8526 -0.0614
  494MOL0     O65100   6.022   1.249   0.551 -0.0623  0.9131  0.1435
  494MOL0     C65101   5.886   1.229   0.559  0.6422 -0.2955  0.4589
  494MOL0     C65102   5.798   1.333   0.581  0.7806  0.2948  0.1421
  494MOL0     C65103   5.668   1.308   0.611 -0.1158  0.4727 -0.5050
  494MOL0     C65104   5.611   1.178   0.615  0.2625 -0.9181 -1.1257
  494MOL0     C65105   5.469   1.148   0.656  0.2673  0.5379 -0.4268
  494MOL0     O65106   5.413   1.024   0.643  0.1264 -0.1281 -0.5103
  494MOL0     C65107   5.283   0.988   0.669 -0.3850 -0.2839 -0.8375
  494MOL0     C65108   5.251   0.857   0.644 -0.1353  0.2934  0.2428
  494MOL0     C65109   5.125   0.802   0.685  0.3936 -0.0962  0.1833
  494MOL0     C65110   5.026   0.878   0.744 -0.0780  0.4712 -0.0272
  494MOL0     O65111   4.905   0.824   0.777  0.2094 -0.4740 -0.3299
  494MOL0     C65112   4.824   0.901   0.871 -0.2455 -0.6934  0.5456
  494MOL0     C65113   4.715   0.817   0.936 -0.3651 -0.4156  0.2469
  494MOL0     C65114   4.599   0.900   1.001 -0.1787 -0.3249  0.0172
  494MOL0     C65115   4.646   1.007   1.104 -0.8899  0.3008  0.7060
  494MOL0     C65116   4.535   1.046   1.203 -0.7242  0.3378 -0.1395
  494MOL0     C65117   4.578   1.055   1.350  0.3441 -0.1452  0.7586
  494MOL0     C65118   4.474   1.134   1.430  0.8351 -0.2075  0.8886
  494MOL0     C65119   4.473   1.088   1.573 -0.4809 -0.2017 -0.6155
  494MOL0    Cl65120   4.396   0.922   1.579 -0.1933 -0.2500  0.5897
  494MOL0     C65121   5.060   1.010   0.768  0.5545 -0.0633  0.3227
  494MOL0     C65122   5.184   1.066   0.736  0.2298 -0.2335 -0.2374
  494MOL0     O65123   5.412   1.244   0.703  0.1529 -0.2745 -0.3989
  494MOL0     C65124   5.692   1.076   0.579 -0.1319  0.2339  0.0195
  494MOL0     C65125   5.830   1.100   0.566 -0.1277 -0.0392  0.3221
  494MOL0     N65126   6.516   1.493   0.630  0.0108 -0.2520 -0.3726
  494MOL0     N65127   6.633   1.447   0.673  0.7041  0.7515 -0.2648
  494MOL0     C65128   7.663   1.967   0.932  0.1802 -0.1135  0.1783
  494MOL0     C65129   7.742   2.032   1.013 -1.0582 -0.5835 -1.2692
  494MOL0     C65130   8.117   2.185   1.229  0.2079  0.3558  1.3579
  494MOL0     C65131   8.245   2.221   1.197  1.4396  0.3555  0.0872
  494MOL0     C65132   8.305   2.314   1.280  0.0420 -0.4281 -1.3083
  494MOL0     C65133   8.242   2.364   1.396  0.3553 -1.0220  0.6410
  494MOL0     O65134   8.311   2.460   1.472 -1.1496  0.4504 -0.1492
  494MOL0     C65135   8.239   2.539   1.566  0.2247  0.8789 -0.2079
  494MOL0     C65136   8.323   2.654   1.632 -0.1918 -0.3151  0.2152
  494MOL0     C65137   8.341   2.772   1.541  0.2542  0.2798  0.3555
  494MOL0     C65138   8.356   2.905   1.614 -0.5882 -0.3282  0.6954
  494MOL0     C65139   8.387   3.005   1.509  0.1616  0.3001  0.5225
  494MOL0     C65140   8.413   3.088   1.426 -0.4999  0.1576  1.2942
  494MOL0     C65141   8.118   2.314   1.419 -0.3010  0.8926 -0.4747
  494MOL0     C65142   8.055   2.232   1.338 -0.3322  0.0903  0.6560
  494MOL0     H65143   7.939   1.772   1.130 -0.3814  0.3299  0.5832
  494MOL0     H65144   7.801   1.656   0.984 -0.7091 -0.6961  2.0068
  494MOL0     H65145   7.634   1.568   0.818  0.9200 -2.1340 -2.3613
  494MOL0     H65146   7.730   1.671   0.715  1.0775 -3.4692  0.5292
  494MOL0     H65147   7.574   1.563   0.578 -2.2757 -0.3162  0.3531
  494MOL0     H65148   7.500   1.726   0.598  1.0227  1.2876 -0.5519
  494MOL0     H65149   7.342   1.642   0.786 -1.6973 -0.4552 -0.7989
  494MOL0     H65150   7.410   1.489   0.760 -0.9017 -1.2092 -2.9653
  494MOL0     H65151   7.247   1.631   0.549 -3.4715 -3.4809 -1.7479
  494MOL0     H65152   7.306   1.463   0.551  2.8032  1.5554 -0.8484
  494MOL0     H65153   7.119   1.582   0.771  1.6370  1.0546 -0.6850
  494MOL0     H65154   7.184   1.418   0.744  0.9591 -2.4055 -2.6687
  494MOL0     H65155   7.084   1.403   0.521 -2.8762 -0.2670 -1.5722
  494MOL0     H65156   6.980   1.529   0.564  0.2506  0.4271  0.6615
  494MOL0     H65157   6.983   1.280   0.734 -1.5052 -1.0893 -1.5018
  494MOL0     H65158   6.903   1.429   0.766  1.3001 -0.0833  1.2008
  494MOL0     H65159   6.789   1.225   0.639 -5.0132  1.6953 -0.3622
  494MOL0     H65160   6.877   1.284   0.503 -1.2092 -1.0836 -0.5687
  494MOL0     H65161   6.660   1.379   0.362 -4.2724 -4.5700 -0.0872
  494MOL0     H65162   6.428   1.449   0.309 -1.0902  2.4600 -0.7071
  494MOL0     H65163   6.435   1.616   0.368  0.2345 -0.1111  1.2493
  494MOL0     H65164   6.205   1.562   0.363  0.6352 -1.3181 -0.6074
  494MOL0     H65165   6.254   1.560   0.534 -1.4288  0.1023  0.0036
  494MOL0     H65166   6.203   1.326   0.356  5.8084 -3.0522  0.6908
  494MOL0     H65167   6.272   1.314   0.522 -2.5983 -1.1449  2.8421
  494MOL0     H65168   5.998   1.444   0.458 -0.5527  0.7867  1.1084
  494MOL0     H65169   6.068   1.431   0.619 -1.1230  3.0066 -0.9497
  494MOL0     H65170   5.820   1.438   0.573  3.5314 -0.2781 -0.9454
  494MOL0     H65171   5.614   1.399   0.638 -0.5840 -0.1868  0.9128
  494MOL0     H65172   5.325   0.793   0.597  0.9555  0.6024  1.4957
  494MOL0     H65173   5.105   0.699   0.656 -0.3489  0.2010 -0.3773
  494MOL0     H65174   4.773   0.974   0.808 -2.1113 -2.2279  0.1808
  494MOL0     H65175   4.890   0.934   0.952 -0.9570 -1.0744  1.2926
  494MOL0     H65176   4.768   0.758   1.012  2.2233 -0.0072 -1.1093
  494MOL0     H65177   4.678   0.739   0.869  1.4365 -3.1786  2.2236
  494MOL0     H65178   4.517   0.837   1.037 -0.2892 -1.9407 -2.8256
  494MOL0     H65179   4.540   0.949   0.923 -2.0602 -0.5425  1.2223
  494MOL0     H65180   4.743   0.971   1.138 -1.4992 -1.0906  1.0535
  494MOL0     H65181   4.666   1.103   1.055 -0.2244 -1.7916 -3.6520
  494MOL0     H65182   4.451   0.976   1.193 -0.2968 -0.5130  1.7977
  494MOL0     H65183   4.499   1.142   1.166  0.5203  1.5844  1.7200
  494MOL0     H65184   4.668   1.116   1.360 -0.0650  0.1540  3.4052
  494MOL0     H65185   4.585   0.959   1.402  0.8018  0.4766  1.8754
  494MOL0     H65186   4.494   1.241   1.422  0.1371 -0.0870  0.7060
  494MOL0     H65187   4.372   1.117   1.397  0.5507  1.6771  0.6778
  494MOL0     H65188   4.425   1.156   1.644  0.0886 -0.6566  0.2215
  494MOL0     H65189   4.570   1.090   1.623 -2.6812  1.6093  4.1845
  494MOL0     H65190   4.990   1.080   0.813 -3.7153 -3.8283  0.2983
  494MOL0     H65191   5.202   1.171   0.756  0.6564 -0.1413 -1.0636
  494MOL0     H65192   5.649   0.981   0.548 -0.4195  0.9219 -1.8244
  494MOL0     H65193   5.890   1.012   0.544 -0.2914 -0.5072  1.6730
  494MOL0     H65194   7.587   2.027   0.882  0.4075 -1.3212 -1.7233
  494MOL0     H65195   7.740   2.140   1.022  0.1846 -0.7044  1.7510
  494MOL0     H65196   8.291   2.181   1.107  0.5319 -0.2641 -0.1064
  494MOL0     H65197   8.409   2.336   1.259  0.3944 -0.5145  0.2136
  494MOL0     H65198   8.206   2.476   1.649 -0.5336 -0.4685 -1.4851
  494MOL0     H65199   8.150   2.583   1.520 -0.4124  0.9248  1.0333
  494MOL0     H65200   8.273   2.694   1.721  1.0188 -0.5277  1.0151
  494MOL0     H65201   8.417   2.604   1.655 -1.4047 -3.1252 -0.4553
  494MOL0     H65202   8.250   2.771   1.480 -0.5648  0.5545  1.5518
  494MOL0     H65203   8.427   2.751   1.476  2.4194  1.3304  2.7125
  494MOL0     H65204   8.265   2.928   1.670 -0.3834 -0.3891  1.0623
  494MOL0     H65205   8.440   2.904   1.685  0.6272  4.0754 -0.3939
  494MOL0     H65206   8.438   3.156   1.347 -1.1937 -1.6555 -0.5776
  494MOL0     H65207   8.057   2.350   1.501 -0.1555 -0.4091  0.2209
  494MOL0     H65208   7.956   2.208   1.374 -1.3967  3.0880  0.0493
  495MOL0     O65209   7.439   9.968   5.803  0.3614  0.1677 -0.6983
  495MOL0     C65210   7.390  10.052   5.884 -0.1578 -0.0568  0.4300
  495MOL0     O65211   7.357  10.181   5.856 -0.9399  0.6950 -0.4080
  495MOL0     C65212   7.377  10.248   5.740 -0.1768  0.9524 -0.2783
  495MOL0     C65213   7.473  10.222   5.641  0.9876 -0.2033  1.6395
  495MOL0     C65214   7.483  10.305   5.525 -0.0036  0.5785 -0.0853
  495MOL0     C65215   7.402  10.417   5.515  0.3915  0.3679  1.0685
  495MOL0     O65216   7.400  10.514   5.419  0.0671 -0.1435 -0.4748
  495MOL0     C65217   7.531  10.548   5.370  0.7753 -0.0904  0.2487
  495MOL0     C65218   7.537  10.687   5.315 -0.0671  0.5883 -0.9254
  495MOL0     C65219   7.544  10.786   5.432  0.3356 -0.3542 -0.2838
  495MOL0     C65220   7.449  10.766   5.545  0.7605  0.4044  0.0086
  495MOL0     C65221   7.439  10.885   5.629  0.1562  0.7727 -1.3823
  495MOL0     C65222   7.342  10.861   5.747  0.4252  0.5812  1.4336
  495MOL0     C65223   7.339  10.986   5.832 -0.7872 -0.1439  0.4162
  495MOL0     C65224   7.288  11.115   5.783 -0.7622 -0.1025 -0.7322
  495MOL0     N65225   7.297  11.233   5.876  0.0446 -0.1203  0.4329
  495MOL0     C65226   7.228  11.247   5.992  0.0698  0.2160  1.1346
  495MOL0     C65227   7.285  11.344   6.067 -1.1571  1.1222 -0.4253
  495MOL0     C65228   7.220  11.382   6.198 -0.7307 -0.2013  1.7134
  495MOL0     C65229   7.154  11.516   6.177  0.5059  0.3327  0.0286
  495MOL0     C65230   7.257  11.620   6.211  0.1438 -0.1408 -1.2685
  495MOL0     C65231   7.280  11.641   6.361  0.3569 -0.6889  1.0940
  495MOL0     O65232   7.161  11.709   6.413 -0.0303  0.0307 -0.5025
  495MOL0     C65233   7.157  11.720   6.551  0.1158  0.1588  0.3260
  495MOL0     C65234   7.228  11.823   6.617 -0.3547 -0.1675  0.4017
  495MOL0     C65235   7.230  11.832   6.755  0.6100  0.2876  0.6411
  495MOL0     C65236   7.148  11.748   6.833 -0.8349  0.8911 -0.5360
  495MOL0     C65237   7.153  11.761   6.976 -0.0240  0.2728 -0.5373
  495MOL0     O65238   7.266  11.824   7.028  0.6608 -0.2449 -0.7535
  495MOL0     C65239   7.256  11.857   7.157 -0.4055 -0.0966 -0.5238
  495MOL0     C65240   7.302  11.771   7.259  0.0454  0.0013  1.3125
  495MOL0     C65241   7.298  11.784   7.397  0.2950 -1.0304 -0.8037
  495MOL0     C65242   7.252  11.914   7.445  0.2996  1.4074  0.1238
  495MOL0     O65243   7.265  11.934   7.576  0.2221 -0.2288 -0.0527
  495MOL0     C65244   7.212  12.057   7.631  0.5196  0.3278  0.1103
  495MOL0     C65245   7.243  12.048   7.785 -0.0584  0.4775 -0.1824
  495MOL0     C65246   7.194  12.188   7.847  0.4260  1.2812  0.0898
  495MOL0     C65247   7.047  12.232   7.823 -0.3824 -0.5963  0.4658
  495MOL0     C65248   7.004  12.366   7.897  0.3219 -0.1425 -0.1432
  495MOL0     C65249   7.080  12.492   7.844 -0.3605 -0.6915  0.4367
  495MOL0     C65250   7.018  12.615   7.891  0.2320 -1.2296  0.5545
  495MOL0     C65251   7.027  12.627   8.044  0.5835 -0.1674 -0.1098
  495MOL0    Cl65252   6.904  12.534   8.132 -0.0625  0.2006  0.1825
  495MOL0     C65253   7.196  12.007   7.354  0.5982 -0.1144  0.0026
  495MOL0     C65254   7.203  11.978   7.209  0.2952 -0.3126  0.5884
  495MOL0     O65255   7.050  11.735   7.038  0.2378  0.2744 -0.8609
  495MOL0     C65256   7.072  11.655   6.762 -0.0947  0.4080  0.4430
  495MOL0     C65257   7.079  11.635   6.626 -0.4679  0.0536  0.0066
  495MOL0     N65258   7.394  11.386   5.997 -0.3715 -0.2495  0.3147
  495MOL0     N65259   7.397  11.320   5.879 -0.2696 -0.3913  0.0071
  495MOL0     C65260   7.311  10.443   5.620  0.3385  1.0351 -0.3782
  495MOL0     C65261   7.289  10.354   5.724  0.4448 -0.1159  0.2284
  495MOL0     C65262   7.386  10.008   6.024 -0.1587 -1.0810  0.6382
  495MOL0     C65263   7.424   9.877   6.059  0.9615 -0.2680 -0.8050
  495MOL0     C65264   7.420   9.834   6.196 -0.0129  0.9215  0.4543
  495MOL0     C65265   7.385   9.925   6.292  1.0449 -0.0117 -0.1583
  495MOL0     O65266   7.374   9.887   6.426 -0.0882  0.2798  1.0842
  495MOL0     C65267   7.291   9.950   6.519  0.2842 -0.3707  0.5733
  495MOL0     C65268   7.146   9.938   6.471  0.2972  0.4578 -0.2033
  495MOL0     C65269   7.114   9.798   6.427  1.0210 -1.5709 -0.1610
  495MOL0     C65270   7.156   9.679   6.514  0.0329  1.0268  0.1877
  495MOL0     C65271   7.096   9.670   6.645  0.4181  0.3463  0.2212
  495MOL0     C65272   7.038   9.659   6.753  0.4311 -0.6651 -0.4954
  495MOL0     C65273   7.350  10.052   6.256 -0.2674 -0.1894  0.8449
  495MOL0     C65274   7.353  10.096   6.129 -0.8960 -0.8876  0.6617
  495MOL0     H65275   7.536  10.133   5.640  2.6282  0.8578 -0.7609
  495MOL0     H65276   7.555  10.291   5.445 -0.9598  1.7513 -1.2019
  495MOL0     H65277   7.550  10.471   5.295 -1.3696  0.3239 -0.8026
  495MOL0     H65278   7.617  10.539   5.437  0.9686  2.1519  0.3746
  495MOL0     H65279   7.440  10.713   5.271 -1.1270 -0.9990  0.3595
  495MOL0     H65280   7.617  10.705   5.243 -0.2430 -0.2145 -1.3368
  495MOL0     H65281   7.532  10.889   5.397 -0.7061 -0.2802  0.2413
  495MOL0     H65282   7.638  10.780   5.488  0.4061 -0.5504 -0.4208
  495MOL0     H65283   7.349  10.753   5.505 -0.6255 -1.4532  3.5676
  495MOL0     H65284   7.470  10.677   5.605 -0.2730  0.1259 -0.0260
  495MOL0     H65285   7.392  10.962   5.568 -1.7573 -0.3845 -1.4569
  495MOL0     H65286   7.541  10.910   5.661  0.3236 -1.4846  0.0375
  495MOL0     H65287   7.377  10.773   5.802  3.9501 -0.0975 -1.5132
  495MOL0     H65288   7.240  10.839   5.716  0.5991  1.1517  0.4236
  495MOL0     H65289   7.290  10.963   5.927  2.1636  2.2734  2.7165
  495MOL0     H65290   7.441  11.001   5.867 -0.1782  0.4535 -1.4758
  495MOL0     H65291   7.181  11.100   5.762 -0.3137 -2.7065 -1.6233
  495MOL0     H65292   7.337  11.150   5.691  2.5432  2.0644  1.6364
  495MOL0     H65293   7.142  11.184   6.015  1.9618 -3.0886 -0.1046
  495MOL0     H65294   7.289  11.375   6.282 -0.6794 -1.5921  1.5707
  495MOL0     H65295   7.139  11.314   6.224 -1.3598  0.2916  1.1052
  495MOL0     H65296   7.071  11.535   6.245  1.2205 -0.2915  1.1163
  495MOL0     H65297   7.106  11.513   6.079 -1.3296 -1.9056  0.8954
  495MOL0     H65298   7.352  11.593   6.163 -0.6593 -1.8210 -2.0187
  495MOL0     H65299   7.225  11.712   6.162 -1.8135 -0.4935 -0.7224
  495MOL0     H65300   7.365  11.704   6.388 -2.0901  2.5474  1.9566
  495MOL0     H65301   7.296  11.542   6.404  0.2022 -1.9020 -1.4804
  495MOL0     H65302   7.282  11.895   6.557 -0.7016 -0.1581  0.0999
  495MOL0     H65303   7.289  11.909   6.803  1.5448 -0.9283  1.5157
  495MOL0     H65304   7.346  11.677   7.227  1.5901 -0.0702  3.3731
  495MOL0     H65305   7.317  11.703   7.467  1.2891  0.5089  0.7964
  495MOL0     H65306   7.104  12.065   7.621  0.4473 -1.4551 -1.0141
  495MOL0     H65307   7.255  12.144   7.581  0.0768  0.4198 -0.1147
  495MOL0     H65308   7.351  12.039   7.804  0.1098  2.7478  0.2491
  495MOL0     H65309   7.179  11.972   7.831 -3.4529  1.2105 -3.2979
  495MOL0     H65310   7.254  12.267   7.801  0.7144 -0.2950 -2.4298
  495MOL0     H65311   7.213  12.199   7.955  1.2532 -3.9992  0.7213
  495MOL0     H65312   7.028  12.248   7.717 -1.3910  2.2541  0.9943
  495MOL0     H65313   6.977  12.156   7.857 -0.1676 -1.6180 -1.2440
  495MOL0     H65314   7.003  12.355   8.006 -0.6470 -2.4776 -0.3288
  495MOL0     H65315   6.904  12.383   7.855  0.0438  1.9843  1.2159
  495MOL0     H65316   7.080  12.488   7.734 -1.3220  3.7463  0.0673
  495MOL0     H65317   7.185  12.508   7.867 -0.2768  2.4240 -1.4464
  495MOL0     H65318   7.080  12.691   7.842  1.1592 -2.3341 -0.0380
  495MOL0     H65319   6.913  12.613   7.859  0.6233 -1.0161 -0.8182
  495MOL0     H65320   7.014  12.735   8.057 -2.1468  0.0657 -3.2992
  495MOL0     H65321   7.122  12.593   8.085  1.6037  3.1383  0.5809
  495MOL0     H65322   7.139  12.096   7.374 -0.5032 -1.1268  1.5540
  495MOL0     H65323   7.178  12.059   7.142  3.4795  1.9405  1.8735
  495MOL0     H65324   7.009  11.588   6.821 -0.3160  0.1131 -0.1266
  495MOL0     H65325   7.021  11.552   6.587  1.0163 -0.3861 -1.3765
  495MOL0     H65326   7.235  10.520   5.630  1.2452  1.8329  0.7572
  495MOL0     H65327   7.219  10.379   5.803  0.0051  0.7284 -0.4123
  495MOL0     H65328   7.448   9.801   5.985 -1.9273  1.1715 -3.4382
  495MOL0     H65329   7.451   9.732   6.216  0.1324 -0.1105 -3.9488
  495MOL0     H65330   7.315  10.057   6.515 -2.6170  0.3443 -0.2688
  495MOL0     H65331   7.300   9.907   6.619  0.7222 -3.2072 -0.6116
  495MOL0     H65332   7.084   9.970   6.555 -0.2878 -0.8978 -0.0881
  495MOL0     H65333   7.119  10.016   6.400 -1.1818  0.7786  0.6617
  495MOL0     H65334   7.154   9.789   6.326  2.5561  1.2119  0.1172
  495MOL0     H65335   7.005   9.809   6.418  1.2976 -0.2964 -4.2200
  495MOL0     H65336   7.135   9.588   6.456  1.4748  1.3531 -0.9050
  495MOL0     H65337   7.265   9.668   6.523 -0.1070 -2.2012 -0.7989
  495MOL0     H65338   6.991   9.637   6.847  0.5899 -1.7681 -0.6553
  495MOL0     H65339   7.318  10.128   6.327 -2.4876 -2.4609  2.4524
  495MOL0     H65340   7.338  10.202   6.112  0.0396 -0.5000  2.0206
  496MOL0     O65341   9.893   9.919   4.854 -0.0699 -0.4761 -0.1407
  496MOL0     C65342   9.778   9.948   4.815  0.4142 -0.8369  0.6890
  496MOL0     O65343   9.667   9.975   4.895 -1.1471 -0.0547 -0.1135
  496MOL0     C65344   9.668   9.994   5.031  0.1762  0.7565  1.3280
  496MOL0     C65345   9.558   9.942   5.106 -0.0954 -0.5130  0.2622
  496MOL0     C65346   9.549   9.968   5.246 -0.5603 -1.2115  0.0075
  496MOL0     C65347   9.651  10.041   5.308  0.2816 -0.0567 -0.0780
  496MOL0     O65348   9.652  10.071   5.441 -0.3814 -0.0240  0.0201
  496MOL0     C65349   9.603  10.209   5.461  0.3723  0.2422  0.1721
  496MOL0     C65350   9.529  10.200   5.596  0.2270  1.0062 -0.3541
  496MOL0     C65351   9.409  10.094   5.585 -0.2351  0.1450  0.0591
  496MOL0     C65352   9.310  10.081   5.702  0.3198 -0.9000  0.3522
  496MOL0     C65353   9.229  10.219   5.713 -0.4524  0.9389 -0.8848
  496MOL0     C65354   9.118  10.210   5.814  0.4933  0.6543 -0.2844
  496MOL0     C65355   9.166  10.214   5.962 -1.0077 -0.3505 -0.2918
  496MOL0     C65356   9.085  10.128   6.048  1.0753  0.7435  0.1389
  496MOL0     N65357   8.971  10.211   6.099  0.0965 -0.2956 -0.2974
  496MOL0     C65358   8.837  10.212   6.055 -0.3779  0.9550 -0.4853
  496MOL0     C65359   8.782  10.323   6.111  0.2688 -0.6144  0.9334
  496MOL0     C65360   8.640  10.358   6.079  1.4473 -0.7165  0.4306
  496MOL0     C65361   8.639  10.460   5.949 -0.6265 -0.4937 -0.8008
  496MOL0     C65362   8.626  10.391   5.811  0.0715 -0.0058  0.0663
  496MOL0     C65363   8.758  10.410   5.724 -1.1499  0.1668 -0.5591
  496MOL0     O65364   8.798  10.541   5.716  0.3509 -0.1188  0.2506
  496MOL0     C65365   8.934  10.556   5.693  0.4540  0.7823 -0.8146
  496MOL0     C65366   9.012  10.570   5.804  0.4631  0.5533 -0.1730
  496MOL0     C65367   9.148  10.595   5.789 -0.6297  0.2933 -0.6286
  496MOL0     C65368   9.201  10.604   5.654  0.2074  0.5761 -0.1237
  496MOL0     C65369   9.343  10.628   5.642 -0.7201 -0.3424 -0.1545
  496MOL0     O65370   9.380  10.682   5.529 -0.2916 -0.9968 -0.4291
  496MOL0     C65371   9.510  10.661   5.489  0.3910  0.1714 -1.5249
  496MOL0     C65372   9.610  10.755   5.518  0.0674 -0.3753  0.0014
  496MOL0     C65373   9.733  10.761   5.456 -0.0041 -0.3844  0.5945
  496MOL0     C65374   9.754  10.675   5.351 -0.5187 -0.7185  0.0925
  496MOL0     O65375   9.869  10.678   5.280  0.0505  0.6625 -0.0178
  496MOL0     C65376   9.995  10.657   5.346 -0.5832  0.9967 -0.4688
  496MOL0     C65377  10.103  10.628   5.231  0.8736 -0.5152  0.8931
  496MOL0     C65378  10.080  10.733   5.115  0.3109 -1.0457 -0.9482
  496MOL0     C65379  10.195  10.733   5.015  0.7558  0.5100 -0.1793
  496MOL0     C65380  10.152  10.798   4.888 -0.8531  0.3075 -0.0947
  496MOL0     C65381  10.265  10.812   4.785 -0.6158  0.4977 -0.2777
  496MOL0     C65382  10.226  10.858   4.650 -0.6054 -0.2142 -0.2604
  496MOL0     C65383  10.341  10.845   4.547  0.2369 -0.1359  0.2545
  496MOL0    Cl65384  10.356  10.677   4.484 -0.4905  0.2489  0.3267
  496MOL0     C65385   9.655  10.586   5.318  0.0845 -0.1947  0.2822
  496MOL0     C65386   9.531  10.580   5.378 -0.6650 -0.8834 -0.1814
  496MOL0     O65387   9.418  10.586   5.733  0.2425 -0.2418  0.4186
  496MOL0     C65388   9.118  10.596   5.543 -0.4405 -0.1197 -0.2329
  496MOL0     C65389   8.981  10.569   5.568  0.3443  1.0477 -0.7405
  496MOL0     N65390   8.879  10.397   6.182 -0.3373 -1.0711  0.1238
  496MOL0     N65391   8.988  10.324   6.174  1.0378 -0.4974 -0.2391
  496MOL0     C65392   9.755  10.092   5.233 -0.0053  0.1897  0.2056
  496MOL0     C65393   9.761  10.067   5.092 -0.3226 -1.4040 -0.4595
  496MOL0     C65394   9.762   9.953   4.660  0.5493 -0.8212 -1.0156
  496MOL0     C65395   9.867   9.963   4.576 -0.0170 -0.1656  0.7215
  496MOL0     C65396   9.851   9.964   4.432  0.1657 -0.4183 -0.4496
  496MOL0     C65397   9.724   9.959   4.381  0.1956 -0.2630 -0.0711
  496MOL0     O65398   9.708   9.950   4.241 -1.1678 -0.1259  0.6241
  496MOL0     C65399   9.591   9.938   4.171 -0.5857 -0.0302 -0.4262
  496MOL0     C65400   9.619   9.849   4.043 -0.0914 -0.2151 -0.4727
  496MOL0     C65401   9.503   9.757   4.001 -0.2968 -0.2281 -0.4780
  496MOL0     C65402   9.375   9.833   3.975 -0.2786 -0.3899 -0.4662
  496MOL0     C65403   9.314   9.905   4.089 -0.6380  0.1487  0.5724
  496MOL0     C65404   9.268   9.965   4.184  0.2161  0.4156  0.2355
  496MOL0     C65405   9.614   9.969   4.469  0.2712  0.4170 -0.9357
  496MOL0     C65406   9.631   9.967   4.607 -0.5555  0.1722 -0.2874
  496MOL0     H65407   9.484   9.883   5.052 -0.5587  0.5433 -0.2722
  496MOL0     H65408   9.465   9.927   5.300 -1.0147 -1.1521 -0.6401
  496MOL0     H65409   9.555  10.259   5.376  0.3580  0.1183  0.1065
  496MOL0     H65410   9.691  10.268   5.486 -1.1125  1.5344  2.6484
  496MOL0     H65411   9.485  10.296   5.623 -0.5747  0.0000  2.2233
  496MOL0     H65412   9.599  10.174   5.676  2.2263 -0.3734 -2.4055
  496MOL0     H65413   9.464   9.999   5.579  0.9060  0.6315  1.9576
  496MOL0     H65414   9.337  10.120   5.507 -0.3123 -1.2126 -0.3413
  496MOL0     H65415   9.236  10.002   5.685 -0.2888 -0.1029 -0.8739
  496MOL0     H65416   9.344  10.065   5.805 -0.6723  0.6191  0.9541
  496MOL0     H65417   9.184  10.258   5.622 -0.0972  3.3179 -0.1431
  496MOL0     H65418   9.306  10.292   5.741  0.6084 -0.5760  0.3456
  496MOL0     H65419   9.058  10.119   5.807  1.0534 -0.1137  3.0167
  496MOL0     H65420   9.045  10.290   5.801  0.0297  0.1810 -0.6064
  496MOL0     H65421   9.269  10.182   5.979 -0.7736  0.4863 -0.0812
  496MOL0     H65422   9.170  10.317   5.996 -0.8785 -0.4614  0.0237
  496MOL0     H65423   9.141  10.087   6.133 -1.6948 -3.2939  0.3053
  496MOL0     H65424   9.049  10.039   5.996  0.6825  0.0648  1.5037
  496MOL0     H65425   8.782  10.134   6.004 -1.1405 -0.5805  2.4347
  496MOL0     H65426   8.592  10.409   6.163 -0.6892 -2.8031  0.5585
  496MOL0     H65427   8.582  10.269   6.054  0.1474  0.0839  0.5023
  496MOL0     H65428   8.732  10.516   5.941 -1.4553  0.8205 -1.6848
  496MOL0     H65429   8.560  10.532   5.972 -2.5554 -3.2085  1.8408
  496MOL0     H65430   8.612  10.283   5.822  2.2760 -0.1593  2.1808
  496MOL0     H65431   8.538  10.429   5.758 -1.6043  0.6194  3.0564
  496MOL0     H65432   8.743  10.374   5.622 -0.1030  0.1216 -0.7079
  496MOL0     H65433   8.836  10.349   5.771 -0.9080  0.1081 -1.0339
  496MOL0     H65434   8.966  10.582   5.902  2.7385 -0.3256  1.1032
  496MOL0     H65435   9.209  10.619   5.875 -2.4313  4.0792 -0.1703
  496MOL0     H65436   9.604  10.831   5.595  0.5528 -0.1427 -0.1830
  496MOL0     H65437   9.804  10.839   5.484  1.5234 -0.5905 -2.2650
  496MOL0     H65438   9.994  10.576   5.420  0.1225  1.9456  0.6300
  496MOL0     H65439  10.019  10.749   5.400  1.1791 -0.7133  1.9289
  496MOL0     H65440  10.098  10.528   5.187 -3.7957 -0.1155 -0.0113
  496MOL0     H65441  10.201  10.647   5.275  0.1329  0.3470  2.2349
  496MOL0     H65442  10.060  10.832   5.159 -0.4807 -0.6974 -2.0388
  496MOL0     H65443   9.988  10.714   5.058 -0.8215  0.3402  0.3159
  496MOL0     H65444  10.283  10.786   5.050  1.8671 -2.2330  1.4726
  496MOL0     H65445  10.232  10.634   4.985 -0.0813  0.6701 -1.8776
  496MOL0     H65446  10.099  10.892   4.904 -1.6669 -0.3289  1.1421
  496MOL0     H65447  10.086  10.728   4.836 -0.3282  0.3103 -0.7764
  496MOL0     H65448  10.320  10.717   4.775  0.4258  1.0415  0.1033
  496MOL0     H65449  10.344  10.879   4.821  0.3440 -0.2602 -0.8951
  496MOL0     H65450  10.141  10.795   4.623 -2.1292 -0.7574  4.7049
  496MOL0     H65451  10.209  10.966   4.651  2.8415  0.4697 -0.2762
  496MOL0     H65452  10.438  10.872   4.590  0.8104 -0.2517 -0.9462
  496MOL0     H65453  10.319  10.905   4.458 -2.7770 -1.8349 -0.2875
  496MOL0     H65454   9.658  10.521   5.231 -1.0850  3.3464 -2.6698
  496MOL0     H65455   9.462  10.508   5.336  0.8347 -1.8051 -1.1771
  496MOL0     H65456   9.139  10.606   5.436 -0.6305 -0.9133 -0.3488
  496MOL0     H65457   8.909  10.554   5.488  1.1026  2.9013 -1.8337
  496MOL0     H65458   9.832  10.153   5.278 -1.4405  3.0353 -0.9164
  496MOL0     H65459   9.847  10.105   5.038  0.6631 -1.4955  0.9766
  496MOL0     H65460   9.970   9.964   4.609  0.7639  0.2180 -1.4961
  496MOL0     H65461   9.922   9.962   4.350  0.3684 -0.5754 -0.2711
  496MOL0     H65462   9.549  10.037   4.151 -2.6059 -0.5686  0.8522
  496MOL0     H65463   9.521   9.894   4.243  0.6498  1.8334  2.0818
  496MOL0     H65464   9.631   9.914   3.955 -0.2959  0.9988  0.3616
  496MOL0     H65465   9.712   9.792   4.053 -0.2476 -0.4623 -0.4417
  496MOL0     H65466   9.486   9.693   4.087 -1.4934  0.5032 -0.1336
  496MOL0     H65467   9.517   9.697   3.911  0.0479 -2.7494  1.1577
  496MOL0     H65468   9.383   9.897   3.886 -0.2094  1.8912  1.0935
  496MOL0     H65469   9.299   9.757   3.953 -2.8841  0.8228  3.4068
  496MOL0     H65470   9.230  10.017   4.270 -0.7735  0.7692 -0.4032
  496MOL0     H65471   9.510   9.978   4.441 -0.5750  3.0240  2.2819
  496MOL0     H65472   9.543   9.965   4.670 -2.9058 -0.8565 -3.3175
  497MOL0     O65473   5.731   6.871   9.618 -0.1781 -0.2209  0.3616
  497MOL0     C65474   5.800   6.925   9.532 -0.3612  0.3521 -0.2017
  497MOL0     O65475   5.743   6.953   9.422 -1.2219  0.6133 -0.2339
  497MOL0     C65476   5.614   6.896   9.385 -1.0919 -0.5948  0.1686
  497MOL0     C65477   5.592   6.757   9.375  1.1835 -0.6579  0.0618
  497MOL0     C65478   5.463   6.714   9.340  0.2740  0.4038  0.3880
  497MOL0     C65479   5.365   6.796   9.315 -0.1186  0.3090  0.5176
  497MOL0     O65480   5.250   6.743   9.286  0.9165  0.0422  0.4130
  497MOL0     C65481   5.140   6.826   9.251 -0.2841 -0.3697 -0.2140
  497MOL0     C65482   5.007   6.744   9.234 -0.4601 -0.2036  1.1831
  497MOL0     C65483   5.039   6.617   9.155 -0.0604 -0.0457  0.4689
  497MOL0     C65484   4.921   6.525   9.124  0.3183 -0.1606 -0.1657
  497MOL0     C65485   4.970   6.421   9.018 -0.3725  0.4219 -0.8631
  497MOL0     C65486   4.850   6.339   8.958 -0.4724  0.0076 -0.4880
  497MOL0     C65487   4.779   6.246   9.056  0.3745  0.2266 -0.2151
  497MOL0     C65488   4.664   6.166   8.978 -0.8070 -0.6167  0.1718
  497MOL0     N65489   4.554   6.241   8.922 -0.7815 -0.6676  0.0512
  497MOL0     C65490   4.447   6.299   8.984 -0.2660 -0.0931  0.1098
  497MOL0     C65491   4.376   6.372   8.892 -0.0904  1.0874 -0.6709
  497MOL0     C65492   4.262   6.466   8.911  0.1612  0.3746  0.4700
  497MOL0     C65493   4.135   6.382   8.949  0.0238 -0.3233  0.4480
  497MOL0     C65494   4.008   6.484   8.966 -0.4367 -0.2066  0.0922
  497MOL0     C65495   3.890   6.423   8.897  0.0069 -0.4748 -0.2171
  497MOL0     O65496   3.835   6.310   8.965 -0.0848  0.7811 -0.4010
  497MOL0     C65497   3.721   6.247   8.915  0.2941  0.7957  0.6439
  497MOL0     C65498   3.646   6.161   8.992  0.0187 -0.2444 -1.1542
  497MOL0     C65499   3.522   6.110   8.958 -0.7197  0.6926  0.5290
  497MOL0     C65500   3.475   6.135   8.834  0.5763 -0.5698  0.2040
  497MOL0     C65501   3.335   6.074   8.805 -0.6733  0.0343 -1.2214
  497MOL0     O65502   3.282   6.001   8.911  0.3166 -0.0508 -0.0481
  497MOL0     C65503   3.153   5.945   8.887 -0.5206  0.3363 -0.2702
  497MOL0     C65504   3.042   6.022   8.867 -0.4909 -0.0805  0.1477
  497MOL0     C65505   2.921   5.971   8.817 -0.0761  1.1238 -0.0089
  497MOL0     C65506   2.913   5.824   8.803 -0.4376  0.6585 -0.4413
  497MOL0     O65507   2.804   5.760   8.763  0.1336  0.8090  0.2331
  497MOL0     C65508   2.669   5.808   8.765  0.3723  0.4804 -0.4345
  497MOL0     C65509   2.566   5.705   8.698 -0.0972 -0.2782  0.5549
  497MOL0     C65510   2.415   5.731   8.695 -0.9488  0.1643 -0.4403
  497MOL0     C65511   2.340   5.596   8.643 -0.0103 -0.5319  0.9436
  497MOL0     C65512   2.186   5.600   8.642  0.1433 -0.0903 -0.1437
  497MOL0     C65513   2.109   5.505   8.559 -0.0912  0.4153  0.0901
  497MOL0     C65514   1.962   5.523   8.579 -0.4999  0.1098  0.6007
  497MOL0     C65515   1.898   5.409   8.502  0.9594  0.7106  0.3052
  497MOL0    Cl65516   1.717   5.409   8.528  0.3392  0.1966 -0.2863
  497MOL0     C65517   3.026   5.744   8.834 -0.3165  0.5490  0.4211
  497MOL0     C65518   3.144   5.804   8.878  0.4175 -0.0870 -0.7302
  497MOL0     O65519   3.291   6.071   8.691 -0.0296 -0.7461  0.4180
  497MOL0     C65520   3.548   6.214   8.749 -1.2551  0.3164  0.6286
  497MOL0     C65521   3.667   6.268   8.792 -0.0203  0.0086 -0.7073
  497MOL0     N65522   4.450   6.367   8.774 -0.3388 -0.6550 -0.7756
  497MOL0     N65523   4.551   6.284   8.792  0.2999  0.2681 -0.9228
  497MOL0     C65524   5.382   6.941   9.342  0.4292  0.0253 -0.5111
  497MOL0     C65525   5.505   6.986   9.379 -0.2229  0.0391  0.6323
  497MOL0     C65526   5.935   6.986   9.570  0.2874  0.6720  0.0730
  497MOL0     C65527   6.016   7.018   9.463  0.0384 -0.7155 -0.2975
  497MOL0     C65528   6.131   7.092   9.471  0.0784  0.2880  0.5131
  497MOL0     C65529   6.190   7.117   9.597  1.2427 -0.6177 -0.3099
  497MOL0     O65530   6.303   7.197   9.622  0.1225  0.3857  0.3024
  497MOL0     C65531   6.383   7.227   9.516 -0.6502  0.8627  0.0964
  497MOL0     C65532   6.520   7.284   9.562 -0.8179  0.2433  0.4909
  497MOL0     C65533   6.528   7.433   9.528  0.2185 -0.2481 -0.1696
  497MOL0     C65534   6.521   7.460   9.377 -0.2291  0.2741  0.1743
  497MOL0     C65535   6.526   7.600   9.341  0.7656 -0.3006 -0.5959
  497MOL0     C65536   6.530   7.711   9.299  0.5981 -1.2541  0.5759
  497MOL0     C65537   6.123   7.068   9.712 -0.7131  0.2080  1.4014
  497MOL0     C65538   5.997   7.003   9.696 -0.4937 -0.2000  0.1884
  497MOL0     H65539   5.671   6.683   9.372  1.9135  0.1482 -2.4035
  497MOL0     H65540   5.452   6.607   9.322 -0.6415  0.7124 -1.0514
  497MOL0     H65541   5.161   6.878   9.157 -0.9230 -0.6642 -0.5230
  497MOL0     H65542   5.118   6.899   9.330  0.7943 -0.0213 -0.2180
  497MOL0     H65543   4.932   6.800   9.178  1.0054 -1.4311 -2.3396
  497MOL0     H65544   4.968   6.732   9.335  1.0312 -1.8350  1.6240
  497MOL0     H65545   5.101   6.556   9.222 -3.1381 -0.4333  3.2194
  497MOL0     H65546   5.093   6.650   9.065  2.2276 -0.9222  1.4408
  497MOL0     H65547   4.879   6.487   9.218  0.8205  1.1807  0.6152
  497MOL0     H65548   4.838   6.586   9.087 -1.0990 -2.5956 -1.2481
  497MOL0     H65549   5.046   6.352   9.055  1.2000  2.9880  1.1324
  497MOL0     H65550   5.014   6.470   8.931  0.2025 -1.5218 -1.7242
  497MOL0     H65551   4.901   6.282   8.880  3.9306  0.4852  1.7611
  497MOL0     H65552   4.775   6.410   8.919 -1.3052  1.5193  3.4343
  497MOL0     H65553   4.844   6.173   9.104  0.0570  0.3752  0.4581
  497MOL0     H65554   4.726   6.298   9.136 -1.9717 -3.4437  0.8730
  497MOL0     H65555   4.613   6.086   9.033 -0.7554  0.3700  1.7147
  497MOL0     H65556   4.709   6.109   8.896 -4.9578 -2.9370 -0.7424
  497MOL0     H65557   4.424   6.291   9.090 -0.3722  0.4211  0.1254
  497MOL0     H65558   4.250   6.519   8.816 -1.2998 -0.6138  0.0709
  497MOL0     H65559   4.277   6.548   8.981  0.4538  2.1305 -1.5697
  497MOL0     H65560   4.144   6.323   9.040  0.6587 -2.9745 -1.2385
  497MOL0     H65561   4.106   6.310   8.872 -1.6957  0.2886  0.4740
  497MOL0     H65562   3.982   6.499   9.071  0.6243 -2.2062  0.7046
  497MOL0     H65563   4.041   6.577   8.919  1.2663 -0.8302  0.0068
  497MOL0     H65564   3.920   6.393   8.797 -1.0749 -0.4590 -0.5597
  497MOL0     H65565   3.812   6.499   8.894  0.2563 -0.2005  0.1429
  497MOL0     H65566   3.679   6.141   9.094 -3.1739 -0.7824 -0.1171
  497MOL0     H65567   3.467   6.063   9.038 -4.3095 -0.4541 -2.3401
  497MOL0     H65568   3.052   6.129   8.877 -1.3125  0.0641 -0.4569
  497MOL0     H65569   2.832   6.031   8.799 -0.3419  0.9615  0.7006
  497MOL0     H65570   2.661   5.896   8.702  3.2915 -0.3071 -2.0969
  497MOL0     H65571   2.630   5.841   8.862  0.4956 -0.9251  0.1238
  497MOL0     H65572   2.593   5.609   8.743 -0.3305 -1.5281 -1.7770
  497MOL0     H65573   2.584   5.694   8.590 -2.4722  0.4818  0.0137
  497MOL0     H65574   2.385   5.819   8.637 -1.5471 -0.6133 -1.3321
  497MOL0     H65575   2.383   5.758   8.796  2.0352  4.0266 -0.3033
  497MOL0     H65576   2.365   5.582   8.538 -2.0093 -1.6970  0.5692
  497MOL0     H65577   2.379   5.506   8.692  1.4449 -1.4689 -1.7462
  497MOL0     H65578   2.149   5.694   8.600  2.6000 -0.5856 -3.8534
  497MOL0     H65579   2.156   5.589   8.747  4.4194 -1.3408  1.1393
  497MOL0     H65580   2.140   5.401   8.573 -0.6874  0.2152 -0.0556
  497MOL0     H65581   2.138   5.527   8.456 -0.0576 -1.1501 -0.2649
  497MOL0     H65582   1.937   5.502   8.683 -2.1795  0.8332  0.3871
  497MOL0     H65583   1.913   5.616   8.549 -0.9422  0.5342  2.5047
  497MOL0     H65584   1.938   5.310   8.524 -1.8845 -0.5955 -0.0646
  497MOL0     H65585   1.915   5.430   8.396  0.4474  5.7568  0.9293
  497MOL0     H65586   3.018   5.637   8.821 -1.6278  0.6997 -0.1711
  497MOL0     H65587   3.230   5.749   8.914  2.1001  1.8488 -1.5808
  497MOL0     H65588   3.504   6.237   8.652 -2.7767 -1.6994  0.7872
  497MOL0     H65589   3.725   6.322   8.717  1.1325 -0.0785  0.0901
  497MOL0     H65590   5.306   7.016   9.324  0.6584  0.4979  0.4462
  497MOL0     H65591   5.530   7.089   9.406 -3.6729  1.1835 -0.0617
  497MOL0     H65592   5.990   6.983   9.364 -1.1049  0.3689 -0.4091
  497MOL0     H65593   6.186   7.121   9.382 -0.5441  1.1599  0.4030
  497MOL0     H65594   6.341   7.278   9.429  0.5055  2.3339  0.3661
  497MOL0     H65595   6.404   7.128   9.474 -3.6021  1.2642 -2.7005
  497MOL0     H65596   6.540   7.251   9.664 -0.9417 -3.6084 -0.5994
  497MOL0     H65597   6.598   7.224   9.516 -2.6272 -1.9842  0.1269
  497MOL0     H65598   6.626   7.472   9.557 -0.3060  1.5427 -0.7153
  497MOL0     H65599   6.445   7.488   9.572  0.4188  1.8222 -2.2070
  497MOL0     H65600   6.605   7.411   9.327  0.0457 -0.4789  1.3282
  497MOL0     H65601   6.439   7.412   9.323 -0.8433  1.1224  0.3439
  497MOL0     H65602   6.544   7.808   9.255 -2.6285  0.2072  2.3952
  497MOL0     H65603   6.176   7.072   9.806 -0.9856 -1.8821  1.6917
  497MOL0     H65604   5.935   6.986   9.783  1.1448 -0.0125  1.4309
  498MOL0     O65605  11.183  10.772  10.860 -0.0142 -0.2926  1.0364
  498MOL0     C65606  11.176  10.749  10.737  0.1038 -0.7559  0.2749
  498MOL0     O65607  11.160  10.851  10.643 -0.2911 -0.6735 -0.4225
  498MOL0     C65608  11.129  10.978  10.686 -0.6990 -0.2876 -0.2415
  498MOL0     C65609  11.023  11.011  10.772  0.1664 -0.4477  0.2792
  498MOL0     C65610  10.997  11.149  10.809 -0.3255 -0.9894  0.5019
  498MOL0     C65611  11.068  11.250  10.742  0.8359 -1.6475  0.2313
  498MOL0     O65612  11.052  11.385  10.767  0.1097 -0.5831  0.4108
  498MOL0     C65613  11.027  11.437  10.895 -0.8300 -0.3830  0.7404
  498MOL0     C65614  11.048  11.591  10.874  0.2572  0.2422  0.3786
  498MOL0     C65615  11.182  11.639  10.825  0.5629 -0.1955  0.1288
  498MOL0     C65616  11.169  11.780  10.754  0.1468 -0.6993 -0.8929
  498MOL0     C65617  11.319  11.839  10.743  0.5324 -0.4527  0.4458
  498MOL0     C65618  11.329  11.971  10.648 -0.6044  0.1493  0.9710
  498MOL0     C65619  11.320  11.930  10.498 -0.7843 -0.9362 -0.2708
  498MOL0     C65620  11.316  12.058  10.402 -0.2473  0.1369  0.5207
  498MOL0     N65621  11.439  12.135  10.428  0.2872  0.2740  0.0385
  498MOL0     C65622  11.463  12.260  10.476  0.1065  0.2065  0.0263
  498MOL0     C65623  11.600  12.268  10.471  0.7262  1.0337 -0.2179
  498MOL0     C65624  11.673  12.387  10.527  0.3557  0.2688 -0.8590
  498MOL0     C65625  11.646  12.522  10.470  0.1442 -0.6790  0.8708
  498MOL0     C65626  11.694  12.553  10.326 -0.7443  0.2404  0.6947
  498MOL0     C65627  11.678  12.705  10.307 -0.4920  0.8565  0.3312
  498MOL0     O65628  11.541  12.754  10.311  0.3513 -1.2972  1.3973
  498MOL0     C65629  11.474  12.776  10.192 -0.3178  0.0654  1.1494
  498MOL0     C65630  11.415  12.903  10.165  0.1462  0.4377  0.2398
  498MOL0     C65631  11.370  12.935  10.030 -0.2861 -0.2517 -0.7077
  498MOL0     C65632  11.385  12.847   9.926 -0.2731  0.5979 -0.2969
  498MOL0     C65633  11.326  12.866   9.790 -0.0071  0.3380  0.3600
  498MOL0     O65634  11.323  12.769   9.686  0.4455 -0.3961  0.1694
  498MOL0     C65635  11.282  12.807   9.556  0.9830  0.0140 -0.3684
  498MOL0     C65636  11.364  12.789   9.446 -0.5262  0.1346 -0.5342
  498MOL0     C65637  11.324  12.842   9.331 -0.0561  0.0621  0.4123
  498MOL0     C65638  11.200  12.912   9.313 -0.0360 -1.1222  0.1478
  498MOL0     O65639  11.172  12.974   9.195  0.0776  0.5448  0.4571
  498MOL0     C65640  11.125  13.105   9.186 -0.5613 -0.8954  0.0176
  498MOL0     C65641  11.186  13.175   9.065  0.0113 -0.0826 -0.3641
  498MOL0     C65642  11.152  13.325   9.040  0.5585  0.1215  0.5578
  498MOL0     C65643  11.211  13.405   9.149  0.2709 -0.5833 -0.3921
  498MOL0     C65644  11.250  13.554   9.118  0.6712  0.5594 -0.3990
  498MOL0     C65645  11.392  13.567   9.074 -0.2080 -0.6068 -0.0610
  498MOL0     C65646  11.490  13.556   9.189  1.2437  0.3727 -0.5665
  498MOL0     C65647  11.632  13.611   9.182  0.0255  0.1354 -0.2051
  498MOL0    Cl65648  11.706  13.600   9.345 -0.1150 -0.2818  0.5661
  498MOL0     C65649  11.119  12.928   9.425  0.2785 -0.2096 -0.5204
  498MOL0     C65650  11.151  12.865   9.544 -0.4905 -0.6027 -0.3794
  498MOL0     O65651  11.283  12.977   9.766 -0.8522  0.0466  0.1615
  498MOL0     C65652  11.455  12.726   9.948  1.5412 -0.2595  0.2360
  498MOL0     C65653  11.486  12.693  10.083 -0.1373 -0.3255  0.6095
  498MOL0     N65654  11.654  12.144  10.430  0.3868 -0.5026 -0.2078
  498MOL0     N65655  11.556  12.069  10.408  0.2289  0.5657  0.7480
  498MOL0     C65656  11.170  11.220  10.652 -0.4182 -0.4108  0.0700
  498MOL0     C65657  11.206  11.088  10.628 -0.0780 -0.6055  0.8533
  498MOL0     C65658  11.204  10.609  10.675  0.5965  0.3810 -0.3030
  498MOL0     C65659  11.177  10.496  10.756 -0.3559 -0.5679 -0.2980
  498MOL0     C65660  11.187  10.371  10.695 -0.3719  0.3000 -0.4361
  498MOL0     C65661  11.225  10.354  10.554 -0.3668  0.2680  0.4553
  498MOL0     O65662  11.229  10.225  10.497  0.0528  1.3386 -0.0539
  498MOL0     C65663  11.236  10.113  10.590 -0.0937 -0.2005  0.0207
  498MOL0     C65664  11.267   9.986  10.527  0.0307 -0.6184 -0.7966
  498MOL0     C65665  11.251   9.874  10.631 -0.1908 -0.0225 -0.4583
  498MOL0     C65666  11.279   9.739  10.562  0.1452  0.5660  0.3439
  498MOL0     C65667  11.304   9.638  10.664 -0.6811  0.3961 -0.3269
  498MOL0     C65668  11.338   9.551  10.756  0.7192 -0.4743 -0.2553
  498MOL0     C65669  11.241  10.467  10.474 -0.0021 -0.4151  0.1746
  498MOL0     C65670  11.228  10.598  10.544 -0.8688  0.0394  0.4760
  498MOL0     H65671  10.989  10.924  10.827 -2.1507  0.9373  1.1441
  498MOL0     H65672  10.929  11.169  10.891  0.8036 -0.5428  1.3407
  498MOL0     H65673  11.108  11.396  10.956 -0.2467 -0.2152  0.0867
  498MOL0     H65674  10.933  11.406  10.942 -1.3360  0.1135  0.0651
  498MOL0     H65675  11.033  11.637  10.971  1.1376  0.5454  0.3844
  498MOL0     H65676  10.969  11.620  10.804  2.0054 -3.0251 -3.4375
  498MOL0     H65677  11.216  11.562  10.755 -1.1702 -2.8780  2.0493
  498MOL0     H65678  11.248  11.646  10.912  1.0674  1.7933 -0.3537
  498MOL0     H65679  11.121  11.768  10.657 -3.4219  0.8560  0.4740
  498MOL0     H65680  11.109  11.849  10.814  1.9495  2.1973 -2.2036
  498MOL0     H65681  11.373  11.752  10.705 -0.9149 -1.5004  0.6872
  498MOL0     H65682  11.362  11.864  10.841  1.3018  0.9929 -0.2396
  498MOL0     H65683  11.425  12.017  10.673 -0.7370 -0.2476  2.2592
  498MOL0     H65684  11.255  12.047  10.674 -0.3081  0.0975  1.9871
  498MOL0     H65685  11.398  11.857  10.472  0.6924 -0.3507  2.1644
  498MOL0     H65686  11.225  11.879  10.483 -1.5650  0.1112  1.0117
  498MOL0     H65687  11.229  12.121  10.422 -0.4460  0.4495 -1.1551
  498MOL0     H65688  11.315  12.031  10.296  0.3475  2.2123 -0.0439
  498MOL0     H65689  11.383  12.330  10.500 -0.1527  0.3132 -1.1169
  498MOL0     H65690  11.780  12.364  10.524  0.2631 -0.0504 -1.8509
  498MOL0     H65691  11.644  12.391  10.633  1.6096 -1.9238 -0.3788
  498MOL0     H65692  11.700  12.595  10.530  2.9419 -2.1897  0.3597
  498MOL0     H65693  11.539  12.541  10.481  0.3084 -0.1401  1.5820
  498MOL0     H65694  11.800  12.526  10.319 -0.0082  2.8219  0.8578
  498MOL0     H65695  11.634  12.491  10.258  0.2334  1.5560 -1.4817
  498MOL0     H65696  11.728  12.730  10.213 -3.9041 -1.6607 -2.4110
  498MOL0     H65697  11.728  12.765  10.385 -2.3809  1.8131  0.8755
  498MOL0     H65698  11.409  12.981  10.240  0.9584  5.4661 -4.3647
  498MOL0     H65699  11.320  13.030  10.011 -0.5732 -0.3038 -0.2214
  498MOL0     H65700  11.461  12.741   9.452 -3.0977 -5.8707  0.1833
  498MOL0     H65701  11.379  12.814   9.241 -0.1003  1.8125 -0.2023
  498MOL0     H65702  11.124  13.156   9.282 -1.3703 -0.1711 -0.3640
  498MOL0     H65703  11.018  13.104   9.164 -0.3906 -1.9273 -0.8597
  498MOL0     H65704  11.145  13.118   8.981 -1.6024 -0.0304  0.3662
  498MOL0     H65705  11.295  13.164   9.061  0.2198  1.8283 -1.6645
  498MOL0     H65706  11.043  13.339   9.038  0.2644 -1.0983  3.4620
  498MOL0     H65707  11.202  13.355   8.947  2.9548  0.7462  1.9647
  498MOL0     H65708  11.132  13.413   9.225 -0.7484  0.3686 -1.5045
  498MOL0     H65709  11.297  13.360   9.197  0.2252  1.6337  2.0035
  498MOL0     H65710  11.226  13.627   9.196  2.2560  1.8516 -1.0700
  498MOL0     H65711  11.182  13.574   9.035 -1.3525 -1.4160  0.6517
  498MOL0     H65712  11.395  13.666   9.028 -2.1526 -1.6425 -2.6289
  498MOL0     H65713  11.412  13.493   8.996 -1.9927  0.1792 -1.3263
  498MOL0     H65714  11.438  13.596   9.276 -1.7874 -2.1511 -1.0097
  498MOL0     H65715  11.510  13.449   9.205 -0.4726  0.1565  0.3320
  498MOL0     H65716  11.627  13.716   9.152 -0.6466  0.2635  0.3324
  498MOL0     H65717  11.688  13.553   9.108  1.3610  3.9170 -2.4027
  498MOL0     H65718  11.021  12.973   9.416 -1.2048 -2.9596  0.7424
  498MOL0     H65719  11.078  12.871   9.625 -2.5386 -0.4516 -2.1468
  498MOL0     H65720  11.474  12.643   9.880  1.8454 -0.6686  0.8029
  498MOL0     H65721  11.537  12.602  10.113 -0.1130 -0.8392 -0.9288
  498MOL0     H65722  11.234  11.294  10.604 -0.3165  0.3620  1.3681
  498MOL0     H65723  11.280  11.073  10.550 -0.4778 -1.0942  0.5593
  498MOL0     H65724  11.161  10.513  10.862  0.5641  0.7593 -0.3474
  498MOL0     H65725  11.160  10.285  10.757 -2.2545  0.7461 -0.5940
  498MOL0     H65726  11.142  10.100  10.645  0.5139 -0.9096  0.9295
  498MOL0     H65727  11.310  10.131  10.670 -3.8013 -1.6544  4.1988
  498MOL0     H65728  11.198   9.980  10.442 -1.3538  1.9881  0.0224
  498MOL0     H65729  11.371  10.002  10.496 -0.1905  0.3384 -1.0885
  498MOL0     H65730  11.146   9.873  10.659 -0.5997  1.8263 -1.6905
  498MOL0     H65731  11.317   9.896  10.715 -3.2564  0.2607  2.0212
  498MOL0     H65732  11.183   9.696  10.531 -0.5724  2.6185 -0.4825
  498MOL0     H65733  11.358   9.739  10.486  1.9710  0.0193  2.1575
  498MOL0     H65734  11.355   9.494  10.845 -0.9480  2.6747  2.2999
  498MOL0     H65735  11.270  10.450  10.371  1.3222 -0.5215  0.5413
  498MOL0     H65736  11.250  10.691  10.492 -0.3608 -0.6116 -0.5038
  499MOL0     O65737   1.470   9.152   4.683  0.0379  0.5516  0.3779
  499MOL0     C65738   1.494   9.077   4.772 -0.4880  0.1499 -0.6929
  499MOL0     O65739   1.521   9.113   4.907 -0.9233  0.0707 -0.6638
  499MOL0     C65740   1.512   9.247   4.930  0.8686 -0.4824  0.7977
  499MOL0     C65741   1.396   9.302   4.990  0.7807  0.2008  0.2504
  499MOL0     C65742   1.390   9.435   5.017  0.5475  0.5532  0.4799
  499MOL0     C65743   1.477   9.535   4.963  0.7976  0.1102  0.5668
  499MOL0     O65744   1.465   9.670   4.973  0.3029 -0.0646 -0.3653
  499MOL0     C65745   1.332   9.717   5.018 -0.9520 -0.6060 -0.4353
  499MOL0     C65746   1.320   9.867   4.987  0.6328  0.5830 -0.7152
  499MOL0     C65747   1.368   9.920   4.854  0.1362 -0.1917  0.6663
  499MOL0     C65748   1.519   9.935   4.847 -0.7371 -1.1272  0.1165
  499MOL0     C65749   1.550  10.031   4.730  0.3999 -0.5790 -0.8090
  499MOL0     C65750   1.539  10.179   4.775  0.3840 -0.4630  0.4516
  499MOL0     C65751   1.556  10.278   4.666  0.0046 -0.5230  0.1185
  499MOL0     C65752   1.559  10.415   4.725 -0.9825 -0.2742  0.4249
  499MOL0     N65753   1.531  10.515   4.625 -0.9201  0.8493 -0.0547
  499MOL0     C65754   1.616  10.606   4.565 -0.6835  0.2765  0.0296
  499MOL0     C65755   1.530  10.691   4.499 -0.7485  0.5751  0.1491
  499MOL0     C65756   1.580  10.816   4.432 -0.7032  0.7222 -0.4072
  499MOL0     C65757   1.502  10.859   4.307 -0.0732 -0.3550 -0.8618
  499MOL0     C65758   1.501  10.763   4.193  0.6835 -0.1905 -0.0568
  499MOL0     C65759   1.454  10.838   4.059 -0.0876  0.3422  0.0283
  499MOL0     O65760   1.308  10.821   4.062 -0.6289 -0.0209 -0.4540
  499MOL0     C65761   1.217  10.888   3.976 -1.2943  0.5129 -0.1911
  499MOL0     C65762   1.089  10.886   4.027 -0.8293  0.9665  0.2686
  499MOL0     C65763   0.990  10.965   3.969 -0.4209  0.2780 -0.3658
  499MOL0     C65764   1.011  11.033   3.843  0.4539 -0.4080 -0.2675
  499MOL0     C65765   0.901  11.113   3.795  1.1748  0.6398 -0.6326
  499MOL0     O65766   0.891  11.130   3.662  0.3307 -0.2607  0.1094
  499MOL0     C65767   0.779  11.202   3.619 -1.4495  1.2936 -0.0214
  499MOL0     C65768   0.735  11.323   3.669 -0.5049  0.1940 -0.4296
  499MOL0     C65769   0.630  11.398   3.621  0.0286  0.0734 -0.9620
  499MOL0     C65770   0.568  11.361   3.506 -0.0525 -0.1898 -0.7374
  499MOL0     O65771   0.482  11.441   3.439  0.1750 -0.3629  0.0927
  499MOL0     C65772   0.369  11.496   3.520 -0.4955  0.4438  0.2241
  499MOL0     C65773   0.255  11.506   3.431 -0.1472  0.5349 -0.4661
  499MOL0     C65774   0.137  11.567   3.507 -0.2388 -0.4423  0.4444
  499MOL0     C65775   0.002  11.598   3.422  0.1117 -1.1990  0.9108
  499MOL0     C65776  -0.122  11.629   3.502  0.0831  0.5623 -0.2722
  499MOL0     C65777  -0.256  11.630   3.424 -0.0783  0.1205 -0.8210
  499MOL0     C65778  -0.379  11.672   3.502  0.2072 -0.7857  0.2964
  499MOL0     C65779  -0.499  11.654   3.420 -0.5896 -0.2056  0.8842
  499MOL0    Cl65780  -0.635  11.707   3.511 -0.1079 -0.8256  0.0818
  499MOL0     C65781   0.618  11.246   3.444  0.7507  0.6265  0.3440
  499MOL0     C65782   0.714  11.166   3.502 -0.7540  0.1385  0.1433
  499MOL0     O65783   0.826  11.152   3.879  0.0380 -0.2069 -0.9303
  499MOL0     C65784   1.143  11.024   3.786  1.2145  0.2023 -0.3722
  499MOL0     C65785   1.248  10.959   3.859  0.7329 -0.1009  0.9749
  499MOL0     N65786   1.401  10.660   4.520  0.2756  0.1675 -0.0842
  499MOL0     N65787   1.407  10.555   4.594  0.1186  1.1170 -0.0050
  499MOL0     C65788   1.591   9.485   4.892 -0.0750  0.6800 -0.4605
  499MOL0     C65789   1.606   9.344   4.878 -0.2065 -0.5118 -0.1188
  499MOL0     C65790   1.518   8.931   4.748 -0.0789 -0.1907  0.6802
  499MOL0     C65791   1.558   8.883   4.617 -0.4293 -0.0668  0.2326
  499MOL0     C65792   1.589   8.747   4.605  0.7337  0.2216 -0.1322
  499MOL0     C65793   1.571   8.662   4.715  0.1780  0.6750 -0.1051
  499MOL0     O65794   1.599   8.524   4.714 -0.6790  0.8859  0.0552
  499MOL0     C65795   1.665   8.456   4.607  0.4670 -0.6024  0.5173
  499MOL0     C65796   1.677   8.306   4.648  0.5077  0.2279 -0.3161
  499MOL0     C65797   1.765   8.300   4.771 -0.7583  0.5972 -0.0316
  499MOL0     C65798   1.818   8.155   4.812  0.0646 -0.2747 -0.5954
  499MOL0     C65799   1.878   8.151   4.946  0.0828  1.3334  0.4555
  499MOL0     C65800   1.915   8.143   5.055  0.2791  0.6158  0.4275
  499MOL0     C65801   1.543   8.711   4.838 -0.2542  0.7273 -0.7663
  499MOL0     C65802   1.515   8.842   4.855 -0.7791  0.6138 -0.4007
  499MOL0     H65803   1.320   9.237   5.031  0.8027  0.8003  1.2822
  499MOL0     H65804   1.310   9.461   5.085 -1.2522 -2.7885 -0.1392
  499MOL0     H65805   1.334   9.730   5.126  4.5587  1.0814 -0.4327
  499MOL0     H65806   1.254   9.659   4.969 -0.1391 -0.6045 -1.7867
  499MOL0     H65807   1.355   9.918   5.077  1.6912 -1.7667  0.2634
  499MOL0     H65808   1.212   9.884   4.994  0.2376 -1.1090 -1.9726
  499MOL0     H65809   1.332  10.023   4.843  3.8980  1.3213  0.9096
  499MOL0     H65810   1.335   9.854   4.774  2.0385  1.5157 -1.6593
  499MOL0     H65811   1.564   9.970   4.940  0.2822  0.5959 -0.9766
  499MOL0     H65812   1.562   9.837   4.824  2.1658  0.2765 -0.9359
  499MOL0     H65813   1.478  10.003   4.653 -0.8641 -3.3615  1.2303
  499MOL0     H65814   1.653  10.014   4.696  0.6650  2.3684 -1.7776
  499MOL0     H65815   1.616  10.204   4.848  0.2829  3.7768 -0.6446
  499MOL0     H65816   1.448  10.194   4.832  0.3047 -0.8497  0.4333
  499MOL0     H65817   1.650  10.262   4.612 -0.0137 -1.1246  0.2577
  499MOL0     H65818   1.475  10.269   4.593 -1.4422  3.1434  1.0521
  499MOL0     H65819   1.658  10.430   4.769 -0.5130  2.7278 -1.3632
  499MOL0     H65820   1.487  10.420   4.808 -2.1838  1.3686 -0.6494
  499MOL0     H65821   1.725  10.611   4.574 -0.4676  1.4584 -2.3756
  499MOL0     H65822   1.684  10.810   4.401 -0.9550 -0.2863 -1.1054
  499MOL0     H65823   1.567  10.890   4.512  0.0881 -0.2282  0.6164
  499MOL0     H65824   1.548  10.949   4.265 -1.7118  2.1574  2.3449
  499MOL0     H65825   1.401  10.884   4.339  0.4920 -0.0711  0.7604
  499MOL0     H65826   1.603  10.727   4.180 -0.2113 -2.6602 -0.7342
  499MOL0     H65827   1.437  10.677   4.215 -1.8656  1.6757  0.3609
  499MOL0     H65828   1.498  10.790   3.971 -3.4298  0.6402 -1.9650
  499MOL0     H65829   1.489  10.941   4.060 -0.1012  0.4282 -2.6358
  499MOL0     H65830   1.063  10.834   4.119  0.8205 -1.1597 -0.3771
  499MOL0     H65831   0.903  10.958   4.033  2.9730 -3.2316  4.5842
  499MOL0     H65832   0.800  11.358   3.749  1.2867 -1.6309 -1.0164
  499MOL0     H65833   0.597  11.491   3.667  0.3414 -0.6684  0.8318
  499MOL0     H65834   0.404  11.597   3.542 -0.5167  1.5524 -3.9681
  499MOL0     H65835   0.352  11.446   3.616  1.3007 -0.4326  0.1361
  499MOL0     H65836   0.226  11.404   3.405  0.7140  0.0686  0.3530
  499MOL0     H65837   0.273  11.566   3.342 -1.6644  1.8029  0.0344
  499MOL0     H65838   0.174  11.663   3.545  2.5564 -2.2508  2.7478
  499MOL0     H65839   0.120  11.503   3.594  2.6182  0.1231  1.5420
  499MOL0     H65840   0.036  11.684   3.364 -0.6359 -1.9240 -0.6703
  499MOL0     H65841  -0.015  11.510   3.359  0.1011  1.8503 -3.8333
  499MOL0     H65842  -0.109  11.732   3.537  2.5393  1.2877 -2.9352
  499MOL0     H65843  -0.111  11.562   3.587 -0.7003  0.4366 -0.2639
  499MOL0     H65844  -0.273  11.526   3.394 -1.6615  0.6695 -1.9108
  499MOL0     H65845  -0.236  11.674   3.326  1.7379 -1.4419 -1.2198
  499MOL0     H65846  -0.387  11.610   3.591 -0.3960  1.1307  1.6357
  499MOL0     H65847  -0.367  11.771   3.549  0.1994  0.2056 -1.6712
  499MOL0     H65848  -0.510  11.549   3.391 -2.6462  0.7944 -2.4412
  499MOL0     H65849  -0.490  11.705   3.324  1.1269 -1.6612  0.1919
  499MOL0     H65850   0.582  11.229   3.343  0.1869  2.2055  0.2462
  499MOL0     H65851   0.765  11.083   3.454  0.9688  0.6921  0.9113
  499MOL0     H65852   1.165  11.081   3.696  0.8739 -0.0692 -0.6294
  499MOL0     H65853   1.346  10.977   3.816  0.8998 -2.0071  0.4569
  499MOL0     H65854   1.662   9.561   4.858  0.4713 -0.7290 -2.7096
  499MOL0     H65855   1.697   9.313   4.828 -0.0949  0.8408 -0.8148
  499MOL0     H65856   1.559   8.959   4.539  1.4905  0.2181  0.4887
  499MOL0     H65857   1.607   8.704   4.507 -0.7703 -0.4667 -0.1270
  499MOL0     H65858   1.758   8.511   4.588 -0.6718  0.2534 -3.4144
  499MOL0     H65859   1.594   8.463   4.524 -0.1057 -1.7192  0.9017
  499MOL0     H65860   1.576   8.270   4.671 -1.5838  2.2051 -5.1503
  499MOL0     H65861   1.722   8.253   4.564  0.9518  2.4814 -1.5830
  499MOL0     H65862   1.698   8.338   4.850 -1.9183 -0.1108 -0.6473
  499MOL0     H65863   1.853   8.362   4.755  0.1546 -0.9089 -1.0728
  499MOL0     H65864   1.730   8.090   4.813 -0.5722  0.3822 -3.5111
  499MOL0     H65865   1.886   8.136   4.728  1.6144  0.6198  0.4224
  499MOL0     H65866   1.966   8.129   5.148  0.1821 -0.4590  0.3337
  499MOL0     H65867   1.531   8.650   4.927  1.2300 -0.6256 -1.4340
  499MOL0     H65868   1.484   8.872   4.954  2.7585 -3.2015  2.1735
  500MOL0     O65869   1.082   7.447   5.020  0.4550 -0.2961  0.2823
  500MOL0     C65870   1.045   7.354   5.095  0.0085  0.1960  0.5677
  500MOL0     O65871   1.061   7.342   5.233 -0.6345  0.0374  0.3970
  500MOL0     C65872   1.111   7.449   5.309  0.0236  0.1280  0.1001
  500MOL0     C65873   1.085   7.589   5.298  0.2518 -0.2715 -0.5905
  500MOL0     C65874   1.139   7.690   5.384 -0.0377  0.3896 -0.6193
  500MOL0     C65875   1.217   7.658   5.495  0.1650 -0.8339 -0.0026
  500MOL0     O65876   1.290   7.754   5.565 -0.7176 -0.6280  0.7472
  500MOL0     C65877   1.227   7.884   5.593 -1.0753  0.1790 -0.0771
  500MOL0     C65878   1.256   7.919   5.737  0.4164 -0.7095 -0.5465
  500MOL0     C65879   1.401   7.918   5.767  0.8277  0.1958 -0.2398
  500MOL0     C65880   1.436   7.910   5.915 -0.9182  0.1326 -0.3372
  500MOL0     C65881   1.388   8.029   5.994  0.2106 -0.1066  0.1981
  500MOL0     C65882   1.443   8.012   6.135  0.2576 -0.9140  0.4303
  500MOL0     C65883   1.343   7.940   6.214 -0.3009 -0.4757 -0.3077
  500MOL0     C65884   1.376   7.936   6.366 -0.2330  0.0172 -0.3701
  500MOL0     N65885   1.304   7.833   6.441 -0.3403  0.3757 -1.1128
  500MOL0     C65886   1.252   7.838   6.575 -0.0959  0.9556 -0.2185
  500MOL0     C65887   1.178   7.727   6.587 -0.7870 -0.3051 -0.0780
  500MOL0     C65888   1.106   7.682   6.710  0.6306 -0.5808 -0.3791
  500MOL0     C65889   1.190   7.565   6.771  0.1369  0.2217 -0.3386
  500MOL0     C65890   1.132   7.523   6.904 -0.7094 -0.5458  1.1768
  500MOL0     C65891   1.179   7.605   7.019 -0.4151  0.5837 -0.1864
  500MOL0     O65892   1.315   7.577   7.052 -0.3445 -0.3989 -0.1421
  500MOL0     C65893   1.379   7.628   7.160  0.1278  0.2205 -0.5929
  500MOL0     C65894   1.327   7.718   7.262 -0.0725 -0.3606  0.6571
  500MOL0     C65895   1.401   7.737   7.373 -0.0210  0.1183 -0.4796
  500MOL0     C65896   1.531   7.680   7.399 -0.6258 -0.3474  0.3309
  500MOL0     C65897   1.612   7.718   7.516 -0.3112  0.3184 -0.5357
  500MOL0     O65898   1.731   7.649   7.547  0.1737  0.5972  0.3805
  500MOL0     C65899   1.795   7.695   7.656  0.1707 -0.0339  1.0111
  500MOL0     C65900   1.875   7.808   7.646 -0.3477 -0.2311  0.3550
  500MOL0     C65901   1.956   7.845   7.754  0.6777  0.2342  0.0002
  500MOL0     C65902   1.977   7.771   7.867  0.5420  0.5836  0.4302
  500MOL0     O65903   2.077   7.795   7.963 -0.5361 -0.1772 -0.7910
  500MOL0     C65904   2.158   7.685   7.999  0.0339 -0.3054  0.5070
  500MOL0     C65905   2.208   7.698   8.140  0.2975 -0.8988  0.0711
  500MOL0     C65906   2.308   7.584   8.181  0.7418  0.4612 -0.5281
  500MOL0     C65907   2.331   7.538   8.332  0.3870  0.3093  0.2404
  500MOL0     C65908   2.313   7.651   8.425 -0.7379 -0.6642 -0.0372
  500MOL0     C65909   2.416   7.768   8.413  0.1047 -0.6687 -0.8196
  500MOL0     C65910   2.558   7.708   8.440  0.0891  0.5070 -0.5525
  500MOL0     C65911   2.644   7.832   8.468  0.2704  0.1064  0.6704
  500MOL0    Cl65912   2.673   7.917   8.320  0.3101 -0.2165  0.3398
  500MOL0     C65913   1.894   7.659   7.877 -0.4014 -0.2630  0.4117
  500MOL0     C65914   1.800   7.619   7.774 -1.6111  0.5790 -0.3261
  500MOL0     O65915   1.585   7.822   7.576 -0.4992  0.6387  0.3512
  500MOL0     C65916   1.565   7.584   7.302 -0.8963 -0.0666 -0.6099
  500MOL0     C65917   1.490   7.558   7.185 -0.6129  0.7790 -0.4455
  500MOL0     N65918   1.186   7.646   6.473  0.1150  0.5901  0.6228
  500MOL0     N65919   1.261   7.710   6.396  0.0481 -0.5333  0.5296
  500MOL0     C65920   1.244   7.523   5.508  0.1123  0.3262 -0.6747
  500MOL0     C65921   1.199   7.424   5.416 -0.3902 -0.2705 -0.0811
  500MOL0     C65922   0.951   7.253   5.034  1.0879 -0.5831  0.0920
  500MOL0     C65923   0.926   7.260   4.897 -0.3529  0.1289 -0.2433
  500MOL0     C65924   0.854   7.154   4.838 -1.2271  0.3131 -0.5264
  500MOL0     C65925   0.796   7.053   4.916  0.6955  0.6177 -0.1426
  500MOL0     O65926   0.721   6.940   4.864  0.1704  0.6214  0.2529
  500MOL0     C65927   0.647   6.950   4.736 -0.2815 -0.1856  0.5607
  500MOL0     C65928   0.503   6.928   4.764  0.2932  0.2100 -0.1938
  500MOL0     C65929   0.416   6.976   4.649  0.7941  0.4868  0.4069
  500MOL0     C65930   0.267   6.967   4.670 -0.3035  0.2646 -0.4165
  500MOL0     C65931   0.222   6.843   4.721 -0.5042 -0.0491  0.6211
  500MOL0     C65932   0.185   6.732   4.748 -0.8454 -0.1324 -0.3068
  500MOL0     C65933   0.812   7.046   5.048  0.0224  0.4663 -0.4454
  500MOL0     C65934   0.888   7.158   5.111  0.6846  1.5550  0.0529
  500MOL0     H65935   1.021   7.618   5.215 -4.3639 -1.0387  2.2840
  500MOL0     H65936   1.135   7.795   5.359  4.3938  0.5012 -1.7985
  500MOL0     H65937   1.120   7.876   5.574 -0.9318 -2.6334 -0.1269
  500MOL0     H65938   1.282   7.954   5.530 -1.5250  0.8381  0.2547
  500MOL0     H65939   1.222   7.847   5.812  2.4870 -1.2067 -0.0314
  500MOL0     H65940   1.212   8.017   5.759  1.2528 -0.1080 -1.4830
  500MOL0     H65941   1.455   8.009   5.740 -0.6252  1.2917  0.4275
  500MOL0     H65942   1.455   7.837   5.717  0.4869  0.0318 -0.3458
  500MOL0     H65943   1.391   7.817   5.951  1.8730 -1.1832 -0.0074
  500MOL0     H65944   1.544   7.909   5.928 -0.8997  1.2822 -0.3605
  500MOL0     H65945   1.279   8.021   5.989 -0.1610  3.6240 -0.6073
  500MOL0     H65946   1.409   8.128   5.954  1.1878 -0.7640 -0.9775
  500MOL0     H65947   1.455   8.114   6.173  0.5258 -1.5521  2.1686
  500MOL0     H65948   1.542   7.967   6.130  1.0252  0.7803 -0.2433
  500MOL0     H65949   1.246   7.988   6.205 -0.7619 -1.1521  0.8554
  500MOL0     H65950   1.329   7.839   6.175 -2.8715 -0.0628 -0.6259
  500MOL0     H65951   1.352   8.034   6.410 -0.1021 -0.6702  1.2892
  500MOL0     H65952   1.482   7.917   6.378  0.3211  3.3513  1.1902
  500MOL0     H65953   1.262   7.918   6.647  1.5803 -1.8341  2.8971
  500MOL0     H65954   0.999   7.665   6.696 -0.1189  1.3635  2.2078
  500MOL0     H65955   1.106   7.764   6.782  1.1302  1.5827 -2.6830
  500MOL0     H65956   1.296   7.587   6.786  1.1316 -1.3296 -3.9884
  500MOL0     H65957   1.186   7.478   6.705  0.5060  0.0457 -0.1314
  500MOL0     H65958   1.023   7.533   6.899 -0.5817  0.9045  0.8348
  500MOL0     H65959   1.167   7.420   6.905  3.3680  0.5655 -1.3736
  500MOL0     H65960   1.108   7.585   7.099 -1.8542  0.9108 -1.3288
  500MOL0     H65961   1.160   7.708   6.986 -0.9653  0.4844 -0.1853
  500MOL0     H65962   1.229   7.761   7.241 -0.0101  0.5104  2.0299
  500MOL0     H65963   1.352   7.795   7.451 -2.0805 -2.1932  0.0601
  500MOL0     H65964   1.876   7.868   7.556  2.3393 -0.0654  0.4140
  500MOL0     H65965   2.020   7.931   7.737  0.0546  0.7540  0.2357
  500MOL0     H65966   2.238   7.672   7.926  0.1648  2.0912  0.1360
  500MOL0     H65967   2.103   7.591   8.001 -0.8883  0.2330  1.7955
  500MOL0     H65968   2.116   7.691   8.200  0.3462 -1.6797  0.0710
  500MOL0     H65969   2.262   7.793   8.143  0.4885 -0.5804 -5.2898
  500MOL0     H65970   2.404   7.621   8.145  1.0407 -1.8887 -2.3882
  500MOL0     H65971   2.286   7.498   8.118  0.6397  0.5800 -0.6564
  500MOL0     H65972   2.261   7.455   8.348  1.3313 -0.4031  0.7802
  500MOL0     H65973   2.430   7.494   8.344 -0.9063 -2.4451  1.5724
  500MOL0     H65974   2.336   7.613   8.525  0.5518  3.6947  1.5594
  500MOL0     H65975   2.211   7.691   8.421 -1.1405 -1.3160  2.2567
  500MOL0     H65976   2.396   7.843   8.491  1.6295 -1.4301  0.3554
  500MOL0     H65977   2.419   7.822   8.318  3.5196  0.3108 -0.2703
  500MOL0     H65978   2.553   7.633   8.520 -1.7393  1.4021  0.2310
  500MOL0     H65979   2.614   7.658   8.360  1.5617 -1.1907  1.4102
  500MOL0     H65980   2.741   7.807   8.513 -0.0773 -0.7310  0.9902
  500MOL0     H65981   2.593   7.891   8.545 -0.2153  1.2742 -0.5075
  500MOL0     H65982   1.903   7.593   7.963 -2.9634 -0.5560  0.5166
  500MOL0     H65983   1.736   7.533   7.794 -3.0855  1.9379  1.2572
  500MOL0     H65984   1.648   7.519   7.327 -0.7990  0.6070  0.9020
  500MOL0     H65985   1.530   7.478   7.123  2.2905  1.7009  0.0806
  500MOL0     H65986   1.318   7.485   5.578  1.7611  0.8028 -2.1145
  500MOL0     H65987   1.234   7.324   5.443 -0.3011 -0.7142 -1.6835
  500MOL0     H65988   0.968   7.335   4.832  0.9999 -0.6531 -0.3128
  500MOL0     H65989   0.845   7.159   4.729 -0.7949 -1.9571 -0.7008
  500MOL0     H65990   0.684   6.876   4.663 -2.3055  0.9600 -1.7655
  500MOL0     H65991   0.673   7.042   4.684  2.9634 -0.0254  2.2204
  500MOL0     H65992   0.470   6.828   4.794  1.7179  0.5006  2.7015
  500MOL0     H65993   0.477   6.986   4.853 -3.4671  0.3054 -1.1934
  500MOL0     H65994   0.441   6.922   4.557 -2.7960 -3.3749  1.4192
  500MOL0     H65995   0.442   7.080   4.624  1.0638  0.4185  0.3995
  500MOL0     H65996   0.247   7.045   4.744  1.0741  1.0625 -0.8541
  500MOL0     H65997   0.215   6.982   4.575 -2.6589 -6.0489 -0.5875
  500MOL0     H65998   0.156   6.631   4.768 -2.0095  0.6404  2.2378
  500MOL0     H65999   0.775   6.976   5.122 -1.3509  2.5343  0.9433
  500MOL0     H66000   0.889   7.155   5.220 -0.6638  1.7744  0.0919
  501MOL0     O66001   7.159   0.223   3.097 -0.5041 -0.1101  0.2392
  501MOL0     C66002   7.190   0.115   3.042 -0.1588 -1.1101 -0.1941
  501MOL0     O66003   7.286   0.105   2.941  0.8772  0.2778 -0.3268
  501MOL0     C66004   7.347   0.220   2.907  0.2779  0.3728 -0.4639
  501MOL0     C66005   7.276   0.329   2.850  1.0600  0.0597 -0.3632
  501MOL0     C66006   7.335   0.446   2.815 -0.3829  0.1368  0.1600
  501MOL0     C66007   7.475   0.460   2.833  0.5311  0.1712 -0.3639
  501MOL0     O66008   7.546   0.570   2.817 -0.4114 -0.1096 -0.2957
  501MOL0     C66009   7.496   0.694   2.765  0.2915  0.8921  0.5413
  501MOL0     C66010   7.543   0.800   2.859 -0.2154 -1.0086 -0.2944
  501MOL0     C66011   7.487   0.784   3.008 -0.0199  0.2854  0.1550
  501MOL0     C66012   7.511   0.912   3.096 -0.6507 -0.3909  0.0312
  501MOL0     C66013   7.405   1.018   3.077 -0.7704  0.7814 -0.4646
  501MOL0     C66014   7.422   1.112   3.204 -0.0970  0.6009 -0.3132
  501MOL0     C66015   7.324   1.228   3.192  0.9560 -0.7587 -0.0878
  501MOL0     C66016   7.382   1.337   3.297  0.7035  0.5137 -0.8804
  501MOL0     N66017   7.495   1.401   3.219  0.6471  0.0292 -0.7159
  501MOL0     C66018   7.630   1.402   3.252  0.1609  0.0469 -0.1039
  501MOL0     C66019   7.695   1.477   3.148  0.8985  0.6696  0.4854
  501MOL0     C66020   7.839   1.510   3.121 -0.3121  0.0173 -0.3963
  501MOL0     C66021   7.877   1.448   2.989  0.0548  0.0135  0.4909
  501MOL0     C66022   8.030   1.444   2.967 -0.1786 -0.3950 -0.4864
  501MOL0     C66023   8.105   1.577   2.970 -0.3339 -0.6250  0.0914
  501MOL0     O66024   8.248   1.562   2.942 -0.4411 -0.3427  0.1279
  501MOL0     C66025   8.317   1.662   2.870  0.9858  0.3796 -0.9598
  501MOL0     C66026   8.282   1.792   2.883  0.1660 -0.3554  0.9303
  501MOL0     C66027   8.372   1.890   2.825 -0.3122  0.5836 -0.2871
  501MOL0     C66028   8.483   1.853   2.745  0.1279 -0.5224  0.7060
  501MOL0     C66029   8.574   1.951   2.677 -0.3011 -0.1121 -0.7223
  501MOL0     O66030   8.705   1.909   2.661 -0.1228 -1.0199 -0.0187
  501MOL0     C66031   8.798   1.995   2.593 -0.8138  0.4573 -0.0870
  501MOL0     C66032   8.767   2.081   2.480 -0.0500 -0.2119 -0.3618
  501MOL0     C66033   8.865   2.165   2.432  0.1586  0.3618  0.3716
  501MOL0     C66034   8.989   2.173   2.487  0.2100 -0.0674 -0.5270
  501MOL0     O66035   9.092   2.256   2.454 -0.9722  0.8013  0.5703
  501MOL0     C66036   9.089   2.350   2.338  1.1932  0.8941 -0.5064
  501MOL0     C66037   9.214   2.430   2.337 -0.3030  0.3681  0.5533
  501MOL0     C66038   9.223   2.516   2.468 -0.7080 -0.6054  0.2426
  501MOL0     C66039   9.346   2.617   2.463 -0.2273 -0.0932 -0.1671
  501MOL0     C66040   9.375   2.677   2.594  0.3262  0.5980 -0.0917
  501MOL0     C66041   9.493   2.765   2.588 -0.0199 -0.5289  0.4393
  501MOL0     C66042   9.535   2.831   2.722 -0.5704 -0.0192 -0.8275
  501MOL0     C66043   9.568   2.731   2.838 -0.7429  0.4337 -0.1817
  501MOL0    Cl66044   9.712   2.656   2.801 -0.1238 -0.0474 -0.1104
  501MOL0     C66045   9.022   2.091   2.592 -0.1016  0.4645 -0.4350
  501MOL0     C66046   8.929   2.001   2.637 -0.4773  0.6335 -0.4320
  501MOL0     O66047   8.534   2.071   2.674 -0.0640  0.5102 -0.2485
  501MOL0     C66048   8.517   1.718   2.749 -1.3709  0.6098 -0.2893
  501MOL0     C66049   8.445   1.625   2.820  0.9501 -0.4270  0.5040
  501MOL0     N66050   7.602   1.491   3.046 -0.2860  0.2531  0.2166
  501MOL0     N66051   7.485   1.456   3.100  0.6961  0.5318 -0.5316
  501MOL0     C66052   7.550   0.356   2.901 -0.4536 -1.1895 -0.4860
  501MOL0     C66053   7.487   0.233   2.933  0.3176  0.1820  0.7265
  501MOL0     C66054   7.121  -0.004   3.066 -0.4005  0.3088 -0.3229
  501MOL0     C66055   7.134  -0.113   2.979  0.2946  1.0574 -0.2267
  501MOL0     C66056   7.043  -0.218   3.003  0.8467 -0.2472 -0.4015
  501MOL0     C66057   6.953  -0.237   3.116 -0.4272 -0.0999 -0.0076
  501MOL0     O66058   6.869  -0.349   3.134  0.5389 -0.7864  0.1668
  501MOL0     C66059   6.811  -0.388   3.010 -0.0432  1.0388 -0.3081
  501MOL0     C66060   6.658  -0.422   3.041 -0.2334 -0.3301 -0.6206
  501MOL0     C66061   6.574  -0.289   3.052  0.7475  0.2077 -0.2215
  501MOL0     C66062   6.428  -0.318   3.056  0.1858 -0.3734 -0.0146
  501MOL0     C66063   6.348  -0.228   3.143  1.0597  0.6116 -1.3610
  501MOL0     C66064   6.277  -0.151   3.207 -0.0782 -0.6034 -0.6130
  501MOL0     C66065   6.960  -0.128   3.209  0.5093 -0.4422  0.5233
  501MOL0     C66066   7.036  -0.012   3.181  0.3682 -0.2246 -0.2377
  501MOL0     H66067   7.174   0.305   2.821  2.1872 -5.2263 -1.1525
  501MOL0     H66068   7.288   0.533   2.770  0.0292  1.3261  1.9193
  501MOL0     H66069   7.387   0.704   2.754  0.5793  3.8406 -0.4047
  501MOL0     H66070   7.529   0.713   2.663 -1.8797 -2.1599 -0.8957
  501MOL0     H66071   7.514   0.899   2.823 -0.3382 -0.3371  1.5469
  501MOL0     H66072   7.652   0.808   2.857 -0.3508  4.0378 -1.0390
  501MOL0     H66073   7.541   0.700   3.052  1.0223  0.5409 -0.5841
  501MOL0     H66074   7.379   0.769   3.011 -0.0022 -0.2656 -1.0682
  501MOL0     H66075   7.539   0.881   3.197  0.6406  1.6864  0.3846
  501MOL0     H66076   7.600   0.968   3.066 -1.2815  1.1890  0.9814
  501MOL0     H66077   7.309   0.966   3.073 -0.0109 -0.8693  0.9703
  501MOL0     H66078   7.419   1.077   2.987 -0.5935  1.1618 -0.1921
  501MOL0     H66079   7.523   1.152   3.200 -0.4493  1.7597  1.2225
  501MOL0     H66080   7.417   1.050   3.295  1.9994  2.3315  1.0756
  501MOL0     H66081   7.314   1.256   3.087  1.8678  1.4133  0.3471
  501MOL0     H66082   7.227   1.194   3.227  0.6053  0.1033 -0.2080
  501MOL0     H66083   7.422   1.290   3.387  0.4160 -0.0081 -1.0214
  501MOL0     H66084   7.305   1.408   3.329 -0.8502 -1.5004  0.0648
  501MOL0     H66085   7.688   1.375   3.340  0.2618  0.9858  0.1350
  501MOL0     H66086   7.908   1.482   3.201  2.5007  2.5787 -1.7223
  501MOL0     H66087   7.854   1.617   3.102 -2.6433  0.7337  1.3366
  501MOL0     H66088   7.838   1.513   2.910  3.8163  0.6713 -1.0053
  501MOL0     H66089   7.840   1.345   2.982  0.6614 -0.3170  1.8314
  501MOL0     H66090   8.083   1.371   3.030 -0.3917  0.0109  0.1726
  501MOL0     H66091   8.042   1.397   2.869 -0.6335 -4.2578  1.1236
  501MOL0     H66092   8.092   1.632   3.064  1.8192  0.6554 -0.3087
  501MOL0     H66093   8.059   1.649   2.901 -0.2078 -1.0091 -0.3969
  501MOL0     H66094   8.191   1.828   2.931 -0.9224 -1.6126 -0.1227
  501MOL0     H66095   8.354   1.996   2.840  1.6390  0.5983  3.0223
  501MOL0     H66096   8.665   2.078   2.442 -1.7574 -4.8823  3.4579
  501MOL0     H66097   8.850   2.233   2.349  1.0558  0.1481  0.0270
  501MOL0     H66098   9.015   2.430   2.347  0.3856 -0.0206  2.0275
  501MOL0     H66099   9.073   2.294   2.246 -2.7766 -2.0309  1.6091
  501MOL0     H66100   9.213   2.496   2.249  0.0451  0.0211  0.2840
  501MOL0     H66101   9.308   2.376   2.324 -1.7048 -1.8744 -1.1047
  501MOL0     H66102   9.220   2.454   2.558  0.1245  2.0638  2.2349
  501MOL0     H66103   9.134   2.581   2.473 -0.2915  0.2473 -2.1229
  501MOL0     H66104   9.429   2.559   2.422 -1.5661  0.2967 -3.8742
  501MOL0     H66105   9.312   2.693   2.392 -3.5939 -0.7798  0.5242
  501MOL0     H66106   9.398   2.600   2.669  1.7441  1.3182  0.2542
  501MOL0     H66107   9.289   2.731   2.635 -1.6543 -0.9213 -2.0332
  501MOL0     H66108   9.494   2.839   2.507  3.9054  0.2890  1.0292
  501MOL0     H66109   9.583   2.705   2.577 -0.2592 -1.5893  3.3706
  501MOL0     H66110   9.626   2.889   2.704  1.6099 -2.0029  2.6403
  501MOL0     H66111   9.455   2.896   2.759 -0.5903 -0.4369 -0.1156
  501MOL0     H66112   9.485   2.663   2.855 -0.8863  1.1878  2.6495
  501MOL0     H66113   9.593   2.781   2.932  2.8804 -1.0690 -0.1674
  501MOL0     H66114   9.122   2.098   2.634 -0.7255 -2.2301  1.7880
  501MOL0     H66115   8.964   1.927   2.709 -0.8524 -1.1122 -1.9610
  501MOL0     H66116   8.608   1.688   2.699  1.2724 -0.9461  4.7626
  501MOL0     H66117   8.464   1.519   2.830 -1.7764 -1.0897 -0.4782
  501MOL0     H66118   7.650   0.378   2.937 -1.1990  1.3504  0.2491
  501MOL0     H66119   7.530   0.147   2.984 -1.4934 -0.4349  1.3001
  501MOL0     H66120   7.200  -0.123   2.894 -0.2817 -1.7173 -0.4255
  501MOL0     H66121   7.034  -0.298   2.930 -1.2674 -0.4452  0.0114
  501MOL0     H66122   6.854  -0.479   2.969  1.4124  0.8467  1.4633
  501MOL0     H66123   6.812  -0.307   2.936  2.2204  2.4132  1.0900
  501MOL0     H66124   6.622  -0.477   2.954  0.3043 -1.5222 -0.1088
  501MOL0     H66125   6.650  -0.489   3.127  0.0998  0.2029 -0.1676
  501MOL0     H66126   6.589  -0.210   2.978 -2.1004  3.1690  2.0892
  501MOL0     H66127   6.589  -0.242   3.149 -5.3518 -2.3345  2.4763
  501MOL0     H66128   6.408  -0.310   2.949  4.4283 -1.7167 -1.1150
  501MOL0     H66129   6.403  -0.420   3.085 -0.1446  0.3150  2.3575
  501MOL0     H66130   6.216  -0.084   3.264 -0.2077 -0.4240 -0.9640
  501MOL0     H66131   6.888  -0.124   3.290 -0.1752 -0.3928 -0.0719
  501MOL0     H66132   7.012   0.078   3.236  3.3554  1.9425 -2.2158
  502MOL0     O66133   8.189   4.801   2.225  0.3936  0.6602  0.0944
  502MOL0     C66134   8.114   4.854   2.311 -0.2700  0.6713 -0.0659
  502MOL0     O66135   8.138   4.968   2.389  0.9931  0.1153 -0.4223
  502MOL0     C66136   8.250   5.032   2.352 -0.9104 -0.8203  0.2893
  502MOL0     C66137   8.372   4.999   2.410 -0.6155  0.3222 -0.3140
  502MOL0     C66138   8.485   5.071   2.386  1.2588 -0.2930  0.2013
  502MOL0     C66139   8.482   5.191   2.308 -0.3966 -0.7637  0.1663
  502MOL0     O66140   8.599   5.268   2.287 -0.6153 -0.5132  0.2784
  502MOL0     C66141   8.703   5.198   2.217 -0.1908  1.1045  0.8675
  502MOL0     C66142   8.755   5.279   2.093 -0.9534  0.3747 -0.8451
  502MOL0     C66143   8.861   5.379   2.149 -0.3281 -0.1033  0.6343
  502MOL0     C66144   8.906   5.491   2.049  0.5894 -0.1086  0.2398
  502MOL0     C66145   8.977   5.603   2.127  0.6266 -0.6482  0.3837
  502MOL0     C66146   8.955   5.734   2.055 -0.4318 -0.4713 -0.4526
  502MOL0     C66147   8.820   5.791   2.067 -0.5226 -1.6409  0.3818
  502MOL0     C66148   8.803   5.930   1.999 -0.2444  0.0785  0.4405
  502MOL0     N66149   8.713   6.018   2.067 -0.1552 -0.8915 -0.0374
  502MOL0     C66150   8.751   6.102   2.175  0.4140  0.4957  0.1267
  502MOL0     C66151   8.629   6.154   2.210 -0.4528 -0.4024  0.1620
  502MOL0     C66152   8.605   6.213   2.345 -0.3458  0.3203  0.8836
  502MOL0     C66153   8.482   6.296   2.358  0.1077 -0.3002 -1.0313
  502MOL0     C66154   8.457   6.350   2.504  0.2632 -0.4396  0.7434
  502MOL0     C66155   8.342   6.446   2.484  0.0349 -0.8807  0.2731
  502MOL0     O66156   8.316   6.512   2.604 -0.4859  0.0141 -0.6177
  502MOL0     C66157   8.189   6.543   2.650  0.4776  0.2859 -0.4712
  502MOL0     C66158   8.068   6.527   2.572 -0.3200  0.7361 -0.3491
  502MOL0     C66159   7.950   6.578   2.622 -0.6335  0.4346 -0.4830
  502MOL0     C66160   7.927   6.623   2.753  0.0462  0.0570 -0.4453
  502MOL0     C66161   7.788   6.667   2.793  0.4486  0.9575  0.8536
  502MOL0     O66162   7.718   6.712   2.684 -0.0974  0.5016  0.3372
  502MOL0     C66163   7.578   6.734   2.689 -1.0232 -1.1568 -0.7853
  502MOL0     C66164   7.506   6.792   2.797 -0.2024 -0.4457  0.0896
  502MOL0     C66165   7.364   6.800   2.785  0.2419  0.9050  0.7975
  502MOL0     C66166   7.295   6.752   2.675 -0.8105  0.3763  0.3063
  502MOL0     O66167   7.164   6.741   2.686 -0.2208  0.2602  0.6434
  502MOL0     C66168   7.085   6.735   2.567  0.1418  0.1724  0.5705
  502MOL0     C66169   6.946   6.721   2.611 -0.3448 -0.1002 -1.2495
  502MOL0     C66170   6.848   6.679   2.503  0.2511 -0.6028  0.5831
  502MOL0     C66171   6.710   6.661   2.561 -0.5259 -0.7116 -0.1157
  502MOL0     C66172   6.632   6.783   2.603 -0.5971 -0.8552 -0.0917
  502MOL0     C66173   6.607   6.888   2.499 -0.9296 -0.4774  0.0366
  502MOL0     C66174   6.504   6.998   2.553 -0.3625  0.2508 -0.0592
  502MOL0     C66175   6.502   7.119   2.459  0.2711  0.2419 -0.4184
  502MOL0    Cl66176   6.432   7.066   2.303  0.0185 -0.1198  0.1517
  502MOL0     C66177   7.371   6.708   2.562 -0.9224 -0.6534 -0.1790
  502MOL0     C66178   7.509   6.709   2.568 -0.2265  0.1774 -0.1515
  502MOL0     O66179   7.750   6.660   2.907 -0.3466  0.1092  0.5079
  502MOL0     C66180   8.040   6.634   2.832 -0.5027 -1.0386  0.3604
  502MOL0     C66181   8.163   6.590   2.783 -0.0144 -0.4229  0.4231
  502MOL0     N66182   8.527   6.126   2.117  0.5966 -0.0861  0.6654
  502MOL0     N66183   8.590   6.048   2.026 -0.5220  0.4824  0.1550
  502MOL0     C66184   8.368   5.233   2.263 -0.5185  1.1481 -0.5131
  502MOL0     C66185   8.254   5.149   2.280 -0.4207 -0.1524 -0.2383
  502MOL0     C66186   7.984   4.771   2.328 -0.0953  0.4472 -0.1092
  502MOL0     C66187   7.895   4.791   2.436 -0.7886  0.1082  0.2638
  502MOL0     C66188   7.787   4.716   2.459 -0.6983  0.7096  0.0235
  502MOL0     C66189   7.747   4.620   2.372 -0.0668 -0.4070  1.3227
  502MOL0     O66190   7.637   4.544   2.373  0.6249 -0.3861 -0.4479
  502MOL0     C66191   7.529   4.608   2.448 -0.4755 -0.7991 -0.2175
  502MOL0     C66192   7.397   4.536   2.429  0.0115 -0.0701  0.6973
  502MOL0     C66193   7.397   4.387   2.460 -0.0687 -0.1030  0.6498
  502MOL0     C66194   7.364   4.358   2.603  0.7569 -0.2841 -0.8622
  502MOL0     C66195   7.390   4.220   2.625  0.5695 -0.3836  0.5601
  502MOL0     C66196   7.400   4.107   2.649 -0.2085  0.0068  0.2267
  502MOL0     C66197   7.832   4.595   2.268  0.6436  0.9845 -0.4628
  502MOL0     C66198   7.948   4.667   2.246  0.5405 -0.5389 -0.0034
  502MOL0     H66199   8.369   4.902   2.457 -0.3657 -0.4793 -1.8825
  502MOL0     H66200   8.580   5.056   2.436 -0.3794 -0.7072  3.4011
  502MOL0     H66201   8.674   5.098   2.184  3.6074  0.3334 -0.5438
  502MOL0     H66202   8.789   5.183   2.284  0.0358 -1.2104  0.1293
  502MOL0     H66203   8.677   5.339   2.045 -3.8270 -3.1596 -0.9896
  502MOL0     H66204   8.799   5.201   2.030  2.0093  1.5531 -0.4124
  502MOL0     H66205   8.946   5.316   2.175  0.1390 -0.2295 -1.0855
  502MOL0     H66206   8.815   5.430   2.234  1.8013 -1.0794  2.4849
  502MOL0     H66207   8.964   5.444   1.969 -2.6074 -0.9606 -1.7365
  502MOL0     H66208   8.816   5.537   2.006 -0.0328  0.2471  1.8540
  502MOL0     H66209   9.082   5.582   2.148  1.5108  0.5681 -2.3348
  502MOL0     H66210   8.916   5.622   2.216 -2.2705  2.0867 -1.9655
  502MOL0     H66211   8.971   5.720   1.947  1.0713  1.4131 -0.5386
  502MOL0     H66212   9.030   5.789   2.112 -1.8444 -0.5644  1.5896
  502MOL0     H66213   8.743   5.725   2.025 -0.4719 -1.5735  0.1807
  502MOL0     H66214   8.804   5.797   2.175  1.1092  0.1608  0.5727
  502MOL0     H66215   8.773   5.907   1.896  0.6981  0.5583  0.0478
  502MOL0     H66216   8.902   5.977   1.998 -0.7300  1.4973  3.9266
  502MOL0     H66217   8.849   6.117   2.220  0.7659  2.7359 -1.2370
  502MOL0     H66218   8.688   6.285   2.350 -0.2760  0.1987  1.6490
  502MOL0     H66219   8.618   6.144   2.429 -6.5037  0.6380  2.6598
  502MOL0     H66220   8.397   6.243   2.312 -2.0632  0.8062  1.4774
  502MOL0     H66221   8.492   6.385   2.296 -3.9443  0.4219 -0.9392
  502MOL0     H66222   8.428   6.270   2.572  1.0803 -0.7497  0.7442
  502MOL0     H66223   8.546   6.407   2.531  0.5000  0.8672 -2.3700
  502MOL0     H66224   8.253   6.399   2.441 -0.1571 -0.5757  0.3271
  502MOL0     H66225   8.381   6.522   2.415  1.9569 -0.6998  1.4671
  502MOL0     H66226   8.077   6.468   2.481  0.0030 -0.8595  0.6667
  502MOL0     H66227   7.867   6.576   2.552 -1.1589 -1.9336  0.1007
  502MOL0     H66228   7.565   6.813   2.885  0.6029 -2.5514  0.0831
  502MOL0     H66229   7.314   6.850   2.867 -0.3176  0.1225  0.9387
  502MOL0     H66230   7.109   6.658   2.494  2.4219 -0.1066  1.5281
  502MOL0     H66231   7.074   6.830   2.513 -1.7456  0.3177  1.1348
  502MOL0     H66232   6.903   6.804   2.667  1.8371  0.1506  0.1944
  502MOL0     H66233   6.964   6.644   2.687  1.3935 -0.2428 -1.7612
  502MOL0     H66234   6.898   6.596   2.453  5.4969  1.4625  1.6448
  502MOL0     H66235   6.841   6.758   2.428  1.3733 -1.5600 -0.5826
  502MOL0     H66236   6.640   6.615   2.491 -0.7813  0.1066 -0.4074
  502MOL0     H66237   6.719   6.594   2.647 -0.5535 -1.8062 -0.9426
  502MOL0     H66238   6.685   6.835   2.684 -2.1814  0.5570  0.1057
  502MOL0     H66239   6.537   6.750   2.647 -0.5454 -0.2124  0.5334
  502MOL0     H66240   6.561   6.830   2.418 -0.3184 -4.9247  2.5132
  502MOL0     H66241   6.702   6.931   2.465 -0.5370  0.5569  2.2592
  502MOL0     H66242   6.406   6.954   2.571  0.1428 -1.2343 -0.8305
  502MOL0     H66243   6.550   7.026   2.648  2.2891 -2.5918 -0.3586
  502MOL0     H66244   6.601   7.162   2.442 -0.0755  0.6507 -1.5014
  502MOL0     H66245   6.440   7.188   2.517  0.8286  0.6270 -0.2694
  502MOL0     H66246   7.320   6.688   2.468 -2.3924  0.8270  0.2577
  502MOL0     H66247   7.562   6.680   2.477 -0.9344 -2.6460  0.2325
  502MOL0     H66248   8.036   6.677   2.931  1.5546 -1.1089  0.5244
  502MOL0     H66249   8.250   6.584   2.848  2.2111  0.9179 -2.1924
  502MOL0     H66250   8.353   5.327   2.211  1.2715  1.3505 -0.7160
  502MOL0     H66251   8.169   5.203   2.239  1.5806  3.1457 -0.4774
  502MOL0     H66252   7.898   4.878   2.502 -1.3188  0.5942 -0.3443
  502MOL0     H66253   7.739   4.732   2.556  1.1247 -0.1748  1.1231
  502MOL0     H66254   7.522   4.713   2.420 -1.4333 -0.5069  1.0444
  502MOL0     H66255   7.547   4.599   2.556  1.2067 -1.3977 -0.5181
  502MOL0     H66256   7.322   4.588   2.490 -2.1036  2.0131 -3.3254
  502MOL0     H66257   7.370   4.558   2.326  2.7181  1.4521  0.2458
  502MOL0     H66258   7.497   4.348   2.436  0.8723  0.2327  3.5918
  502MOL0     H66259   7.324   4.341   2.393 -0.1569  1.9778 -0.8102
  502MOL0     H66260   7.425   4.421   2.669 -1.0613 -0.4889  1.1323
  502MOL0     H66261   7.261   4.381   2.632  1.3114 -0.0644  1.0671
  502MOL0     H66262   7.424   4.003   2.658 -0.0487 -0.0418 -0.7207
  502MOL0     H66263   7.815   4.505   2.209  0.6303  1.1590 -0.7268
  502MOL0     H66264   8.003   4.651   2.154  0.7845  3.4814 -0.7363
  503MOL0     O66265   6.569   5.455   9.064  0.5872 -0.1058  0.0788
  503MOL0     C66266   6.577   5.412   9.181  0.6812 -0.2069  0.8448
  503MOL0     O66267   6.475   5.394   9.272 -0.1675  0.8925 -0.1625
  503MOL0     C66268   6.347   5.392   9.234  0.1331 -0.4325  1.2820
  503MOL0     C66269   6.258   5.314   9.311  0.1123 -0.1874 -0.2167
  503MOL0     C66270   6.120   5.291   9.278 -0.6650 -0.1993  0.8990
  503MOL0     C66271   6.066   5.371   9.177  0.0131  0.1478  0.6075
  503MOL0     O66272   5.933   5.385   9.153  0.4908  1.0306  0.0037
  503MOL0     C66273   5.846   5.381   9.263 -0.5345  0.8370 -0.1340
  503MOL0     C66274   5.736   5.276   9.248 -0.1100 -0.8155  0.6103
  503MOL0     C66275   5.605   5.314   9.313  0.0164 -0.2843  0.1126
  503MOL0     C66276   5.493   5.221   9.270 -0.8239  0.3109  0.8450
  503MOL0     C66277   5.359   5.299   9.269  0.4685 -0.5049  0.5412
  503MOL0     C66278   5.232   5.218   9.245  0.0137  0.5404  1.2121
  503MOL0     C66279   5.097   5.286   9.286 -0.0987  0.6279  0.3739
  503MOL0     C66280   4.979   5.225   9.216 -0.7985  0.3190 -0.0920
  503MOL0     N66281   4.843   5.257   9.263  0.6649  0.1476  0.0325
  503MOL0     C66282   4.776   5.369   9.260  0.0171 -0.8910 -0.6370
  503MOL0     C66283   4.652   5.340   9.311  1.0189 -0.6007 -0.7407
  503MOL0     C66284   4.540   5.447   9.329  0.0990  1.0155  0.6597
  503MOL0     C66285   4.487   5.440   9.475 -0.2819  0.3600  0.1672
  503MOL0     C66286   4.385   5.552   9.502  0.1240 -0.8351  0.0679
  503MOL0     C66287   4.263   5.531   9.411 -0.6696 -0.8968  0.1039
  503MOL0     O66288   4.164   5.624   9.461  0.2018  0.5926 -0.1197
  503MOL0     C66289   4.060   5.651   9.381 -0.3310 -0.2319 -0.7513
  503MOL0     C66290   3.995   5.551   9.309 -0.5572  0.2339 -0.6037
  503MOL0     C66291   3.876   5.583   9.240  0.2422 -0.0726  0.0204
  503MOL0     C66292   3.826   5.720   9.230 -0.9870  0.2623  0.8923
  503MOL0     C66293   3.724   5.753   9.127  0.1317 -0.7437 -0.2972
  503MOL0     O66294   3.702   5.662   9.034  0.0115  0.4608 -0.3841
  503MOL0     C66295   3.606   5.678   8.933  0.3256 -0.4337 -0.3721
  503MOL0     C66296   3.599   5.790   8.848  0.2270  0.7895 -0.2981
  503MOL0     C66297   3.519   5.789   8.735  0.6315  0.7192 -0.1190
  503MOL0     C66298   3.426   5.677   8.718 -0.1369 -0.8314 -0.5854
  503MOL0     O66299   3.354   5.666   8.595 -0.0182 -0.0298 -0.0130
  503MOL0     C66300   3.314   5.784   8.524 -0.2821 -0.5200  0.8966
  503MOL0     C66301   3.218   5.733   8.412 -0.1006  0.4791 -0.7925
  503MOL0     C66302   3.091   5.653   8.453  0.5885 -0.3150 -0.4014
  503MOL0     C66303   2.990   5.657   8.335 -1.2946  0.9873  0.7520
  503MOL0     C66304   2.854   5.633   8.387  0.4667  0.4822  0.1439
  503MOL0     C66305   2.829   5.511   8.479 -0.3896 -1.2073  1.0536
  503MOL0     C66306   2.883   5.377   8.424 -0.8627 -0.4628  0.0287
  503MOL0     C66307   2.787   5.322   8.317  0.5379  0.4933  0.0353
  503MOL0    Cl66308   2.822   5.147   8.280 -0.4860 -0.5530  0.1563
  503MOL0     C66309   3.428   5.573   8.802  1.0121 -0.3928  0.1215
  503MOL0     C66310   3.516   5.576   8.915 -0.8172 -0.6255 -0.3110
  503MOL0     O66311   3.672   5.863   9.139 -0.6986 -0.5069  0.2237
  503MOL0     C66312   3.910   5.820   9.286  0.5222  0.0576 -0.0757
  503MOL0     C66313   4.025   5.784   9.357 -0.2081  0.0082 -0.9875
  503MOL0     N66314   4.638   5.199   9.325 -0.1451 -0.5272 -0.1920
  503MOL0     N66315   4.755   5.157   9.291  0.5531  0.4643 -0.3686
  503MOL0     C66316   6.156   5.447   9.102 -0.0064  0.8309 -0.1287
  503MOL0     C66317   6.291   5.454   9.118 -1.0055 -0.5602 -0.0469
  503MOL0     C66318   6.703   5.345   9.211 -0.4637  0.1472 -0.7282
  503MOL0     C66319   6.809   5.346   9.122 -0.8985 -0.4359  0.1011
  503MOL0     C66320   6.929   5.287   9.155  0.3277  0.7216 -0.2995
  503MOL0     C66321   6.948   5.212   9.267  0.9985  0.3538 -0.2108
  503MOL0     O66322   7.067   5.153   9.297 -0.1207 -0.4754  0.2152
  503MOL0     C66323   7.090   5.052   9.203 -0.1366 -0.0086  0.8785
  503MOL0     C66324   7.235   4.995   9.215  0.2311  0.0302 -0.1271
  503MOL0     C66325   7.335   5.114   9.196 -0.4538 -0.0616  0.4247
  503MOL0     C66326   7.486   5.080   9.193 -0.3215 -0.4884  0.9127
  503MOL0     C66327   7.513   5.022   9.061 -0.3328 -0.2742 -0.9172
  503MOL0     C66328   7.542   4.961   8.959  0.5005  0.7534 -0.8132
  503MOL0     C66329   6.842   5.208   9.361 -0.1248  0.1141  0.1112
  503MOL0     C66330   6.719   5.272   9.333 -0.5360  0.3655 -0.3189
  503MOL0     H66331   6.301   5.249   9.387  3.6671  1.1095 -0.9738
  503MOL0     H66332   6.051   5.223   9.327 -3.5498  3.2178  2.0325
  503MOL0     H66333   5.801   5.480   9.255 -1.4012  0.3172 -3.3709
  503MOL0     H66334   5.898   5.386   9.359  1.9806  0.6592 -1.3943
  503MOL0     H66335   5.768   5.174   9.275  0.5694  0.0516  3.4123
  503MOL0     H66336   5.709   5.271   9.142 -2.2806 -0.5881  1.1023
  503MOL0     H66337   5.580   5.417   9.285 -0.5144 -0.1435  1.0538
  503MOL0     H66338   5.608   5.303   9.422 -1.1305 -0.9523  0.0792
  503MOL0     H66339   5.507   5.191   9.166 -0.3456  3.6944 -0.1937
  503MOL0     H66340   5.487   5.129   9.329  0.4623 -3.7226 -4.4959
  503MOL0     H66341   5.358   5.380   9.195 -3.9070 -1.4095 -0.6631
  503MOL0     H66342   5.359   5.338   9.371  1.3247  0.7353  0.0912
  503MOL0     H66343   5.236   5.123   9.300 -0.5710  0.7141  1.5779
  503MOL0     H66344   5.249   5.198   9.139  0.8019  0.1547  1.4085
  503MOL0     H66345   5.086   5.277   9.395  0.0876 -0.4948  0.3099
  503MOL0     H66346   5.094   5.389   9.251 -0.9223 -0.6317 -3.8809
  503MOL0     H66347   4.989   5.118   9.238 -1.4673 -0.0216 -1.3176
  503MOL0     H66348   4.994   5.242   9.109  2.3470 -2.7584 -0.3225
  503MOL0     H66349   4.820   5.464   9.232 -1.5579 -0.3787 -1.4668
  503MOL0     H66350   4.448   5.428   9.274  0.5194 -2.7869  1.0054
  503MOL0     H66351   4.577   5.549   9.313 -0.6583  1.4832  1.7806
  503MOL0     H66352   4.571   5.456   9.543  1.6326  2.7695 -2.4804
  503MOL0     H66353   4.444   5.340   9.485 -1.5884  0.8469 -0.4206
  503MOL0     H66354   4.355   5.546   9.607  2.3471  0.0498  0.8115
  503MOL0     H66355   4.433   5.647   9.479  1.4965 -1.1175  1.6117
  503MOL0     H66356   4.217   5.436   9.440 -0.5966 -0.2675  2.5455
  503MOL0     H66357   4.274   5.536   9.303  0.0705 -2.1394  0.1078
  503MOL0     H66358   4.013   5.445   9.322 -2.0734 -0.2227 -1.9809
  503MOL0     H66359   3.832   5.498   9.189  1.4149 -1.8234  1.7679
  503MOL0     H66360   3.665   5.873   8.873 -0.6660  2.0271 -1.8096
  503MOL0     H66361   3.518   5.872   8.665 -1.4300  0.2378 -0.7068
  503MOL0     H66362   3.394   5.830   8.466  2.2177 -3.3712  1.8064
  503MOL0     H66363   3.273   5.866   8.583 -0.2898  0.2756 -0.1732
  503MOL0     H66364   3.271   5.676   8.335  1.9840  1.7307 -0.3546
  503MOL0     H66365   3.186   5.810   8.341  0.0636  1.5915  0.3136
  503MOL0     H66366   3.049   5.671   8.552  2.2995 -0.1495  0.3432
  503MOL0     H66367   3.123   5.550   8.471 -4.4567 -1.7679  1.6866
  503MOL0     H66368   2.986   5.754   8.286 -1.0131  0.3358 -0.6130
  503MOL0     H66369   3.028   5.587   8.260  0.0162  2.6760 -0.2374
  503MOL0     H66370   2.792   5.620   8.298  1.9328 -2.9365 -0.5184
  503MOL0     H66371   2.814   5.713   8.451 -1.6418 -2.1197  2.3400
  503MOL0     H66372   2.723   5.510   8.506  0.1047  1.8840  3.8465
  503MOL0     H66373   2.874   5.529   8.577 -0.8092 -0.1370  1.0666
  503MOL0     H66374   2.989   5.384   8.398 -1.1348  1.3509 -0.7254
  503MOL0     H66375   2.871   5.302   8.503 -1.4113 -0.4541 -0.0430
  503MOL0     H66376   2.803   5.381   8.226  3.0640  0.6752  0.5458
  503MOL0     H66377   2.682   5.324   8.348  0.2896 -1.4556 -0.6067
  503MOL0     H66378   3.369   5.485   8.776  2.7356 -1.2598 -1.1046
  503MOL0     H66379   3.536   5.487   8.973 -1.8197  1.5512  3.7480
  503MOL0     H66380   3.870   5.921   9.285 -2.4505 -0.9995  0.6112
  503MOL0     H66381   4.091   5.855   9.405 -0.5909  0.3483 -0.9568
  503MOL0     H66382   6.121   5.499   9.013 -0.9507 -1.2871 -1.0765
  503MOL0     H66383   6.342   5.515   9.044  0.1645 -2.2834 -0.7466
  503MOL0     H66384   6.807   5.405   9.030  1.9835 -0.7643 -0.2438
  503MOL0     H66385   7.004   5.303   9.079 -1.4357 -0.1765 -2.3380
  503MOL0     H66386   7.086   5.099   9.105  1.9514 -0.4236  0.5659
  503MOL0     H66387   7.013   4.975   9.216 -1.3256  1.3394  2.2688
  503MOL0     H66388   7.239   4.932   9.305 -2.7083 -2.5803 -1.6261
  503MOL0     H66389   7.267   4.920   9.142  3.0471  0.2579  0.7221
  503MOL0     H66390   7.316   5.189   9.273 -0.5207  0.3650 -0.0031
  503MOL0     H66391   7.305   5.163   9.103 -1.8400 -0.5181  0.5951
  503MOL0     H66392   7.539   5.173   9.213  0.6760 -0.9338  0.3858
  503MOL0     H66393   7.517   5.009   9.271  0.8839  0.1623  1.0506
  503MOL0     H66394   7.558   4.927   8.859  1.5520  0.9075 -0.7097
  503MOL0     H66395   6.850   5.137   9.443 -0.8334  2.9330  2.8354
  503MOL0     H66396   6.642   5.247   9.405  0.2853 -0.8626  0.1684
  504MOL0     O66397   1.873   8.094   1.202  0.5798  0.0142 -0.0518
  504MOL0     C66398   1.967   8.175   1.165 -0.2697 -0.6592  0.1734
  504MOL0     O66399   2.102   8.152   1.177 -0.1834  0.4861  0.3426
  504MOL0     C66400   2.158   8.058   1.260 -0.4366  0.9087 -0.3353
  504MOL0     C66401   2.260   7.978   1.219  0.3365  0.1569  1.3997
  504MOL0     C66402   2.310   7.869   1.292  0.3220 -0.1545 -0.1043
  504MOL0     C66403   2.261   7.849   1.423 -0.5338 -0.2530  0.2779
  504MOL0     O66404   2.314   7.754   1.502 -0.0040 -0.7096  0.1527
  504MOL0     C66405   2.352   7.620   1.459  0.4400 -0.2972  1.1397
  504MOL0     C66406   2.384   7.531   1.577 -0.7231  0.5528  0.6198
  504MOL0     C66407   2.422   7.392   1.539 -0.5302 -0.3780 -0.5712
  504MOL0     C66408   2.390   7.299   1.664 -0.7171  0.5524 -0.3155
  504MOL0     C66409   2.462   7.162   1.660 -0.6117  0.1378  0.8813
  504MOL0     C66410   2.437   7.067   1.770  0.3120  0.1248  0.8959
  504MOL0     C66411   2.467   6.923   1.731  0.2569 -1.8364 -0.1093
  504MOL0     C66412   2.601   6.877   1.774  0.0772 -0.1008  0.0558
  504MOL0     N66413   2.618   6.843   1.918 -0.6392  0.3954  0.0016
  504MOL0     C66414   2.560   6.734   1.985  0.3105 -0.5513 -0.5139
  504MOL0     C66415   2.634   6.717   2.097  0.2101  0.4141 -0.7464
  504MOL0     C66416   2.592   6.609   2.207  0.3210 -0.8747  0.7949
  504MOL0     C66417   2.601   6.674   2.350  0.9072  0.6453 -0.2900
  504MOL0     C66418   2.546   6.574   2.457  0.3991 -0.0904  0.3587
  504MOL0     C66419   2.600   6.609   2.607  0.3346 -0.0131  0.0881
  504MOL0     O66420   2.614   6.757   2.621  0.1028 -0.2916  0.6281
  504MOL0     C66421   2.499   6.833   2.637 -0.1201 -0.9106  0.9315
  504MOL0     C66422   2.364   6.794   2.647  0.9309  0.2638 -0.0237
  504MOL0     C66423   2.256   6.892   2.647 -0.1454  0.4885 -0.6087
  504MOL0     C66424   2.283   7.033   2.656 -0.4304  0.7260 -0.0563
  504MOL0     C66425   2.168   7.121   2.688 -0.4615  0.0058 -0.6553
  504MOL0     O66426   2.198   7.244   2.736  0.5154  1.4402 -0.0593
  504MOL0     C66427   2.121   7.303   2.833 -0.1412  0.1355  0.2448
  504MOL0     C66428   2.109   7.444   2.829  0.1331 -0.5347  0.2853
  504MOL0     C66429   2.035   7.510   2.927 -0.5472 -0.0646  0.3424
  504MOL0     C66430   1.974   7.440   3.035  0.7740 -0.1880  0.0172
  504MOL0     O66431   1.925   7.520   3.136  0.3938  0.8539 -0.5240
  504MOL0     C66432   1.795   7.483   3.171  0.7901  0.0982  0.5264
  504MOL0     C66433   1.724   7.598   3.259  0.0398 -0.4925  0.2657
  504MOL0     C66434   1.830   7.661   3.356 -0.3573 -0.3441  0.0919
  504MOL0     C66435   1.753   7.767   3.437 -0.3192 -0.3745 -0.2766
  504MOL0     C66436   1.841   7.822   3.554  0.4565  0.1904  0.5270
  504MOL0     C66437   1.823   7.746   3.685  0.3554  0.5839 -0.9803
  504MOL0     C66438   1.888   7.819   3.804  0.0785 -0.6789 -0.2790
  504MOL0     C66439   1.865   7.773   3.950  0.2027 -0.2215 -0.4122
  504MOL0    Cl66440   1.945   7.606   3.973 -0.2657 -0.1422 -0.6284
  504MOL0     C66441   1.985   7.303   3.041 -0.6084  0.3806  0.0828
  504MOL0     C66442   2.058   7.241   2.941  0.2740  1.2757  1.0209
  504MOL0     O66443   2.049   7.076   2.678 -0.0039 -0.6621 -0.6046
  504MOL0     C66444   2.420   7.074   2.651  0.1347  1.1384  0.1896
  504MOL0     C66445   2.525   6.973   2.640  0.0649 -0.8316  0.4262
  504MOL0     N66446   2.731   6.809   2.103  0.5114 -0.1724  0.2066
  504MOL0     N66447   2.733   6.882   1.994  0.1102 -0.3894 -0.2957
  504MOL0     C66448   2.153   7.928   1.465  0.0693 -0.0995  0.0202
  504MOL0     C66449   2.099   8.031   1.388 -0.3764 -0.4462  1.2107
  504MOL0     C66450   1.939   8.309   1.116  0.5612  0.0839  0.3971
  504MOL0     C66451   1.796   8.348   1.095 -0.2925 -0.0792 -0.7858
  504MOL0     C66452   1.761   8.467   1.032 -0.3909  0.2245  0.2981
  504MOL0     C66453   1.866   8.559   0.988 -0.1902 -0.6284 -0.9324
  504MOL0     O66454   1.845   8.678   0.929 -0.1249 -0.5629  0.1836
  504MOL0     C66455   1.716   8.727   0.899 -0.7248  0.0703 -0.0823
  504MOL0     C66456   1.712   8.876   0.858  0.3132 -0.1525 -0.0290
  504MOL0     C66457   1.576   8.907   0.795 -0.5268  0.3363 -0.0328
  504MOL0     C66458   1.541   8.843   0.660  1.2590  0.1530  0.4013
  504MOL0     C66459   1.629   8.840   0.546  0.5169  0.0084  0.3045
  504MOL0     C66460   1.704   8.834   0.451  0.3096 -1.3310 -0.3853
  504MOL0     C66461   2.000   8.522   1.015 -0.4741 -0.4432  0.7076
  504MOL0     C66462   2.031   8.402   1.073  0.5325 -0.2747 -0.0901
  504MOL0     H66463   2.305   7.995   1.121  0.7802  1.9279  1.8808
  504MOL0     H66464   2.381   7.801   1.247  0.4053  1.3807 -2.4605
  504MOL0     H66465   2.443   7.621   1.398 -0.8928 -2.2370 -1.0600
  504MOL0     H66466   2.271   7.580   1.396  2.0804  0.6959 -1.7739
  504MOL0     H66467   2.286   7.534   1.626 -1.0854 -1.4826  0.1372
  504MOL0     H66468   2.450   7.597   1.633 -3.8458  2.9912  1.7033
  504MOL0     H66469   2.530   7.391   1.526 -0.5033  0.2973 -0.4803
  504MOL0     H66470   2.377   7.364   1.443  0.4418 -2.1141 -0.5534
  504MOL0     H66471   2.417   7.362   1.749 -3.0244  1.1400  0.0521
  504MOL0     H66472   2.282   7.278   1.667 -0.6730  0.4335  1.2328
  504MOL0     H66473   2.569   7.186   1.660  0.0215 -2.3253  0.0831
  504MOL0     H66474   2.431   7.113   1.567 -2.2701  1.1674  0.8477
  504MOL0     H66475   2.339   7.076   1.816  1.6585 -0.1588  4.0617
  504MOL0     H66476   2.494   7.107   1.854 -1.7782 -0.1433  2.5135
  504MOL0     H66477   2.384   6.862   1.766 -0.4840  0.0915  1.7509
  504MOL0     H66478   2.470   6.918   1.622 -0.6109 -1.5101 -0.1530
  504MOL0     H66479   2.683   6.945   1.750 -1.4301  1.8559  0.2169
  504MOL0     H66480   2.614   6.786   1.715 -0.0833  1.0691 -1.8474
  504MOL0     H66481   2.494   6.655   1.949 -0.1245  0.0053 -0.9598
  504MOL0     H66482   2.658   6.523   2.195 -2.1289 -2.5866 -1.3449
  504MOL0     H66483   2.493   6.571   2.182  1.9042 -2.0746 -5.4264
  504MOL0     H66484   2.536   6.763   2.353  1.7903  1.3738 -1.8192
  504MOL0     H66485   2.705   6.694   2.376  1.0258 -2.4868  2.1793
  504MOL0     H66486   2.437   6.582   2.470  0.0573  1.6839 -2.5510
  504MOL0     H66487   2.563   6.473   2.420 -2.3250  0.1236 -1.9149
  504MOL0     H66488   2.702   6.572   2.614 -0.3561 -2.1353 -0.3396
  504MOL0     H66489   2.535   6.556   2.678  0.3677 -3.7172 -2.3833
  504MOL0     H66490   2.329   6.691   2.649  0.2511  0.3014 -3.4860
  504MOL0     H66491   2.155   6.854   2.648  0.4535 -1.3373  1.9456
  504MOL0     H66492   2.163   7.490   2.747  0.2855 -0.2738  0.5331
  504MOL0     H66493   2.019   7.618   2.929 -1.5998 -0.2198  1.1273
  504MOL0     H66494   1.782   7.388   3.224 -2.5439 -0.1461 -0.4690
  504MOL0     H66495   1.744   7.470   3.075 -0.7586  2.5091  0.9398
  504MOL0     H66496   1.636   7.569   3.317  0.4233  4.1602  3.7639
  504MOL0     H66497   1.697   7.682   3.194  1.8810 -0.1249 -0.0798
  504MOL0     H66498   1.908   7.710   3.297 -2.3299 -0.6890 -3.0529
  504MOL0     H66499   1.871   7.583   3.420 -0.8134  1.0760  2.2417
  504MOL0     H66500   1.726   7.845   3.366  0.3977 -2.3892 -2.9099
  504MOL0     H66501   1.663   7.719   3.479 -0.3860  1.3154  1.6974
  504MOL0     H66502   1.801   7.923   3.572 -1.0760 -0.1754 -0.6141
  504MOL0     H66503   1.945   7.825   3.521  0.8610  0.6190  1.7758
  504MOL0     H66504   1.881   7.653   3.680 -0.1428  0.3360 -2.9969
  504MOL0     H66505   1.719   7.728   3.711  0.2456 -2.0663 -2.9304
  504MOL0     H66506   1.997   7.822   3.789  0.3230 -0.6046  1.3615
  504MOL0     H66507   1.848   7.920   3.811  1.6379  0.1479 -2.0833
  504MOL0     H66508   1.756   7.764   3.959  0.1000  1.3303  0.1940
  504MOL0     H66509   1.910   7.835   4.028  1.7352 -2.6478  0.7431
  504MOL0     H66510   1.951   7.243   3.125 -1.0645  0.0542 -0.3268
  504MOL0     H66511   2.067   7.134   2.962 -1.9984  0.4047 -1.8497
  504MOL0     H66512   2.466   7.171   2.664  3.1564 -0.1663  0.3095
  504MOL0     H66513   2.624   7.018   2.644  0.2197 -0.7235 -2.5541
  504MOL0     H66514   2.109   7.905   1.562  1.1254 -2.5283 -0.0061
  504MOL0     H66515   2.022   8.088   1.440 -1.5120 -1.2408  0.4509
  504MOL0     H66516   1.716   8.296   1.147 -0.2772  2.4027  1.9457
  504MOL0     H66517   1.664   8.515   1.035 -1.3131 -1.5691  0.3487
  504MOL0     H66518   1.641   8.712   0.977 -1.2333 -0.4130 -0.6641
  504MOL0     H66519   1.694   8.673   0.807  0.7887  2.4432 -1.9699
  504MOL0     H66520   1.723   8.941   0.945 -5.9753 -0.2264  1.2315
  504MOL0     H66521   1.786   8.899   0.780 -0.6996  1.2184 -0.6318
  504MOL0     H66522   1.577   9.014   0.775  2.0818  0.8807  2.3109
  504MOL0     H66523   1.506   8.896   0.878  1.5816  0.4864  1.8682
  504MOL0     H66524   1.523   8.736   0.675  1.5419 -0.4515 -2.8002
  504MOL0     H66525   1.452   8.898   0.628  3.2292  2.4292 -1.5478
  504MOL0     H66526   1.788   8.830   0.385  1.8902  1.2440  1.2893
  504MOL0     H66527   2.081   8.594   1.004 -0.7647 -0.1239  0.6388
  504MOL0     H66528   2.135   8.388   1.100  0.4136 -1.5018 -0.2099
  505MOL0     O66529   7.889   7.587  10.714 -0.8851  0.3671  0.7039
  505MOL0     C66530   7.868   7.510  10.619 -0.2861 -0.0803 -0.1395
  505MOL0     O66531   7.881   7.537  10.485 -1.0959 -0.2440 -0.2450
  505MOL0     C66532   7.944   7.651  10.443  0.3932 -0.5849  0.1025
  505MOL0     C66533   7.902   7.786  10.486  0.3833 -0.1426 -0.3270
  505MOL0     C66534   7.957   7.902  10.439  0.1498  0.1523 -0.1908
  505MOL0     C66535   8.070   7.895  10.355 -0.7854 -0.5002  0.3166
  505MOL0     O66536   8.123   8.019  10.324  0.1279  0.0545  0.8958
  505MOL0     C66537   8.269   8.039  10.354 -0.2375  0.2220 -0.0248
  505MOL0     C66538   8.289   8.070  10.509  0.1649  1.0708  0.6717
  505MOL0     C66539   8.169   8.148  10.569  0.0156 -0.5812  0.2300
  505MOL0     C66540   8.177   8.144  10.722  0.2222  0.2436 -0.1911
  505MOL0     C66541   8.064   8.230  10.783  0.6749 -0.1110 -0.6930
  505MOL0     C66542   8.048   8.202  10.937  0.2034  0.4167  0.0225
  505MOL0     C66543   8.159   8.243  11.030  0.2240 -0.2177 -0.4694
  505MOL0     C66544   8.140   8.181  11.173  0.3990 -0.8207  0.5058
  505MOL0     N66545   8.034   8.249  11.237 -0.2302 -0.9309 -0.4494
  505MOL0     C66546   8.031   8.385  11.256  0.1277 -0.3033  0.3383
  505MOL0     C66547   7.913   8.413  11.300  0.6750 -0.1671 -0.0242
  505MOL0     C66548   7.844   8.543  11.313 -0.4683  0.2983 -0.3365
  505MOL0     C66549   7.941   8.655  11.322  0.0536 -0.2264  0.0616
  505MOL0     C66550   7.987   8.657  11.469 -0.7454 -1.1823 -0.6182
  505MOL0     C66551   8.084   8.783  11.498  0.6959 -0.2478  0.0304
  505MOL0     O66552   8.025   8.913  11.479  0.3310  0.0601 -0.3523
  505MOL0     C66553   8.101   9.025  11.497 -0.6547  0.4179  0.5590
  505MOL0     C66554   8.055   9.141  11.443 -0.1021  0.3197  0.4906
  505MOL0     C66555   8.139   9.255  11.451  0.6881 -0.0392  0.1924
  505MOL0     C66556   8.267   9.258  11.501 -0.3261  0.2126 -0.3590
  505MOL0     C66557   8.364   9.380  11.493  0.4581  0.1640 -0.5820
  505MOL0     O66558   8.477   9.381  11.563 -0.0958 -0.6359 -0.8857
  505MOL0     C66559   8.567   9.489  11.574 -0.0037  0.0970 -0.3884
  505MOL0     C66560   8.702   9.476  11.617  1.1356 -1.0513  0.4370
  505MOL0     C66561   8.779   9.584  11.637 -0.5835 -0.0400  0.7079
  505MOL0     C66562   8.734   9.711  11.640  0.2339  0.0287  0.8110
  505MOL0     O66563   8.821   9.814  11.690 -0.5213 -0.3763 -0.4517
  505MOL0     C66564   8.782   9.951  11.690 -0.1388  0.1073  0.1300
  505MOL0     C66565   8.906  10.045  11.688 -0.3959 -0.0383 -0.2762
  505MOL0     C66566   9.008  10.018  11.791 -0.5697 -0.0376 -0.1999
  505MOL0     C66567   9.113  10.118  11.804  0.5353  0.5996 -1.1691
  505MOL0     C66568   9.251  10.063  11.864  0.3932 -0.6774  0.1992
  505MOL0     C66569   9.346  10.179  11.860  0.5314  0.0883  1.2330
  505MOL0     C66570   9.484  10.126  11.910 -0.5816  0.0450 -0.4783
  505MOL0     C66571   9.597  10.236  11.900 -0.1473  0.5485  0.0937
  505MOL0    Cl66572   9.627  10.287  11.732  0.0857  0.4437 -0.0564
  505MOL0     C66573   8.602   9.735  11.604  0.5206 -0.0807 -0.7435
  505MOL0     C66574   8.525   9.627  11.564  0.6772 -0.3362 -0.8112
  505MOL0     O66575   8.325   9.467  11.415 -0.1489  0.3224  0.0605
  505MOL0     C66576   8.303   9.132  11.561 -0.6286 -0.7927 -0.4971
  505MOL0     C66577   8.224   9.016  11.556 -0.5150  0.1934 -0.3095
  505MOL0     N66578   7.838   8.299  11.293 -0.5696  0.8792  0.5135
  505MOL0     N66579   7.907   8.194  11.259  0.5193 -1.1632  0.3512
  505MOL0     C66580   8.119   7.774  10.316 -0.0275 -0.1036  0.2338
  505MOL0     C66581   8.050   7.650  10.356 -0.7090 -0.1274 -1.0723
  505MOL0     C66582   7.825   7.361  10.645  0.0361 -0.2368 -0.3938
  505MOL0     C66583   7.844   7.246  10.564 -0.9787 -0.6010 -0.0855
  505MOL0     C66584   7.811   7.113  10.601  0.7354 -1.2262  0.2825
  505MOL0     C66585   7.753   7.087  10.724 -1.1257 -0.3906  0.7002
  505MOL0     O66586   7.739   6.964  10.786 -0.0421 -0.4295 -0.6376
  505MOL0     C66587   7.806   6.853  10.729  0.5188 -0.8903 -0.6746
  505MOL0     C66588   7.701   6.741  10.686 -0.6803 -0.6329  0.1873
  505MOL0     C66589   7.680   6.727  10.526  0.1934 -0.8064 -0.8550
  505MOL0     C66590   7.787   6.647  10.452  0.6953  0.7519  0.1347
  505MOL0     C66591   7.782   6.512  10.502  1.0364 -0.8297  0.8172
  505MOL0     C66592   7.776   6.399  10.550  0.5567  0.3206 -0.2340
  505MOL0     C66593   7.732   7.195  10.810 -0.5767 -0.3531 -0.2459
  505MOL0     C66594   7.763   7.331  10.772 -0.3924  0.0389  0.2211
  505MOL0     H66595   7.818   7.790  10.555  0.4658 -0.5839 -0.2023
  505MOL0     H66596   7.913   7.993  10.478  2.9875  1.8051 -0.6031
  505MOL0     H66597   8.300   8.118  10.284 -0.5577  0.8983  0.5866
  505MOL0     H66598   8.339   7.957  10.331  1.7536  1.2706  1.8958
  505MOL0     H66599   8.382   8.123  10.530  1.4887 -1.1498  0.6366
  505MOL0     H66600   8.283   7.974  10.561  0.0455  0.2131 -0.8798
  505MOL0     H66601   8.073   8.106  10.539 -0.2930  1.9409 -2.7834
  505MOL0     H66602   8.157   8.253  10.540 -2.9687 -1.2342 -1.3046
  505MOL0     H66603   8.160   8.039  10.744  0.4992  0.7425  2.7127
  505MOL0     H66604   8.270   8.178  10.769 -1.2320  0.6891  2.5155
  505MOL0     H66605   7.973   8.187  10.739  0.3686 -0.9213  0.6688
  505MOL0     H66606   8.070   8.339  10.776  0.1146  0.1549  1.9340
  505MOL0     H66607   8.025   8.096  10.950 -2.0253  1.0275  1.6869
  505MOL0     H66608   7.960   8.260  10.965  0.2345  0.2869  0.3986
  505MOL0     H66609   8.260   8.212  11.002  0.3604  0.8373 -1.2183
  505MOL0     H66610   8.151   8.352  11.022 -1.4512 -0.2888 -0.1069
  505MOL0     H66611   8.228   8.201  11.235  0.3393 -2.0915  1.0245
  505MOL0     H66612   8.132   8.073  11.162  1.5234 -0.7001 -2.0854
  505MOL0     H66613   8.111   8.455  11.235 -0.7503  0.6482  0.0534
  505MOL0     H66614   7.772   8.539  11.395 -0.1160 -1.5149 -0.0645
  505MOL0     H66615   7.792   8.552  11.217  0.2472 -2.0822 -1.0210
  505MOL0     H66616   7.884   8.746  11.301  1.0172  0.5690  0.7602
  505MOL0     H66617   8.026   8.647  11.253  0.8912  2.0233  0.7251
  505MOL0     H66618   7.907   8.679  11.540  2.8124 -1.2957  3.8270
  505MOL0     H66619   8.048   8.569  11.493  1.7612  1.0137  1.5873
  505MOL0     H66620   8.163   8.764  11.424  2.1539  0.1427  1.4321
  505MOL0     H66621   8.131   8.762  11.594  1.3316 -0.3156 -0.2898
  505MOL0     H66622   7.955   9.137  11.402  0.8068 -1.9162 -1.7956
  505MOL0     H66623   8.088   9.343  11.413 -0.0704 -0.9608 -1.0092
  505MOL0     H66624   8.728   9.374  11.642 -3.5840 -3.2118 -2.1222
  505MOL0     H66625   8.875   9.560  11.683 -1.2793  1.3940  3.0996
  505MOL0     H66626   8.736   9.977  11.786  2.9062  1.5007  1.3564
  505MOL0     H66627   8.721   9.979  11.603  0.9839  0.2677 -0.6347
  505MOL0     H66628   8.877  10.150  11.690  4.3633  1.6105 -2.5250
  505MOL0     H66629   8.960  10.029  11.594  2.7573  2.8888  0.8117
  505MOL0     H66630   9.053   9.925  11.755  0.8304  0.1332  1.0367
  505MOL0     H66631   8.953  10.012  11.885 -2.4518  1.4258 -1.1301
  505MOL0     H66632   9.134  10.151  11.702 -1.3735 -0.5019 -1.9669
  505MOL0     H66633   9.083  10.206  11.862  2.4753 -0.4071  1.6326
  505MOL0     H66634   9.285   9.977  11.805  1.2754 -0.4290  0.3383
  505MOL0     H66635   9.231  10.035  11.968 -0.9714  0.9514  0.4149
  505MOL0     H66636   9.296  10.255  11.920 -0.7259  0.6691 -0.4527
  505MOL0     H66637   9.358  10.227  11.762 -0.9788 -1.3880  0.2654
  505MOL0     H66638   9.472  10.114  12.018 -4.2427  1.9065 -0.5333
  505MOL0     H66639   9.522  10.034  11.864  3.4755  0.6322  1.2178
  505MOL0     H66640   9.684  10.183  11.941  0.6183  1.1071 -0.7851
  505MOL0     H66641   9.585  10.320  11.970  0.4919 -0.8659  1.9791
  505MOL0     H66642   8.549   9.829  11.596 -0.0395 -0.4379 -1.3479
  505MOL0     H66643   8.420   9.657  11.559  1.3143  1.9166 -2.2154
  505MOL0     H66644   8.407   9.117  11.587  1.0375  2.7747 -3.9051
  505MOL0     H66645   8.282   8.926  11.575  0.1388  0.3440 -1.5356
  505MOL0     H66646   8.214   7.779  10.264 -0.6004 -1.4273 -0.9874
  505MOL0     H66647   8.086   7.553  10.325  1.9538 -0.1122  1.5171
  505MOL0     H66648   7.889   7.254  10.466 -0.0017  2.6439  0.5328
  505MOL0     H66649   7.834   7.038  10.526 -1.8903  0.6131 -2.6100
  505MOL0     H66650   7.868   6.815  10.812  1.0182  1.9559  0.3781
  505MOL0     H66651   7.875   6.875  10.647  0.3159  0.7563 -0.4322
  505MOL0     H66652   7.748   6.647  10.717  1.9664 -0.7974 -3.5615
  505MOL0     H66653   7.605   6.761  10.733  0.2885  3.0282  0.9597
  505MOL0     H66654   7.653   6.826  10.488  3.3279 -0.4002 -2.3253
  505MOL0     H66655   7.590   6.665  10.529 -1.2137  1.1288 -1.1269
  505MOL0     H66656   7.770   6.652  10.343  0.6519 -2.0693 -0.0572
  505MOL0     H66657   7.887   6.684  10.476  1.0061  0.2295 -0.3300
  505MOL0     H66658   7.745   6.308  10.597  0.6442  1.5827  2.4423
  505MOL0     H66659   7.694   7.172  10.909  0.3538 -1.7826 -0.1928
  505MOL0     H66660   7.757   7.419  10.835  0.5602  0.0329  0.3239
  506MOL0     O66661   1.318   1.924   1.078  0.4820 -0.4346  0.4197
  506MOL0     C66662   1.337   1.915   1.193  0.7018 -0.2558 -0.2901
  506MOL0     O66663   1.387   1.803   1.256 -0.7938 -0.2731 -0.6298
  506MOL0     C66664   1.435   1.703   1.175 -0.1851  0.6472 -1.4581
  506MOL0     C66665   1.384   1.566   1.179  0.1316 -0.2789 -0.3245
  506MOL0     C66666   1.432   1.467   1.084  1.4152  0.1459 -0.0120
  506MOL0     C66667   1.542   1.485   1.006 -0.2653  0.9097  0.7942
  506MOL0     O66668   1.588   1.392   0.914 -0.4850 -0.0782  0.3631
  506MOL0     C66669   1.701   1.419   0.828  0.4281  0.6814  0.0383
  506MOL0     C66670   1.761   1.286   0.781  0.9404 -1.0706 -0.4056
  506MOL0     C66671   1.844   1.225   0.896 -0.4472 -0.3871  0.7287
  506MOL0     C66672   1.978   1.299   0.901  0.1221  0.1651 -0.2073
  506MOL0     C66673   2.081   1.236   0.801  0.5379 -0.1820  0.4097
  506MOL0     C66674   2.138   1.106   0.842  0.5631  0.5991  0.0042
  506MOL0     C66675   2.215   1.041   0.733 -0.4629 -0.4817 -0.4893
  506MOL0     C66676   2.139   0.980   0.618  0.0735 -0.0815  0.3885
  506MOL0     N66677   2.203   0.886   0.540  0.5143 -0.3084 -0.1766
  506MOL0     C66678   2.326   0.817   0.557  0.0074  0.4779  0.1967
  506MOL0     C66679   2.333   0.713   0.461  0.9487 -0.2365 -1.4206
  506MOL0     C66680   2.455   0.624   0.447  0.5815  0.6130 -0.8806
  506MOL0     C66681   2.585   0.691   0.483  0.3057  0.6576  0.1196
  506MOL0     C66682   2.711   0.603   0.474 -0.1613  0.4476 -0.8050
  506MOL0     C66683   2.840   0.688   0.484 -0.5153 -0.4553  1.1677
  506MOL0     O66684   2.865   0.726   0.617 -0.6053  0.7873  0.0829
  506MOL0     C66685   2.987   0.738   0.665  0.2160 -0.2163 -0.4551
  506MOL0     C66686   3.019   0.712   0.794  1.0082  0.4783  0.2811
  506MOL0     C66687   3.155   0.737   0.842  0.9565 -0.6334  0.9867
  506MOL0     C66688   3.252   0.801   0.758  0.4987  0.0768  0.1160
  506MOL0     C66689   3.388   0.827   0.803  0.6512 -0.3988  0.4559
  506MOL0     O66690   3.486   0.804   0.703 -0.7986  0.1003 -0.1082
  506MOL0     C66691   3.623   0.829   0.717 -0.6493  0.3036 -0.2857
  506MOL0     C66692   3.687   0.795   0.845 -0.4476  0.0863  0.2320
  506MOL0     C66693   3.829   0.793   0.848  0.6449 -0.8454  0.3437
  506MOL0     C66694   3.895   0.837   0.729 -0.1494  0.0238 -0.1748
  506MOL0     O66695   4.035   0.834   0.721 -0.2311 -0.2805 -0.4700
  506MOL0     C66696   4.080   0.721   0.653 -0.5649 -0.3627  0.1779
  506MOL0     C66697   4.220   0.674   0.682  0.6298  0.3298  0.6696
  506MOL0     C66698   4.334   0.769   0.645 -0.0250 -0.4833 -0.8473
  506MOL0     C66699   4.373   0.732   0.510 -0.3991  0.0072 -0.5864
  506MOL0     C66700   4.451   0.838   0.425 -0.4722  0.2143  1.0879
  506MOL0     C66701   4.609   0.848   0.455  0.3707 -0.0047 -0.2229
  506MOL0     C66702   4.674   0.950   0.368  0.9489  0.4108  0.5866
  506MOL0     C66703   4.806   0.992   0.427  0.0947  0.4334  0.4083
  506MOL0    Cl66704   4.841   1.145   0.336  0.0970  0.7181 -0.1641
  506MOL0     C66705   3.827   0.868   0.612  0.0071 -0.3821  0.0504
  506MOL0     C66706   3.691   0.861   0.603 -1.3665 -0.2206  0.0930
  506MOL0     O66707   3.402   0.879   0.911 -0.8419 -0.1613 -0.0068
  506MOL0     C66708   3.215   0.836   0.633  0.1149 -0.8978  0.5641
  506MOL0     C66709   3.091   0.803   0.589  0.3043 -0.7580  0.7905
  506MOL0     N66710   2.218   0.722   0.381 -0.3707 -0.1532  0.7043
  506MOL0     N66711   2.151   0.823   0.429  0.1107 -0.0325 -0.1763
  506MOL0     C66712   1.598   1.615   1.006 -0.2690  0.0239  0.2815
  506MOL0     C66713   1.546   1.722   1.087 -0.4062 -0.5737  0.4456
  506MOL0     C66714   1.302   2.027   1.269 -0.2280  0.0096 -0.9800
  506MOL0     C66715   1.301   2.019   1.410  0.9123  0.2085 -0.0620
  506MOL0     C66716   1.243   2.116   1.496 -0.1857 -0.3452  0.8143
  506MOL0     C66717   1.176   2.225   1.433  0.5436  0.4753 -0.7702
  506MOL0     O66718   1.101   2.311   1.513 -0.0274 -0.6341  0.4511
  506MOL0     C66719   1.022   2.414   1.445 -0.1488 -0.4334 -0.3332
  506MOL0     C66720   0.939   2.460   1.565 -1.0697  0.1575  0.8047
  506MOL0     C66721   0.864   2.594   1.523 -0.4525  0.1023 -1.3265
  506MOL0     C66722   0.739   2.572   1.432 -0.1660  0.8038  0.1343
  506MOL0     C66723   0.767   2.571   1.292 -0.3660  0.1745 -0.1272
  506MOL0     C66724   0.788   2.586   1.174 -0.2676 -0.7868  0.3420
  506MOL0     C66725   1.193   2.248   1.297 -0.3787 -0.4957 -0.4789
  506MOL0     C66726   1.256   2.155   1.216 -0.0330 -0.3297 -0.4007
  506MOL0     H66727   1.288   1.560   1.231 -1.1295  2.1032 -2.1606
  506MOL0     H66728   1.392   1.368   1.066  1.3907  0.0011  0.7960
  506MOL0     H66729   1.772   1.475   0.889  1.1498  0.8933 -0.9844
  506MOL0     H66730   1.672   1.491   0.751  2.3298  1.4120 -0.0270
  506MOL0     H66731   1.814   1.307   0.687 -0.3768 -0.4473 -1.0371
  506MOL0     H66732   1.686   1.213   0.749  0.0804 -0.0694 -0.7683
  506MOL0     H66733   1.852   1.118   0.874 -0.2086 -0.3298  0.5281
  506MOL0     H66734   1.784   1.241   0.986 -0.3734  2.1188  0.4016
  506MOL0     H66735   1.962   1.406   0.889 -0.1296  0.0699 -0.7562
  506MOL0     H66736   2.016   1.287   1.003  0.1736  2.6446  0.1083
  506MOL0     H66737   2.158   1.313   0.796  0.0107  0.4821  1.9282
  506MOL0     H66738   2.026   1.228   0.707 -3.2342 -2.2857  2.5128
  506MOL0     H66739   2.064   1.027   0.855  0.6079  0.9263  2.8478
  506MOL0     H66740   2.180   1.109   0.943  2.5166  0.7056 -0.7669
  506MOL0     H66741   2.280   1.116   0.688  2.6741 -1.4182  2.0737
  506MOL0     H66742   2.284   0.970   0.780  0.2484 -0.0737 -0.9001
  506MOL0     H66743   2.104   1.061   0.554 -3.9741 -1.7241  0.2750
  506MOL0     H66744   2.048   0.933   0.654 -0.1544  0.7641  0.9265
  506MOL0     H66745   2.411   0.861   0.609 -2.2957  3.3936  1.8309
  506MOL0     H66746   2.469   0.597   0.342  1.1834  1.3701 -1.0030
  506MOL0     H66747   2.453   0.525   0.494  2.8167  0.8132 -0.2677
  506MOL0     H66748   2.590   0.726   0.586  1.8264  0.6047  0.0864
  506MOL0     H66749   2.604   0.774   0.413  4.3383 -2.3942 -2.8602
  506MOL0     H66750   2.708   0.526   0.552  0.4397  0.5663 -0.6598
  506MOL0     H66751   2.706   0.543   0.384 -2.0583 -2.2486  0.9645
  506MOL0     H66752   2.827   0.774   0.418 -2.5054 -0.2829  1.7087
  506MOL0     H66753   2.912   0.619   0.440 -3.5019 -2.0504 -1.6159
  506MOL0     H66754   2.948   0.659   0.857  2.6689 -0.4726  1.4053
  506MOL0     H66755   3.167   0.710   0.946 -1.1463  1.2304  1.7876
  506MOL0     H66756   3.626   0.761   0.929 -1.4060 -1.3432 -0.9763
  506MOL0     H66757   3.881   0.760   0.936  3.5406  1.4992 -0.3464
  506MOL0     H66758   4.068   0.742   0.546 -2.8859  1.1885  0.6843
  506MOL0     H66759   4.006   0.644   0.679 -0.1255 -0.7622  0.2670
  506MOL0     H66760   4.230   0.575   0.637 -1.6933  0.1766  0.3323
  506MOL0     H66761   4.225   0.664   0.791 -0.1954 -0.0605  0.6806
  506MOL0     H66762   4.418   0.752   0.713 -0.5973  0.1608  0.0370
  506MOL0     H66763   4.293   0.870   0.651 -1.1324 -0.9964  0.9348
  506MOL0     H66764   4.435   0.641   0.513 -0.9068 -0.4622 -2.7004
  506MOL0     H66765   4.278   0.708   0.462 -1.5691 -3.7861  3.0276
  506MOL0     H66766   4.410   0.937   0.448 -0.1635  0.3882  0.9064
  506MOL0     H66767   4.437   0.813   0.319 -2.5746  0.2622  1.3150
  506MOL0     H66768   4.655   0.753   0.425  1.1289  0.9520 -2.2318
  506MOL0     H66769   4.617   0.875   0.561  2.0887  0.1042 -0.3511
  506MOL0     H66770   4.694   0.914   0.267  1.7268  2.6356 -0.1332
  506MOL0     H66771   4.608   1.037   0.360 -1.1724 -1.1570  0.3886
  506MOL0     H66772   4.881   0.914   0.409  0.6958  1.5935 -2.6250
  506MOL0     H66773   4.800   1.011   0.535 -1.6413 -1.0378  0.6303
  506MOL0     H66774   3.892   0.900   0.531 -0.1541 -1.8208 -0.6941
  506MOL0     H66775   3.629   0.886   0.518 -1.2950 -0.8503 -0.1474
  506MOL0     H66776   3.286   0.872   0.559 -0.0854 -1.4191  0.1074
  506MOL0     H66777   3.065   0.825   0.487  1.3723 -1.6082  0.3077
  506MOL0     H66778   1.672   1.647   0.933 -2.6662  1.5370 -1.6653
  506MOL0     H66779   1.584   1.823   1.075 -2.8296  0.7581  2.8362
  506MOL0     H66780   1.344   1.936   1.466 -1.3435 -2.3337 -1.8773
  506MOL0     H66781   1.246   2.090   1.601  4.0191 -2.1923  0.4536
  506MOL0     H66782   0.948   2.369   1.379 -0.3119 -1.1896  0.3448
  506MOL0     H66783   1.086   2.488   1.396 -0.6742 -0.6730 -1.4093
  506MOL0     H66784   0.860   2.390   1.597 -2.9840  1.3860 -0.9913
  506MOL0     H66785   0.992   2.483   1.658  0.3648  0.3007 -0.0256
  506MOL0     H66786   0.932   2.663   1.471 -1.9201  3.6144  1.0002
  506MOL0     H66787   0.832   2.645   1.615 -4.8048 -1.0270 -2.0091
  506MOL0     H66788   0.685   2.483   1.467 -0.7408  1.9639  2.4291
  506MOL0     H66789   0.673   2.658   1.441  0.3904  1.2634 -0.1254
  506MOL0     H66790   0.801   2.583   1.068 -2.0464 -3.6260  0.0897
  506MOL0     H66791   1.152   2.334   1.244  3.5902  2.2245  0.4113
  506MOL0     H66792   1.263   2.194   1.115  0.7084  3.9421  1.0900
  507MOL0     O66793   1.320  10.844   2.916  0.9185 -0.2693  0.0459
  507MOL0     C66794   1.438  10.822   2.893 -0.2993 -0.2452  0.5184
  507MOL0     O66795   1.486  10.816   2.771 -0.5107  0.6747 -0.7826
  507MOL0     C66796   1.400  10.809   2.662 -0.4865  0.3251  0.7924
  507MOL0     C66797   1.302  10.710   2.656  0.1381 -0.0917 -0.6355
  507MOL0     C66798   1.212  10.706   2.549  0.3429 -0.3883 -0.2473
  507MOL0     C66799   1.222  10.801   2.451 -0.1544  0.3532 -0.0981
  507MOL0     O66800   1.125  10.793   2.350 -0.6175  1.2060  0.2848
  507MOL0     C66801   1.155  10.854   2.222 -0.1821  0.5326 -0.5746
  507MOL0     C66802   1.049  10.799   2.133 -0.5153  1.1379 -0.1727
  507MOL0     C66803   1.065  10.808   1.979 -1.0325  1.1321 -0.8066
  507MOL0     C66804   0.925  10.789   1.905  0.6928  0.5781  0.5548
  507MOL0     C66805   0.959  10.743   1.757 -0.1043  0.0582 -0.0426
  507MOL0     C66806   0.846  10.672   1.684  0.3695  0.8492  1.0402
  507MOL0     C66807   0.860  10.690   1.530  0.0282  0.3936  0.1481
  507MOL0     C66808   0.733  10.665   1.462  1.0054  0.0499  0.0605
  507MOL0     N66809   0.726  10.688   1.319 -1.0901 -0.1253  0.3791
  507MOL0     C66810   0.732  10.591   1.224  0.4302 -0.2750  0.5162
  507MOL0     C66811   0.752  10.655   1.104 -0.0064 -0.2572  0.1221
  507MOL0     C66812   0.765  10.600   0.966 -0.0924  0.2739  0.0790
  507MOL0     C66813   0.638  10.531   0.906 -0.1095  1.2594  0.8245
  507MOL0     C66814   0.604  10.389   0.953 -0.1387 -1.0513 -0.9422
  507MOL0     C66815   0.461  10.345   0.922 -0.4521  0.3016 -0.8294
  507MOL0     O66816   0.444  10.220   0.972  0.5946  0.5447 -0.0902
  507MOL0     C66817   0.328  10.145   0.950  0.8292 -0.8487 -1.1746
  507MOL0     C66818   0.192  10.198   0.923  0.5357 -0.0294 -0.4935
  507MOL0     C66819   0.089  10.110   0.918  0.1999 -0.2740  0.6688
  507MOL0     C66820   0.095   9.976   0.962 -0.8713 -0.0770  0.5551
  507MOL0     C66821  -0.023   9.891   0.968 -0.0511 -0.2098  0.7520
  507MOL0     O66822  -0.017   9.769   1.034 -0.8050  0.1649  0.2610
  507MOL0     C66823  -0.140   9.708   1.045 -0.2726  0.5109  0.9589
  507MOL0     C66824  -0.214   9.638   0.940 -0.2159  0.3644 -0.8382
  507MOL0     C66825  -0.339   9.582   0.971  0.2051 -0.5526  0.1053
  507MOL0     C66826  -0.399   9.597   1.097 -0.4972 -0.3875  0.1204
  507MOL0     O66827  -0.529   9.551   1.105 -0.2170 -0.4595  0.2436
  507MOL0     C66828  -0.591   9.548   1.238  0.3260  0.1368 -1.1252
  507MOL0     C66829  -0.723   9.470   1.230 -0.2765 -0.3419  0.3726
  507MOL0     C66830  -0.822   9.544   1.135  1.0259 -0.4645  0.9314
  507MOL0     C66831  -0.870   9.443   1.027  0.9670 -0.4440 -0.0298
  507MOL0     C66832  -0.952   9.505   0.923  0.4363 -0.3479  0.6192
  507MOL0     C66833  -1.103   9.532   0.972 -0.7044 -0.0343  0.1452
  507MOL0     C66834  -1.181   9.598   0.868 -0.3167 -0.4216  0.3030
  507MOL0     C66835  -1.293   9.673   0.914 -0.6666 -0.8521  0.2822
  507MOL0    Cl66836  -1.404   9.555   0.992  0.3784  0.1481 -0.2660
  507MOL0     C66837  -0.316   9.644   1.198  1.3686 -0.1430  0.3008
  507MOL0     C66838  -0.194   9.701   1.172 -0.7099  0.4936 -0.5308
  507MOL0     O66839  -0.125   9.940   0.923 -0.0579  0.3393  0.1231
  507MOL0     C66840   0.223   9.934   1.009 -0.1772  0.1254  0.0474
  507MOL0     C66841   0.338  10.015   0.993 -0.8413  0.3115  0.5308
  507MOL0     N66842   0.755  10.788   1.131  0.6773  0.1612 -0.2867
  507MOL0     N66843   0.731  10.810   1.257 -0.4575 -0.7487  0.7470
  507MOL0     C66844   1.321  10.893   2.449 -0.5736  0.0871 -0.1640
  507MOL0     C66845   1.414  10.896   2.551 -0.2018  0.1349 -0.2376
  507MOL0     C66846   1.536  10.821   3.006 -0.5752  0.3960  0.5283
  507MOL0     C66847   1.659  10.761   2.988 -0.7034  0.2452  0.0461
  507MOL0     C66848   1.754  10.752   3.100  1.2366  0.5068 -0.5149
  507MOL0     C66849   1.709  10.808   3.221 -0.5397  0.0204 -0.0160
  507MOL0     O66850   1.792  10.808   3.332  0.2725  0.3214 -0.0621
  507MOL0     C66851   1.866  10.692   3.359 -0.4461 -0.3120  0.8253
  507MOL0     C66852   1.785  10.608   3.458  0.4358 -0.0999 -0.1611
  507MOL0     C66853   1.831  10.463   3.464 -0.3095  0.8957 -0.6134
  507MOL0     C66854   1.750  10.349   3.539  0.1271  0.2543 -0.9771
  507MOL0     C66855   1.609  10.363   3.510  0.4517  0.1460 -0.1306
  507MOL0     C66856   1.497  10.382   3.468  0.2011  0.2579  0.2439
  507MOL0     C66857   1.582  10.864   3.235 -0.3877  0.0938  0.4474
  507MOL0     C66858   1.495  10.874   3.129 -0.7687  0.5767  0.1640
  507MOL0     H66859   1.312  10.640   2.739  1.3965  2.7638  1.7875
  507MOL0     H66860   1.134  10.633   2.538 -0.9887  0.8931  0.3263
  507MOL0     H66861   1.262  10.842   2.202  0.6218  4.5889  0.3983
  507MOL0     H66862   1.132  10.961   2.229  1.6401  0.9081  0.4320
  507MOL0     H66863   0.958  10.856   2.151 -1.0118  1.2439 -2.6137
  507MOL0     H66864   1.027  10.697   2.165 -1.0209  1.3753  0.2346
  507MOL0     H66865   1.137  10.738   1.935 -0.2402 -0.0454  2.1202
  507MOL0     H66866   1.106  10.907   1.955  1.8093  0.0529 -0.7371
  507MOL0     H66867   0.860  10.719   1.957 -0.6600  0.5014 -1.1409
  507MOL0     H66868   0.864  10.880   1.907 -0.5978 -0.2691  0.4515
  507MOL0     H66869   1.038  10.669   1.767  0.5433  1.0138  2.6004
  507MOL0     H66870   1.005  10.829   1.706 -0.3495  0.9159  1.1333
  507MOL0     H66871   0.749  10.714   1.713  1.5461  1.8157  3.8754
  507MOL0     H66872   0.846  10.564   1.701  2.7100 -0.0294 -3.1099
  507MOL0     H66873   0.883  10.794   1.506  2.2562  0.1321  0.8950
  507MOL0     H66874   0.942  10.634   1.483 -1.1376 -0.8880 -0.4426
  507MOL0     H66875   0.655  10.729   1.503  2.6678  1.1538  1.6508
  507MOL0     H66876   0.707  10.560   1.483  0.3100  0.4312  1.2532
  507MOL0     H66877   0.727  10.482   1.225  0.6172 -0.3054 -0.4829
  507MOL0     H66878   0.850  10.537   0.994 -1.9669 -1.4419  2.2704
  507MOL0     H66879   0.796  10.675   0.893  3.6037 -0.9342  0.2030
  507MOL0     H66880   0.651  10.525   0.798  0.9103  1.8414  0.9094
  507MOL0     H66881   0.547  10.590   0.924 -2.2814 -1.7107  0.4478
  507MOL0     H66882   0.668  10.320   0.897 -1.0764 -0.9883 -2.1453
  507MOL0     H66883   0.618  10.386   1.061 -3.7754  0.5439 -0.2708
  507MOL0     H66884   0.439  10.343   0.815  2.9746 -2.5922 -1.6841
  507MOL0     H66885   0.383  10.401   0.973 -1.8588 -1.9185 -0.4374
  507MOL0     H66886   0.182  10.302   0.895 -4.1429  0.3194  1.6170
  507MOL0     H66887   0.006  10.155   0.865  2.3575  1.0597 -1.8535
  507MOL0     H66888  -0.175   9.619   0.841 -0.9918  0.0856 -1.0949
  507MOL0     H66889  -0.399   9.545   0.888 -0.2412  0.4520 -0.0308
  507MOL0     H66890  -0.618   9.650   1.266 -0.7203 -0.4725  0.1920
  507MOL0     H66891  -0.536   9.498   1.318  0.5140 -0.3625 -1.5586
  507MOL0     H66892  -0.772   9.463   1.328  1.0522  1.7467  1.2747
  507MOL0     H66893  -0.705   9.369   1.195 -1.7350  0.3131 -2.6118
  507MOL0     H66894  -0.767   9.623   1.084  0.1180  1.4395  2.7449
  507MOL0     H66895  -0.910   9.586   1.184 -0.6516  1.5999 -3.3816
  507MOL0     H66896  -0.786   9.405   0.967  1.1655  0.3963 -0.2925
  507MOL0     H66897  -0.918   9.359   1.077  3.4435  0.4969  4.4659
  507MOL0     H66898  -0.968   9.432   0.844 -1.9473 -1.2647  1.8362
  507MOL0     H66899  -0.909   9.600   0.890  1.1855 -0.2583  1.7653
  507MOL0     H66900  -1.110   9.592   1.063  0.0061 -1.2080  1.0032
  507MOL0     H66901  -1.143   9.434   0.999 -1.8994  0.4597  0.2372
  507MOL0     H66902  -1.116   9.657   0.802 -0.6534  0.7141  0.9665
  507MOL0     H66903  -1.232   9.521   0.810 -0.3917 -0.4987  0.4731
  507MOL0     H66904  -1.347   9.714   0.828  0.1275 -2.6031 -1.1277
  507MOL0     H66905  -1.265   9.754   0.981 -8.6075  1.4318  1.9029
  507MOL0     H66906  -0.344   9.615   1.299  3.3627 -1.0103  0.6529
  507MOL0     H66907  -0.150   9.747   1.260 -4.7533  0.8360  1.5709
  507MOL0     H66908   0.235   9.831   1.041 -2.2658  0.4808  2.2526
  507MOL0     H66909   0.439   9.980   1.008 -0.7318  1.7007  4.0429
  507MOL0     H66910   1.343  10.960   2.367  1.7438  0.4214  0.6448
  507MOL0     H66911   1.501  10.961   2.556  0.2269 -0.1164 -3.0553
  507MOL0     H66912   1.686  10.705   2.898 -0.2272  0.9185 -0.2396
  507MOL0     H66913   1.854  10.710   3.090  1.1083  0.1654 -0.3864
  507MOL0     H66914   1.960  10.720   3.409  0.1520  1.3718 -1.1137
  507MOL0     H66915   1.898  10.625   3.279 -0.3742  0.5197  0.1452
  507MOL0     H66916   1.790  10.659   3.555 -3.0680 -1.0581  0.6352
  507MOL0     H66917   1.683  10.609   3.419  1.2091 -1.4448 -2.4486
  507MOL0     H66918   1.927  10.476   3.516 -0.7833  1.4149  0.1398
  507MOL0     H66919   1.859  10.428   3.364  3.9519  0.1788  0.6079
  507MOL0     H66920   1.786  10.249   3.511  3.9018  1.5494 -1.3722
  507MOL0     H66921   1.751  10.365   3.647 -0.1614  1.3396 -1.1172
  507MOL0     H66922   1.397  10.388   3.431  0.3784  0.2319 -0.2553
  507MOL0     H66923   1.545  10.915   3.323  3.5254 -1.0609  3.0196
  507MOL0     H66924   1.396  10.917   3.133 -1.6601 -0.9209 -2.7582
  508MOL0     O66925   9.065   0.373   2.956 -0.7489 -0.4001  0.1688
  508MOL0     C66926   9.127   0.276   2.992  0.6066 -0.5653 -0.5410
  508MOL0     O66927   9.079   0.151   3.001 -0.7634  0.1342  0.1414
  508MOL0     C66928   8.953   0.120   2.972 -0.0580 -0.0942  0.3846
  508MOL0     C66929   8.839   0.188   3.011 -0.5243  0.2503 -0.4573
  508MOL0     C66930   8.711   0.144   2.983 -0.3914  0.6246  0.1118
  508MOL0     C66931   8.686   0.026   2.920  0.2268  0.5090  0.7907
  508MOL0     O66932   8.554   0.005   2.870  0.0832 -0.2889 -0.2116
  508MOL0     C66933   8.540  -0.064   2.746  0.4517 -0.6047 -0.6498
  508MOL0     C66934   8.384  -0.064   2.717  0.4649 -0.4715 -0.5078
  508MOL0     C66935   8.310   0.067   2.680 -0.8301  0.6300  0.8871
  508MOL0     C66936   8.160   0.060   2.712 -0.7893  0.2193  0.5231
  508MOL0     C66937   8.128   0.146   2.836  0.2762  0.1680 -0.8488
  508MOL0     C66938   7.984   0.137   2.898  0.2214 -0.4623 -0.0596
  508MOL0     C66939   7.943   0.001   2.943  0.0562  0.0672  0.1299
  508MOL0     C66940   7.813   0.002   3.023  0.1539  0.6278 -0.4106
  508MOL0     N66941   7.764  -0.132   3.054  0.4570  0.2186  0.2990
  508MOL0     C66942   7.631  -0.166   3.054 -0.2525  0.0236  0.4439
  508MOL0     C66943   7.625  -0.292   3.109  0.1218 -0.4152  0.2611
  508MOL0     C66944   7.498  -0.365   3.124 -0.4822  0.7929  0.1331
  508MOL0     C66945   7.449  -0.430   2.991 -1.1179 -1.1264 -0.5669
  508MOL0     C66946   7.332  -0.513   3.026 -0.6803  0.7281 -1.4505
  508MOL0     C66947   7.239  -0.545   2.914 -0.6842 -0.0697 -0.3581
  508MOL0     O66948   7.304  -0.612   2.811  0.5624 -0.3600 -0.2615
  508MOL0     C66949   7.324  -0.747   2.811 -0.5705  0.2802  0.1056
  508MOL0     C66950   7.389  -0.798   2.697  0.1795 -0.1580  0.3811
  508MOL0     C66951   7.410  -0.930   2.680  0.7634 -0.5118  0.7248
  508MOL0     C66952   7.360  -1.019   2.774  0.5300  0.2143  0.1224
  508MOL0     C66953   7.378  -1.156   2.735  1.4048  0.1135  0.1185
  508MOL0     O66954   7.379  -1.197   2.604  0.2806 -0.4073 -0.0969
  508MOL0     C66955   7.382  -1.331   2.585  0.1744 -0.6836  1.6583
  508MOL0     C66956   7.268  -1.418   2.604 -0.1307  0.0981  0.4737
  508MOL0     C66957   7.262  -1.555   2.560  0.1562  0.2082 -0.0684
  508MOL0     C66958   7.374  -1.612   2.495  0.7231 -0.1343 -0.2059
  508MOL0     O66959   7.390  -1.750   2.458  1.2439 -0.2423 -0.3697
  508MOL0     C66960   7.280  -1.837   2.499 -0.5533 -0.6649  0.4995
  508MOL0     C66961   7.333  -1.971   2.472  0.2770  0.2358  0.4095
  508MOL0     C66962   7.237  -2.078   2.517 -0.3833  0.3425  0.0601
  508MOL0     C66963   7.298  -2.224   2.518  0.3251 -0.4708 -0.3734
  508MOL0     C66964   7.179  -2.320   2.544 -1.1705  1.0665 -1.3970
  508MOL0     C66965   7.208  -2.466   2.540 -0.0947  0.4885 -0.0633
  508MOL0     C66966   7.321  -2.516   2.633 -0.2468  0.3131 -0.4270
  508MOL0     C66967   7.310  -2.670   2.659  0.3805  0.2916  0.1086
  508MOL0    Cl66968   7.312  -2.778   2.511 -0.0290 -0.3446  0.3008
  508MOL0     C66969   7.489  -1.535   2.491 -0.2447 -0.6412 -0.0610
  508MOL0     C66970   7.494  -1.396   2.524 -0.8009  0.1205 -0.3377
  508MOL0     O66971   7.367  -1.231   2.838 -0.2923 -0.2491  0.3559
  508MOL0     C66972   7.302  -0.972   2.894  0.4522 -0.0947 -0.1170
  508MOL0     C66973   7.285  -0.837   2.910 -0.1002 -0.5220  0.1100
  508MOL0     N66974   7.754  -0.336   3.133 -0.7562 -0.5330 -0.3743
  508MOL0     N66975   7.841  -0.231   3.112 -0.5070  0.3404 -0.1507
  508MOL0     C66976   8.804  -0.049   2.867 -0.1876 -1.2114 -1.1189
  508MOL0     C66977   8.937  -0.002   2.901  0.1907  0.6118 -0.2929
  508MOL0     C66978   9.270   0.289   3.012 -0.4552  0.5158  0.8062
  508MOL0     C66979   9.343   0.187   3.073  0.0925  0.1871  0.1816
  508MOL0     C66980   9.473   0.218   3.123  0.0354 -0.7112 -0.0919
  508MOL0     C66981   9.535   0.334   3.092 -1.6164 -0.0778 -0.6271
  508MOL0     O66982   9.672   0.329   3.134  0.6053 -0.2729 -0.6575
  508MOL0     C66983   9.753   0.442   3.123 -0.6108 -0.0047 -1.2498
  508MOL0     C66984   9.836   0.443   2.994 -1.0790 -0.5452  0.2507
  508MOL0     C66985   9.934   0.563   2.986  0.0158 -0.3999 -0.4188
  508MOL0     C66986   9.865   0.695   2.960  0.2544  0.1863  0.4014
  508MOL0     C66987   9.950   0.810   3.004 -0.4560  0.0145 -0.5547
  508MOL0     C66988  10.026   0.898   3.040 -0.1445  0.0043 -0.3660
  508MOL0     C66989   9.475   0.428   3.011  0.4418 -0.0996 -0.2832
  508MOL0     C66990   9.339   0.409   2.980  2.0318 -0.2536 -0.5566
  508MOL0     H66991   8.845   0.271   3.081  1.9984  0.9950 -1.4398
  508MOL0     H66992   8.619   0.195   3.007 -1.5126 -0.7762 -1.0218
  508MOL0     H66993   8.579  -0.166   2.748  1.8879 -0.0754  1.1260
  508MOL0     H66994   8.592  -0.009   2.667 -1.0175  0.6194 -0.8104
  508MOL0     H66995   8.335  -0.108   2.804  1.3082  0.8972  0.6902
  508MOL0     H66996   8.371  -0.136   2.635  1.9007 -1.2693 -0.0698
  508MOL0     H66997   8.325   0.087   2.573  0.8245  0.5629  1.0800
  508MOL0     H66998   8.354   0.148   2.738 -1.1597 -0.5180  2.8109
  508MOL0     H66999   8.100   0.093   2.627  1.2796  1.0213 -0.7085
  508MOL0     H67000   8.144  -0.044   2.742  0.3950  0.5241  2.4412
  508MOL0     H67001   8.136   0.251   2.803 -3.1450  1.0323  0.6200
  508MOL0     H67002   8.204   0.148   2.915  1.3057 -1.8881 -1.7157
  508MOL0     H67003   7.926   0.175   2.813  2.0309 -0.1110 -1.2004
  508MOL0     H67004   7.961   0.214   2.972  0.4425  0.6697 -1.1217
  508MOL0     H67005   7.926  -0.067   2.858  2.0860 -2.9290  1.9301
  508MOL0     H67006   8.013  -0.042   3.016 -1.9863 -2.1288  0.9341
  508MOL0     H67007   7.737   0.045   2.959 -1.5781 -2.4200 -0.6000
  508MOL0     H67008   7.825   0.066   3.111 -0.2233 -0.0115  0.1173
  508MOL0     H67009   7.546  -0.105   3.022  0.7658  1.0532 -0.3756
  508MOL0     H67010   7.418  -0.302   3.163  1.0920  1.5945  2.2249
  508MOL0     H67011   7.517  -0.449   3.191  0.0267  0.9337  0.1658
  508MOL0     H67012   7.524  -0.495   2.945  0.3625  0.0680  0.0792
  508MOL0     H67013   7.411  -0.353   2.923 -2.1217 -0.0814  1.0990
  508MOL0     H67014   7.372  -0.601   3.078 -2.7876  0.5599 -0.0278
  508MOL0     H67015   7.267  -0.466   3.100 -0.8820  0.0882 -1.2205
  508MOL0     H67016   7.196  -0.451   2.878 -2.4705 -0.6175  0.2450
  508MOL0     H67017   7.149  -0.599   2.945 -0.4384 -1.4868 -1.9803
  508MOL0     H67018   7.411  -0.728   2.617 -3.2683  0.1646 -0.4465
  508MOL0     H67019   7.455  -0.974   2.592  0.1455 -1.1926  0.7406
  508MOL0     H67020   7.178  -1.387   2.657 -0.1953 -1.2856  1.2186
  508MOL0     H67021   7.168  -1.606   2.577  0.1045  0.4157  0.2893
  508MOL0     H67022   7.191  -1.826   2.435  0.6226 -0.3941 -1.1673
  508MOL0     H67023   7.249  -1.828   2.603 -4.2910 -1.9713 -0.3450
  508MOL0     H67024   7.419  -1.988   2.538  2.3364  0.5401 -2.0395
  508MOL0     H67025   7.367  -1.977   2.368 -2.0560 -1.8173 -0.3369
  508MOL0     H67026   7.149  -2.085   2.452 -0.1420  1.7208 -0.4561
  508MOL0     H67027   7.191  -2.061   2.614 -0.5415 -0.8611  0.2131
  508MOL0     H67028   7.358  -2.253   2.431  0.5630  1.7329 -0.9991
  508MOL0     H67029   7.369  -2.225   2.601  0.3914 -0.1661 -0.4267
  508MOL0     H67030   7.096  -2.300   2.475 -1.0990 -0.1739 -1.8621
  508MOL0     H67031   7.137  -2.291   2.641  0.6233  3.2636 -1.1822
  508MOL0     H67032   7.247  -2.493   2.442  2.1637 -1.0708  1.1769
  508MOL0     H67033   7.116  -2.525   2.551 -2.4035  3.4048 -2.0488
  508MOL0     H67034   7.416  -2.499   2.581  0.3908  1.4337  1.0678
  508MOL0     H67035   7.319  -2.461   2.727 -0.4170 -0.9507  0.3351
  508MOL0     H67036   7.217  -2.675   2.716  1.2783  0.1932  1.6273
  508MOL0     H67037   7.390  -2.698   2.728  0.5200  0.4819  0.0250
  508MOL0     H67038   7.584  -1.571   2.455  0.7611 -1.6251  3.2190
  508MOL0     H67039   7.578  -1.328   2.519  1.3947 -2.4134 -0.7927
  508MOL0     H67040   7.286  -1.048   2.970 -1.0806  2.1150  1.8856
  508MOL0     H67041   7.248  -0.800   3.005 -4.4875 -0.8169 -1.2962
  508MOL0     H67042   8.817  -0.127   2.793 -0.8572 -0.6716 -1.8194
  508MOL0     H67043   9.030  -0.044   2.863 -2.0601 -1.2731 -4.4494
  508MOL0     H67044   9.295   0.094   3.099 -1.0678  0.5823 -0.4901
  508MOL0     H67045   9.536   0.146   3.174 -0.0557 -2.2979 -2.1058
  508MOL0     H67046   9.833   0.437   3.197  1.3115  0.0731 -3.2209
  508MOL0     H67047   9.697   0.535   3.135  0.3062  0.2272  2.9797
  508MOL0     H67048   9.887   0.346   2.986 -2.7632 -1.2986 -3.1192
  508MOL0     H67049   9.758   0.444   2.918 -1.5625  0.6396  0.7442
  508MOL0     H67050  10.007   0.557   2.905  1.3297 -1.8977  0.8088
  508MOL0     H67051   9.977   0.574   3.085 -4.2887  3.6434  1.3769
  508MOL0     H67052   9.846   0.732   2.858  0.5157 -0.7192  0.0145
  508MOL0     H67053   9.772   0.701   3.016 -0.1036 -0.4096 -0.1216
  508MOL0     H67054  10.108   0.966   3.052  0.3295 -0.4865 -0.7339
  508MOL0     H67055   9.536   0.513   2.980 -1.7423  0.6276 -3.0488
  508MOL0     H67056   9.273   0.478   2.929 -2.3320 -4.2721 -1.0108
  509MOL0     O67057   1.750   2.063   0.703 -0.2742  0.1612 -0.2156
  509MOL0     C67058   1.763   2.039   0.826 -0.0796  0.2119  0.2470
  509MOL0     O67059   1.787   1.917   0.877  0.2968 -0.1615  0.4124
  509MOL0     C67060   1.822   1.823   0.781 -0.4685 -0.4636 -0.1752
  509MOL0     C67061   1.945   1.752   0.801 -0.1267 -0.0477  0.3923
  509MOL0     C67062   1.987   1.645   0.716  0.1788 -0.4067  0.1079
  509MOL0     C67063   1.904   1.606   0.607  0.2811 -0.0581 -0.4452
  509MOL0     O67064   1.946   1.517   0.516 -0.4642 -0.7379  0.6233
  509MOL0     C67065   2.078   1.489   0.489 -0.1023  0.8759 -0.8387
  509MOL0     C67066   2.073   1.395   0.371 -0.0113  0.3592  0.2874
  509MOL0     C67067   2.062   1.474   0.233 -0.6845  0.6566 -0.7755
  509MOL0     C67068   2.084   1.363   0.121 -0.4185 -0.2267  0.4104
  509MOL0     C67069   2.080   1.434  -0.017 -1.0952  0.4707 -0.9132
  509MOL0     C67070   2.095   1.322  -0.119 -1.1610  0.4054  0.2077
  509MOL0     C67071   2.111   1.386  -0.259 -0.3652  0.1946 -0.7281
  509MOL0     C67072   2.080   1.298  -0.386  0.3912 -0.6762  0.7091
  509MOL0     N67073   2.105   1.357  -0.517  0.3308 -0.3565 -0.1715
  509MOL0     C67074   2.195   1.453  -0.545 -0.7265  0.1328 -0.2542
  509MOL0     C67075   2.168   1.498  -0.670  0.0959 -0.4551 -0.5064
  509MOL0     C67076   2.232   1.619  -0.744  0.9055 -0.3365 -0.3424
  509MOL0     C67077   2.383   1.616  -0.735  0.3489 -0.3789 -0.3651
  509MOL0     C67078   2.444   1.717  -0.642  0.4401 -0.0290  0.1226
  509MOL0     C67079   2.590   1.729  -0.665  0.3494 -0.8973  0.5349
  509MOL0     O67080   2.659   1.863  -0.646  0.6867  0.9559  0.3300
  509MOL0     C67081   2.790   1.856  -0.667 -0.5005 -0.0714 -0.0786
  509MOL0     C67082   2.835   1.956  -0.746  0.5291  0.2891 -0.4510
  509MOL0     C67083   2.958   1.967  -0.785 -0.3956  1.0008  0.0879
  509MOL0     C67084   3.050   1.862  -0.744  0.1962 -0.6514  1.4886
  509MOL0     C67085   3.199   1.874  -0.778 -0.2985  1.0220  0.1284
  509MOL0     O67086   3.279   1.758  -0.764 -0.0114 -0.2952  0.2954
  509MOL0     C67087   3.415   1.762  -0.770 -0.0704  0.5447 -0.1257
  509MOL0     C67088   3.486   1.708  -0.661  0.0364  0.7029 -0.1056
  509MOL0     C67089   3.624   1.698  -0.662 -0.0725  0.9230 -0.2245
  509MOL0     C67090   3.705   1.743  -0.765 -0.5038 -0.0978  0.8987
  509MOL0     O67091   3.842   1.745  -0.773  0.1733 -0.4475  0.5449
  509MOL0     C67092   3.901   1.623  -0.834  0.2471  0.2804 -0.2251
  509MOL0     C67093   3.890   1.609  -0.991 -0.1714 -0.0603  0.1066
  509MOL0     C67094   3.932   1.733  -1.074 -1.4992  0.2713 -0.4100
  509MOL0     C67095   4.083   1.709  -1.108 -0.1043 -0.4926  0.2472
  509MOL0     C67096   4.128   1.849  -1.146 -0.3011  0.8841  0.2665
  509MOL0     C67097   4.286   1.849  -1.146 -0.5611 -0.1083 -0.0393
  509MOL0     C67098   4.327   1.996  -1.151  0.9101 -0.9925  0.0413
  509MOL0     C67099   4.475   2.020  -1.168  0.3520  0.5825 -0.8136
  509MOL0    Cl67100   4.535   1.982  -1.336  0.0771 -0.5395 -0.3233
  509MOL0     C67101   3.632   1.809  -0.871 -0.8172  1.2278 -0.2670
  509MOL0     C67102   3.493   1.820  -0.876  0.5969  0.0086 -0.5337
  509MOL0     O67103   3.242   1.976  -0.831  0.5879 -0.5694 -0.2865
  509MOL0     C67104   3.001   1.752  -0.666  0.2041  0.5856  0.0168
  509MOL0     C67105   2.874   1.752  -0.622  0.9688 -0.0238  0.1959
  509MOL0     N67106   2.045   1.445  -0.713  0.0196 -0.0435 -0.2390
  509MOL0     N67107   2.018   1.354  -0.625  0.1353  0.2733 -0.0400
  509MOL0     C67108   1.781   1.666   0.597 -1.2058 -0.6117 -0.2506
  509MOL0     C67109   1.742   1.781   0.676 -0.3147 -0.1129  0.6292
  509MOL0     C67110   1.711   2.136   0.922 -0.4891 -0.1873  1.0813
  509MOL0     C67111   1.671   2.267   0.882 -0.9706 -0.3888 -0.4153
  509MOL0     C67112   1.611   2.359   0.966  0.2253 -0.4603 -0.0540
  509MOL0     C67113   1.579   2.307   1.095  0.1411 -0.3887  0.3162
  509MOL0     O67114   1.530   2.412   1.165 -0.7595  0.3211  0.6285
  509MOL0     C67115   1.544   2.410   1.312 -0.2769  0.2251 -0.1157
  509MOL0     C67116   1.568   2.538   1.396 -0.2464  0.8148 -0.3013
  509MOL0     C67117   1.614   2.670   1.329 -0.1974 -0.0488  0.1212
  509MOL0     C67118   1.699   2.762   1.417 -0.2035 -0.1410  0.0888
  509MOL0     C67119   1.620   2.802   1.534  1.1001 -0.3140  1.0472
  509MOL0     C67120   1.559   2.849   1.625  1.0478 -0.8138  1.0832
  509MOL0     C67121   1.621   2.179   1.139  0.1399  0.8067 -0.6894
  509MOL0     C67122   1.689   2.099   1.054  0.4211 -0.6223  0.4156
  509MOL0     H67123   2.018   1.797   0.867  0.0969 -0.1568  0.2225
  509MOL0     H67124   2.071   1.580   0.738 -2.9969 -4.7849  0.7454
  509MOL0     H67125   2.124   1.438   0.574  2.1863  0.3367 -2.3333
  509MOL0     H67126   2.144   1.575   0.474  1.5357 -0.3367 -0.7914
  509MOL0     H67127   1.987   1.328   0.374  2.0417 -2.4279  1.4389
  509MOL0     H67128   2.163   1.333   0.379 -2.7157 -4.0061  0.4468
  509MOL0     H67129   2.138   1.552   0.244 -0.6602  0.3214  2.1295
  509MOL0     H67130   1.978   1.541   0.218  0.0042  1.3478 -1.7088
  509MOL0     H67131   2.184   1.320   0.132 -0.6557 -0.3912  2.3916
  509MOL0     H67132   2.015   1.278   0.122 -0.3375 -0.2905  1.1014
  509MOL0     H67133   2.156   1.511  -0.027  0.6029 -1.2308 -1.7242
  509MOL0     H67134   1.982   1.482  -0.026 -0.7616  0.9677 -2.1682
  509MOL0     H67135   2.017   1.247  -0.130 -1.4239  0.9592 -2.2314
  509MOL0     H67136   2.189   1.268  -0.101 -1.0417  0.8600  1.0129
  509MOL0     H67137   2.055   1.478  -0.281 -0.3640  0.2648 -0.4376
  509MOL0     H67138   2.212   1.429  -0.267 -0.7416  1.4710  0.8673
  509MOL0     H67139   1.972   1.286  -0.398  0.5609 -0.7656 -1.0610
  509MOL0     H67140   2.134   1.203  -0.376 -0.3597 -1.0159  1.6643
  509MOL0     H67141   2.262   1.493  -0.468 -0.3065 -0.0229 -0.5347
  509MOL0     H67142   2.203   1.714  -0.700  0.1223 -0.2464 -1.0355
  509MOL0     H67143   2.190   1.611  -0.845 -2.2822 -1.2270  0.9544
  509MOL0     H67144   2.417   1.626  -0.839  3.0798  1.1471  0.5882
  509MOL0     H67145   2.422   1.521  -0.699  0.8955 -0.6066 -1.5057
  509MOL0     H67146   2.411   1.817  -0.672  1.0896 -0.2411 -1.3560
  509MOL0     H67147   2.414   1.690  -0.540 -1.4885  2.0749  0.2033
  509MOL0     H67148   2.592   1.715  -0.773  1.4060 -0.7158  0.5174
  509MOL0     H67149   2.644   1.653  -0.607  0.3419 -0.9952  0.4140
  509MOL0     H67150   2.760   2.024  -0.785 -0.7972  1.9319  4.2891
  509MOL0     H67151   2.994   2.052  -0.842  2.4355 -0.3274 -0.3146
  509MOL0     H67152   3.424   1.681  -0.576 -3.0312 -1.1469 -2.7037
  509MOL0     H67153   3.674   1.666  -0.571  1.2268  2.1507 -0.4615
  509MOL0     H67154   3.854   1.539  -0.782 -0.2557  0.8901  0.3233
  509MOL0     H67155   4.010   1.612  -0.825  0.6849  2.7751 -1.7140
  509MOL0     H67156   3.790   1.578  -1.021  0.1924 -0.9524 -0.2155
  509MOL0     H67157   3.945   1.522  -1.029 -1.4083 -0.2142 -1.4101
  509MOL0     H67158   3.929   1.821  -1.010  1.1964  1.8334 -2.2570
  509MOL0     H67159   3.868   1.753  -1.160 -0.8342 -0.6660 -1.1537
  509MOL0     H67160   4.145   1.680  -1.022  1.4663  0.3579 -0.5523
  509MOL0     H67161   4.103   1.633  -1.184  2.7701 -0.2313  0.6207
  509MOL0     H67162   4.084   1.924  -1.078  3.4298  0.9343  2.9387
  509MOL0     H67163   4.106   1.874  -1.250  0.6581  1.2050  0.1242
  509MOL0     H67164   4.332   1.798  -1.231  0.6366 -2.1671  1.7164
  509MOL0     H67165   4.329   1.798  -1.059  1.8640  1.7102 -0.0518
  509MOL0     H67166   4.270   2.048  -1.228 -2.0436 -1.2634  1.8877
  509MOL0     H67167   4.298   2.039  -1.055 -0.1864 -0.0753 -0.6824
  509MOL0     H67168   4.519   1.942  -1.104  4.3127  2.9895 -0.2475
  509MOL0     H67169   4.506   2.118  -1.129  1.1630  0.4108 -0.9944
  509MOL0     H67170   3.688   1.861  -0.948 -0.8395  3.5516  1.2044
  509MOL0     H67171   3.443   1.870  -0.958  0.1651  1.9141  0.8145
  509MOL0     H67172   3.062   1.665  -0.646 -2.3342 -1.2670  0.0968
  509MOL0     H67173   2.828   1.692  -0.544 -1.4840  3.0783  1.3580
  509MOL0     H67174   1.729   1.620   0.514 -1.4044 -0.6319 -0.1145
  509MOL0     H67175   1.653   1.838   0.653  0.0181  0.6129  1.0907
  509MOL0     H67176   1.692   2.293   0.779 -0.8012 -3.3813 -1.2121
  509MOL0     H67177   1.594   2.463   0.940  1.6465  0.0628  0.9631
  509MOL0     H67178   1.638   2.360   1.336 -0.5615 -1.5372 -2.2441
  509MOL0     H67179   1.460   2.358   1.359  1.3749 -0.6087  2.0879
  509MOL0     H67180   1.483   2.562   1.460 -2.0671  1.0797 -2.6743
  509MOL0     H67181   1.653   2.518   1.462  1.1713 -0.0872 -2.2703
  509MOL0     H67182   1.526   2.728   1.302 -1.9546 -1.6078  2.1809
  509MOL0     H67183   1.666   2.653   1.234  1.9347 -0.6636  1.3394
  509MOL0     H67184   1.796   2.715   1.435 -0.8846 -1.7253 -0.2747
  509MOL0     H67185   1.720   2.856   1.365 -2.1025  1.3809  1.8924
  509MOL0     H67186   1.489   2.875   1.703  1.9189  1.4963  1.1777
  509MOL0     H67187   1.599   2.131   1.234  0.9340  2.9000  0.6447
  509MOL0     H67188   1.707   1.998   1.089 -2.5397 -0.5746  2.4380
  510MOL0     O67189   8.433   5.895   8.717  0.1422 -0.6182  0.0160
  510MOL0     C67190   8.424   5.957   8.606 -0.5676 -0.0103  0.2603
  510MOL0     O67191   8.530   6.023   8.540  0.6044 -0.0828  1.7311
  510MOL0     C67192   8.654   6.003   8.595 -0.4028  0.3608 -0.8027
  510MOL0     C67193   8.727   6.118   8.624 -0.5225  0.7487  0.0374
  510MOL0     C67194   8.850   6.113   8.689 -0.0257 -0.2103  0.1923
  510MOL0     C67195   8.920   5.994   8.707  0.3963 -0.6306  0.1382
  510MOL0     O67196   9.043   5.988   8.765  0.6320  0.6514 -0.5627
  510MOL0     C67197   9.133   5.882   8.742 -0.4514  0.0693  0.1103
  510MOL0     C67198   9.269   5.919   8.799 -0.6675 -0.0310 -0.0701
  510MOL0     C67199   9.315   6.051   8.735  1.3852 -0.7798  0.4548
  510MOL0     C67200   9.452   6.099   8.783  0.1972  0.6592  0.7112
  510MOL0     C67201   9.560   5.972   8.782 -0.5044 -0.0708 -0.2909
  510MOL0     C67202   9.707   6.038   8.807  0.1404 -0.0131 -0.0575
  510MOL0     C67203   9.793   5.928   8.856  0.2807 -1.0528 -0.4662
  510MOL0     C67204   9.927   6.010   8.903 -0.0464  0.2882 -0.6428
  510MOL0     N67205  10.002   6.079   8.793 -0.2366  0.7993 -0.2311
  510MOL0     C67206  10.059   6.022   8.683 -0.2368 -0.8419 -0.6470
  510MOL0     C67207  10.095   6.134   8.614 -0.4200  0.8325  0.3348
  510MOL0     C67208  10.145   6.131   8.474  0.5836 -0.9577 -0.1749
  510MOL0     C67209  10.295   6.148   8.461  0.6281 -0.0277 -0.4659
  510MOL0     C67210  10.353   6.128   8.320 -0.0944  0.3369 -0.3824
  510MOL0     C67211  10.503   6.169   8.334  0.7760  0.4518 -0.5443
  510MOL0     O67212  10.573   6.086   8.428  0.1929  0.3054 -0.6138
  510MOL0     C67213  10.689   6.133   8.482  0.9618 -0.2478  1.2694
  510MOL0     C67214  10.761   6.247   8.439 -0.5498  0.0602  0.1371
  510MOL0     C67215  10.889   6.273   8.504  0.0460 -0.1907  0.5074
  510MOL0     C67216  10.937   6.203   8.619  0.3425  0.4720  0.0200
  510MOL0     C67217  11.064   6.238   8.681  0.1918 -0.7756 -0.5641
  510MOL0     O67218  11.113   6.160   8.784  0.4257 -0.5176 -0.6025
  510MOL0     C67219  11.242   6.163   8.837 -0.5360  0.8230  0.0272
  510MOL0     C67220  11.339   6.250   8.814  0.6364 -0.9269 -1.7804
  510MOL0     C67221  11.455   6.245   8.898  1.2205  0.9005  0.1880
  510MOL0     C67222  11.470   6.149   8.998 -0.4553 -0.0959  0.0029
  510MOL0     O67223  11.581   6.163   9.070  0.2719  0.3254  1.5520
  510MOL0     C67224  11.668   6.047   9.107 -0.7018 -1.0454  0.2170
  510MOL0     C67225  11.803   6.090   9.161 -0.4023 -0.7196  0.4188
  510MOL0     C67226  11.899   5.970   9.166 -0.9052 -0.5123  0.0707
  510MOL0     C67227  12.046   6.017   9.171 -0.4973  1.3107 -0.3381
  510MOL0     C67228  12.134   5.900   9.150  0.5207 -0.1746 -0.0133
  510MOL0     C67229  12.141   5.794   9.260 -0.6457 -1.2171 -0.3549
  510MOL0     C67230  12.245   5.685   9.249  0.1563 -0.1649 -1.0512
  510MOL0     C67231  12.386   5.725   9.211  0.1134  0.3009 -0.1714
  510MOL0    Cl67232  12.445   5.861   9.316 -0.4491 -0.0301 -0.1767
  510MOL0     C67233  11.367   6.065   9.029 -0.1486  0.0851  0.5084
  510MOL0     C67234  11.259   6.062   8.934  0.0668 -0.3342 -0.0115
  510MOL0     O67235  11.125   6.328   8.623  0.1066 -0.1773  0.1696
  510MOL0     C67236  10.859   6.086   8.648  0.3103 -0.5439  0.1119
  510MOL0     C67237  10.746   6.050   8.580  0.4914 -0.4492  0.1529
  510MOL0     N67238  10.091   6.241   8.687  0.8237 -1.1203  0.6519
  510MOL0     N67239  10.037   6.211   8.802 -0.2794 -0.8062  0.1067
  510MOL0     C67240   8.840   5.882   8.688  0.6182  0.3417 -0.4997
  510MOL0     C67241   8.712   5.875   8.634  0.8086 -0.5075 -0.9904
  510MOL0     C67242   8.292   5.973   8.545  0.1981 -0.4294  0.5034
  510MOL0     C67243   8.182   5.927   8.623 -0.2967 -0.8889  0.4231
  510MOL0     C67244   8.053   5.967   8.585  0.3050 -0.6241 -1.3111
  510MOL0     C67245   8.030   6.046   8.476  0.5003 -0.2927  0.0409
  510MOL0     O67246   7.902   6.085   8.453  0.0245 -0.4058 -0.6412
  510MOL0     C67247   7.857   6.089   8.317  0.4811  0.0961  0.5139
  510MOL0     C67248   7.707   6.118   8.313 -0.3613 -0.4900 -0.1738
  510MOL0     C67249   7.617   5.999   8.349 -0.4916  0.6634  0.4474
  510MOL0     C67250   7.648   5.951   8.498  0.2576 -0.0506  0.1344
  510MOL0     C67251   7.526   5.890   8.557  0.0414 -0.2115  0.3289
  510MOL0     C67252   7.428   5.832   8.611  0.3637  0.1247 -0.1048
  510MOL0     C67253   8.140   6.083   8.394  0.4853 -0.3125 -0.7935
  510MOL0     C67254   8.266   6.054   8.431  0.1095 -0.5393  0.4350
  510MOL0     H67255   8.680   6.205   8.579  0.0488  0.6811 -0.7192
  510MOL0     H67256   8.902   6.204   8.718  1.3547 -1.1452  0.7732
  510MOL0     H67257   9.143   5.870   8.634  0.9486 -0.8421  0.3256
  510MOL0     H67258   9.085   5.792   8.781 -1.0795 -0.2983 -1.4402
  510MOL0     H67259   9.341   5.840   8.777 -0.8732 -0.5657  1.1571
  510MOL0     H67260   9.246   5.938   8.904 -2.9412  3.2509 -0.9639
  510MOL0     H67261   9.243   6.128   8.764 -0.4747 -3.0766  2.3909
  510MOL0     H67262   9.321   6.032   8.628  0.4718 -1.4793  0.5107
  510MOL0     H67263   9.483   6.184   8.722 -2.3733  1.3343  0.2108
  510MOL0     H67264   9.443   6.139   8.884 -1.1523 -0.0363  0.9039
  510MOL0     H67265   9.553   5.905   8.696  1.0438  1.7659 -1.9373
  510MOL0     H67266   9.537   5.910   8.869 -0.6234 -2.1129 -1.7108
  510MOL0     H67267   9.684   6.113   8.884  0.4887  2.3131 -2.1028
  510MOL0     H67268   9.745   6.077   8.713  2.6662 -1.4294  0.2855
  510MOL0     H67269   9.732   5.877   8.931 -3.7499  2.6722 -0.7977
  510MOL0     H67270   9.809   5.858   8.774 -0.9072 -1.0834 -0.6957
  510MOL0     H67271   9.984   5.931   8.954  0.8755  0.5698 -1.2055
  510MOL0     H67272   9.896   6.082   8.980  0.2230 -1.0601  0.7853
  510MOL0     H67273  10.058   5.917   8.655 -0.5895 -0.8377 -0.6524
  510MOL0     H67274  10.098   6.216   8.422  0.7392 -2.0274 -2.1823
  510MOL0     H67275  10.101   6.039   8.433  1.9709 -1.5076 -0.4743
  510MOL0     H67276  10.343   6.079   8.531  1.9918  1.3545  0.0250
  510MOL0     H67277  10.300   6.252   8.495  1.5248  0.3298 -1.6516
  510MOL0     H67278  10.339   6.035   8.264  3.2562 -0.0555 -0.8028
  510MOL0     H67279  10.309   6.211   8.263  2.6414  2.5294  0.4409
  510MOL0     H67280  10.514   6.276   8.350  3.4040  0.4210 -1.5763
  510MOL0     H67281  10.555   6.158   8.238  2.6810  0.6637  0.4049
  510MOL0     H67282  10.731   6.307   8.354  1.3600 -1.5115 -1.7750
  510MOL0     H67283  10.940   6.352   8.451 -3.0448  1.0778 -0.8519
  510MOL0     H67284  11.317   6.327   8.741 -1.1349  1.3955  0.9541
  510MOL0     H67285  11.504   6.342   8.901 -1.1742  2.1830  2.7964
  510MOL0     H67286  11.681   5.978   9.023  0.4032  0.7651 -1.1793
  510MOL0     H67287  11.605   6.007   9.187 -0.3591 -1.5583  0.2358
  510MOL0     H67288  11.796   6.123   9.265  6.2523  1.2313  0.7665
  510MOL0     H67289  11.844   6.173   9.102  1.1342 -1.9964 -0.4066
  510MOL0     H67290  11.892   5.910   9.075  0.8933 -0.0363 -0.4017
  510MOL0     H67291  11.870   5.898   9.243 -2.9995 -0.3550 -0.5071
  510MOL0     H67292  12.070   6.092   9.095  3.9500  0.7856  0.2553
  510MOL0     H67293  12.071   6.056   9.270  2.5871  3.2218 -1.7400
  510MOL0     H67294  12.236   5.930   9.125 -0.3052  0.3499 -3.1490
  510MOL0     H67295  12.100   5.848   9.060 -1.8263 -0.6387  1.0731
  510MOL0     H67296  12.043   5.744   9.261 -0.8516 -0.8335  0.8526
  510MOL0     H67297  12.142   5.844   9.358 -0.1123 -0.1669 -0.8875
  510MOL0     H67298  12.244   5.626   9.341 -1.3184  0.8676 -0.3646
  510MOL0     H67299  12.210   5.621   9.168  0.7562  1.2856 -2.5178
  510MOL0     H67300  12.400   5.752   9.106  1.8418 -1.6259 -0.5148
  510MOL0     H67301  12.448   5.635   9.222  1.8090  1.3456 -0.7504
  510MOL0     H67302  11.382   5.994   9.109 -2.0076 -1.6078 -0.5255
  510MOL0     H67303  11.171   5.999   8.944  0.3301 -1.0593 -1.8712
  510MOL0     H67304  10.885   6.023   8.733  1.2665  0.3007  0.4651
  510MOL0     H67305  10.687   5.962   8.603 -2.9727  1.8231  0.8557
  510MOL0     H67306   8.889   5.795   8.730  1.9819  0.8885 -0.8778
  510MOL0     H67307   8.664   5.778   8.621  2.3259 -1.1181 -2.4530
  510MOL0     H67308   8.193   5.872   8.716 -0.8726  0.3723  1.2644
  510MOL0     H67309   7.969   5.923   8.637  1.6187 -1.6746  0.0209
  510MOL0     H67310   7.887   5.992   8.277  0.3668 -0.5801  1.9829
  510MOL0     H67311   7.904   6.166   8.255  1.4664  0.5293  1.7415
  510MOL0     H67312   7.677   6.204   8.373 -1.9169 -2.5622  2.2483
  510MOL0     H67313   7.688   6.148   8.210 -1.1794  3.4875  0.9903
  510MOL0     H67314   7.649   5.916   8.285  2.8376  0.7449  1.8051
  510MOL0     H67315   7.513   6.029   8.337 -0.0847  2.0376  0.2563
  510MOL0     H67316   7.722   5.871   8.497 -0.6137 -0.8935 -1.7572
  510MOL0     H67317   7.690   6.034   8.556  1.9289 -1.3389  0.8374
  510MOL0     H67318   7.344   5.787   8.660 -0.1603  2.6903  1.5426
  510MOL0     H67319   8.112   6.144   8.309  0.4535 -3.1146 -2.9257
  510MOL0     H67320   8.351   6.074   8.367 -1.0544 -2.9825 -2.0506
  511MOL0     O67321   3.534   0.330   6.996 -0.4281 -0.3008 -0.9858
  511MOL0     C67322   3.579   0.221   7.023 -0.8831 -0.2576 -0.1432
  511MOL0     O67323   3.510   0.118   7.087  0.8234 -0.2784  0.3701
  511MOL0     C67324   3.376   0.106   7.061 -0.3710 -0.4043  0.3243
  511MOL0     C67325   3.275   0.168   7.142  0.1480 -0.9033 -0.7878
  511MOL0     C67326   3.137   0.163   7.103  0.9123 -0.3892 -0.2965
  511MOL0     C67327   3.100   0.103   6.983 -0.7874 -0.3714  0.3354
  511MOL0     O67328   2.974   0.118   6.937 -0.1862 -0.0070  0.2445
  511MOL0     C67329   2.857   0.147   7.024 -0.4988 -0.3193  0.2320
  511MOL0     C67330   2.735   0.146   6.944  0.7453 -0.7393 -0.0708
  511MOL0     C67331   2.629   0.248   6.990  0.0259 -0.3921  0.6073
  511MOL0     C67332   2.494   0.195   6.945 -0.9343  0.3288  0.6513
  511MOL0     C67333   2.384   0.306   6.959  0.3810  0.2426 -0.6696
  511MOL0     C67334   2.399   0.434   6.884 -0.2056 -0.1629  0.1766
  511MOL0     C67335   2.272   0.516   6.916 -0.0709  0.2410 -0.4552
  511MOL0     C67336   2.276   0.653   6.847 -0.5820  0.3037 -0.1643
  511MOL0     N67337   2.370   0.749   6.909  0.7454  0.6888 -0.4312
  511MOL0     C67338   2.509   0.742   6.901  0.0956  0.5997 -0.7272
  511MOL0     C67339   2.544   0.833   6.995 -0.2312  0.3020 -0.6719
  511MOL0     C67340   2.688   0.871   7.045 -0.1771  0.1154 -0.5357
  511MOL0     C67341   2.703   0.980   7.154 -0.5201  0.6816 -0.0127
  511MOL0     C67342   2.833   0.970   7.224 -0.7427 -0.5493 -0.7232
  511MOL0     C67343   2.849   0.844   7.319 -0.5510 -1.0274 -0.2475
  511MOL0     O67344   2.910   0.876   7.444  0.3831 -0.1778  0.0218
  511MOL0     C67345   3.043   0.888   7.462 -0.0415 -0.7914  0.4116
  511MOL0     C67346   3.068   0.972   7.571  0.9966 -0.1375  0.4980
  511MOL0     C67347   3.191   0.996   7.612 -0.0536  1.0224  0.2693
  511MOL0     C67348   3.299   0.945   7.533  0.2085 -0.4815 -0.0390
  511MOL0     C67349   3.442   0.968   7.578  0.1145  0.1229 -1.0557
  511MOL0     O67350   3.536   0.882   7.527 -0.3097 -0.0466 -0.0234
  511MOL0     C67351   3.662   0.847   7.580  0.1273  0.2133  0.2646
  511MOL0     C67352   3.714   0.894   7.703 -0.3715 -1.5547 -0.4365
  511MOL0     C67353   3.845   0.846   7.738 -0.7725  0.5101 -0.0821
  511MOL0     C67354   3.919   0.750   7.673  0.2259 -0.0437  0.4015
  511MOL0     O67355   4.030   0.687   7.722  0.4583 -0.2560 -0.0986
  511MOL0     C67356   4.050   0.549   7.684  0.2773  0.5895 -0.3721
  511MOL0     C67357   4.181   0.542   7.596 -0.3025  0.4018 -0.5042
  511MOL0     C67358   4.226   0.391   7.576 -1.1477 -0.9857 -0.0414
  511MOL0     C67359   4.141   0.312   7.477 -0.0683  0.6949  0.9854
  511MOL0     C67360   4.205   0.180   7.449  0.5091  0.0879  0.4433
  511MOL0     C67361   4.214   0.085   7.573  1.0002  0.0596  0.1417
  511MOL0     C67362   4.238  -0.057   7.524  0.8864  0.5174 -0.3831
  511MOL0     C67363   4.237  -0.165   7.628 -0.1574 -0.0806 -0.2871
  511MOL0    Cl67364   4.075  -0.213   7.707  0.3315  0.3537  0.2649
  511MOL0     C67365   3.867   0.718   7.540 -0.0593  0.5258 -1.2745
  511MOL0     C67366   3.740   0.757   7.501  0.4676  0.1728  0.2312
  511MOL0     O67367   3.455   1.050   7.664  0.3152  0.0401  0.2540
  511MOL0     C67368   3.275   0.860   7.416  0.0893 -0.6335 -0.2182
  511MOL0     C67369   3.147   0.830   7.389  0.1082 -0.3720 -0.2298
  511MOL0     N67370   2.437   0.907   7.040  0.3539  0.8211 -0.3157
  511MOL0     N67371   2.337   0.851   6.989  0.5478 -0.0886  0.0105
  511MOL0     C67372   3.196   0.043   6.898  0.5066  0.4039  0.2616
  511MOL0     C67373   3.327   0.044   6.941 -0.2521  0.0054 -0.1174
  511MOL0     C67374   3.725   0.215   7.010 -0.2760 -0.3743  0.0227
  511MOL0     C67375   3.806   0.337   7.009  1.0964  0.6498  0.6851
  511MOL0     C67376   3.946   0.333   6.998 -0.1591  0.1835 -0.0937
  511MOL0     C67377   4.004   0.203   6.984 -0.4643 -0.3770  0.1704
  511MOL0     O67378   4.140   0.190   6.965  0.5669 -0.6971 -0.7713
  511MOL0     C67379   4.195   0.069   6.944  0.9109  0.2197  0.2717
  511MOL0     C67380   4.347   0.107   6.933 -0.2640 -0.3409  0.4889
  511MOL0     C67381   4.379   0.169   6.799 -0.1729 -0.2641 -0.6573
  511MOL0     C67382   4.519   0.218   6.788 -0.3932 -0.1685 -0.4239
  511MOL0     C67383   4.536   0.312   6.677 -0.3511 -0.5460 -0.1935
  511MOL0     C67384   4.557   0.393   6.588  0.7720  0.6950  0.2279
  511MOL0     C67385   3.929   0.084   7.002  0.2342  0.3293  0.4560
  511MOL0     C67386   3.789   0.089   7.011  0.1165 -0.5004  0.2356
  511MOL0     H67387   3.303   0.204   7.241 -2.1926 -0.9148 -0.0569
  511MOL0     H67388   3.073   0.214   7.174  3.1405  1.3669  0.5648
  511MOL0     H67389   2.873   0.250   7.057  0.2425 -0.4499  0.3024
  511MOL0     H67390   2.856   0.077   7.108  3.4390 -2.2585 -1.0801
  511MOL0     H67391   2.704   0.043   6.928  1.0769 -0.7377 -0.7436
  511MOL0     H67392   2.749   0.176   6.840  0.2064 -2.4751 -0.6630
  511MOL0     H67393   2.654   0.334   6.928  2.3213 -2.1309 -1.0502
  511MOL0     H67394   2.628   0.259   7.099 -0.3272 -4.2747  1.1202
  511MOL0     H67395   2.491   0.157   6.842  1.8913  0.0316  0.6139
  511MOL0     H67396   2.480   0.109   7.011  3.0365 -0.2563  0.9976
  511MOL0     H67397   2.374   0.334   7.064 -0.6433 -0.9572 -0.4163
  511MOL0     H67398   2.289   0.257   6.935  0.4691 -1.8480  2.6617
  511MOL0     H67399   2.428   0.412   6.781  0.8277 -0.7127  0.5716
  511MOL0     H67400   2.484   0.480   6.934 -0.3982  0.1887  0.1838
  511MOL0     H67401   2.185   0.462   6.876 -0.6718  1.3746 -0.7314
  511MOL0     H67402   2.264   0.531   7.024 -1.5559  3.5752 -0.8952
  511MOL0     H67403   2.175   0.695   6.855 -0.4404  0.9916 -1.5415
  511MOL0     H67404   2.303   0.635   6.742  1.6847  2.4771 -0.0739
  511MOL0     H67405   2.572   0.668   6.853 -0.4685 -0.9571  0.8214
  511MOL0     H67406   2.731   0.923   6.959 -0.2980 -0.2963 -0.8434
  511MOL0     H67407   2.747   0.781   7.065 -1.4470 -0.3013  1.7890
  511MOL0     H67408   2.618   0.963   7.221 -0.3115  0.8964  0.3032
  511MOL0     H67409   2.692   1.082   7.116 -1.6202  0.1070 -1.3257
  511MOL0     H67410   2.925   0.970   7.163  0.1712 -3.4796  0.4858
  511MOL0     H67411   2.840   1.054   7.293  0.8031 -2.3569  1.4600
  511MOL0     H67412   2.910   0.770   7.267  3.5262  1.3607  0.6970
  511MOL0     H67413   2.750   0.805   7.341 -0.1859 -2.0379 -0.3276
  511MOL0     H67414   2.996   1.023   7.634  0.9404  3.0802 -1.9084
  511MOL0     H67415   3.212   1.054   7.701  3.0695 -0.9278  0.9946
  511MOL0     H67416   3.660   0.969   7.760  0.2972 -1.5659  0.2239
  511MOL0     H67417   3.866   0.880   7.839 -0.2970 -2.0636  0.7613
  511MOL0     H67418   3.965   0.506   7.630 -1.1787  1.6773  0.9599
  511MOL0     H67419   4.049   0.492   7.777 -0.4567 -1.3047 -1.4907
  511MOL0     H67420   4.251   0.609   7.648 -1.6556  1.9925 -0.6457
  511MOL0     H67421   4.149   0.584   7.501 -0.6087  2.8644  0.6132
  511MOL0     H67422   4.214   0.338   7.671 -0.6069  0.2870  0.7569
  511MOL0     H67423   4.330   0.390   7.542  0.3741 -1.6738  4.1052
  511MOL0     H67424   4.034   0.318   7.496 -0.3532  0.0440 -0.2860
  511MOL0     H67425   4.147   0.353   7.375  0.1563 -0.6136  0.4501
  511MOL0     H67426   4.310   0.190   7.418 -0.3607  3.8529 -1.8961
  511MOL0     H67427   4.147   0.135   7.369  0.9408 -0.6625  0.5413
  511MOL0     H67428   4.119   0.088   7.628 -0.2788  3.1762 -1.9779
  511MOL0     H67429   4.300   0.109   7.635  1.4584 -1.1418  0.0077
  511MOL0     H67430   4.158  -0.091   7.457 -2.2585 -0.3859  3.4170
  511MOL0     H67431   4.338  -0.059   7.480  1.1764 -0.5309  0.2966
  511MOL0     H67432   4.305  -0.130   7.707 -1.7045  2.1875  0.1367
  511MOL0     H67433   4.284  -0.251   7.580 -0.0050  1.4462 -3.0877
  511MOL0     H67434   3.914   0.639   7.482 -0.6089  0.1740 -1.2455
  511MOL0     H67435   3.707   0.726   7.402  0.0056 -0.8065  0.6765
  511MOL0     H67436   3.360   0.818   7.364 -0.4005 -2.3733  0.3085
  511MOL0     H67437   3.117   0.759   7.312  1.8686 -1.8530  0.3871
  511MOL0     H67438   3.171  -0.004   6.803  3.1511 -2.3632  0.7871
  511MOL0     H67439   3.406   0.015   6.872 -1.0282 -2.8713  0.0768
  511MOL0     H67440   3.761   0.434   7.025 -3.5633 -1.5286  2.8586
  511MOL0     H67441   4.014   0.417   7.005 -2.1965  1.9765 -0.8558
  511MOL0     H67442   4.167   0.012   6.856 -0.2595  0.1403  0.6783
  511MOL0     H67443   4.180   0.001   7.028  2.3657 -0.3553  0.0859
  511MOL0     H67444   4.367   0.165   7.024 -0.2285  0.0906  0.2039
  511MOL0     H67445   4.393   0.008   6.947 -0.0799 -0.4267 -0.6752
  511MOL0     H67446   4.304   0.249   6.795 -1.4447 -1.4409 -1.9180
  511MOL0     H67447   4.357   0.102   6.715 -0.8056 -1.1538  0.1889
  511MOL0     H67448   4.548   0.261   6.884  2.4058 -2.9525  0.1399
  511MOL0     H67449   4.586   0.132   6.778 -0.7071 -0.2400 -2.1933
  511MOL0     H67450   4.578   0.463   6.510 -3.9289  1.9043 -0.2574
  511MOL0     H67451   3.962  -0.019   6.997 -0.7518  0.0604 -1.9620
  511MOL0     H67452   3.737  -0.003   7.031 -3.4886  2.0940  4.5268
  512MOL0     O67453   8.881   0.700  10.380  0.0972  0.3326 -0.6211
  512MOL0     C67454   8.877   0.729  10.259 -0.1008  0.5362  0.9528
  512MOL0     O67455   8.767   0.779  10.198 -0.8845 -0.1308 -0.6184
  512MOL0     C67456   8.648   0.794  10.265 -0.0407  0.8141 -0.2445
  512MOL0     C67457   8.625   0.829  10.400 -0.1541  0.2522  0.2838
  512MOL0     C67458   8.499   0.872  10.445  0.6972  0.3436 -0.2466
  512MOL0     C67459   8.389   0.871  10.362 -0.6240  0.5312 -0.0310
  512MOL0     O67460   8.259   0.893  10.406 -0.2870  0.1500 -0.1392
  512MOL0     C67461   8.185   0.766  10.426 -0.0757 -1.0286 -1.1544
  512MOL0     C67462   8.042   0.790  10.462  0.3551  0.5894  0.2496
  512MOL0     C67463   7.955   0.805  10.344 -0.4617  0.3916  0.6608
  512MOL0     C67464   7.816   0.777  10.386  0.3363  0.6432 -0.4327
  512MOL0     C67465   7.720   0.773  10.273 -0.3207  0.0782  0.7199
  512MOL0     C67466   7.748   0.684  10.151  0.3999  0.2076  0.8661
  512MOL0     C67467   7.715   0.537  10.160 -0.4443  0.3396  1.3470
  512MOL0     C67468   7.790   0.446  10.262  0.4638  0.3600  0.5678
  512MOL0     N67469   7.925   0.431  10.212  0.2182  0.2981 -0.5341
  512MOL0     C67470   7.964   0.330  10.132 -0.1010 -0.2974  0.5842
  512MOL0     C67471   8.101   0.323  10.161  0.1339 -0.2539 -0.3051
  512MOL0     C67472   8.191   0.216  10.110 -0.6532  0.2033  0.0092
  512MOL0     C67473   8.175   0.089  10.190 -0.9126 -0.2025 -0.1277
  512MOL0     C67474   8.097  -0.026  10.123 -1.0746  0.6117 -0.6051
  512MOL0     C67475   8.195  -0.117  10.048 -0.5936 -0.6943  0.1393
  512MOL0     O67476   8.271  -0.037   9.961  1.0284  0.6419 -0.2472
  512MOL0     C67477   8.406  -0.068   9.954 -1.1935  1.0306  1.2443
  512MOL0     C67478   8.450  -0.162   9.859  0.1027  0.1298 -0.1012
  512MOL0     C67479   8.581  -0.203   9.837  0.3764  0.6313 -0.5613
  512MOL0     C67480   8.675  -0.141   9.911  0.8545 -0.4489 -0.5167
  512MOL0     C67481   8.820  -0.156   9.881  1.2554  0.3795 -0.1166
  512MOL0     O67482   8.841  -0.273   9.817 -0.6188  1.0240 -0.6863
  512MOL0     C67483   8.972  -0.312   9.819  0.6396  0.6627 -0.6634
  512MOL0     C67484   9.011  -0.429   9.895  0.3628  0.2154 -0.0556
  512MOL0     C67485   9.135  -0.483   9.895  0.1674  1.2045 -0.1699
  512MOL0     C67486   9.230  -0.425   9.813 -0.0547 -0.0196  0.2546
  512MOL0     O67487   9.351  -0.480   9.805 -0.3416  0.3023  0.6577
  512MOL0     C67488   9.343  -0.613   9.769  0.6583  0.4257  0.2705
  512MOL0     C67489   9.484  -0.645   9.743 -0.8097  0.2449  0.1187
  512MOL0     C67490   9.509  -0.795   9.719 -1.0624 -1.2467  0.1058
  512MOL0     C67491   9.656  -0.842   9.696  0.0842 -0.7936 -0.5314
  512MOL0     C67492   9.708  -0.900   9.829 -0.7430  1.3442  0.0744
  512MOL0     C67493   9.851  -0.953   9.825  0.4483 -0.8118  0.3494
  512MOL0     C67494   9.952  -0.863   9.750 -0.4478 -0.7278  0.6061
  512MOL0     C67495  10.098  -0.890   9.791  0.3238  1.3987 -0.9301
  512MOL0    Cl67496  10.218  -0.802   9.699  0.7045 -0.5031 -0.0787
  512MOL0     C67497   9.198  -0.320   9.729 -0.3919  0.7448 -0.8720
  512MOL0     C67498   9.070  -0.260   9.737 -0.1061 -0.7229  0.8840
  512MOL0     O67499   8.902  -0.074   9.924 -0.2595  0.4150 -0.0519
  512MOL0     C67500   8.633  -0.060  10.024 -1.1120  0.0283 -0.5607
  512MOL0     C67501   8.507  -0.018  10.034  0.2997 -0.9317  0.8943
  512MOL0     N67502   8.134   0.433  10.241 -0.4296 -0.0841  0.6304
  512MOL0     N67503   8.032   0.488  10.278  0.9311 -1.2816  0.6929
  512MOL0     C67504   8.411   0.844  10.221 -0.0892 -0.8510  0.8372
  512MOL0     C67505   8.539   0.798  10.174  0.1892 -0.2703 -0.0295
  512MOL0     C67506   9.000   0.699  10.178  0.8766  0.7148  0.6133
  512MOL0     C67507   9.092   0.600  10.215 -0.6651 -0.4976 -0.0706
  512MOL0     C67508   9.223   0.586  10.149  0.6252 -0.3135 -0.0744
  512MOL0     C67509   9.259   0.684  10.059 -1.0744 -0.2557 -0.0071
  512MOL0     O67510   9.390   0.695  10.013 -0.3222 -0.1614  0.9092
  512MOL0     C67511   9.507   0.689  10.106  0.0387 -0.2551  0.5229
  512MOL0     C67512   9.630   0.617  10.044 -0.1664 -0.3195  0.1195
  512MOL0     C67513   9.707   0.709   9.951  0.1457 -0.4117 -0.6720
  512MOL0     C67514   9.832   0.640   9.901 -0.3989  0.7730  0.2836
  512MOL0     C67515   9.938   0.630  10.003 -0.2081 -0.3558 -0.2218
  512MOL0     C67516  10.029   0.631  10.079 -1.2166 -0.7745 -0.2551
  512MOL0     C67517   9.167   0.791  10.030 -0.5341  0.1554 -0.3369
  512MOL0     C67518   9.042   0.791  10.084  0.4770 -0.1780 -0.6492
  512MOL0     H67519   8.713   0.812  10.462 -2.0601 -3.3269  2.3132
  512MOL0     H67520   8.491   0.879  10.553 -1.0294 -0.2961 -0.3158
  512MOL0     H67521   8.242   0.710  10.501  1.2084  1.7940  0.1159
  512MOL0     H67522   8.188   0.699  10.339  0.0833 -0.0098 -1.9463
  512MOL0     H67523   8.038   0.872  10.535  3.1030  1.3373 -0.3103
  512MOL0     H67524   8.011   0.702  10.520  1.6106  0.4401  0.7380
  512MOL0     H67525   7.994   0.755  10.255  3.1622  0.2765  2.1204
  512MOL0     H67526   7.953   0.911  10.316 -2.0437 -0.4285 -2.7659
  512MOL0     H67527   7.799   0.684  10.443  1.0253 -0.8054 -2.4821
  512MOL0     H67528   7.783   0.858  10.452 -1.6467 -0.5805  0.1995
  512MOL0     H67529   7.722   0.871  10.225  1.8997 -1.2181 -2.1656
  512MOL0     H67530   7.615   0.752  10.297 -0.6030 -0.5833 -0.9210
  512MOL0     H67531   7.846   0.702  10.105  1.0517 -2.4422  1.0779
  512MOL0     H67532   7.685   0.717  10.069 -1.9266 -0.9667  2.0877
  512MOL0     H67533   7.606   0.524  10.157 -0.3245 -0.7085 -1.2656
  512MOL0     H67534   7.748   0.507  10.060 -0.0991  3.4974  0.3940
  512MOL0     H67535   7.727   0.357  10.252 -1.6698  1.9811 -1.6671
  512MOL0     H67536   7.776   0.497  10.358  0.7356  4.1614 -1.2398
  512MOL0     H67537   7.909   0.262  10.067  3.6487 -4.0872  0.9262
  512MOL0     H67538   8.294   0.251  10.123 -0.3611  0.3511 -2.2916
  512MOL0     H67539   8.176   0.195  10.004 -1.0385  0.8341 -0.0652
  512MOL0     H67540   8.116   0.118  10.277  1.6273  0.2284  1.5650
  512MOL0     H67541   8.272   0.050  10.222  0.7183  2.4091 -1.5299
  512MOL0     H67542   8.041  -0.091  10.191 -0.2606 -1.4448 -1.8291
  512MOL0     H67543   8.019   0.012  10.058 -0.0529  0.3897 -2.0170
  512MOL0     H67544   8.135  -0.197  10.001 -0.7291 -0.8187  0.5198
  512MOL0     H67545   8.258  -0.171  10.119 -1.8474 -1.2333  0.8924
  512MOL0     H67546   8.374  -0.202   9.793 -0.0753 -0.5914  0.5269
  512MOL0     H67547   8.595  -0.287   9.769 -1.9749 -0.6715  0.4440
  512MOL0     H67548   8.932  -0.476   9.953 -0.3924 -0.8476 -1.8668
  512MOL0     H67549   9.157  -0.574   9.950  1.1825  1.4440 -0.1659
  512MOL0     H67550   9.284  -0.624   9.677 -1.3553 -0.8169  1.6476
  512MOL0     H67551   9.299  -0.670   9.851 -1.6802  2.4460  0.5393
  512MOL0     H67552   9.539  -0.617   9.833 -2.5065  0.6929  1.0724
  512MOL0     H67553   9.527  -0.584   9.663  2.0395  0.8178  1.9325
  512MOL0     H67554   9.460  -0.818   9.624 -0.0167  1.9978 -1.3635
  512MOL0     H67555   9.464  -0.850   9.803  0.8059 -0.4356  1.7034
  512MOL0     H67556   9.658  -0.919   9.618 -0.0378  0.0861 -1.4131
  512MOL0     H67557   9.724  -0.759   9.675  1.3109 -1.7685 -0.5122
  512MOL0     H67558   9.643  -0.981   9.864 -1.8644  1.0228 -2.5308
  512MOL0     H67559   9.700  -0.828   9.910  0.3099 -0.6185  2.0434
  512MOL0     H67560   9.852  -1.042   9.761  3.2332  0.3104 -1.3592
  512MOL0     H67561   9.886  -0.985   9.923  2.4285  1.2404  0.3926
  512MOL0     H67562   9.942  -0.875   9.642 -0.4156 -0.6725  0.5969
  512MOL0     H67563   9.932  -0.756   9.764  2.1533  0.5222 -3.4398
  512MOL0     H67564  10.114  -0.998   9.793 -2.4337  0.9097 -0.4417
  512MOL0     H67565  10.101  -0.860   9.896 -7.9070 -3.0478  1.4356
  512MOL0     H67566   9.280  -0.284   9.667 -1.2059 -3.0483 -4.6288
  512MOL0     H67567   9.042  -0.182   9.667 -0.6787 -3.3979 -2.1441
  512MOL0     H67568   8.722  -0.020  10.072 -1.1222 -1.4854  0.8291
  512MOL0     H67569   8.487   0.067  10.100  1.3531  1.0628 -1.2405
  512MOL0     H67570   8.330   0.857  10.150  1.0144 -1.4431 -0.5950
  512MOL0     H67571   8.550   0.779  10.067  0.8761 -0.6275  0.1035
  512MOL0     H67572   9.079   0.536  10.302 -0.7686 -2.4248 -1.4535
  512MOL0     H67573   9.302   0.522  10.186 -0.8245 -1.3193  1.4736
  512MOL0     H67574   9.478   0.620  10.185  0.1196 -0.4927  0.3481
  512MOL0     H67575   9.539   0.785  10.147 -0.8912  0.5300 -0.5200
  512MOL0     H67576   9.698   0.604  10.129  0.0412 -1.5461 -0.2207
  512MOL0     H67577   9.602   0.519  10.006  0.1354  0.0660 -1.1396
  512MOL0     H67578   9.731   0.799  10.008  2.7506 -2.3364  1.5377
  512MOL0     H67579   9.642   0.746   9.871 -2.4402  0.8705  1.8316
  512MOL0     H67580   9.799   0.539   9.878  0.7164  0.4633 -0.0178
  512MOL0     H67581   9.880   0.670   9.807 -0.8626 -2.2238 -1.0335
  512MOL0     H67582  10.112   0.614  10.144 -3.2809 -1.8744  2.3113
  512MOL0     H67583   9.199   0.868   9.961 -0.6232  0.7568  0.2778
  512MOL0     H67584   8.981   0.875  10.054  3.6895  2.7490  0.3747
  513MOL0     O67585   1.687   6.841   7.048  0.3733 -0.0733  0.0555
  513MOL0     C67586   1.666   6.958   7.069 -0.3868 -0.5086 -0.1182
  513MOL0     O67587   1.732   7.041   7.159 -0.8491  0.5630  0.1947
  513MOL0     C67588   1.853   6.994   7.204  0.2116 -0.3494  0.5275
  513MOL0     C67589   1.966   7.032   7.134 -0.0228  0.5257 -0.2771
  513MOL0     C67590   2.091   6.977   7.189  0.3313 -0.4838  0.2290
  513MOL0     C67591   2.101   6.899   7.304  0.9603 -0.4764  1.3501
  513MOL0     O67592   2.217   6.867   7.359  0.7563 -0.1653 -0.2649
  513MOL0     C67593   2.349   6.886   7.303  1.0195 -0.0941 -0.5814
  513MOL0     C67594   2.455   6.838   7.400  0.0651  0.2334  0.4145
  513MOL0     C67595   2.459   6.902   7.542  0.7962  1.4035 -0.2702
  513MOL0     C67596   2.574   6.846   7.618 -0.1842  0.3504 -0.6558
  513MOL0     C67597   2.607   6.931   7.743  0.3185 -0.2028  0.3140
  513MOL0     C67598   2.675   6.856   7.861  0.5195 -0.0590  0.3904
  513MOL0     C67599   2.721   6.938   7.982 -0.0222  0.3720 -0.5411
  513MOL0     C67600   2.791   6.840   8.087  0.6076 -0.6143 -0.3636
  513MOL0     N67601   2.908   6.768   8.041  0.5047 -0.6727  0.5382
  513MOL0     C67602   2.902   6.642   7.985  0.3485 -0.9092  0.2282
  513MOL0     C67603   3.029   6.601   7.976  0.4946 -0.0599 -0.2670
  513MOL0     C67604   3.084   6.476   7.938  1.0488  0.0292  0.4309
  513MOL0     C67605   3.051   6.365   8.037 -0.4270 -0.3627 -0.1053
  513MOL0     C67606   3.095   6.228   7.976 -0.2001  0.1879 -1.4332
  513MOL0     C67607   3.062   6.116   8.087  0.8393 -0.0620 -0.0563
  513MOL0     O67608   3.144   6.006   8.065  0.0924 -0.3742  0.0974
  513MOL0     C67609   3.257   5.995   8.146 -0.0950  0.4946 -0.1657
  513MOL0     C67610   3.290   6.077   8.265  0.0949  0.9052  0.3389
  513MOL0     C67611   3.417   6.092   8.309  0.0143 -0.7854  0.1271
  513MOL0     C67612   3.530   6.028   8.242  0.0965 -0.7093 -0.6376
  513MOL0     C67613   3.670   6.056   8.288 -0.9103 -0.2131 -0.0285
  513MOL0     O67614   3.689   6.121   8.406  0.8456 -0.2187 -0.2559
  513MOL0     C67615   3.795   6.206   8.408 -0.4277 -0.3028  0.6094
  513MOL0     C67616   3.818   6.303   8.308 -1.0234  0.8907 -0.6818
  513MOL0     C67617   3.929   6.386   8.321  1.1938  1.1051  0.9403
  513MOL0     C67618   4.017   6.383   8.426  0.8631  0.3863 -1.5683
  513MOL0     O67619   4.125   6.458   8.441 -0.5793 -0.6299 -0.6163
  513MOL0     C67620   4.130   6.590   8.381  0.1675  1.1291  0.2157
  513MOL0     C67621   4.269   6.647   8.383  0.5749 -0.0983 -0.3219
  513MOL0     C67622   4.342   6.653   8.516 -0.1954 -0.0167  0.4948
  513MOL0     C67623   4.478   6.723   8.497  0.1088 -0.0779  0.1313
  513MOL0     C67624   4.554   6.728   8.637 -0.8624 -0.8180 -0.1530
  513MOL0     C67625   4.469   6.820   8.730 -0.8242 -0.0114 -0.5015
  513MOL0     C67626   4.548   6.858   8.857 -0.4968 -0.9623 -0.5101
  513MOL0     C67627   4.460   6.958   8.942 -0.2258  0.7669  0.0696
  513MOL0    Cl67628   4.447   7.106   8.857  0.0332  0.5438 -0.1202
  513MOL0     C67629   3.991   6.279   8.522 -0.8628 -0.2410  0.0661
  513MOL0     C67630   3.887   6.186   8.515 -0.1023  1.5520  1.2354
  513MOL0     O67631   3.763   6.025   8.214  0.6879 -0.0392 -0.1712
  513MOL0     C67632   3.500   5.938   8.139 -0.4512 -0.1593  0.0507
  513MOL0     C67633   3.367   5.922   8.091  0.1119  0.4264 -0.3357
  513MOL0     N67634   3.110   6.699   8.037  1.1518 -1.0634 -0.2085
  513MOL0     N67635   3.034   6.797   8.061  0.0905  0.1388  0.0617
  513MOL0     C67636   1.978   6.863   7.363 -0.1967  0.1074 -0.1448
  513MOL0     C67637   1.857   6.916   7.316  0.6962  0.6053 -0.3641
  513MOL0     C67638   1.562   7.022   6.996 -0.5593 -0.3049  0.3854
  513MOL0     C67639   1.531   7.162   7.018  0.0397 -0.0562  0.5866
  513MOL0     C67640   1.419   7.219   6.953 -0.1740  0.1679  0.0776
  513MOL0     C67641   1.339   7.144   6.870  0.3871  0.2665  0.0496
  513MOL0     O67642   1.236   7.217   6.808 -1.2357 -0.3537  0.5204
  513MOL0     C67643   1.152   7.148   6.704 -0.2733  0.3356 -0.3223
  513MOL0     C67644   1.050   7.242   6.642  0.9476 -0.1184 -0.3160
  513MOL0     C67645   0.950   7.171   6.561 -0.0831 -0.1538 -0.4758
  513MOL0     C67646   0.860   7.266   6.475  0.1135 -0.0324 -1.2385
  513MOL0     C67647   0.774   7.357   6.555  0.4633 -0.4679  0.0122
  513MOL0     C67648   0.693   7.424   6.614  0.3136  0.5828 -0.7539
  513MOL0     C67649   1.377   7.012   6.841 -0.0173  0.0420 -1.4952
  513MOL0     C67650   1.486   6.950   6.905  0.9873 -0.7035  0.2087
  513MOL0     H67651   1.961   7.094   7.045 -0.8939 -0.9177 -1.2937
  513MOL0     H67652   2.179   7.014   7.138  0.5315  0.7645  1.4295
  513MOL0     H67653   2.365   6.991   7.274 -0.1698  0.0980 -0.5824
  513MOL0     H67654   2.343   6.832   7.208  1.1472  0.8583 -1.1509
  513MOL0     H67655   2.557   6.842   7.360  0.0281 -0.0290  0.2885
  513MOL0     H67656   2.428   6.734   7.421  1.5588 -0.0822  0.9158
  513MOL0     H67657   2.368   6.897   7.602  1.6742  0.8379  1.0441
  513MOL0     H67658   2.485   7.007   7.528  0.7145  1.2999 -1.3274
  513MOL0     H67659   2.547   6.742   7.638 -1.6567 -0.0057 -3.8417
  513MOL0     H67660   2.665   6.844   7.557  0.2006  2.2701 -0.1931
  513MOL0     H67661   2.519   6.983   7.784 -0.9657 -1.6784 -0.4779
  513MOL0     H67662   2.673   7.017   7.727  2.9958 -1.7172  2.4431
  513MOL0     H67663   2.774   6.825   7.825  2.4554  3.2474  2.3868
  513MOL0     H67664   2.619   6.768   7.894  0.8209 -0.8003 -0.9733
  513MOL0     H67665   2.783   7.014   7.935 -1.5564 -0.2364 -3.8238
  513MOL0     H67666   2.640   6.991   8.034 -3.3733 -4.8995  0.4606
  513MOL0     H67667   2.713   6.770   8.117 -2.4500  2.0327 -1.6071
  513MOL0     H67668   2.818   6.897   8.176 -1.2276 -0.1642 -0.0561
  513MOL0     H67669   2.813   6.586   7.958  1.6354 -3.0279  0.1795
  513MOL0     H67670   3.193   6.473   7.938  1.1845 -5.6648 -0.8799
  513MOL0     H67671   3.045   6.442   7.842  0.1707 -2.0903  1.4733
  513MOL0     H67672   2.944   6.345   8.053 -0.1737 -0.3587  1.8581
  513MOL0     H67673   3.107   6.375   8.131 -1.0513 -0.8151  0.3224
  513MOL0     H67674   3.046   6.209   7.880 -2.0020  0.4577 -0.6030
  513MOL0     H67675   3.204   6.233   7.962  0.4273  3.1639  2.6198
  513MOL0     H67676   2.957   6.089   8.075 -0.0668  2.2043  2.0035
  513MOL0     H67677   3.058   6.149   8.191 -4.0030 -2.8977  0.9613
  513MOL0     H67678   3.204   6.131   8.304 -2.1859 -1.3825 -1.1537
  513MOL0     H67679   3.431   6.150   8.400 -1.1929 -4.2729  2.7464
  513MOL0     H67680   3.755   6.304   8.220 -0.9896 -0.1694 -0.7334
  513MOL0     H67681   3.953   6.446   8.233  0.6414 -1.1135 -0.8040
  513MOL0     H67682   4.053   6.636   8.443  0.0007 -0.8335  1.5647
  513MOL0     H67683   4.107   6.579   8.274  2.9332  0.1767 -0.3525
  513MOL0     H67684   4.254   6.746   8.340  0.5260 -0.2950 -0.7565
  513MOL0     H67685   4.327   6.582   8.317  0.5929  0.1246 -0.5259
  513MOL0     H67686   4.378   6.551   8.532  1.9323  0.7236  0.7627
  513MOL0     H67687   4.280   6.680   8.601  0.8945 -0.4782  1.4717
  513MOL0     H67688   4.541   6.665   8.429  1.3258  0.5104  0.7406
  513MOL0     H67689   4.464   6.825   8.460 -0.2353 -0.5285 -1.0129
  513MOL0     H67690   4.649   6.780   8.632 -0.9309 -0.7383 -0.6882
  513MOL0     H67691   4.570   6.631   8.686  0.9482 -0.8310 -0.7110
  513MOL0     H67692   4.366   6.792   8.755 -0.4107 -3.5060 -2.2329
  513MOL0     H67693   4.467   6.917   8.680  1.6981  0.2370 -0.2388
  513MOL0     H67694   4.568   6.777   8.928  3.4795  1.0526  0.9875
  513MOL0     H67695   4.646   6.900   8.833 -0.7511  0.1891  0.3914
  513MOL0     H67696   4.483   6.975   9.047 -1.5638 -0.2609  0.5676
  513MOL0     H67697   4.359   6.915   8.949  0.6445 -1.1238  2.2800
  513MOL0     H67698   4.059   6.269   8.606  0.7935  3.1169 -0.7089
  513MOL0     H67699   3.879   6.117   8.598  1.5378 -1.7217 -1.0826
  513MOL0     H67700   3.581   5.884   8.089  0.5742 -1.1332  2.6001
  513MOL0     H67701   3.344   5.849   8.014  1.0710 -2.5405  1.9880
  513MOL0     H67702   1.988   6.814   7.459 -1.2632 -1.3075 -0.7159
  513MOL0     H67703   1.762   6.894   7.363 -0.4794  1.7242 -2.0952
  513MOL0     H67704   1.573   7.216   7.102 -3.9465  2.6491  1.1222
  513MOL0     H67705   1.399   7.322   6.979  3.3521  1.5407 -1.9316
  513MOL0     H67706   1.088   7.078   6.759 -0.6051  1.5297  0.8669
  513MOL0     H67707   1.213   7.105   6.624 -0.5658  0.5767 -0.6775
  513MOL0     H67708   1.004   7.308   6.715  1.5887  2.5017 -2.1517
  513MOL0     H67709   1.099   7.317   6.579 -1.4267  0.8733 -1.0979
  513MOL0     H67710   0.897   7.088   6.609 -1.5563  0.3452 -1.1699
  513MOL0     H67711   1.006   7.103   6.496 -2.0684 -4.0965  1.5524
  513MOL0     H67712   0.913   7.339   6.412  1.5895  0.1573  0.1766
  513MOL0     H67713   0.797   7.194   6.421 -0.6457  1.5617 -2.6152
  513MOL0     H67714   0.629   7.485   6.674  1.2861 -0.1377  1.0974
  513MOL0     H67715   1.322   6.947   6.775  2.1761 -3.6303  0.0180
  513MOL0     H67716   1.511   6.845   6.896  0.6507 -0.8057  0.4601
  514MOL0     O67717   8.244   9.523   1.093  0.3538  1.1173 -0.5238
  514MOL0     C67718   8.241   9.491   1.211 -0.3293  0.6569  0.2749
  514MOL0     O67719   8.137   9.434   1.273  1.1734  0.0795  0.5012
  514MOL0     C67720   8.041   9.386   1.182 -1.3036  0.1600 -0.1262
  514MOL0     C67721   7.920   9.467   1.177  0.3066  0.5595  0.5369
  514MOL0     C67722   7.816   9.421   1.091 -1.0613  0.3816 -0.3544
  514MOL0     C67723   7.823   9.304   1.019 -0.5556  0.4172  0.6625
  514MOL0     O67724   7.736   9.256   0.931  0.0486  0.4405  0.3495
  514MOL0     C67725   7.623   9.338   0.890 -0.3638  0.0835  0.9761
  514MOL0     C67726   7.538   9.246   0.806  0.8893 -0.3773  0.3836
  514MOL0     C67727   7.399   9.314   0.770  0.3898  0.7944  0.2262
  514MOL0     C67728   7.368   9.253   0.630  0.2963 -0.5602 -0.9834
  514MOL0     C67729   7.253   9.339   0.561  0.3710 -0.6168  0.0040
  514MOL0     C67730   7.204   9.267   0.434  0.6938 -0.5359 -0.2126
  514MOL0     C67731   7.091   9.345   0.357  0.3288  0.0843 -0.6392
  514MOL0     C67732   7.101   9.312   0.208 -0.6604 -0.5286 -0.5225
  514MOL0     N67733   7.073   9.160   0.195 -0.3864  0.3964  0.2039
  514MOL0     C67734   6.950   9.117   0.192  0.4377 -0.9034 -0.5654
  514MOL0     C67735   6.961   8.982   0.187  0.3500  0.7542  0.2349
  514MOL0     C67736   6.844   8.882   0.177 -0.2137 -0.2892 -0.9705
  514MOL0     C67737   6.825   8.800   0.314  0.0694  0.2828  0.3142
  514MOL0     C67738   6.697   8.711   0.322  0.3545  0.3135 -0.6038
  514MOL0     C67739   6.682   8.665   0.474  0.7235 -0.1439  0.0180
  514MOL0     O67740   6.578   8.561   0.498 -0.8978 -0.6808 -0.5662
  514MOL0     C67741   6.598   8.434   0.441 -0.7920  0.9900  0.3511
  514MOL0     C67742   6.492   8.368   0.375 -0.6455  0.2179 -0.0593
  514MOL0     C67743   6.508   8.250   0.312  0.5573  0.3297  0.4012
  514MOL0     C67744   6.635   8.190   0.297 -0.7292 -0.8581  0.5802
  514MOL0     C67745   6.656   8.072   0.209  0.1017  0.5191 -2.2732
  514MOL0     O67746   6.542   8.010   0.158  0.3690 -0.3499  0.1767
  514MOL0     C67747   6.551   7.958   0.031  0.0786 -0.4268 -0.2306
  514MOL0     C67748   6.576   8.042  -0.082  0.2330 -0.2468  0.0080
  514MOL0     C67749   6.585   7.993  -0.209  0.4748 -0.7302 -0.3526
  514MOL0     C67750   6.570   7.853  -0.228  0.2456 -0.8058  0.0489
  514MOL0     O67751   6.555   7.811  -0.354 -0.1759  0.6755  1.0204
  514MOL0     C67752   6.486   7.690  -0.381 -0.5093 -0.0351 -0.5025
  514MOL0     C67753   6.580   7.569  -0.404 -0.0331 -1.1861  0.8821
  514MOL0     C67754   6.679   7.563  -0.522 -0.4210 -0.0089 -0.2912
  514MOL0     C67755   6.606   7.516  -0.646  1.3539 -0.1712  0.3371
  514MOL0     C67756   6.624   7.605  -0.776  0.4646 -0.4856 -0.3472
  514MOL0     C67757   6.755   7.570  -0.839 -0.9242  0.4100  0.1369
  514MOL0     C67758   6.793   7.634  -0.971  0.0712 -0.8307  0.5263
  514MOL0     C67759   6.928   7.580  -1.020 -0.0299  0.5715  0.1639
  514MOL0    Cl67760   6.959   7.670  -1.176  0.2131  0.1410  0.4510
  514MOL0     C67761   6.551   7.765  -0.122  0.0763 -0.2475 -0.4093
  514MOL0     C67762   6.543   7.818   0.003 -0.3302 -0.3221 -0.5192
  514MOL0     O67763   6.772   8.034   0.179  0.5525 -0.1458 -0.6177
  514MOL0     C67764   6.742   8.256   0.358 -0.1546 -0.1202  0.9320
  514MOL0     C67765   6.725   8.376   0.428 -0.3404  0.4710 -0.0678
  514MOL0     N67766   7.094   8.943   0.184  0.0607  0.5280  0.3079
  514MOL0     N67767   7.166   9.057   0.197 -0.7301  0.7079  0.5262
  514MOL0     C67768   7.952   9.238   1.018  0.5658 -0.1793 -0.6754
  514MOL0     C67769   8.067   9.262   1.109  0.7247 -0.5233 -0.2257
  514MOL0     C67770   8.358   9.531   1.289  0.2857 -0.8302 -0.4659
  514MOL0     C67771   8.485   9.495   1.254  0.0910 -0.3904 -0.2700
  514MOL0     C67772   8.591   9.546   1.326  0.0821  0.2733  0.0280
  514MOL0     C67773   8.567   9.599   1.452 -0.9445  0.4155  0.2848
  514MOL0     O67774   8.663   9.649   1.533 -0.0138  0.2109 -0.1796
  514MOL0     C67775   8.796   9.661   1.491 -0.7295 -0.6282  0.1439
  514MOL0     C67776   8.879   9.699   1.610  0.3363 -1.2376 -0.1644
  514MOL0     C67777   9.012   9.738   1.556 -0.6150 -0.2268  0.4955
  514MOL0     C67778   9.118   9.760   1.666 -0.0458  0.0830  0.6086
  514MOL0     C67779   9.243   9.819   1.612  0.4486 -0.2954  0.3178
  514MOL0     C67780   9.338   9.857   1.558 -0.2918  1.2539 -0.0757
  514MOL0     C67781   8.443   9.616   1.498 -0.3045  0.4727  0.3338
  514MOL0     C67782   8.337   9.584   1.414  0.0724  0.3691  0.8481
  514MOL0     H67783   7.916   9.547   1.251 -0.2616 -0.5489  1.7329
  514MOL0     H67784   7.728   9.483   1.076 -1.4784  0.1273  0.9292
  514MOL0     H67785   7.664   9.413   0.821 -0.5527  0.3439  1.1426
  514MOL0     H67786   7.568   9.373   0.978 -1.1330  3.3276 -0.6468
  514MOL0     H67787   7.526   9.151   0.861  0.0561 -1.8355 -2.1737
  514MOL0     H67788   7.603   9.228   0.720  3.3996 -0.0027  2.0899
  514MOL0     H67789   7.409   9.423   0.766 -1.0066  0.9138 -0.8227
  514MOL0     H67790   7.321   9.282   0.840 -1.4457  1.6158 -1.3268
  514MOL0     H67791   7.456   9.261   0.566  1.5502 -0.2987  0.7015
  514MOL0     H67792   7.337   9.149   0.642  1.1201 -0.7461 -0.3868
  514MOL0     H67793   7.288   9.437   0.528 -0.9914 -1.1593 -3.5020
  514MOL0     H67794   7.175   9.355   0.637  0.0818 -3.0450  0.3030
  514MOL0     H67795   7.159   9.177   0.477 -4.8340  2.2504  0.8618
  514MOL0     H67796   7.291   9.252   0.370  2.2483  3.1747  0.7432
  514MOL0     H67797   6.991   9.327   0.399  1.4176  0.7477  2.5072
  514MOL0     H67798   7.095   9.454   0.373 -1.6885  0.7292 -3.7106
  514MOL0     H67799   7.198   9.341   0.166 -1.8466 -0.0030 -3.0960
  514MOL0     H67800   7.019   9.364   0.157 -0.7929 -0.4381 -0.2191
  514MOL0     H67801   6.856   9.170   0.210  1.6198  0.8614  0.6898
  514MOL0     H67802   6.861   8.811   0.096  2.5069 -3.4039  2.0307
  514MOL0     H67803   6.752   8.935   0.150 -1.7209 -2.0070  0.5989
  514MOL0     H67804   6.832   8.872   0.396  1.5455  1.3658 -0.7071
  514MOL0     H67805   6.909   8.732   0.330  0.3679  0.6945  0.5150
  514MOL0     H67806   6.622   8.785   0.292  2.3165  2.1388 -1.2609
  514MOL0     H67807   6.695   8.633   0.246  0.4432  0.3699 -0.6638
  514MOL0     H67808   6.646   8.753   0.528 -0.0698 -0.5505  0.1676
  514MOL0     H67809   6.778   8.639   0.519  0.5823  0.7878  0.9072
  514MOL0     H67810   6.391   8.404   0.394 -1.5578 -1.3856 -1.5749
  514MOL0     H67811   6.425   8.205   0.257  0.1797  1.0628  0.3575
  514MOL0     H67812   6.588   8.149  -0.067 -0.1987 -0.3965  1.7110
  514MOL0     H67813   6.597   8.065  -0.290 -3.0460  0.0421 -0.3540
  514MOL0     H67814   6.431   7.707  -0.474 -2.1742  2.2555  0.7914
  514MOL0     H67815   6.408   7.671  -0.307 -0.3983 -0.0884 -0.3987
  514MOL0     H67816   6.524   7.476  -0.392  0.6849 -1.3076  3.9594
  514MOL0     H67817   6.644   7.575  -0.316  2.2668 -0.6230 -0.7292
  514MOL0     H67818   6.758   7.492  -0.495 -0.4098 -0.0971 -0.5528
  514MOL0     H67819   6.735   7.654  -0.543  0.5303 -0.6309 -0.5522
  514MOL0     H67820   6.622   7.411  -0.675  1.9294 -0.5448  1.9168
  514MOL0     H67821   6.502   7.530  -0.615  2.0419  0.3399  2.5930
  514MOL0     H67822   6.610   7.711  -0.751  2.8776  0.1130 -1.2701
  514MOL0     H67823   6.545   7.571  -0.844  2.1963 -6.0920 -0.0692
  514MOL0     H67824   6.769   7.462  -0.854 -0.5688  0.6960 -2.0285
  514MOL0     H67825   6.840   7.603  -0.779  1.6740  0.9290 -3.4794
  514MOL0     H67826   6.719   7.598  -1.043  0.3338 -3.0284  1.2923
  514MOL0     H67827   6.798   7.743  -0.962  2.1440 -0.4831 -2.8796
  514MOL0     H67828   6.916   7.476  -1.050  5.0673 -0.0084 -0.6520
  514MOL0     H67829   7.012   7.591  -0.951  0.7720 -0.7875 -0.5563
  514MOL0     H67830   6.531   7.659  -0.129 -4.6831  0.3090  1.1969
  514MOL0     H67831   6.528   7.747   0.083 -1.1642  0.3440 -0.0641
  514MOL0     H67832   6.837   8.205   0.347 -0.2142 -0.1751  0.6417
  514MOL0     H67833   6.813   8.418   0.475 -1.0908  1.9613  0.0732
  514MOL0     H67834   7.968   9.159   0.946  0.6008 -0.3490 -0.4823
  514MOL0     H67835   8.157   9.201   1.112  0.8669 -0.2856  0.7579
  514MOL0     H67836   8.496   9.452   1.155 -0.2456  1.2531 -1.0484
  514MOL0     H67837   8.688   9.543   1.276  0.4354  1.3688  0.6301
  514MOL0     H67838   8.807   9.740   1.416  0.4612 -0.4713  0.4749
  514MOL0     H67839   8.826   9.565   1.447 -0.0859 -2.3186  3.9406
  514MOL0     H67840   8.825   9.779   1.661  0.8110 -0.9910 -0.0430
  514MOL0     H67841   8.873   9.615   1.680 -1.4904 -0.9157  0.0999
  514MOL0     H67842   9.003   9.830   1.498 -4.3654  0.2001  1.5152
  514MOL0     H67843   9.055   9.663   1.489  0.5906 -0.6910  1.7382
  514MOL0     H67844   9.077   9.832   1.738  2.5111  1.9891  0.3334
  514MOL0     H67845   9.148   9.664   1.711  0.9499  0.0222 -0.1434
  514MOL0     H67846   9.428   9.870   1.500 -0.6724 -0.6695 -1.1693
  514MOL0     H67847   8.423   9.657   1.597 -3.0246 -1.2358  0.5885
  514MOL0     H67848   8.237   9.599   1.452 -0.4248  1.2229 -0.6664
  515MOL0     O67849   6.328   5.444  10.478 -0.3345 -0.0014 -0.4601
  515MOL0     C67850   6.316   5.373  10.579  0.0359  0.8592 -0.0619
  515MOL0     O67851   6.403   5.264  10.612  0.2042 -0.6487 -0.7243
  515MOL0     C67852   6.492   5.236  10.516  0.3185  0.6712  0.1876
  515MOL0     C67853   6.596   5.311  10.478  0.1803  0.1763  0.1393
  515MOL0     C67854   6.693   5.266  10.386 -0.5227  0.6647  0.1195
  515MOL0     C67855   6.687   5.142  10.326  0.3695  0.3635  0.6594
  515MOL0     O67856   6.784   5.096  10.247  0.2132 -0.2008 -0.5398
  515MOL0     C67857   6.754   4.985  10.155  0.4113  0.7867  0.2447
  515MOL0     C67858   6.858   4.986  10.036 -0.0567  1.0052 -0.8464
  515MOL0     C67859   6.997   4.977  10.092  0.2483  0.1196 -0.0763
  515MOL0     C67860   7.111   4.998   9.993 -0.1830  0.0699 -0.2086
  515MOL0     C67861   7.239   5.026  10.061 -0.2392 -0.2592  0.7439
  515MOL0     C67862   7.372   5.042   9.983  0.4530 -0.7165  1.4059
  515MOL0     C67863   7.495   5.069  10.063 -0.0565 -0.8806 -0.4311
  515MOL0     C67864   7.551   4.948  10.139  0.1075 -0.3087 -0.0146
  515MOL0     N67865   7.562   4.824  10.060 -0.3193  0.0815 -0.8950
  515MOL0     C67866   7.484   4.716  10.089 -0.2395 -0.4469 -0.5912
  515MOL0     C67867   7.525   4.627   9.994 -0.1945 -0.5015  0.0175
  515MOL0     C67868   7.486   4.483   9.988  0.2567  0.0188 -0.5350
  515MOL0     C67869   7.327   4.472  10.011 -0.8203  0.4476  0.0758
  515MOL0     C67870   7.286   4.325  10.030  0.5417  0.3184  0.3933
  515MOL0     C67871   7.150   4.319  10.094  0.5382 -0.8604 -0.7860
  515MOL0     O67872   7.072   4.411  10.008  0.4295  1.1707  0.9616
  515MOL0     C67873   6.955   4.467  10.049 -1.0176  1.1121 -0.4530
  515MOL0     C67874   6.880   4.520   9.944  0.1627  0.2370 -1.2750
  515MOL0     C67875   6.765   4.586   9.974  0.5105 -0.2645 -1.0998
  515MOL0     C67876   6.717   4.601  10.114 -0.3782  0.0341  0.9892
  515MOL0     C67877   6.600   4.671  10.145  0.6746 -0.1956 -0.0146
  515MOL0     O67878   6.516   4.711  10.040  0.6831 -0.9632  0.1542
  515MOL0     C67879   6.389   4.764  10.063 -0.0711 -0.4214 -1.2373
  515MOL0     C67880   6.291   4.707  10.148 -0.0145  0.8886 -0.3295
  515MOL0     C67881   6.163   4.756  10.172  0.6082 -0.2056 -0.2509
  515MOL0     C67882   6.119   4.869  10.105  0.6503  0.9466  1.0664
  515MOL0     O67883   5.992   4.927  10.097  0.2490  0.4526 -0.6424
  515MOL0     C67884   5.907   4.875  10.206 -0.1612  0.6576  0.0226
  515MOL0     C67885   5.957   4.901  10.349  0.7823 -0.3183  0.3471
  515MOL0     C67886   5.945   5.053  10.385  0.1663  0.4621  0.0093
  515MOL0     C67887   5.823   5.097  10.464 -1.0753  0.3531 -0.1112
  515MOL0     C67888   5.854   5.240  10.511 -0.3877 -0.7290  0.2982
  515MOL0     C67889   5.740   5.305  10.595  0.2361 -0.3964 -0.6935
  515MOL0     C67890   5.749   5.266  10.738  1.1168 -0.4528 -1.5651
  515MOL0     C67891   5.669   5.378  10.814 -0.4919 -0.2902  0.2589
  515MOL0    Cl67892   5.500   5.361  10.776  0.1681  0.1615 -0.1192
  515MOL0     C67893   6.223   4.931  10.026 -0.5459  0.3054  0.2872
  515MOL0     C67894   6.352   4.876  10.001 -0.5533  0.0948 -0.0288
  515MOL0     O67895   6.567   4.684  10.262 -0.2189  0.3699 -0.4780
  515MOL0     C67896   6.796   4.542  10.217  0.5543  0.5731  0.5290
  515MOL0     C67897   6.917   4.477  10.182  0.8557  0.1815 -0.4795
  515MOL0     N67898   7.620   4.677   9.914 -0.1145 -0.4793 -0.5135
  515MOL0     N67899   7.640   4.795   9.957  0.1353  0.4646  0.1667
  515MOL0     C67900   6.575   5.070  10.360  0.9968  1.1684 -0.1087
  515MOL0     C67901   6.479   5.112  10.460 -0.4404 -0.2807  0.6503
  515MOL0     C67902   6.212   5.398  10.679  0.0243  0.0569  0.7554
  515MOL0     C67903   6.218   5.333  10.798  0.7917  0.4082 -0.6541
  515MOL0     C67904   6.120   5.352  10.895 -0.1428 -0.1118 -0.1661
  515MOL0     C67905   6.016   5.437  10.867  0.4099 -0.2001 -0.2328
  515MOL0     O67906   5.921   5.466  10.963  0.6502 -0.6587  0.5453
  515MOL0     C67907   5.958   5.466  11.096  0.3747  0.7941  0.0818
  515MOL0     C67908   5.895   5.347  11.165  0.7562  0.4467 -0.3888
  515MOL0     C67909   5.760   5.375  11.218  0.1892 -0.3162 -0.2357
  515MOL0     C67910   5.757   5.474  11.331 -0.1306  0.1726  0.4464
  515MOL0     C67911   5.641   5.433  11.413 -0.2435  0.1485 -0.3037
  515MOL0     C67912   5.557   5.412  11.498 -0.4442 -0.6431 -0.3392
  515MOL0     C67913   6.019   5.515  10.749 -0.3209 -0.4981  0.4894
  515MOL0     C67914   6.111   5.498  10.655  0.1074  0.1404 -0.7462
  515MOL0     H67915   6.618   5.403  10.531 -0.8448 -0.3956  1.6130
  515MOL0     H67916   6.775   5.329  10.354  0.2498 -0.3582  0.0586
  515MOL0     H67917   6.660   4.979  10.098  1.5350 -0.3293 -1.6069
  515MOL0     H67918   6.755   4.898  10.221 -3.4153  0.4095  0.0175
  515MOL0     H67919   6.851   5.079   9.980 -0.9253  1.5071  0.0626
  515MOL0     H67920   6.854   4.898   9.971  1.8209 -0.6924  1.1552
  515MOL0     H67921   7.006   4.871  10.118 -0.7762 -0.2817 -1.2632
  515MOL0     H67922   7.014   5.037  10.182 -0.1375 -1.2054  0.9094
  515MOL0     H67923   7.126   4.912   9.926  1.6255  2.3624 -2.9705
  515MOL0     H67924   7.070   5.085   9.941 -3.0930 -1.5549 -0.8477
  515MOL0     H67925   7.258   4.941  10.128 -1.1250  2.7094  5.2284
  515MOL0     H67926   7.220   5.107  10.132  2.2451  2.1121 -1.1016
  515MOL0     H67927   7.359   5.135   9.927  2.1342 -2.6667 -2.5554
  515MOL0     H67928   7.371   4.963   9.908  0.6859  0.7117 -0.1547
  515MOL0     H67929   7.566   5.091   9.983 -0.1221 -1.1113 -0.5514
  515MOL0     H67930   7.485   5.158  10.127 -0.0933 -1.1794 -0.0202
  515MOL0     H67931   7.490   4.923  10.226 -1.1775 -0.3865 -0.9002
  515MOL0     H67932   7.650   4.986  10.167  1.0247 -1.2030 -1.8675
  515MOL0     H67933   7.406   4.717  10.164  0.6881 -2.4480  0.4853
  515MOL0     H67934   7.535   4.434  10.073 -1.8760 -1.4310 -0.0782
  515MOL0     H67935   7.515   4.440   9.892 -0.6633 -2.0764  0.0713
  515MOL0     H67936   7.275   4.518   9.927 -3.2603  2.6515  2.5996
  515MOL0     H67937   7.298   4.529  10.100  1.1780  1.2907  0.2599
  515MOL0     H67938   7.280   4.269   9.937  1.5153 -1.0079  1.0895
  515MOL0     H67939   7.353   4.272  10.099  0.0814  0.2027  0.7634
  515MOL0     H67940   7.149   4.347  10.199 -2.5130 -2.0064 -0.4343
  515MOL0     H67941   7.100   4.223  10.079  0.2390 -0.7363 -0.5816
  515MOL0     H67942   6.921   4.508   9.844  2.1486  0.9521 -0.5776
  515MOL0     H67943   6.698   4.622   9.897 -0.3991 -2.7684 -1.5604
  515MOL0     H67944   6.314   4.613  10.198  2.5944  1.3370 -0.5781
  515MOL0     H67945   6.100   4.702  10.241 -1.6070  3.3223  0.7694
  515MOL0     H67946   5.885   4.769  10.189 -0.4336  0.9159 -1.3659
  515MOL0     H67947   5.807   4.919  10.199 -0.4683  0.6367  2.8840
  515MOL0     H67948   6.060   4.865  10.359  0.3671 -0.8416  3.4654
  515MOL0     H67949   5.901   4.835  10.415  0.9190 -1.4940 -0.6653
  515MOL0     H67950   5.967   5.105  10.292  1.7389  0.4667  0.3534
  515MOL0     H67951   6.034   5.077  10.443 -1.8464  2.9065  2.3522
  515MOL0     H67952   5.731   5.110  10.406  0.4610  1.1445 -2.5260
  515MOL0     H67953   5.803   5.026  10.545 -0.0844  0.9092  0.6467
  515MOL0     H67954   5.863   5.300  10.419  1.1385 -3.2572 -1.3085
  515MOL0     H67955   5.956   5.254  10.547 -0.5622  3.9715 -0.2988
  515MOL0     H67956   5.648   5.274  10.545 -0.6453  1.3186 -0.1997
  515MOL0     H67957   5.760   5.412  10.598 -0.3206 -0.2773  2.6297
  515MOL0     H67958   5.692   5.174  10.750 -0.2246  0.3616 -1.5164
  515MOL0     H67959   5.856   5.268  10.764  1.7158  2.2995 -3.7108
  515MOL0     H67960   5.709   5.473  10.779 -2.1158 -0.0852 -1.1643
  515MOL0     H67961   5.662   5.370  10.923 -5.5239 -1.2424  0.1439
  515MOL0     H67962   6.205   5.003   9.947 -0.0610 -0.1715 -0.2646
  515MOL0     H67963   6.424   4.914   9.929  2.2644 -4.5631 -0.0277
  515MOL0     H67964   6.756   4.549  10.318 -0.5109 -1.3088  0.2774
  515MOL0     H67965   6.989   4.444  10.257 -0.5072  0.7980  1.1662
  515MOL0     H67966   6.555   4.978  10.307  1.6031  0.7635  0.3577
  515MOL0     H67967   6.397   5.046  10.489 -1.1530  1.1066  1.8895
  515MOL0     H67968   6.295   5.259  10.817  1.7655  1.7338  0.7915
  515MOL0     H67969   6.130   5.293  10.985 -0.7708 -0.3477 -0.2501
  515MOL0     H67970   5.922   5.558  11.143 -2.8331 -0.9148  1.2804
  515MOL0     H67971   6.065   5.481  11.111  0.5679  0.9574 -1.3436
  515MOL0     H67972   5.890   5.263  11.096 -2.2135 -0.7355  1.1098
  515MOL0     H67973   5.961   5.313  11.245  0.9612  2.1554  0.2220
  515MOL0     H67974   5.724   5.280  11.258 -2.0738  0.0960 -1.1785
  515MOL0     H67975   5.686   5.407  11.145  1.8554  0.4075 -1.6948
  515MOL0     H67976   5.840   5.464  11.401  1.4555 -0.0288 -1.3695
  515MOL0     H67977   5.753   5.575  11.288  0.4224 -0.9313 -2.4488
  515MOL0     H67978   5.490   5.376  11.573  1.1987  0.1395  1.5910
  515MOL0     H67979   5.936   5.574  10.710  1.7183  1.6019 -0.9742
  515MOL0     H67980   6.114   5.546  10.558  0.4827  0.2431 -0.6823
  516MOL0     O67981   2.821   8.563   4.990 -0.3460 -0.0061  0.4409
  516MOL0     C67982   2.736   8.603   5.065 -0.4232  0.8598 -1.2764
  516MOL0     O67983   2.718   8.548   5.185 -0.6350 -0.0838  0.7387
  516MOL0     C67984   2.791   8.443   5.241  0.8634  0.6639  0.0736
  516MOL0     C67985   2.916   8.398   5.207 -0.3902  0.0454  0.9105
  516MOL0     C67986   2.980   8.287   5.276  0.6482 -0.2091 -1.0014
  516MOL0     C67987   2.921   8.227   5.391  0.1891 -0.5610 -0.2254
  516MOL0     O67988   2.993   8.141   5.468 -0.8749 -0.7191 -0.0751
  516MOL0     C67989   2.963   8.107   5.603 -0.3877 -0.3757 -0.3110
  516MOL0     C67990   2.881   7.979   5.603  0.2093 -0.3856  0.3637
  516MOL0     C67991   2.962   7.852   5.569 -0.0385  0.5267  0.5138
  516MOL0     C67992   3.025   7.833   5.423  0.3052 -0.3763  0.4798
  516MOL0     C67993   2.932   7.761   5.337  1.2813  1.2929 -0.5815
  516MOL0     C67994   2.959   7.792   5.194  0.3487  0.4684 -0.0885
  516MOL0     C67995   2.863   7.723   5.096  0.0381  0.5073  0.3528
  516MOL0     C67996   2.917   7.592   5.046 -0.2840  0.9273  0.3615
  516MOL0     N67997   2.822   7.545   4.941 -0.1058 -1.3872  0.8798
  516MOL0     C67998   2.839   7.586   4.811 -0.3714 -0.1770 -0.0642
  516MOL0     C67999   2.749   7.510   4.741 -0.9481 -0.8817 -0.0262
  516MOL0     C68000   2.719   7.535   4.593 -0.3246 -0.0357  0.1558
  516MOL0     C68001   2.610   7.640   4.576 -0.1450  0.1139  0.4045
  516MOL0     C68002   2.559   7.640   4.430  0.6001 -0.1749 -0.4466
  516MOL0     C68003   2.435   7.716   4.401 -0.1988 -0.0566  0.7474
  516MOL0     O68004   2.440   7.842   4.459 -0.4275 -0.7393  0.7309
  516MOL0     C68005   2.325   7.917   4.450  0.6937 -0.7262 -0.8532
  516MOL0     C68006   2.217   7.879   4.370 -0.0112  0.0975 -0.5223
  516MOL0     C68007   2.102   7.961   4.344 -0.4658 -0.7443  0.6932
  516MOL0     C68008   2.090   8.079   4.423 -0.2921  0.1298 -0.1350
  516MOL0     C68009   1.973   8.170   4.407 -0.3405 -0.0370 -0.2314
  516MOL0     O68010   1.876   8.130   4.319  0.4354 -0.8605  0.1611
  516MOL0     C68011   1.769   8.212   4.297 -0.2929 -0.1488 -0.3045
  516MOL0     C68012   1.772   8.348   4.259  0.1742  0.3179 -1.6011
  516MOL0     C68013   1.658   8.418   4.223 -0.6333 -0.2358  0.9494
  516MOL0     C68014   1.531   8.354   4.210 -1.4506  0.0041 -0.1333
  516MOL0     O68015   1.418   8.413   4.167  0.0693 -0.6743  0.5225
  516MOL0     C68016   1.369   8.529   4.237 -0.3305 -0.4950 -0.2139
  516MOL0     C68017   1.293   8.497   4.368 -0.0178  0.5676 -0.2623
  516MOL0     C68018   1.257   8.632   4.430 -0.4267  0.7467  0.4332
  516MOL0     C68019   1.191   8.620   4.567 -0.0952 -0.2556  0.5429
  516MOL0     C68020   1.103   8.738   4.595 -0.1481 -0.1832 -0.4786
  516MOL0     C68021   1.174   8.877   4.605  0.7759  0.5366 -0.7548
  516MOL0     C68022   1.072   8.990   4.610  0.0746 -0.3365  0.3550
  516MOL0     C68023   1.025   9.015   4.750  0.2181 -0.7131  0.7093
  516MOL0    Cl68024   1.163   9.098   4.830 -0.7320  0.2320  0.0768
  516MOL0     C68025   1.527   8.215   4.255 -0.3148 -1.1229  0.6457
  516MOL0     C68026   1.646   8.149   4.302 -0.5993 -1.2211  0.1792
  516MOL0     O68027   1.972   8.272   4.474  0.3471 -0.0974  0.6848
  516MOL0     C68028   2.197   8.115   4.506 -0.8479  0.5723  0.0292
  516MOL0     C68029   2.312   8.033   4.517  0.9833 -0.4470 -0.4262
  516MOL0     N68030   2.698   7.415   4.829  0.4080  0.3815  0.9518
  516MOL0     N68031   2.749   7.435   4.945  0.0837 -0.2362 -0.4806
  516MOL0     C68032   2.791   8.264   5.423 -0.9283  0.1088  0.8852
  516MOL0     C68033   2.727   8.369   5.350  0.7874  0.4657  0.5340
  516MOL0     C68034   2.676   8.724   5.037 -0.3746  0.2006 -0.1760
  516MOL0     C68035   2.745   8.834   4.986 -0.2298  0.2996  0.5076
  516MOL0     C68036   2.665   8.942   4.950 -0.3099  0.4326  1.0978
  516MOL0     C68037   2.534   8.954   4.971  0.3732  0.9319  0.2929
  516MOL0     O68038   2.463   9.053   4.909 -0.2680 -0.3454  0.0364
  516MOL0     C68039   2.332   9.084   4.964  0.6919  0.8864 -0.9047
  516MOL0     C68040   2.286   9.213   4.899  0.7716 -0.4736 -0.4918
  516MOL0     C68041   2.154   9.262   4.954  0.2234 -0.0827  0.6403
  516MOL0     C68042   2.124   9.405   4.927  0.4063  1.0331  0.2352
  516MOL0     C68043   2.011   9.441   5.010 -1.3138  0.2227 -0.3031
  516MOL0     C68044   1.907   9.476   5.071 -0.0338  0.5976 -0.1530
  516MOL0     C68045   2.469   8.850   5.039 -0.0789  0.3209 -0.4465
  516MOL0     C68046   2.542   8.734   5.072  0.6466 -0.2848 -0.1912
  516MOL0     H68047   2.977   8.438   5.126 -2.9193 -2.8620 -2.7715
  516MOL0     H68048   3.074   8.238   5.256  0.7249 -1.0907  1.1866
  516MOL0     H68049   2.914   8.183   5.665  0.5042 -0.2241  0.2478
  516MOL0     H68050   3.060   8.102   5.654 -0.8980 -1.8151  0.5774
  516MOL0     H68051   2.799   7.982   5.531  1.4548 -0.9486 -1.1317
  516MOL0     H68052   2.849   7.961   5.706 -2.6061 -3.0504 -0.8137
  516MOL0     H68053   2.899   7.766   5.591  0.1141 -0.2361 -1.7574
  516MOL0     H68054   3.044   7.851   5.642  0.4656  2.6625  0.0525
  516MOL0     H68055   3.047   7.932   5.382 -3.5973  0.4890  0.0485
  516MOL0     H68056   3.112   7.766   5.429  0.7296  0.1233 -0.0687
  516MOL0     H68057   2.834   7.808   5.349 -0.8748 -1.7954 -4.0080
  516MOL0     H68058   2.924   7.655   5.364 -0.2407  1.9155  1.6901
  516MOL0     H68059   3.063   7.788   5.162 -0.1994  0.2781 -1.9358
  516MOL0     H68060   2.937   7.899   5.184  0.9488  0.6288  0.2232
  516MOL0     H68061   2.766   7.710   5.145  0.2314 -0.4994  0.5083
  516MOL0     H68062   2.850   7.790   5.011 -3.0616  0.4517  0.6803
  516MOL0     H68063   2.928   7.512   5.120 -0.1413 -1.1740 -1.8369
  516MOL0     H68064   3.015   7.609   5.000  0.3879 -0.9204  1.0330
  516MOL0     H68065   2.883   7.680   4.780  0.1717  0.5313  2.6275
  516MOL0     H68066   2.686   7.443   4.546  2.4599 -1.2780  0.4142
  516MOL0     H68067   2.803   7.567   4.530  2.5277 -3.1777  2.0107
  516MOL0     H68068   2.652   7.739   4.598 -2.5415  2.5115 -4.1997
  516MOL0     H68069   2.526   7.618   4.643  0.7546 -2.2697  0.8122
  516MOL0     H68070   2.636   7.667   4.357 -0.2247 -2.2379 -2.2008
  516MOL0     H68071   2.535   7.534   4.414 -4.0669  0.6458 -0.1814
  516MOL0     H68072   2.346   7.661   4.432 -2.3615  2.7684 -0.0915
  516MOL0     H68073   2.432   7.718   4.292  1.7390 -0.5060  0.6379
  516MOL0     H68074   2.223   7.800   4.296 -0.0557 -0.2546 -0.1509
  516MOL0     H68075   2.025   7.946   4.269 -0.0799  0.3942  0.0487
  516MOL0     H68076   1.873   8.383   4.243  1.2465 -1.7528  0.1505
  516MOL0     H68077   1.659   8.521   4.190  1.2391 -0.8221 -0.9783
  516MOL0     H68078   1.304   8.583   4.167  1.5791 -0.2649 -1.9115
  516MOL0     H68079   1.453   8.592   4.267  1.3335 -2.0988 -1.2976
  516MOL0     H68080   1.368   8.443   4.427 -2.8017 -2.7916  0.5082
  516MOL0     H68081   1.206   8.432   4.356 -0.7106  1.2798  0.7369
  516MOL0     H68082   1.191   8.694   4.369 -0.2182 -1.8449 -2.6892
  516MOL0     H68083   1.342   8.700   4.445 -0.9686  1.0333  2.5624
  516MOL0     H68084   1.141   8.523   4.573 -1.3171  0.4411  2.6589
  516MOL0     H68085   1.264   8.612   4.649 -3.2468  0.7050  3.6762
  516MOL0     H68086   1.041   8.721   4.684 -3.1130 -0.8822 -2.5217
  516MOL0     H68087   1.024   8.749   4.520 -0.8133 -3.8494 -0.5071
  516MOL0     H68088   1.239   8.887   4.518  3.1349  0.5313  0.9074
  516MOL0     H68089   1.228   8.879   4.701 -3.0647  2.6550  1.6119
  516MOL0     H68090   1.122   9.080   4.573 -0.3564 -1.5958 -3.8527
  516MOL0     H68091   0.991   8.972   4.538 -1.4389  0.9010  1.6805
  516MOL0     H68092   1.005   8.917   4.795  0.6903 -0.7578  0.8274
  516MOL0     H68093   0.934   9.075   4.752  2.3348  2.8045 -0.7036
  516MOL0     H68094   1.438   8.154   4.244 -0.4817 -0.6204 -1.1189
  516MOL0     H68095   1.638   8.041   4.312 -1.0036 -0.9957  3.0653
  516MOL0     H68096   2.189   8.199   4.574 -5.1029  0.0722  0.4244
  516MOL0     H68097   2.388   8.056   4.592  2.1810  1.6374 -2.1590
  516MOL0     H68098   2.744   8.213   5.507 -1.0081 -2.9148 -0.8418
  516MOL0     H68099   2.633   8.418   5.372  1.2681  2.0011 -0.6278
  516MOL0     H68100   2.850   8.843   4.964  0.1736 -0.6269  1.9135
  516MOL0     H68101   2.709   9.021   4.892 -0.9471  1.4688  1.9775
  516MOL0     H68102   2.345   9.105   5.070 -0.1260 -0.9505 -0.3897
  516MOL0     H68103   2.257   9.004   4.958  0.2923  1.1982 -0.1793
  516MOL0     H68104   2.359   9.295   4.907 -1.2118  1.3613 -0.3265
  516MOL0     H68105   2.266   9.192   4.793  0.1245  0.1316 -0.4955
  516MOL0     H68106   2.145   9.254   5.063  0.7741 -0.4290  0.6661
  516MOL0     H68107   2.072   9.203   4.913 -0.5856  0.4292  1.4654
  516MOL0     H68108   2.205   9.474   4.953  0.7589 -1.0790  6.4294
  516MOL0     H68109   2.104   9.423   4.821  0.3751  2.9993  0.5293
  516MOL0     H68110   1.825   9.504   5.135  1.5486  1.6020  1.5208
  516MOL0     H68111   2.362   8.842   5.058  0.1954 -1.3724  0.6080
  516MOL0     H68112   2.496   8.650   5.125  0.0992 -0.9927 -1.7232
  517MOL0     O68113   8.708   2.552   3.210  0.3152  0.2823  0.0494
  517MOL0     C68114   8.823   2.544   3.253 -0.0729  0.7881  0.4734
  517MOL0     O68115   8.865   2.583   3.376  0.1797  0.0660  0.2614
  517MOL0     C68116   8.773   2.614   3.482 -0.1888 -0.5808  0.7148
  517MOL0     C68117   8.765   2.748   3.508  0.8963 -0.9581 -0.6554
  517MOL0     C68118   8.696   2.800   3.614 -0.4068  0.0909  0.0805
  517MOL0     C68119   8.621   2.714   3.697  1.0141  0.2268  0.6057
  517MOL0     O68120   8.557   2.769   3.804  0.2021 -0.4590  0.0162
  517MOL0     C68121   8.421   2.722   3.821  0.3943  0.2353 -0.8417
  517MOL0     C68122   8.399   2.630   3.946 -0.6632  0.1501 -0.7700
  517MOL0     C68123   8.254   2.582   3.972  0.1469 -1.1414  0.2358
  517MOL0     C68124   8.255   2.485   4.099 -0.1134 -0.7687 -0.4424
  517MOL0     C68125   8.117   2.480   4.156 -0.0044 -0.7219 -0.1317
  517MOL0     C68126   8.092   2.605   4.237 -0.2103 -0.3653  0.0346
  517MOL0     C68127   7.955   2.591   4.296  0.3305 -1.0783  0.2683
  517MOL0     C68128   7.907   2.721   4.355 -0.1986 -0.3545  0.0747
  517MOL0     N68129   7.785   2.691   4.435  0.7342  0.3868  0.8237
  517MOL0     C68130   7.657   2.698   4.385 -0.6051 -0.1026  0.7867
  517MOL0     C68131   7.571   2.718   4.489  0.0531  0.7085  0.1831
  517MOL0     C68132   7.426   2.750   4.489 -0.1796  0.6219  0.3375
  517MOL0     C68133   7.336   2.630   4.454 -0.9228 -0.1473 -0.4148
  517MOL0     C68134   7.191   2.639   4.505 -0.9128  0.3380  0.3713
  517MOL0     C68135   7.165   2.579   4.642  0.8840  0.2648 -0.8964
  517MOL0     O68136   7.025   2.585   4.672  0.2345 -0.1264  0.2507
  517MOL0     C68137   6.922   2.524   4.606  0.1252 -0.3687 -0.5583
  517MOL0     C68138   6.927   2.407   4.524 -0.4850  0.2176  0.2461
  517MOL0     C68139   6.814   2.336   4.487 -0.2374 -0.1125  0.3880
  517MOL0     C68140   6.682   2.386   4.514 -0.2481  1.2196  0.1270
  517MOL0     C68141   6.558   2.310   4.465  0.8727  0.4722 -0.7409
  517MOL0     O68142   6.429   2.335   4.520 -0.8044  0.5194  0.4072
  517MOL0     C68143   6.310   2.326   4.455 -0.3897  0.0544 -0.2011
  517MOL0     C68144   6.292   2.351   4.323 -1.0240  0.6423 -0.2905
  517MOL0     C68145   6.167   2.339   4.261 -0.2938  0.2292  0.3359
  517MOL0     C68146   6.051   2.312   4.334 -0.1414 -0.1564 -0.2344
  517MOL0     O68147   5.933   2.272   4.264 -0.9846 -0.9030  0.4028
  517MOL0     C68148   5.818   2.338   4.308 -0.3231  0.9298  0.3204
  517MOL0     C68149   5.719   2.306   4.200  0.1338  0.2652  0.0257
  517MOL0     C68150   5.585   2.385   4.196  0.8818  0.6883 -0.4684
  517MOL0     C68151   5.511   2.353   4.058  0.5462  0.5339 -0.3668
  517MOL0     C68152   5.360   2.380   4.059 -0.3185  0.4112  0.3907
  517MOL0     C68153   5.306   2.507   4.128 -0.0176 -0.3344  0.7056
  517MOL0     C68154   5.151   2.523   4.107  0.2595  0.4404 -0.2797
  517MOL0     C68155   5.100   2.618   4.211 -0.1504 -0.8302 -0.0444
  517MOL0    Cl68156   5.125   2.571   4.384  0.5251  0.5510 -0.1710
  517MOL0     C68157   6.069   2.303   4.471  0.5488 -1.2161 -0.1065
  517MOL0     C68158   6.195   2.307   4.536  0.6806  0.4619  0.1947
  517MOL0     O68159   6.576   2.222   4.381 -0.0510  0.6827  0.3511
  517MOL0     C68160   6.672   2.502   4.590  0.0530 -0.2391  0.0346
  517MOL0     C68161   6.791   2.563   4.640 -0.3132  0.1842 -0.1418
  517MOL0     N68162   7.653   2.717   4.602  0.4642 -0.0809  0.0545
  517MOL0     N68163   7.779   2.704   4.566 -0.6803  0.0809  0.2033
  517MOL0     C68164   8.621   2.576   3.665  1.1351 -0.9705  1.3500
  517MOL0     C68165   8.701   2.523   3.557  0.8174 -1.2884 -0.7152
  517MOL0     C68166   8.930   2.497   3.155  0.1622 -0.4139 -0.8251
  517MOL0     C68167   9.058   2.483   3.212 -0.3369 -0.1682 -0.3544
  517MOL0     C68168   9.162   2.447   3.131  0.7762  0.2088 -0.3807
  517MOL0     C68169   9.132   2.420   2.987  0.6814  0.0881 -0.2760
  517MOL0     O68170   9.233   2.410   2.908 -0.2133  0.1869 -0.1416
  517MOL0     C68171   9.262   2.284   2.866  0.2261  1.0537  0.0351
  517MOL0     C68172   9.389   2.233   2.929 -0.0834  0.1472  0.1241
  517MOL0     C68173   9.432   2.085   2.891 -0.2619  0.0014  0.0330
  517MOL0     C68174   9.343   1.978   2.943  0.5949  1.2432 -0.4927
  517MOL0     C68175   9.288   1.890   2.843  0.6518 -0.1311 -0.2356
  517MOL0     C68176   9.240   1.812   2.764 -0.0280 -0.2558 -0.7468
  517MOL0     C68177   9.001   2.416   2.941 -0.1309 -0.2100  0.8113
  517MOL0     C68178   8.894   2.442   3.028  0.3077 -0.4516 -0.8280
  517MOL0     H68179   8.822   2.820   3.450  1.3104  0.5533  1.4977
  517MOL0     H68180   8.710   2.905   3.640 -0.5296 -0.3407  1.9996
  517MOL0     H68181   8.389   2.675   3.728  1.2566 -1.6788 -0.2196
  517MOL0     H68182   8.364   2.813   3.843  0.6580  0.5038 -1.2487
  517MOL0     H68183   8.434   2.671   4.041 -2.1680 -1.6674  0.6504
  517MOL0     H68184   8.458   2.541   3.924  2.0207  1.7608 -0.4505
  517MOL0     H68185   8.223   2.526   3.883  0.0153  0.0649 -0.4931
  517MOL0     H68186   8.186   2.667   3.984 -1.1966 -2.1568  0.0506
  517MOL0     H68187   8.269   2.383   4.061 -2.2211 -1.7349  1.1763
  517MOL0     H68188   8.324   2.506   4.180  0.2266 -0.7513 -0.7327
  517MOL0     H68189   8.116   2.388   4.215 -0.4190 -0.7523 -0.1797
  517MOL0     H68190   8.051   2.470   4.069 -1.9252 -0.5630  1.2304
  517MOL0     H68191   8.099   2.692   4.171  1.2236 -2.3265 -2.5315
  517MOL0     H68192   8.166   2.624   4.315  0.3436 -0.9903 -0.3283
  517MOL0     H68193   7.882   2.565   4.219  0.1296 -2.6044  0.9320
  517MOL0     H68194   7.959   2.518   4.377 -0.6704  0.7401  2.0519
  517MOL0     H68195   7.884   2.791   4.274  3.9380  0.7218 -0.3875
  517MOL0     H68196   7.975   2.762   4.430 -2.7773 -0.3851  2.6069
  517MOL0     H68197   7.636   2.699   4.278 -1.0345 -1.8866  0.8298
  517MOL0     H68198   7.409   2.837   4.425  0.3546  0.7240  0.3302
  517MOL0     H68199   7.391   2.781   4.589 -2.4296 -1.3230  0.2404
  517MOL0     H68200   7.380   2.539   4.495 -2.3947 -1.5438 -1.7958
  517MOL0     H68201   7.327   2.634   4.345  1.7101  0.8401 -0.6809
  517MOL0     H68202   7.161   2.744   4.508  2.9822  1.6849  5.0095
  517MOL0     H68203   7.124   2.592   4.432  1.3726 -1.5144 -0.6814
  517MOL0     H68204   7.210   2.629   4.728 -4.3947  3.9654  0.2447
  517MOL0     H68205   7.208   2.478   4.643  1.0949  0.3479 -1.2411
  517MOL0     H68206   7.024   2.367   4.500  0.6151  1.8539  1.6617
  517MOL0     H68207   6.833   2.243   4.435 -1.3416 -0.9493  1.4059
  517MOL0     H68208   6.379   2.375   4.261 -1.3767 -2.1964 -2.0666
  517MOL0     H68209   6.156   2.360   4.155 -0.5986  0.4588  0.4094
  517MOL0     H68210   5.824   2.447   4.317 -2.1787  1.1511 -0.6608
  517MOL0     H68211   5.785   2.296   4.403  1.9764  2.7258  1.9953
  517MOL0     H68212   5.715   2.197   4.192  3.8384  0.1806 -3.7023
  517MOL0     H68213   5.774   2.325   4.107  2.9651 -0.4834  1.4271
  517MOL0     H68214   5.602   2.492   4.206  2.8894  0.5166 -1.5901
  517MOL0     H68215   5.523   2.348   4.279  0.4723 -2.7064 -2.0981
  517MOL0     H68216   5.545   2.436   3.996  2.2726  0.7312  0.7854
  517MOL0     H68217   5.550   2.265   4.006 -2.9464 -0.3131 -1.8417
  517MOL0     H68218   5.320   2.285   4.098 -1.1939  1.3174  1.7807
  517MOL0     H68219   5.320   2.380   3.957 -0.0055  1.0343  0.2684
  517MOL0     H68220   5.358   2.597   4.094  0.3957 -0.6381  0.5323
  517MOL0     H68221   5.328   2.500   4.235  0.4197  0.4453  0.6783
  517MOL0     H68222   5.124   2.557   4.006  1.7438 -1.7449 -1.4823
  517MOL0     H68223   5.113   2.423   4.132  1.3039  0.5790  2.0954
  517MOL0     H68224   4.992   2.630   4.195 -0.1402  3.5795  1.8915
  517MOL0     H68225   5.134   2.721   4.200 -4.8391  0.7049 -3.9806
  517MOL0     H68226   5.984   2.294   4.538 -0.1692  2.1959 -0.4183
  517MOL0     H68227   6.198   2.287   4.643  4.1321 -0.0937  0.1063
  517MOL0     H68228   6.576   2.547   4.614  0.2351 -0.7105  1.8053
  517MOL0     H68229   6.763   2.651   4.697 -1.2322  0.9299 -1.6740
  517MOL0     H68230   8.559   2.507   3.722 -4.4105  2.0973 -0.2135
  517MOL0     H68231   8.700   2.418   3.528 -2.5293 -0.8790 -2.6660
  517MOL0     H68232   9.072   2.492   3.320  2.2519  1.3683 -0.7225
  517MOL0     H68233   9.260   2.421   3.170  1.9282  2.2185 -1.7291
  517MOL0     H68234   9.261   2.264   2.759 -2.2826  0.5985  0.0905
  517MOL0     H68235   9.183   2.213   2.894  0.0289  1.4624  0.5300
  517MOL0     H68236   9.459   2.309   2.895 -2.1043  1.8351 -0.5170
  517MOL0     H68237   9.389   2.239   3.038  1.5944  0.4743  0.1246
  517MOL0     H68238   9.529   2.089   2.941  0.0024  0.7684 -0.5216
  517MOL0     H68239   9.452   2.085   2.783 -1.8470 -1.5010 -0.3154
  517MOL0     H68240   9.401   1.907   3.002  0.6165  1.6038 -0.0756
  517MOL0     H68241   9.270   2.015   3.016  2.6971  2.3641  1.1682
  517MOL0     H68242   9.193   1.753   2.688 -0.9140 -0.4919 -0.0318
  517MOL0     H68243   8.969   2.387   2.842 -0.9821 -0.1320  1.0473
  517MOL0     H68244   8.789   2.451   3.002 -0.0218 -0.9409  0.2640
  518MOL0     O68245   2.430   8.081   2.671  0.3176 -0.7163 -0.5085
  518MOL0     C68246   2.545   8.130   2.665 -0.5628  1.0270 -0.7623
  518MOL0     O68247   2.596   8.225   2.750  0.6099 -0.2450 -0.6011
  518MOL0     C68248   2.500   8.281   2.827 -0.1792  0.4383 -0.1926
  518MOL0     C68249   2.468   8.236   2.959 -0.5336  0.6065 -0.5403
  518MOL0     C68250   2.358   8.297   3.029 -0.1783 -0.4431  0.2906
  518MOL0     C68251   2.286   8.395   2.967  0.1316  0.3935  0.6239
  518MOL0     O68252   2.165   8.444   3.014 -0.6247 -0.3231  0.1215
  518MOL0     C68253   2.085   8.347   3.080  0.9056  0.4685 -0.2153
  518MOL0     C68254   2.093   8.375   3.228  0.1000 -0.0928 -0.1760
  518MOL0     C68255   1.990   8.287   3.310  0.6984 -0.8399  0.9281
  518MOL0     C68256   1.982   8.338   3.465 -0.3859  0.4717  0.2187
  518MOL0     C68257   1.892   8.244   3.541  0.1372 -0.0366  0.3883
  518MOL0     C68258   1.903   8.238   3.700  0.0381  0.7808  0.4651
  518MOL0     C68259   1.871   8.364   3.775  0.4345 -0.3460 -0.3292
  518MOL0     C68260   1.857   8.341   3.930  0.0520 -0.1294 -0.9179
  518MOL0     N68261   1.963   8.253   3.980  0.0828 -0.0296 -0.4100
  518MOL0     C68262   2.086   8.296   4.003 -0.3957  0.8799 -0.0561
  518MOL0     C68263   2.151   8.198   4.066  0.1058 -0.4078 -0.1795
  518MOL0     C68264   2.281   8.200   4.137 -0.1322 -0.8104 -0.2644
  518MOL0     C68265   2.399   8.138   4.056 -0.1826  0.1302  0.8437
  518MOL0     C68266   2.432   7.985   4.057 -0.2947  0.0499  0.6720
  518MOL0     C68267   2.571   7.960   3.985  0.5434  0.1616  0.8882
  518MOL0     O68268   2.679   8.039   4.047  0.8870  0.7204  0.4994
  518MOL0     C68269   2.745   7.967   4.134  0.5062  1.1437 -0.3755
  518MOL0     C68270   2.708   7.972   4.270  1.0307  0.4760 -0.6375
  518MOL0     C68271   2.790   7.912   4.371 -0.3236  0.4630  0.6965
  518MOL0     C68272   2.909   7.850   4.338  0.5561  0.1721  0.3534
  518MOL0     C68273   3.001   7.787   4.443  0.0057  0.6665  1.1882
  518MOL0     O68274   3.107   7.704   4.401 -0.2541  0.3504 -0.3376
  518MOL0     C68275   3.181   7.627   4.493 -0.5115 -0.1371 -0.2079
  518MOL0     C68276   3.120   7.513   4.553 -0.2686  0.1868 -0.4775
  518MOL0     C68277   3.192   7.440   4.647 -0.0535  0.3422 -0.4279
  518MOL0     C68278   3.323   7.475   4.685 -0.1544  0.0392  0.7630
  518MOL0     O68279   3.379   7.406   4.788 -0.7611  0.3672 -0.2191
  518MOL0     C68280   3.515   7.447   4.831 -0.2547 -0.3585  0.0395
  518MOL0     C68281   3.559   7.365   4.952  1.3231  0.5409  0.5504
  518MOL0     C68282   3.635   7.457   5.042  0.2031  0.4378 -0.8788
  518MOL0     C68283   3.666   7.384   5.174 -0.3098 -0.3372 -0.5080
  518MOL0     C68284   3.764   7.465   5.268 -0.6684  0.3468 -1.0776
  518MOL0     C68285   3.842   7.386   5.377 -0.3447 -0.3171 -0.1413
  518MOL0     C68286   3.949   7.479   5.454 -0.1652 -1.0730 -0.0283
  518MOL0     C68287   4.071   7.401   5.495  0.2265 -1.1798  0.4671
  518MOL0    Cl68288   4.206   7.502   5.573 -0.1470  0.3625 -0.3907
  518MOL0     C68289   3.379   7.584   4.618  0.4328  0.4498 -0.6707
  518MOL0     C68290   3.308   7.654   4.530  1.0314  0.3456 -0.5937
  518MOL0     O68291   2.987   7.822   4.560 -0.1097 -0.3553  0.3381
  518MOL0     C68292   2.944   7.847   4.202  0.2928 -0.5870  0.0809
  518MOL0     C68293   2.866   7.903   4.103 -1.3223  0.2553  0.0424
  518MOL0     N68294   2.069   8.080   4.053  0.4019  0.2731 -0.4038
  518MOL0     N68295   1.958   8.120   4.012 -0.0371 -0.9397 -0.3600
  518MOL0     C68296   2.321   8.440   2.843  0.6077  0.1913 -0.3707
  518MOL0     C68297   2.430   8.385   2.773 -0.3890 -0.3403  0.1847
  518MOL0     C68298   2.652   8.057   2.596  0.5072 -0.4850 -0.0862
  518MOL0     C68299   2.612   7.947   2.524 -0.6766  0.4618 -1.0883
  518MOL0     C68300   2.699   7.864   2.456 -1.2066 -0.0139  0.2569
  518MOL0     C68301   2.838   7.892   2.465 -0.3712 -0.8286  0.3112
  518MOL0     O68302   2.931   7.822   2.398  0.6156  0.2469 -0.7686
  518MOL0     C68303   2.902   7.699   2.330 -0.4056 -0.4901  0.7352
  518MOL0     C68304   3.033   7.638   2.286 -1.0932  0.0437 -0.0847
  518MOL0     C68305   3.120   7.588   2.403 -0.5464  0.4084 -1.2184
  518MOL0     C68306   3.236   7.678   2.443 -0.0028  0.2511  0.5223
  518MOL0     C68307   3.333   7.676   2.336 -0.0544 -0.0590  0.1062
  518MOL0     C68308   3.410   7.654   2.250 -0.5024 -0.0652  0.3701
  518MOL0     C68309   2.880   8.011   2.544  0.5941 -0.1387  0.3022
  518MOL0     C68310   2.786   8.092   2.604  0.2147 -0.2331  0.1052
  518MOL0     H68311   2.517   8.159   3.018  0.0435  1.4570  0.1184
  518MOL0     H68312   2.338   8.251   3.125  2.7686 -1.5617  0.4521
  518MOL0     H68313   2.115   8.243   3.063  1.3268  0.2319  1.7383
  518MOL0     H68314   1.981   8.348   3.047  0.4405  0.9263  1.1816
  518MOL0     H68315   2.084   8.484   3.227 -0.6329 -0.1510 -0.4906
  518MOL0     H68316   2.194   8.348   3.261  1.2233  2.3606 -1.3279
  518MOL0     H68317   2.027   8.185   3.297  0.8928 -0.5689 -0.8971
  518MOL0     H68318   1.894   8.305   3.261  2.1350  0.8892 -1.4076
  518MOL0     H68319   2.084   8.336   3.503  1.2516 -0.4499 -3.7540
  518MOL0     H68320   1.941   8.439   3.461 -1.1779  0.1991  1.1040
  518MOL0     H68321   1.910   8.143   3.503 -0.1978  0.2943 -0.6781
  518MOL0     H68322   1.786   8.268   3.531 -0.1940 -1.7377 -0.4822
  518MOL0     H68323   2.000   8.200   3.732  1.2873  3.7993  0.5088
  518MOL0     H68324   1.829   8.163   3.731  1.7195 -0.3189  1.9952
  518MOL0     H68325   1.956   8.433   3.760  1.6630 -1.6534  0.4278
  518MOL0     H68326   1.782   8.415   3.736  1.7142  0.5639 -2.2531
  518MOL0     H68327   1.765   8.288   3.958 -0.8321  0.9805 -1.6518
  518MOL0     H68328   1.860   8.436   3.984 -1.3408 -0.6849  0.2075
  518MOL0     H68329   2.123   8.397   4.020 -0.4685  0.5929  1.9382
  518MOL0     H68330   2.289   8.163   4.239 -1.9153  0.8462  0.5325
  518MOL0     H68331   2.303   8.306   4.149  3.0429 -1.4028  0.1680
  518MOL0     H68332   2.489   8.197   4.077 -0.3297  1.5194 -1.9456
  518MOL0     H68333   2.377   8.162   3.951 -2.8180  1.2583  1.5938
  518MOL0     H68334   2.450   7.958   4.162 -0.2772  1.8771  1.1742
  518MOL0     H68335   2.353   7.926   4.009  0.9713  0.4385 -2.0648
  518MOL0     H68336   2.560   7.990   3.880  0.3038  1.7423  1.3353
  518MOL0     H68337   2.587   7.853   3.995 -1.7841 -0.2279  0.9919
  518MOL0     H68338   2.611   8.008   4.304 -0.8356 -1.1226 -3.9111
  518MOL0     H68339   2.752   7.909   4.472  1.1531 -1.1469  1.2492
  518MOL0     H68340   3.020   7.477   4.532 -0.4546 -0.1165  0.8049
  518MOL0     H68341   3.157   7.350   4.696  1.6758 -0.8381 -1.2745
  518MOL0     H68342   3.516   7.552   4.860 -0.5503 -0.4158  0.2750
  518MOL0     H68343   3.587   7.444   4.749 -1.7278  3.4796 -1.5946
  518MOL0     H68344   3.627   7.285   4.920  1.7844  1.9670 -2.4245
  518MOL0     H68345   3.472   7.321   5.002  1.9350 -2.1772 -0.5909
  518MOL0     H68346   3.573   7.542   5.070  0.8717  0.5536  0.2889
  518MOL0     H68347   3.726   7.484   4.988 -0.0357  1.8589 -0.5965
  518MOL0     H68348   3.580   7.375   5.240 -1.2356  1.4350 -1.3933
  518MOL0     H68349   3.703   7.287   5.140 -0.6251  0.3063 -2.8899
  518MOL0     H68350   3.711   7.536   5.333 -2.6443 -1.9299 -0.0366
  518MOL0     H68351   3.832   7.533   5.216 -3.1190  1.8708 -2.5343
  518MOL0     H68352   3.911   7.314   5.331 -0.3825  2.0626 -4.4333
  518MOL0     H68353   3.777   7.348   5.457  1.9868  2.0570  3.1494
  518MOL0     H68354   3.972   7.559   5.384 -2.5978 -0.6591 -0.4334
  518MOL0     H68355   3.896   7.516   5.542 -2.0899 -5.1058  0.7536
  518MOL0     H68356   4.102   7.363   5.397  2.5323 -0.1975  0.7507
  518MOL0     H68357   4.039   7.323   5.565 -0.2966 -0.9628  0.4695
  518MOL0     H68358   3.481   7.618   4.626 -0.0436  1.5340  1.5127
  518MOL0     H68359   3.354   7.743   4.488  2.6056 -1.1229 -2.1357
  518MOL0     H68360   3.033   7.797   4.166  0.8479 -0.2306  0.9242
  518MOL0     H68361   2.896   7.907   3.998  2.2258  0.4793  0.9455
  518MOL0     H68362   2.264   8.506   2.779  1.7534  1.0958 -0.4853
  518MOL0     H68363   2.466   8.419   2.676  1.8863  0.7418  1.3322
  518MOL0     H68364   2.505   7.927   2.524 -1.2011  2.8079 -3.1056
  518MOL0     H68365   2.670   7.780   2.393 -0.8874 -1.0481  1.4665
  518MOL0     H68366   2.847   7.723   2.238 -1.4445 -4.7184  0.0064
  518MOL0     H68367   2.847   7.628   2.392 -0.4752 -1.8854 -0.8355
  518MOL0     H68368   3.015   7.553   2.220  0.7888  1.6777 -2.8476
  518MOL0     H68369   3.089   7.713   2.232  0.7350  0.5408  2.3244
  518MOL0     H68370   3.156   7.488   2.380 -1.1368 -1.3157  3.9122
  518MOL0     H68371   3.050   7.576   2.486 -0.0124 -1.4505 -0.9974
  518MOL0     H68372   3.194   7.778   2.455  2.3142  0.9884  4.2329
  518MOL0     H68373   3.281   7.655   2.540 -0.4256  1.8237  1.1329
  518MOL0     H68374   3.478   7.621   2.175 -0.6797 -0.8216  0.5311
  518MOL0     H68375   2.984   8.044   2.550  1.1646 -1.6895 -0.4718
  518MOL0     H68376   2.820   8.170   2.671  2.6469 -1.3114  0.2183
  519MOL0     O68377   6.334   8.551   4.341 -0.0771 -0.4316 -0.3186
  519MOL0     C68378   6.313   8.452   4.413  0.4136 -0.5684  0.0730
  519MOL0     O68379   6.215   8.438   4.509  0.3048  0.0230 -0.1659
  519MOL0     C68380   6.197   8.552   4.585 -0.7356  0.1955 -0.2079
  519MOL0     C68381   6.074   8.618   4.587  0.9949 -0.0880  1.0584
  519MOL0     C68382   6.057   8.732   4.673 -0.1547  1.1271 -0.6404
  519MOL0     C68383   6.158   8.784   4.744  0.8939  0.5698  0.2430
  519MOL0     O68384   6.133   8.898   4.822  0.1142  0.0798 -0.5748
  519MOL0     C68385   6.236   8.981   4.868  0.6511 -0.0220 -0.7064
  519MOL0     C68386   6.180   9.115   4.909  0.7412 -0.8994  0.6132
  519MOL0     C68387   6.112   9.099   5.055  0.5449 -0.5480  0.3838
  519MOL0     C68388   6.084   9.242   5.102  0.5947 -0.0058 -0.0964
  519MOL0     C68389   5.989   9.262   5.224 -0.5853 -0.5233  0.4988
  519MOL0     C68390   5.971   9.415   5.262  0.4914 -0.3043  0.0244
  519MOL0     C68391   5.893   9.429   5.400 -0.0696  0.5570  0.7110
  519MOL0     C68392   5.912   9.566   5.458  0.5570 -0.4189 -0.4470
  519MOL0     N68393   5.901   9.669   5.357  0.4969  0.1370  0.1150
  519MOL0     C68394   5.785   9.731   5.314 -0.0486  0.8396 -0.0876
  519MOL0     C68395   5.823   9.838   5.246  0.5797 -0.3630 -0.4496
  519MOL0     C68396   5.735   9.945   5.201  0.8230  0.1146 -0.1867
  519MOL0     C68397   5.768  10.088   5.257 -0.0508  0.9960 -0.7761
  519MOL0     C68398   5.766  10.078   5.412  0.3305 -0.1930 -0.0066
  519MOL0     C68399   5.625  10.055   5.468 -0.1127 -0.0907  0.6612
  519MOL0     O68400   5.570  10.181   5.508 -0.0458 -0.2413 -0.0710
  519MOL0     C68401   5.437  10.191   5.512 -0.6246  0.2536 -0.4701
  519MOL0     C68402   5.357  10.093   5.580 -0.1156  0.2585  0.1526
  519MOL0     C68403   5.217  10.110   5.585 -1.0589  0.4813 -0.2950
  519MOL0     C68404   5.160  10.229   5.540 -0.3954 -0.2015  0.2013
  519MOL0     C68405   5.024  10.265   5.570  0.4703  0.7353 -0.1166
  519MOL0     O68406   4.959  10.202   5.677  0.3145  0.7153  0.3027
  519MOL0     C68407   4.824  10.216   5.691 -0.2814 -0.4147  0.1834
  519MOL0     C68408   4.728  10.216   5.580  0.0969  0.0710 -0.1874
  519MOL0     C68409   4.591  10.251   5.607  0.1324 -0.4486  0.0454
  519MOL0     C68410   4.540  10.277   5.732 -0.7223 -0.1217 -0.1408
  519MOL0     O68411   4.407  10.301   5.749  0.3894  1.2027  0.4147
  519MOL0     C68412   4.343  10.228   5.859 -0.2769  1.8354 -1.3364
  519MOL0     C68413   4.196  10.248   5.854  0.0511 -1.7747 -0.2341
  519MOL0     C68414   4.126  10.167   5.966 -0.6992  0.5440  0.1087
  519MOL0     C68415   4.081  10.267   6.072 -0.6424  0.3840  0.1623
  519MOL0     C68416   3.993  10.201   6.177  0.6161  0.0711 -0.7939
  519MOL0     C68417   4.044  10.084   6.258  0.2766 -0.9041 -0.1722
  519MOL0     C68418   3.966  10.028   6.374  0.3466  0.3167 -0.1523
  519MOL0     C68419   3.811  10.028   6.343  0.3282 -1.5342 -0.7574
  519MOL0    Cl68420   3.716   9.940   6.461 -0.2633 -0.2523 -0.1649
  519MOL0     C68421   4.633  10.281   5.843  0.0584  1.0140  0.0294
  519MOL0     C68422   4.767  10.242   5.818 -0.3707  0.0581 -0.7130
  519MOL0     O68423   4.971  10.347   5.491 -0.4037  0.8198  0.0778
  519MOL0     C68424   5.242  10.321   5.473 -0.2127 -0.1700  0.0017
  519MOL0     C68425   5.377  10.302   5.451 -0.5794 -1.3854 -0.0997
  519MOL0     N68426   5.953   9.844   5.247 -0.4240  0.2058  0.5744
  519MOL0     N68427   6.003   9.743   5.307 -0.4488  0.1721 -0.1270
  519MOL0     C68428   6.282   8.725   4.733 -0.0644  0.0169  0.2862
  519MOL0     C68429   6.300   8.606   4.655  0.3574  1.2287 -0.3809
  519MOL0     C68430   6.422   8.356   4.414 -0.5287  0.3527 -0.2993
  519MOL0     C68431   6.507   8.335   4.306 -0.3855  0.0215 -0.1760
  519MOL0     C68432   6.607   8.237   4.318  0.1490 -0.0952  0.5095
  519MOL0     C68433   6.629   8.153   4.432 -0.1468 -0.2700  0.2842
  519MOL0     O68434   6.730   8.060   4.430  0.7883  0.5692 -0.1537
  519MOL0     C68435   6.734   7.947   4.517  0.8055 -0.9287 -0.2016
  519MOL0     C68436   6.851   7.853   4.482  0.2546 -0.8266 -0.1391
  519MOL0     C68437   6.842   7.744   4.589  1.0169  1.3497  0.4013
  519MOL0     C68438   6.953   7.631   4.560  0.4212 -0.1289 -0.2580
  519MOL0     C68439   6.915   7.504   4.631 -0.0130 -0.7560 -0.7341
  519MOL0     C68440   6.876   7.398   4.668 -0.8581  1.2402 -0.3826
  519MOL0     C68441   6.558   8.193   4.545 -0.8135  0.2964  0.7142
  519MOL0     C68442   6.453   8.292   4.539 -0.3566  0.7787  0.0278
  519MOL0     H68443   5.997   8.570   4.527  2.3103 -0.1970 -0.6454
  519MOL0     H68444   5.964   8.781   4.701  0.6561  1.7593  1.0531
  519MOL0     H68445   6.291   9.011   4.778 -2.2783  0.3712 -2.5241
  519MOL0     H68446   6.303   8.946   4.946  1.3600  2.9623  0.1476
  519MOL0     H68447   6.108   9.153   4.837  0.3959 -1.9268  0.3901
  519MOL0     H68448   6.262   9.187   4.910  0.5053 -0.5084 -1.6674
  519MOL0     H68449   6.175   9.054   5.133 -1.3875 -0.5576  2.0067
  519MOL0     H68450   6.017   9.046   5.042 -0.3831  1.2856 -0.6589
  519MOL0     H68451   6.179   9.293   5.117 -0.7583  2.2997  1.2412
  519MOL0     H68452   6.036   9.291   5.016  0.2420 -2.4668 -1.4117
  519MOL0     H68453   6.053   9.220   5.302  1.3513  3.9564  1.5815
  519MOL0     H68454   5.897   9.203   5.216 -0.7399 -0.5846  2.2935
  519MOL0     H68455   5.918   9.471   5.184 -2.4130 -3.8328 -0.8118
  519MOL0     H68456   6.074   9.450   5.264  0.1670  0.7734 -0.8405
  519MOL0     H68457   5.786   9.423   5.381 -0.4163  0.0845  2.6551
  519MOL0     H68458   5.917   9.350   5.472 -3.5388 -0.7579  0.5690
  519MOL0     H68459   6.011   9.573   5.502  1.1123  3.1804 -1.9556
  519MOL0     H68460   5.829   9.583   5.527  1.0083  4.0322 -0.7261
  519MOL0     H68461   5.685   9.694   5.331  0.8766 -0.6014  3.1684
  519MOL0     H68462   5.631   9.923   5.226  0.8249  1.9412  1.7278
  519MOL0     H68463   5.744   9.950   5.093  1.6334 -0.0402 -0.1332
  519MOL0     H68464   5.686  10.154   5.228 -1.2972 -0.6347 -1.1411
  519MOL0     H68465   5.866  10.120   5.221  0.5104  0.4942  0.2627
  519MOL0     H68466   5.830   9.996   5.449 -0.0285 -0.7054 -0.5031
  519MOL0     H68467   5.808  10.165   5.462  2.3346 -2.5194  2.7268
  519MOL0     H68468   5.631   9.984   5.551  0.5138 -2.1477 -1.0492
  519MOL0     H68469   5.569  10.015   5.383  0.3803 -1.4611  0.9589
  519MOL0     H68470   5.408  10.008   5.623 -0.5371  1.2247  2.7670
  519MOL0     H68471   5.153  10.030   5.622 -0.4887  0.0535 -0.2157
  519MOL0     H68472   4.756  10.184   5.481  0.0154 -0.5456 -0.0147
  519MOL0     H68473   4.518  10.240   5.528 -1.2121 -1.1720  1.3341
  519MOL0     H68474   4.393  10.263   5.950 -2.5500  1.2108  0.2637
  519MOL0     H68475   4.358  10.121   5.840 -3.2947  1.5120 -2.3904
  519MOL0     H68476   4.155  10.217   5.757 -1.7240  1.1312 -0.5135
  519MOL0     H68477   4.188  10.355   5.870  1.2129 -1.9838  2.1998
  519MOL0     H68478   4.197  10.096   6.009 -2.5923 -0.2963  2.0709
  519MOL0     H68479   4.044  10.117   5.912 -1.1746  1.4416 -0.0114
  519MOL0     H68480   4.162  10.302   6.136 -0.5833 -0.1679  0.3983
  519MOL0     H68481   4.024  10.343   6.018 -1.0393  1.3569  1.8849
  519MOL0     H68482   3.902  10.169   6.126  0.8830 -1.6423 -0.2651
  519MOL0     H68483   3.957  10.280   6.244  0.7944 -0.4543 -0.0610
  519MOL0     H68484   4.143  10.109   6.298  0.5059 -1.1871 -0.5533
  519MOL0     H68485   4.044   9.996   6.193 -2.9418 -3.6518  3.1390
  519MOL0     H68486   4.005   9.930   6.401  0.2107 -0.0425 -1.2040
  519MOL0     H68487   3.976  10.096   6.459 -0.7065 -0.4909  0.6490
  519MOL0     H68488   3.789  10.003   6.239  2.0067 -0.8401 -1.3180
  519MOL0     H68489   3.775  10.131   6.346 -2.8469 -2.4674 -2.1834
  519MOL0     H68490   4.605  10.301   5.946  1.9263  1.2661  0.5283
  519MOL0     H68491   4.835  10.242   5.902  1.0760 -0.7000 -1.8304
  519MOL0     H68492   5.204  10.416   5.437 -1.6546 -0.6302  0.2302
  519MOL0     H68493   5.438  10.373   5.397 -2.1897 -1.1663 -1.7371
  519MOL0     H68494   6.364   8.772   4.787  2.1101 -2.7904 -0.3140
  519MOL0     H68495   6.400   8.569   4.635  0.5515 -0.2577  2.7556
  519MOL0     H68496   6.484   8.398   4.221 -1.0267  0.3074  0.2015
  519MOL0     H68497   6.675   8.224   4.235 -0.1329 -1.3876  0.4589
  519MOL0     H68498   6.638   7.897   4.504 -0.3775  1.2064 -0.0372
  519MOL0     H68499   6.737   7.979   4.622 -3.2934 -1.4979  0.2360
  519MOL0     H68500   6.836   7.817   4.379 -0.7260  0.8510 -0.6041
  519MOL0     H68501   6.939   7.918   4.488 -1.1711  1.0337  3.5946
  519MOL0     H68502   6.748   7.691   4.603  2.4901 -1.3798  0.5881
  519MOL0     H68503   6.874   7.782   4.687 -2.3909  2.6618  1.1567
  519MOL0     H68504   6.951   7.615   4.451 -0.7510 -0.0082 -0.2671
  519MOL0     H68505   7.050   7.671   4.591  1.2199 -1.0380 -1.4444
  519MOL0     H68506   6.836   7.314   4.721 -0.9543  2.5181  1.6860
  519MOL0     H68507   6.590   8.155   4.642  0.2438 -1.8212 -0.3754
  519MOL0     H68508   6.412   8.327   4.633 -2.1075 -0.7195 -0.1197
  520MOL0     O68509   6.708   4.485   9.641  0.2640  0.4441  0.7076
  520MOL0     C68510   6.642   4.503   9.535  0.0219  0.1612  0.4798
  520MOL0     O68511   6.692   4.487   9.409  0.5140 -0.1577  0.8437
  520MOL0     C68512   6.816   4.425   9.396 -0.2735 -0.2028  0.5833
  520MOL0     C68513   6.922   4.505   9.369  0.5920  0.0889  0.2246
  520MOL0     C68514   7.050   4.451   9.363  0.2777  0.1621 -0.1526
  520MOL0     C68515   7.072   4.317   9.370  0.2185 -0.2577 -0.1460
  520MOL0     O68516   7.200   4.273   9.353 -0.7929  0.5869  0.4400
  520MOL0     C68517   7.214   4.131   9.297  0.6364  0.5537  0.2104
  520MOL0     C68518   7.358   4.086   9.268 -0.3039  0.2940  0.2087
  520MOL0     C68519   7.434   4.198   9.214  0.3025 -0.8203 -0.3683
  520MOL0     C68520   7.539   4.143   9.123  0.6273 -0.0061 -1.2148
  520MOL0     C68521   7.653   4.228   9.082  0.0265  0.1980  0.3510
  520MOL0     C68522   7.724   4.183   8.953 -0.6880  0.1426 -0.7433
  520MOL0     C68523   7.840   4.272   8.903  0.2865 -0.2224 -0.2542
  520MOL0     C68524   7.990   4.219   8.902 -0.7296 -0.2695 -0.5721
  520MOL0     N68525   8.024   4.177   9.037  0.0272 -0.5608  0.8797
  520MOL0     C68526   8.015   4.052   9.079 -0.2688 -0.3538 -0.6179
  520MOL0     C68527   8.040   4.050   9.208  0.6070  0.9190  0.3017
  520MOL0     C68528   8.030   3.914   9.280  0.6566  0.1734  0.2736
  520MOL0     C68529   7.883   3.886   9.307  0.1832  0.3440  0.2197
  520MOL0     C68530   7.854   3.753   9.365 -0.8205  0.8982 -0.2745
  520MOL0     C68531   7.703   3.724   9.357  0.2671 -0.0108  0.4044
  520MOL0     O68532   7.672   3.594   9.410  0.5370  0.1697  0.4820
  520MOL0     C68533   7.538   3.577   9.453  0.5132  0.0607  0.9845
  520MOL0     C68534   7.505   3.466   9.527 -1.0371 -0.3047  0.3809
  520MOL0     C68535   7.373   3.435   9.575  0.7220 -0.5470 -0.0160
  520MOL0     C68536   7.272   3.528   9.539  0.5995  0.2763  0.0427
  520MOL0     C68537   7.137   3.486   9.586 -0.1489  0.1842  0.8216
  520MOL0     O68538   7.032   3.519   9.504  0.0439 -0.1985  0.7256
  520MOL0     C68539   6.914   3.458   9.540 -0.1516 -0.3039 -0.0212
  520MOL0     C68540   6.816   3.532   9.609 -0.2853 -0.3084 -0.4939
  520MOL0     C68541   6.702   3.465   9.661  0.2488 -0.5107 -0.1910
  520MOL0     C68542   6.673   3.334   9.642 -0.2558 -0.4458 -0.1940
  520MOL0     O68543   6.566   3.283   9.709 -0.2501 -0.0774  0.3091
  520MOL0     C68544   6.500   3.175   9.638  0.1212  0.0147 -0.7559
  520MOL0     C68545   6.351   3.175   9.681 -0.0089 -0.1426  0.7297
  520MOL0     C68546   6.273   3.242   9.565  0.7105 -0.3635  0.4421
  520MOL0     C68547   6.126   3.228   9.578 -0.0751  0.6178  0.3677
  520MOL0     C68548   6.042   3.295   9.471 -0.7777  0.2398 -0.4263
  520MOL0     C68549   5.894   3.293   9.506  0.3308  0.3263 -0.2146
  520MOL0     C68550   5.817   3.368   9.401  0.1125  0.2150 -0.4673
  520MOL0     C68551   5.669   3.373   9.436  0.6912 -0.5959 -0.7605
  520MOL0    Cl68552   5.601   3.208   9.435  0.2139  0.1376  0.4376
  520MOL0     C68553   6.754   3.268   9.546 -0.2763  0.1558  0.3043
  520MOL0     C68554   6.874   3.326   9.500 -0.2277 -0.2491 -0.8084
  520MOL0     O68555   7.133   3.402   9.681 -0.4690 -0.3106 -0.0262
  520MOL0     C68556   7.300   3.643   9.455  0.5299 -1.0535  0.0955
  520MOL0     C68557   7.431   3.671   9.416  0.2727 -0.1950  0.0166
  520MOL0     N68558   8.067   4.179   9.259  0.0549 -0.3358  0.3898
  520MOL0     N68559   8.059   4.249   9.151 -1.0459  0.5286  0.6604
  520MOL0     C68560   6.966   4.232   9.407  0.2517 -0.0489 -0.3635
  520MOL0     C68561   6.834   4.291   9.417  0.2998 -0.1428 -0.1585
  520MOL0     C68562   6.491   4.527   9.541 -0.2350  0.9719  0.0743
  520MOL0     C68563   6.409   4.571   9.426  0.8993  1.3824 -0.5304
  520MOL0     C68564   6.264   4.585   9.446 -0.0916 -0.6147 -1.2170
  520MOL0     C68565   6.206   4.568   9.571  0.4701 -0.6916  0.2477
  520MOL0     O68566   6.072   4.572   9.583 -0.6532 -0.0803  0.2145
  520MOL0     C68567   6.024   4.711   9.570  0.2174  0.2315  0.2408
  520MOL0     C68568   5.874   4.695   9.601  0.0815  0.6477  0.0383
  520MOL0     C68569   5.805   4.648   9.473  0.8988  0.6841 -0.2600
  520MOL0     C68570   5.657   4.679   9.472 -0.1864 -0.5594 -0.1191
  520MOL0     C68571   5.601   4.619   9.353  0.3628  0.9974  0.2577
  520MOL0     C68572   5.559   4.565   9.254 -0.5419 -0.6280 -0.1454
  520MOL0     C68573   6.293   4.539   9.682  0.4720 -0.2618 -0.1898
  520MOL0     C68574   6.434   4.528   9.663 -0.3678 -0.2908 -0.7214
  520MOL0     H68575   6.909   4.612   9.382 -0.5659 -0.4282  6.0185
  520MOL0     H68576   7.134   4.520   9.356  0.7995 -0.3291  0.9812
  520MOL0     H68577   7.159   4.136   9.203  2.9070  1.2575 -1.1825
  520MOL0     H68578   7.169   4.049   9.354 -1.8542  1.5131 -0.2632
  520MOL0     H68579   7.345   4.009   9.192  1.1204  1.3439 -1.1812
  520MOL0     H68580   7.399   4.043   9.360  1.4188  0.2949 -0.5092
  520MOL0     H68581   7.478   4.261   9.292  2.2204 -2.1656 -0.2907
  520MOL0     H68582   7.372   4.270   9.160  4.5768  2.4940 -1.3634
  520MOL0     H68583   7.575   4.049   9.167 -3.4334 -1.0571  0.3407
  520MOL0     H68584   7.504   4.128   9.021 -0.0579 -2.6347 -0.6639
  520MOL0     H68585   7.742   4.233   9.146 -0.3654  0.6296  0.8771
  520MOL0     H68586   7.629   4.334   9.070 -0.2937  0.3215  1.8312
  520MOL0     H68587   7.645   4.187   8.878 -1.6772  2.9117  0.3194
  520MOL0     H68588   7.751   4.080   8.980  1.7175  0.7049 -0.7963
  520MOL0     H68589   7.831   4.305   8.799  0.9857 -2.5920 -1.1396
  520MOL0     H68590   7.831   4.366   8.959 -2.7301 -1.0740  0.8846
  520MOL0     H68591   8.057   4.297   8.866  0.5951 -0.1823  1.8294
  520MOL0     H68592   7.999   4.134   8.834 -0.1569  0.9355 -2.0412
  520MOL0     H68593   7.987   3.963   9.024  0.9822 -0.5360 -0.9818
  520MOL0     H68594   8.066   3.930   9.382  2.2909 -0.7499 -0.1249
  520MOL0     H68595   8.082   3.827   9.240 -1.5880 -1.9360  1.6483
  520MOL0     H68596   7.837   3.896   9.208 -0.2008  0.8111  0.4391
  520MOL0     H68597   7.848   3.961   9.379  4.3568  0.2144  2.7002
  520MOL0     H68598   7.908   3.677   9.308 -3.7728 -0.2572 -1.6770
  520MOL0     H68599   7.892   3.743   9.467  3.4707  0.4870 -1.6736
  520MOL0     H68600   7.671   3.736   9.253 -0.1766  0.5410  0.6004
  520MOL0     H68601   7.660   3.805   9.416 -0.7643 -1.7306  2.1618
  520MOL0     H68602   7.588   3.408   9.567  0.0023  1.7900  1.4180
  520MOL0     H68603   7.338   3.341   9.616 -0.7854 -1.0411 -2.2601
  520MOL0     H68604   6.847   3.636   9.609 -0.1548 -0.3070 -2.5598
  520MOL0     H68605   6.648   3.523   9.736  0.3065 -3.1739  2.0380
  520MOL0     H68606   6.540   3.076   9.661 -0.5979 -0.3396 -1.0265
  520MOL0     H68607   6.515   3.194   9.532  0.8834 -0.2349 -0.6970
  520MOL0     H68608   6.334   3.218   9.780  0.1889  0.6777  0.4119
  520MOL0     H68609   6.320   3.070   9.670  0.0450  0.1262 -4.1653
  520MOL0     H68610   6.310   3.203   9.470  1.6538  2.1461 -0.3108
  520MOL0     H68611   6.292   3.349   9.576 -1.8605  0.0908  1.0932
  520MOL0     H68612   6.093   3.124   9.568 -0.6147  0.8083  0.0944
  520MOL0     H68613   6.091   3.276   9.670 -2.6206  1.6256 -1.0348
  520MOL0     H68614   6.063   3.246   9.376 -0.8523  0.4781 -0.5636
  520MOL0     H68615   6.072   3.400   9.466 -0.7746  0.1932 -1.6289
  520MOL0     H68616   5.881   3.327   9.609  0.4536 -3.4915  1.2018
  520MOL0     H68617   5.859   3.190   9.514  0.3096  0.3233 -0.3394
  520MOL0     H68618   5.857   3.469   9.394  1.2206 -0.1863 -0.1690
  520MOL0     H68619   5.848   3.336   9.301  3.6095 -1.0837  0.8782
  520MOL0     H68620   5.609   3.439   9.373 -1.1318 -1.8815 -0.4748
  520MOL0     H68621   5.662   3.412   9.538  2.0731  2.7602 -1.8376
  520MOL0     H68622   6.731   3.166   9.517 -4.9417  1.3720 -1.0601
  520MOL0     H68623   6.929   3.267   9.427  1.2336  1.7320 -1.4208
  520MOL0     H68624   7.221   3.702   9.409  1.2093  0.9392  1.3557
  520MOL0     H68625   7.436   3.747   9.339 -1.3064  1.4241  1.4070
  520MOL0     H68626   6.983   4.126   9.424  1.3919 -0.1247 -1.7481
  520MOL0     H68627   6.756   4.224   9.451  1.6342 -0.7386  1.9376
  520MOL0     H68628   6.446   4.577   9.324  0.5788 -0.5016 -0.7950
  520MOL0     H68629   6.197   4.592   9.360  2.1593 -0.9584 -3.1113
  520MOL0     H68630   6.018   4.762   9.473 -4.6157  0.9371  0.6584
  520MOL0     H68631   6.078   4.776   9.638 -1.2602  0.1617  1.5374
  520MOL0     H68632   5.851   4.625   9.682 -1.7472  0.2732 -0.7528
  520MOL0     H68633   5.844   4.796   9.632  0.5955  0.7867  0.0953
  520MOL0     H68634   5.821   4.540   9.463 -1.3716  0.3560 -0.8678
  520MOL0     H68635   5.839   4.713   9.392 -0.9313  3.5772  1.1348
  520MOL0     H68636   5.607   4.642   9.561  1.1106 -1.7273  0.1468
  520MOL0     H68637   5.633   4.786   9.471  0.9820 -0.2743 -1.6367
  520MOL0     H68638   5.525   4.520   9.163 -1.8514  0.6402 -0.3146
  520MOL0     H68639   6.266   4.546   9.787  6.5264  2.4099  1.6405
  520MOL0     H68640   6.498   4.511   9.749  0.9890  0.3977 -1.5657
  521MOL0     O68641   3.587   1.180   3.701  0.1325 -0.2405 -0.2499
  521MOL0     C68642   3.708   1.187   3.720  1.1969 -0.1146 -0.9556
  521MOL0     O68643   3.767   1.194   3.841 -0.3809 -0.5516  0.2001
  521MOL0     C68644   3.709   1.180   3.965  0.2345  0.5178 -1.2033
  521MOL0     C68645   3.596   1.105   3.991 -1.1610  0.3471  0.2145
  521MOL0     C68646   3.574   1.057   4.123  0.2325 -0.0082 -0.8658
  521MOL0     C68647   3.655   1.083   4.227  1.1210  0.1050  0.5772
  521MOL0     O68648   3.639   1.036   4.350  0.9441 -0.3771 -0.1148
  521MOL0     C68649   3.602   0.900   4.371  0.7264  0.5694 -0.2271
  521MOL0     C68650   3.613   0.856   4.516  0.0345  0.7333 -0.9571
  521MOL0     C68651   3.758   0.844   4.552 -0.1315 -0.8998  0.4218
  521MOL0     C68652   3.769   0.763   4.685 -0.0601 -0.0361 -0.2085
  521MOL0     C68653   3.905   0.685   4.686  0.1163 -0.9595 -0.4212
  521MOL0     C68654   3.897   0.563   4.767  1.0067 -0.6624 -0.4357
  521MOL0     C68655   4.025   0.480   4.759 -0.3485  0.3584 -0.5768
  521MOL0     C68656   4.160   0.548   4.778  0.4513 -0.4027 -0.3240
  521MOL0     N68657   4.174   0.600   4.917 -0.0952 -0.3797  0.7545
  521MOL0     C68658   4.229   0.531   5.022 -0.9791  0.9212 -0.4324
  521MOL0     C68659   4.214   0.608   5.131 -0.0539 -0.3898 -1.1775
  521MOL0     C68660   4.253   0.588   5.269  0.4472 -0.5175 -0.1759
  521MOL0     C68661   4.403   0.567   5.296 -0.2358  0.1854 -0.2779
  521MOL0     C68662   4.440   0.556   5.446  0.5938 -0.1875  0.6765
  521MOL0     C68663   4.579   0.500   5.467 -0.3671  0.1927  1.6483
  521MOL0     O68664   4.590   0.366   5.429 -0.6836 -0.2711  0.5725
  521MOL0     C68665   4.715   0.315   5.416 -0.3359  0.1251 -0.1906
  521MOL0     C68666   4.720   0.187   5.370  0.5331 -0.4597  0.3452
  521MOL0     C68667   4.849   0.132   5.347 -0.0952  0.4633 -0.7166
  521MOL0     C68668   4.968   0.200   5.382  0.1663 -0.3917 -0.0778
  521MOL0     C68669   5.099   0.131   5.369  0.1616 -0.7582  0.4687
  521MOL0     O68670   5.207   0.211   5.387 -0.6995 -0.3634  0.1121
  521MOL0     C68671   5.336   0.157   5.374 -0.6154 -0.1935  0.6157
  521MOL0     C68672   5.372   0.081   5.265  0.2646 -0.0932 -0.0686
  521MOL0     C68673   5.497   0.021   5.247  0.3026 -0.0973  0.1541
  521MOL0     C68674   5.600   0.055   5.334  0.1078  0.4413 -0.7568
  521MOL0     O68675   5.729   0.026   5.310 -0.2780 -0.0322  0.4792
  521MOL0     C68676   5.753  -0.107   5.265 -0.3049 -0.5815  0.0488
  521MOL0     C68677   5.825  -0.093   5.130  0.1105 -0.0098  0.0376
  521MOL0     C68678   5.853  -0.234   5.074 -0.6708  0.2160 -0.2473
  521MOL0     C68679   5.865  -0.226   4.925  0.1442  0.1024  0.5768
  521MOL0     C68680   5.851  -0.364   4.859 -0.1514  0.2998  0.3543
  521MOL0     C68681   5.956  -0.476   4.893  0.8341 -0.7483  0.0683
  521MOL0     C68682   5.942  -0.610   4.811  0.3980 -1.5843 -0.7454
  521MOL0     C68683   6.044  -0.714   4.853  0.8711 -0.6881 -0.0512
  521MOL0    Cl68684   6.215  -0.669   4.799 -0.1726 -0.4175 -0.3441
  521MOL0     C68685   5.574   0.137   5.445 -0.5376  0.0004  0.2113
  521MOL0     C68686   5.440   0.184   5.466 -0.2777 -0.5459  0.0965
  521MOL0     O68687   5.099   0.011   5.345  0.2885 -0.2683  0.7074
  521MOL0     C68688   4.961   0.331   5.431 -0.1571 -0.0599  0.0012
  521MOL0     C68689   4.832   0.385   5.454  1.0468 -0.6343  0.7584
  521MOL0     N68690   4.159   0.730   5.094 -0.3592  0.3382 -0.2705
  521MOL0     N68691   4.142   0.721   4.971  0.7253  0.6283  0.3620
  521MOL0     C68692   3.760   1.167   4.206 -0.2385  0.1115 -0.1836
  521MOL0     C68693   3.784   1.217   4.076  0.2659  0.7890 -0.3451
  521MOL0     C68694   3.803   1.228   3.614  1.0796 -0.6591  0.2841
  521MOL0     C68695   3.758   1.240   3.480  0.3188 -1.4940  0.3326
  521MOL0     C68696   3.848   1.278   3.375  0.4407 -0.4727 -0.1014
  521MOL0     C68697   3.983   1.308   3.401 -0.3353  0.5745 -0.4058
  521MOL0     O68698   4.059   1.346   3.292  0.7178  0.1518 -0.4279
  521MOL0     C68699   4.199   1.354   3.287  0.8369  0.3027  1.4240
  521MOL0     C68700   4.224   1.403   3.143 -0.0562 -0.3552 -0.4260
  521MOL0     C68701   4.374   1.432   3.134 -0.1337  0.0354  0.3559
  521MOL0     C68702   4.389   1.540   3.025  0.3221 -0.1049  0.1270
  521MOL0     C68703   4.370   1.496   2.883 -0.0652 -0.4528  0.1529
  521MOL0     C68704   4.348   1.463   2.771 -0.2297  0.1659  0.2386
  521MOL0     C68705   4.025   1.289   3.530  1.5860 -0.8857 -0.4214
  521MOL0     C68706   3.937   1.259   3.632  0.3035  0.7083 -0.0698
  521MOL0     H68707   3.540   1.073   3.904 -0.4282  0.7554 -0.4230
  521MOL0     H68708   3.497   0.982   4.134 -0.5769  0.9703  0.5034
  521MOL0     H68709   3.653   0.831   4.303  0.6084  0.9909 -0.7569
  521MOL0     H68710   3.496   0.891   4.345  0.4191 -0.0234  1.1517
  521MOL0     H68711   3.573   0.754   4.511  2.0307 -0.0674 -2.1205
  521MOL0     H68712   3.562   0.925   4.584 -3.1371  0.2842 -2.7413
  521MOL0     H68713   3.812   0.938   4.549 -1.8808  0.1802  1.0619
  521MOL0     H68714   3.805   0.782   4.475  1.5442 -2.4022  2.5436
  521MOL0     H68715   3.768   0.842   4.761 -0.7168  1.0832 -1.3448
  521MOL0     H68716   3.687   0.692   4.694  0.5907 -0.8925 -0.8298
  521MOL0     H68717   3.976   0.757   4.728 -2.7911  0.9428  1.5642
  521MOL0     H68718   3.936   0.650   4.587  0.7071  1.3787 -1.1236
  521MOL0     H68719   3.818   0.508   4.715 -0.5561  3.3029 -2.7897
  521MOL0     H68720   3.867   0.588   4.869 -1.9012 -0.9968 -1.1136
  521MOL0     H68721   4.018   0.401   4.835 -0.8014  0.7105 -0.2483
  521MOL0     H68722   4.031   0.437   4.659  0.3005  1.5421 -1.0490
  521MOL0     H68723   4.164   0.624   4.700 -1.3915 -0.1595 -0.2260
  521MOL0     H68724   4.236   0.472   4.758  0.8484  0.1121 -0.7719
  521MOL0     H68725   4.273   0.432   5.025 -3.3205 -0.1779 -0.3424
  521MOL0     H68726   4.192   0.508   5.311  1.9487 -1.4846  0.2058
  521MOL0     H68727   4.225   0.676   5.327 -3.4788 -1.0779 -0.9443
  521MOL0     H68728   4.456   0.653   5.255 -0.5755 -0.1073 -1.3574
  521MOL0     H68729   4.445   0.485   5.238 -1.5905  1.1871 -2.8050
  521MOL0     H68730   4.438   0.656   5.489 -1.8570  0.3951 -0.5966
  521MOL0     H68731   4.363   0.494   5.494  0.4401 -1.4163 -1.0412
  521MOL0     H68732   4.605   0.500   5.574  1.0940 -1.9608  1.3546
  521MOL0     H68733   4.651   0.562   5.412  2.9862 -4.6850 -0.1762
  521MOL0     H68734   4.621   0.148   5.345  0.6591 -0.1091 -0.7668
  521MOL0     H68735   4.848   0.026   5.324 -1.3592  0.9706 -3.3578
  521MOL0     H68736   5.310   0.048   5.182  1.1882 -1.5505 -0.2243
  521MOL0     H68737   5.517  -0.037   5.157  1.2655  0.1358  0.2090
  521MOL0     H68738   5.662  -0.167   5.260 -1.4800  1.0971  0.6100
  521MOL0     H68739   5.829  -0.144   5.334  1.2692  0.4823 -1.0435
  521MOL0     H68740   5.920  -0.040   5.144  0.0086  0.1278  0.2174
  521MOL0     H68741   5.762  -0.040   5.059 -0.8295 -4.2668 -2.6971
  521MOL0     H68742   5.766  -0.296   5.098  0.5529 -1.7551 -0.7529
  521MOL0     H68743   5.932  -0.292   5.122  2.1049  4.7532  1.3707
  521MOL0     H68744   5.779  -0.170   4.888  1.0237 -0.0236 -1.7965
  521MOL0     H68745   5.959  -0.179   4.894  1.8932 -2.8752  0.9544
  521MOL0     H68746   5.852  -0.345   4.751 -2.7855  3.3956  0.6996
  521MOL0     H68747   5.753  -0.405   4.887 -0.1094 -0.9717 -1.2201
  521MOL0     H68748   5.939  -0.502   4.998  2.0283 -1.6400  0.0635
  521MOL0     H68749   6.060  -0.443   4.884  0.2798  0.4763 -3.2450
  521MOL0     H68750   5.841  -0.651   4.826 -1.0026  0.8397 -2.6633
  521MOL0     H68751   5.939  -0.575   4.707  0.6041  3.7188  0.7242
  521MOL0     H68752   6.010  -0.814   4.825  0.0641 -0.1544 -1.0387
  521MOL0     H68753   6.047  -0.715   4.962 -1.6704 -1.9406  0.0698
  521MOL0     H68754   5.651   0.167   5.515  1.9435 -0.6028 -2.0798
  521MOL0     H68755   5.414   0.253   5.546  3.5725 -0.4164  1.4235
  521MOL0     H68756   5.043   0.391   5.467 -1.5060  1.5662  0.4978
  521MOL0     H68757   4.817   0.485   5.494  0.5636  0.9124 -2.8889
  521MOL0     H68758   3.820   1.181   4.295 -1.2255 -3.8798  1.3394
  521MOL0     H68759   3.875   1.272   4.052 -0.4832  0.9828 -3.0540
  521MOL0     H68760   3.658   1.217   3.446 -0.8614  4.1770 -1.1098
  521MOL0     H68761   3.811   1.280   3.273 -0.5330  2.5867  0.2053
  521MOL0     H68762   4.250   1.258   3.297  0.8982 -0.0704 -1.7209
  521MOL0     H68763   4.240   1.425   3.359  2.1033 -0.3825  1.4043
  521MOL0     H68764   4.194   1.328   3.071  2.4781 -0.8679 -1.0570
  521MOL0     H68765   4.173   1.498   3.125  0.8584  0.6261  1.7141
  521MOL0     H68766   4.432   1.348   3.096 -1.1983 -0.7881  0.5037
  521MOL0     H68767   4.409   1.458   3.234 -1.3941 -5.6831  2.6687
  521MOL0     H68768   4.355   1.643   3.038  0.7498 -0.2041  2.3049
  521MOL0     H68769   4.498   1.555   3.027  0.4300 -0.9238  0.5254
  521MOL0     H68770   4.319   1.423   2.676  0.0711 -0.6021  0.4662
  521MOL0     H68771   4.128   1.307   3.557  0.9812  0.4969  1.1274
  521MOL0     H68772   3.972   1.265   3.735 -1.6295 -0.6943  0.7367
  522MOL0     O68773   5.037   5.822   7.935  0.1097  0.5392 -0.2949
  522MOL0     C68774   4.925   5.855   7.977  0.2139 -0.3152 -0.4560
  522MOL0     O68775   4.899   5.973   8.047 -0.0573  0.4075  0.3934
  522MOL0     C68776   5.005   6.063   8.068 -0.5274 -0.3891  0.8172
  522MOL0     C68777   5.021   6.134   8.186  0.0726  0.4464 -0.3053
  522MOL0     C68778   5.097   6.254   8.194  0.4233 -0.6900 -1.0621
  522MOL0     C68779   5.169   6.299   8.088  0.4962  0.1723  0.3355
  522MOL0     O68780   5.247   6.413   8.108 -0.0075  0.2130  0.8062
  522MOL0     C68781   5.292   6.472   7.983 -0.5692 -1.0661 -0.2701
  522MOL0     C68782   5.340   6.617   8.023 -0.1246 -0.2049  0.6433
  522MOL0     C68783   5.467   6.616   8.112 -0.4945 -0.1831 -0.0930
  522MOL0     C68784   5.494   6.747   8.179  0.2906  0.1811 -0.3460
  522MOL0     C68785   5.609   6.744   8.285 -0.6413  1.6103 -0.3186
  522MOL0     C68786   5.734   6.676   8.235 -0.1555  0.4246 -0.5623
  522MOL0     C68787   5.864   6.689   8.324 -0.0492 -0.4999 -0.2757
  522MOL0     C68788   5.972   6.590   8.276  0.1645 -0.2217 -0.5748
  522MOL0     N68789   6.032   6.643   8.145  0.3441 -0.2561  0.5281
  522MOL0     C68790   6.028   6.581   8.019 -0.1807 -0.4094  0.3174
  522MOL0     C68791   6.090   6.670   7.938 -0.7505 -0.1682 -1.0908
  522MOL0     C68792   6.105   6.658   7.784  0.0190  0.3005 -0.2789
  522MOL0     C68793   6.248   6.651   7.745 -0.3275 -0.1653  0.3274
  522MOL0     C68794   6.270   6.586   7.607 -0.9231 -0.8562  0.9558
  522MOL0     C68795   6.248   6.689   7.499 -0.3377 -1.2719  1.0009
  522MOL0     O68796   6.233   6.641   7.365 -0.7001  0.0435  0.5444
  522MOL0     C68797   6.117   6.578   7.330 -0.1341 -1.0913 -0.1146
  522MOL0     C68798   6.102   6.529   7.200 -0.5319  0.5777  0.2987
  522MOL0     C68799   5.973   6.480   7.166  0.0259  0.7260 -0.4980
  522MOL0     C68800   5.861   6.480   7.254  0.1833  0.1374  0.1474
  522MOL0     C68801   5.736   6.409   7.224  1.0551  0.2754  0.5803
  522MOL0     O68802   5.736   6.314   7.116 -0.0596 -0.7710 -0.2685
  522MOL0     C68803   5.635   6.227   7.113 -0.0349  0.5830 -0.0582
  522MOL0     C68804   5.623   6.132   7.212  0.5307 -0.6324 -0.3705
  522MOL0     C68805   5.512   6.049   7.206  0.6387 -0.0221 -0.1878
  522MOL0     C68806   5.416   6.057   7.104  0.0549  0.4541  0.0940
  522MOL0     O68807   5.314   5.969   7.110  0.3112  0.4200 -0.6886
  522MOL0     C68808   5.203   5.979   7.017  0.9483  0.5211 -0.4550
  522MOL0     C68809   5.103   5.860   7.033 -0.8609 -0.9616 -0.2832
  522MOL0     C68810   4.978   5.853   6.943 -0.2957  0.3217  0.6438
  522MOL0     C68811   4.855   5.773   7.002  0.1125  0.2188 -0.4875
  522MOL0     C68812   4.869   5.631   6.964  0.3225  0.0298  0.2095
  522MOL0     C68813   4.749   5.553   7.001 -0.1552 -0.3170 -0.8132
  522MOL0     C68814   4.751   5.408   6.945  0.0937  0.9489 -0.8351
  522MOL0     C68815   4.824   5.317   7.039  0.5854  0.3000 -0.5193
  522MOL0    Cl68816   4.834   5.144   6.975  0.3046 -0.2332  0.2615
  522MOL0     C68817   5.428   6.149   7.003  0.0167 -0.2596 -1.0979
  522MOL0     C68818   5.538   6.230   7.012  0.5589 -0.8681 -0.0205
  522MOL0     O68819   5.639   6.438   7.297 -0.0476 -0.5278 -0.7035
  522MOL0     C68820   5.874   6.534   7.380 -0.0529 -1.0206 -0.8641
  522MOL0     C68821   6.006   6.572   7.416  0.8714 -0.1462  0.2172
  522MOL0     N68822   6.159   6.767   8.018  0.1703 -0.6502  0.5736
  522MOL0     N68823   6.122   6.747   8.134  0.0789 -0.8664 -0.3152
  522MOL0     C68824   5.177   6.216   7.972  0.1087  0.5191  0.1378
  522MOL0     C68825   5.095   6.101   7.962 -0.6991  0.0931  0.3839
  522MOL0     C68826   4.809   5.773   7.961 -0.0969 -0.0126 -0.2912
  522MOL0     C68827   4.679   5.819   7.992 -0.3249  0.6754  0.8177
  522MOL0     C68828   4.569   5.738   7.967  1.0418  0.6153 -0.5005
  522MOL0     C68829   4.582   5.601   7.924 -0.2765  0.1029 -0.5125
  522MOL0     O68830   4.481   5.513   7.917 -0.1162  0.6140 -0.9327
  522MOL0     C68831   4.361   5.533   8.002 -0.0772  0.7863  0.7856
  522MOL0     C68832   4.276   5.401   7.992 -0.6650  0.1441 -0.4682
  522MOL0     C68833   4.130   5.433   8.021 -0.3694  0.8083 -0.0677
  522MOL0     C68834   4.042   5.313   8.044  0.4574  0.7266  0.4170
  522MOL0     C68835   4.030   5.221   7.927 -1.0709  0.1196 -0.4776
  522MOL0     C68836   3.992   5.127   7.860 -0.3742 -0.9448  0.7379
  522MOL0     C68837   4.713   5.556   7.891 -0.1743 -0.5500  0.1834
  522MOL0     C68838   4.824   5.642   7.908  0.1198 -0.1560 -0.2457
  522MOL0     H68839   4.959   6.102   8.269  0.5683 -1.8199 -0.7391
  522MOL0     H68840   5.092   6.325   8.276  2.3938  0.4433 -1.8387
  522MOL0     H68841   5.215   6.476   7.906 -1.3673 -2.8482  0.3711
  522MOL0     H68842   5.379   6.418   7.944  0.5306  0.7208 -0.3703
  522MOL0     H68843   5.253   6.665   8.068  0.2121  2.0043 -0.8994
  522MOL0     H68844   5.367   6.675   7.934 -1.8478  0.9111  0.8013
  522MOL0     H68845   5.554   6.587   8.053  0.4702  1.0032  0.6960
  522MOL0     H68846   5.454   6.539   8.187  0.5392 -0.7804 -0.5134
  522MOL0     H68847   5.519   6.818   8.099  4.8757 -0.6329  0.1084
  522MOL0     H68848   5.401   6.780   8.226 -1.7780 -2.9066 -1.8915
  522MOL0     H68849   5.573   6.706   8.381  0.0261 -1.0367 -1.0192
  522MOL0     H68850   5.630   6.845   8.320 -1.3451  1.9926 -0.9761
  522MOL0     H68851   5.758   6.715   8.136  0.4425 -0.5820 -0.8329
  522MOL0     H68852   5.722   6.569   8.216 -0.5046  0.3445  0.0965
  522MOL0     H68853   5.901   6.792   8.321  2.0053 -1.1980 -0.4291
  522MOL0     H68854   5.827   6.680   8.427 -0.2403  0.9508 -0.1871
  522MOL0     H68855   5.930   6.491   8.257  2.3903 -0.9603 -2.0347
  522MOL0     H68856   6.059   6.588   8.342 -0.9498 -1.1674  0.9107
  522MOL0     H68857   5.969   6.495   7.987 -1.6792  1.6738 -3.1009
  522MOL0     H68858   6.062   6.742   7.729 -0.6456  0.0148 -0.2096
  522MOL0     H68859   6.051   6.566   7.759  0.2243  0.5814 -1.8839
  522MOL0     H68860   6.297   6.590   7.822 -0.8329 -0.1422  0.6718
  522MOL0     H68861   6.312   6.739   7.759  0.1183 -0.4869  0.3565
  522MOL0     H68862   6.372   6.545   7.597 -1.6978 -2.3289 -2.1562
  522MOL0     H68863   6.205   6.498   7.599 -0.4472 -1.3790  2.3913
  522MOL0     H68864   6.339   6.748   7.509  0.6417 -1.4350 -3.9613
  522MOL0     H68865   6.163   6.754   7.519  0.8441  0.2195  1.2885
  522MOL0     H68866   6.189   6.527   7.135  0.2314 -3.9927  1.1428
  522MOL0     H68867   5.958   6.427   7.073  0.0391 -0.9229  0.3998
  522MOL0     H68868   5.700   6.121   7.288 -0.7111  1.0114  1.2193
  522MOL0     H68869   5.509   5.973   7.283  0.1476 -1.5525 -1.6498
  522MOL0     H68870   5.222   5.984   6.909 -1.0575  3.0656 -0.7944
  522MOL0     H68871   5.149   6.073   7.032  1.3988  1.0219 -1.8008
  522MOL0     H68872   5.078   5.864   7.140  1.7743  1.1670  0.3575
  522MOL0     H68873   5.156   5.770   7.000 -0.4978  0.8350 -5.4185
  522MOL0     H68874   5.003   5.821   6.842  1.2371 -1.6870  1.5862
  522MOL0     H68875   4.940   5.955   6.940 -1.7067 -0.1701  0.9234
  522MOL0     H68876   4.848   5.775   7.111  1.7040  2.1929 -0.3703
  522MOL0     H68877   4.763   5.811   6.956  1.9277  5.1306 -0.6696
  522MOL0     H68878   4.948   5.574   7.012 -1.7419  0.0255  4.0001
  522MOL0     H68879   4.898   5.624   6.859  3.9632 -1.7191  1.2117
  522MOL0     H68880   4.657   5.601   6.967 -0.6554  0.6141  1.6526
  522MOL0     H68881   4.736   5.544   7.110  1.5958 -0.6346 -0.6003
  522MOL0     H68882   4.645   5.381   6.948  0.2153  0.4359 -1.0194
  522MOL0     H68883   4.800   5.383   6.850  0.9570 -0.9623  0.0577
  522MOL0     H68884   4.773   5.310   7.135  2.2973  0.6611  0.4594
  522MOL0     H68885   4.919   5.361   7.071 -0.3874  0.9365  1.6886
  522MOL0     H68886   5.352   6.164   6.927 -0.3893 -0.7186 -0.7882
  522MOL0     H68887   5.558   6.311   6.943  0.2313 -0.5306  0.2749
  522MOL0     H68888   5.798   6.539   7.457  0.2152  1.3083 -0.6749
  522MOL0     H68889   5.996   6.605   7.519 -2.8522 -0.6850  0.1630
  522MOL0     H68890   5.231   6.243   7.883 -0.0558  2.0090  0.4616
  522MOL0     H68891   5.110   6.036   7.876  1.8348  0.0573  0.8037
  522MOL0     H68892   4.657   5.921   8.022 -1.6531  0.2857  1.2303
  522MOL0     H68893   4.470   5.770   7.998  0.8228  1.6613 -2.1663
  522MOL0     H68894   4.306   5.613   7.952  0.3764 -0.2133 -1.4431
  522MOL0     H68895   4.386   5.567   8.103 -2.7903  1.4901  1.3006
  522MOL0     H68896   4.277   5.368   7.888 -2.1073  1.1195 -0.8298
  522MOL0     H68897   4.322   5.321   8.050 -0.6829  0.2862 -0.2567
  522MOL0     H68898   4.089   5.497   7.942 -0.0463  1.5405  0.3507
  522MOL0     H68899   4.146   5.493   8.111  1.7525  0.7642 -0.3465
  522MOL0     H68900   4.081   5.254   8.127 -0.9561  0.8997  1.2333
  522MOL0     H68901   3.934   5.329   8.056  0.3260  0.7115 -0.6047
  522MOL0     H68902   3.965   5.039   7.803  0.1368 -0.7383  0.1708
  522MOL0     H68903   4.742   5.462   7.846 -1.5754 -0.8756 -0.0749
  522MOL0     H68904   4.920   5.602   7.878  0.7771  0.6840  0.6685
  523MOL0     O68905   5.492  10.132   6.618  0.4744  0.0638 -0.0868
  523MOL0     C68906   5.462  10.107   6.505 -0.3131  0.9058 -0.0263
  523MOL0     O68907   5.335  10.129   6.458 -0.4923  0.1619  1.1428
  523MOL0     C68908   5.231  10.156   6.539  0.0578  0.7421 -0.0154
  523MOL0     C68909   5.133  10.259   6.515 -0.1561 -0.6465 -0.0967
  523MOL0     C68910   5.005  10.255   6.580 -1.2001  0.8758 -0.1735
  523MOL0     C68911   4.981  10.162   6.677 -0.3298  0.7248 -0.3390
  523MOL0     O68912   4.877  10.149   6.753  0.3348 -0.8578 -0.2555
  523MOL0     C68913   4.836  10.273   6.823 -0.3054  0.7708  0.2703
  523MOL0     C68914   4.697  10.309   6.777 -0.5912 -0.0753  0.8848
  523MOL0     C68915   4.644  10.423   6.850  0.3735  0.6695 -0.4208
  523MOL0     C68916   4.491  10.407   6.848 -0.4611  0.2117 -0.2324
  523MOL0     C68917   4.421  10.536   6.908  0.5663 -0.3736 -0.0535
  523MOL0     C68918   4.266  10.538   6.873 -1.0613  0.1323 -0.1828
  523MOL0     C68919   4.197  10.647   6.953 -0.8057  0.1911 -0.5662
  523MOL0     C68920   4.056  10.663   6.894 -0.8872 -0.8956  0.2808
  523MOL0     N68921   3.997  10.785   6.940  0.0328 -0.9034  0.6988
  523MOL0     C68922   3.982  10.818   7.079 -0.8144  0.0913  0.7163
  523MOL0     C68923   3.963  10.951   7.079  0.1879 -0.4522 -0.6708
  523MOL0     C68924   3.940  11.043   7.196  0.4440  0.5895  0.4438
  523MOL0     C68925   3.804  11.020   7.269  0.5348 -0.3761  0.6475
  523MOL0     C68926   3.794  11.125   7.380  0.6193 -0.2399 -0.0545
  523MOL0     C68927   3.647  11.145   7.423 -0.1694  0.1281 -0.3476
  523MOL0     O68928   3.557  11.205   7.329  0.0223  0.3430 -0.0638
  523MOL0     C68929   3.430  11.218   7.375 -0.1320 -0.6910 -0.2682
  523MOL0     C68930   3.396  11.353   7.400 -0.0065 -0.4787 -0.0399
  523MOL0     C68931   3.278  11.391   7.456  0.1788  0.5932  0.0286
  523MOL0     C68932   3.193  11.288   7.510 -0.0854  0.4643  0.5349
  523MOL0     C68933   3.073  11.305   7.590 -0.1115  0.2740  0.5503
  523MOL0     O68934   3.013  11.195   7.645  0.8641  0.4919  0.0922
  523MOL0     C68935   2.893  11.222   7.712 -0.3008 -0.0767  0.4970
  523MOL0     C68936   2.896  11.291   7.827  0.2289 -0.0348 -0.4338
  523MOL0     C68937   2.779  11.336   7.902  0.4904  0.2872 -0.5143
  523MOL0     C68938   2.656  11.286   7.857  0.6113  0.4522  0.5717
  523MOL0     O68939   2.539  11.303   7.931  0.4225 -0.5422 -0.4865
  523MOL0     C68940   2.400  11.275   7.885 -0.0192  0.4786  0.3841
  523MOL0     C68941   2.331  11.261   8.023 -0.2360 -1.2641 -0.8448
  523MOL0     C68942   2.194  11.188   8.000 -0.4336 -0.8785 -0.2505
  523MOL0     C68943   2.131  11.171   8.136 -0.3813 -0.4336 -0.5234
  523MOL0     C68944   2.097  11.298   8.224 -0.0163  0.2696 -0.7829
  523MOL0     C68945   2.056  11.425   8.147 -0.5190  0.0327  0.9618
  523MOL0     C68946   1.975  11.535   8.230 -0.2921  0.5189  0.2707
  523MOL0     C68947   1.939  11.652   8.140  0.7794  0.6213  1.2259
  523MOL0    Cl68948   1.920  11.787   8.263  0.2182 -0.0071 -0.6947
  523MOL0     C68949   2.646  11.217   7.732 -0.4320  0.2489  0.4166
  523MOL0     C68950   2.768  11.175   7.672  0.1799 -0.0161  0.2660
  523MOL0     O68951   3.028  11.422   7.594 -0.4824  0.1343  0.9572
  523MOL0     C68952   3.241  11.149   7.489  0.4838 -0.0756 -0.0347
  523MOL0     C68953   3.356  11.119   7.424  0.1273  0.4165  0.2162
  523MOL0     N68954   3.961  10.999   6.949 -0.5116 -0.7830 -1.0871
  523MOL0     N68955   3.987  10.900   6.868  0.3417  0.3230  0.4528
  523MOL0     C68956   5.087  10.071   6.712  0.0021  0.1998  0.6016
  523MOL0     C68957   5.211  10.065   6.649  1.3546  0.1542  0.0070
  523MOL0     C68958   5.557  10.047   6.407 -0.6176 -0.2287 -1.0527
  523MOL0     C68959   5.541  10.070   6.269 -0.1786  0.1022 -0.1042
  523MOL0     C68960   5.650  10.029   6.179 -0.0460  0.2021  0.4750
  523MOL0     C68961   5.755   9.951   6.233 -1.1887  0.1267  0.1510
  523MOL0     O68962   5.854   9.897   6.152  0.6116 -0.2309  0.0445
  523MOL0     C68963   5.962   9.983   6.127  0.6434  0.0035 -0.5528
  523MOL0     C68964   6.030   9.962   5.991 -0.1809 -0.2598 -0.2284
  523MOL0     C68965   6.088   9.821   5.963  0.2980  0.0955  0.9924
  523MOL0     C68966   6.174   9.827   5.845 -0.9048  0.6834  1.2798
  523MOL0     C68967   6.119   9.879   5.717  0.5857  0.1610 -0.0725
  523MOL0     C68968   6.078   9.906   5.612  0.0926 -0.0014  0.0198
  523MOL0     C68969   5.769   9.947   6.373  0.2253  0.2929 -0.3218
  523MOL0     C68970   5.673   9.993   6.463 -0.1540 -0.2220 -0.0527
  523MOL0     H68971   5.141  10.326   6.429 -0.5544 -1.0493 -0.4501
  523MOL0     H68972   4.932  10.328   6.545 -1.0610  0.5936 -1.0849
  523MOL0     H68973   4.911  10.351   6.803  0.3607 -0.3722 -2.0359
  523MOL0     H68974   4.829  10.256   6.931  2.2892  1.4192  0.6108
  523MOL0     H68975   4.630  10.224   6.793 -3.2131  1.5507 -0.7161
  523MOL0     H68976   4.698  10.327   6.669  1.6471 -4.4228 -0.0514
  523MOL0     H68977   4.672  10.519   6.806  0.0368  0.4676 -1.0843
  523MOL0     H68978   4.686  10.433   6.951 -0.9390 -3.4081  0.7111
  523MOL0     H68979   4.460  10.410   6.743 -0.9124  3.6082 -0.1033
  523MOL0     H68980   4.449  10.312   6.881  1.1269 -0.2438  0.6009
  523MOL0     H68981   4.464  10.625   6.862  0.4790 -0.5974 -0.5758
  523MOL0     H68982   4.426  10.539   7.017 -1.9249 -3.1255  0.2410
  523MOL0     H68983   4.223  10.440   6.896 -2.2211  0.7461  0.3300
  523MOL0     H68984   4.258  10.556   6.765  1.4933 -1.0065 -0.6417
  523MOL0     H68985   4.194  10.615   7.057 -1.9328  0.5739 -0.4666
  523MOL0     H68986   4.251  10.742   6.954 -0.9395  0.2779 -1.2235
  523MOL0     H68987   4.000  10.578   6.933 -1.1977 -0.9893 -0.3700
  523MOL0     H68988   4.057  10.658   6.785  0.7531  3.3294 -0.0879
  523MOL0     H68989   3.998  10.763   7.171  0.2775  2.8994  2.3434
  523MOL0     H68990   3.943  11.149   7.166  0.1508 -0.1590 -2.6040
  523MOL0     H68991   4.020  11.033   7.269 -0.1424 -0.0250  1.0106
  523MOL0     H68992   3.778  10.921   7.309  1.1908 -0.7416  0.1861
  523MOL0     H68993   3.730  11.050   7.195  2.3602  0.0330 -1.0950
  523MOL0     H68994   3.850  11.078   7.462  0.3986  0.3065  0.4152
  523MOL0     H68995   3.835  11.222   7.354 -0.8475 -0.2774 -2.9332
  523MOL0     H68996   3.641  11.202   7.516  2.2166 -1.2802  0.7641
  523MOL0     H68997   3.618  11.043   7.450  4.8775 -1.4415  0.2948
  523MOL0     H68998   3.460  11.432   7.362  1.2572 -1.7382 -0.6366
  523MOL0     H68999   3.253  11.496   7.463 -2.1815  0.0642  0.4472
  523MOL0     H69000   2.992  11.320   7.870  0.8070 -0.8294 -1.1630
  523MOL0     H69001   2.789  11.402   7.987 -2.0289  1.6581 -1.1879
  523MOL0     H69002   2.402  11.176   7.839  1.0621  0.0472  1.3198
  523MOL0     H69003   2.348  11.348   7.823 -0.4446 -0.7224 -0.7292
  523MOL0     H69004   2.327  11.363   8.063  3.5569 -1.5881  0.8505
  523MOL0     H69005   2.402  11.198   8.078 -0.6231 -2.5919 -1.8062
  523MOL0     H69006   2.200  11.101   7.934 -3.0392 -0.6987 -0.8122
  523MOL0     H69007   2.130  11.248   7.936 -3.3756 -4.0967 -0.6250
  523MOL0     H69008   2.037  11.116   8.125 -0.3862 -0.4861 -0.2233
  523MOL0     H69009   2.200  11.116   8.200 -0.2259  0.1596 -0.1773
  523MOL0     H69010   2.190  11.320   8.278 -0.9891 -0.2482  1.2015
  523MOL0     H69011   2.023  11.263   8.296 -1.5546 -1.2034 -2.9418
  523MOL0     H69012   1.993  11.408   8.059  3.0652  2.2305 -2.3437
  523MOL0     H69013   2.146  11.476   8.112 -1.0990  0.3883 -0.0598
  523MOL0     H69014   1.888  11.484   8.271  0.6756  0.9381  3.0347
  523MOL0     H69015   2.041  11.567   8.311 -0.2317 -2.4058  1.4831
  523MOL0     H69016   1.848  11.633   8.083  2.6133 -0.7134 -1.4397
  523MOL0     H69017   2.020  11.672   8.070  2.0072  0.1770  2.4809
  523MOL0     H69018   2.549  11.192   7.691 -1.1791  0.7788  1.7978
  523MOL0     H69019   2.763  11.126   7.576 -0.6851  1.8145 -0.6661
  523MOL0     H69020   3.183  11.064   7.522 -0.9425 -0.2050 -2.5805
  523MOL0     H69021   3.393  11.018   7.414  2.3317  1.2382 -0.4568
  523MOL0     H69022   5.065  10.008   6.798 -2.3628 -0.9293 -0.7276
  523MOL0     H69023   5.293  10.000   6.681  1.8378  0.3538 -0.7960
  523MOL0     H69024   5.450  10.099   6.217  0.2603 -0.8572 -1.4792
  523MOL0     H69025   5.635  10.048   6.073 -1.1883 -2.6154  0.0603
  523MOL0     H69026   6.038   9.972   6.204  3.2159  0.9443 -2.7848
  523MOL0     H69027   5.925  10.086   6.130  2.4083  0.7765 -2.4309
  523MOL0     H69028   5.952   9.978   5.916  1.6808  1.8641 -1.8283
  523MOL0     H69029   6.102  10.038   5.958  1.3913 -1.4696  0.2796
  523MOL0     H69030   6.006   9.750   5.950 -1.1532  1.3905  2.6220
  523MOL0     H69031   6.155   9.795   6.046 -0.2379 -1.1619  1.0396
  523MOL0     H69032   6.266   9.885   5.855 -0.9282  1.3690 -1.5766
  523MOL0     H69033   6.194   9.723   5.818 -0.1657  0.3322  3.0485
  523MOL0     H69034   6.039   9.926   5.514  1.3262 -0.6165 -0.6204
  523MOL0     H69035   5.847   9.891   6.422 -1.5286  0.1165  2.4928
  523MOL0     H69036   5.695   9.974   6.567 -1.1183  0.4122  0.2784
  524MOL0     O69037   4.523   2.837   5.262  0.1823  0.6067  0.1121
  524MOL0     C69038   4.570   2.950   5.241 -0.9975 -0.1649 -0.3935
  524MOL0     O69039   4.489   3.061   5.218  0.2397  0.3758  0.0689
  524MOL0     C69040   4.345   3.061   5.200 -0.0228  0.8442 -0.2316
  524MOL0     C69041   4.292   3.189   5.211 -0.8574  0.3465  0.1547
  524MOL0     C69042   4.161   3.220   5.175  0.5294  0.6009  0.2883
  524MOL0     C69043   4.081   3.122   5.123 -0.6191 -0.2704  0.9045
  524MOL0     O69044   3.953   3.129   5.078 -0.0848 -0.2282 -0.3253
  524MOL0     C69045   3.889   3.234   5.013 -0.3236  0.2335  1.1539
  524MOL0     C69046   3.933   3.262   4.865 -0.2470  0.2527  0.3131
  524MOL0     C69047   4.057   3.344   4.844  0.0164  0.0316  0.0537
  524MOL0     C69048   4.173   3.269   4.764  0.1053 -0.1732  0.1387
  524MOL0     C69049   4.290   3.359   4.736 -0.3198 -0.2888  0.0274
  524MOL0     C69050   4.369   3.382   4.866 -0.0116 -0.3596 -0.0562
  524MOL0     C69051   4.493   3.475   4.840  1.3693  0.1261  0.9707
  524MOL0     C69052   4.582   3.488   4.959  0.0775 -0.1511 -0.0877
  524MOL0     N69053   4.717   3.536   4.921 -0.4942 -0.3799 -0.5037
  524MOL0     C69054   4.755   3.671   4.925  0.1881  0.6310 -0.1948
  524MOL0     C69055   4.859   3.680   4.853 -0.2995 -0.2360  0.3363
  524MOL0     C69056   4.934   3.806   4.837  1.1652 -0.0123 -0.3585
  524MOL0     C69057   5.047   3.795   4.736  0.3908  0.4001 -0.4948
  524MOL0     C69058   5.169   3.721   4.799 -0.5441 -1.0530 -0.1994
  524MOL0     C69059   5.298   3.757   4.735  0.1420  0.1538  0.4509
  524MOL0     O69060   5.325   3.901   4.751  0.4511 -0.1561  0.0638
  524MOL0     C69061   5.448   3.945   4.719  0.2130  0.8211  0.2979
  524MOL0     C69062   5.464   4.085   4.721  0.1020 -0.5863 -0.6006
  524MOL0     C69063   5.582   4.140   4.673  0.1699  0.5976  0.2619
  524MOL0     C69064   5.694   4.057   4.632 -0.5861 -0.2391 -0.3754
  524MOL0     C69065   5.814   4.114   4.570 -0.2556  0.5903  0.8341
  524MOL0     O69066   5.939   4.051   4.583  0.0743 -0.1264  0.1545
  524MOL0     C69067   6.039   4.094   4.506 -0.1534 -1.0147 -0.2703
  524MOL0     C69068   6.161   4.105   4.562  0.2418 -0.2421 -0.3244
  524MOL0     C69069   6.271   4.140   4.479 -0.6404  0.2530  0.0632
  524MOL0     C69070   6.261   4.187   4.345  0.6464  0.4660 -0.4472
  524MOL0     O69071   6.373   4.236   4.293  0.0946  0.3044 -0.5895
  524MOL0     C69072   6.363   4.279   4.155  0.8386  0.4095  0.3957
  524MOL0     C69073   6.501   4.307   4.084  0.5987 -0.0818  0.1259
  524MOL0     C69074   6.580   4.176   4.078  1.1815 -0.1707 -0.1634
  524MOL0     C69075   6.708   4.202   4.005 -0.7960 -0.7495 -0.4649
  524MOL0     C69076   6.796   4.076   3.975  0.5780  0.6862  0.0193
  524MOL0     C69077   6.946   4.092   3.983  0.2540 -0.2901 -0.2686
  524MOL0     C69078   6.989   4.194   3.883 -0.3433 -0.3585 -0.5247
  524MOL0     C69079   7.015   4.150   3.747  0.0571  0.6318  0.5199
  524MOL0    Cl69080   6.886   4.048   3.656 -0.0083  0.0925  0.0644
  524MOL0     C69081   6.128   4.189   4.297 -0.5454 -0.1986  0.9098
  524MOL0     C69082   6.018   4.141   4.371 -0.0566 -0.3613  0.5117
  524MOL0     O69083   5.789   4.219   4.518 -0.7914 -0.2380 -0.1924
  524MOL0     C69084   5.681   3.914   4.636 -0.4725 -0.2462  0.6480
  524MOL0     C69085   5.561   3.864   4.686  0.7773 -0.6883 -0.5706
  524MOL0     N69086   4.902   3.552   4.813  0.3904 -0.0650 -0.0284
  524MOL0     N69087   4.808   3.471   4.839  1.1397 -0.2222  0.3562
  524MOL0     C69088   4.135   2.987   5.127  0.3176 -0.1392 -0.1597
  524MOL0     C69089   4.263   2.955   5.161 -0.3290 -0.4317 -0.9262
  524MOL0     C69090   4.717   2.956   5.237 -0.1042  0.3131  1.1577
  524MOL0     C69091   4.776   3.076   5.235  0.0111  0.0506 -0.7543
  524MOL0     C69092   4.915   3.089   5.230  0.7140 -0.5567 -0.1240
  524MOL0     C69093   4.999   2.986   5.209 -0.8636  0.3227 -0.0415
  524MOL0     O69094   5.135   3.002   5.185 -0.2955 -0.5240  0.0245
  524MOL0     C69095   5.220   2.889   5.208  0.6760  0.4372  0.4739
  524MOL0     C69096   5.358   2.908   5.152  0.7983  0.2639 -0.1963
  524MOL0     C69097   5.428   2.768   5.134  0.8803  0.4340 -0.7008
  524MOL0     C69098   5.560   2.774   5.043 -0.0694 -0.3052  0.1715
  524MOL0     C69099   5.631   2.649   5.015  1.8505 -0.1153 -0.2105
  524MOL0     C69100   5.686   2.552   4.975 -0.3089  0.6125  0.6344
  524MOL0     C69101   4.936   2.859   5.206 -0.1043 -0.1452  0.4884
  524MOL0     C69102   4.799   2.841   5.216 -0.6634 -0.4092 -1.4117
  524MOL0     H69103   4.361   3.264   5.250 -2.0911  0.9139  1.3424
  524MOL0     H69104   4.133   3.324   5.171  1.1847  0.7680 -0.0398
  524MOL0     H69105   3.896   3.329   5.066  1.0918 -0.6817  2.7233
  524MOL0     H69106   3.787   3.195   5.021  0.5049 -3.4316 -2.4551
  524MOL0     H69107   3.858   3.332   4.827  1.7477  1.7512 -1.0383
  524MOL0     H69108   3.934   3.172   4.802 -1.6743 -0.3487  1.0987
  524MOL0     H69109   4.103   3.366   4.940 -0.9685 -2.0405  1.0733
  524MOL0     H69110   4.037   3.426   4.775 -0.8212 -0.5341 -0.3890
  524MOL0     H69111   4.208   3.183   4.822 -2.0600 -0.7242  0.7055
  524MOL0     H69112   4.139   3.239   4.664  2.6296 -0.3972 -0.7231
  524MOL0     H69113   4.248   3.452   4.696 -1.6876 -1.2792 -0.9081
  524MOL0     H69114   4.349   3.309   4.658 -0.1521 -1.9171  1.1468
  524MOL0     H69115   4.407   3.285   4.898  2.1391  0.4781  0.0475
  524MOL0     H69116   4.303   3.432   4.938 -0.7722  1.2251 -1.7702
  524MOL0     H69117   4.555   3.417   4.771  1.9551  1.2693  0.5051
  524MOL0     H69118   4.472   3.572   4.793 -2.0738 -0.8542  0.1732
  524MOL0     H69119   4.606   3.390   5.002  0.9484 -1.4565 -3.2103
  524MOL0     H69120   4.538   3.543   5.042 -1.2199 -2.1961  0.6673
  524MOL0     H69121   4.701   3.755   4.967 -0.4436  0.2696 -0.2844
  524MOL0     H69122   4.982   3.840   4.930  0.1293  1.1893 -0.2395
  524MOL0     H69123   4.861   3.883   4.810 -0.9260 -1.0465  2.0306
  524MOL0     H69124   5.084   3.893   4.703  1.3771  0.4724  0.7516
  524MOL0     H69125   5.008   3.744   4.647 -1.9310  2.1026 -0.5593
  524MOL0     H69126   5.176   3.744   4.906  1.3151  3.2132 -1.0303
  524MOL0     H69127   5.162   3.612   4.796  0.5945 -1.3021  2.5329
  524MOL0     H69128   5.298   3.746   4.626  0.7986  0.6119  0.3975
  524MOL0     H69129   5.373   3.689   4.776  1.5831  1.5103  0.1534
  524MOL0     H69130   5.374   4.146   4.730  1.1263  0.6699  2.0716
  524MOL0     H69131   5.583   4.248   4.662  0.2368  0.3814 -2.6356
  524MOL0     H69132   6.175   4.079   4.667  2.6048  0.4602 -0.4097
  524MOL0     H69133   6.370   4.156   4.520  0.4387 -0.5353 -2.0822
  524MOL0     H69134   6.305   4.371   4.143  3.5830  1.9118 -3.0934
  524MOL0     H69135   6.307   4.198   4.106 -1.0216  0.2121  2.6457
  524MOL0     H69136   6.561   4.379   4.140  2.5443 -0.1515 -1.7044
  524MOL0     H69137   6.490   4.332   3.978 -0.9967 -2.8367 -0.4763
  524MOL0     H69138   6.523   4.098   4.027 -2.8965  3.4527 -1.7208
  524MOL0     H69139   6.597   4.145   4.182 -2.5881 -1.4717  0.2051
  524MOL0     H69140   6.682   4.254   3.912 -2.8360  3.0379  1.9268
  524MOL0     H69141   6.765   4.269   4.070  0.1239  0.3716 -2.3479
  524MOL0     H69142   6.757   4.032   3.882 -1.8187 -0.1585  1.3123
  524MOL0     H69143   6.769   4.007   4.056 -0.3348  1.0999  0.0850
  524MOL0     H69144   7.002   4.002   3.955 -0.0509  0.0150 -1.9046
  524MOL0     H69145   6.969   4.124   4.085 -1.8331  0.5172  0.0050
  524MOL0     H69146   6.921   4.279   3.881  0.9938  0.7887  0.7108
  524MOL0     H69147   7.084   4.233   3.920  0.3153 -3.6076  1.6140
  524MOL0     H69148   7.104   4.086   3.751 -0.4968 -0.1005  1.6893
  524MOL0     H69149   7.030   4.237   3.682 -0.2952  0.1213 -0.2529
  524MOL0     H69150   6.115   4.235   4.199  3.5896  3.5563  1.8134
  524MOL0     H69151   5.922   4.149   4.320 -0.8458  0.4825  2.0790
  524MOL0     H69152   5.772   3.858   4.616 -0.4781 -0.1849  0.4467
  524MOL0     H69153   5.548   3.756   4.692 -3.4531 -0.2683  0.8503
  524MOL0     H69154   4.063   2.911   5.097 -1.8428  1.8602 -0.4192
  524MOL0     H69155   4.283   2.849   5.147 -0.8895 -0.7097  0.2331
  524MOL0     H69156   4.720   3.169   5.230  0.6646  1.0931  4.7280
  524MOL0     H69157   4.955   3.189   5.236  1.6964 -1.0412  2.4333
  524MOL0     H69158   5.180   2.802   5.155  0.2332  0.7075  0.3544
  524MOL0     H69159   5.214   2.874   5.317  0.1620 -0.7055  0.3082
  524MOL0     H69160   5.332   2.958   5.058 -1.2222  1.6566  1.0130
  524MOL0     H69161   5.424   2.978   5.204  0.6008 -0.0857  0.5307
  524MOL0     H69162   5.354   2.698   5.094  2.4746 -0.5181 -2.0943
  524MOL0     H69163   5.450   2.735   5.236 -1.3522  3.3623  0.8937
  524MOL0     H69164   5.527   2.816   4.948  2.9932 -2.1446 -1.8621
  524MOL0     H69165   5.626   2.846   5.092 -2.4426  0.1739  3.0262
  524MOL0     H69166   5.738   2.462   4.948 -1.4856  0.8333 -2.8865
  524MOL0     H69167   4.985   2.762   5.199  0.6935  0.2862 -0.0638
  524MOL0     H69168   4.768   2.737   5.215  1.2595 -1.1251  1.3020
  525MOL0     O69169   1.849   4.559   7.697 -0.1217 -0.7488  0.0954
  525MOL0     C69170   1.815   4.444   7.660 -0.0322 -1.1013 -0.1841
  525MOL0     O69171   1.895   4.340   7.666  0.1067  0.3112  0.4629
  525MOL0     C69172   2.017   4.341   7.718 -0.4458  0.2542 -1.0051
  525MOL0     C69173   2.113   4.441   7.687 -0.7939  0.1603 -0.0286
  525MOL0     C69174   2.235   4.433   7.751 -0.2924 -0.0926 -1.3846
  525MOL0     C69175   2.272   4.330   7.843 -0.4329  0.7608  0.8496
  525MOL0     O69176   2.401   4.329   7.902 -0.1279 -0.3190  0.3728
  525MOL0     C69177   2.384   4.349   8.043 -0.5310 -0.0613 -0.8436
  525MOL0     C69178   2.491   4.430   8.108 -0.5776  0.5697 -0.3753
  525MOL0     C69179   2.640   4.386   8.102  0.9231  0.5836 -0.1041
  525MOL0     C69180   2.742   4.484   8.156 -0.5520  0.1931 -0.0732
  525MOL0     C69181   2.879   4.419   8.186  0.3166 -1.1575 -0.2258
  525MOL0     C69182   2.877   4.332   8.310  0.1508 -0.0468  0.4866
  525MOL0     C69183   2.998   4.245   8.319 -0.3162 -0.1652  0.2401
  525MOL0     C69184   3.058   4.225   8.457  0.8284 -1.0131  0.0442
  525MOL0     N69185   2.979   4.153   8.563  0.3170  0.6925  1.1181
  525MOL0     C69186   3.022   4.045   8.640 -0.1377  0.3792  0.1993
  525MOL0     C69187   2.927   4.033   8.735  0.4073 -0.8747 -0.2960
  525MOL0     C69188   2.907   3.920   8.843  0.2323  0.6962  0.6042
  525MOL0     C69189   2.799   3.817   8.836 -0.2232 -0.3257  0.2444
  525MOL0     C69190   2.667   3.876   8.887  0.2679 -0.0100 -0.5150
  525MOL0     C69191   2.658   3.899   9.039 -0.6130 -0.4627 -0.7820
  525MOL0     O69192   2.576   3.804   9.108 -0.4241 -0.3884 -0.4107
  525MOL0     C69193   2.550   3.841   9.238  0.4271  1.2507 -0.5696
  525MOL0     C69194   2.414   3.830   9.269  0.8020  1.2692 -0.0161
  525MOL0     C69195   2.360   3.865   9.397 -0.2903 -0.1890 -0.9419
  525MOL0     C69196   2.440   3.906   9.499 -0.8684  0.9462  1.0343
  525MOL0     C69197   2.394   3.960   9.629  0.7020 -0.8332 -0.3791
  525MOL0     O69198   2.260   3.939   9.649  0.4780 -0.3308 -0.1569
  525MOL0     C69199   2.200   3.994   9.758  0.8261 -0.2672 -0.1661
  525MOL0     C69200   2.162   4.128   9.768 -0.1673 -0.2809  0.3532
  525MOL0     C69201   2.095   4.171   9.890 -0.7926  0.0312 -0.1625
  525MOL0     C69202   2.053   4.088   9.994  0.5414  0.3563 -0.3982
  525MOL0     O69203   1.980   4.138  10.099 -0.6272  0.8301  0.2311
  525MOL0     C69204   2.008   4.094  10.232 -0.6433 -0.8204  0.8870
  525MOL0     C69205   1.882   4.111  10.321 -0.4597  1.1990  0.7715
  525MOL0     C69206   1.790   3.991  10.297 -0.4082 -0.2962 -0.3771
  525MOL0     C69207   1.643   4.015  10.327 -0.3449 -1.3851 -0.3949
  525MOL0     C69208   1.605   4.082  10.451  0.0351  0.2556 -0.3377
  525MOL0     C69209   1.638   3.987  10.562  0.1931  0.4292 -0.4265
  525MOL0     C69210   1.560   4.023  10.690  0.4234 -0.4521 -0.5830
  525MOL0     C69211   1.406   4.018  10.679  0.1110 -1.2697  0.1609
  525MOL0    Cl69212   1.344   3.982  10.843 -0.5005  0.2842 -0.3924
  525MOL0     C69213   2.099   3.956   9.979  0.0861 -0.2973  0.3867
  525MOL0     C69214   2.167   3.913   9.869  0.4857 -0.1143  0.9386
  525MOL0     O69215   2.468   4.024   9.699 -0.0185  0.5626  0.1039
  525MOL0     C69216   2.577   3.921   9.455  0.8069 -0.3752 -0.0002
  525MOL0     C69217   2.637   3.896   9.334  0.4637  0.1839 -0.3480
  525MOL0     N69218   2.838   4.136   8.716  0.0840  0.6943 -0.0867
  525MOL0     N69219   2.863   4.199   8.613  0.3739  0.4575  0.4762
  525MOL0     C69220   2.183   4.225   7.864  0.2389  0.6075  0.6438
  525MOL0     C69221   2.053   4.234   7.807  0.0486  0.2597  0.4090
  525MOL0     C69222   1.677   4.416   7.600 -0.0074 -0.7165 -0.2771
  525MOL0     C69223   1.634   4.286   7.581 -0.6461  0.3786  0.0718
  525MOL0     C69224   1.499   4.259   7.540  0.2727  0.9797  0.4137
  525MOL0     C69225   1.409   4.358   7.505 -0.1246  0.9582  0.0760
  525MOL0     O69226   1.272   4.332   7.468  0.2144 -0.6671 -0.1596
  525MOL0     C69227   1.186   4.447   7.464  0.1419 -0.2393 -0.2941
  525MOL0     C69228   1.041   4.407   7.427 -0.4420  1.2583  0.1395
  525MOL0     C69229   0.940   4.502   7.372  0.8449  0.1811 -0.8503
  525MOL0     C69230   0.905   4.602   7.478  0.3313  0.2313  0.1001
  525MOL0     C69231   0.982   4.725   7.466 -0.0566  0.0049 -0.9786
  525MOL0     C69232   1.057   4.816   7.440 -0.1630  0.4689 -0.2745
  525MOL0     C69233   1.462   4.492   7.516  0.2904  0.0777  0.8132
  525MOL0     C69234   1.586   4.523   7.563  1.1009  0.1179  1.3142
  525MOL0     H69235   2.082   4.515   7.613  1.4719  2.9879  1.6466
  525MOL0     H69236   2.309   4.512   7.739 -1.0026  0.8848  0.3003
  525MOL0     H69237   2.407   4.249   8.080  1.7403  0.2221 -1.3475
  525MOL0     H69238   2.286   4.388   8.075  0.4067  0.5336  1.5061
  525MOL0     H69239   2.450   4.430   8.210 -2.0270 -0.6150 -0.9071
  525MOL0     H69240   2.485   4.532   8.071 -3.2457  1.2676  1.6314
  525MOL0     H69241   2.659   4.355   7.999 -2.8195  2.7031 -1.6386
  525MOL0     H69242   2.649   4.295   8.162  0.5301 -0.9576 -2.2477
  525MOL0     H69243   2.757   4.563   8.082  0.9069 -1.1376 -1.2828
  525MOL0     H69244   2.715   4.527   8.253  0.9516  0.1253  0.4055
  525MOL0     H69245   2.947   4.504   8.199 -1.9568  1.7868 -4.9295
  525MOL0     H69246   2.911   4.351   8.106 -0.9752 -0.4387 -1.3823
  525MOL0     H69247   2.799   4.256   8.312  1.9898 -2.0145  0.7130
  525MOL0     H69248   2.874   4.398   8.397  2.7340 -0.8280  1.2587
  525MOL0     H69249   2.977   4.147   8.273  3.3590  0.4074 -3.2089
  525MOL0     H69250   3.074   4.284   8.251 -1.2018 -0.3216 -0.8628
  525MOL0     H69251   3.085   4.324   8.495  1.0156 -1.4501  1.0862
  525MOL0     H69252   3.143   4.161   8.431 -0.0169 -1.4739 -1.7581
  525MOL0     H69253   3.119   3.996   8.635  0.7330  2.0391 -0.0391
  525MOL0     H69254   2.917   3.965   8.942  2.9680 -0.0513  0.7656
  525MOL0     H69255   3.000   3.862   8.836 -0.9425 -1.1488 -0.6922
  525MOL0     H69256   2.834   3.728   8.889  1.9486 -0.4276 -1.2128
  525MOL0     H69257   2.781   3.790   8.731 -2.4087 -1.4577  0.8775
  525MOL0     H69258   2.646   3.968   8.832  1.0992 -0.3777 -1.4679
  525MOL0     H69259   2.583   3.808   8.869 -1.7537  1.9640  0.9427
  525MOL0     H69260   2.629   4.002   9.060  1.0380 -0.2686  0.8436
  525MOL0     H69261   2.759   3.886   9.081 -0.7116 -1.4491 -0.8158
  525MOL0     H69262   2.342   3.817   9.189  0.9451  1.4558 -0.1752
  525MOL0     H69263   2.252   3.876   9.391 -0.2025 -0.0067 -4.9565
  525MOL0     H69264   2.184   4.204   9.694  1.8885  1.3505  2.4683
  525MOL0     H69265   2.077   4.278   9.897 -2.4138  0.1557 -3.7279
  525MOL0     H69266   2.079   4.168  10.270 -2.8220  2.7561 -1.4864
  525MOL0     H69267   2.053   3.995  10.245 -1.9154 -1.3969  0.9884
  525MOL0     H69268   1.831   4.203  10.291 -2.2412 -0.2388 -0.8849
  525MOL0     H69269   1.919   4.114  10.423 -0.6218 -0.8736  0.9196
  525MOL0     H69270   1.818   3.906  10.359 -0.2523 -1.0259 -1.4115
  525MOL0     H69271   1.816   3.970  10.193  0.9052  0.5047 -0.2344
  525MOL0     H69272   1.620   4.082  10.244  2.9721 -1.2947 -1.4214
  525MOL0     H69273   1.593   3.918  10.314 -1.3273 -1.3279  2.3122
  525MOL0     H69274   1.497   4.101  10.457  0.1465  0.6903  0.3934
  525MOL0     H69275   1.671   4.169  10.458  1.5445 -0.6319 -2.5575
  525MOL0     H69276   1.740   4.009  10.594  0.1653 -1.5362  1.1987
  525MOL0     H69277   1.633   3.880  10.537 -0.1108 -0.1003  1.6979
  525MOL0     H69278   1.586   3.956  10.772 -2.2360 -1.4198 -0.4370
  525MOL0     H69279   1.581   4.122  10.733  0.8382 -0.5719 -0.5018
  525MOL0     H69280   1.389   3.939  10.605  1.2658 -1.6880  0.3138
  525MOL0     H69281   1.358   4.108  10.640 -0.4253 -1.7369 -0.2721
  525MOL0     H69282   2.066   3.891  10.059 -0.6073  0.5015  0.7601
  525MOL0     H69283   2.200   3.809   9.868  1.3245  0.1509 -0.1659
  525MOL0     H69284   2.641   3.958   9.534  0.5316  1.2684 -0.5038
  525MOL0     H69285   2.744   3.907   9.317  0.2821 -1.6815 -3.4360
  525MOL0     H69286   2.229   4.138   7.910 -1.1863 -0.8704 -0.5581
  525MOL0     H69287   1.980   4.154   7.813 -0.1079  0.4358  0.9353
  525MOL0     H69288   1.704   4.204   7.588 -0.2437  0.0793 -4.2869
  525MOL0     H69289   1.468   4.157   7.517 -2.2551  2.5096 -4.4930
  525MOL0     H69290   1.208   4.528   7.394 -1.4998  1.5440  1.1430
  525MOL0     H69291   1.189   4.506   7.556 -0.8384 -0.5294 -0.0572
  525MOL0     H69292   1.046   4.335   7.344 -1.6709 -1.3032  2.1456
  525MOL0     H69293   0.996   4.347   7.507  2.1789 -1.0061  0.1015
  525MOL0     H69294   0.850   4.449   7.338  0.4289  0.1812  0.2233
  525MOL0     H69295   0.975   4.541   7.276  0.9491 -2.2530 -1.8789
  525MOL0     H69296   0.799   4.620   7.462  0.0644 -1.8664 -0.8709
  525MOL0     H69297   0.904   4.561   7.579  0.6350  2.5013  1.0827
  525MOL0     H69298   1.119   4.902   7.425  2.3158 -1.2273 -0.4617
  525MOL0     H69299   1.408   4.580   7.482 -0.4129 -1.1944 -1.5824
  525MOL0     H69300   1.602   4.628   7.589  0.6106 -0.2359  3.1768
  526MOL0     O69301   8.603   4.206   2.687  0.0368 -0.2919 -0.4816
  526MOL0     C69302   8.627   4.217   2.574  0.5337 -0.1131 -0.1133
  526MOL0     O69303   8.591   4.134   2.474 -0.1535 -0.1466  0.5867
  526MOL0     C69304   8.503   4.030   2.500 -0.1676  0.9893 -0.1600
  526MOL0     C69305   8.537   3.894   2.456 -0.6887 -0.1261  0.2400
  526MOL0     C69306   8.444   3.792   2.471 -0.2590  0.2452 -0.1483
  526MOL0     C69307   8.319   3.811   2.537 -0.1897  0.6108  0.3272
  526MOL0     O69308   8.225   3.707   2.563 -0.9435  0.1650  1.1153
  526MOL0     C69309   8.276   3.606   2.646 -0.3137  0.6580  0.6863
  526MOL0     C69310   8.160   3.537   2.720 -0.2416  0.1831  0.2108
  526MOL0     C69311   8.197   3.429   2.822 -1.2256 -0.5640  0.0576
  526MOL0     C69312   8.077   3.367   2.879 -0.2558 -0.5088 -0.3845
  526MOL0     C69313   8.112   3.265   2.983  0.2867 -0.1102  0.2151
  526MOL0     C69314   7.983   3.180   3.011 -0.1902  0.8142  0.6752
  526MOL0     C69315   8.023   3.059   3.091  0.5040  0.3530 -0.6582
  526MOL0     C69316   7.902   2.972   3.150 -0.6612  0.4364  0.9651
  526MOL0     N69317   7.816   2.924   3.038  0.2303  0.3660 -1.1724
  526MOL0     C69318   7.681   2.961   3.031 -0.2564  0.5839  0.2022
  526MOL0     C69319   7.643   2.931   2.902 -0.9554 -0.0559  0.5779
  526MOL0     C69320   7.511   2.946   2.848  0.7076 -0.9259  0.3200
  526MOL0     C69321   7.437   2.813   2.857  0.4918 -0.0576 -0.0785
  526MOL0     C69322   7.300   2.831   2.784 -0.1926  0.6006  0.3705
  526MOL0     C69323   7.243   2.687   2.744  0.5359  0.7405  0.2781
  526MOL0     O69324   7.164   2.695   2.627 -0.3325 -0.1171  0.0225
  526MOL0     C69325   7.035   2.754   2.622  0.4829  0.2324  0.1878
  526MOL0     C69326   6.953   2.763   2.732  0.2010 -0.6654  0.1111
  526MOL0     C69327   6.827   2.828   2.729 -0.4700 -0.0257  0.8193
  526MOL0     C69328   6.782   2.884   2.610  0.0740  0.8535  0.3702
  526MOL0     C69329   6.646   2.946   2.592  0.2564  0.3335  0.3417
  526MOL0     O69330   6.556   2.906   2.684 -0.0946 -0.3501 -0.2043
  526MOL0     C69331   6.420   2.912   2.663  0.3380  0.4529  0.2434
  526MOL0     C69332   6.345   2.927   2.542  0.2953  0.3519 -0.7008
  526MOL0     C69333   6.204   2.937   2.539 -0.6143 -0.1387 -0.7582
  526MOL0     C69334   6.137   2.951   2.659 -0.0713  0.0203 -0.1354
  526MOL0     O69335   5.999   2.948   2.648 -0.1911  0.3064 -0.1045
  526MOL0     C69336   5.930   3.073   2.661  0.2828 -0.9036 -0.4426
  526MOL0     C69337   5.784   3.034   2.691 -0.9737 -0.1748  1.0517
  526MOL0     C69338   5.735   3.020   2.845 -0.2246 -0.2444  0.3532
  526MOL0     C69339   5.842   2.944   2.930 -0.4757 -0.4713  0.2465
  526MOL0     C69340   5.777   2.883   3.061  0.2450 -0.9171 -0.3429
  526MOL0     C69341   5.672   2.966   3.135 -0.7162 -0.4866  0.1163
  526MOL0     C69342   5.669   2.942   3.281  0.7801 -0.1669  0.6994
  526MOL0     C69343   5.590   3.050   3.349  0.2966  1.0144 -0.7331
  526MOL0    Cl69344   5.711   3.172   3.429 -0.3044 -0.7294  0.4001
  526MOL0     C69345   6.197   2.933   2.779  0.1009 -0.1524 -0.2423
  526MOL0     C69346   6.343   2.914   2.780  0.2106  0.3149 -1.1056
  526MOL0     O69347   6.631   3.006   2.488 -0.1916 -0.5636 -0.6140
  526MOL0     C69348   6.871   2.884   2.495  0.3480  1.1907 -0.4765
  526MOL0     C69349   6.998   2.817   2.497 -1.0142 -0.5036 -0.8375
  526MOL0     N69350   7.759   2.890   2.837  0.3566  1.4912  0.2738
  526MOL0     N69351   7.850   2.872   2.918  0.2702  0.5334 -0.0387
  526MOL0     C69352   8.296   3.940   2.584 -0.1709 -0.2348 -0.0826
  526MOL0     C69353   8.380   4.050   2.558 -0.3545 -0.7599 -0.2765
  526MOL0     C69354   8.734   4.308   2.524  0.0357 -0.7389  0.9854
  526MOL0     C69355   8.803   4.305   2.391  0.8513 -0.5075 -0.0161
  526MOL0     C69356   8.895   4.408   2.361 -0.4299 -1.8417 -0.3866
  526MOL0     C69357   8.929   4.503   2.455 -0.6192  0.0250 -0.0125
  526MOL0     O69358   9.019   4.601   2.431 -0.1634  0.3213  1.0194
  526MOL0     C69359   9.143   4.539   2.428 -0.2838  0.5760  0.0581
  526MOL0     C69360   9.194   4.494   2.561  1.0927 -0.3192  0.1105
  526MOL0     C69361   9.343   4.459   2.555  0.1692 -0.6937 -1.2474
  526MOL0     C69362   9.374   4.421   2.703 -1.1681  0.7493  0.8263
  526MOL0     C69363   9.510   4.362   2.706 -0.3142  0.5752  0.6729
  526MOL0     C69364   9.618   4.314   2.715  0.1387 -0.3080 -0.1831
  526MOL0     C69365   8.867   4.500   2.581 -0.5402 -0.0433 -0.3729
  526MOL0     C69366   8.769   4.417   2.613 -0.1322 -0.0458 -0.3233
  526MOL0     H69367   8.626   3.865   2.401 -1.1879 -0.4111 -0.4286
  526MOL0     H69368   8.480   3.697   2.434  2.4360  0.9507  0.4776
  526MOL0     H69369   8.341   3.655   2.719  0.5363  1.3098 -0.4712
  526MOL0     H69370   8.343   3.545   2.584  1.0171  1.6372  1.1236
  526MOL0     H69371   8.115   3.478   2.639 -1.0679  1.3772 -0.2321
  526MOL0     H69372   8.081   3.601   2.759 -0.7937 -0.0738 -0.4564
  526MOL0     H69373   8.258   3.477   2.899  0.7170 -2.6119 -0.0728
  526MOL0     H69374   8.257   3.353   2.771 -2.2633  0.3116 -2.6673
  526MOL0     H69375   8.000   3.431   2.920  1.3504  0.0793  1.8995
  526MOL0     H69376   8.027   3.315   2.797 -0.1573 -1.6967  0.2771
  526MOL0     H69377   8.156   3.316   3.069 -0.9556  1.3613  0.0109
  526MOL0     H69378   8.184   3.192   2.944 -0.9905  1.1379 -5.3061
  526MOL0     H69379   7.940   3.137   2.920  1.8433  0.1555 -0.0347
  526MOL0     H69380   7.910   3.238   3.068  1.4003  0.7741  2.8875
  526MOL0     H69381   8.089   2.996   3.031  1.9612 -1.7963  2.8766
  526MOL0     H69382   8.074   3.088   3.183 -0.8542 -2.6388  1.1993
  526MOL0     H69383   7.838   3.043   3.204 -3.6980  0.0517 -1.8029
  526MOL0     H69384   7.943   2.890   3.209 -1.1608 -2.3140 -2.1764
  526MOL0     H69385   7.621   2.992   3.115  0.7638 -0.1349  1.2307
  526MOL0     H69386   7.520   2.973   2.742 -1.3830 -2.8803 -0.4201
  526MOL0     H69387   7.450   3.015   2.907 -1.4196  0.1810 -2.9220
  526MOL0     H69388   7.426   2.778   2.960 -0.4587 -3.4693 -1.2158
  526MOL0     H69389   7.492   2.734   2.804 -1.7937 -2.8095  1.3699
  526MOL0     H69390   7.230   2.895   2.839  2.1233  4.3598 -0.7090
  526MOL0     H69391   7.318   2.899   2.700 -0.3429  0.5929  0.3311
  526MOL0     H69392   7.179   2.637   2.817 -1.1534  3.0537  0.5089
  526MOL0     H69393   7.319   2.612   2.718 -0.6468 -0.4108  0.0293
  526MOL0     H69394   7.000   2.719   2.820 -0.7865  0.9870  1.5276
  526MOL0     H69395   6.756   2.827   2.811 -0.6926  2.1825  0.7087
  526MOL0     H69396   6.403   2.943   2.451 -0.0710 -0.6959 -1.1327
  526MOL0     H69397   6.170   2.936   2.436 -0.6361 -0.1438 -0.7509
  526MOL0     H69398   5.943   3.134   2.571  2.6896  1.3948  1.3025
  526MOL0     H69399   5.960   3.124   2.753 -1.4348  0.7851 -0.7653
  526MOL0     H69400   5.760   2.952   2.622 -1.3280  1.2696 -0.6116
  526MOL0     H69401   5.729   3.123   2.660  0.6967  0.2983 -0.7713
  526MOL0     H69402   5.647   2.957   2.838  1.0390 -2.1876  1.1910
  526MOL0     H69403   5.720   3.124   2.876 -1.0942 -0.7448  1.6442
  526MOL0     H69404   5.889   2.871   2.864 -1.5225  0.8149 -2.0179
  526MOL0     H69405   5.925   3.009   2.961  1.4292 -1.9007 -1.5786
  526MOL0     H69406   5.853   2.833   3.122 -0.3119 -0.9290  0.3520
  526MOL0     H69407   5.712   2.801   3.027 -1.8393  0.5799 -0.1851
  526MOL0     H69408   5.574   2.948   3.090 -1.6005  0.8612  1.4100
  526MOL0     H69409   5.702   3.071   3.125 -3.7517  0.2790 -2.3582
  526MOL0     H69410   5.629   2.842   3.300 -2.9158  1.2244  0.8925
  526MOL0     H69411   5.773   2.953   3.313  0.7913  2.2021  0.0204
  526MOL0     H69412   5.535   3.015   3.437  0.1305  2.6116 -0.1688
  526MOL0     H69413   5.527   3.105   3.279  1.0718 -0.1920 -2.4455
  526MOL0     H69414   6.141   2.924   2.871 -3.0882  0.6209 -1.9677
  526MOL0     H69415   6.379   2.921   2.882 -1.2406 -3.1518 -0.2095
  526MOL0     H69416   6.852   2.945   2.407 -0.4241 -0.1592 -1.2724
  526MOL0     H69417   7.059   2.801   2.408  0.3909 -0.4805  0.0869
  526MOL0     H69418   8.200   3.966   2.626  0.7023  0.5759  1.4946
  526MOL0     H69419   8.354   4.150   2.590  0.4628 -1.5629  3.3419
  526MOL0     H69420   8.798   4.224   2.320  1.7304 -0.0403 -0.6371
  526MOL0     H69421   8.946   4.417   2.265 -0.1845 -2.0887 -0.2796
  526MOL0     H69422   9.217   4.614   2.396  1.0720 -2.1647 -3.9946
  526MOL0     H69423   9.162   4.458   2.357 -1.3211  0.7680 -0.4605
  526MOL0     H69424   9.180   4.581   2.626  4.6929  2.4099 -2.3564
  526MOL0     H69425   9.134   4.412   2.600  0.0821  0.6169  0.5687
  526MOL0     H69426   9.398   4.547   2.523  1.2518 -1.0784 -0.4897
  526MOL0     H69427   9.353   4.378   2.481 -2.7514 -0.7611 -1.6845
  526MOL0     H69428   9.358   4.509   2.767  0.8888  2.9706 -1.4941
  526MOL0     H69429   9.304   4.343   2.736  0.6337 -1.4966 -0.3747
  526MOL0     H69430   9.710   4.258   2.718  0.2462 -0.1116  2.4544
  526MOL0     H69431   8.891   4.576   2.655 -1.9231 -1.0013  1.1225
  526MOL0     H69432   8.724   4.423   2.712  1.8596  3.5904  0.5340
  527MOL0     O69433  10.637   5.938  11.075 -0.0500  0.3199 -0.4589
  527MOL0     C69434  10.741   5.871  11.080 -0.4032  0.2296  1.4675
  527MOL0     O69435  10.826   5.837  10.966 -0.4704 -0.3529  0.4670
  527MOL0     C69436  10.775   5.896  10.856 -0.2745 -0.6086 -0.2099
  527MOL0     C69437  10.687   5.839  10.781  0.3276 -0.8485 -0.0467
  527MOL0     C69438  10.668   5.879  10.656 -0.7933 -0.0589  0.4350
  527MOL0     C69439  10.736   5.978  10.593 -0.4945  0.2632 -0.2479
  527MOL0     O69440  10.721   6.001  10.462  0.0694 -0.7349  0.5444
  527MOL0     C69441  10.724   6.140  10.414 -0.1852 -0.6985 -0.3476
  527MOL0     C69442  10.734   6.127  10.263  0.4595  0.3028 -0.0061
  527MOL0     C69443  10.700   6.262  10.194 -1.9397  0.2687  0.1915
  527MOL0     C69444  10.729   6.268  10.036  0.0158  0.0233 -0.3937
  527MOL0     C69445  10.705   6.407   9.983 -0.2058 -0.2372 -0.0715
  527MOL0     C69446  10.770   6.537  10.040 -0.0043  0.4627  0.2436
  527MOL0     C69447  10.725   6.661   9.961 -0.8217  0.0998 -1.7051
  527MOL0     C69448  10.802   6.788  10.002 -1.0039  0.4328  0.8481
  527MOL0     N69449  10.761   6.832  10.138 -0.1704  0.2774 -0.1213
  527MOL0     C69450  10.639   6.846  10.192 -0.6238  0.0684  0.4853
  527MOL0     C69451  10.657   6.853  10.324  0.5003  0.1964 -0.1849
  527MOL0     C69452  10.548   6.844  10.421 -0.5837 -0.0099  0.8611
  527MOL0     C69453  10.453   6.727  10.405  0.2701 -0.0003 -0.2253
  527MOL0     C69454  10.513   6.587  10.450 -0.2971  0.3305  0.0231
  527MOL0     C69455  10.567   6.595  10.594  0.2088  0.9023  0.5625
  527MOL0     O69456  10.591   6.457  10.627  0.7863  1.2596  0.5538
  527MOL0     C69457  10.644   6.431  10.752  0.0307 -0.1282  0.6624
  527MOL0     C69458  10.638   6.302  10.813  0.6637 -0.1068  0.7218
  527MOL0     C69459  10.682   6.284  10.943 -0.3723 -0.2599  0.0255
  527MOL0     C69460  10.749   6.384  11.014  0.4467 -1.1332 -0.2129
  527MOL0     C69461  10.804   6.351  11.150 -1.1729  0.0354 -0.5265
  527MOL0     O69462  10.805   6.218  11.196 -0.3437  0.0505  0.0112
  527MOL0     C69463  10.788   6.203  11.325  0.2923  0.1554 -0.1907
  527MOL0     C69464  10.664   6.215  11.387 -0.0904 -0.6499  0.3132
  527MOL0     C69465  10.648   6.190  11.525 -0.8919 -0.3476 -0.2991
  527MOL0     C69466  10.754   6.145  11.602  0.2436 -0.6503 -0.5693
  527MOL0     O69467  10.737   6.120  11.739  0.9076  0.1649  0.3964
  527MOL0     C69468  10.830   6.193  11.820  0.5317  0.4025 -0.4986
  527MOL0     C69469  10.826   6.143  11.968  0.0476 -0.7730  0.3699
  527MOL0     C69470  10.955   6.080  11.993 -0.2577 -0.5939 -0.3972
  527MOL0     C69471  10.956   6.008  12.128 -0.2991 -0.4488 -0.4301
  527MOL0     C69472  11.095   5.963  12.177 -0.4443  0.1289  0.6955
  527MOL0     C69473  11.092   5.888  12.309 -0.7625  0.3882  1.2937
  527MOL0     C69474  11.091   5.984  12.428 -0.4947  0.2643  0.1302
  527MOL0     C69475  11.217   6.029  12.496  0.7605 -0.6084 -0.3972
  527MOL0    Cl69476  11.300   5.879  12.572  0.2209  0.2767  0.1506
  527MOL0     C69477  10.879   6.155  11.539  0.7470 -0.0753 -0.6474
  527MOL0     C69478  10.895   6.181  11.405 -0.3660 -0.0107  1.1581
  527MOL0     O69479  10.845   6.451  11.214  0.6533  0.4441 -0.4321
  527MOL0     C69480  10.780   6.504  10.946 -0.3126 -0.1246 -0.3904
  527MOL0     C69481  10.717   6.536  10.823  0.1708  0.4815  0.1641
  527MOL0     N69482  10.794   6.846  10.349 -0.0645  0.4117  0.4190
  527MOL0     N69483  10.855   6.826  10.236 -0.3771  0.2118  0.2186
  527MOL0     C69484  10.838   6.035  10.672 -0.8562 -0.0582 -0.4585
  527MOL0     C69485  10.858   5.997  10.805  1.1243  0.7795  0.1969
  527MOL0     C69486  10.780   5.823  11.213 -1.4012 -0.5830 -0.2495
  527MOL0     C69487  10.700   5.833  11.327  0.1131 -0.6725 -0.9528
  527MOL0     C69488  10.739   5.784  11.447 -0.4765 -1.2988 -0.4874
  527MOL0     C69489  10.868   5.735  11.462  0.2531  0.1794  0.9005
  527MOL0     O69490  10.910   5.668  11.574 -0.2416 -0.5847  0.1803
  527MOL0     C69491  10.945   5.758  11.681 -0.1859  0.3918 -0.4617
  527MOL0     C69492  11.016   5.688  11.789  0.1546 -0.2028  1.5368
  527MOL0     C69493  10.922   5.622  11.896  0.2496 -0.5739  0.1535
  527MOL0     C69494  11.001   5.519  11.986  0.3716  0.0898 -0.2232
  527MOL0     C69495  11.129   5.579  12.033 -0.2094 -0.2185 -0.3314
  527MOL0     C69496  11.244   5.610  12.054 -0.2894  0.1284  0.0495
  527MOL0     C69497  10.951   5.724  11.347  0.0872 -0.0259 -0.3271
  527MOL0     C69498  10.902   5.763  11.223 -0.0971 -0.3284 -0.3738
  527MOL0     H69499  10.643   5.747  10.818 -3.3334  1.0124  0.6904
  527MOL0     H69500  10.592   5.829  10.597  0.0393  2.4205 -3.0780
  527MOL0     H69501  10.797   6.212  10.453 -1.3058  0.2956  0.0029
  527MOL0     H69502  10.630   6.188  10.444  1.0273  1.3084  0.4669
  527MOL0     H69503  10.656   6.058  10.229  0.9276 -0.5710  0.6507
  527MOL0     H69504  10.825   6.079  10.225 -0.5634 -2.3130  0.5940
  527MOL0     H69505  10.770   6.335  10.236 -1.6225  1.2190 -1.8561
  527MOL0     H69506  10.598   6.294  10.219 -0.8104  2.6728  2.0859
  527MOL0     H69507  10.828   6.225  10.020 -1.2285 -3.4624  0.3242
  527MOL0     H69508  10.651   6.209   9.988 -2.1670  3.3211 -1.2476
  527MOL0     H69509  10.598   6.434   9.981  0.1209  1.1506 -2.0902
  527MOL0     H69510  10.731   6.399   9.877  0.7224 -0.2926  0.1520
  527MOL0     H69511  10.879   6.529  10.040 -0.1173 -1.8371 -0.0528
  527MOL0     H69512  10.737   6.552  10.143  1.6409  4.3496  0.3616
  527MOL0     H69513  10.753   6.648   9.855 -1.0603 -0.1057 -1.7437
  527MOL0     H69514  10.617   6.667   9.975 -0.4119 -0.0171  3.4389
  527MOL0     H69515  10.762   6.861   9.931 -2.0265 -1.4771 -0.6711
  527MOL0     H69516  10.909   6.767   9.992 -1.6363 -2.4771 -1.3997
  527MOL0     H69517  10.540   6.839  10.146  0.6063 -1.5759 -2.1602
  527MOL0     H69518  10.485   6.934  10.421  2.5329  2.4938  4.1818
  527MOL0     H69519  10.597   6.848  10.518  0.9739  0.5270  0.0885
  527MOL0     H69520  10.436   6.724  10.297 -0.5964 -2.5085 -0.0867
  527MOL0     H69521  10.354   6.751  10.445  0.3055 -1.6436  0.9181
  527MOL0     H69522  10.438   6.510  10.430  0.7525 -0.4516 -1.0134
  527MOL0     H69523  10.596   6.562  10.383 -2.5017 -0.5552 -2.5909
  527MOL0     H69524  10.489   6.637  10.658 -1.7857 -2.1136  0.3588
  527MOL0     H69525  10.658   6.654  10.604  0.5064  0.7449 -0.9070
  527MOL0     H69526  10.592   6.215  10.768 -2.3425  1.7528 -0.1242
  527MOL0     H69527  10.677   6.184  10.985 -0.6833  0.2147  1.1428
  527MOL0     H69528  10.577   6.246  11.330 -0.3247 -0.5193  0.7425
  527MOL0     H69529  10.560   6.187  11.589 -2.3175 -3.1139 -2.1692
  527MOL0     H69530  10.808   6.300  11.817 -3.6707 -0.0121  3.9185
  527MOL0     H69531  10.936   6.180  11.792  0.6692 -0.8415  0.5286
  527MOL0     H69532  10.742   6.074  11.978 -1.1620  0.7196  1.0085
  527MOL0     H69533  10.815   6.224  12.041  1.0665  0.6977 -1.0177
  527MOL0     H69534  11.040   6.148  11.992  1.6420 -2.8325 -1.2907
  527MOL0     H69535  10.971   6.002  11.917  0.8774 -1.7161  0.9392
  527MOL0     H69536  10.917   6.084  12.196 -1.3389  0.2634 -1.7514
  527MOL0     H69537  10.880   5.930  12.128  0.2238 -0.9950  1.0338
  527MOL0     H69538  11.157   6.051  12.194  2.3064 -1.5003 -0.3033
  527MOL0     H69539  11.131   5.900  12.095 -4.7544  0.6039 -1.9149
  527MOL0     H69540  11.178   5.821  12.319 -0.9169  0.2197  1.4942
  527MOL0     H69541  11.000   5.829  12.302  0.7049 -1.9617 -0.0195
  527MOL0     H69542  11.023   6.068  12.412 -0.4227  0.2389 -0.3200
  527MOL0     H69543  11.051   5.923  12.509 -1.5534  1.2227  0.3566
  527MOL0     H69544  11.176   6.091  12.576 -2.0931 -1.4500 -1.1075
  527MOL0     H69545  11.290   6.080  12.432  0.3716  0.6794  0.1570
  527MOL0     H69546  10.971   6.120  11.584  0.3258 -0.4631 -0.0654
  527MOL0     H69547  10.993   6.175  11.359  0.2792 -1.2808  2.6116
  527MOL0     H69548  10.816   6.587  11.006  1.7606 -1.1252 -0.1761
  527MOL0     H69549  10.725   6.641  10.797  2.3489  1.1335  2.8508
  527MOL0     H69550  10.897   6.120  10.639 -0.1050 -0.2585  0.3333
  527MOL0     H69551  10.937   6.039  10.866 -0.9574  3.2278  1.4244
  527MOL0     H69552  10.605   5.886  11.319 -0.0409 -0.8772 -0.5177
  527MOL0     H69553  10.678   5.802  11.535 -1.0414  1.4826 -1.3598
  527MOL0     H69554  10.864   5.815  11.728 -0.4423 -2.1082  2.4802
  527MOL0     H69555  11.004   5.838  11.635 -1.0614  1.7053  0.6049
  527MOL0     H69556  11.097   5.629  11.745  2.4807  2.9021  1.2697
  527MOL0     H69557  11.070   5.764  11.846  3.1573  3.6762 -5.2746
  527MOL0     H69558  10.842   5.567  11.845 -0.5162  0.0906  0.6119
  527MOL0     H69559  10.875   5.705  11.950 -1.5686 -1.9824  0.7956
  527MOL0     H69560  10.929   5.480  12.059 -1.4860  0.0056 -2.0156
  527MOL0     H69561  11.026   5.429  11.928  2.3948  0.1658  0.4359
  527MOL0     H69562  11.338   5.652  12.081 -0.7583  3.1762 -2.4472
  527MOL0     H69563  11.029   5.649  11.344 -1.3548 -1.6547  0.5818
  527MOL0     H69564  10.966   5.755  11.136 -1.7434 -2.4366 -1.4814
  528MOL0     O69565   9.587   3.097   4.077  0.1743 -0.0128 -0.3902
  528MOL0     C69566   9.651   3.130   3.978 -0.3256 -0.2590 -0.1716
  528MOL0     O69567   9.722   3.235   3.971  0.1186  0.1669  0.2230
  528MOL0     C69568   9.752   3.296   4.089  0.6449  0.4703 -0.4324
  528MOL0     C69569   9.875   3.270   4.159 -0.7393  0.7604 -0.1846
  528MOL0     C69570   9.897   3.328   4.284 -0.2407 -0.0161  0.6116
  528MOL0     C69571   9.803   3.419   4.330 -0.0600 -0.4191  0.1564
  528MOL0     O69572   9.827   3.496   4.441  0.3367 -0.5282 -0.5618
  528MOL0     C69573   9.745   3.463   4.552 -0.2714  0.3547  0.3013
  528MOL0     C69574   9.828   3.413   4.667 -0.3627 -0.8454 -0.1055
  528MOL0     C69575   9.933   3.307   4.629 -0.8172 -0.0223  0.4268
  528MOL0     C69576  10.021   3.269   4.761  0.8417  0.2865  1.1993
  528MOL0     C69577  10.162   3.226   4.717 -0.0894 -0.1117 -0.2648
  528MOL0     C69578  10.258   3.189   4.834 -0.2977  0.9178 -0.3396
  528MOL0     C69579  10.404   3.180   4.785  0.2434 -0.1248  0.4414
  528MOL0     C69580  10.438   3.054   4.705  0.9658 -0.8812  0.2554
  528MOL0     N69581  10.584   3.024   4.725 -0.0497  0.7875  0.2211
  528MOL0     C69582  10.685   3.103   4.672  0.6779  0.2646  0.7324
  528MOL0     C69583  10.797   3.032   4.696 -0.5685  0.7648 -0.8457
  528MOL0     C69584  10.945   3.076   4.667  0.9679 -0.7527  0.1571
  528MOL0     C69585  10.979   3.209   4.736 -0.9993 -0.9241 -0.1541
  528MOL0     C69586  11.101   3.272   4.663  0.8019 -0.4178  0.6428
  528MOL0     C69587  11.227   3.194   4.675 -0.1710  0.9003  0.1062
  528MOL0     O69588  11.341   3.270   4.637  0.5167 -0.4398 -0.1344
  528MOL0     C69589  11.459   3.237   4.685  0.7071  0.3824  0.1824
  528MOL0     C69590  11.488   3.113   4.743 -0.4288 -0.5918  0.1755
  528MOL0     C69591  11.626   3.074   4.741  0.8448  0.4642 -0.5112
  528MOL0     C69592  11.728   3.168   4.723 -0.2733 -0.9313  0.0763
  528MOL0     C69593  11.873   3.152   4.759  0.9154 -0.3157  0.4774
  528MOL0     O69594  11.958   3.258   4.770 -0.7623  1.0102  0.9176
  528MOL0     C69595  12.094   3.256   4.783 -0.4073 -0.5503 -0.9625
  528MOL0     C69596  12.168   3.363   4.726 -0.1918  0.5020 -0.0639
  528MOL0     C69597  12.300   3.365   4.756 -0.6474  0.4471  0.2602
  528MOL0     C69598  12.371   3.264   4.827 -0.3871 -1.1372 -0.1296
  528MOL0     O69599  12.498   3.283   4.871 -0.4025  0.2323  0.2672
  528MOL0     C69600  12.597   3.317   4.773  0.0259 -0.4033  0.8248
  528MOL0     C69601  12.727   3.290   4.841 -0.4777  0.4924 -0.5178
  528MOL0     C69602  12.746   3.130   4.862  0.4054 -0.0065 -0.2620
  528MOL0     C69603  12.885   3.090   4.918  0.3520  0.0180 -0.1735
  528MOL0     C69604  12.870   2.973   5.027  0.0885  0.0171 -0.7714
  528MOL0     C69605  12.991   2.977   5.121 -0.1465 -0.3800 -0.0613
  528MOL0     C69606  12.999   2.878   5.238  0.8266  0.4844 -0.2677
  528MOL0     C69607  12.886   2.887   5.344 -0.4422  0.5885  1.0097
  528MOL0    Cl69608  12.840   3.054   5.372  0.6408 -0.1737 -0.1090
  528MOL0     C69609  12.300   3.160   4.884  0.6471 -1.0490  0.4591
  528MOL0     C69610  12.161   3.166   4.874 -0.0921 -0.6231 -0.8276
  528MOL0     O69611  11.914   3.034   4.758 -0.0080  0.9018 -0.8048
  528MOL0     C69612  11.700   3.293   4.674  0.0169  0.0190  1.0247
  528MOL0     C69613  11.563   3.329   4.644 -0.1824  1.0267  0.3528
  528MOL0     N69614  10.763   2.924   4.771 -0.4230 -0.8132 -0.3616
  528MOL0     N69615  10.637   2.925   4.788  0.2338  0.0745  0.1158
  528MOL0     C69616   9.680   3.446   4.270  0.2010  0.7799  0.5720
  528MOL0     C69617   9.656   3.384   4.141  0.2034  1.0142 -0.4099
  528MOL0     C69618   9.627   3.065   3.855  1.0236 -0.5187  0.6114
  528MOL0     C69619   9.718   3.063   3.753  0.7030  0.9132  0.7966
  528MOL0     C69620   9.688   3.003   3.630 -0.1914 -0.1837  0.1814
  528MOL0     C69621   9.558   2.959   3.603 -0.2647  0.8101  0.3367
  528MOL0     O69622   9.503   2.922   3.481 -0.2262 -0.3762  0.1227
  528MOL0     C69623   9.595   2.898   3.372 -0.0362 -0.0133  0.2887
  528MOL0     C69624   9.671   2.775   3.392  0.3782  0.3145  1.3311
  528MOL0     C69625   9.775   2.742   3.282 -0.2600 -0.3836 -0.1601
  528MOL0     C69626   9.818   2.602   3.262  0.5260  0.7630 -0.1643
  528MOL0     C69627   9.717   2.513   3.201 -0.3682  0.4601 -0.7201
  528MOL0     C69628   9.631   2.432   3.172  0.5899 -1.1096  0.3438
  528MOL0     C69629   9.468   2.962   3.711 -0.9830 -0.0291  0.0171
  528MOL0     C69630   9.502   2.998   3.841 -0.9650 -0.0888  0.0593
  528MOL0     H69631   9.945   3.196   4.124 -0.4047  1.2027 -0.4557
  528MOL0     H69632   9.995   3.313   4.328 -0.0823  1.3855  0.7884
  528MOL0     H69633   9.678   3.383   4.520  3.7591 -2.0870 -3.0210
  528MOL0     H69634   9.691   3.553   4.584 -3.6460 -2.0012  1.9190
  528MOL0     H69635   9.753   3.381   4.740 -0.4269  2.4458  1.4610
  528MOL0     H69636   9.875   3.508   4.697 -1.2796 -0.5473  0.4224
  528MOL0     H69637  10.000   3.353   4.555  0.5056  2.5869  3.0391
  528MOL0     H69638   9.897   3.216   4.580  1.2266  0.7017 -2.7319
  528MOL0     H69639  10.047   3.354   4.825  3.2731  1.8183 -1.5531
  528MOL0     H69640   9.974   3.191   4.821  1.0810  0.4504  1.6041
  528MOL0     H69641  10.205   3.317   4.675 -2.4568  2.6383  2.7127
  528MOL0     H69642  10.157   3.135   4.657  2.7622 -2.9618  3.3501
  528MOL0     H69643  10.216   3.099   4.881 -2.6307  1.6999 -0.7665
  528MOL0     H69644  10.245   3.257   4.918  0.3624 -1.9092  2.2110
  528MOL0     H69645  10.419   3.264   4.717  0.1711 -1.6835 -1.5788
  528MOL0     H69646  10.473   3.184   4.870  2.8266 -3.7926 -1.2549
  528MOL0     H69647  10.423   3.068   4.597 -0.3090  2.1569  0.7428
  528MOL0     H69648  10.374   2.974   4.741  1.2833 -1.2646 -0.0121
  528MOL0     H69649  10.681   3.204   4.632  3.6478 -0.1545 -0.9409
  528MOL0     H69650  10.951   3.085   4.558  1.0913 -1.3584  0.1125
  528MOL0     H69651  11.013   2.993   4.686  0.8373 -0.5468  1.5932
  528MOL0     H69652  11.003   3.188   4.841  1.0190 -4.9753 -1.2493
  528MOL0     H69653  10.896   3.280   4.722 -2.2706 -2.3463 -0.1149
  528MOL0     H69654  11.079   3.294   4.558 -2.2123 -1.8518  0.8608
  528MOL0     H69655  11.111   3.373   4.706  1.5684 -0.3063  0.2148
  528MOL0     H69656  11.223   3.110   4.605  4.2988  3.5419 -3.9179
  528MOL0     H69657  11.237   3.161   4.779  2.5548  2.5142  0.4451
  528MOL0     H69658  11.411   3.041   4.768  2.0214 -3.6995 -0.5997
  528MOL0     H69659  11.669   2.986   4.788  2.7669  0.6724 -1.7766
  528MOL0     H69660  12.125   3.441   4.663 -1.0087  0.1066 -0.0129
  528MOL0     H69661  12.359   3.446   4.713  0.8587 -0.5437  0.4002
  528MOL0     H69662  12.594   3.423   4.749 -0.7488 -0.6999 -0.5168
  528MOL0     H69663  12.572   3.261   4.683  2.1435  1.5469 -1.1061
  528MOL0     H69664  12.737   3.317   4.946  0.0653 -0.6430 -0.2688
  528MOL0     H69665  12.812   3.329   4.784  0.0011  3.8738  2.1432
  528MOL0     H69666  12.733   3.070   4.772 -1.2722 -1.3074  0.7907
  528MOL0     H69667  12.672   3.105   4.939  0.5217  1.4308  0.3670
  528MOL0     H69668  12.957   3.048   4.846  3.9050  0.0011  3.0735
  528MOL0     H69669  12.940   3.176   4.956  2.1617 -0.3705 -1.7418
  528MOL0     H69670  12.850   2.869   5.000 -3.1643 -0.1001  1.5930
  528MOL0     H69671  12.781   3.004   5.082  1.2800  0.9336  0.7076
  528MOL0     H69672  13.011   3.076   5.162  2.4830 -1.1288  0.6719
  528MOL0     H69673  13.080   2.957   5.062  1.8535  1.8720  1.9844
  528MOL0     H69674  13.007   2.774   5.203  1.0394 -0.9441  3.4442
  528MOL0     H69675  13.094   2.884   5.293 -0.1383 -0.3343  1.5778
  528MOL0     H69676  12.916   2.847   5.442  0.0747 -2.5688 -0.3115
  528MOL0     H69677  12.794   2.832   5.320  0.3268  0.2421 -1.3267
  528MOL0     H69678  12.331   3.079   4.949 -0.4586 -0.4211  1.8388
  528MOL0     H69679  12.101   3.104   4.940 -0.6267  2.0891  1.4357
  528MOL0     H69680  11.783   3.356   4.642  1.5820 -2.1554  0.6060
  528MOL0     H69681  11.543   3.422   4.592  0.1710  0.9919  0.1542
  528MOL0     H69682   9.623   3.522   4.322 -0.5045 -0.3846  1.5545
  528MOL0     H69683   9.573   3.399   4.072 -0.4094 -0.5927 -0.0707
  528MOL0     H69684   9.820   3.096   3.774  1.4216 -0.9423  0.4179
  528MOL0     H69685   9.768   2.992   3.557 -1.5807 -1.4303 -1.2308
  528MOL0     H69686   9.678   2.966   3.354  0.9984 -1.0564  0.9348
  528MOL0     H69687   9.530   2.879   3.286 -2.2882 -1.0989  2.1102
  528MOL0     H69688   9.729   2.774   3.484  0.5221  1.1063  1.2549
  528MOL0     H69689   9.592   2.699   3.388 -1.4064  2.1246 -1.6179
  528MOL0     H69690   9.862   2.803   3.309 -1.0170  0.7350 -0.1714
  528MOL0     H69691   9.733   2.788   3.193 -1.8207  2.5669  1.9414
  528MOL0     H69692   9.905   2.586   3.197  0.8483  0.1382  0.4064
  528MOL0     H69693   9.841   2.552   3.356 -2.0145 -2.3908 -1.0590
  528MOL0     H69694   9.535   2.394   3.144 -0.1372 -0.6917  2.1232
  528MOL0     H69695   9.367   2.926   3.693 -1.4736  1.3305 -0.0639
  528MOL0     H69696   9.433   2.979   3.922  0.5434 -2.5132  0.8614
  529MOL0     O69697   4.625   8.666   6.168  1.1967  0.1744  1.0089
  529MOL0     C69698   4.590   8.587   6.261 -0.4452 -0.2834 -0.5127
  529MOL0     O69699   4.492   8.604   6.355  1.2364 -0.8299 -0.1014
  529MOL0     C69700   4.413   8.721   6.373 -0.6783  0.3216 -0.2398
  529MOL0     C69701   4.341   8.723   6.494 -0.3785 -0.5013  0.3574
  529MOL0     C69702   4.257   8.827   6.536  0.0528 -0.5703 -0.6816
  529MOL0     C69703   4.232   8.934   6.450  0.0824  0.3226 -0.5202
  529MOL0     O69704   4.153   9.047   6.470  0.9797  0.3888 -0.6599
  529MOL0     C69705   4.058   9.054   6.577 -0.3475 -0.2182  0.3426
  529MOL0     C69706   3.959   9.154   6.543  0.6697 -0.4882 -0.1738
  529MOL0     C69707   3.844   9.166   6.637  0.5661 -0.9497  0.8923
  529MOL0     C69708   3.773   9.298   6.603 -0.0746 -0.2280  0.2946
  529MOL0     C69709   3.642   9.311   6.669 -0.0855  0.8109 -0.3196
  529MOL0     C69710   3.581   9.451   6.645  0.0056  0.3255 -0.3254
  529MOL0     C69711   3.426   9.452   6.686  0.3459 -1.0348  0.6143
  529MOL0     C69712   3.411   9.435   6.835 -1.0214 -0.7183  1.1480
  529MOL0     N69713   3.294   9.522   6.871 -0.2819 -0.2133  0.6811
  529MOL0     C69714   3.178   9.545   6.794  0.1158  0.0480 -0.0739
  529MOL0     C69715   3.107   9.627   6.874 -0.3433  0.3728 -0.6682
  529MOL0     C69716   2.977   9.697   6.849  0.1394  0.1127 -0.5390
  529MOL0     C69717   2.845   9.649   6.916  0.0635  0.0879  0.3482
  529MOL0     C69718   2.864   9.617   7.060  0.2471  0.0710  0.4562
  529MOL0     C69719   2.882   9.740   7.139 -1.2560 -0.6869 -0.6324
  529MOL0     O69720   2.771   9.828   7.107  0.3190  0.0903 -0.6736
  529MOL0     C69721   2.778   9.961   7.071  0.3527 -0.0560 -0.1664
  529MOL0     C69722   2.887  10.036   7.008 -0.2821 -0.5450  0.4087
  529MOL0     C69723   2.865  10.174   6.986  0.5445 -0.2427 -0.4085
  529MOL0     C69724   2.741  10.242   7.008 -0.7990  0.2349  0.4313
  529MOL0     C69725   2.718  10.385   6.976 -0.7527 -0.9256  0.4340
  529MOL0     O69726   2.596  10.439   7.004 -0.3786  0.3737 -0.3134
  529MOL0     C69727   2.581  10.571   6.959 -0.4568  0.4415 -0.0353
  529MOL0     C69728   2.613  10.669   7.047 -0.0599  0.0549  0.4746
  529MOL0     C69729   2.617  10.800   7.009 -0.2285  0.4519 -0.8326
  529MOL0     C69730   2.581  10.832   6.879  0.6277  0.4491  0.7179
  529MOL0     O69731   2.580  10.959   6.831 -0.3032 -0.5208 -0.1483
  529MOL0     C69732   2.682  11.047   6.891  1.1312  0.7145  0.1863
  529MOL0     C69733   2.713  11.160   6.795  0.2429  0.3361 -0.0371
  529MOL0     C69734   2.864  11.210   6.808  0.5941 -0.7656  0.3190
  529MOL0     C69735   2.938  11.234   6.673 -0.0519  0.3111 -0.9134
  529MOL0     C69736   2.899  11.370   6.596 -0.5488  0.8957 -0.4632
  529MOL0     C69737   2.765  11.375   6.514  0.1319 -0.9737  0.6101
  529MOL0     C69738   2.759  11.247   6.433 -0.4429  0.0783 -0.3230
  529MOL0     C69739   2.866  11.217   6.323  0.5276 -0.5902 -0.0807
  529MOL0    Cl69740   2.798  11.112   6.189  0.1441 -0.1691 -0.2523
  529MOL0     C69741   2.550  10.734   6.783 -0.1056  0.0746 -0.1576
  529MOL0     C69742   2.548  10.595   6.823  0.2927 -0.0657  0.2949
  529MOL0     O69743   2.817  10.446   6.927  0.2617 -0.3547  0.1022
  529MOL0     C69744   2.645  10.169   7.073  0.3510 -0.5331 -0.4060
  529MOL0     C69745   2.659  10.028   7.105  0.5525 -0.3937 -0.2401
  529MOL0     N69746   3.190   9.658   6.985 -0.3997 -0.1830 -0.4824
  529MOL0     N69747   3.302   9.599   6.983  0.3092 -0.3223  0.5600
  529MOL0     C69748   4.298   8.934   6.326  0.3668 -0.2383 -0.3741
  529MOL0     C69749   4.387   8.829   6.283  0.1812 -1.0214  0.2455
  529MOL0     C69750   4.670   8.455   6.282  0.7085 -0.3562 -0.2983
  529MOL0     C69751   4.736   8.404   6.174  0.0634  0.1487 -0.1275
  529MOL0     C69752   4.824   8.290   6.195  0.8751 -1.7962  0.6206
  529MOL0     C69753   4.842   8.244   6.327 -0.1336 -0.1167 -0.7092
  529MOL0     O69754   4.927   8.144   6.353  0.0509  0.1889 -0.5362
  529MOL0     C69755   5.044   8.121   6.272  1.4651  0.1772 -0.3207
  529MOL0     C69756   5.091   7.999   6.339 -0.4691 -0.0353  0.9164
  529MOL0     C69757   5.215   7.939   6.266 -0.7764 -0.9071 -0.1067
  529MOL0     C69758   5.290   7.835   6.360  0.5337 -1.1019  0.3496
  529MOL0     C69759   5.218   7.703   6.358 -0.3373  0.3013  0.1769
  529MOL0     C69760   5.159   7.597   6.337  0.1579  0.7273 -0.9335
  529MOL0     C69761   4.760   8.289   6.431 -0.2295 -0.4254  0.5690
  529MOL0     C69762   4.681   8.398   6.413  0.4169  0.3472  1.6394
  529MOL0     H69763   4.344   8.638   6.562 -0.6395 -3.8462 -3.4489
  529MOL0     H69764   4.204   8.816   6.630 -0.2082 -2.5370 -1.0073
  529MOL0     H69765   4.110   9.068   6.673  0.5095  1.6190 -0.3624
  529MOL0     H69766   4.002   8.961   6.590 -2.1334  1.1738  4.2965
  529MOL0     H69767   3.931   9.141   6.438 -0.6935  2.9905 -0.3769
  529MOL0     H69768   4.017   9.247   6.545 -0.7692  0.4557  2.3799
  529MOL0     H69769   3.882   9.187   6.737 -0.4688 -0.6036  1.2261
  529MOL0     H69770   3.780   9.077   6.632  1.0654 -1.2868  0.1118
  529MOL0     H69771   3.836   9.374   6.648  2.0964 -2.8253  1.9586
  529MOL0     H69772   3.759   9.313   6.496  0.9059 -1.5825 -0.0481
  529MOL0     H69773   3.647   9.298   6.777 -0.7786  0.4614 -0.3267
  529MOL0     H69774   3.590   9.228   6.621  4.1719 -0.2737 -3.6315
  529MOL0     H69775   3.583   9.472   6.537 -3.6502  0.1293 -0.5669
  529MOL0     H69776   3.630   9.531   6.700 -2.9620  0.4837  2.3905
  529MOL0     H69777   3.387   9.546   6.644  0.1824 -2.2741 -2.2470
  529MOL0     H69778   3.364   9.375   6.640 -0.2769 -1.3047  1.8596
  529MOL0     H69779   3.501   9.472   6.885 -0.0634 -0.1619 -0.8900
  529MOL0     H69780   3.412   9.332   6.873  3.1554 -1.2240  0.1647
  529MOL0     H69781   3.138   9.498   6.706 -0.0886 -2.6147  1.3397
  529MOL0     H69782   2.964   9.697   6.740 -0.1975  3.5221 -0.6153
  529MOL0     H69783   2.992   9.800   6.884 -0.4933 -1.1329  3.9224
  529MOL0     H69784   2.799   9.563   6.867  0.3177 -0.3736  0.9127
  529MOL0     H69785   2.771   9.729   6.905 -2.1521 -1.9550 -0.5329
  529MOL0     H69786   2.778   9.560   7.096  0.8756  0.3097  2.4840
  529MOL0     H69787   2.955   9.555   7.059  0.0120 -0.3693 -2.6036
  529MOL0     H69788   2.979   9.789   7.132 -2.3544  1.4182 -2.2696
  529MOL0     H69789   2.886   9.720   7.247 -1.7240 -1.3358 -0.7232
  529MOL0     H69790   2.981   9.990   6.979 -0.0362  0.3783 -0.2985
  529MOL0     H69791   2.943  10.235   6.942 -1.8136  3.4551  0.0607
  529MOL0     H69792   2.644  10.627   7.142  0.1117 -0.3879  0.2268
  529MOL0     H69793   2.654  10.865   7.088 -0.1058 -3.1187  2.3080
  529MOL0     H69794   2.777  10.995   6.907  1.0283  0.5619  0.3081
  529MOL0     H69795   2.642  11.069   6.991  0.6979 -1.3492  0.5089
  529MOL0     H69796   2.642  11.243   6.799 -0.2764  0.1285 -2.9069
  529MOL0     H69797   2.683  11.128   6.695 -1.4854  2.2657 -0.2168
  529MOL0     H69798   2.917  11.137   6.870  1.1379 -0.7702 -0.1458
  529MOL0     H69799   2.861  11.305   6.862 -0.7531 -0.9054  0.5243
  529MOL0     H69800   3.044  11.250   6.694 -0.2450  0.1599  0.2261
  529MOL0     H69801   2.929  11.145   6.611 -2.9729  0.9782 -1.6218
  529MOL0     H69802   2.981  11.389   6.525 -0.8435  1.9377 -0.5419
  529MOL0     H69803   2.887  11.446   6.674  1.9549 -0.6671  1.6025
  529MOL0     H69804   2.765  11.470   6.459 -1.9345  0.0928  2.2972
  529MOL0     H69805   2.676  11.391   6.576 -0.7373 -1.6341 -0.4266
  529MOL0     H69806   2.736  11.162   6.499 -0.3788  0.4976  0.2534
  529MOL0     H69807   2.659  11.247   6.389 -1.9772 -0.0475  2.8433
  529MOL0     H69808   2.959  11.179   6.365  0.4210  0.6036  1.3179
  529MOL0     H69809   2.892  11.316   6.285  0.0882 -1.2574 -2.2516
  529MOL0     H69810   2.520  10.770   6.685 -1.5364  1.4503  0.7475
  529MOL0     H69811   2.519  10.510   6.763  2.2507  1.3017 -2.8740
  529MOL0     H69812   2.548  10.216   7.087 -0.5064 -1.8545 -1.6642
  529MOL0     H69813   2.588   9.980   7.171  0.1956  1.0594  0.4860
  529MOL0     H69814   4.301   9.031   6.277 -1.6346 -0.3311 -0.7484
  529MOL0     H69815   4.427   8.840   6.183 -1.8694  0.3080 -0.4736
  529MOL0     H69816   4.724   8.463   6.085 -0.3307  1.9036  1.0433
  529MOL0     H69817   4.885   8.261   6.111  2.2839 -4.1954  2.3466
  529MOL0     H69818   5.112   8.205   6.286  3.5700 -1.7075  1.6579
  529MOL0     H69819   5.009   8.111   6.168  1.2186  4.7327 -0.8567
  529MOL0     H69820   5.114   8.035   6.439  0.3563  0.8144  0.4445
  529MOL0     H69821   5.027   7.911   6.345 -0.3329 -0.0424  2.4666
  529MOL0     H69822   5.278   8.023   6.236 -2.6876  0.6721  0.1069
  529MOL0     H69823   5.189   7.884   6.175 -2.2700 -0.4920  0.0353
  529MOL0     H69824   5.392   7.831   6.320  1.1326  0.4020  1.6060
  529MOL0     H69825   5.299   7.876   6.461  2.2549 -1.7104  0.4810
  529MOL0     H69826   5.138   7.499   6.299  0.8353 -0.7781  2.2371
  529MOL0     H69827   4.779   8.238   6.525  0.2810 -0.4138  0.4732
  529MOL0     H69828   4.633   8.435   6.504 -1.9863  1.5152  0.0131
  530MOL0     O69829   3.436   7.991   0.823 -0.9175  0.2482  0.3330
  530MOL0     C69830   3.392   7.997   0.938 -0.0261  0.5503  0.6141
  530MOL0     O69831   3.277   7.942   0.987  0.7370  0.7240  0.0654
  530MOL0     C69832   3.196   7.859   0.906  0.2305  0.3746 -0.4119
  530MOL0     C69833   3.216   7.724   0.921  0.0493  0.3119 -0.4445
  530MOL0     C69834   3.122   7.636   0.868 -0.4311  0.4310  0.2353
  530MOL0     C69835   3.008   7.669   0.795 -0.0019  0.0101 -0.0012
  530MOL0     O69836   2.931   7.568   0.748  0.0381 -0.1013 -0.0057
  530MOL0     C69837   2.974   7.508   0.623 -0.1398 -0.7761  0.3409
  530MOL0     C69838   2.941   7.606   0.502  1.1996 -0.2583  0.8299
  530MOL0     C69839   2.791   7.590   0.457  0.2271  0.0758 -0.6313
  530MOL0     C69840   2.687   7.636   0.562 -1.0297  0.4494 -0.4051
  530MOL0     C69841   2.545   7.636   0.505 -0.3299  0.2777 -0.1120
  530MOL0     C69842   2.492   7.497   0.488 -0.4103  0.0654 -0.5000
  530MOL0     C69843   2.361   7.518   0.405  0.0213  0.3157 -0.7354
  530MOL0     C69844   2.280   7.385   0.402 -0.0354  0.0015  0.0948
  530MOL0     N69845   2.334   7.284   0.311 -0.1624 -0.2940 -0.2945
  530MOL0     C69846   2.396   7.165   0.360 -0.7054  0.2826 -0.1716
  530MOL0     C69847   2.430   7.101   0.242 -0.1570 -0.1858  1.1604
  530MOL0     C69848   2.471   6.961   0.251 -0.0148 -0.1212  0.6784
  530MOL0     C69849   2.615   6.953   0.314 -1.1955 -0.7915 -0.0790
  530MOL0     C69850   2.614   6.843   0.426 -0.2253  0.1201 -0.2069
  530MOL0     C69851   2.744   6.822   0.496 -1.1301  0.3574 -0.7880
  530MOL0     O69852   2.762   6.945   0.563 -0.4850 -0.0190 -0.1466
  530MOL0     C69853   2.837   6.962   0.677 -0.6793  0.0011  0.4109
  530MOL0     C69854   2.831   7.080   0.750  0.6667 -0.3197  0.1718
  530MOL0     C69855   2.897   7.092   0.875  0.0748  0.2736 -0.7576
  530MOL0     C69856   2.974   6.975   0.919 -0.0209 -0.5834  0.6314
  530MOL0     C69857   3.053   6.989   1.035 -1.1402 -0.3983  0.5596
  530MOL0     O69858   3.127   6.883   1.073 -0.4547  1.0701  0.0349
  530MOL0     C69859   3.232   6.884   1.161  0.1380 -0.1753  0.1357
  530MOL0     C69860   3.277   6.760   1.195  0.2231  0.0198  0.3658
  530MOL0     C69861   3.389   6.743   1.281 -0.0112  0.2163 -0.6071
  530MOL0     C69862   3.451   6.856   1.338  0.7035 -1.3361 -0.0530
  530MOL0     O69863   3.556   6.821   1.422 -0.1091  0.9341  0.5198
  530MOL0     C69864   3.601   6.926   1.510 -0.4423 -0.7542  0.2117
  530MOL0     C69865   3.733   6.880   1.563 -1.0084 -0.4686  0.1596
  530MOL0     C69866   3.759   6.732   1.610 -0.2718 -0.5303 -0.1845
  530MOL0     C69867   3.909   6.718   1.632 -0.6834  0.1617  0.1808
  530MOL0     C69868   3.938   6.569   1.646 -0.3568  0.1364  0.4154
  530MOL0     C69869   4.086   6.537   1.646 -0.2973  0.2937  0.4766
  530MOL0     C69870   4.120   6.387   1.632  0.7882  0.4906 -0.6575
  530MOL0     C69871   4.270   6.368   1.652  0.3603  1.1694  0.2273
  530MOL0    Cl69872   4.306   6.195   1.620  0.3982 -0.1199 -0.4110
  530MOL0     C69873   3.396   6.986   1.303 -1.1756  0.5680 -0.2545
  530MOL0     C69874   3.299   6.998   1.209 -0.4678 -0.3692  0.2065
  530MOL0     O69875   3.041   7.093   1.101  0.7259 -0.1763  0.1750
  530MOL0     C69876   2.979   6.860   0.844 -0.4589  0.2911  0.5209
  530MOL0     C69877   2.908   6.854   0.725 -0.3530  1.0891  0.6062
  530MOL0     N69878   2.402   7.177   0.131  0.9662 -1.0243 -0.2458
  530MOL0     N69879   2.352   7.290   0.180  0.7729  0.2083  0.1901
  530MOL0     C69880   2.978   7.807   0.800  0.0310  0.5628 -0.3951
  530MOL0     C69881   3.072   7.896   0.849  1.2889 -0.0449 -0.4011
  530MOL0     C69882   3.483   8.083   1.019  0.9166  0.2335 -0.1830
  530MOL0     C69883   3.468   8.071   1.161  0.8723 -1.0081  0.1529
  530MOL0     C69884   3.527   8.166   1.242  0.1763  0.0918 -0.2163
  530MOL0     C69885   3.600   8.271   1.192  0.5010  0.1443  0.2844
  530MOL0     O69886   3.624   8.371   1.282  0.0889 -0.0267  0.5189
  530MOL0     C69887   3.684   8.492   1.244  0.9293  0.0352  0.1992
  530MOL0     C69888   3.600   8.578   1.160  0.5160 -0.9841 -0.4597
  530MOL0     C69889   3.648   8.719   1.152 -0.2081 -0.0499  0.2707
  530MOL0     C69890   3.587   8.828   1.060  1.5511  0.4097 -0.3229
  530MOL0     C69891   3.646   8.959   1.078 -0.3630  0.2526  0.5546
  530MOL0     C69892   3.721   9.048   1.110  0.3280 -0.3259 -0.4455
  530MOL0     C69893   3.627   8.274   1.052 -0.2263 -0.6160 -0.4677
  530MOL0     C69894   3.570   8.190   0.973  0.3982 -1.2460 -0.0185
  530MOL0     H69895   3.294   7.683   0.984  0.2967  0.5577 -0.5852
  530MOL0     H69896   3.154   7.533   0.878  2.2736  1.1097 -0.4443
  530MOL0     H69897   2.924   7.414   0.602 -0.3109 -0.2813 -1.7152
  530MOL0     H69898   3.080   7.481   0.616  0.0257  0.1490 -1.4658
  530MOL0     H69899   2.996   7.574   0.413  2.6638  1.0933  1.2011
  530MOL0     H69900   2.965   7.708   0.534  4.9297 -0.8952  0.5457
  530MOL0     H69901   2.763   7.487   0.436 -1.9603  0.9727 -2.5553
  530MOL0     H69902   2.765   7.656   0.374  0.1525  0.6584 -0.1529
  530MOL0     H69903   2.693   7.554   0.635  1.2299  1.5783  0.8205
  530MOL0     H69904   2.719   7.736   0.593 -0.2796 -0.2589  1.2694
  530MOL0     H69905   2.551   7.685   0.408  0.8604  2.5516  1.0379
  530MOL0     H69906   2.488   7.692   0.580  1.2234 -0.9060  2.0744
  530MOL0     H69907   2.472   7.441   0.580 -1.4707  1.3530  0.0983
  530MOL0     H69908   2.557   7.435   0.426 -0.2960  0.9365 -1.2803
  530MOL0     H69909   2.303   7.592   0.460  2.0585  0.4330  1.4351
  530MOL0     H69910   2.384   7.537   0.300  0.6137  0.1085 -0.6473
  530MOL0     H69911   2.177   7.410   0.375 -0.6058 -2.6534 -0.4431
  530MOL0     H69912   2.279   7.344   0.503  0.8844 -0.2690 -0.0005
  530MOL0     H69913   2.399   7.112   0.455 -1.6607 -1.4929 -1.0850
  530MOL0     H69914   2.468   6.928   0.147 -2.1817  4.8292 -1.1147
  530MOL0     H69915   2.392   6.907   0.306  0.6614 -0.7242  1.0829
  530MOL0     H69916   2.654   7.050   0.348 -3.7822  0.2280  0.2528
  530MOL0     H69917   2.686   6.930   0.235  0.6003 -0.8725  1.4894
  530MOL0     H69918   2.540   6.873   0.500 -0.3948  0.3136 -0.4542
  530MOL0     H69919   2.568   6.751   0.389 -4.6631  2.6029 -1.6112
  530MOL0     H69920   2.825   6.804   0.425 -2.4286  1.9741 -2.7972
  530MOL0     H69921   2.738   6.736   0.563  3.2711 -0.8626 -1.6243
  530MOL0     H69922   2.759   7.155   0.719  0.9370  0.2848  0.9638
  530MOL0     H69923   2.878   7.180   0.937 -2.1169  1.0877 -2.4372
  530MOL0     H69924   3.246   6.676   1.133  1.9034  0.5853 -1.3717
  530MOL0     H69925   3.422   6.641   1.298 -2.0251 -0.2685  0.6296
  530MOL0     H69926   3.529   6.940   1.591  0.5784 -1.9550  1.3814
  530MOL0     H69927   3.607   7.019   1.453 -0.7997  0.6156  2.3058
  530MOL0     H69928   3.748   6.940   1.653 -1.8233 -2.9259  2.0495
  530MOL0     H69929   3.816   6.905   1.496  0.1529 -2.2681  0.8511
  530MOL0     H69930   3.728   6.662   1.532 -2.6470 -0.1109  0.2969
  530MOL0     H69931   3.707   6.699   1.700  0.6114  0.1262  0.5798
  530MOL0     H69932   3.961   6.756   1.544 -1.0821 -0.3485 -0.2838
  530MOL0     H69933   3.951   6.772   1.717 -0.7495 -0.3447  0.5458
  530MOL0     H69934   3.891   6.504   1.571  1.3461  0.5144 -1.0529
  530MOL0     H69935   3.899   6.546   1.746 -2.9253  1.6814 -0.1375
  530MOL0     H69936   4.143   6.578   1.730 -0.5408  2.9183 -0.5697
  530MOL0     H69937   4.128   6.581   1.555 -0.4753  2.9728  1.5945
  530MOL0     H69938   4.063   6.333   1.708 -3.5569  1.5216 -2.8199
  530MOL0     H69939   4.079   6.355   1.535 -0.9452  0.6616 -0.0189
  530MOL0     H69940   4.314   6.396   1.748 -0.6108  0.4904  0.8811
  530MOL0     H69941   4.314   6.430   1.573 -0.8386  0.7223 -0.8105
  530MOL0     H69942   3.437   7.072   1.357 -2.3556  0.0488  1.5822
  530MOL0     H69943   3.265   7.095   1.175 -1.4204 -0.8920 -0.3776
  530MOL0     H69944   3.023   6.773   0.892 -0.7362  0.2850  0.7668
  530MOL0     H69945   2.910   6.761   0.668  0.5315  1.9153 -0.7519
  530MOL0     H69946   2.878   7.838   0.771 -0.3260  0.7478  0.9401
  530MOL0     H69947   3.033   7.997   0.836 -4.5949 -1.9425 -0.1078
  530MOL0     H69948   3.416   7.995   1.217  0.2298 -0.2586  0.6015
  530MOL0     H69949   3.500   8.168   1.347 -0.9038 -0.2736 -0.4726
  530MOL0     H69950   3.779   8.477   1.191  2.0466  3.1473  1.0676
  530MOL0     H69951   3.717   8.548   1.333  0.9265  2.1188 -1.0480
  530MOL0     H69952   3.598   8.544   1.056  2.1299  1.8511 -1.5375
  530MOL0     H69953   3.502   8.557   1.204  0.8761 -3.7941 -0.7929
  530MOL0     H69954   3.746   8.711   1.106  1.4966  1.8513  3.2344
  530MOL0     H69955   3.663   8.759   1.253 -0.7822  1.9441 -0.3835
  530MOL0     H69956   3.601   8.806   0.954  0.3292  0.9428 -0.6122
  530MOL0     H69957   3.477   8.830   1.058  1.5443  2.7133 -2.8635
  530MOL0     H69958   3.794   9.126   1.122  2.6001 -1.7759 -3.3798
  530MOL0     H69959   3.688   8.351   1.006  0.2455  0.9947  2.6019
  530MOL0     H69960   3.602   8.187   0.869 -0.7291 -2.5055 -0.3576
  531MOL0     O69961   3.427   7.676   8.175 -0.0976  0.2505 -0.4904
  531MOL0     C69962   3.515   7.724   8.111  0.2671 -0.0260  0.3509
  531MOL0     O69963   3.507   7.747   7.978 -0.1234 -0.3268  0.4918
  531MOL0     C69964   3.384   7.728   7.923 -0.6155 -0.1906  0.4501
  531MOL0     C69965   3.333   7.835   7.845 -0.6277 -0.6630  0.0399
  531MOL0     C69966   3.204   7.827   7.786  0.3744 -0.3189  0.2865
  531MOL0     C69967   3.123   7.716   7.815 -0.3144 -1.7877 -0.9565
  531MOL0     O69968   3.003   7.707   7.764  0.0326  0.0139  0.7901
  531MOL0     C69969   2.917   7.823   7.721 -0.8743  0.2288  0.2297
  531MOL0     C69970   2.779   7.774   7.714  0.2939  0.9654  0.0338
  531MOL0     C69971   2.677   7.881   7.681 -0.0312 -0.7570  0.6301
  531MOL0     C69972   2.649   7.987   7.793  0.4728 -0.4367 -0.4035
  531MOL0     C69973   2.553   8.095   7.741 -0.5094 -0.6728 -0.7969
  531MOL0     C69974   2.528   8.205   7.840  0.1013 -0.0716 -0.8615
  531MOL0     C69975   2.433   8.322   7.786 -0.4449 -0.2384 -0.0108
  531MOL0     C69976   2.319   8.289   7.694  0.5697  0.2019  0.0169
  531MOL0     N69977   2.269   8.397   7.614 -0.4377 -0.7325 -0.2014
  531MOL0     C69978   2.175   8.482   7.658  0.3263 -0.6740 -0.1160
  531MOL0     C69979   2.151   8.564   7.560  0.0318  1.0424  0.1746
  531MOL0     C69980   2.026   8.653   7.544 -0.3556  0.1964  0.2252
  531MOL0     C69981   1.996   8.720   7.682  0.2748 -1.2994  0.3837
  531MOL0     C69982   1.851   8.717   7.713 -0.6734  0.5560 -0.6767
  531MOL0     C69983   1.752   8.812   7.642  0.2568  0.0528  0.3423
  531MOL0     O69984   1.732   8.806   7.490  0.7193 -1.0081  0.7152
  531MOL0     C69985   1.615   8.863   7.436  0.0958  0.2148  0.3226
  531MOL0     C69986   1.533   8.944   7.516 -0.7506  0.3130  0.2855
  531MOL0     C69987   1.418   8.990   7.465  0.0159 -0.7294  0.0015
  531MOL0     C69988   1.376   8.957   7.337 -0.0828 -0.2795  0.2311
  531MOL0     C69989   1.244   9.002   7.283  1.4041 -0.4014  0.2076
  531MOL0     O69990   1.151   9.049   7.373 -0.0472  0.7679 -0.2943
  531MOL0     C69991   1.041   9.107   7.319  0.8522  0.1359 -0.5884
  531MOL0     C69992   0.926   9.040   7.301  0.0731 -0.9264  0.1477
  531MOL0     C69993   0.813   9.102   7.243 -0.5253 -0.5622 -0.5880
  531MOL0     C69994   0.817   9.239   7.193 -0.2802  0.3981  0.3629
  531MOL0     O69995   0.699   9.285   7.146  0.0992  0.1586  0.7461
  531MOL0     C69996   0.693   9.342   7.017 -1.1628  0.4219  0.2879
  531MOL0     C69997   0.552   9.336   6.964 -0.2737  0.4492 -0.2979
  531MOL0     C69998   0.500   9.191   6.965  0.7113 -0.3176  0.3841
  531MOL0     C69999   0.548   9.114   6.845  0.8179  0.3306  0.5164
  531MOL0     C70000   0.482   8.978   6.837 -0.1108  1.1580  0.0274
  531MOL0     C70001   0.516   8.871   6.941 -0.6571  0.0922  1.1751
  531MOL0     C70002   0.434   8.738   6.927  0.3230 -0.2585  0.7631
  531MOL0     C70003   0.455   8.627   7.027 -0.3302  0.1488  0.7212
  531MOL0    Cl70004   0.387   8.668   7.191  0.7457  0.1412  0.0321
  531MOL0     C70005   0.932   9.313   7.227 -0.1908  0.1096 -0.2010
  531MOL0     C70006   1.043   9.244   7.274 -0.2680 -0.4781 -0.1695
  531MOL0     O70007   1.218   8.978   7.161 -0.3987  0.3565 -0.6055
  531MOL0     C70008   1.456   8.872   7.263  0.2601  0.1166 -0.8289
  531MOL0     C70009   1.568   8.816   7.309 -0.8651 -0.2240 -0.8006
  531MOL0     N70010   2.226   8.522   7.448  1.1521 -0.1402  0.3258
  531MOL0     N70011   2.288   8.416   7.477  0.1616  0.0855 -0.7747
  531MOL0     C70012   3.168   7.601   7.884  0.1304 -0.2920  0.0851
  531MOL0     C70013   3.295   7.612   7.934 -0.3112 -0.2140 -1.2154
  531MOL0     C70014   3.640   7.740   8.197  0.8633  0.7277  0.2493
  531MOL0     C70015   3.642   7.701   8.338  0.4627 -1.3922  0.1184
  531MOL0     C70016   3.766   7.716   8.403  0.5907  0.3659  0.2510
  531MOL0     C70017   3.881   7.763   8.344 -0.0372  0.9433 -0.0169
  531MOL0     O70018   3.998   7.744   8.417  0.1956  0.0203  0.0432
  531MOL0     C70019   4.120   7.775   8.355  0.5393 -0.4964  0.8321
  531MOL0     C70020   4.179   7.901   8.417 -0.9248 -0.0569 -1.1334
  531MOL0     C70021   4.305   7.843   8.488 -0.4653 -0.2854 -0.8630
  531MOL0     C70022   4.374   7.956   8.551 -0.5644 -0.1547 -0.5484
  531MOL0     C70023   4.493   7.919   8.619  0.2713  0.2792  0.3341
  531MOL0     C70024   4.590   7.894   8.690 -0.4595 -0.1166 -0.5303
  531MOL0     C70025   3.864   7.809   8.210  0.1383 -0.7846 -0.1016
  531MOL0     C70026   3.745   7.801   8.139 -0.6858 -0.1343  0.0657
  531MOL0     H70027   3.394   7.924   7.834  0.2154 -0.7433  3.0934
  531MOL0     H70028   3.164   7.901   7.718 -3.3472 -0.7611  1.7238
  531MOL0     H70029   2.966   7.858   7.629  1.1028  3.0375  2.1779
  531MOL0     H70030   2.909   7.908   7.789 -0.9208  1.0388 -0.7454
  531MOL0     H70031   2.757   7.727   7.810 -1.5161  0.2630 -0.6851
  531MOL0     H70032   2.772   7.697   7.637 -4.1742  1.8867 -0.7457
  531MOL0     H70033   2.580   7.833   7.664 -0.6693  1.1314 -1.6297
  531MOL0     H70034   2.705   7.938   7.592 -1.3077 -2.7997 -1.1676
  531MOL0     H70035   2.602   7.949   7.884 -0.5043  0.4858 -0.5086
  531MOL0     H70036   2.733   8.045   7.832 -1.7812  3.0942 -0.3871
  531MOL0     H70037   2.457   8.058   7.705 -0.0220 -0.7662 -2.0220
  531MOL0     H70038   2.602   8.150   7.661  0.6059 -2.7315 -1.5876
  531MOL0     H70039   2.622   8.246   7.877  1.1575 -2.8819 -0.1376
  531MOL0     H70040   2.481   8.161   7.928  3.0976 -0.3854  0.6914
  531MOL0     H70041   2.393   8.368   7.877 -0.1727  0.8021 -0.3999
  531MOL0     H70042   2.486   8.401   7.732  1.4037 -2.2209 -1.2118
  531MOL0     H70043   2.239   8.250   7.757  1.7353  1.3159  2.2890
  531MOL0     H70044   2.345   8.214   7.619 -2.5237 -0.7520 -0.2725
  531MOL0     H70045   2.124   8.479   7.753  2.0250 -2.9375  0.8237
  531MOL0     H70046   1.951   8.575   7.531 -2.2479  2.0812 -0.6070
  531MOL0     H70047   2.035   8.731   7.467 -1.7782  0.3568  0.2067
  531MOL0     H70048   2.029   8.824   7.689 -1.3016 -0.7584  0.1420
  531MOL0     H70049   2.063   8.679   7.758  2.3482 -1.7490 -1.5992
  531MOL0     H70050   1.804   8.619   7.725 -0.0764  0.3928  0.4665
  531MOL0     H70051   1.853   8.751   7.817 -1.7538 -0.8144 -0.1816
  531MOL0     H70052   1.786   8.914   7.662  1.3957  0.1660 -1.7785
  531MOL0     H70053   1.653   8.804   7.687 -1.2900 -4.8313 -3.1662
  531MOL0     H70054   1.551   8.963   7.621 -2.1236 -0.8290  0.7751
  531MOL0     H70055   1.371   9.056   7.537  2.0905 -0.8357  1.5672
  531MOL0     H70056   0.917   8.939   7.339  2.6456 -0.8085  1.2188
  531MOL0     H70057   0.724   9.042   7.223 -0.3417 -0.5894 -1.3782
  531MOL0     H70058   0.765   9.285   6.957  1.0582  3.4371 -0.1689
  531MOL0     H70059   0.725   9.445   7.032 -1.8184  0.6713 -0.0074
  531MOL0     H70060   0.534   9.379   6.865 -0.2905 -1.2242 -1.0506
  531MOL0     H70061   0.484   9.389   7.031 -1.4205 -0.3355 -0.8051
  531MOL0     H70062   0.390   9.185   6.966  0.6866 -1.7376  4.3465
  531MOL0     H70063   0.525   9.131   7.052  0.1811  1.4387  1.8129
  531MOL0     H70064   0.513   9.172   6.759 -5.4661 -0.8474  1.7525
  531MOL0     H70065   0.657   9.107   6.842  0.8719  1.2922 -0.7228
  531MOL0     H70066   0.518   8.935   6.742 -3.3170 -0.8410 -0.4285
  531MOL0     H70067   0.374   8.990   6.845 -0.6128 -0.8976 -2.2907
  531MOL0     H70068   0.479   8.908   7.037 -3.6715 -0.7328  0.4602
  531MOL0     H70069   0.622   8.847   6.951 -0.9200 -1.7187  0.0558
  531MOL0     H70070   0.329   8.767   6.931  0.3434  0.3927 -1.8156
  531MOL0     H70071   0.445   8.699   6.826 -1.0410 -3.3077  1.6917
  531MOL0     H70072   0.560   8.601   7.039 -0.7027 -0.6391  2.6089
  531MOL0     H70073   0.408   8.537   6.986 -1.1921  0.0886  1.7965
  531MOL0     H70074   0.936   9.419   7.205 -1.1271 -0.2955 -2.6479
  531MOL0     H70075   1.137   9.298   7.283 -0.2685 -0.5869  0.5794
  531MOL0     H70076   1.438   8.837   7.161  1.0062  2.0132 -1.6648
  531MOL0     H70077   1.625   8.746   7.248 -1.9799  1.3394 -3.8777
  531MOL0     H70078   3.104   7.513   7.889  0.6623 -0.6336  1.3389
  531MOL0     H70079   3.323   7.529   7.998  0.6736  1.2117  0.2893
  531MOL0     H70080   3.558   7.670   8.399  1.7552 -1.6561  1.8378
  531MOL0     H70081   3.782   7.695   8.509 -1.7074 -1.3716  0.3412
  531MOL0     H70082   4.122   7.788   8.247  5.0316  1.6556  0.9330
  531MOL0     H70083   4.186   7.688   8.368  1.4674 -0.1597 -1.1523
  531MOL0     H70084   4.191   7.977   8.340  2.7791  1.3286  0.6084
  531MOL0     H70085   4.118   7.952   8.492  0.4848 -0.8977  0.6569
  531MOL0     H70086   4.379   7.803   8.417 -1.1765 -0.1478 -1.6923
  531MOL0     H70087   4.285   7.769   8.566  0.7679  0.7314  0.4915
  531MOL0     H70088   4.400   8.029   8.474 -0.7598 -0.0900 -0.5548
  531MOL0     H70089   4.310   8.007   8.624 -1.4643 -0.9168 -0.7710
  531MOL0     H70090   4.680   7.877   8.747 -0.0577 -0.1431 -1.1565
  531MOL0     H70091   3.942   7.869   8.165 -1.5349  2.2918  0.8158
  531MOL0     H70092   3.751   7.849   8.041  0.1683 -2.7116 -1.2418
  532MOL0     O70093   4.399   7.754   5.566 -0.2469 -0.3767 -0.2810
  532MOL0     C70094   4.326   7.855   5.560  0.0698  0.0251  0.3802
  532MOL0     O70095   4.288   7.912   5.442 -0.2866 -0.1140  0.0939
  532MOL0     C70096   4.348   7.898   5.322 -0.0156 -0.0401  0.3179
  532MOL0     C70097   4.487   7.870   5.297  1.1677 -0.4465 -0.8028
  532MOL0     C70098   4.536   7.863   5.167 -0.1714  0.2489 -0.5550
  532MOL0     C70099   4.456   7.900   5.055 -0.2433 -0.2334 -0.3730
  532MOL0     O70100   4.503   7.878   4.925  0.2529  0.2439  0.2698
  532MOL0     C70101   4.614   7.789   4.896 -0.6681 -0.5564 -0.3367
  532MOL0     C70102   4.615   7.800   4.744 -0.2247  0.9838 -0.3037
  532MOL0     C70103   4.642   7.942   4.691  0.1958 -0.3499 -1.2380
  532MOL0     C70104   4.565   7.975   4.565 -0.2068 -0.0593  0.4017
  532MOL0     C70105   4.421   8.011   4.608 -0.0159  0.5243 -0.5077
  532MOL0     C70106   4.316   8.016   4.492  0.1052 -0.5761  0.3137
  532MOL0     C70107   4.373   8.029   4.346 -0.5786 -0.7399  0.4474
  532MOL0     C70108   4.264   8.052   4.246  0.2630  0.7812  0.2201
  532MOL0     N70109   4.196   7.922   4.215  0.1232  0.4307  0.8591
  532MOL0     C70110   4.149   7.886   4.088 -0.6821  0.3470 -0.1087
  532MOL0     C70111   4.024   7.828   4.096 -0.8952  0.7570 -0.1078
  532MOL0     C70112   3.942   7.746   3.999 -0.0557  0.6008  0.1920
  532MOL0     C70113   3.915   7.829   3.870  0.4600 -0.1383  0.3769
  532MOL0     C70114   3.804   7.758   3.789  0.5233  0.1499  1.0961
  532MOL0     C70115   3.734   7.844   3.688  0.5895 -0.6720 -0.3687
  532MOL0     O70116   3.638   7.937   3.755  0.3093 -1.0574  0.1243
  532MOL0     C70117   3.558   8.020   3.688  0.8606 -0.1075 -0.1791
  532MOL0     C70118   3.585   8.047   3.559  1.0138  0.3058 -0.2748
  532MOL0     C70119   3.493   8.112   3.479 -0.7807 -0.1592  0.2065
  532MOL0     C70120   3.395   8.185   3.546 -0.4119  0.4992  0.7876
  532MOL0     C70121   3.296   8.266   3.457 -0.8150  0.0952 -0.0192
  532MOL0     O70122   3.328   8.271   3.336 -0.3579  0.6398  0.3034
  532MOL0     C70123   3.225   8.321   3.254 -0.9712 -0.3253  0.9257
  532MOL0     C70124   3.247   8.448   3.206 -0.0261 -0.3881 -0.4215
  532MOL0     C70125   3.173   8.498   3.098 -1.0439 -0.9981 -0.1097
  532MOL0     C70126   3.071   8.426   3.044  0.2616  0.5419  0.2207
  532MOL0     O70127   3.005   8.476   2.936 -0.2890  0.1149  0.5497
  532MOL0     C70128   2.898   8.411   2.869  1.1797 -0.3830  0.1586
  532MOL0     C70129   2.864   8.465   2.735 -0.3113 -0.8844 -0.1465
  532MOL0     C70130   2.841   8.619   2.746  0.2817 -0.3715  0.9188
  532MOL0     C70131   2.787   8.669   2.608 -0.0954  0.3166  1.1764
  532MOL0     C70132   2.778   8.814   2.572 -0.4442  1.4278  0.3555
  532MOL0     C70133   2.672   8.897   2.639 -0.0991 -0.3031  0.1359
  532MOL0     C70134   2.674   9.038   2.577  0.0016  0.1847  0.2495
  532MOL0     C70135   2.559   9.122   2.632 -0.7692 -0.5524  0.5993
  532MOL0    Cl70136   2.579   9.278   2.562  0.4608  0.1884  0.2229
  532MOL0     C70137   3.042   8.294   3.094  0.0006 -0.9498  0.2054
  532MOL0     C70138   3.117   8.244   3.201 -0.8471 -0.1739 -0.5228
  532MOL0     O70139   3.197   8.314   3.511  0.1265 -0.3944 -0.4385
  532MOL0     C70140   3.375   8.167   3.678 -0.5203 -0.1310 -1.1764
  532MOL0     C70141   3.451   8.072   3.761 -1.1265  0.0790  0.5521
  532MOL0     N70142   3.999   7.816   4.233  0.2534  0.0259  0.7074
  532MOL0     N70143   4.095   7.866   4.293 -0.2275 -0.6699 -0.5083
  532MOL0     C70144   4.323   7.932   5.075 -0.3056  0.3085  0.4004
  532MOL0     C70145   4.266   7.932   5.210 -0.1079  0.5919 -0.7717
  532MOL0     C70146   4.264   7.905   5.676  0.0114 -0.4147 -0.1069
  532MOL0     C70147   4.277   7.835   5.796 -1.3712 -0.2220  0.1489
  532MOL0     C70148   4.198   7.878   5.909 -0.3827  0.2681 -0.6089
  532MOL0     C70149   4.090   7.966   5.901 -1.0394 -1.3220 -0.0325
  532MOL0     O70150   4.016   7.998   6.013  0.3813  0.0274  0.0135
  532MOL0     C70151   3.896   7.921   6.018 -0.0662 -0.3059 -0.1050
  532MOL0     C70152   3.784   8.006   6.066  0.1368 -0.0198 -0.3627
  532MOL0     C70153   3.652   7.937   6.052 -0.0272  0.0023 -0.2652
  532MOL0     C70154   3.628   7.862   6.182 -0.4591  0.0594 -0.5850
  532MOL0     C70155   3.488   7.814   6.205  0.6932  0.1551  0.5303
  532MOL0     C70156   3.382   7.765   6.241 -0.1348  0.5642  0.4537
  532MOL0     C70157   4.073   8.028   5.780 -0.2724  1.1754  0.1500
  532MOL0     C70158   4.157   7.996   5.673 -0.3134 -0.3310 -0.2195
  532MOL0     H70159   4.547   7.853   5.386  2.0488  1.8930 -0.8707
  532MOL0     H70160   4.637   7.825   5.158  1.1207  2.9194  1.2994
  532MOL0     H70161   4.591   7.689   4.935 -0.2427  0.4053  2.6496
  532MOL0     H70162   4.697   7.834   4.951 -2.5868  1.2073  1.2975
  532MOL0     H70163   4.524   7.752   4.706 -2.0821  0.4903  4.1392
  532MOL0     H70164   4.693   7.733   4.709  0.9617  0.8608  2.3596
  532MOL0     H70165   4.750   7.948   4.679  0.7746 -0.0772  2.8409
  532MOL0     H70166   4.619   8.019   4.765 -2.7178 -0.0272 -2.3195
  532MOL0     H70167   4.611   8.051   4.501 -0.6999 -0.2017 -0.1421
  532MOL0     H70168   4.558   7.885   4.503 -1.7981  1.1256 -1.2604
  532MOL0     H70169   4.416   8.112   4.652  1.0670 -0.5267  2.2212
  532MOL0     H70170   4.381   7.942   4.682  2.4117 -1.6081 -1.0578
  532MOL0     H70171   4.243   8.096   4.508  0.3083 -0.4286  0.4940
  532MOL0     H70172   4.259   7.922   4.491 -1.1030  0.0787 -2.6351
  532MOL0     H70173   4.438   8.115   4.331  2.5647 -2.2150  3.9380
  532MOL0     H70174   4.418   7.931   4.327 -0.6788 -0.7079  0.0280
  532MOL0     H70175   4.305   8.091   4.152  0.5645  1.8127  0.7685
  532MOL0     H70176   4.189   8.127   4.276 -2.2430  0.1111 -3.6582
  532MOL0     H70177   4.208   7.899   3.998  1.6027  0.6945  1.3581
  532MOL0     H70178   3.851   7.712   4.050  0.6630 -0.8119  0.5574
  532MOL0     H70179   3.991   7.657   3.960 -3.3092 -0.2075 -2.6125
  532MOL0     H70180   4.008   7.831   3.812  0.2795 -2.7088 -0.1220
  532MOL0     H70181   3.885   7.930   3.899 -3.7500 -1.6499  2.2190
  532MOL0     H70182   3.853   7.676   3.736 -0.5127  0.1047  0.1730
  532MOL0     H70183   3.729   7.706   3.850 -1.7328 -1.1972 -2.4722
  532MOL0     H70184   3.679   7.782   3.617  0.9313 -2.2170  0.6740
  532MOL0     H70185   3.808   7.905   3.634  0.6540  1.4181  1.8655
  532MOL0     H70186   3.677   8.011   3.515  2.2512  3.5494 -0.6156
  532MOL0     H70187   3.523   8.119   3.374 -0.2828 -0.9754  0.2898
  532MOL0     H70188   3.329   8.512   3.238  0.2378 -0.6521 -0.5678
  532MOL0     H70189   3.196   8.597   3.061 -1.9435 -0.8197 -0.2119
  532MOL0     H70190   2.802   8.420   2.921  0.1919  1.2199 -1.8216
  532MOL0     H70191   2.922   8.305   2.854  0.2003 -0.3532 -1.8717
  532MOL0     H70192   2.780   8.407   2.696 -1.3752 -0.3531  1.2590
  532MOL0     H70193   2.945   8.438   2.666  2.0768  0.5088  1.9405
  532MOL0     H70194   2.939   8.661   2.771  0.9741  0.7272 -2.8987
  532MOL0     H70195   2.764   8.649   2.817 -0.5601  0.9912 -0.4999
  532MOL0     H70196   2.846   8.627   2.526 -2.1802 -3.3444  1.3214
  532MOL0     H70197   2.688   8.625   2.587  1.1021 -1.0083 -2.6312
  532MOL0     H70198   2.738   8.816   2.470  0.3266  0.3050  0.0160
  532MOL0     H70199   2.871   8.870   2.587  0.3686  0.2996 -0.3444
  532MOL0     H70200   2.689   8.898   2.748  0.7416 -1.7858  0.0435
  532MOL0     H70201   2.579   8.843   2.621  1.0975 -1.5376 -2.9854
  532MOL0     H70202   2.765   9.091   2.607 -1.4931  2.0975  1.6488
  532MOL0     H70203   2.672   9.032   2.468 -0.0857  2.8575  0.0274
  532MOL0     H70204   2.563   9.122   2.742 -0.2980 -1.0543  0.5847
  532MOL0     H70205   2.461   9.084   2.602 -1.3800 -0.8249  2.7330
  532MOL0     H70206   2.969   8.226   3.052 -0.3824  0.6495 -1.8870
  532MOL0     H70207   3.092   8.155   3.258 -2.2611 -1.4409 -2.9530
  532MOL0     H70208   3.297   8.228   3.722  1.7964  1.1307  1.4620
  532MOL0     H70209   3.437   8.056   3.867 -2.4007  0.2811  0.4347
  532MOL0     H70210   4.255   7.959   4.995 -2.7298  0.5250  2.3787
  532MOL0     H70211   4.164   7.960   5.235  0.4351  0.0050  2.5062
  532MOL0     H70212   4.347   7.752   5.791 -0.4052  0.6333 -2.5788
  532MOL0     H70213   4.217   7.830   6.005  2.7425  2.2955 -0.0781
  532MOL0     H70214   3.914   7.838   6.087 -1.9751 -2.3259 -1.8863
  532MOL0     H70215   3.876   7.874   5.921  0.6030 -0.7004 -0.0610
  532MOL0     H70216   3.808   8.033   6.169 -0.6467 -1.9133  0.3653
  532MOL0     H70217   3.774   8.103   6.015  3.9510  1.1608  0.8134
  532MOL0     H70218   3.669   7.860   5.976  3.4720  1.2010 -0.8871
  532MOL0     H70219   3.566   8.003   6.039  1.9777  2.6452 -0.7517
  532MOL0     H70220   3.695   7.775   6.185  1.8929  1.8150  1.4416
  532MOL0     H70221   3.647   7.929   6.267  2.0279  0.9672 -1.7645
  532MOL0     H70222   3.283   7.736   6.270  1.4665 -2.7427  3.3292
  532MOL0     H70223   4.001   8.108   5.770 -0.6981  0.6986 -0.6756
  532MOL0     H70224   4.136   8.036   5.574 -0.5801  0.4700  0.1532
  533MOL0     O70225   5.453   2.737   7.588 -0.2822  0.0897  0.7887
  533MOL0     C70226   5.440   2.848   7.630 -0.8353  0.5195 -0.7425
  533MOL0     O70227   5.338   2.891   7.708  0.3798 -0.2221 -0.2802
  533MOL0     C70228   5.240   2.801   7.725 -0.2143 -0.1731  0.5371
  533MOL0     C70229   5.199   2.759   7.857  0.3894 -0.6886  0.3854
  533MOL0     C70230   5.086   2.680   7.874  0.4374  0.3346  0.1577
  533MOL0     C70231   5.008   2.635   7.764 -1.4237  0.5907 -1.4858
  533MOL0     O70232   4.891   2.569   7.772 -0.4779  0.4317  0.7454
  533MOL0     C70233   4.841   2.526   7.899 -0.0994 -0.9269 -0.6014
  533MOL0     C70234   4.718   2.423   7.884 -0.2577  0.4324  0.1775
  533MOL0     C70235   4.768   2.287   7.826 -1.7437 -0.9225  0.8874
  533MOL0     C70236   4.649   2.187   7.824 -1.4454  0.4351  0.0246
  533MOL0     C70237   4.704   2.050   7.764 -0.4030 -0.3643 -0.2580
  533MOL0     C70238   4.603   1.943   7.817  0.1860  0.2557  0.1830
  533MOL0     C70239   4.620   1.805   7.757 -0.4225  0.1694  0.0668
  533MOL0     C70240   4.752   1.749   7.810  1.6850  0.3324  0.5117
  533MOL0     N70241   4.759   1.604   7.792  0.9364 -0.5178  0.3865
  533MOL0     C70242   4.761   1.535   7.677 -0.8761  0.7656 -0.0157
  533MOL0     C70243   4.742   1.405   7.704 -0.4738 -0.8868 -0.1874
  533MOL0     C70244   4.740   1.276   7.628 -0.6070 -0.1299  0.3339
  533MOL0     C70245   4.845   1.177   7.681  0.5677  0.2156 -0.8624
  533MOL0     C70246   4.812   1.043   7.617  0.8506  0.9297 -0.1157
  533MOL0     C70247   4.906   0.926   7.660 -0.2665 -0.4497  0.1177
  533MOL0     O70248   4.847   0.808   7.613  0.0991  0.1554 -0.6614
  533MOL0     C70249   4.914   0.691   7.645 -0.7934 -0.4072  0.3838
  533MOL0     C70250   5.008   0.681   7.747 -0.3998 -0.8482 -0.1640
  533MOL0     C70251   5.065   0.558   7.781  0.4345  0.4020  0.5764
  533MOL0     C70252   5.013   0.442   7.710 -0.8596  0.9040 -0.5035
  533MOL0     C70253   5.062   0.306   7.748 -0.5857  0.2164  0.4125
  533MOL0     O70254   5.074   0.216   7.643  0.1131  0.7936 -0.0015
  533MOL0     C70255   5.085   0.084   7.684 -0.2214 -0.0785  0.4384
  533MOL0     C70256   5.211   0.035   7.698  0.4236 -0.6738 -0.5053
  533MOL0     C70257   5.238  -0.096   7.736 -0.5538  0.1424 -0.2033
  533MOL0     C70258   5.134  -0.191   7.750 -0.6946 -0.8561  1.1976
  533MOL0     O70259   5.154  -0.317   7.806  0.5172 -0.1114  0.6205
  533MOL0     C70260   5.222  -0.320   7.933  0.6334 -0.4603  0.1234
  533MOL0     C70261   5.348  -0.414   7.930  0.8914  0.9689  0.9576
  533MOL0     C70262   5.300  -0.560   7.922  0.4906  0.1592  0.1772
  533MOL0     C70263   5.414  -0.660   7.932 -0.6248 -0.1090  0.1147
  533MOL0     C70264   5.362  -0.800   7.984  0.1700 -1.5806  0.5483
  533MOL0     C70265   5.483  -0.887   8.015 -0.3574 -0.2356 -0.2030
  533MOL0     C70266   5.426  -1.020   8.063  0.0207 -0.2891 -0.2886
  533MOL0     C70267   5.540  -1.121   8.097  0.7199 -0.7599 -0.6372
  533MOL0    Cl70268   5.661  -1.166   7.973 -0.8961 -0.5354 -0.1343
  533MOL0     C70269   5.007  -0.152   7.713  0.5593 -0.5259  0.4082
  533MOL0     C70270   4.985  -0.017   7.688 -1.0545 -1.2863  0.4498
  533MOL0     O70271   5.069   0.286   7.871 -0.6805  0.1767  0.6531
  533MOL0     C70272   4.916   0.451   7.616  0.0451 -0.1139 -0.8691
  533MOL0     C70273   4.870   0.578   7.584  1.0876  0.5357 -0.3177
  533MOL0     N70274   4.712   1.399   7.845  0.2317 -0.3352 -0.6152
  533MOL0     N70275   4.726   1.518   7.890 -0.5428 -0.0118  0.8309
  533MOL0     C70276   5.052   2.668   7.637 -0.2198  0.2856 -0.0829
  533MOL0     C70277   5.169   2.750   7.619 -0.3624 -0.4984  1.3090
  533MOL0     C70278   5.561   2.930   7.603  0.3956  0.5540  0.1745
  533MOL0     C70279   5.551   3.074   7.571 -0.2570  0.5998 -0.7176
  533MOL0     C70280   5.660   3.153   7.551  0.2571  0.2145  0.1424
  533MOL0     C70281   5.786   3.097   7.542  0.2960  0.1579 -0.3436
  533MOL0     O70282   5.893   3.177   7.522 -0.2986 -0.3234  0.3743
  533MOL0     C70283   5.981   3.188   7.642 -0.1160 -0.4549  0.2458
  533MOL0     C70284   6.081   3.303   7.622  0.0020 -0.7368  0.4232
  533MOL0     C70285   6.156   3.366   7.741 -0.8841  0.3129 -0.5573
  533MOL0     C70286   6.067   3.458   7.823  0.2936 -0.3770  0.4360
  533MOL0     C70287   6.021   3.575   7.754 -0.6785 -0.1346  0.5500
  533MOL0     C70288   5.979   3.667   7.688 -0.4840 -0.3840  0.4057
  533MOL0     C70289   5.805   2.962   7.574  0.3845 -0.0189 -0.1041
  533MOL0     C70290   5.692   2.876   7.602  0.0563 -0.2240 -0.9250
  533MOL0     H70291   5.257   2.796   7.940  0.7239  1.0119 -0.5646
  533MOL0     H70292   5.069   2.632   7.970  0.6175 -1.2541 -0.5832
  533MOL0     H70293   4.819   2.596   7.980  1.6848  1.1071 -1.7564
  533MOL0     H70294   4.917   2.466   7.949  0.7136  1.0743  0.6624
  533MOL0     H70295   4.647   2.482   7.825  0.1828  2.5372  1.6334
  533MOL0     H70296   4.673   2.412   7.983 -1.3729  0.8594 -0.2623
  533MOL0     H70297   4.845   2.257   7.898 -0.2346  0.0985 -0.2224
  533MOL0     H70298   4.821   2.289   7.730 -1.9428  0.3367  0.7826
  533MOL0     H70299   4.609   2.176   7.925  1.3096 -3.4136  0.8875
  533MOL0     H70300   4.560   2.220   7.769 -1.0992  3.0913  0.9379
  533MOL0     H70301   4.808   2.040   7.794 -0.3264  0.5163 -0.2103
  533MOL0     H70302   4.693   2.073   7.658 -4.3112  2.6241  0.5515
  533MOL0     H70303   4.502   1.974   7.791 -0.3994 -1.5941  0.0962
  533MOL0     H70304   4.615   1.936   7.926  1.8849  0.3986  0.0265
  533MOL0     H70305   4.535   1.744   7.789 -3.4492  3.9809 -0.0425
  533MOL0     H70306   4.619   1.799   7.648 -0.4963 -1.6472  0.1339
  533MOL0     H70307   4.779   1.781   7.911 -2.6997  0.9090  1.7305
  533MOL0     H70308   4.825   1.803   7.749 -0.2217  2.3528 -0.1347
  533MOL0     H70309   4.776   1.588   7.584 -2.0121  0.3121 -0.4725
  533MOL0     H70310   4.757   1.292   7.522 -0.1243 -0.9125  0.2878
  533MOL0     H70311   4.644   1.227   7.646  1.0721 -3.5358  0.8047
  533MOL0     H70312   4.840   1.170   7.791 -2.2733 -1.4707 -1.0004
  533MOL0     H70313   4.944   1.209   7.646  1.1844 -1.1499 -0.4200
  533MOL0     H70314   4.716   1.014   7.661  2.7091 -1.5317  2.7162
  533MOL0     H70315   4.817   1.055   7.508  1.8577  2.3370  0.0578
  533MOL0     H70316   4.918   0.933   7.768  0.0697 -2.6083  0.2701
  533MOL0     H70317   5.001   0.948   7.610  0.1022  3.4813  2.1847
  533MOL0     H70318   5.038   0.770   7.801 -1.7487 -0.4745  0.0011
  533MOL0     H70319   5.152   0.556   7.846  1.2867  1.0314 -0.4837
  533MOL0     H70320   5.294   0.104   7.682 -1.1565  1.4654  0.0907
  533MOL0     H70321   5.342  -0.128   7.748 -0.6509 -1.0065 -1.9860
  533MOL0     H70322   5.161  -0.361   8.014  1.2918  0.7615  1.2653
  533MOL0     H70323   5.241  -0.217   7.964  1.8711 -0.7304  0.3282
  533MOL0     H70324   5.402  -0.385   8.021 -2.4760 -0.9419  3.8133
  533MOL0     H70325   5.413  -0.404   7.843  0.4867  0.8224  0.6381
  533MOL0     H70326   5.250  -0.586   7.828  0.3209 -2.3051  0.8618
  533MOL0     H70327   5.224  -0.578   7.999 -3.4882 -0.4433 -3.5024
  533MOL0     H70328   5.471  -0.660   7.839  0.5017  0.5275  0.7797
  533MOL0     H70329   5.493  -0.617   7.995 -0.0797 -0.7847 -0.0893
  533MOL0     H70330   5.296  -0.841   7.907  1.2130  0.8418 -1.7815
  533MOL0     H70331   5.306  -0.781   8.077 -1.8331 -1.9274 -0.5363
  533MOL0     H70332   5.553  -0.835   8.082 -0.4600  0.3853 -0.5719
  533MOL0     H70333   5.540  -0.898   7.922 -1.6198  0.7883 -1.1269
  533MOL0     H70334   5.356  -1.010   8.147  1.4574  1.9993  0.7399
  533MOL0     H70335   5.373  -1.073   7.984 -0.0909  0.5423 -0.7883
  533MOL0     H70336   5.494  -1.209   8.144 -0.2027  0.3686  0.6743
  533MOL0     H70337   5.602  -1.083   8.178  2.2153 -1.9207 -1.1942
  533MOL0     H70338   4.923  -0.218   7.694 -0.8900  1.9735 -2.8748
  533MOL0     H70339   4.889   0.023   7.658 -0.8794 -1.1355  0.0720
  533MOL0     H70340   4.864   0.361   7.585 -3.0915  1.2801  0.0265
  533MOL0     H70341   4.790   0.600   7.515 -0.2764 -0.9731  0.6987
  533MOL0     H70342   4.985   2.639   7.556 -0.2617 -0.9258  0.3632
  533MOL0     H70343   5.203   2.767   7.517 -2.8663 -1.9752  0.1255
  533MOL0     H70344   5.450   3.113   7.571 -0.0905  1.0423 -1.6293
  533MOL0     H70345   5.646   3.260   7.538 -0.2430  0.0251 -1.0007
  533MOL0     H70346   6.042   3.100   7.665  1.4406  0.6948  0.7216
  533MOL0     H70347   5.919   3.219   7.726  0.4057  1.5371 -0.0473
  533MOL0     H70348   6.159   3.281   7.549 -2.7498 -1.1221 -2.6303
  533MOL0     H70349   6.032   3.388   7.574 -2.8335 -1.9101  1.0506
  533MOL0     H70350   6.250   3.415   7.710  0.4095 -2.2174 -0.8729
  533MOL0     H70351   6.188   3.293   7.816  0.2162  1.7168  0.4087
  533MOL0     H70352   5.973   3.407   7.847 -0.6963  1.2070  0.0189
  533MOL0     H70353   6.103   3.496   7.919 -0.6295  2.5007 -0.2772
  533MOL0     H70354   5.935   3.745   7.629 -0.9116 -1.1149 -0.2496
  533MOL0     H70355   5.901   2.913   7.582 -0.5300 -1.8354  0.3360
  533MOL0     H70356   5.713   2.776   7.639  1.9129  0.5963  0.3695
  534MOL0     O70357   5.271   9.376   9.709  0.3296 -0.5524 -0.5735
  534MOL0     C70358   5.295   9.345   9.588 -0.7477  1.1989 -1.7272
  534MOL0     O70359   5.361   9.233   9.551 -0.3531 -0.2940 -1.0521
  534MOL0     C70360   5.391   9.138   9.649  0.7340 -0.1050 -0.4647
  534MOL0     C70361   5.519   9.139   9.712 -0.2867 -0.7334  0.9704
  534MOL0     C70362   5.547   9.032   9.799  0.3190 -0.2072  0.1317
  534MOL0     C70363   5.462   8.924   9.803  0.1803 -0.4628 -0.2082
  534MOL0     O70364   5.469   8.806   9.872  0.0626 -0.6375 -0.7451
  534MOL0     C70365   5.507   8.821  10.006 -0.1503  0.0448  0.6999
  534MOL0     C70366   5.472   8.704  10.087  0.2368  0.3575 -0.3762
  534MOL0     C70367   5.474   8.737  10.233  0.5231 -0.3836  1.1608
  534MOL0     C70368   5.486   8.606  10.317 -0.5830  0.3691  0.1466
  534MOL0     C70369   5.505   8.624  10.467  0.3829  1.1231  0.2332
  534MOL0     C70370   5.633   8.569  10.540  0.2167  0.6982 -0.2144
  534MOL0     C70371   5.662   8.634  10.670 -0.2796 -0.3470 -0.5381
  534MOL0     C70372   5.747   8.565  10.775 -0.0538 -1.2151 -0.0019
  534MOL0     N70373   5.754   8.635  10.900  0.4732  0.4537  1.1254
  534MOL0     C70374   5.742   8.597  11.031  0.8344 -0.2575  0.0894
  534MOL0     C70375   5.805   8.691  11.096  0.3515 -0.2469  0.2400
  534MOL0     C70376   5.818   8.713  11.247  0.3061  0.5103 -0.3773
  534MOL0     C70377   5.723   8.819  11.300 -0.5115  0.3704  0.3314
  534MOL0     C70378   5.775   8.960  11.284  0.3714 -1.0316  0.1258
  534MOL0     C70379   5.671   9.056  11.227  0.4707 -0.1718  0.7143
  534MOL0     O70380   5.573   9.091  11.328 -0.1675 -0.5058  0.7845
  534MOL0     C70381   5.437   9.083  11.298 -0.1026 -0.2750 -0.2253
  534MOL0     C70382   5.374   9.149  11.182  0.0269 -1.1373 -1.1211
  534MOL0     C70383   5.237   9.138  11.164 -0.0733  0.8956 -1.2604
  534MOL0     C70384   5.156   9.065  11.259 -0.8985 -0.9042  0.1703
  534MOL0     C70385   5.014   9.066  11.249  0.8719 -0.7851  1.1463
  534MOL0     O70386   4.968   9.091  11.122 -0.4865  0.6122 -0.6377
  534MOL0     C70387   4.833   9.081  11.111 -0.5362  0.5430 -0.1641
  534MOL0     C70388   4.742   9.163  11.177  0.2967  0.2365  0.2046
  534MOL0     C70389   4.615   9.116  11.196  1.0450  0.1642  0.4498
  534MOL0     C70390   4.562   9.011  11.111 -0.5430 -0.0959  0.4120
  534MOL0     O70391   4.439   8.958  11.146  0.3593 -0.7333  0.1261
  534MOL0     C70392   4.369   8.879  11.054 -0.4754  0.3969  1.1324
  534MOL0     C70393   4.231   8.846  11.099  0.2483 -0.2464 -0.3598
  534MOL0     C70394   4.232   8.751  11.225  0.5717  1.2607 -0.1566
  534MOL0     C70395   4.102   8.727  11.300  0.2040 -0.6554  0.1732
  534MOL0     C70396   4.123   8.620  11.400  0.2678 -0.0145 -0.3631
  534MOL0     C70397   3.995   8.584  11.479 -0.2399  0.6064 -0.2347
  534MOL0     C70398   4.042   8.522  11.616 -0.5122 -0.3260  0.3690
  534MOL0     C70399   3.916   8.468  11.694  1.2085 -0.6465 -0.3829
  534MOL0    Cl70400   3.800   8.602  11.731  0.2184 -0.0891  0.1706
  534MOL0     C70401   4.641   8.941  11.029 -0.0708  0.0067  0.1344
  534MOL0     C70402   4.778   8.981  11.027 -0.5559 -0.1735 -0.4879
  534MOL0     O70403   4.948   9.035  11.352 -0.4342 -0.4783  0.3903
  534MOL0     C70404   5.215   8.999  11.366 -0.4436  0.3030  0.6781
  534MOL0     C70405   5.356   9.003  11.384 -0.7757  0.0929  0.5736
  534MOL0     N70406   5.856   8.786  11.011 -0.5290 -0.1786 -0.4112
  534MOL0     N70407   5.821   8.751  10.893  0.7822  0.1862  0.0510
  534MOL0     C70408   5.340   8.932   9.744  1.6543 -0.2961 -0.0926
  534MOL0     C70409   5.301   9.036   9.662 -0.0201 -0.6085 -0.4436
  534MOL0     C70410   5.238   9.420   9.470 -0.2087  0.5240  0.3326
  534MOL0     C70411   5.274   9.377   9.340  0.6021  0.4646  0.4751
  534MOL0     C70412   5.211   9.438   9.234  1.0682 -0.5885  1.0151
  534MOL0     C70413   5.127   9.547   9.252  1.2698 -0.3655 -0.3132
  534MOL0     O70414   5.074   9.622   9.143 -0.2703 -0.5168 -0.6683
  534MOL0     C70415   5.143   9.602   9.019 -0.2047 -0.6370  0.4773
  534MOL0     C70416   5.069   9.683   8.913  0.9845 -0.4741 -0.4277
  534MOL0     C70417   4.947   9.615   8.878  0.1454 -0.8472  0.3709
  534MOL0     C70418   4.846   9.705   8.803  0.9136  0.2699  0.1447
  534MOL0     C70419   4.855   9.690   8.661 -0.3517  0.2449  0.6415
  534MOL0     C70420   4.851   9.669   8.541 -0.2963 -0.9383  0.6712
  534MOL0     C70421   5.096   9.584   9.383  0.0125 -0.2211  0.8314
  534MOL0     C70422   5.141   9.518   9.493 -1.0412 -0.6795  0.7251
  534MOL0     H70423   5.592   9.218   9.703  0.3069 -0.7821  4.1741
  534MOL0     H70424   5.643   9.046   9.847  0.9667  2.9093 -1.8216
  534MOL0     H70425   5.461   8.912  10.045  2.8014  2.1993 -0.4692
  534MOL0     H70426   5.612   8.844  10.027 -0.1127  2.1108 -1.2692
  534MOL0     H70427   5.549   8.628  10.074  2.5576  2.3239  1.0541
  534MOL0     H70428   5.370   8.671  10.065 -0.1130  0.6050  0.7788
  534MOL0     H70429   5.380   8.788  10.254  1.7539  1.5746  2.2974
  534MOL0     H70430   5.551   8.806  10.270 -2.0950  2.4083  1.8659
  534MOL0     H70431   5.398   8.546  10.294 -2.0421  2.0618  1.0786
  534MOL0     H70432   5.564   8.535  10.288  0.7542  0.9632  2.0818
  534MOL0     H70433   5.419   8.577  10.516  0.7520 -0.0189 -0.1751
  534MOL0     H70434   5.501   8.733  10.479 -1.0515  0.9880  1.1938
  534MOL0     H70435   5.716   8.581  10.469  0.5868 -0.1167  0.0705
  534MOL0     H70436   5.610   8.464  10.560 -2.1295  1.3139  0.6114
  534MOL0     H70437   5.703   8.735  10.657  1.2426 -0.8321  0.2384
  534MOL0     H70438   5.567   8.633  10.723  1.1878 -1.2359  2.2842
  534MOL0     H70439   5.849   8.559  10.736 -1.2894 -2.2989 -3.4164
  534MOL0     H70440   5.727   8.458  10.784 -1.4308 -1.0185 -0.4640
  534MOL0     H70441   5.686   8.511  11.068  0.4817 -1.5204 -3.0871
  534MOL0     H70442   5.920   8.730  11.282 -0.5696  3.2356  1.1779
  534MOL0     H70443   5.786   8.624  11.302 -0.2547  0.1614 -1.2253
  534MOL0     H70444   5.720   8.814  11.409  2.9082  0.3226  0.5255
  534MOL0     H70445   5.625   8.800  11.256 -1.0037  1.7089  0.8106
  534MOL0     H70446   5.803   8.998  11.383  3.3314  2.3276 -1.7282
  534MOL0     H70447   5.864   8.958  11.221  0.2673  1.4882 -0.2148
  534MOL0     H70448   5.624   9.011  11.138  0.3120  0.2891  0.5632
  534MOL0     H70449   5.729   9.147  11.210  0.1806 -0.1132 -0.0027
  534MOL0     H70450   5.425   9.222  11.119 -1.3956  1.0350  0.1019
  534MOL0     H70451   5.189   9.195  11.085 -0.6545  1.9609 -0.1608
  534MOL0     H70452   4.777   9.247  11.236  0.6458  0.3250 -0.1247
  534MOL0     H70453   4.549   9.171  11.262  3.5911  1.3770  2.1865
  534MOL0     H70454   4.425   8.789  11.028 -0.2087  1.0397 -0.6403
  534MOL0     H70455   4.362   8.932  10.959 -0.0544 -1.7859 -0.1944
  534MOL0     H70456   4.170   8.802  11.020 -2.3104  0.0552  1.3434
  534MOL0     H70457   4.187   8.942  11.127  1.6967  0.2971  0.1491
  534MOL0     H70458   4.296   8.797  11.301 -1.5955  0.0589  2.6004
  534MOL0     H70459   4.269   8.658  11.183 -4.4322  0.0379 -2.6779
  534MOL0     H70460   4.066   8.818  11.350  4.5331  1.2142  0.3827
  534MOL0     H70461   4.026   8.688  11.232 -0.1194  1.4278 -0.7322
  534MOL0     H70462   4.200   8.653  11.470 -1.3961 -2.4006  2.8247
  534MOL0     H70463   4.160   8.527  11.355 -0.4441 -0.2074 -0.5698
  534MOL0     H70464   3.930   8.519  11.420 -0.6575 -0.4757  1.3692
  534MOL0     H70465   3.946   8.677  11.508 -2.1332 -1.1744  2.7505
  534MOL0     H70466   4.110   8.441  11.588 -0.3226  0.1831 -0.7051
  534MOL0     H70467   4.095   8.600  11.672 -0.6748  0.4997 -0.5915
  534MOL0     H70468   3.942   8.421  11.789  2.2436 -1.5328 -1.0696
  534MOL0     H70469   3.872   8.384  11.639 -0.8949  0.7032 -0.8471
  534MOL0     H70470   4.610   8.856  10.969 -3.5354  1.0600  0.1582
  534MOL0     H70471   4.847   8.927  10.964  3.0419  1.7709  1.4538
  534MOL0     H70472   5.148   8.944  11.431  3.0026 -1.7990  2.7349
  534MOL0     H70473   5.408   8.942  11.457  1.3963  0.9257 -0.1847
  534MOL0     H70474   5.264   8.856   9.759 -1.7616  2.8336 -0.1414
  534MOL0     H70475   5.201   9.043   9.620 -0.5197 -1.5384  0.5685
  534MOL0     H70476   5.357   9.311   9.319  1.4744  2.1629 -1.8027
  534MOL0     H70477   5.240   9.401   9.135 -1.4680  0.9176 -0.4026
  534MOL0     H70478   5.143   9.498   8.986 -6.6115 -1.0609  0.6331
  534MOL0     H70479   5.247   9.637   9.019 -0.7064  0.9643 -0.8582
  534MOL0     H70480   5.042   9.782   8.950  0.3224 -0.1223 -1.7958
  534MOL0     H70481   5.125   9.696   8.820  1.2137 -2.5940 -0.6525
  534MOL0     H70482   4.893   9.587   8.969  0.2594  2.8287  1.7320
  534MOL0     H70483   4.974   9.524   8.823 -0.8841 -2.0480  1.7614
  534MOL0     H70484   4.746   9.676   8.839  1.1961  1.2544  1.8291
  534MOL0     H70485   4.857   9.812   8.820 -3.4994  0.6490  1.9903
  534MOL0     H70486   4.847   9.659   8.435  0.4767  1.3774  0.3554
  534MOL0     H70487   5.025   9.665   9.396 -0.5137 -0.1317 -1.9676
  534MOL0     H70488   5.107   9.542   9.594 -1.4862  0.1356  0.3913
  535MOL0     O70489   2.105   3.079   0.833  0.4077 -0.2041  0.1379
  535MOL0     C70490   2.162   2.964   0.820  0.1926  0.2255 -0.4256
  535MOL0     O70491   2.232   2.903   0.913  0.0760  0.6847 -0.5881
  535MOL0     C70492   2.199   2.938   1.034  0.7710  0.0847 -0.6670
  535MOL0     C70493   2.279   3.027   1.099  0.2355  0.1228  0.2470
  535MOL0     C70494   2.249   3.083   1.227 -0.2295  0.2582  0.4134
  535MOL0     C70495   2.136   3.045   1.291  0.0680  0.4924  0.9844
  535MOL0     O70496   2.110   3.092   1.416 -0.5815 -0.3689  0.7009
  535MOL0     C70497   1.995   3.048   1.485  0.4594  0.6003  0.3302
  535MOL0     C70498   1.979   3.134   1.608 -0.0360 -0.9597  1.5865
  535MOL0     C70499   2.113   3.124   1.684 -0.1515  0.3831 -0.1895
  535MOL0     C70500   2.094   3.196   1.817 -0.5781  0.6932  0.7572
  535MOL0     C70501   2.232   3.231   1.878 -0.1574  0.4374 -0.3704
  535MOL0     C70502   2.240   3.287   2.018 -0.4121 -0.7670 -0.1879
  535MOL0     C70503   2.202   3.193   2.135 -0.0375  0.0453  1.2100
  535MOL0     C70504   2.170   3.266   2.259  0.0076 -0.2297 -0.6365
  535MOL0     N70505   2.247   3.388   2.292 -0.1210  0.4200 -0.7306
  535MOL0     C70506   2.357   3.398   2.374 -0.5047 -0.5332 -0.4983
  535MOL0     C70507   2.371   3.531   2.381  0.4895 -0.0614  0.0788
  535MOL0     C70508   2.476   3.606   2.462 -0.1080 -0.1341  0.5773
  535MOL0     C70509   2.603   3.612   2.372  0.0019  0.4865 -0.1371
  535MOL0     C70510   2.716   3.699   2.433 -0.8446  0.2870  0.2634
  535MOL0     C70511   2.848   3.636   2.472  0.3746 -0.1088  0.8369
  535MOL0     O70512   2.892   3.539   2.373 -0.0926  0.2383 -0.2178
  535MOL0     C70513   3.026   3.543   2.342  0.2683 -0.4621  0.2562
  535MOL0     C70514   3.122   3.537   2.450 -0.3516 -1.0799 -0.2768
  535MOL0     C70515   3.263   3.560   2.417 -0.0042  0.5967 -0.2401
  535MOL0     C70516   3.308   3.576   2.287 -0.1289  0.0857 -0.6434
  535MOL0     C70517   3.449   3.605   2.267 -0.8680  0.9483  0.2163
  535MOL0     O70518   3.541   3.561   2.361 -0.3497 -0.0198  0.7237
  535MOL0     C70519   3.676   3.555   2.339 -0.3388  0.0418  0.0931
  535MOL0     C70520   3.746   3.583   2.216 -0.1999  0.1803 -0.1270
  535MOL0     C70521   3.882   3.583   2.208  0.5327 -0.0408 -0.1145
  535MOL0     C70522   3.963   3.559   2.317  0.0188  0.7511 -0.0439
  535MOL0     O70523   4.101   3.547   2.298 -0.4852  0.3083  0.2066
  535MOL0     C70524   4.191   3.558   2.409 -0.1533  0.2060 -0.5304
  535MOL0     C70525   4.330   3.559   2.341  0.9294 -0.2171 -0.2976
  535MOL0     C70526   4.346   3.679   2.241 -0.2843 -0.7093  0.1027
  535MOL0     C70527   4.480   3.679   2.161 -0.1410  0.6380 -0.0996
  535MOL0     C70528   4.514   3.791   2.077  0.5580  0.0962 -0.2323
  535MOL0     C70529   4.604   3.897   2.144  0.5120  0.0595 -0.1187
  535MOL0     C70530   4.629   4.025   2.063  0.6826 -0.5677 -0.6019
  535MOL0     C70531   4.667   4.142   2.161  0.8663 -0.2399  0.5185
  535MOL0    Cl70532   4.811   4.096   2.271 -0.5636 -0.2967  0.1023
  535MOL0     C70533   3.896   3.531   2.438 -0.4483 -0.4538 -0.3079
  535MOL0     C70534   3.758   3.531   2.450  0.1008  0.0734 -0.6839
  535MOL0     O70535   3.472   3.657   2.164 -0.6448 -0.0678  0.4486
  535MOL0     C70536   3.221   3.561   2.180 -0.0417 -0.0213  0.3130
  535MOL0     C70537   3.087   3.550   2.215  0.1165  0.3572 -0.1879
  535MOL0     N70538   2.276   3.591   2.309 -0.0461 -0.0976  0.6911
  535MOL0     N70539   2.207   3.508   2.252  0.5331 -0.7269 -0.3000
  535MOL0     C70540   2.052   2.951   1.227 -0.3492  1.2432 -0.0302
  535MOL0     C70541   2.086   2.891   1.098  0.1544 -0.1519 -0.6494
  535MOL0     C70542   2.142   2.890   0.689  0.2813 -0.2806  0.4791
  535MOL0     C70543   2.045   2.925   0.603 -0.3692  0.0293 -0.3231
  535MOL0     C70544   2.009   2.834   0.501 -0.3018 -0.1687 -0.2475
  535MOL0     C70545   2.081   2.716   0.483  0.5197  0.3202 -0.2538
  535MOL0     O70546   2.039   2.625   0.391 -0.8091  0.0173  0.3844
  535MOL0     C70547   1.918   2.638   0.319 -0.5252 -0.7307 -0.8444
  535MOL0     C70548   1.880   2.516   0.251 -0.1252 -0.0151 -0.0778
  535MOL0     C70549   1.991   2.434   0.183 -0.7138  0.2652 -0.2335
  535MOL0     C70550   1.932   2.299   0.126  0.5964  0.3632  0.4950
  535MOL0     C70551   1.862   2.204   0.222  0.6243 -0.0204 -0.0410
  535MOL0     C70552   1.806   2.144   0.315 -0.0685  0.0294  0.0781
  535MOL0     C70553   2.186   2.686   0.571 -1.0607  0.1080  0.5820
  535MOL0     C70554   2.205   2.769   0.675 -0.0055  0.2410 -0.7284
  535MOL0     H70555   2.362   3.066   1.041  1.7630 -1.7414  1.0538
  535MOL0     H70556   2.330   3.144   1.267  0.3457  2.1023 -3.1963
  535MOL0     H70557   2.002   2.941   1.509  1.3638  0.8864  1.4153
  535MOL0     H70558   1.911   3.076   1.420 -0.6635  1.5472  2.1030
  535MOL0     H70559   1.893   3.101   1.667 -2.4078  2.4583  0.3295
  535MOL0     H70560   1.973   3.240   1.580  3.1563 -1.7467 -3.2013
  535MOL0     H70561   2.192   3.181   1.634  0.8732  0.2048  1.1736
  535MOL0     H70562   2.152   3.022   1.694 -0.6398  0.2125  0.0194
  535MOL0     H70563   2.037   3.285   1.790 -1.6011 -0.7173 -2.1157
  535MOL0     H70564   2.038   3.131   1.886  1.4275  0.4979  2.2892
  535MOL0     H70565   2.274   3.307   1.811  1.7649  0.3495  0.6773
  535MOL0     H70566   2.284   3.135   1.876  3.4591  2.2150 -0.4184
  535MOL0     H70567   2.180   3.378   2.026 -0.9062 -1.2382  2.8275
  535MOL0     H70568   2.339   3.325   2.042 -0.5481 -0.9159  0.6467
  535MOL0     H70569   2.115   3.137   2.099  0.4421  0.4373 -0.6651
  535MOL0     H70570   2.288   3.131   2.157 -0.1741  0.2502  2.3645
  535MOL0     H70571   2.199   3.201   2.342 -0.3283  1.1331  0.5854
  535MOL0     H70572   2.063   3.288   2.273 -0.5734 -2.5701 -0.9198
  535MOL0     H70573   2.405   3.315   2.426  1.2549  0.7769  0.0575
  535MOL0     H70574   2.502   3.545   2.549  0.2056  1.6326  1.7625
  535MOL0     H70575   2.439   3.701   2.499 -1.4448 -1.2257  2.2100
  535MOL0     H70576   2.581   3.646   2.270 -0.7105 -3.5285 -1.5209
  535MOL0     H70577   2.645   3.512   2.356 -0.9093 -0.1976  1.4915
  535MOL0     H70578   2.731   3.768   2.349  3.1282  1.4612  1.7254
  535MOL0     H70579   2.689   3.763   2.518  2.3951 -1.3458  2.7457
  535MOL0     H70580   2.834   3.576   2.562  1.9136 -0.0488  1.1554
  535MOL0     H70581   2.923   3.714   2.489  1.4134  0.4417 -4.5000
  535MOL0     H70582   3.104   3.521   2.555 -0.3547 -1.1982 -0.2955
  535MOL0     H70583   3.343   3.549   2.489 -1.1757 -2.1160  0.8171
  535MOL0     H70584   3.699   3.621   2.125  0.5687 -1.3125 -1.1976
  535MOL0     H70585   3.928   3.605   2.112  0.8874 -0.0709  0.0475
  535MOL0     H70586   4.166   3.479   2.481  0.4299  0.6792  0.2097
  535MOL0     H70587   4.197   3.651   2.467  0.4111  0.2480 -0.6526
  535MOL0     H70588   4.334   3.466   2.284 -1.6738 -1.5984  1.5916
  535MOL0     H70589   4.420   3.567   2.403  1.3894 -2.3738 -0.6209
  535MOL0     H70590   4.335   3.770   2.300  0.8888 -0.5131  0.0488
  535MOL0     H70591   4.263   3.683   2.170 -0.5773 -1.2067  0.4113
  535MOL0     H70592   4.551   3.657   2.241 -1.2546  0.5381  0.8967
  535MOL0     H70593   4.485   3.596   2.091 -0.9856  1.2628 -0.9224
  535MOL0     H70594   4.423   3.848   2.057  0.6148  0.5897  0.8579
  535MOL0     H70595   4.564   3.766   1.983 -1.1094  0.8274 -1.3735
  535MOL0     H70596   4.696   3.843   2.169 -0.7769 -2.4784 -0.5296
  535MOL0     H70597   4.557   3.940   2.233 -1.2760  1.5202 -1.7029
  535MOL0     H70598   4.713   4.012   1.995  0.6627 -0.4235 -0.6553
  535MOL0     H70599   4.538   4.053   2.007  1.4938  0.4831 -1.4369
  535MOL0     H70600   4.582   4.172   2.223 -2.0759 -2.3556 -2.1194
  535MOL0     H70601   4.707   4.226   2.103  0.5713 -0.4450  0.0104
  535MOL0     H70602   3.953   3.522   2.530  3.4032  1.0167 -2.3206
  535MOL0     H70603   3.708   3.496   2.539  0.0168 -1.5507 -1.3387
  535MOL0     H70604   3.246   3.560   2.075  2.4647  1.2545  0.8256
  535MOL0     H70605   3.015   3.549   2.133  1.7271  2.4257 -1.7510
  535MOL0     H70606   1.964   2.910   1.275  0.2816 -0.2301 -0.0857
  535MOL0     H70607   2.017   2.816   1.060 -0.8968  1.4302 -2.0289
  535MOL0     H70608   2.010   3.027   0.610 -0.4088  0.1029 -1.3973
  535MOL0     H70609   1.952   2.879   0.420 -2.9698  1.4253  2.3512
  535MOL0     H70610   1.929   2.708   0.235 -0.8048 -0.7616 -0.9075
  535MOL0     H70611   1.833   2.670   0.381 -1.2786 -2.3935 -0.9657
  535MOL0     H70612   1.828   2.453   0.324 -2.6041  0.3520 -1.4107
  535MOL0     H70613   1.807   2.552   0.178  1.6009  3.3948 -0.2747
  535MOL0     H70614   2.071   2.415   0.256 -2.8813 -0.2462  2.1556
  535MOL0     H70615   2.023   2.498   0.101 -2.3488 -0.1048 -1.2034
  535MOL0     H70616   1.865   2.309   0.041  2.6764 -0.4705 -1.3326
  535MOL0     H70617   2.026   2.258   0.088  1.7177  2.4389  0.8462
  535MOL0     H70618   1.743   2.084   0.378  1.0128  0.3481  1.4994
  535MOL0     H70619   2.242   2.593   0.566 -0.0360  0.6590  1.2707
  535MOL0     H70620   2.276   2.738   0.752  1.6167  0.9046 -1.9140
  536MOL0     O70621   8.313   1.631   1.947 -0.0337 -0.0699  0.2432
  536MOL0     C70622   8.270   1.685   2.048 -1.0716  0.3441  0.2705
  536MOL0     O70623   8.351   1.714   2.154  1.2130  0.4095 -0.0913
  536MOL0     C70624   8.494   1.702   2.151  0.4388  0.1802 -0.6407
  536MOL0     C70625   8.565   1.591   2.101 -0.7254 -0.5015 -0.7985
  536MOL0     C70626   8.698   1.568   2.137  0.5585  0.2817  0.0704
  536MOL0     C70627   8.759   1.656   2.233 -0.7897  0.3444  0.9700
  536MOL0     O70628   8.893   1.628   2.263 -0.4383 -0.4756 -0.5649
  536MOL0     C70629   8.979   1.693   2.347 -0.2608  0.3871  0.0209
  536MOL0     C70630   9.015   1.826   2.281  0.6339 -1.0982  0.5437
  536MOL0     C70631   9.111   1.826   2.150 -0.2861 -1.0984  0.6006
  536MOL0     C70632   9.103   1.970   2.091 -0.4064 -0.1366 -0.4275
  536MOL0     C70633   9.219   1.996   1.992  0.8486 -0.0177 -0.4214
  536MOL0     C70634   9.213   2.135   1.918  0.1981 -0.3780 -0.1671
  536MOL0     C70635   9.316   2.150   1.816  0.4985 -0.8749  0.1684
  536MOL0     C70636   9.457   2.163   1.870 -0.7412  0.3266  0.0952
  536MOL0     N70637   9.536   2.227   1.766  0.1797  0.0593 -0.1866
  536MOL0     C70638   9.572   2.163   1.658  0.1297 -0.3749  1.4754
  536MOL0     C70639   9.586   2.257   1.561 -0.4535 -0.2393  0.1719
  536MOL0     C70640   9.615   2.245   1.414 -0.9132 -0.7307 -0.2086
  536MOL0     C70641   9.770   2.215   1.405  0.6164  0.5478 -1.0335
  536MOL0     C70642   9.824   2.278   1.284 -0.1972 -0.3998  0.0113
  536MOL0     C70643   9.966   2.231   1.241  0.4439 -0.1239 -0.2845
  536MOL0     O70644   9.973   2.222   1.098 -0.2301  0.0418 -0.5302
  536MOL0     C70645  10.000   2.337   1.028 -0.1665  1.2299  1.1074
  536MOL0     C70646  10.023   2.332   0.885 -0.1822  1.0972 -0.3450
  536MOL0     C70647  10.071   2.442   0.816  0.5175 -0.3006 -0.5046
  536MOL0     C70648  10.094   2.564   0.881 -0.7198 -0.1174  0.2103
  536MOL0     C70649  10.161   2.672   0.805  0.1759 -0.0541  0.8395
  536MOL0     O70650  10.185   2.787   0.872 -0.1608  0.6125 -0.2539
  536MOL0     C70651  10.293   2.863   0.831 -0.3072  0.5396 -0.1033
  536MOL0     C70652  10.428   2.817   0.836 -0.3064 -0.2768 -1.4322
  536MOL0     C70653  10.531   2.895   0.787 -0.2656 -0.5349 -0.3527
  536MOL0     C70654  10.502   3.016   0.724 -0.4602 -0.1718  0.0728
  536MOL0     O70655  10.606   3.077   0.659 -0.3596 -0.5791 -0.1160
  536MOL0     C70656  10.598   3.224   0.630 -0.1500  0.5030  0.2602
  536MOL0     C70657  10.715   3.272   0.535  0.6613 -0.6850 -0.2995
  536MOL0     C70658  10.856   3.258   0.604  0.1938 -0.5832 -0.1070
  536MOL0     C70659  10.877   3.389   0.686  0.0930  0.9114  0.1404
  536MOL0     C70660  11.000   3.397   0.762  0.3199 -0.2412 -1.0660
  536MOL0     C70661  11.121   3.321   0.704  0.1525 -0.6512  0.4257
  536MOL0     C70662  11.256   3.354   0.764  0.6230  0.8731  0.0046
  536MOL0     C70663  11.308   3.492   0.722  0.7723 -0.2090  0.1531
  536MOL0    Cl70664  11.488   3.476   0.711  0.2864 -0.3361 -0.7264
  536MOL0     C70665  10.365   3.063   0.718  0.1768 -0.3371 -0.1450
  536MOL0     C70666  10.261   2.991   0.778  0.3380 -0.4312 -0.3055
  536MOL0     O70667  10.192   2.650   0.692  0.1388 -0.0981  0.2751
  536MOL0     C70668  10.046   2.585   1.010 -0.8422  1.0069  0.2016
  536MOL0     C70669  10.006   2.468   1.079 -0.4000  0.8288 -0.1923
  536MOL0     N70670   9.551   2.375   1.616  0.8996  0.7857 -0.6933
  536MOL0     N70671   9.511   2.357   1.735 -0.0476 -0.8426 -0.8376
  536MOL0     C70672   8.691   1.758   2.285  0.5208 -0.9745 -0.9442
  536MOL0     C70673   8.556   1.782   2.239 -0.6712 -0.4062  0.4305
  536MOL0     C70674   8.134   1.732   2.055  0.5471  0.6345 -0.4183
  536MOL0     C70675   8.088   1.806   2.163 -0.1439 -0.6503  0.3780
  536MOL0     C70676   7.947   1.824   2.184 -0.6925 -0.0238 -0.6326
  536MOL0     C70677   7.857   1.769   2.095  0.6797 -0.6719  0.5310
  536MOL0     O70678   7.730   1.808   2.119  0.1251  0.7035  0.2786
  536MOL0     C70679   7.622   1.734   2.060  0.6598  0.4521  0.2715
  536MOL0     C70680   7.488   1.775   2.124 -0.5243 -0.1387 -0.3825
  536MOL0     C70681   7.382   1.687   2.065  0.7804 -0.0995 -0.9262
  536MOL0     C70682   7.245   1.703   2.133  0.6031 -1.3978  0.4655
  536MOL0     C70683   7.251   1.633   2.256  0.0995  0.4600 -0.2781
  536MOL0     C70684   7.265   1.578   2.363 -0.1383  0.5895  0.2233
  536MOL0     C70685   7.901   1.694   1.991 -0.1150 -0.4185 -0.3001
  536MOL0     C70686   8.035   1.675   1.972 -1.3724 -0.4755 -0.3342
  536MOL0     H70687   8.529   1.521   2.026  3.8476 -1.4247 -2.4401
  536MOL0     H70688   8.748   1.483   2.092 -0.3937 -0.5631  0.5665
  536MOL0     H70689   9.071   1.633   2.351 -1.6208 -1.8675 -0.4082
  536MOL0     H70690   8.937   1.709   2.446  0.4864 -0.1852  0.4421
  536MOL0     H70691   9.058   1.896   2.353  3.0683 -2.3335  0.3780
  536MOL0     H70692   8.920   1.872   2.252  1.3305  2.3201  3.0500
  536MOL0     H70693   9.084   1.742   2.086 -1.8604 -1.1867  1.3209
  536MOL0     H70694   9.215   1.813   2.182  0.5916  0.6599 -1.3658
  536MOL0     H70695   9.005   1.994   2.048  0.0507  0.8758 -0.9502
  536MOL0     H70696   9.111   2.043   2.172  0.5808  1.4003 -1.8418
  536MOL0     H70697   9.213   1.925   1.909  1.8846 -0.4082 -0.1730
  536MOL0     H70698   9.313   1.985   2.046 -1.0691  1.5283  3.6426
  536MOL0     H70699   9.219   2.222   1.983  1.5179 -0.4108 -0.2236
  536MOL0     H70700   9.118   2.130   1.864 -0.6879 -0.6471  1.3616
  536MOL0     H70701   9.315   2.067   1.745  2.3590 -1.7516  1.0722
  536MOL0     H70702   9.289   2.236   1.755 -1.6372 -2.4175 -1.1841
  536MOL0     H70703   9.488   2.064   1.903  0.0122  0.5005 -0.0801
  536MOL0     H70704   9.452   2.226   1.959  1.4439  1.2938 -0.3962
  536MOL0     H70705   9.578   2.057   1.634 -1.5845  0.0601 -1.2720
  536MOL0     H70706   9.599   2.342   1.367 -2.6169 -0.6207  0.5354
  536MOL0     H70707   9.555   2.175   1.354  0.2641 -0.3505 -1.9249
  536MOL0     H70708   9.794   2.109   1.410 -0.1162  0.3804  3.8254
  536MOL0     H70709   9.814   2.257   1.496  0.4767  3.1158 -2.0523
  536MOL0     H70710   9.759   2.243   1.204 -0.8587 -0.3550  0.5233
  536MOL0     H70711   9.816   2.386   1.301 -2.3980 -0.2497 -1.5388
  536MOL0     H70712   9.998   2.140   1.294 -1.9368  1.1266  3.7440
  536MOL0     H70713  10.037   2.303   1.282 -0.0825 -0.4155  1.1828
  536MOL0     H70714  10.023   2.235   0.835  1.0690 -0.4636  2.4431
  536MOL0     H70715  10.101   2.420   0.714  0.8959 -3.4548  0.1624
  536MOL0     H70716  10.433   2.720   0.884  0.9653  0.2867 -0.3492
  536MOL0     H70717  10.634   2.870   0.808 -1.2071 -1.4709  4.0208
  536MOL0     H70718  10.607   3.263   0.732  0.4692 -0.3932  0.5625
  536MOL0     H70719  10.509   3.257   0.576  2.3609  1.8336 -3.4327
  536MOL0     H70720  10.687   3.376   0.515  0.2833 -0.5084  1.0876
  536MOL0     H70721  10.713   3.206   0.447  1.1428  0.2051 -0.9980
  536MOL0     H70722  10.932   3.251   0.525 -0.6203  2.3965 -1.3110
  536MOL0     H70723  10.850   3.166   0.662  1.1082  1.2537  3.1815
  536MOL0     H70724  10.872   3.472   0.615  1.6125 -0.3562 -1.5608
  536MOL0     H70725  10.789   3.404   0.748 -1.2444 -0.5652 -1.3039
  536MOL0     H70726  10.983   3.377   0.868 -1.4878 -2.2755 -1.6579
  536MOL0     H70727  11.040   3.499   0.762  2.9463 -1.1847 -2.3108
  536MOL0     H70728  11.121   3.334   0.596 -0.0154  0.3271  0.5400
  536MOL0     H70729  11.100   3.215   0.722 -0.0698 -1.3410 -3.1962
  536MOL0     H70730  11.244   3.356   0.873  1.9295 -1.8534  0.3147
  536MOL0     H70731  11.336   3.291   0.723 -2.1199 -0.3426 -4.1140
  536MOL0     H70732  11.292   3.566   0.801 -2.9400 -2.0346  1.2948
  536MOL0     H70733  11.268   3.524   0.625  2.9579 -2.1715 -1.5114
  536MOL0     H70734  10.339   3.165   0.693 -0.5016 -0.3444  0.4996
  536MOL0     H70735  10.160   3.032   0.777  0.4323  0.2789  3.7370
  536MOL0     H70736  10.047   2.685   1.054  3.2446  0.6631  1.3485
  536MOL0     H70737   9.991   2.477   1.186 -5.5095  1.0266 -0.6953
  536MOL0     H70738   8.735   1.830   2.352 -0.6600 -2.0638  1.1052
  536MOL0     H70739   8.501   1.871   2.269 -1.2936 -0.0459 -1.6627
  536MOL0     H70740   8.144   1.865   2.234 -1.5389 -0.6025  1.4922
  536MOL0     H70741   7.928   1.897   2.263  0.0465 -1.5452  1.0275
  536MOL0     H70742   7.646   1.628   2.073 -0.9196  0.0665  0.3261
  536MOL0     H70743   7.607   1.754   1.953  0.3397 -0.7906  0.0641
  536MOL0     H70744   7.486   1.759   2.233  0.6550  2.4626  0.1060
  536MOL0     H70745   7.471   1.880   2.098  1.1422 -0.7952 -5.0973
  536MOL0     H70746   7.415   1.583   2.066  1.8700  0.2320 -0.5821
  536MOL0     H70747   7.361   1.726   1.965 -0.4789 -2.7410 -1.7904
  536MOL0     H70748   7.212   1.804   2.160  0.4824 -2.0069  2.8403
  536MOL0     H70749   7.166   1.661   2.069 -3.2951  2.2923  2.3910
  536MOL0     H70750   7.272   1.508   2.444  0.7133 -2.3735 -2.2352
  536MOL0     H70751   7.837   1.658   1.911  1.1328 -2.0581 -0.6227
  536MOL0     H70752   8.074   1.624   1.885 -1.0271  0.0223 -0.4776
  537MOL0     O70753   7.211   1.702   4.757  0.3308 -0.0433 -0.6998
  537MOL0     C70754   7.273   1.635   4.672 -0.2925 -0.6873  0.5461
  537MOL0     O70755   7.247   1.629   4.535 -0.2332  0.0657 -0.0091
  537MOL0     C70756   7.139   1.706   4.494  0.4215 -0.4864  0.9429
  537MOL0     C70757   7.139   1.825   4.425  0.1561  0.1958 -0.1330
  537MOL0     C70758   7.022   1.881   4.376  0.5735 -0.7645 -0.2495
  537MOL0     C70759   6.895   1.820   4.385  0.3422  0.7779  0.6388
  537MOL0     O70760   6.788   1.887   4.321  0.5407  0.1669  0.2782
  537MOL0     C70761   6.657   1.848   4.365  0.0885  0.1916  0.0626
  537MOL0     C70762   6.550   1.880   4.268  0.1512 -0.7837  0.1490
  537MOL0     C70763   6.426   1.802   4.288  0.6167  0.8809 -0.1183
  537MOL0     C70764   6.334   1.856   4.178  0.3446  1.5363 -0.1843
  537MOL0     C70765   6.183   1.847   4.217  0.6347 -0.5825 -0.6196
  537MOL0     C70766   6.102   1.754   4.130  0.1090  0.7336 -0.4710
  537MOL0     C70767   5.949   1.738   4.150  0.4277  0.6199 -0.0469
  537MOL0     C70768   5.868   1.877   4.141 -0.8764 -0.2083 -0.5184
  537MOL0     N70769   5.760   1.866   4.234  0.2641 -0.0754  0.3077
  537MOL0     C70770   5.669   1.763   4.246 -0.2779 -0.7474 -0.4901
  537MOL0     C70771   5.584   1.798   4.338 -0.4555  0.0345  0.7981
  537MOL0     C70772   5.465   1.727   4.366  0.5711  0.1242  0.4517
  537MOL0     C70773   5.365   1.764   4.250 -0.3522 -0.3743  0.6453
  537MOL0     C70774   5.310   1.907   4.245 -0.2424  0.5175  0.3412
  537MOL0     C70775   5.227   1.940   4.379 -0.4670 -0.7963 -0.0775
  537MOL0     O70776   5.153   2.060   4.364 -0.7465 -0.5393 -1.0284
  537MOL0     C70777   5.020   2.064   4.362 -0.2284  0.7263  0.5647
  537MOL0     C70778   4.935   1.954   4.394 -0.6782 -1.0665 -0.3172
  537MOL0     C70779   4.795   1.983   4.399  0.4022 -0.1110 -0.0736
  537MOL0     C70780   4.743   2.108   4.364 -0.5264  1.1140 -0.5157
  537MOL0     C70781   4.600   2.140   4.366 -0.5628  0.4995  0.2981
  537MOL0     O70782   4.563   2.262   4.410  0.2826  0.3062 -0.2169
  537MOL0     C70783   4.427   2.294   4.407  0.1920 -0.4624 -0.8422
  537MOL0     C70784   4.385   2.371   4.519  0.2944 -0.0653 -0.9922
  537MOL0     C70785   4.253   2.416   4.525 -0.3300  0.4786 -0.6596
  537MOL0     C70786   4.165   2.397   4.417 -0.0867  0.1954 -0.3678
  537MOL0     O70787   4.030   2.422   4.412  0.1974 -0.1439 -0.0278
  537MOL0     C70788   3.953   2.470   4.521  0.9214 -0.2109 -0.5421
  537MOL0     C70789   3.811   2.473   4.463  0.2376  0.9539  0.1610
  537MOL0     C70790   3.716   2.583   4.497 -1.4257  0.5661  0.1419
  537MOL0     C70791   3.698   2.603   4.650  0.4163  0.7556 -0.5587
  537MOL0     C70792   3.612   2.728   4.676  0.5383  0.2744  0.2512
  537MOL0     C70793   3.610   2.764   4.823 -0.4749 -0.3228  0.3521
  537MOL0     C70794   3.519   2.881   4.859  0.0220  0.2356 -1.1334
  537MOL0     C70795   3.499   2.909   5.009 -1.4293 -0.7575 -0.0438
  537MOL0    Cl70796   3.658   2.967   5.063 -0.2902 -0.1629 -0.0086
  537MOL0     C70797   4.208   2.325   4.306 -0.2609  0.2005 -0.5145
  537MOL0     C70798   4.341   2.274   4.305 -0.0017  0.1042 -0.6530
  537MOL0     O70799   4.531   2.060   4.308 -0.3298 -0.1818  0.1942
  537MOL0     C70800   4.832   2.211   4.338 -0.1224 -0.5508  0.1500
  537MOL0     C70801   4.967   2.187   4.335 -0.7100 -0.5920 -0.2232
  537MOL0     N70802   5.618   1.919   4.391 -0.5410 -0.8899 -0.4387
  537MOL0     N70803   5.720   1.971   4.319 -0.0797  0.7001  0.6503
  537MOL0     C70804   6.891   1.698   4.454  0.3665 -0.1088 -0.9214
  537MOL0     C70805   7.008   1.648   4.510 -0.9364 -0.0590 -0.2190
  537MOL0     C70806   7.390   1.570   4.724  0.3639 -0.0012  0.1488
  537MOL0     C70807   7.427   1.566   4.867 -0.0884  0.6591 -0.5821
  537MOL0     C70808   7.544   1.524   4.922  0.5672 -1.4244 -1.1324
  537MOL0     C70809   7.633   1.472   4.835  0.2600  0.0981  0.4997
  537MOL0     O70810   7.758   1.434   4.860 -0.1616  0.3704  0.0344
  537MOL0     C70811   7.786   1.390   4.997 -0.7764 -0.7343  0.4629
  537MOL0     C70812   7.912   1.311   5.000 -0.2441 -1.1757  0.3846
  537MOL0     C70813   7.976   1.289   5.133  0.9654 -0.2039 -0.1752
  537MOL0     C70814   8.013   1.411   5.225 -0.9999  0.4714 -0.5374
  537MOL0     C70815   8.094   1.360   5.338 -0.5382 -0.4466  0.9196
  537MOL0     C70816   8.157   1.325   5.435 -0.6231 -0.0673 -0.6570
  537MOL0     C70817   7.602   1.475   4.689 -0.4962 -0.0911 -0.7392
  537MOL0     C70818   7.482   1.524   4.630  0.3977  0.3439  0.1364
  537MOL0     H70819   7.240   1.863   4.409  0.7725 -2.0366 -2.2626
  537MOL0     H70820   7.030   1.975   4.322  1.2696  0.1494  1.3862
  537MOL0     H70821   6.648   1.913   4.453  0.5291 -0.6366  0.7346
  537MOL0     H70822   6.637   1.742   4.384 -1.4332  0.3906 -0.3031
  537MOL0     H70823   6.601   1.864   4.172 -0.7318 -2.4563 -0.0771
  537MOL0     H70824   6.540   1.989   4.278 -0.7633 -0.8507 -0.0076
  537MOL0     H70825   6.381   1.826   4.385  0.5365 -1.9141  0.6152
  537MOL0     H70826   6.433   1.693   4.281  0.9915  0.9063 -0.1359
  537MOL0     H70827   6.351   1.962   4.160 -3.2417  2.0723 -1.0494
  537MOL0     H70828   6.356   1.810   4.081 -1.7752  4.2180 -2.0774
  537MOL0     H70829   6.138   1.945   4.204 -0.3897 -1.1206 -1.2282
  537MOL0     H70830   6.178   1.813   4.321 -1.0583  0.8901 -0.1889
  537MOL0     H70831   6.156   1.659   4.132 -0.6764  0.2903  0.1931
  537MOL0     H70832   6.108   1.793   4.028 -2.6951  3.4030  0.2288
  537MOL0     H70833   5.913   1.669   4.074 -0.9859  2.8031 -1.4686
  537MOL0     H70834   5.932   1.691   4.248 -1.0748 -0.3345 -0.7250
  537MOL0     H70835   5.839   1.890   4.036 -0.6939 -1.0012 -0.6698
  537MOL0     H70836   5.939   1.954   4.174  1.7846 -3.4945  2.2733
  537MOL0     H70837   5.675   1.670   4.190  0.6267  0.2285 -2.1010
  537MOL0     H70838   5.431   1.756   4.466 -0.6780  0.3198  0.0001
  537MOL0     H70839   5.485   1.619   4.366 -1.4189 -0.3153 -1.0974
  537MOL0     H70840   5.284   1.691   4.256 -1.0375  0.4100  1.3413
  537MOL0     H70841   5.425   1.758   4.159  0.9217  1.8637  1.2661
  537MOL0     H70842   5.390   1.980   4.231  1.2340 -0.5866  2.5377
  537MOL0     H70843   5.239   1.907   4.161  0.3383  1.1582 -0.1559
  537MOL0     H70844   5.294   1.953   4.464 -1.3291 -1.3676  0.7005
  537MOL0     H70845   5.163   1.854   4.399 -0.9013 -0.0222  2.1398
  537MOL0     H70846   4.958   1.853   4.426 -1.9512 -0.1036  4.4713
  537MOL0     H70847   4.733   1.900   4.432  1.7778 -0.4346  1.9321
  537MOL0     H70848   4.462   2.383   4.595  2.7478  1.6156 -3.5623
  537MOL0     H70849   4.236   2.466   4.619 -1.3333  1.0112 -1.1163
  537MOL0     H70850   3.973   2.570   4.561 -3.8505  0.7197  0.1102
  537MOL0     H70851   3.946   2.411   4.613  1.6735  1.8401  0.9173
  537MOL0     H70852   3.759   2.379   4.479  3.3880 -1.2472 -1.4043
  537MOL0     H70853   3.813   2.468   4.354  0.7299 -0.7119  0.2238
  537MOL0     H70854   3.626   2.594   4.436 -0.9987  2.3997 -0.2162
  537MOL0     H70855   3.778   2.668   4.469 -0.4730 -0.1524  0.0167
  537MOL0     H70856   3.650   2.512   4.688  2.7801 -1.2271 -2.0506
  537MOL0     H70857   3.791   2.623   4.703 -0.1073  1.4306  0.1253
  537MOL0     H70858   3.513   2.716   4.631  0.8527 -0.6679 -0.2237
  537MOL0     H70859   3.668   2.804   4.622  0.9786 -2.4803 -3.5882
  537MOL0     H70860   3.711   2.785   4.859 -0.0765  0.1895 -1.0032
  537MOL0     H70861   3.570   2.682   4.883 -2.4266  0.7764  0.6628
  537MOL0     H70862   3.555   2.970   4.805 -2.0961 -0.0029 -3.1542
  537MOL0     H70863   3.417   2.857   4.826 -0.8610  1.8595  0.2570
  537MOL0     H70864   3.461   2.820   5.060  0.1650 -1.4513 -0.0165
  537MOL0     H70865   3.445   3.000   5.036  0.1686  0.0888  0.4429
  537MOL0     H70866   4.146   2.289   4.225  1.2927  1.5887 -2.4166
  537MOL0     H70867   4.378   2.231   4.213 -0.2024  1.4484 -1.3751
  537MOL0     H70868   4.792   2.312   4.343 -1.4991 -0.8013 -3.1621
  537MOL0     H70869   5.035   2.270   4.317  0.7246 -0.9096  3.0657
  537MOL0     H70870   6.802   1.639   4.471 -0.5368  1.3025 -0.6029
  537MOL0     H70871   7.013   1.557   4.569 -2.2286  0.7803  1.2860
  537MOL0     H70872   7.351   1.610   4.930 -1.3853  0.9526 -2.2677
  537MOL0     H70873   7.559   1.524   5.029 -0.9197  0.8653 -0.8568
  537MOL0     H70874   7.708   1.320   5.029  0.2550 -0.7538  3.1574
  537MOL0     H70875   7.783   1.479   5.060 -1.6778 -0.1163 -0.4158
  537MOL0     H70876   7.881   1.216   4.956 -1.1031 -0.3884 -0.7709
  537MOL0     H70877   7.983   1.350   4.926 -1.3498  0.8715  0.3157
  537MOL0     H70878   8.062   1.223   5.115 -1.0257 -2.8144 -0.7140
  537MOL0     H70879   7.895   1.235   5.182 -0.0874  1.4099 -0.0810
  537MOL0     H70880   8.077   1.478   5.167  0.5198 -1.5341 -1.2760
  537MOL0     H70881   7.927   1.465   5.266 -1.3874  0.3535 -1.1970
  537MOL0     H70882   8.198   1.296   5.529  0.4178  1.9035 -0.4429
  537MOL0     H70883   7.689   1.441   4.633  1.1110  0.5125  1.2782
  537MOL0     H70884   7.451   1.494   4.531  0.0934 -2.2339  0.9461
  538MOL0     O70885   8.541   0.593   9.184  0.1626 -0.2243  0.1561
  538MOL0     C70886   8.574   0.619   9.072 -0.1713  0.2650 -0.2407
  538MOL0     O70887   8.598   0.740   9.016  0.2539 -0.9389  0.1464
  538MOL0     C70888   8.579   0.851   9.101  0.4889  1.1260 -0.2651
  538MOL0     C70889   8.478   0.947   9.082 -0.2823  0.8345 -0.9494
  538MOL0     C70890   8.451   1.054   9.169 -0.3519 -0.8036  0.3476
  538MOL0     C70891   8.556   1.087   9.268  0.2721  0.4052 -0.7870
  538MOL0     O70892   8.548   1.204   9.339  0.4592  0.3212  0.7079
  538MOL0     C70893   8.661   1.294   9.322  0.3783  0.3692 -0.8297
  538MOL0     C70894   8.651   1.361   9.181  0.7828 -0.2156 -0.3566
  538MOL0     C70895   8.507   1.419   9.154 -0.6669  0.9935 -0.4227
  538MOL0     C70896   8.497   1.483   9.017  0.2483 -0.0927 -0.1455
  538MOL0     C70897   8.356   1.511   8.983  0.4298  0.6835 -0.1407
  538MOL0     C70898   8.334   1.615   8.876  0.9696 -0.4286  0.4892
  538MOL0     C70899   8.187   1.625   8.815  0.8793  0.0767  0.6150
  538MOL0     C70900   8.154   1.757   8.741 -1.6569 -0.3422  1.3008
  538MOL0     N70901   8.256   1.765   8.627  0.3611  0.4330 -1.0725
  538MOL0     C70902   8.368   1.841   8.634 -0.6995  0.0776 -1.5682
  538MOL0     C70903   8.438   1.800   8.521  0.6515  0.4858  0.8972
  538MOL0     C70904   8.572   1.843   8.488  0.7597 -0.0762  0.0972
  538MOL0     C70905   8.577   1.916   8.349 -0.4999 -0.2024  0.6429
  538MOL0     C70906   8.508   2.054   8.359  1.0135  0.3218  1.0877
  538MOL0     C70907   8.495   2.115   8.223  0.3426  0.0534 -0.5153
  538MOL0     O70908   8.628   2.153   8.178 -0.1621 -0.8230  0.2710
  538MOL0     C70909   8.647   2.209   8.048 -0.8022  0.2987  0.6688
  538MOL0     C70910   8.771   2.235   7.996 -1.1324 -0.1562  1.1201
  538MOL0     C70911   8.785   2.287   7.865  0.6011  0.5797 -0.3140
  538MOL0     C70912   8.678   2.323   7.793 -1.1368  0.1861 -0.3290
  538MOL0     C70913   8.690   2.366   7.650 -0.4780  1.3676 -0.4743
  538MOL0     O70914   8.811   2.422   7.617  0.3672 -0.0770 -0.7890
  538MOL0     C70915   8.814   2.518   7.517  0.9600  0.3946  0.2467
  538MOL0     C70916   8.758   2.509   7.393 -0.4761  0.8448 -1.4880
  538MOL0     C70917   8.773   2.605   7.305 -0.1037  0.3942 -0.0684
  538MOL0     C70918   8.854   2.719   7.327  0.2566 -0.6368 -0.2633
  538MOL0     O70919   8.876   2.823   7.237  0.8549 -0.4232 -0.0301
  538MOL0     C70920   8.979   2.800   7.151  0.2155 -0.1098  0.0374
  538MOL0     C70921   9.007   2.919   7.048 -0.8770 -0.0235 -0.6680
  538MOL0     C70922   8.893   2.983   6.974  0.2800 -0.4085  0.9115
  538MOL0     C70923   8.807   3.075   7.058 -0.1577  0.0748  0.0610
  538MOL0     C70924   8.760   3.191   6.963 -0.2286  0.8490  0.3600
  538MOL0     C70925   8.681   3.292   7.044 -1.2050 -0.7886 -0.2053
  538MOL0     C70926   8.759   3.362   7.145 -0.4193 -0.6483 -0.2682
  538MOL0     C70927   8.668   3.475   7.201 -0.1652  0.8371  0.0831
  538MOL0    Cl70928   8.648   3.604   7.075  0.3834 -0.2831  0.0654
  538MOL0     C70929   8.899   2.733   7.454 -0.0009 -1.0121 -0.3792
  538MOL0     C70930   8.874   2.639   7.555  0.0181  0.3294  0.6352
  538MOL0     O70931   8.589   2.354   7.586 -0.2488 -0.7358 -0.5500
  538MOL0     C70932   8.551   2.303   7.852  0.5917 -1.3849 -0.3869
  538MOL0     C70933   8.540   2.247   7.972  0.2053  0.1299 -0.2267
  538MOL0     N70934   8.373   1.699   8.452  0.3219  0.0427 -0.4111
  538MOL0     N70935   8.267   1.680   8.520 -0.6285  0.0005 -0.2581
  538MOL0     C70936   8.661   0.991   9.277 -0.0318 -0.1301  0.7597
  538MOL0     C70937   8.681   0.879   9.196 -0.1409 -0.6197 -0.3812
  538MOL0     C70938   8.597   0.504   8.980 -1.2694 -0.2060 -0.1864
  538MOL0     C70939   8.605   0.370   9.029 -0.7622 -0.3321  0.6283
  538MOL0     C70940   8.616   0.257   8.948 -0.5719  0.5338  0.4408
  538MOL0     C70941   8.634   0.276   8.813 -1.2846  0.5441  0.3505
  538MOL0     O70942   8.664   0.168   8.728 -0.0687  0.0246 -0.0031
  538MOL0     C70943   8.652   0.041   8.785 -0.8337  0.7442  0.1771
  538MOL0     C70944   8.702  -0.073   8.685 -0.0154 -0.1016 -0.7950
  538MOL0     C70945   8.852  -0.079   8.677 -0.6263 -0.2262 -0.4123
  538MOL0     C70946   8.896  -0.170   8.568  0.0345 -0.0510  0.1199
  538MOL0     C70947   9.032  -0.138   8.526  0.8147 -0.1598 -0.0013
  538MOL0     C70948   9.149  -0.124   8.495  0.1164 -0.2445  0.5791
  538MOL0     C70949   8.639   0.409   8.756 -0.5307  0.0491 -1.6882
  538MOL0     C70950   8.619   0.523   8.844  0.6227 -0.5449 -0.1229
  538MOL0     H70951   8.408   0.920   9.004 -2.2932 -0.6610  1.2103
  538MOL0     H70952   8.357   1.107   9.165 -0.6943 -1.4458 -2.7139
  538MOL0     H70953   8.752   1.236   9.341  0.2893  0.8638  1.3168
  538MOL0     H70954   8.662   1.381   9.388 -1.2685  1.8295 -2.5830
  538MOL0     H70955   8.675   1.294   9.099 -3.7477  0.9095 -2.9537
  538MOL0     H70956   8.719   1.446   9.185 -1.4155  1.6357  3.1997
  538MOL0     H70957   8.496   1.504   9.223  0.9540  2.4117 -1.8251
  538MOL0     H70958   8.421   1.351   9.165  0.0017  0.0184 -1.1197
  538MOL0     H70959   8.555   1.576   9.014  0.4533  0.0428  3.2903
  538MOL0     H70960   8.537   1.412   8.944  4.3764  2.0790 -0.3246
  538MOL0     H70961   8.308   1.558   9.069 -0.5177  1.0449 -0.8541
  538MOL0     H70962   8.303   1.416   8.976 -0.7870  1.4629 -3.1234
  538MOL0     H70963   8.398   1.580   8.794  2.3390 -2.8949  2.4560
  538MOL0     H70964   8.369   1.710   8.916 -1.3356  0.3251  0.8776
  538MOL0     H70965   8.183   1.540   8.747  0.2835  0.7970 -0.2626
  538MOL0     H70966   8.116   1.622   8.898  4.0345  2.5927  3.7171
  538MOL0     H70967   8.173   1.841   8.809 -2.0142 -2.3872  4.1077
  538MOL0     H70968   8.051   1.767   8.703 -0.3973 -0.8003 -2.7141
  538MOL0     H70969   8.388   1.914   8.711 -0.3437  0.6393 -2.1766
  538MOL0     H70970   8.643   1.760   8.487 -1.1898 -1.8785 -1.8810
  538MOL0     H70971   8.602   1.921   8.558 -0.5405  4.5335 -3.9323
  538MOL0     H70972   8.518   1.853   8.282 -0.6745  0.2746  0.3490
  538MOL0     H70973   8.682   1.918   8.317 -0.9541 -0.5196 -0.9253
  538MOL0     H70974   8.406   2.034   8.393  1.3146 -0.9090  1.3158
  538MOL0     H70975   8.552   2.120   8.435 -1.4032 -0.0426  2.9221
  538MOL0     H70976   8.414   2.189   8.218 -1.7574 -2.1813 -1.3940
  538MOL0     H70977   8.437   2.041   8.167 -1.1073  0.7983 -0.0794
  538MOL0     H70978   8.859   2.199   8.048  1.5929  3.0627 -0.8529
  538MOL0     H70979   8.885   2.284   7.825  0.0690 -1.7825 -1.6222
  538MOL0     H70980   8.696   2.430   7.352 -0.3461  0.4067 -0.8634
  538MOL0     H70981   8.742   2.578   7.205 -4.1446  0.5555  0.9671
  538MOL0     H70982   8.954   2.704   7.103  0.7876  0.2103 -0.9361
  538MOL0     H70983   9.069   2.776   7.207  1.9583  0.0775 -2.4947
  538MOL0     H70984   9.071   2.873   6.972 -1.0692 -1.3643 -0.0579
  538MOL0     H70985   9.054   3.001   7.104  0.1615 -1.2921  0.3907
  538MOL0     H70986   8.835   2.905   6.925  1.5183 -0.2541 -0.8690
  538MOL0     H70987   8.929   3.038   6.886 -2.7255 -2.1211 -1.5704
  538MOL0     H70988   8.722   3.019   7.096  0.7483  1.4875  4.7854
  538MOL0     H70989   8.878   3.116   7.131  0.7010 -0.2982 -0.5394
  538MOL0     H70990   8.700   3.168   6.875  2.2795  3.6986 -2.3478
  538MOL0     H70991   8.848   3.236   6.916  1.2148 -0.9317  1.2316
  538MOL0     H70992   8.594   3.245   7.091 -3.0360  1.7318 -0.8504
  538MOL0     H70993   8.642   3.362   6.969 -2.6123  1.1132  2.1371
  538MOL0     H70994   8.788   3.297   7.228 -0.3979 -1.3741 -0.8238
  538MOL0     H70995   8.855   3.399   7.109 -1.7570  1.3606 -2.0303
  538MOL0     H70996   8.703   3.527   7.291  0.8001  1.7957 -0.8146
  538MOL0     H70997   8.574   3.431   7.234  0.2392 -0.7044 -0.7015
  538MOL0     H70998   8.961   2.820   7.470  0.3663 -1.2478 -0.5120
  538MOL0     H70999   8.901   2.659   7.658  1.6985 -0.8867  0.4754
  538MOL0     H71000   8.465   2.324   7.788  0.7033  3.1007  0.6227
  538MOL0     H71001   8.435   2.242   8.002  0.0619 -0.0207 -0.7523
  538MOL0     H71002   8.732   1.014   9.356  0.2502  1.3297  0.1090
  538MOL0     H71003   8.763   0.811   9.220 -2.0834 -3.3404 -0.9306
  538MOL0     H71004   8.596   0.345   9.134 -0.5795  0.6501  0.8948
  538MOL0     H71005   8.602   0.161   8.997 -1.6174  0.7781  0.6544
  538MOL0     H71006   8.543   0.033   8.798 -0.8657 -0.7635 -0.7850
  538MOL0     H71007   8.713   0.023   8.873 -1.3555 -0.4715  0.3025
  538MOL0     H71008   8.666  -0.168   8.723 -0.3494 -0.6333 -2.3596
  538MOL0     H71009   8.660  -0.060   8.585  0.9602  0.3587 -1.1595
  538MOL0     H71010   8.888  -0.106   8.776 -1.1138 -1.5859 -0.5904
  538MOL0     H71011   8.880   0.023   8.648 -1.5574  0.3910  0.8060
  538MOL0     H71012   8.909  -0.271   8.609 -1.9488 -0.1589  0.5874
  538MOL0     H71013   8.821  -0.169   8.489  0.1377 -0.0355  0.0216
  538MOL0     H71014   9.248  -0.089   8.472  0.1737 -2.0930 -2.5974
  538MOL0     H71015   8.669   0.415   8.652  1.3707  0.4066 -1.1568
  538MOL0     H71016   8.615   0.623   8.803  1.0030 -0.6163 -0.3381
  539MOL0     O71017   5.638   7.163  11.386  0.1385  0.6656 -0.7271
  539MOL0     C71018   5.708   7.233  11.314  0.2620 -1.2406  0.5831
  539MOL0     O71019   5.692   7.367  11.290  0.1611 -0.9306  0.2173
  539MOL0     C71020   5.576   7.443  11.284 -0.4459  0.4329  0.0942
  539MOL0     C71021   5.447   7.393  11.320  0.0358 -0.6905  0.4664
  539MOL0     C71022   5.329   7.469  11.328 -0.8380 -0.5481 -0.5509
  539MOL0     C71023   5.341   7.606  11.304 -0.4080 -0.2805  0.1374
  539MOL0     O71024   5.247   7.707  11.322 -0.3264  1.1080  0.7091
  539MOL0     C71025   5.112   7.664  11.334 -0.7019 -0.5058  0.2581
  539MOL0     C71026   5.015   7.784  11.365  0.1414 -0.7112 -0.1362
  539MOL0     C71027   4.870   7.761  11.337 -0.0220  0.0633  0.6064
  539MOL0     C71028   4.790   7.673  11.428 -0.1981  0.4820  0.1747
  539MOL0     C71029   4.645   7.648  11.384 -0.0096  0.6997 -0.0229
  539MOL0     C71030   4.616   7.556  11.266 -0.0188  0.4032 -0.5594
  539MOL0     C71031   4.468   7.561  11.233  0.2579 -0.1886 -0.0972
  539MOL0     C71032   4.420   7.662  11.126  0.1941  0.6040 -0.3114
  539MOL0     N71033   4.425   7.800  11.165  0.0236  0.2946 -0.5878
  539MOL0     C71034   4.443   7.913  11.084  0.1513  0.7768  0.1222
  539MOL0     C71035   4.412   8.018  11.170  0.2355  0.0649 -0.3458
  539MOL0     C71036   4.405   8.164  11.126 -0.2281 -0.9652 -0.6039
  539MOL0     C71037   4.271   8.172  11.050 -0.0471  0.2467  0.3892
  539MOL0     C71038   4.261   8.320  11.008 -0.2172 -0.0815  0.0180
  539MOL0     C71039   4.131   8.348  10.932 -0.1524 -1.0121 -0.2552
  539MOL0     O71040   4.111   8.493  10.944  0.7111  0.0184 -0.0756
  539MOL0     C71041   3.991   8.543  10.871 -0.3824 -1.1167 -0.5660
  539MOL0     C71042   3.932   8.662  10.931 -0.3730 -0.1102  0.1578
  539MOL0     C71043   3.817   8.727  10.878 -0.3159  0.5775  0.5043
  539MOL0     C71044   3.760   8.681  10.754 -0.0315  0.0738 -1.3108
  539MOL0     C71045   3.633   8.734  10.699  0.3494 -0.4855  0.0921
  539MOL0     O71046   3.590   8.683  10.580 -0.9587 -0.1348  0.2664
  539MOL0     C71047   3.469   8.713  10.526  0.2767 -0.4042 -0.6229
  539MOL0     C71048   3.457   8.801  10.420 -0.6243  0.2802  0.2703
  539MOL0     C71049   3.340   8.829  10.361  0.2388  0.4230 -0.5698
  539MOL0     C71050   3.222   8.769  10.414  0.1912 -0.2072 -0.1489
  539MOL0     O71051   3.104   8.772  10.344  1.0438  0.3507 -0.3612
  539MOL0     C71052   3.106   8.692  10.230  0.1448  1.2431  0.3190
  539MOL0     C71053   2.976   8.705  10.149  0.5906 -0.3420 -0.2543
  539MOL0     C71054   2.850   8.656  10.232 -0.2721  0.2289  0.0785
  539MOL0     C71055   2.777   8.766  10.307  0.0479 -0.0073 -0.0067
  539MOL0     C71056   2.750   8.892  10.232 -0.5717 -0.0987 -0.5625
  539MOL0     C71057   2.654   8.885  10.108  1.0267  0.6555 -0.1505
  539MOL0     C71058   2.507   8.848  10.139  0.1232 -0.1343  0.6146
  539MOL0     C71059   2.410   8.862  10.023 -0.6584  0.7221  0.0277
  539MOL0    Cl71060   2.281   8.736  10.038 -0.3276  0.0801 -0.3910
  539MOL0     C71061   3.229   8.693  10.535  0.6964 -0.5409 -0.7747
  539MOL0     C71062   3.351   8.664  10.581  0.1773 -0.2335  0.1589
  539MOL0     O71063   3.565   8.809  10.769 -0.9553  0.1926 -0.2029
  539MOL0     C71064   3.816   8.564  10.697  0.1756 -0.8504  0.0372
  539MOL0     C71065   3.930   8.495  10.749 -0.4315  0.0328  0.0010
  539MOL0     N71066   4.379   7.971  11.299  0.0606 -0.0863  0.1075
  539MOL0     N71067   4.372   7.846  11.286 -0.5833  0.1220  0.0809
  539MOL0     C71068   5.470   7.656  11.280 -0.0315 -1.3499  1.1616
  539MOL0     C71069   5.579   7.574  11.272 -1.0617  0.0977 -0.3458
  539MOL0     C71070   5.827   7.187  11.246 -0.4132  0.6168 -0.5428
  539MOL0     C71071   5.902   7.268  11.158 -0.2226 -0.2658  0.0011
  539MOL0     C71072   6.008   7.214  11.088 -0.6066  0.3073 -0.3857
  539MOL0     C71073   6.051   7.079  11.105  0.0334  0.0018 -0.3552
  539MOL0     O71074   6.155   7.019  11.049  0.5011 -0.0532  0.9864
  539MOL0     C71075   6.242   7.101  10.970  0.2528 -0.3593  0.4445
  539MOL0     C71076   6.175   7.128  10.824  0.0958  0.2155 -0.4130
  539MOL0     C71077   6.264   7.202  10.715 -0.9435 -1.0762 -0.4438
  539MOL0     C71078   6.202   7.195  10.575 -0.7021 -0.1060  0.6703
  539MOL0     C71079   6.252   7.298  10.478 -0.6426  0.0427 -0.4052
  539MOL0     C71080   6.287   7.376  10.391 -0.8552 -0.4282 -0.2249
  539MOL0     C71081   5.978   6.998  11.193  0.9729 -0.1786 -0.1876
  539MOL0     C71082   5.868   7.055  11.265 -1.2155  0.2016 -0.5258
  539MOL0     H71083   5.444   7.290  11.354  3.7999  0.1162  3.9616
  539MOL0     H71084   5.233   7.424  11.351  0.7053 -2.9381  1.6181
  539MOL0     H71085   5.107   7.595  11.418 -1.6011 -3.7179 -2.2051
  539MOL0     H71086   5.077   7.615  11.243 -2.2045  1.7455 -0.4847
  539MOL0     H71087   5.052   7.858  11.293 -0.6050  1.8059  1.9306
  539MOL0     H71088   5.038   7.834  11.459 -1.8601  3.2057 -1.5030
  539MOL0     H71089   4.861   7.718  11.237 -2.2242  2.1522 -0.1909
  539MOL0     H71090   4.821   7.855  11.312 -0.0654 -0.1024  0.0582
  539MOL0     H71091   4.842   7.576  11.431  1.0948  0.8415 -3.9720
  539MOL0     H71092   4.788   7.720  11.527  1.7737  1.0335 -0.0055
  539MOL0     H71093   4.604   7.746  11.358 -2.3987 -0.8652 -2.8238
  539MOL0     H71094   4.587   7.618  11.471 -0.7852 -0.5179 -0.9239
  539MOL0     H71095   4.637   7.450  11.284  2.8662  0.7140 -1.5427
  539MOL0     H71096   4.669   7.577  11.173  0.6736  0.6831 -0.1103
  539MOL0     H71097   4.451   7.468  11.178 -0.0567  1.2316 -2.5252
  539MOL0     H71098   4.402   7.563  11.320  0.7565 -4.6369  0.6026
  539MOL0     H71099   4.318   7.642  11.091 -0.3385  3.9410 -0.9525
  539MOL0     H71100   4.479   7.665  11.035  3.9853  0.2763  1.9381
  539MOL0     H71101   4.486   7.911  10.984  0.9889 -1.7192  0.4771
  539MOL0     H71102   4.491   8.181  11.062 -0.5365  0.2990 -0.7121
  539MOL0     H71103   4.408   8.231  11.213  2.0119 -1.2055 -0.4503
  539MOL0     H71104   4.181   8.131  11.097 -1.0852 -1.2245 -2.6182
  539MOL0     H71105   4.272   8.126  10.951  0.8295  2.7823 -0.8733
  539MOL0     H71106   4.259   8.371  11.105 -0.7173  1.5439 -0.8226
  539MOL0     H71107   4.345   8.367  10.956 -0.7704  1.1909  0.2368
  539MOL0     H71108   4.041   8.304  10.975  0.5091 -1.2636  0.9039
  539MOL0     H71109   4.125   8.315  10.828 -0.1666 -4.0495  0.6238
  539MOL0     H71110   3.974   8.700  11.023  0.5617 -2.5819  0.8193
  539MOL0     H71111   3.777   8.817  10.924  0.7076  1.9853 -1.1930
  539MOL0     H71112   3.547   8.850  10.384  0.1654  0.5519  2.4893
  539MOL0     H71113   3.338   8.895  10.275 -0.5660 -0.6112 -1.3655
  539MOL0     H71114   3.120   8.585  10.252 -3.1837  0.7111  0.3174
  539MOL0     H71115   3.186   8.732  10.167  1.5132 -2.5504 -0.6467
  539MOL0     H71116   2.994   8.646  10.058  4.2285  1.5049 -0.9623
  539MOL0     H71117   2.960   8.808  10.116 -5.4510 -1.1851 -1.0221
  539MOL0     H71118   2.889   8.592  10.312 -0.5653  2.5695  2.2193
  539MOL0     H71119   2.775   8.603  10.173 -0.2192  1.3105 -1.0064
  539MOL0     H71120   2.691   8.720  10.357  0.8060 -0.8997  0.5136
  539MOL0     H71121   2.837   8.793  10.395  2.0707  0.3086 -1.4212
  539MOL0     H71122   2.843   8.939  10.196  0.3525 -1.8586 -0.5865
  539MOL0     H71123   2.709   8.961  10.307  2.6418  2.3285 -0.7908
  539MOL0     H71124   2.698   8.812  10.040 -0.2043 -1.3462  1.1063
  539MOL0     H71125   2.653   8.981  10.056 -0.4996 -0.0935 -1.5796
  539MOL0     H71126   2.503   8.742  10.165  1.3766  0.1453  2.0973
  539MOL0     H71127   2.459   8.910  10.215 -1.1457  0.7237 -0.8121
  539MOL0     H71128   2.460   8.865   9.926  1.0471  2.6394  0.8906
  539MOL0     H71129   2.360   8.958  10.039  1.9707  1.9440  1.5954
  539MOL0     H71130   3.133   8.652  10.562  1.9058 -2.7423  0.4721
  539MOL0     H71131   3.357   8.608  10.674 -0.5905 -0.3750  0.1257
  539MOL0     H71132   3.765   8.525  10.609 -3.7176  0.9182  1.2838
  539MOL0     H71133   3.978   8.409  10.704  1.1919  1.1851 -0.5593
  539MOL0     H71134   5.490   7.762  11.265 -2.3914 -1.2624 -3.1459
  539MOL0     H71135   5.672   7.619  11.240 -0.2421 -2.6966 -2.1945
  539MOL0     H71136   5.882   7.375  11.148  0.2363 -0.3492 -2.6107
  539MOL0     H71137   6.070   7.285  11.033  0.9668 -0.4366  0.3396
  539MOL0     H71138   6.342   7.064  10.946 -0.0093 -0.4531 -0.5667
  539MOL0     H71139   6.266   7.192  11.025  1.0881 -0.5398  0.3938
  539MOL0     H71140   6.153   7.030  10.783  1.2196 -0.5599  0.7447
  539MOL0     H71141   6.077   7.176  10.829  0.7731  1.6711 -0.3776
  539MOL0     H71142   6.361   7.151  10.713 -1.8664 -3.1317  1.7258
  539MOL0     H71143   6.295   7.306  10.731 -3.8447 -0.3468  1.2999
  539MOL0     H71144   6.219   7.098  10.528 -0.5417  1.5484 -3.0832
  539MOL0     H71145   6.093   7.209  10.582 -0.7228  0.1242 -0.0124
  539MOL0     H71146   6.323   7.432  10.307 -1.4236 -0.4731 -0.5094
  539MOL0     H71147   6.004   6.893  11.202  2.0989 -0.3908 -4.1373
  539MOL0     H71148   5.812   6.994  11.335  1.1847  0.7764  2.0942
  540MOL0     O71149  10.289   6.652   7.172  0.3954  0.1611  0.1075
  540MOL0     C71150  10.253   6.772   7.188 -0.5993 -0.5540 -0.0292
  540MOL0     O71151  10.193   6.849   7.090  0.2209 -0.0604  0.0743
  540MOL0     C71152  10.194   6.798   6.962  0.1290  0.1707  1.2416
  540MOL0     C71153  10.319   6.803   6.900 -0.0814  0.5574  0.0761
  540MOL0     C71154  10.327   6.784   6.760 -0.7681 -0.0511 -0.6920
  540MOL0     C71155  10.213   6.754   6.689 -0.5445  0.5155 -0.8624
  540MOL0     O71156  10.209   6.732   6.555  0.0123 -0.0361  0.0628
  540MOL0     C71157  10.312   6.654   6.498 -0.2343 -0.1017 -0.7058
  540MOL0     C71158  10.310   6.505   6.546  0.1728 -0.0728  0.7802
  540MOL0     C71159  10.179   6.433   6.524 -0.2730 -0.3717 -0.4524
  540MOL0     C71160  10.119   6.437   6.375 -0.6831  0.1171 -0.0078
  540MOL0     C71161   9.991   6.351   6.360  0.5090 -0.9045 -0.2564
  540MOL0     C71162   9.962   6.309   6.218  1.3970 -0.5510  0.3800
  540MOL0     C71163   9.803   6.316   6.189  0.3865 -1.1728 -0.5012
  540MOL0     C71164   9.716   6.231   6.282  0.8684 -0.4577 -0.3381
  540MOL0     N71165   9.579   6.285   6.261 -0.7139 -0.4535  0.3116
  540MOL0     C71166   9.508   6.234   6.157  0.9623  0.7927 -0.0993
  540MOL0     C71167   9.390   6.302   6.177 -0.4715  0.4317 -0.2560
  540MOL0     C71168   9.268   6.287   6.100 -0.0004  0.0534  0.1005
  540MOL0     C71169   9.293   6.273   5.952 -0.6080  0.4093  0.1959
  540MOL0     C71170   9.159   6.246   5.873 -0.1993  0.0641 -0.1263
  540MOL0     C71171   9.182   6.224   5.730 -0.2811  0.7525  0.0618
  540MOL0     O71172   9.051   6.226   5.656 -0.9045 -0.1624 -0.8153
  540MOL0     C71173   8.963   6.120   5.675 -0.1987  0.5136  0.1025
  540MOL0     C71174   8.995   5.996   5.724 -0.4166  0.1907 -0.1683
  540MOL0     C71175   8.911   5.895   5.715 -1.9876  0.8181  0.1016
  540MOL0     C71176   8.787   5.904   5.664 -0.2079 -0.1433  0.3438
  540MOL0     C71177   8.695   5.779   5.648  0.3250 -0.5351  0.2782
  540MOL0     O71178   8.574   5.797   5.585 -0.2454 -0.4208 -0.5896
  540MOL0     C71179   8.505   5.692   5.541  0.5336  0.7389 -0.4482
  540MOL0     C71180   8.501   5.663   5.411 -0.0622  0.6490 -0.3202
  540MOL0     C71181   8.411   5.566   5.371  1.0492 -0.2668 -0.1466
  540MOL0     C71182   8.333   5.494   5.467 -0.1934  0.6838  0.0410
  540MOL0     O71183   8.264   5.382   5.425  0.5290 -0.5527 -0.3720
  540MOL0     C71184   8.175   5.311   5.509 -0.4092  0.0337 -0.1878
  540MOL0     C71185   8.027   5.351   5.494 -0.6960  2.0344  0.0216
  540MOL0     C71186   7.930   5.251   5.559  0.3381  0.4568  0.6464
  540MOL0     C71187   7.947   5.236   5.709  0.0052 -0.2373  0.9061
  540MOL0     C71188   7.822   5.166   5.763 -0.6183  0.7450  0.3455
  540MOL0     C71189   7.837   5.168   5.921 -0.3237  0.5296 -0.3711
  540MOL0     C71190   7.694   5.144   5.969  0.1363 -0.4396  0.3351
  540MOL0     C71191   7.681   5.183   6.118  0.0910  0.3641 -0.8622
  540MOL0    Cl71192   7.634   5.354   6.139 -0.4102  0.5978  0.1438
  540MOL0     C71193   8.347   5.520   5.600 -0.0248 -0.8484  1.2993
  540MOL0     C71194   8.423   5.628   5.636 -1.0592  0.0497  0.2921
  540MOL0     O71195   8.741   5.668   5.682 -0.0583 -0.3647  0.8015
  540MOL0     C71196   8.740   6.031   5.617 -0.4656 -0.8081 -0.1618
  540MOL0     C71197   8.840   6.141   5.613  0.9319  0.8230 -0.8063
  540MOL0     N71198   9.392   6.378   6.294 -0.2730  0.4605  0.9961
  540MOL0     N71199   9.510   6.377   6.338 -0.1638  0.8707  0.0358
  540MOL0     C71200  10.090   6.740   6.750  1.1270 -0.5805 -0.6743
  540MOL0     C71201  10.078   6.763   6.891  0.2234 -0.8739 -0.5305
  540MOL0     C71202  10.280   6.820   7.325 -0.1231 -0.7230 -0.5208
  540MOL0     C71203  10.219   6.924   7.388  0.1707  0.3541  0.0614
  540MOL0     C71204  10.240   6.952   7.522  0.7596  0.5710 -0.1379
  540MOL0     C71205  10.319   6.875   7.605  0.2432 -0.5544 -0.6107
  540MOL0     O71206  10.317   6.908   7.742 -0.1823  0.3073  0.1257
  540MOL0     C71207  10.294   6.803   7.838 -0.4889  0.3096  0.2270
  540MOL0     C71208  10.197   6.871   7.937  0.1268 -0.9835 -0.0328
  540MOL0     C71209  10.278   6.936   8.053 -0.7484 -0.4956  0.5537
  540MOL0     C71210  10.186   6.986   8.166 -0.5392 -1.0355  0.4408
  540MOL0     C71211  10.116   7.111   8.125  0.0354  0.2728 -0.0380
  540MOL0     C71212  10.053   7.199   8.066  0.1118  0.4409 -0.9390
  540MOL0     C71213  10.390   6.778   7.541  0.1130 -0.6860 -0.7868
  540MOL0     C71214  10.374   6.752   7.407 -0.5862 -0.6864  1.3030
  540MOL0     H71215  10.407   6.828   6.959 -0.1056 -2.2409  1.4595
  540MOL0     H71216  10.419   6.790   6.702  1.0157 -2.8162  1.5905
  540MOL0     H71217  10.412   6.691   6.522  0.7967 -2.6857 -0.7312
  540MOL0     H71218  10.291   6.667   6.392 -0.7856  3.1083 -0.3269
  540MOL0     H71219  10.342   6.499   6.650 -1.1299 -1.6614  1.1497
  540MOL0     H71220  10.385   6.447   6.492 -0.9219 -4.5345  3.5317
  540MOL0     H71221  10.111   6.469   6.602  1.5966 -1.2702  1.6922
  540MOL0     H71222  10.188   6.325   6.539 -0.3971 -0.3792 -0.4310
  540MOL0     H71223  10.113   6.541   6.342  1.1507 -0.0987 -1.1932
  540MOL0     H71224  10.189   6.396   6.302  0.9875  2.1520  0.3528
  540MOL0     H71225   9.901   6.403   6.394 -1.2927 -2.4259 -2.3605
  540MOL0     H71226   9.990   6.262   6.424  1.8661 -0.3547  0.5438
  540MOL0     H71227  10.008   6.212   6.199  3.4998  0.6656 -1.1896
  540MOL0     H71228  10.008   6.373   6.142  1.3556 -0.0281  0.7875
  540MOL0     H71229   9.764   6.418   6.196  1.7751 -0.7743  3.3417
  540MOL0     H71230   9.780   6.286   6.086 -1.0680  4.0781 -2.0481
  540MOL0     H71231   9.724   6.233   6.391 -0.6111  0.3827 -0.2184
  540MOL0     H71232   9.726   6.126   6.253  1.0612 -0.7410  0.6826
  540MOL0     H71233   9.543   6.162   6.084 -1.9563  2.2280 -3.2032
  540MOL0     H71234   9.200   6.373   6.102  1.1707  1.1280 -2.1951
  540MOL0     H71235   9.206   6.206   6.140  1.1857 -0.4827  0.9039
  540MOL0     H71236   9.363   6.191   5.936 -0.3659 -0.0989  3.2709
  540MOL0     H71237   9.335   6.368   5.918 -0.3622 -0.0616 -0.8609
  540MOL0     H71238   9.124   6.150   5.912 -0.7317  0.9657  1.6726
  540MOL0     H71239   9.086   6.325   5.891 -2.8783 -2.4708  0.9025
  540MOL0     H71240   9.236   6.132   5.707  0.7423  1.5248 -0.7412
  540MOL0     H71241   9.256   6.297   5.696  1.1778 -0.9492 -0.5867
  540MOL0     H71242   9.101   5.989   5.745 -0.2807  1.5044 -0.3172
  540MOL0     H71243   8.938   5.802   5.765 -2.3816  0.6249 -0.0457
  540MOL0     H71244   8.570   5.709   5.341  0.0823  2.6019  1.0136
  540MOL0     H71245   8.410   5.538   5.265 -2.3414 -2.2714  0.2634
  540MOL0     H71246   8.198   5.312   5.616 -0.6586  0.0935 -0.1341
  540MOL0     H71247   8.174   5.203   5.492  0.6521  0.0269 -0.2860
  540MOL0     H71248   7.996   5.370   5.390 -1.6545 -5.5674 -1.7167
  540MOL0     H71249   8.006   5.443   5.548 -3.0877  2.4957 -1.5282
  540MOL0     H71250   7.934   5.154   5.509 -1.4049 -0.2275  1.7120
  540MOL0     H71251   7.828   5.282   5.535 -0.1973 -1.5581  0.1189
  540MOL0     H71252   8.041   5.195   5.747  2.0447  2.1765 -1.1848
  540MOL0     H71253   7.939   5.337   5.751 -1.3752  0.7156 -1.4748
  540MOL0     H71254   7.812   5.065   5.722  3.2539  1.4510 -2.9708
  540MOL0     H71255   7.737   5.229   5.739 -1.2911  0.9429  2.9324
  540MOL0     H71256   7.866   5.269   5.952 -1.9323  0.4613  1.5217
  540MOL0     H71257   7.914   5.100   5.958 -1.3728  0.9426  2.8631
  540MOL0     H71258   7.627   5.218   5.926  2.9256  2.6507  0.9149
  540MOL0     H71259   7.677   5.037   5.953  0.2485 -0.4721  0.4346
  540MOL0     H71260   7.771   5.166   6.178 -0.0194  2.1678 -0.1011
  540MOL0     H71261   7.598   5.122   6.156 -0.8299  2.1786  0.1802
  540MOL0     H71262   8.304   5.471   5.687  0.6637  1.6433  3.1875
  540MOL0     H71263   8.427   5.655   5.741 -0.2074 -3.5724  1.3339
  540MOL0     H71264   8.635   6.039   5.590 -1.2446 -2.2958  2.1594
  540MOL0     H71265   8.820   6.246   5.595 -2.3736  0.5598  0.5514
  540MOL0     H71266  10.002   6.727   6.688  2.0201  1.8297 -2.6070
  540MOL0     H71267   9.986   6.777   6.947  0.7611 -2.1048  0.6767
  540MOL0     H71268  10.133   6.971   7.341  0.3394  0.4660 -0.1331
  540MOL0     H71269  10.191   7.034   7.574  2.0509  0.9232  0.5708
  540MOL0     H71270  10.386   6.773   7.890 -0.9271  2.3962  2.3920
  540MOL0     H71271  10.245   6.724   7.781 -0.0272  0.0659  0.1671
  540MOL0     H71272  10.147   6.960   7.899  0.4878 -0.2929  1.0725
  540MOL0     H71273  10.129   6.791   7.969 -0.4945  0.5461  2.8434
  540MOL0     H71274  10.344   7.020   8.032 -1.5825 -0.1306 -0.7301
  540MOL0     H71275  10.339   6.852   8.087 -0.2150  0.5708  2.4063
  540MOL0     H71276  10.114   6.911   8.199 -1.9207 -1.1632 -2.5253
  540MOL0     H71277  10.252   6.994   8.252 -1.2176 -3.1072  1.2202
  540MOL0     H71278   9.989   7.261   8.007  0.2819  1.2766 -0.2578
  540MOL0     H71279  10.455   6.717   7.603  0.5459 -0.8159 -1.3668
  540MOL0     H71280  10.429   6.674   7.355  1.9412  1.0898  1.1193
  541MOL0     O71281   9.426   6.931   7.318 -0.9264  0.6204 -0.2614
  541MOL0     C71282   9.474   7.035   7.261 -0.1621  0.3446 -0.5777
  541MOL0     O71283   9.451   7.071   7.132  0.0219  0.1200 -0.8116
  541MOL0     C71284   9.339   7.014   7.078  0.2658 -1.7938 -0.0359
  541MOL0     C71285   9.232   7.092   7.032 -0.5759 -0.9288  0.1729
  541MOL0     C71286   9.114   7.044   6.974  0.0216  0.5503  0.5412
  541MOL0     C71287   9.103   6.904   6.967 -0.8154  0.4293 -0.3716
  541MOL0     O71288   8.996   6.835   6.926 -0.0652 -0.0523 -0.2172
  541MOL0     C71289   8.868   6.888   6.953  0.4096 -0.1371  0.2601
  541MOL0     C71290   8.755   6.789   6.933  0.7315 -0.6198 -0.2018
  541MOL0     C71291   8.622   6.866   6.951  0.3778  0.1272  0.2494
  541MOL0     C71292   8.505   6.779   6.921 -0.0374  0.4645  0.0489
  541MOL0     C71293   8.373   6.842   6.942 -0.2184 -0.7842 -0.0833
  541MOL0     C71294   8.316   6.940   6.827 -0.7475 -1.2356  0.1897
  541MOL0     C71295   8.163   6.969   6.826  0.4406  0.2452  1.3310
  541MOL0     C71296   8.123   7.043   6.694 -0.7556 -0.2798  0.1184
  541MOL0     N71297   7.982   7.101   6.714  0.1011 -0.3669  0.6790
  541MOL0     C71298   7.862   7.040   6.722 -0.3802  0.6231 -0.7497
  541MOL0     C71299   7.775   7.142   6.719  0.4670 -0.6971  0.4803
  541MOL0     C71300   7.628   7.129   6.732 -0.0737 -0.2132  0.1223
  541MOL0     C71301   7.585   7.195   6.867  0.7137 -0.5142 -0.1900
  541MOL0     C71302   7.431   7.184   6.901 -0.6619 -0.2606 -0.5963
  541MOL0     C71303   7.422   7.244   7.037 -0.1428 -0.1330 -0.1167
  541MOL0     O71304   7.431   7.140   7.140 -1.1154  0.6239  1.4598
  541MOL0     C71305   7.470   7.164   7.270 -0.2406  0.4489  1.0190
  541MOL0     C71306   7.513   7.291   7.319  0.0784  0.1015 -0.1765
  541MOL0     C71307   7.551   7.305   7.453  0.1390 -0.5170 -0.4945
  541MOL0     C71308   7.545   7.196   7.543 -0.7732 -0.5056  0.1964
  541MOL0     C71309   7.581   7.205   7.692  0.5181  0.2160 -0.1005
  541MOL0     O71310   7.563   7.091   7.770 -1.0583 -0.3921  0.0310
  541MOL0     C71311   7.598   7.119   7.899 -0.3439 -0.3092 -0.0624
  541MOL0     C71312   7.497   7.137   7.992  0.0672 -0.4637 -0.3101
  541MOL0     C71313   7.524   7.179   8.125 -0.1301 -0.5368  0.8136
  541MOL0     C71314   7.655   7.198   8.168 -0.0592  0.0926 -1.0769
  541MOL0     O71315   7.704   7.238   8.295 -0.7159  0.1246  0.3631
  541MOL0     C71316   7.611   7.268   8.400  0.6166  0.1131 -0.5035
  541MOL0     C71317   7.540   7.397   8.374  0.8484  0.7961 -0.1836
  541MOL0     C71318   7.632   7.522   8.391 -0.6131  0.3775  0.6379
  541MOL0     C71319   7.545   7.643   8.361 -0.0886 -0.2023 -0.7932
  541MOL0     C71320   7.629   7.768   8.400 -0.6488 -0.4197  0.0538
  541MOL0     C71321   7.555   7.897   8.378  0.1205  0.0467  0.2423
  541MOL0     C71322   7.631   8.006   8.453  0.3968 -0.8138 -0.0575
  541MOL0     C71323   7.754   8.044   8.381 -0.1606  0.1584  1.2435
  541MOL0    Cl71324   7.817   8.188   8.437  0.2084  0.2240  0.3493
  541MOL0     C71325   7.760   7.167   8.076 -0.0803 -0.1817  0.1589
  541MOL0     C71326   7.734   7.130   7.937 -0.5705  0.5205  0.0837
  541MOL0     O71327   7.633   7.311   7.732 -0.1037 -0.6846  1.0547
  541MOL0     C71328   7.493   7.075   7.495 -1.1379  0.6671 -0.1330
  541MOL0     C71329   7.460   7.060   7.365 -0.7631 -0.9654 -0.9836
  541MOL0     N71330   7.841   7.269   6.711  0.8017  0.3092 -0.4353
  541MOL0     N71331   7.965   7.236   6.701  0.4373  0.1908 -0.4015
  541MOL0     C71332   9.208   6.818   7.017 -0.2511 -0.7264 -1.4944
  541MOL0     C71333   9.322   6.879   7.061 -0.1454  0.2581  0.1776
  541MOL0     C71334   9.566   7.129   7.331 -0.4702  0.5535  0.5505
  541MOL0     C71335   9.614   7.247   7.261  0.4485  0.6574 -0.1217
  541MOL0     C71336   9.714   7.327   7.311 -0.3584  0.0634  0.7074
  541MOL0     C71337   9.756   7.294   7.441 -0.4732 -0.4419 -0.9426
  541MOL0     O71338   9.847   7.370   7.512  1.0042 -0.5328  0.2288
  541MOL0     C71339   9.977   7.356   7.471  0.1965  0.6533  0.1301
  541MOL0     C71340  10.065   7.413   7.580 -0.0701  0.0491 -0.5787
  541MOL0     C71341  10.089   7.314   7.697  1.0142 -0.0087 -0.7086
  541MOL0     C71342  10.228   7.340   7.760  0.9607  0.5261 -0.4657
  541MOL0     C71343  10.339   7.312   7.667 -0.1216 -1.1855 -0.6739
  541MOL0     C71344  10.437   7.265   7.612  0.8610 -0.2036 -0.7930
  541MOL0     C71345   9.704   7.187   7.514 -0.4856  0.1783 -0.0506
  541MOL0     C71346   9.614   7.097   7.462 -0.5987  0.1397 -0.9284
  541MOL0     H71347   9.263   7.196   7.038 -0.8375 -0.8839  0.7562
  541MOL0     H71348   9.030   7.107   6.945  0.2585 -0.1892 -2.0504
  541MOL0     H71349   8.843   6.971   6.886 -0.7019 -0.4917  0.2195
  541MOL0     H71350   8.853   6.916   7.057 -4.0545 -2.9078  0.6154
  541MOL0     H71351   8.766   6.715   7.012  1.5896 -2.0652 -1.6187
  541MOL0     H71352   8.763   6.745   6.833 -3.4001  0.0503 -1.0483
  541MOL0     H71353   8.617   6.952   6.883  1.0708 -1.4658 -1.9310
  541MOL0     H71354   8.613   6.904   7.053 -2.1185 -0.0381  0.1572
  541MOL0     H71355   8.520   6.729   6.825  1.8191  0.3968  0.3404
  541MOL0     H71356   8.505   6.696   6.992  4.5305  0.8954  0.8628
  541MOL0     H71357   8.375   6.884   7.042  0.7783 -4.5246  1.6382
  541MOL0     H71358   8.296   6.765   6.952  0.0044 -1.0923 -0.6623
  541MOL0     H71359   8.354   6.904   6.732  0.7200 -0.1036  0.3224
  541MOL0     H71360   8.371   7.033   6.842 -1.8573 -0.0130 -2.6097
  541MOL0     H71361   8.108   6.875   6.839  0.3072 -0.0843 -1.1850
  541MOL0     H71362   8.136   7.048   6.898  1.1382  0.6355  1.1723
  541MOL0     H71363   8.138   6.958   6.627  0.4274  0.3817 -0.4732
  541MOL0     H71364   8.198   7.122   6.687  3.1385 -3.4412  2.1286
  541MOL0     H71365   7.837   6.936   6.740 -0.4639  0.5722 -1.1616
  541MOL0     H71366   7.603   7.023   6.743  1.3793 -0.4556  1.4247
  541MOL0     H71367   7.588   7.180   6.644 -1.8543  0.6533  1.3713
  541MOL0     H71368   7.613   7.300   6.866  2.1065 -0.8446  1.0446
  541MOL0     H71369   7.637   7.150   6.952  0.8432 -0.6794 -0.3538
  541MOL0     H71370   7.363   7.249   6.845  0.4928  1.3934 -0.1484
  541MOL0     H71371   7.385   7.085   6.890 -1.5711  0.3704 -3.3496
  541MOL0     H71372   7.317   7.273   7.052 -0.2658 -1.9491  3.7207
  541MOL0     H71373   7.494   7.325   7.047  1.0480 -1.2939  1.1156
  541MOL0     H71374   7.522   7.378   7.255 -3.4970  1.8007  1.3262
  541MOL0     H71375   7.565   7.406   7.490 -0.3924 -1.4786  2.6021
  541MOL0     H71376   7.396   7.126   7.954  0.6793  0.8774 -2.5245
  541MOL0     H71377   7.439   7.180   8.193 -0.1833 -1.1255  0.7684
  541MOL0     H71378   7.660   7.278   8.498  0.1522  1.0173 -0.3621
  541MOL0     H71379   7.539   7.185   8.407 -0.4140  0.9197 -1.3376
  541MOL0     H71380   7.450   7.412   8.435 -1.1326  2.5679 -3.3108
  541MOL0     H71381   7.495   7.388   8.275  0.4854 -0.6547  0.0832
  541MOL0     H71382   7.725   7.529   8.335  0.1776  1.5560  2.0080
  541MOL0     H71383   7.663   7.535   8.496 -0.7848 -0.7901  0.8466
  541MOL0     H71384   7.523   7.659   8.255  1.6290  3.1147 -0.7969
  541MOL0     H71385   7.449   7.639   8.412  0.0657 -4.1846 -0.5529
  541MOL0     H71386   7.722   7.765   8.342 -1.1255 -2.0376 -0.6792
  541MOL0     H71387   7.665   7.755   8.502  1.2718 -0.3680 -0.5631
  541MOL0     H71388   7.461   7.885   8.432  2.0604 -0.2991  3.9189
  541MOL0     H71389   7.536   7.929   8.275 -0.2843  2.4102  1.0140
  541MOL0     H71390   7.563   8.089   8.473 -0.2792 -1.4253  0.2507
  541MOL0     H71391   7.644   7.974   8.557  1.6101 -0.0629  0.0336
  541MOL0     H71392   7.725   8.060   8.277 -1.0599 -0.9987  1.2919
  541MOL0     H71393   7.827   7.964   8.403 -0.4128 -0.3894  0.1468
  541MOL0     H71394   7.863   7.187   8.103  0.5119  1.5663 -2.9284
  541MOL0     H71395   7.814   7.098   7.871 -1.5770 -1.9102 -0.0677
  541MOL0     H71396   7.494   6.990   7.561  1.2952  1.8481  1.5029
  541MOL0     H71397   7.437   6.958   7.335  2.7741 -1.7594 -1.4568
  541MOL0     H71398   9.196   6.710   7.025 -0.6276 -0.5394  2.2827
  541MOL0     H71399   9.397   6.807   7.092 -0.2202 -0.2429 -0.7807
  541MOL0     H71400   9.583   7.268   7.159 -2.8625 -0.4810  0.5255
  541MOL0     H71401   9.743   7.417   7.257 -2.7172 -1.7549 -4.1546
  541MOL0     H71402   9.999   7.410   7.378  0.2205 -0.6703 -0.6655
  541MOL0     H71403  10.002   7.251   7.449 -3.5758 -0.2968 -0.3799
  541MOL0     H71404  10.161   7.434   7.531 -0.3274  0.6765 -0.8088
  541MOL0     H71405  10.017   7.501   7.623  0.2368  0.6300 -1.4067
  541MOL0     H71406  10.067   7.213   7.662  0.4818  0.2645 -1.1948
  541MOL0     H71407  10.014   7.324   7.776  0.2125 -0.8262 -1.3371
  541MOL0     H71408  10.231   7.439   7.804 -1.2846 -0.4716  2.2722
  541MOL0     H71409  10.244   7.276   7.847  3.1591  0.9838 -0.4768
  541MOL0     H71410  10.518   7.220   7.558  1.1434  0.3315 -0.8253
  541MOL0     H71411   9.734   7.169   7.616  1.3705  0.2002 -0.5678
  541MOL0     H71412   9.583   7.004   7.508 -5.9894  0.2192 -3.6912
  542MOL0     O71413   5.684   8.772   7.637 -0.5246 -0.1579 -0.1818
  542MOL0     C71414   5.702   8.745   7.752 -0.0178 -0.1106  0.2883
  542MOL0     O71415   5.622   8.773   7.852  0.9840  0.1584 -0.5179
  542MOL0     C71416   5.505   8.842   7.852 -0.2599 -0.0019  0.4555
  542MOL0     C71417   5.472   8.878   7.979  0.3864 -0.5545 -0.8324
  542MOL0     C71418   5.356   8.959   7.997  0.9114 -0.2899  0.2049
  542MOL0     C71419   5.277   9.000   7.883 -0.0817  0.4904 -0.2042
  542MOL0     O71420   5.164   9.066   7.909  0.6944  0.6276  0.3374
  542MOL0     C71421   5.132   9.163   7.798  0.1383  0.4275 -0.7449
  542MOL0     C71422   4.987   9.225   7.817  0.2647  0.6430 -0.4995
  542MOL0     C71423   4.876   9.118   7.835 -0.3543 -1.0025  0.3706
  542MOL0     C71424   4.737   9.185   7.881 -0.8064  0.2631  0.5997
  542MOL0     C71425   4.644   9.075   7.911 -0.1657  0.1259 -0.6667
  542MOL0     C71426   4.509   9.104   7.977  0.5576 -1.3691 -0.4314
  542MOL0     C71427   4.413   9.195   7.908  0.1118 -0.6586  0.6334
  542MOL0     C71428   4.282   9.219   7.988  0.8533 -0.9776 -0.1208
  542MOL0     N71429   4.184   9.287   7.904  0.8514  0.5540  0.3817
  542MOL0     C71430   4.112   9.223   7.804 -0.8558  0.6025 -0.7478
  542MOL0     C71431   4.036   9.323   7.751 -0.1480 -0.2872 -0.3886
  542MOL0     C71432   3.929   9.297   7.645  0.2709  0.7349  0.4719
  542MOL0     C71433   3.951   9.352   7.501 -0.3816 -0.2763  0.0219
  542MOL0     C71434   4.048   9.277   7.404  0.2780  1.0629  0.0059
  542MOL0     C71435   4.174   9.215   7.466 -0.0791 -0.1207  0.3905
  542MOL0     O71436   4.267   9.210   7.364 -0.4990  0.4348  0.4954
  542MOL0     C71437   4.395   9.171   7.377 -0.5591  0.0727 -0.6442
  542MOL0     C71438   4.468   9.148   7.497  0.5302  0.7402 -0.7228
  542MOL0     C71439   4.600   9.101   7.495 -0.5882  0.0738 -0.1284
  542MOL0     C71440   4.662   9.077   7.371 -0.6295 -0.0119 -0.1894
  542MOL0     C71441   4.802   9.020   7.379 -0.2654  0.6599 -0.7503
  542MOL0     O71442   4.837   8.941   7.276 -0.0789 -0.6144 -0.1182
  542MOL0     C71443   4.971   8.906   7.262 -0.9000  0.5726 -0.6156
  542MOL0     C71444   5.015   8.921   7.133 -0.1858 -1.0180 -0.0609
  542MOL0     C71445   5.144   8.891   7.099 -0.0853 -0.0816  0.5520
  542MOL0     C71446   5.235   8.834   7.186 -0.3649  0.5465 -0.0006
  542MOL0     O71447   5.347   8.768   7.138  0.0047 -0.7879 -0.4330
  542MOL0     C71448   5.463   8.774   7.220  0.9317 -0.4180  0.0496
  542MOL0     C71449   5.575   8.766   7.119 -0.1185  0.1398 -0.0768
  542MOL0     C71450   5.710   8.808   7.187  0.2491  0.1171 -0.9549
  542MOL0     C71451   5.776   8.691   7.266 -0.7097 -1.2170  0.1344
  542MOL0     C71452   5.914   8.758   7.314  0.6810 -0.5658 -0.1349
  542MOL0     C71453   6.033   8.732   7.227 -0.1586 -0.5489 -0.3064
  542MOL0     C71454   6.063   8.827   7.103  0.5550  0.2292 -0.5999
  542MOL0     C71455   6.207   8.811   7.051  0.1715  0.0640 -0.9145
  542MOL0    Cl71456   6.238   8.916   6.901  0.0082  0.3377  0.0689
  542MOL0     C71457   5.193   8.824   7.326  0.8115  0.5558  0.8363
  542MOL0     C71458   5.066   8.869   7.360  0.0412  0.0854 -0.3380
  542MOL0     O71459   4.864   9.017   7.489 -0.0869 -0.3696 -1.0713
  542MOL0     C71460   4.597   9.103   7.251  0.3481  0.6112  0.0117
  542MOL0     C71461   4.460   9.144   7.260 -0.2999 -0.5823  0.0901
  542MOL0     N71462   4.074   9.443   7.799  0.2691  0.4378 -0.4063
  542MOL0     N71463   4.156   9.416   7.898  0.2328 -0.0735 -0.6138
  542MOL0     C71464   5.316   8.945   7.756  0.0005 -1.1234 -0.0140
  542MOL0     C71465   5.436   8.878   7.733 -0.1553  0.1772 -0.1498
  542MOL0     C71466   5.842   8.697   7.789  0.3164 -1.7110 -0.2543
  542MOL0     C71467   5.897   8.726   7.919  0.3348  0.4010 -0.4749
  542MOL0     C71468   6.028   8.709   7.953  0.6067 -0.6652  0.9560
  542MOL0     C71469   6.126   8.662   7.860  0.3139 -0.1317  0.1757
  542MOL0     O71470   6.250   8.653   7.901 -1.0178 -0.0641 -0.4701
  542MOL0     C71471   6.262   8.548   8.002 -0.1548  0.5700 -0.5152
  542MOL0     C71472   6.415   8.509   7.988 -0.1596 -0.4160 -0.0143
  542MOL0     C71473   6.520   8.612   8.049  0.9067  0.3008  0.7077
  542MOL0     C71474   6.576   8.551   8.182 -0.1400  0.7753  0.3016
  542MOL0     C71475   6.648   8.429   8.161  0.3946 -0.1365  0.3186
  542MOL0     C71476   6.705   8.339   8.114  0.0866  0.0812  1.1730
  542MOL0     C71477   6.072   8.629   7.729 -0.6226  0.1047 -0.2712
  542MOL0     C71478   5.937   8.654   7.697  0.0637  0.6966 -0.5583
  542MOL0     H71479   5.521   8.836   8.067  2.7648  1.1776 -1.2307
  542MOL0     H71480   5.311   8.989   8.091 -3.0504 -1.4233 -1.1381
  542MOL0     H71481   5.124   9.116   7.699 -0.4871  1.5588 -1.2439
  542MOL0     H71482   5.204   9.245   7.798 -1.4330  1.8840  0.7983
  542MOL0     H71483   4.956   9.279   7.726 -4.1861  2.3811  1.7619
  542MOL0     H71484   4.991   9.296   7.899 -0.4891 -0.3934  0.4622
  542MOL0     H71485   4.902   9.047   7.913 -1.7418 -1.8361  0.1033
  542MOL0     H71486   4.860   9.067   7.739  0.4385 -1.7365  0.6196
  542MOL0     H71487   4.753   9.241   7.974 -2.5929 -0.9741  1.7281
  542MOL0     H71488   4.697   9.250   7.803  0.3221  2.4716  1.7677
  542MOL0     H71489   4.699   9.014   7.983 -0.1095  1.0503  0.1036
  542MOL0     H71490   4.635   9.028   7.813  2.2183  2.0151 -1.9051
  542MOL0     H71491   4.520   9.145   8.077 -0.2298 -0.8660 -0.5389
  542MOL0     H71492   4.449   9.012   7.981 -2.0270  0.2402  3.6842
  542MOL0     H71493   4.465   9.282   7.869 -1.4004 -0.5064 -1.2049
  542MOL0     H71494   4.384   9.144   7.815  0.7235 -1.2167  0.7422
  542MOL0     H71495   4.299   9.277   8.080  2.3417 -1.4758 -0.0661
  542MOL0     H71496   4.237   9.123   8.014  0.9501 -1.5619 -2.0271
  542MOL0     H71497   4.121   9.119   7.775 -0.7824 -0.0610  1.4193
  542MOL0     H71498   3.840   9.348   7.681 -0.2011 -2.0060  3.6820
  542MOL0     H71499   3.910   9.189   7.634 -0.9293  1.0353 -0.6357
  542MOL0     H71500   4.003   9.448   7.512  1.0628 -1.0840  0.5355
  542MOL0     H71501   3.853   9.368   7.455 -1.6182  0.5826  2.7244
  542MOL0     H71502   3.991   9.189   7.374 -1.5522  2.4086 -0.7163
  542MOL0     H71503   4.059   9.350   7.323 -0.3722 -0.4747 -1.5458
  542MOL0     H71504   4.148   9.121   7.513 -0.3832 -1.1998 -1.7942
  542MOL0     H71505   4.204   9.292   7.538 -0.8474 -0.1661  0.7656
  542MOL0     H71506   4.412   9.153   7.590  1.1949 -0.8020 -0.2202
  542MOL0     H71507   4.639   9.059   7.587 -0.6919 -1.6553 -0.8267
  542MOL0     H71508   4.954   8.957   7.051  2.4226  1.3323 -1.1330
  542MOL0     H71509   5.172   8.900   6.994  0.0342  1.2965  0.6830
  542MOL0     H71510   5.477   8.699   7.299 -3.0786 -1.1404  0.2855
  542MOL0     H71511   5.468   8.874   7.264 -3.8195  0.7935 -1.5398
  542MOL0     H71512   5.546   8.839   7.042 -1.5630 -0.5364 -0.2046
  542MOL0     H71513   5.589   8.673   7.063 -0.8918  0.4563 -0.8242
  542MOL0     H71514   5.683   8.893   7.250 -1.3279 -1.1233  0.1238
  542MOL0     H71515   5.781   8.862   7.123  1.9518  0.4261  1.0871
  542MOL0     H71516   5.715   8.665   7.353 -0.6992 -1.1699  0.1558
  542MOL0     H71517   5.779   8.591   7.222 -0.3511 -1.3230  0.4059
  542MOL0     H71518   5.945   8.705   7.405  0.6097  0.2396  0.3625
  542MOL0     H71519   5.921   8.865   7.335  2.4687 -0.4423 -1.1229
  542MOL0     H71520   6.018   8.629   7.192 -1.6108 -1.1695  1.9601
  542MOL0     H71521   6.114   8.742   7.299 -1.9821 -2.0454  2.0925
  542MOL0     H71522   5.988   8.804   7.027 -1.0224 -0.2073  1.0188
  542MOL0     H71523   6.043   8.933   7.125 -3.3700  0.3227 -3.6208
  542MOL0     H71524   6.245   8.709   7.042  2.2940  0.7118 -0.0109
  542MOL0     H71525   6.271   8.854   7.129 -0.2994  2.2189 -1.6446
  542MOL0     H71526   5.266   8.776   7.390  1.6837  2.4783  1.3850
  542MOL0     H71527   5.037   8.864   7.464  0.9922 -1.0788 -0.1151
  542MOL0     H71528   4.653   9.080   7.161  0.8861 -2.6149  1.0507
  542MOL0     H71529   4.401   9.161   7.171 -2.5500 -3.3985  0.9092
  542MOL0     H71530   5.246   8.953   7.673 -1.5024  1.2354  1.3460
  542MOL0     H71531   5.453   8.831   7.637 -0.0253  1.6330 -0.8572
  542MOL0     H71532   5.832   8.758   8.000 -0.4209  0.0387 -0.9225
  542MOL0     H71533   6.058   8.739   8.053  0.4518 -0.8920  1.0717
  542MOL0     H71534   6.190   8.466   7.991 -1.8237  1.8649  0.3321
  542MOL0     H71535   6.243   8.582   8.104 -1.9242 -1.5731 -0.0531
  542MOL0     H71536   6.419   8.408   8.029 -2.7863 -0.9164 -0.7723
  542MOL0     H71537   6.444   8.479   7.887  0.7956 -7.0999  1.8006
  542MOL0     H71538   6.475   8.710   8.066  4.4720  3.1430 -4.0332
  542MOL0     H71539   6.602   8.640   7.983  2.2391  1.7973  2.8546
  542MOL0     H71540   6.644   8.629   8.218  0.4700  0.7753 -0.8313
  542MOL0     H71541   6.493   8.531   8.251  0.3786  0.5707  0.8800
  542MOL0     H71542   6.783   8.270   8.089 -0.4247 -0.5334  1.2574
  542MOL0     H71543   6.128   8.580   7.650 -2.1263  1.3530 -2.2085
  542MOL0     H71544   5.907   8.634   7.595 -0.6143  1.3791 -0.4995
  543MOL0     O71545   8.722   1.642   6.032  0.0775 -0.4114  0.2667
  543MOL0     C71546   8.754   1.634   6.151  0.6437 -0.8037 -1.2112
  543MOL0     O71547   8.881   1.636   6.208 -0.1364  0.9763 -0.1344
  543MOL0     C71548   8.986   1.616   6.121 -0.1177  0.2192 -0.6101
  543MOL0     C71549   9.091   1.713   6.133  0.6233 -0.2515 -0.9449
  543MOL0     C71550   9.198   1.705   6.048 -0.6378 -0.6392  0.1810
  543MOL0     C71551   9.212   1.607   5.953  0.7651  0.1762 -0.1592
  543MOL0     O71552   9.331   1.620   5.878 -0.4766 -0.0110  0.5907
  543MOL0     C71553   9.361   1.513   5.787  0.4200 -0.5867  0.0460
  543MOL0     C71554   9.513   1.527   5.738 -0.8420  0.0091 -0.7431
  543MOL0     C71555   9.613   1.540   5.854  0.2695  0.3582  0.2473
  543MOL0     C71556   9.756   1.533   5.795  0.2018 -0.9445 -0.2508
  543MOL0     C71557   9.857   1.527   5.913  0.4280 -0.1483 -0.5858
  543MOL0     C71558   9.984   1.607   5.901 -1.3028  0.2278 -0.4243
  543MOL0     C71559  10.087   1.595   6.016  0.6055 -0.3481  0.3104
  543MOL0     C71560  10.143   1.464   6.048 -0.4450 -1.2577  1.0214
  543MOL0     N71561  10.223   1.477   6.175 -0.4010 -0.8694 -0.0206
  543MOL0     C71562  10.181   1.493   6.306  0.0507 -0.0514  0.5140
  543MOL0     C71563  10.281   1.526   6.385 -0.0250  0.8353  0.3188
  543MOL0     C71564  10.295   1.524   6.540 -0.2693  0.0844 -0.1522
  543MOL0     C71565  10.322   1.656   6.620 -0.0804  0.0747  0.0437
  543MOL0     C71566  10.448   1.725   6.572 -0.6225 -0.7185  0.0088
  543MOL0     C71567  10.577   1.663   6.622 -0.2271 -0.0540 -1.1361
  543MOL0     O71568  10.689   1.748   6.614  0.5589 -0.0542  0.2812
  543MOL0     C71569  10.777   1.748   6.513 -0.3385 -0.0752  0.7040
  543MOL0     C71570  10.775   1.664   6.396  0.7377  0.0685 -0.2324
  543MOL0     C71571  10.883   1.655   6.316 -0.8317 -0.2672 -0.1593
  543MOL0     C71572  10.996   1.734   6.323 -0.6311 -0.2490 -1.3212
  543MOL0     C71573  11.098   1.742   6.217 -0.4736 -0.5679  0.5835
  543MOL0     O71574  11.223   1.798   6.260  0.1334  0.2312  0.1296
  543MOL0     C71575  11.328   1.809   6.175  0.0139 -0.8406  0.4798
  543MOL0     C71576  11.382   1.706   6.103 -0.1729  0.3503 -0.6665
  543MOL0     C71577  11.491   1.723   6.022 -1.3999  0.6085  0.4498
  543MOL0     C71578  11.554   1.850   6.017  0.2372 -0.4953 -0.1141
  543MOL0     O71579  11.666   1.864   5.930 -0.1372  0.4064  0.9884
  543MOL0     C71580  11.755   1.971   5.956  0.2148 -0.7206  0.3809
  543MOL0     C71581  11.873   1.951   5.861 -0.8781 -0.7710  0.1765
  543MOL0     C71582  11.834   2.011   5.730  1.0309  0.1691  0.0784
  543MOL0     C71583  11.942   1.982   5.621  0.3233  0.7708 -0.4287
  543MOL0     C71584  11.958   1.829   5.582 -0.3387 -0.6995 -1.0198
  543MOL0     C71585  11.837   1.737   5.582  0.3750  0.7372 -0.1392
  543MOL0     C71586  11.855   1.616   5.479 -0.5085  0.0004 -0.2471
  543MOL0     C71587  11.944   1.499   5.532 -0.2120  0.1785  0.1987
  543MOL0    Cl71588  12.122   1.530   5.508  0.2909  0.3011  0.7962
  543MOL0     C71589  11.501   1.959   6.093 -0.5842  1.3222 -0.0624
  543MOL0     C71590  11.387   1.930   6.175  0.1707  0.6627  0.4761
  543MOL0     O71591  11.064   1.726   6.101  0.1654  0.1091 -0.4909
  543MOL0     C71592  10.990   1.828   6.434  0.2765  0.5328 -0.6781
  543MOL0     C71593  10.887   1.828   6.540  0.1765  0.2978  0.1897
  543MOL0     N71594  10.395   1.517   6.301 -0.6529 -0.5301  0.6042
  543MOL0     N71595  10.359   1.493   6.178  0.1443  0.5429 -0.1605
  543MOL0     C71596   9.114   1.507   5.939  0.3134  0.1477 -0.3192
  543MOL0     C71597   8.996   1.513   6.021  0.7226 -0.2733  0.2174
  543MOL0     C71598   8.649   1.651   6.246 -1.0757  0.2870  0.0446
  543MOL0     C71599   8.513   1.669   6.209  0.2374 -0.2704  0.6771
  543MOL0     C71600   8.409   1.671   6.298  0.4755 -0.8264  0.2342
  543MOL0     C71601   8.433   1.636   6.430 -1.2813  0.2737  0.0408
  543MOL0     O71602   8.315   1.622   6.512  0.1695  0.6812 -0.4466
  543MOL0     C71603   8.319   1.640   6.655 -0.3473  1.0513 -0.1669
  543MOL0     C71604   8.325   1.505   6.729 -0.4024  0.3601  0.1299
  543MOL0     C71605   8.289   1.521   6.879 -0.2790  0.1532 -0.8075
  543MOL0     C71606   8.409   1.576   6.951  0.2554  0.9565  0.4396
  543MOL0     C71607   8.365   1.590   7.094 -0.5182  1.0683 -0.5068
  543MOL0     C71608   8.318   1.570   7.207  0.3132 -0.0873 -0.6149
  543MOL0     C71609   8.562   1.610   6.472 -0.3013 -0.1331 -0.1038
  543MOL0     C71610   8.675   1.614   6.380  0.0653 -0.3599  0.4398
  543MOL0     H71611   9.081   1.785   6.213 -2.3213 -0.0876 -1.3662
  543MOL0     H71612   9.281   1.774   6.054 -1.3786  0.3071 -0.0804
  543MOL0     H71613   9.292   1.536   5.705  0.1841  2.2459  0.9341
  543MOL0     H71614   9.335   1.421   5.841  0.3184 -0.4943  0.1575
  543MOL0     H71615   9.533   1.610   5.670 -0.2068  0.7554  0.3321
  543MOL0     H71616   9.537   1.434   5.686  2.5215  0.0791  0.4542
  543MOL0     H71617   9.596   1.458   5.924 -0.8720 -1.0559 -1.5955
  543MOL0     H71618   9.601   1.638   5.902  0.3137  2.6377 -3.8881
  543MOL0     H71619   9.779   1.440   5.742  3.2248 -1.3482  1.5291
  543MOL0     H71620   9.772   1.622   5.733 -2.1065  0.4084  0.9880
  543MOL0     H71621   9.879   1.422   5.934  1.4050  0.3142  0.8569
  543MOL0     H71622   9.808   1.564   6.004 -1.8742  1.2783 -2.2807
  543MOL0     H71623   9.965   1.713   5.884  0.7065  0.7531  0.2746
  543MOL0     H71624  10.027   1.565   5.810 -3.0842 -0.5843 -0.9312
  543MOL0     H71625  10.169   1.661   5.987 -0.3676  0.2385 -1.2315
  543MOL0     H71626  10.040   1.644   6.103 -1.4484  0.9565 -1.4218
  543MOL0     H71627  10.206   1.444   5.962 -0.0344  2.4169  0.3008
  543MOL0     H71628  10.072   1.381   6.055  1.7519 -3.3170  0.1390
  543MOL0     H71629  10.081   1.461   6.337 -0.6453 -0.4431 -1.9045
  543MOL0     H71630  10.369   1.451   6.573 -1.6439 -0.7958  1.0465
  543MOL0     H71631  10.199   1.494   6.582 -2.0779  2.3278 -2.3372
  543MOL0     H71632  10.338   1.623   6.723 -1.0314 -0.7185 -0.0446
  543MOL0     H71633  10.233   1.719   6.609  0.2203  0.3486 -0.8773
  543MOL0     H71634  10.445   1.749   6.465 -0.0907  0.4577  0.2410
  543MOL0     H71635  10.450   1.823   6.620  0.7739 -1.3209  1.2541
  543MOL0     H71636  10.592   1.574   6.560  1.5444  0.8814 -2.1520
  543MOL0     H71637  10.558   1.646   6.728  1.5384  3.0362 -0.1735
  543MOL0     H71638  10.678   1.616   6.392  0.7250  0.1315 -0.6960
  543MOL0     H71639  10.876   1.584   6.234  0.5811  0.2947 -0.8001
  543MOL0     H71640  11.325   1.614   6.110  0.4907  0.0041  0.4432
  543MOL0     H71641  11.529   1.634   5.974 -4.5240  0.6417 -2.4439
  543MOL0     H71642  11.793   1.949   6.056  0.6010 -1.5654  0.0642
  543MOL0     H71643  11.712   2.071   5.951  0.4128 -0.5325  2.0153
  543MOL0     H71644  11.900   1.845   5.856  5.6846  0.4220  1.3223
  543MOL0     H71645  11.964   1.994   5.903 -1.0894  0.2421 -0.3687
  543MOL0     H71646  11.817   2.118   5.740 -3.5231 -0.2631 -0.7460
  543MOL0     H71647  11.743   1.959   5.699  3.1347 -4.2128  0.5075
  543MOL0     H71648  11.916   2.027   5.524 -2.4352 -0.5174 -0.3870
  543MOL0     H71649  12.040   2.016   5.657  0.0396 -0.0266  1.1537
  543MOL0     H71650  12.029   1.791   5.656 -1.2392 -1.0072 -0.3026
  543MOL0     H71651  12.022   1.826   5.493  0.3537 -0.1123 -0.5620
  543MOL0     H71652  11.741   1.781   5.552  1.2079  2.2511 -0.6856
  543MOL0     H71653  11.799   1.705   5.680  0.0476 -1.3208 -0.8889
  543MOL0     H71654  11.757   1.569   5.471  0.1214 -1.5322  0.6604
  543MOL0     H71655  11.885   1.640   5.376 -2.5209 -0.2340 -0.9284
  543MOL0     H71656  11.912   1.414   5.471 -0.1970  0.6214 -0.4382
  543MOL0     H71657  11.916   1.487   5.636 -1.3950  1.3886  0.0485
  543MOL0     H71658  11.530   2.063   6.093 -0.7840  1.3792  0.1227
  543MOL0     H71659  11.329   2.007   6.225  0.5205  2.1202 -1.2470
  543MOL0     H71660  11.070   1.901   6.433 -0.1215  0.9995 -2.8193
  543MOL0     H71661  10.877   1.895   6.626  2.0173 -1.4548  1.8833
  543MOL0     H71662   9.127   1.422   5.874 -1.6835 -1.5088  1.3101
  543MOL0     H71663   8.914   1.445   6.002 -0.3140  1.2620 -1.1290
  543MOL0     H71664   8.495   1.701   6.106  2.8480 -0.5991  0.0426
  543MOL0     H71665   8.317   1.720   6.268  1.5867  2.6991  2.0545
  543MOL0     H71666   8.217   1.674   6.672 -1.2651 -1.8011  0.6103
  543MOL0     H71667   8.398   1.703   6.695  2.2964 -2.1002  0.0288
  543MOL0     H71668   8.258   1.435   6.678  0.8760  0.1710 -1.3580
  543MOL0     H71669   8.430   1.478   6.714  0.3577  2.4480  1.2109
  543MOL0     H71670   8.257   1.424   6.919 -2.3060  0.6606 -1.1034
  543MOL0     H71671   8.206   1.591   6.882  1.0402  1.7528  1.6900
  543MOL0     H71672   8.491   1.504   6.944  0.9545  1.8078 -0.4827
  543MOL0     H71673   8.439   1.670   6.903 -0.0011  1.7465  1.7752
  543MOL0     H71674   8.280   1.552   7.306  2.1434 -0.9163 -0.0367
  543MOL0     H71675   8.572   1.563   6.569 -3.8976 -0.0643  0.4106
  543MOL0     H71676   8.766   1.581   6.429 -0.3896 -2.7761 -0.2097
  544MOL0     O71677   8.698   2.887   8.919 -0.0151  0.6799  0.0604
  544MOL0     C71678   8.734   3.000   8.905 -0.5606 -0.0797  1.2082
  544MOL0     O71679   8.733   3.095   9.002 -0.5856 -0.3071  0.8550
  544MOL0     C71680   8.659   3.070   9.108  0.0148 -0.2549  0.6555
  544MOL0     C71681   8.655   2.943   9.176  0.3274 -0.2837 -0.0590
  544MOL0     C71682   8.586   2.933   9.296 -0.5838 -0.4871 -0.3120
  544MOL0     C71683   8.510   3.046   9.350 -0.1168 -0.3406 -0.5396
  544MOL0     O71684   8.448   3.016   9.470  0.0032  0.4156 -0.9281
  544MOL0     C71685   8.449   3.104   9.587 -0.2562 -0.2888  0.1613
  544MOL0     C71686   8.446   3.027   9.714 -0.5442 -0.6868 -1.2768
  544MOL0     C71687   8.302   2.964   9.740  0.0569  0.5889  0.2021
  544MOL0     C71688   8.257   2.851   9.657 -0.4707 -0.9313  0.4544
  544MOL0     C71689   8.107   2.821   9.671  0.3613 -0.3391 -1.1478
  544MOL0     C71690   8.055   2.797   9.816 -0.1315 -0.1365 -0.0592
  544MOL0     C71691   7.902   2.757   9.844  0.8956  0.0601  0.0499
  544MOL0     C71692   7.876   2.617   9.787 -0.8015  0.2859 -0.2778
  544MOL0     N71693   7.739   2.592   9.818 -0.0247  0.2974 -0.7043
  544MOL0     C71694   7.646   2.541   9.727 -0.0024 -0.8069 -0.3895
  544MOL0     C71695   7.536   2.546   9.809  0.1387 -0.0693 -0.4993
  544MOL0     C71696   7.417   2.476   9.771 -0.7248  0.7571 -0.9375
  544MOL0     C71697   7.286   2.534   9.823  0.0061 -0.0894  0.6639
  544MOL0     C71698   7.226   2.624   9.721  0.5696 -0.5602 -0.0014
  544MOL0     C71699   7.086   2.679   9.753  0.4727  0.3254 -0.0220
  544MOL0     O71700   6.987   2.585   9.704  0.1927 -0.7969  0.3939
  544MOL0     C71701   6.866   2.580   9.765  0.1618 -0.6868 -0.4116
  544MOL0     C71702   6.827   2.664   9.869  0.4560 -0.3730 -0.6451
  544MOL0     C71703   6.702   2.632   9.938 -0.6744 -0.0261  0.4549
  544MOL0     C71704   6.618   2.513   9.904 -0.5599 -0.4668  0.6882
  544MOL0     C71705   6.508   2.477   9.991  0.7828 -0.2905  0.3330
  544MOL0     O71706   6.440   2.366   9.952 -0.6047  0.3513  0.6276
  544MOL0     C71707   6.326   2.321  10.009  0.1266  0.0702  0.3801
  544MOL0     C71708   6.231   2.266   9.926  0.5428  0.2472 -0.7572
  544MOL0     C71709   6.110   2.211   9.978  0.4956 -0.0766  0.3405
  544MOL0     C71710   6.086   2.217  10.112 -0.1538  0.0801  0.3705
  544MOL0     O71711   5.970   2.142  10.143  0.0929 -0.0375 -0.4864
  544MOL0     C71712   5.930   2.138  10.279 -0.3545  0.3505  0.1616
  544MOL0     C71713   5.842   2.011  10.294  0.6735 -0.1640 -0.1348
  544MOL0     C71714   5.762   2.012  10.427 -0.9141  0.3223  0.5691
  544MOL0     C71715   5.669   1.892  10.449  0.5348  0.5561 -0.1077
  544MOL0     C71716   5.531   1.900  10.373 -0.0514 -0.4032  0.7098
  544MOL0     C71717   5.470   1.761  10.350 -0.1944 -0.3037  0.4718
  544MOL0     C71718   5.438   1.691  10.483  0.1032  0.2187 -0.8360
  544MOL0     C71719   5.319   1.754  10.558 -0.1880 -0.6830 -0.1389
  544MOL0    Cl71720   5.161   1.757  10.463  0.1838 -0.3263 -0.1041
  544MOL0     C71721   6.190   2.265  10.197  0.0933 -0.2479 -0.7602
  544MOL0     C71722   6.313   2.310  10.144  1.0557 -0.4367 -0.5834
  544MOL0     O71723   6.480   2.555  10.087  0.3202  0.2661 -0.1040
  544MOL0     C71724   6.668   2.437   9.796 -0.0525  0.3662  0.5145
  544MOL0     C71725   6.787   2.467   9.729 -0.0842  0.2039  0.7121
  544MOL0     N71726   7.564   2.576   9.934  0.0638  0.2815  1.1864
  544MOL0     N71727   7.684   2.600   9.941  0.1788 -0.2924  0.5176
  544MOL0     C71728   8.533   3.169   9.292  0.4772 -0.5308  0.4205
  544MOL0     C71729   8.601   3.183   9.171 -0.4588  0.5416  0.3010
  544MOL0     C71730   8.807   3.045   8.777  0.2864  0.1229  1.0040
  544MOL0     C71731   8.867   3.177   8.765 -0.5491 -0.4162  1.2573
  544MOL0     C71732   8.967   3.204   8.668  0.1127 -0.1496 -0.4038
  544MOL0     C71733   8.970   3.121   8.553 -0.1429 -0.2649  0.3371
  544MOL0     O71734   9.053   3.128   8.440 -0.3738 -0.4582 -0.9498
  544MOL0     C71735   9.039   3.255   8.367  0.3680  0.4041 -0.3160
  544MOL0     C71736   8.896   3.281   8.298 -0.7495 -0.6855 -0.2096
  544MOL0     C71737   8.880   3.168   8.202 -0.1465  0.0831  0.1494
  544MOL0     C71738   8.749   3.180   8.120 -0.9686  0.9313 -0.5317
  544MOL0     C71739   8.624   3.150   8.192  0.5775  0.1269 -0.0923
  544MOL0     C71740   8.516   3.139   8.243  0.0686 -0.6150 -0.8108
  544MOL0     C71741   8.892   2.996   8.552 -0.8020 -0.3331 -0.5423
  544MOL0     C71742   8.816   2.962   8.666 -0.7581 -0.4131  0.1043
  544MOL0     H71743   8.718   2.858   9.154 -0.0767 -0.3718 -0.9442
  544MOL0     H71744   8.584   2.845   9.359  1.8134  0.3461  1.0657
  544MOL0     H71745   8.369   3.178   9.595 -0.2157 -0.3729  1.6517
  544MOL0     H71746   8.544   3.158   9.580 -0.4950  0.7293  3.3941
  544MOL0     H71747   8.462   3.100   9.794  0.4040  2.2651 -3.9438
  544MOL0     H71748   8.529   2.956   9.720  1.4486  1.6005  0.3338
  544MOL0     H71749   8.223   3.038   9.750 -0.7458 -0.3747  1.2475
  544MOL0     H71750   8.298   2.927   9.843 -1.5939  0.1096 -0.0059
  544MOL0     H71751   8.288   2.863   9.553 -0.5469 -0.4686  0.4838
  544MOL0     H71752   8.307   2.764   9.700  0.7354  0.0238  1.0537
  544MOL0     H71753   8.104   2.729   9.611  1.5014 -1.1141 -0.0582
  544MOL0     H71754   8.051   2.904   9.628 -0.3068 -0.4874 -0.5776
  544MOL0     H71755   8.070   2.892   9.868 -0.7844 -0.0803  0.0338
  544MOL0     H71756   8.118   2.720   9.861 -1.7808 -1.9149 -0.6554
  544MOL0     H71757   7.885   2.754   9.952 -1.4756 -0.7288 -0.2837
  544MOL0     H71758   7.832   2.834   9.808  2.5006  1.8899  0.6533
  544MOL0     H71759   7.954   2.552   9.828  0.0978  2.1513  1.1149
  544MOL0     H71760   7.877   2.613   9.678 -0.5663  2.6458 -0.4153
  544MOL0     H71761   7.655   2.510   9.623  0.4521 -0.6816 -0.3911
  544MOL0     H71762   7.418   2.384   9.830 -0.7692  1.8086  0.7643
  544MOL0     H71763   7.426   2.460   9.663  0.7397  0.8193 -0.8459
  544MOL0     H71764   7.290   2.592   9.916 -2.5926 -0.6770  1.2196
  544MOL0     H71765   7.216   2.453   9.848 -0.9428  1.0959  2.0191
  544MOL0     H71766   7.293   2.710   9.710  0.7133 -0.5117  1.1335
  544MOL0     H71767   7.215   2.572   9.626 -2.9061  2.8953 -1.7822
  544MOL0     H71768   7.057   2.777   9.715 -3.0428 -0.7500 -0.4773
  544MOL0     H71769   7.081   2.693   9.862 -0.7451  0.0977 -0.0407
  544MOL0     H71770   6.875   2.757   9.898 -1.9097 -0.0371  2.6783
  544MOL0     H71771   6.684   2.693  10.026  2.6984  0.0670  1.2194
  544MOL0     H71772   6.254   2.235   9.825  1.2404  0.3794 -0.6404
  544MOL0     H71773   6.048   2.162   9.902 -0.8001 -2.7230  2.9046
  544MOL0     H71774   5.866   2.224  10.303  1.1078  1.6154 -0.3732
  544MOL0     H71775   6.013   2.130  10.350  2.8928  4.0577 -2.7852
  544MOL0     H71776   5.887   1.912  10.296 -2.0675 -1.4701  0.1925
  544MOL0     H71777   5.772   2.011  10.210 -2.5724 -2.5072  2.3696
  544MOL0     H71778   5.722   2.108  10.461  0.3273  1.0073  0.1831
  544MOL0     H71779   5.845   2.009  10.497 -0.6106  3.6234  0.5491
  544MOL0     H71780   5.725   1.805  10.415 -1.2537 -1.0992  0.9755
  544MOL0     H71781   5.646   1.880  10.555 -1.5040 -1.0097 -0.6497
  544MOL0     H71782   5.543   1.949  10.275 -4.4184 -1.3658 -0.5416
  544MOL0     H71783   5.459   1.953  10.436  1.1732  0.4782  1.4075
  544MOL0     H71784   5.545   1.703  10.295  2.2831  1.7247  1.4656
  544MOL0     H71785   5.378   1.777  10.294 -0.5282 -1.4813  0.6426
  544MOL0     H71786   5.406   1.589  10.462 -0.9737 -0.1421  2.0080
  544MOL0     H71787   5.531   1.683  10.541 -0.1702  0.9071 -0.2755
  544MOL0     H71788   5.346   1.853  10.595  0.7341 -1.4944  1.4822
  544MOL0     H71789   5.299   1.692  10.646  1.8293  1.8688  2.3044
  544MOL0     H71790   6.179   2.247  10.303  1.4348 -2.2757 -0.9131
  544MOL0     H71791   6.396   2.339  10.208  0.4243  0.3110 -0.0616
  544MOL0     H71792   6.618   2.345   9.769 -0.4115  0.8772 -0.6648
  544MOL0     H71793   6.826   2.396   9.657 -0.9357  0.9840 -0.5725
  544MOL0     H71794   8.509   3.255   9.353 -0.2988  0.8490 -1.7096
  544MOL0     H71795   8.611   3.282   9.127  2.6831 -1.1505 -3.3835
  544MOL0     H71796   8.859   3.253   8.842 -0.6148  0.1900  0.6540
  544MOL0     H71797   9.025   3.294   8.683  0.4173 -0.2326 -1.0458
  544MOL0     H71798   9.114   3.265   8.288 -1.1306 -0.4001 -1.9122
  544MOL0     H71799   9.047   3.334   8.442 -4.3687  1.7738 -0.9555
  544MOL0     H71800   8.810   3.266   8.364 -0.3509  0.6913  0.6613
  544MOL0     H71801   8.897   3.376   8.244 -0.0944 -0.5530  0.0348
  544MOL0     H71802   8.902   3.070   8.244  0.1694 -0.9033 -2.1765
  544MOL0     H71803   8.962   3.171   8.130 -1.7168  2.4008 -1.6590
  544MOL0     H71804   8.732   3.283   8.087  0.8854  1.1018 -1.0515
  544MOL0     H71805   8.757   3.118   8.030 -1.2377 -2.0223  1.3271
  544MOL0     H71806   8.425   3.152   8.298  1.3265  2.4642  0.7752
  544MOL0     H71807   8.904   2.930   8.467  1.6016  3.0438 -3.1151
  544MOL0     H71808   8.760   2.869   8.663  1.5813 -1.8660 -0.3254
  545MOL0     O71809   7.880  10.881   1.638 -0.7803  0.1578 -0.3735
  545MOL0     C71810   7.955  10.784   1.648  0.6849  0.8343  0.2330
  545MOL0     O71811   8.092  10.781   1.647 -0.8463  0.3190  0.3428
  545MOL0     C71812   8.169  10.895   1.671  0.1768  0.6840  0.3171
  545MOL0     C71813   8.133  11.025   1.648 -0.4380 -0.2698  0.0734
  545MOL0     C71814   8.219  11.120   1.697  0.1172 -0.5994  0.2892
  545MOL0     C71815   8.345  11.087   1.752  0.4465  0.2111  0.1700
  545MOL0     O71816   8.424  11.189   1.803  0.3181 -0.0114 -0.1599
  545MOL0     C71817   8.567  11.176   1.807  0.0026 -0.0923  0.2151
  545MOL0     C71818   8.606  11.143   1.952 -0.9243 -0.1474  0.4592
  545MOL0     C71819   8.748  11.097   1.989 -0.5550  0.7569 -0.0643
  545MOL0     C71820   8.841  11.220   1.963  0.9415 -0.3154 -0.5927
  545MOL0     C71821   8.983  11.184   1.990 -0.1502  0.3824 -0.2344
  545MOL0     C71822   9.016  11.176   2.147  0.0637 -1.8167  0.6251
  545MOL0     C71823   9.162  11.212   2.174  0.8738 -0.2459  0.3410
  545MOL0     C71824   9.249  11.136   2.088  0.0593  0.1001 -0.8349
  545MOL0     N71825   9.389  11.147   2.134 -0.2478 -0.0699 -0.2830
  545MOL0     C71826   9.444  11.261   2.169  0.2497  0.0679  0.5645
  545MOL0     C71827   9.575  11.228   2.192 -0.3219  0.4413 -0.6374
  545MOL0     C71828   9.676  11.316   2.254  0.4502 -0.8040  0.4139
  545MOL0     C71829   9.823  11.290   2.215 -0.5155  0.0793 -0.0913
  545MOL0     C71830   9.907  11.392   2.298  0.1893 -0.3049  0.3393
  545MOL0     C71831  10.023  11.434   2.205  0.4231  0.8514  0.5712
  545MOL0     O71832  10.118  11.503   2.278  0.4584 -0.2311 -0.1525
  545MOL0     C71833  10.243  11.520   2.228  0.5539  0.6071  0.4063
  545MOL0     C71834  10.282  11.508   2.094  0.3555 -0.1947 -0.0150
  545MOL0     C71835  10.424  11.525   2.065  0.3868 -0.3581  0.4738
  545MOL0     C71836  10.516  11.564   2.164  0.1566 -0.7129  0.2298
  545MOL0     C71837  10.659  11.576   2.136 -0.7510  0.2010  0.1397
  545MOL0     O71838  10.745  11.599   2.237 -0.2088 -0.4066  0.0783
  545MOL0     C71839  10.877  11.572   2.197  0.7470  0.1294 -0.5398
  545MOL0     C71840  10.954  11.654   2.111 -0.0442 -0.7296 -0.1270
  545MOL0     C71841  11.080  11.601   2.063 -0.0066  0.7058 -0.5021
  545MOL0     C71842  11.140  11.484   2.110  0.1027  0.0900  0.7497
  545MOL0     O71843  11.252  11.446   2.042 -0.9680 -0.5331  0.0124
  545MOL0     C71844  11.323  11.324   2.080 -0.5265 -0.9508  0.1663
  545MOL0     C71845  11.405  11.302   1.954 -1.0700 -0.2798 -0.2729
  545MOL0     C71846  11.446  11.158   1.933  1.0642  0.0535  0.6507
  545MOL0     C71847  11.520  11.088   2.039 -1.1773  0.7003 -0.7892
  545MOL0     C71848  11.622  10.996   1.988  0.2338 -0.0817 -0.2975
  545MOL0     C71849  11.754  11.066   1.949 -0.2341  0.6210 -0.6935
  545MOL0     C71850  11.799  11.066   1.805  1.0926  0.3257  1.1121
  545MOL0     C71851  11.794  10.931   1.725 -0.7892  0.3928  0.2639
  545MOL0    Cl71852  11.645  10.912   1.627 -0.4205  0.2070 -0.3538
  545MOL0     C71853  11.063  11.409   2.205 -0.1422 -0.9852 -0.2545
  545MOL0     C71854  10.932  11.450   2.243  0.2669 -0.1779 -0.2625
  545MOL0     O71855  10.691  11.545   2.018 -0.2918 -0.4482 -1.0884
  545MOL0     C71856  10.468  11.598   2.290  0.0347  0.0881 -0.2294
  545MOL0     C71857  10.332  11.558   2.326 -0.4526 -0.5588 -0.6061
  545MOL0     N71858   9.591  11.100   2.157 -0.1483 -0.9981  0.4251
  545MOL0     N71859   9.473  11.040   2.127 -0.2089 -1.6008  0.2828
  545MOL0     C71860   8.390  10.954   1.755 -0.3763 -0.0698  0.5136
  545MOL0     C71861   8.295  10.855   1.714 -0.4200  0.5725 -0.2280
  545MOL0     C71862   7.885  10.659   1.639 -0.3687 -0.2672  0.2292
  545MOL0     C71863   7.756  10.653   1.580 -0.2353  0.1488  0.3203
  545MOL0     C71864   7.699  10.526   1.566 -0.3518  0.4170 -0.3194
  545MOL0     C71865   7.771  10.410   1.597 -0.7486  0.2100  0.6212
  545MOL0     O71866   7.715  10.286   1.554  0.1552 -0.5026 -0.1133
  545MOL0     C71867   7.779  10.163   1.583  0.3606 -0.2323 -0.7510
  545MOL0     C71868   7.740  10.122   1.719  0.7702  0.1758 -0.0726
  545MOL0     C71869   7.580  10.116   1.744 -0.3109 -0.8958 -0.0837
  545MOL0     C71870   7.503  10.001   1.664  0.5420  0.7778  0.2373
  545MOL0     C71871   7.359  10.008   1.690 -0.9196  0.0494  0.2335
  545MOL0     C71872   7.242  10.029   1.701  0.0671  0.0412 -0.2939
  545MOL0     C71873   7.889  10.420   1.669  0.4359  0.2308 -0.3060
  545MOL0     C71874   7.937  10.539   1.697 -0.2221  0.4180  0.5568
  545MOL0     H71875   8.039  11.060   1.607  1.9438  5.9330 -1.2404
  545MOL0     H71876   8.192  11.225   1.701 -0.3472 -0.7483  2.3605
  545MOL0     H71877   8.619  11.268   1.779 -2.1125  0.4911 -2.1996
  545MOL0     H71878   8.607  11.103   1.735 -1.5633 -0.6581 -0.1053
  545MOL0     H71879   8.533  11.078   2.001 -0.4594 -1.0453 -0.0084
  545MOL0     H71880   8.576  11.237   1.999  0.0749  1.0674 -1.2138
  545MOL0     H71881   8.771  11.001   1.942 -3.3504 -0.5844  1.0917
  545MOL0     H71882   8.752  11.074   2.096 -0.5713  2.7635  0.4103
  545MOL0     H71883   8.829  11.231   1.855 -0.1733 -3.7891 -0.9444
  545MOL0     H71884   8.811  11.307   2.023  1.1585 -0.7811  0.2087
  545MOL0     H71885   9.050  11.251   1.935  0.4931 -1.4381 -1.7932
  545MOL0     H71886   8.993  11.080   1.956 -3.0429 -0.2607  0.5897
  545MOL0     H71887   9.002  11.074   2.186  2.4965 -2.2645  0.4606
  545MOL0     H71888   8.956  11.253   2.196 -0.7302 -2.3473  0.5078
  545MOL0     H71889   9.170  11.320   2.158 -1.4774 -0.2985 -1.8189
  545MOL0     H71890   9.186  11.192   2.279 -4.5896  0.5796  2.0698
  545MOL0     H71891   9.235  11.159   1.981  0.6581  0.9297 -0.7375
  545MOL0     H71892   9.220  11.031   2.101 -0.1437 -0.0167 -2.0498
  545MOL0     H71893   9.399  11.360   2.174  0.8780  0.3996 -0.1240
  545MOL0     H71894   9.656  11.335   2.360 -2.5900  1.4121 -0.3916
  545MOL0     H71895   9.661  11.419   2.220 -0.0960 -1.2678 -0.8270
  545MOL0     H71896   9.830  11.311   2.108  2.4359  0.0265 -0.0051
  545MOL0     H71897   9.855  11.186   2.227 -1.4099 -0.3766 -1.4490
  545MOL0     H71898   9.852  11.486   2.310  2.6300  1.0381  1.7753
  545MOL0     H71899   9.942  11.355   2.395  0.3375  0.3126  0.5249
  545MOL0     H71900   9.995  11.486   2.113  0.6741 -1.0288 -0.6352
  545MOL0     H71901  10.070  11.345   2.163  1.6626  1.1861  1.1845
  545MOL0     H71902  10.206  11.487   2.019 -0.2644  0.1807  0.4969
  545MOL0     H71903  10.451  11.515   1.961 -0.8644  2.5862 -0.2287
  545MOL0     H71904  10.912  11.743   2.066  3.5023  0.1360 -2.1185
  545MOL0     H71905  11.128  11.659   1.985  0.6890  2.3671  1.0984
  545MOL0     H71906  11.253  11.241   2.094 -2.1494  0.3585  0.0499
  545MOL0     H71907  11.383  11.340   2.170 -0.0063  0.1109 -0.3536
  545MOL0     H71908  11.494  11.362   1.977 -0.3908 -0.5745 -2.0318
  545MOL0     H71909  11.352  11.346   1.870  1.2456  2.5123 -0.4366
  545MOL0     H71910  11.512  11.161   1.846  0.4792  0.0781  0.1960
  545MOL0     H71911  11.355  11.102   1.908 -0.9896  2.9688  1.0935
  545MOL0     H71912  11.573  11.157   2.105 -1.8418 -0.2595  0.8100
  545MOL0     H71913  11.454  11.029   2.103  0.9466 -0.2373  0.6495
  545MOL0     H71914  11.587  10.933   1.906 -2.5184 -2.2953  2.3501
  545MOL0     H71915  11.650  10.923   2.065 -0.2237  0.9441  0.8817
  545MOL0     H71916  11.837  11.026   2.008 -2.1905 -1.8982  0.5973
  545MOL0     H71917  11.747  11.173   1.967  3.5430  1.4501 -3.0984
  545MOL0     H71918  11.734  11.136   1.750  0.1711  1.1973  3.1813
  545MOL0     H71919  11.900  11.107   1.797 -0.3776  3.9762 -2.6395
  545MOL0     H71920  11.796  10.848   1.796  0.6546  1.2891  1.3352
  545MOL0     H71921  11.883  10.919   1.663 -1.3351 -1.2450 -0.2554
  545MOL0     H71922  11.100  11.312   2.235 -0.1680 -1.2326 -0.9966
  545MOL0     H71923  10.873  11.394   2.314  1.9039  1.2351  2.3468
  545MOL0     H71924  10.524  11.648   2.369 -0.5257 -1.0628  0.9491
  545MOL0     H71925  10.310  11.553   2.432  1.2541  1.6494 -0.0672
  545MOL0     H71926   8.486  10.935   1.803 -0.7705  2.8191  2.7278
  545MOL0     H71927   8.317  10.749   1.718  1.5656  0.9074 -0.9783
  545MOL0     H71928   7.703  10.745   1.562  2.3044  1.5710 -0.3473
  545MOL0     H71929   7.592  10.520   1.547 -0.8130  1.9027  1.5375
  545MOL0     H71930   7.888  10.167   1.575  0.6133 -3.5267 -0.4021
  545MOL0     H71931   7.745  10.083   1.517 -0.7441 -2.7044  2.5586
  545MOL0     H71932   7.777  10.020   1.737  1.4909 -0.4650 -4.3037
  545MOL0     H71933   7.787  10.196   1.784  1.4793  0.0400 -0.4230
  545MOL0     H71934   7.527  10.208   1.718 -1.1024 -0.5050  2.6222
  545MOL0     H71935   7.564  10.110   1.852  3.5058  0.6506  0.7668
  545MOL0     H71936   7.518  10.001   1.555  1.1731 -0.8020  0.2936
  545MOL0     H71937   7.532   9.899   1.687 -2.5485 -0.5210 -0.9918
  545MOL0     H71938   7.140  10.056   1.713 -0.6890 -1.3189 -2.8967
  545MOL0     H71939   7.940  10.339   1.720  1.8938  0.5086 -1.2580
  545MOL0     H71940   8.030  10.546   1.753 -1.0927 -0.5417  2.2007
  546MOL0     O71941   3.975   6.545   1.025  0.2485  0.1779  0.5991
  546MOL0     C71942   4.059   6.511   1.106 -0.8752 -0.0816  0.0005
  546MOL0     O71943   4.110   6.596   1.199  0.4794 -0.2428 -0.1340
  546MOL0     C71944   4.040   6.723   1.219 -0.6025  0.7268  0.1882
  546MOL0     C71945   3.904   6.736   1.244  0.5542  0.0191  0.2806
  546MOL0     C71946   3.839   6.860   1.239  0.9517  0.3732  0.4601
  546MOL0     C71947   3.914   6.975   1.234  0.8192  0.0005  0.4174
  546MOL0     O71948   3.851   7.097   1.248 -0.5621 -0.1239  0.0005
  546MOL0     C71949   3.839   7.156   1.119 -0.8250  0.0663 -0.3398
  546MOL0     C71950   3.816   7.307   1.135  0.0542 -0.5060 -0.7615
  546MOL0     C71951   3.725   7.352   1.026 -0.2606  0.1357 -0.5562
  546MOL0     C71952   3.715   7.502   0.997 -0.0572  0.0937 -0.1657
  546MOL0     C71953   3.590   7.546   0.916  0.1680 -0.7632 -0.1721
  546MOL0     C71954   3.589   7.698   0.894  0.7601 -0.3777  0.4800
  546MOL0     C71955   3.702   7.755   0.806  0.7704  0.0211  0.2347
  546MOL0     C71956   3.700   7.683   0.664  0.5409 -0.0207 -0.0906
  546MOL0     N71957   3.571   7.662   0.615  0.4148 -0.4889  0.0382
  546MOL0     C71958   3.483   7.756   0.576 -0.5789 -0.2226  1.3684
  546MOL0     C71959   3.369   7.696   0.534  0.0139  0.0280  0.7528
  546MOL0     C71960   3.243   7.767   0.483  0.8245  0.2334  0.1856
  546MOL0     C71961   3.269   7.836   0.353 -0.6296 -0.3986  0.1057
  546MOL0     C71962   3.133   7.903   0.293  0.0973  0.0776 -0.4457
  546MOL0     C71963   3.081   7.817   0.172 -0.0414 -0.5855 -1.0728
  546MOL0     O71964   3.182   7.811   0.062  0.2633 -0.4465 -0.1471
  546MOL0     C71965   3.162   7.733  -0.044  0.8796  0.1829 -0.1491
  546MOL0     C71966   3.168   7.601  -0.016  0.1937 -0.4488  0.4148
  546MOL0     C71967   3.134   7.511  -0.109  0.1954  0.0346  0.7241
  546MOL0     C71968   3.105   7.549  -0.241  0.0695  0.5874  1.2111
  546MOL0     C71969   3.063   7.440  -0.330  0.1345 -1.1161 -0.3653
  546MOL0     O71970   3.003   7.493  -0.447  0.2101  1.0054  0.3107
  546MOL0     C71971   2.946   7.402  -0.524 -0.0293  1.4321  0.5601
  546MOL0     C71972   3.021   7.325  -0.618  0.2461 -0.6721  0.5826
  546MOL0     C71973   2.959   7.230  -0.694  1.0858 -0.2795  1.7498
  546MOL0     C71974   2.826   7.218  -0.702 -0.0885  0.4670  0.2270
  546MOL0     O71975   2.765   7.118  -0.784  1.2183 -1.1664  0.3685
  546MOL0     C71976   2.846   7.002  -0.813  0.0015 -0.0710 -0.1415
  546MOL0     C71977   2.754   6.900  -0.862 -0.1792 -0.3181  0.2326
  546MOL0     C71978   2.845   6.788  -0.904  0.5484  0.1029  0.1014
  546MOL0     C71979   2.767   6.674  -0.966 -0.0593 -0.1250  0.2242
  546MOL0     C71980   2.853   6.564  -1.019  0.2406 -0.3685  0.4575
  546MOL0     C71981   2.768   6.452  -1.092  0.7018  0.0210  0.1675
  546MOL0     C71982   2.860   6.340  -1.127  0.0033 -0.0269 -0.8528
  546MOL0     C71983   2.782   6.216  -1.174 -0.2688 -0.5123 -0.8661
  546MOL0    Cl71984   2.675   6.259  -1.312  0.4348  0.1235  0.0471
  546MOL0     C71985   2.742   7.309  -0.633  0.3305 -0.5248  0.3802
  546MOL0     C71986   2.809   7.396  -0.539 -0.0943  0.1831 -0.3559
  546MOL0     O71987   3.074   7.318  -0.296  0.3302  0.4720 -0.0907
  546MOL0     C71988   3.116   7.680  -0.275  0.5726 -0.3239  0.1215
  546MOL0     C71989   3.151   7.774  -0.175 -0.5791 -0.8943  0.4752
  546MOL0     N71990   3.386   7.562   0.531 -0.5382  0.9769  0.6056
  546MOL0     N71991   3.507   7.543   0.584  0.4582 -0.0688 -0.2464
  546MOL0     C71992   4.056   6.964   1.222 -0.2278  0.7678  0.0481
  546MOL0     C71993   4.115   6.838   1.206 -0.2967 -0.6029 -0.2121
  546MOL0     C71994   4.129   6.385   1.092 -0.5215 -0.3814 -0.1618
  546MOL0     C71995   4.070   6.271   1.048 -0.2286 -0.0486  0.4465
  546MOL0     C71996   4.136   6.151   1.056 -0.0848 -0.2465  0.7605
  546MOL0     C71997   4.267   6.147   1.103 -0.1587 -0.1254  0.4690
  546MOL0     O71998   4.348   6.035   1.118  0.8233  0.1369  0.0266
  546MOL0     C71999   4.272   5.914   1.125  0.2290  0.5466  0.2558
  546MOL0     C72000   4.278   5.840   0.987  0.4607  0.1873  0.7059
  546MOL0     C72001   4.408   5.863   0.913 -0.7736 -0.3449  0.9454
  546MOL0     C72002   4.423   5.979   0.813 -0.5512  0.9767 -1.0384
  546MOL0     C72003   4.540   6.064   0.843  1.1171  0.2072 -0.7116
  546MOL0     C72004   4.637   6.124   0.861  0.1312 -0.3068 -0.5573
  546MOL0     C72005   4.334   6.265   1.130  0.7821  0.2672 -0.4743
  546MOL0     C72006   4.268   6.383   1.130  0.1122 -0.0103 -0.3860
  546MOL0     H72007   3.851   6.643   1.257  2.1935 -0.6970  2.3882
  546MOL0     H72008   3.731   6.870   1.239  0.5013 -2.1945 -3.3635
  546MOL0     H72009   3.765   7.109   1.053 -1.9680 -0.6717  1.3971
  546MOL0     H72010   3.936   7.143   1.071 -0.3174 -1.8353  1.0804
  546MOL0     H72011   3.918   7.346   1.131 -1.0110  2.9044  0.7092
  546MOL0     H72012   3.763   7.336   1.227 -1.1233  2.0646 -2.1515
  546MOL0     H72013   3.622   7.330   1.055 -1.3710  2.9950 -1.9921
  546MOL0     H72014   3.757   7.300   0.935  0.5871  1.5037 -1.0687
  546MOL0     H72015   3.707   7.548   1.096 -1.6260 -0.5642  0.0536
  546MOL0     H72016   3.803   7.529   0.939  0.6949 -2.2715 -0.2336
  546MOL0     H72017   3.497   7.524   0.968  1.2141 -2.5565  1.0034
  546MOL0     H72018   3.588   7.498   0.818 -1.4955  1.4176 -1.2965
  546MOL0     H72019   3.589   7.746   0.993  1.3596 -1.0992  0.8418
  546MOL0     H72020   3.494   7.734   0.855  2.0342  1.6290 -1.0245
  546MOL0     H72021   3.668   7.859   0.797 -1.6924 -0.7668 -0.5760
  546MOL0     H72022   3.804   7.751   0.845  1.8798  0.7189 -2.3528
  546MOL0     H72023   3.752   7.587   0.665 -1.5560 -1.2209  1.4576
  546MOL0     H72024   3.752   7.753   0.598  1.9046  2.0697  2.9319
  546MOL0     H72025   3.511   7.861   0.588 -2.7692  0.5634  0.2168
  546MOL0     H72026   3.207   7.826   0.567 -0.6506 -1.2280  0.6210
  546MOL0     H72027   3.172   7.686   0.464  1.2151  0.0920 -0.7207
  546MOL0     H72028   3.300   7.762   0.279  1.4889 -2.1518  2.5532
  546MOL0     H72029   3.350   7.906   0.378  0.4873 -0.9668 -1.7557
  546MOL0     H72030   3.053   7.907   0.368 -2.4349 -0.6473 -2.9513
  546MOL0     H72031   3.150   8.007   0.264 -1.6604  1.0765  1.8142
  546MOL0     H72032   2.990   7.854   0.124  1.3377  2.2884 -1.7109
  546MOL0     H72033   3.065   7.714   0.205 -1.9938  0.0480  0.0971
  546MOL0     H72034   3.203   7.578   0.084  1.1341  1.9529  0.6964
  546MOL0     H72035   3.132   7.408  -0.076 -1.8780 -0.0530  0.4344
  546MOL0     H72036   3.129   7.328  -0.614  0.2063  1.1733  3.7627
  546MOL0     H72037   3.026   7.181  -0.764  0.9516  2.1711 -0.1971
  546MOL0     H72038   2.885   6.960  -0.720  0.7718 -0.8755 -0.8062
  546MOL0     H72039   2.921   7.019  -0.891 -1.3088 -0.4519 -1.5419
  546MOL0     H72040   2.699   6.944  -0.945 -0.7372 -0.1782  0.6736
  546MOL0     H72041   2.693   6.856  -0.782  0.0496 -1.5640 -0.2495
  546MOL0     H72042   2.901   6.742  -0.823  0.3594  0.3733  0.3882
  546MOL0     H72043   2.931   6.819  -0.964  0.0826  2.5006  0.5492
  546MOL0     H72044   2.707   6.636  -0.883 -2.2697  1.8927 -0.3256
  546MOL0     H72045   2.695   6.705  -1.041  1.4017  1.0073 -0.7774
  546MOL0     H72046   2.918   6.517  -0.945 -0.5671 -3.5667 -0.6688
  546MOL0     H72047   2.922   6.610  -1.090  0.0082 -1.8696 -0.7923
  546MOL0     H72048   2.711   6.493  -1.175  1.8823  0.9593 -0.2118
  546MOL0     H72049   2.689   6.412  -1.027 -1.8827 -1.1048 -3.3819
  546MOL0     H72050   2.928   6.358  -1.211 -0.3920  0.8074 -0.9988
  546MOL0     H72051   2.920   6.314  -1.040 -0.6061 -1.6894 -0.8888
  546MOL0     H72052   2.717   6.188  -1.091 -1.6482  3.6541 -0.3467
  546MOL0     H72053   2.847   6.128  -1.182 -1.7819 -1.6516 -1.0208
  546MOL0     H72054   2.636   7.308  -0.655  0.9158 -2.7193 -2.9440
  546MOL0     H72055   2.758   7.464  -0.471  0.3645 -1.4384  1.7260
  546MOL0     H72056   3.103   7.714  -0.377 -0.5579  4.2705  1.5230
  546MOL0     H72057   3.140   7.878  -0.206 -0.5923 -1.3933 -1.3272
  546MOL0     H72058   4.106   7.060   1.229  1.3813 -0.0738  0.4679
  546MOL0     H72059   4.221   6.823   1.189  0.3024  3.3684 -0.9207
  546MOL0     H72060   3.972   6.292   1.006 -0.4509  3.8911  2.5343
  546MOL0     H72061   4.083   6.064   1.019  1.0527 -0.1689 -1.1883
  546MOL0     H72062   4.170   5.912   1.164 -0.6296 -1.3292 -1.8328
  546MOL0     H72063   4.329   5.850   1.193  0.9579 -0.7266 -1.4741
  546MOL0     H72064   4.266   5.735   1.013  1.6459  0.3400  2.0052
  546MOL0     H72065   4.190   5.877   0.933 -0.1310  0.1205  1.6070
  546MOL0     H72066   4.441   5.780   0.850  3.3551  0.0879  2.2139
  546MOL0     H72067   4.489   5.860   0.986  0.2049 -0.9780 -0.1206
  546MOL0     H72068   4.436   5.942   0.711  0.8928 -0.2194 -0.4661
  546MOL0     H72069   4.334   6.042   0.812 -1.2015  0.1525  0.5300
  546MOL0     H72070   4.726   6.174   0.895 -0.1568  1.0968 -1.7472
  546MOL0     H72071   4.440   6.262   1.151  0.3581  0.6947  1.9790
  546MOL0     H72072   4.321   6.475   1.154  0.3407 -0.0889 -0.5875
  547MOL0     O72073   6.053   7.613  11.113 -1.1899 -0.5929  0.0936
  547MOL0     C72074   5.996   7.722  11.103  0.0532  0.5160 -0.0278
  547MOL0     O72075   6.011   7.814  10.997  0.6634  0.3721 -0.6411
  547MOL0     C72076   6.097   7.808  10.896 -0.2155  0.4126 -0.0263
  547MOL0     C72077   6.176   7.700  10.863  0.4766 -0.8705  0.6770
  547MOL0     C72078   6.252   7.712  10.749 -0.6330  0.5424  0.8823
  547MOL0     C72079   6.277   7.824  10.673  0.3962 -0.7489  0.4829
  547MOL0     O72080   6.355   7.847  10.554  0.3608  0.0706 -0.0073
  547MOL0     C72081   6.281   7.849  10.436  0.5945 -0.0441  0.0902
  547MOL0     C72082   6.378   7.820  10.329  0.2016 -0.1354  1.0502
  547MOL0     C72083   6.348   7.906  10.208  0.0777  0.0579  0.8712
  547MOL0     C72084   6.455   7.872  10.096 -0.0863 -0.0570  0.1621
  547MOL0     C72085   6.587   7.948  10.104  0.2877 -0.4153 -0.5875
  547MOL0     C72086   6.670   7.954   9.977  0.2860 -0.1483  0.0530
  547MOL0     C72087   6.806   8.018   9.995 -0.6411  0.1780 -0.5000
  547MOL0     C72088   6.882   8.024   9.857  0.3152 -0.4716 -0.3736
  547MOL0     N72089   6.997   8.104   9.872  0.6594 -0.9281 -0.1351
  547MOL0     C72090   7.011   8.234   9.833  0.4406 -0.2031 -0.5476
  547MOL0     C72091   7.134   8.272   9.860 -1.1476 -0.4652  0.5755
  547MOL0     C72092   7.181   8.415   9.830  0.1294  0.7300 -0.9939
  547MOL0     C72093   7.325   8.419   9.783  1.6137  0.2961  0.7457
  547MOL0     C72094   7.352   8.361   9.641 -0.2937  0.3462 -0.2681
  547MOL0     C72095   7.338   8.204   9.623 -0.1105 -1.4302 -0.6960
  547MOL0     O72096   7.342   8.176   9.484 -0.1128 -0.3456 -0.1679
  547MOL0     C72097   7.334   8.042   9.442 -0.4095 -0.0514 -0.8584
  547MOL0     C72098   7.342   8.022   9.299 -0.4652 -0.2274  0.3538
  547MOL0     C72099   7.328   7.893   9.238 -0.3783 -0.7341 -0.4559
  547MOL0     C72100   7.301   7.777   9.319 -0.3900  0.6806  0.3417
  547MOL0     C72101   7.275   7.646   9.252  0.7931  0.3906 -0.4176
  547MOL0     O72102   7.183   7.568   9.316 -0.0546 -0.3073 -0.1734
  547MOL0     C72103   7.157   7.443   9.287 -0.2990  0.6889  0.3295
  547MOL0     C72104   7.225   7.351   9.202  0.0585 -0.3335 -0.5733
  547MOL0     C72105   7.179   7.221   9.194  0.3415  0.5430  0.3287
  547MOL0     C72106   7.067   7.169   9.267 -0.7402  1.0219  0.0026
  547MOL0     O72107   7.036   7.038   9.236 -0.0646 -0.1068 -0.2587
  547MOL0     C72108   6.916   6.998   9.300 -0.8335  1.2539  0.5113
  547MOL0     C72109   6.899   6.848   9.264 -0.4680 -0.1834  0.4658
  547MOL0     C72110   6.842   6.842   9.120  0.2078 -0.0871  0.1647
  547MOL0     C72111   6.879   6.705   9.045 -1.4999 -0.8256 -1.1747
  547MOL0     C72112   6.824   6.696   8.905  0.2710  0.1172 -0.1987
  547MOL0     C72113   6.807   6.548   8.845  0.5320  0.3650 -0.6041
  547MOL0     C72114   6.826   6.532   8.692  0.8852 -0.1040 -0.0730
  547MOL0     C72115   6.702   6.584   8.617  0.1525  0.4335 -0.5253
  547MOL0    Cl72116   6.566   6.479   8.637 -0.1730  0.1413 -0.0338
  547MOL0     C72117   7.004   7.258   9.353  0.9113  0.6017  0.3654
  547MOL0     C72118   7.049   7.388   9.369 -0.3111 -1.2789  0.1604
  547MOL0     O72119   7.334   7.622   9.148 -0.2131  0.7164 -0.2232
  547MOL0     C72120   7.309   7.799   9.459  0.7135  0.3819  0.5354
  547MOL0     C72121   7.313   7.926   9.520  0.4333  0.0924  0.1447
  547MOL0     N72122   7.194   8.168   9.932 -0.4331  0.0683  0.3528
  547MOL0     N72123   7.111   8.067   9.936  0.1313  0.0890  0.3288
  547MOL0     C72124   6.209   7.933  10.719 -0.6375  0.2357  0.1614
  547MOL0     C72125   6.118   7.928  10.827  0.2944  0.1924 -0.1892
  547MOL0     C72126   5.906   7.768  11.210 -1.0974  0.0790  0.7957
  547MOL0     C72127   5.911   7.703  11.339  0.2847 -0.1705 -0.2507
  547MOL0     C72128   5.831   7.750  11.449  0.7591  0.2144  0.0777
  547MOL0     C72129   5.754   7.864  11.431  0.1142  0.2006 -0.0942
  547MOL0     O72130   5.682   7.919  11.536  0.2271  0.0660 -0.0369
  547MOL0     C72131   5.543   7.940  11.506 -0.0033  0.4861  0.4816
  547MOL0     C72132   5.469   7.995  11.634  0.2739 -0.1602 -0.6476
  547MOL0     C72133   5.323   8.038  11.630 -0.0929  0.0047  0.6572
  547MOL0     C72134   5.286   8.112  11.496  0.1997 -0.1752 -0.6065
  547MOL0     C72135   5.174   8.191  11.517  0.4177  0.0935  0.5072
  547MOL0     C72136   5.066   8.247  11.535 -0.3413  0.4744  0.2899
  547MOL0     C72137   5.748   7.927  11.304 -1.2876 -0.1850 -0.3590
  547MOL0     C72138   5.823   7.883  11.200  0.0058 -1.2780 -0.4078
  547MOL0     H72139   6.175   7.599  10.903  1.1107 -1.6425 -1.1680
  547MOL0     H72140   6.307   7.629  10.706  0.7144  2.2316 -0.7892
  547MOL0     H72141   6.227   7.942  10.414 -0.1232 -1.2622 -4.2359
  547MOL0     H72142   6.217   7.761  10.438 -0.5458  0.7698  2.8789
  547MOL0     H72143   6.361   7.713  10.315 -3.4188  0.7170 -3.6198
  547MOL0     H72144   6.482   7.844  10.354  0.4344 -0.1482  0.1091
  547MOL0     H72145   6.361   8.012  10.234  0.2720 -0.5931  3.7375
  547MOL0     H72146   6.251   7.883  10.164 -0.8703  0.5303  2.6353
  547MOL0     H72147   6.487   7.767  10.094  3.2172  0.7352  2.8698
  547MOL0     H72148   6.411   7.897   9.999  0.4981 -2.7180 -0.8812
  547MOL0     H72149   6.635   7.891  10.185 -1.0081  1.4214  1.5833
  547MOL0     H72150   6.567   8.045  10.150 -2.9126 -1.6623  0.9491
  547MOL0     H72151   6.618   8.011   9.899 -2.3965  0.6169  2.2573
  547MOL0     H72152   6.684   7.851   9.944  2.9697  0.2204 -0.1775
  547MOL0     H72153   6.783   8.121  10.025 -2.2261  1.1172 -4.2910
  547MOL0     H72154   6.864   7.971  10.075  1.6456  1.8427 -1.0743
  547MOL0     H72155   6.815   8.069   9.783 -3.1486 -0.6296  2.4025
  547MOL0     H72156   6.913   7.926   9.820  0.6198 -0.1623 -0.9541
  547MOL0     H72157   6.934   8.296   9.786 -0.4000  0.1966  1.2869
  547MOL0     H72158   7.170   8.467   9.925 -0.7638  0.5243 -0.9680
  547MOL0     H72159   7.118   8.467   9.757 -1.0146  0.0938 -0.4811
  547MOL0     H72160   7.386   8.365   9.856 -2.2986 -1.7383  2.8397
  547MOL0     H72161   7.347   8.526   9.790 -3.1015  1.3955  2.8475
  547MOL0     H72162   7.287   8.417   9.572 -1.0471 -0.2711 -0.0794
  547MOL0     H72163   7.451   8.393   9.607  1.0074 -1.4286  1.5805
  547MOL0     H72164   7.258   8.166   9.686 -0.1694  1.2156  0.9558
  547MOL0     H72165   7.425   8.165   9.676 -0.0346 -0.6517 -0.2297
  547MOL0     H72166   7.340   8.105   9.229 -0.5536 -2.1607 -2.0927
  547MOL0     H72167   7.320   7.888   9.130 -2.1107 -1.6170 -0.3279
  547MOL0     H72168   7.314   7.382   9.148 -0.1931  1.3333 -0.1059
  547MOL0     H72169   7.244   7.150   9.144 -1.2692 -1.0929  0.4416
  547MOL0     H72170   6.833   7.061   9.267  0.1356  1.9341 -0.7100
  547MOL0     H72171   6.911   6.994   9.409 -0.1762 -1.7352  0.5339
  547MOL0     H72172   6.824   6.801   9.328  0.1191 -0.1710  1.1818
  547MOL0     H72173   6.995   6.794   9.270  1.2265  2.7443  1.8989
  547MOL0     H72174   6.884   6.925   9.063  0.7935 -0.8791 -0.5807
  547MOL0     H72175   6.734   6.860   9.121 -0.5988 -3.7035 -2.1207
  547MOL0     H72176   6.988   6.697   9.045 -1.3326 -0.7797  2.7059
  547MOL0     H72177   6.866   6.619   9.112  0.7564  0.0765  0.5716
  547MOL0     H72178   6.887   6.753   8.836  0.2141 -0.5644 -0.8275
  547MOL0     H72179   6.724   6.740   8.901 -0.7979 -1.9944  1.5105
  547MOL0     H72180   6.710   6.506   8.872 -0.2052  3.0659  1.3600
  547MOL0     H72181   6.885   6.483   8.886  1.0594  1.4956  0.2380
  547MOL0     H72182   6.902   6.596   8.647  1.9054 -1.0742  0.2430
  547MOL0     H72183   6.851   6.430   8.662 -1.5837 -1.7054  2.7307
  547MOL0     H72184   6.714   6.591   8.509 -1.0995  0.5824 -0.6669
  547MOL0     H72185   6.681   6.684   8.656 -0.9290 -0.8813  2.6084
  547MOL0     H72186   6.912   7.225   9.401 -1.0992  2.3259 -2.0411
  547MOL0     H72187   6.988   7.453   9.432 -1.0874 -1.5146 -0.3375
  547MOL0     H72188   7.274   7.727   9.532  0.6830  2.8317  3.1079
  547MOL0     H72189   7.313   7.928   9.629  1.6181  1.3000  0.1537
  547MOL0     H72190   6.217   8.036  10.684 -3.5749  0.3236 -0.5492
  547MOL0     H72191   6.065   8.015  10.864 -1.2035  0.6836 -3.1067
  547MOL0     H72192   5.968   7.611  11.340  1.9989  0.8456 -0.9545
  547MOL0     H72193   5.832   7.697  11.544  0.9109  0.8098  0.4163
  547MOL0     H72194   5.497   7.850  11.463 -1.0995  1.4235 -0.3781
  547MOL0     H72195   5.529   8.012  11.425  0.6371  0.7024  0.5603
  547MOL0     H72196   5.467   7.916  11.709 -2.1258 -1.1346 -1.6480
  547MOL0     H72197   5.539   8.072  11.670  0.6607 -0.6402 -0.3644
  547MOL0     H72198   5.297   8.096  11.719 -2.1646  2.5244 -1.4427
  547MOL0     H72199   5.265   7.945  11.626  0.5185 -0.4981  2.3423
  547MOL0     H72200   5.376   8.173  11.488  0.4481 -0.4907 -0.2664
  547MOL0     H72201   5.276   8.037  11.416 -1.7262  0.8029 -1.3460
  547MOL0     H72202   4.979   8.305  11.555  0.9203  1.8037  2.2815
  547MOL0     H72203   5.711   8.027  11.281 -0.2034  0.3170 -0.0400
  547MOL0     H72204   5.826   7.942  11.109  1.5677 -2.0906 -0.9305
  548MOL0     O72205  10.760   8.357   0.094 -0.4362  0.2561 -0.0339
  548MOL0     C72206  10.794   8.424  -0.007 -0.0626  0.3359  0.2026
  548MOL0     O72207  10.918   8.434  -0.063  0.2760  1.4444 -0.7312
  548MOL0     C72208  11.034   8.398  -0.007  0.4207 -1.0688  0.5204
  548MOL0     C72209  11.141   8.481  -0.043  1.3803  0.0207 -0.0059
  548MOL0     C72210  11.266   8.472   0.014  0.1063  0.1987 -0.0276
  548MOL0     C72211  11.291   8.386   0.128  0.7487  0.2821  0.2776
  548MOL0     O72212  11.414   8.396   0.186  0.3113 -0.3218 -0.1573
  548MOL0     C72213  11.441   8.292   0.287 -0.8473  0.0425  0.2541
  548MOL0     C72214  11.568   8.340   0.352 -0.4089 -0.6406  0.2133
  548MOL0     C72215  11.603   8.266   0.487  0.0778  0.6064 -0.3001
  548MOL0     C72216  11.731   8.322   0.547 -0.0225  1.2297 -0.1774
  548MOL0     C72217  11.753   8.269   0.694  0.0865  0.8331  0.1362
  548MOL0     C72218  11.781   8.111   0.724 -0.3935  0.3538 -0.7621
  548MOL0     C72219  11.874   8.086   0.847 -0.2332  0.2384  0.5535
  548MOL0     C72220  11.814   8.106   0.982 -0.2257 -0.3355  0.5086
  548MOL0     N72221  11.915   8.093   1.091 -0.7177  0.6643  1.1573
  548MOL0     C72222  11.941   7.979   1.170  0.4863 -0.2819  0.4204
  548MOL0     C72223  12.053   8.008   1.231  0.4747 -1.0630  0.2936
  548MOL0     C72224  12.122   7.948   1.348 -0.0323 -0.1524 -0.5083
  548MOL0     C72225  12.140   7.794   1.336 -0.6431  0.1127  0.3709
  548MOL0     C72226  12.203   7.731   1.468 -0.0193 -0.2432 -0.8215
  548MOL0     C72227  12.201   7.578   1.460  1.2611 -0.4876  0.3019
  548MOL0     O72228  12.264   7.529   1.581 -0.8064 -0.3284 -0.1387
  548MOL0     C72229  12.403   7.509   1.570  0.4157 -0.0964 -0.5520
  548MOL0     C72230  12.482   7.482   1.455  0.0635 -0.1404  0.5794
  548MOL0     C72231  12.612   7.448   1.457 -0.0902  0.3357 -0.3754
  548MOL0     C72232  12.675   7.446   1.580  1.1366  0.4933 -0.7563
  548MOL0     C72233  12.825   7.416   1.596  0.2528  0.3611  0.3797
  548MOL0     O72234  12.884   7.448   1.708 -0.1981 -0.1185  0.6959
  548MOL0     C72235  13.011   7.397   1.724  0.3496 -0.4849 -0.6363
  548MOL0     C72236  13.123   7.462   1.679  0.9388  0.3055  0.0505
  548MOL0     C72237  13.254   7.396   1.692 -0.6673 -0.9942 -0.1543
  548MOL0     C72238  13.264   7.276   1.750 -0.1447  0.0811 -0.2125
  548MOL0     O72239  13.393   7.245   1.773  0.0616  0.0166  0.2022
  548MOL0     C72240  13.433   7.108   1.804  0.1390  0.1898  0.8239
  548MOL0     C72241  13.413   7.006   1.693 -0.8044  0.6871 -0.0975
  548MOL0     C72242  13.472   6.863   1.714 -0.0539 -0.4877  0.2726
  548MOL0     C72243  13.477   6.804   1.571  0.8917 -0.0241  0.5638
  548MOL0     C72244  13.499   6.660   1.562  0.4287 -0.7299  0.0465
  548MOL0     C72245  13.631   6.615   1.630 -0.5487  0.1227  0.0093
  548MOL0     C72246  13.647   6.465   1.607 -0.7164 -0.7369  1.1814
  548MOL0     C72247  13.793   6.401   1.606 -0.2516  0.2699 -0.3615
  548MOL0    Cl72248  13.851   6.432   1.769  0.0873 -0.1437  0.2376
  548MOL0     C72249  13.146   7.214   1.802  0.5015 -0.0936 -0.1357
  548MOL0     C72250  13.026   7.277   1.788  0.1820  1.6581 -0.3823
  548MOL0     O72251  12.877   7.363   1.499  0.5997 -0.0556  1.0279
  548MOL0     C72252  12.595   7.473   1.697  0.6814  0.0074  0.9192
  548MOL0     C72253  12.462   7.495   1.691  0.5398 -0.5981 -0.5031
  548MOL0     N72254  12.088   8.133   1.192  1.0903 -0.4895 -0.2402
  548MOL0     N72255  12.012   8.187   1.107 -0.3923 -0.2929 -0.8175
  548MOL0     C72256  11.179   8.305   0.168  0.2858 -0.1052 -0.5762
  548MOL0     C72257  11.057   8.300   0.094 -0.2073 -0.1552  0.0784
  548MOL0     C72258  10.678   8.477  -0.089 -0.3966  0.2475  0.5597
  548MOL0     C72259  10.693   8.492  -0.227 -0.4251  0.1016  0.6477
  548MOL0     C72260  10.600   8.556  -0.305  0.8287  0.7978 -0.1999
  548MOL0     C72261  10.480   8.601  -0.249  0.4079  0.0183 -0.2326
  548MOL0     O72262  10.375   8.656  -0.323  0.2616  0.0697 -0.8237
  548MOL0     C72263  10.383   8.676  -0.462 -1.2860 -0.2495  0.0170
  548MOL0     C72264  10.428   8.822  -0.506  0.7764  0.5161  0.0034
  548MOL0     C72265  10.546   8.885  -0.434 -0.4160  0.7284  0.1965
  548MOL0     C72266  10.605   9.014  -0.496  0.8649  0.4717  1.5454
  548MOL0     C72267  10.675   8.984  -0.618 -0.2754 -0.5698  0.7285
  548MOL0     C72268  10.734   8.968  -0.720  0.2962  1.4259  1.2293
  548MOL0     C72269  10.463   8.582  -0.115  0.3217  0.5694 -0.2131
  548MOL0     C72270  10.564   8.530  -0.033 -0.0367  0.6444 -0.2112
  548MOL0     H72271  11.116   8.555  -0.119  0.3963  0.0858  0.3630
  548MOL0     H72272  11.334   8.540  -0.037 -1.4799  1.0439 -1.0721
  548MOL0     H72273  11.472   8.197   0.243  2.1742  1.8005 -1.8583
  548MOL0     H72274  11.372   8.290   0.371  0.9355  1.9405  1.8757
  548MOL0     H72275  11.576   8.449   0.360  0.8519 -0.3442 -3.3712
  548MOL0     H72276  11.652   8.330   0.283  0.1766  1.4106  0.5612
  548MOL0     H72277  11.601   8.158   0.468 -0.8885  0.5844 -0.1157
  548MOL0     H72278  11.527   8.279   0.565  0.0487  0.4146 -0.2957
  548MOL0     H72279  11.798   8.292   0.466 -0.8128 -2.3819  0.3396
  548MOL0     H72280  11.726   8.431   0.553  1.2031  1.2588  0.8038
  548MOL0     H72281  11.653   8.294   0.731 -2.4508 -3.5970 -2.6960
  548MOL0     H72282  11.826   8.323   0.754  0.5759 -1.8549  2.2003
  548MOL0     H72283  11.828   8.071   0.634  2.6622  0.7037  0.5587
  548MOL0     H72284  11.681   8.066   0.735 -0.5003  0.0800 -2.5901
  548MOL0     H72285  11.887   7.977   0.846  1.6185  0.3714  2.0053
  548MOL0     H72286  11.969   8.138   0.829  0.0688 -0.6287 -0.4340
  548MOL0     H72287  11.738   8.027   0.987  0.9755 -1.8107 -2.2305
  548MOL0     H72288  11.771   8.206   0.993 -1.7520 -0.9701  0.5120
  548MOL0     H72289  11.870   7.901   1.192  0.6595 -0.3571  0.7124
  548MOL0     H72290  12.049   7.948   1.430 -1.8720 -4.7279 -1.8282
  548MOL0     H72291  12.213   8.004   1.370  2.1725 -2.5520 -2.8448
  548MOL0     H72292  12.208   7.773   1.253 -4.5670 -4.2109 -2.2670
  548MOL0     H72293  12.046   7.744   1.310  0.7197 -1.9726 -0.8522
  548MOL0     H72294  12.305   7.773   1.463  0.5524 -1.4559  0.1395
  548MOL0     H72295  12.144   7.773   1.550  0.1718  3.3025 -2.2926
  548MOL0     H72296  12.234   7.536   1.365 -0.8758 -0.3461 -0.5566
  548MOL0     H72297  12.095   7.552   1.456  1.6576 -2.5873  1.7791
  548MOL0     H72298  12.434   7.474   1.358  3.6690 -1.8833 -1.2440
  548MOL0     H72299  12.668   7.442   1.365 -1.4881 -2.6334 -1.1759
  548MOL0     H72300  13.109   7.557   1.627  0.2594  0.7512  1.0063
  548MOL0     H72301  13.336   7.458   1.658 -0.8110 -1.2691 -1.0326
  548MOL0     H72302  13.375   7.068   1.888  2.0313 -3.8252  0.4627
  548MOL0     H72303  13.537   7.111   1.839  0.7816  0.1488 -0.9897
  548MOL0     H72304  13.462   7.053   1.607 -0.5581 -0.8485 -0.8247
  548MOL0     H72305  13.305   6.997   1.676 -0.6599 -2.1514  0.0054
  548MOL0     H72306  13.422   6.797   1.785  0.3961 -1.1480 -0.0099
  548MOL0     H72307  13.573   6.861   1.755 -0.1709 -1.1265  0.5391
  548MOL0     H72308  13.378   6.821   1.527  1.2160 -2.0434 -1.0980
  548MOL0     H72309  13.549   6.852   1.504 -0.9796  0.2001 -1.4140
  548MOL0     H72310  13.503   6.621   1.460 -1.5807  0.4864 -0.5755
  548MOL0     H72311  13.417   6.616   1.619  2.2720 -3.1837  0.9240
  548MOL0     H72312  13.626   6.634   1.738 -2.2725  1.4472 -0.2604
  548MOL0     H72313  13.714   6.682   1.603  1.0891 -0.6249  2.7655
  548MOL0     H72314  13.584   6.412   1.679 -4.8905 -1.1242 -2.3452
  548MOL0     H72315  13.609   6.442   1.507  0.3844  2.7250 -0.2293
  548MOL0     H72316  13.868   6.455   1.547  0.2269  1.3821  1.2017
  548MOL0     H72317  13.798   6.297   1.572  2.9111 -0.2047  1.1273
  548MOL0     H72318  13.170   7.117   1.847  0.2128  0.6917  1.8149
  548MOL0     H72319  12.937   7.232   1.831  0.9774  0.7647  0.3562
  548MOL0     H72320  12.637   7.471   1.797  0.2383  1.0548  1.1470
  548MOL0     H72321  12.398   7.516   1.777 -0.0846 -3.1818 -0.2390
  548MOL0     H72322  11.180   8.255   0.264 -2.6372 -2.3378 -1.5733
  548MOL0     H72323  10.976   8.229   0.109  0.2455 -0.5927  0.4703
  548MOL0     H72324  10.789   8.465  -0.270 -0.7581  0.5387 -0.3925
  548MOL0     H72325  10.616   8.567  -0.411 -0.4192 -1.2338 -0.6564
  548MOL0     H72326  10.288   8.652  -0.509 -1.0493 -0.1711 -0.5113
  548MOL0     H72327  10.458   8.611  -0.508  2.8288  0.7395  4.4973
  548MOL0     H72328  10.451   8.817  -0.613 -0.9527 -0.2429 -0.3713
  548MOL0     H72329  10.343   8.890  -0.497  1.3579  1.2204  0.2083
  548MOL0     H72330  10.631   8.816  -0.434 -0.6506  0.3539  2.4201
  548MOL0     H72331  10.524   8.914  -0.331  0.3769  1.2427  0.2316
  548MOL0     H72332  10.519   9.080  -0.513  1.5109  1.7230  2.9155
  548MOL0     H72333  10.686   9.066  -0.444  1.0364  1.0703  0.7091
  548MOL0     H72334  10.784   8.961  -0.815  0.3147  3.5562  1.0138
  548MOL0     H72335  10.362   8.603  -0.079 -0.8465 -0.4469 -2.6425
  548MOL0     H72336  10.549   8.522   0.074 -0.2062 -0.6053 -0.3068
  549MOL0     O72337  10.794   5.685   2.463 -0.4808  0.0710  0.2275
  549MOL0     C72338  10.870   5.622   2.384 -0.6125 -0.7420 -1.1047
  549MOL0     O72339  10.858   5.601   2.247 -0.4345  0.5482 -0.3806
  549MOL0     C72340  10.738   5.618   2.196  0.2874  0.5265 -0.3782
  549MOL0     C72341  10.667   5.505   2.133  0.3431  0.2328 -0.1159
  549MOL0     C72342  10.540   5.509   2.077 -0.6513  0.6539 -0.6367
  549MOL0     C72343  10.485   5.632   2.075  0.4640 -0.0553  0.6997
  549MOL0     O72344  10.351   5.640   2.029 -0.6027  0.0018 -1.1889
  549MOL0     C72345  10.256   5.707   2.114  0.6080 -1.3295  0.5924
  549MOL0     C72346  10.163   5.607   2.186  0.4719  0.0616 -0.1870
  549MOL0     C72347  10.063   5.528   2.097  0.3845 -0.7137 -0.3625
  549MOL0     C72348   9.991   5.422   2.179  0.2312  0.1451  0.5410
  549MOL0     C72349   9.880   5.367   2.098 -0.1210  0.3046  0.6397
  549MOL0     C72350   9.813   5.247   2.157 -0.2300 -0.3928 -0.4003
  549MOL0     C72351   9.873   5.117   2.147  0.3909  0.6498  0.5652
  549MOL0     C72352   9.822   5.036   2.263 -0.2393 -0.2411 -0.0158
  549MOL0     N72353   9.893   5.074   2.388  0.2068  0.9469  0.0200
  549MOL0     C72354  10.026   5.050   2.410  0.2825  0.4037 -1.3204
  549MOL0     C72355  10.047   5.106   2.535 -0.6681 -0.3023 -0.2786
  549MOL0     C72356  10.176   5.147   2.612  0.2419  0.4850  0.5000
  549MOL0     C72357  10.240   5.264   2.545 -0.0809 -0.2019  0.0080
  549MOL0     C72358  10.313   5.228   2.415  0.2525  0.1450  1.1106
  549MOL0     C72359  10.414   5.338   2.372  1.0263  0.2902  0.7712
  549MOL0     O72360  10.534   5.320   2.446 -0.8312 -0.1622  0.0382
  549MOL0     C72361  10.641   5.240   2.407  0.7723 -1.1689  0.0540
  549MOL0     C72362  10.755   5.243   2.491  1.1588 -0.2468 -0.0906
  549MOL0     C72363  10.871   5.160   2.466 -0.8226  0.2917  0.6749
  549MOL0     C72364  10.869   5.081   2.353 -0.2929  0.6782  0.5377
  549MOL0     C72365  11.001   5.005   2.325  0.6672  0.0063 -0.4159
  549MOL0     O72366  11.096   5.000   2.430  0.2236 -0.1747  0.0877
  549MOL0     C72367  11.212   4.933   2.431  0.0289  0.1218  0.7863
  549MOL0     C72368  11.317   4.963   2.517 -0.0415 -0.3261 -0.4988
  549MOL0     C72369  11.424   4.884   2.515 -0.0212 -0.3919 -0.3770
  549MOL0     C72370  11.449   4.781   2.421  0.5335 -0.1891 -1.2304
  549MOL0     O72371  11.579   4.731   2.430  0.5686 -0.6088  0.0298
  549MOL0     C72372  11.618   4.655   2.314 -0.2496  0.3489 -0.5722
  549MOL0     C72373  11.765   4.619   2.332  0.2804 -1.6119 -0.6816
  549MOL0     C72374  11.808   4.523   2.222  0.3380 -0.7687  0.6517
  549MOL0     C72375  11.942   4.453   2.247  0.6888  0.1397 -0.0980
  549MOL0     C72376  11.947   4.326   2.171  0.2700  0.5798 -0.1827
  549MOL0     C72377  11.920   4.333   2.028 -0.2583  0.2311 -0.1990
  549MOL0     C72378  11.944   4.192   1.960 -0.2906 -0.1112 -0.2748
  549MOL0     C72379  11.905   4.201   1.814 -0.4945 -0.6263  0.2349
  549MOL0    Cl72380  11.729   4.219   1.802 -0.5408 -0.0325 -0.1989
  549MOL0     C72381  11.347   4.745   2.337  0.2724 -0.6063  0.2786
  549MOL0     C72382  11.224   4.817   2.346  0.4055  0.1447 -0.1688
  549MOL0     O72383  11.014   4.954   2.217  0.1017 -0.6063 -0.4152
  549MOL0     C72384  10.753   5.087   2.267 -0.0735 -0.0454 -0.0577
  549MOL0     C72385  10.642   5.156   2.304 -0.1288  0.5274 -0.8463
  549MOL0     N72386   9.924   5.133   2.593  0.7755  0.6618 -0.7027
  549MOL0     N72387   9.825   5.122   2.503  0.4750 -0.0557  0.0709
  549MOL0     C72388  10.554   5.744   2.124 -0.0149  0.3914  0.1313
  549MOL0     C72389  10.673   5.738   2.183 -0.9052  0.0059 -0.6227
  549MOL0     C72390  10.991   5.548   2.446 -0.3139  0.9260  0.2338
  549MOL0     C72391  11.056   5.437   2.383  0.9946  0.0339 -0.6143
  549MOL0     C72392  11.153   5.367   2.451  1.2376  0.3341 -0.0075
  549MOL0     C72393  11.181   5.391   2.591  0.6990 -1.1169  0.0747
  549MOL0     O72394  11.286   5.319   2.636  0.0841  0.1333 -0.9179
  549MOL0     C72395  11.384   5.403   2.702 -0.2855  0.1049  1.4148
  549MOL0     C72396  11.484   5.315   2.783  0.9239 -0.5621  0.2556
  549MOL0     C72397  11.574   5.216   2.726 -0.0137 -0.0182 -1.3247
  549MOL0     C72398  11.682   5.167   2.821  1.0048 -0.3947 -0.4443
  549MOL0     C72399  11.801   5.103   2.766 -0.2472  0.3765  1.1098
  549MOL0     C72400  11.891   5.047   2.705  1.2397  0.5410 -0.8203
  549MOL0     C72401  11.115   5.501   2.659  0.0798  0.4642  0.0431
  549MOL0     C72402  11.019   5.569   2.583  0.6816  0.4917  0.0954
  549MOL0     H72403  10.722   5.411   2.136  0.7057  0.3995 -1.2463
  549MOL0     H72404  10.480   5.433   2.028 -1.1314  1.6929 -1.7104
  549MOL0     H72405  10.194   5.771   2.052  2.5291 -0.6149 -0.6746
  549MOL0     H72406  10.297   5.760   2.201 -0.1047 -0.3935  0.3685
  549MOL0     H72407  10.111   5.670   2.260 -0.9028  0.2594 -1.2775
  549MOL0     H72408  10.225   5.532   2.237  0.4068  0.5245  0.5903
  549MOL0     H72409  10.117   5.489   2.011 -0.8186 -1.8223 -0.6462
  549MOL0     H72410   9.997   5.602   2.051 -1.4965 -1.5841  0.8141
  549MOL0     H72411  10.046   5.330   2.203 -0.7344 -1.0930 -1.6683
  549MOL0     H72412   9.954   5.459   2.274  1.5443 -0.5568  1.3671
  549MOL0     H72413   9.924   5.328   2.006  0.7369 -1.2839  1.6644
  549MOL0     H72414   9.816   5.452   2.072  1.6483  1.5673  0.1826
  549MOL0     H72415   9.722   5.245   2.097 -0.8506 -0.5531  0.5203
  549MOL0     H72416   9.779   5.271   2.258 -0.2363 -0.7092 -0.3277
  549MOL0     H72417   9.847   5.079   2.048 -0.5792 -1.8697  1.7028
  549MOL0     H72418   9.981   5.118   2.166  0.3640  1.9249  0.7680
  549MOL0     H72419   9.844   4.931   2.244 -1.0626 -0.5166  0.5181
  549MOL0     H72420   9.713   5.032   2.268 -0.4156  3.0557  1.2092
  549MOL0     H72421  10.106   5.021   2.342 -0.1190 -2.0458 -0.8322
  549MOL0     H72422  10.234   5.054   2.609  0.8381  0.8722 -0.3030
  549MOL0     H72423  10.154   5.160   2.718 -3.1800 -1.6692  0.1864
  549MOL0     H72424  10.310   5.310   2.615  0.7505  2.2552 -2.2989
  549MOL0     H72425  10.170   5.346   2.531 -2.2491 -1.1662  3.6754
  549MOL0     H72426  10.365   5.136   2.441 -1.6850 -1.2053  0.3587
  549MOL0     H72427  10.238   5.214   2.337  3.1950  2.3749 -2.4905
  549MOL0     H72428  10.373   5.439   2.376 -2.8409 -1.0341 -0.8188
  549MOL0     H72429  10.426   5.317   2.266 -1.1444  1.8496  0.1451
  549MOL0     H72430  10.750   5.306   2.580 -0.5313 -2.8078  1.7705
  549MOL0     H72431  10.943   5.158   2.548 -1.8815  0.6573  1.6541
  549MOL0     H72432  11.308   5.045   2.588 -1.3182  2.3795 -3.4973
  549MOL0     H72433  11.515   4.908   2.569 -0.3219 -0.0775 -0.0073
  549MOL0     H72434  11.609   4.724   2.230 -2.5879  3.4083  1.9371
  549MOL0     H72435  11.557   4.566   2.300  0.0556  0.0389  0.0383
  549MOL0     H72436  11.771   4.577   2.433 -3.4042 -1.5558 -0.3049
  549MOL0     H72437  11.833   4.705   2.337  2.0884 -2.9451 -1.2157
  549MOL0     H72438  11.807   4.582   2.130 -0.3129 -1.0182  0.4978
  549MOL0     H72439  11.728   4.450   2.209 -0.0778 -0.1071 -0.6885
  549MOL0     H72440  12.013   4.530   2.213  0.5303  0.7836  0.9662
  549MOL0     H72441  11.963   4.435   2.353  1.5478 -0.2908 -0.3284
  549MOL0     H72442  11.869   4.257   2.205 -1.2519  2.0994 -0.4644
  549MOL0     H72443  12.043   4.275   2.185 -0.8508 -1.3688  0.8250
  549MOL0     H72444  11.987   4.403   1.977  0.5443 -1.5100 -1.6608
  549MOL0     H72445  11.820   4.375   2.013  0.0907  0.1898 -3.3196
  549MOL0     H72446  12.048   4.160   1.977 -0.4152 -0.8451 -0.8573
  549MOL0     H72447  11.878   4.117   2.005 -0.7712  1.7045  2.2869
  549MOL0     H72448  11.929   4.108   1.761 -1.3883 -0.7112 -0.0366
  549MOL0     H72449  11.946   4.287   1.760 -1.3886 -0.3444 -0.0101
  549MOL0     H72450  11.342   4.662   2.267 -4.5497 -0.6782  0.3662
  549MOL0     H72451  11.156   4.775   2.273  0.8887  2.5406 -2.1278
  549MOL0     H72452  10.778   5.038   2.174 -0.4845  1.5429 -1.0518
  549MOL0     H72453  10.556   5.153   2.237  0.4784  0.7380 -1.6549
  549MOL0     H72454  10.512   5.845   2.128 -0.2999  0.2491  0.7936
  549MOL0     H72455  10.713   5.833   2.216  0.9198 -0.5139 -1.1901
  549MOL0     H72456  11.015   5.403   2.288  1.5720  2.3217 -1.7674
  549MOL0     H72457  11.204   5.279   2.412  1.8798  1.8592 -2.9052
  549MOL0     H72458  11.339   5.475   2.771 -3.0100  0.1954 -0.3167
  549MOL0     H72459  11.446   5.452   2.626  0.1494 -4.1394 -1.2586
  549MOL0     H72460  11.558   5.381   2.830  1.4013 -0.0403 -1.1692
  549MOL0     H72461  11.423   5.277   2.865 -1.2332  0.8963 -0.5856
  549MOL0     H72462  11.631   5.264   2.645 -0.4647  1.8355 -0.5894
  549MOL0     H72463  11.517   5.132   2.686  1.8117 -1.6210 -0.7330
  549MOL0     H72464  11.726   5.244   2.885 -0.2128 -1.1645  1.4252
  549MOL0     H72465  11.633   5.103   2.895 -1.1310  0.8177 -0.7163
  549MOL0     H72466  11.972   5.000   2.653  2.2013  1.4696 -0.2104
  549MOL0     H72467  11.152   5.523   2.759 -0.1394 -1.8591  0.7088
  549MOL0     H72468  10.967   5.639   2.647 -0.0701 -1.1662  1.3417
  550MOL0     O72469   2.281   1.777  10.106 -0.4906  0.3058  0.4261
  550MOL0     C72470   2.281   1.706  10.199  0.5976 -0.0961  0.4674
  550MOL0     O72471   2.360   1.718  10.312 -0.6193 -0.4402 -0.0202
  550MOL0     C72472   2.453   1.818  10.321 -0.7408  0.3322  0.2673
  550MOL0     C72473   2.577   1.808  10.262 -2.1498 -0.3532  0.3014
  550MOL0     C72474   2.679   1.905  10.277 -0.0845  0.9166  0.2043
  550MOL0     C72475   2.644   2.018  10.349 -0.1566 -0.1448 -0.1319
  550MOL0     O72476   2.726   2.127  10.356 -0.3493  0.1421 -0.5776
  550MOL0     C72477   2.861   2.129  10.296  0.4872  0.4160 -0.4161
  550MOL0     C72478   2.938   2.257  10.323  0.5947  0.0316 -0.0054
  550MOL0     C72479   2.891   2.365  10.232 -0.4040  1.0447  0.1205
  550MOL0     C72480   2.914   2.337  10.084 -0.4051  0.2434 -0.8268
  550MOL0     C72481   2.872   2.451   9.991 -0.2775 -0.2978 -0.7307
  550MOL0     C72482   2.727   2.447   9.943  0.5243 -0.6819  0.4400
  550MOL0     C72483   2.696   2.582   9.872 -0.5031 -0.0853 -0.5050
  550MOL0     C72484   2.664   2.714   9.937 -0.5159 -0.2681  0.1434
  550MOL0     N72485   2.554   2.707  10.037 -0.1432 -0.4459  0.3290
  550MOL0     C72486   2.564   2.674  10.168 -0.3969 -0.3033 -0.3325
  550MOL0     C72487   2.438   2.643  10.201  0.4140 -1.0794 -1.2950
  550MOL0     C72488   2.378   2.594  10.338  0.2217  0.7329  0.5363
  550MOL0     C72489   2.452   2.471  10.385 -0.4875  1.2904  0.3316
  550MOL0     C72490   2.539   2.468  10.506  0.0708  0.0202  0.6596
  550MOL0     C72491   2.468   2.520  10.637  0.5563 -0.1680  0.5392
  550MOL0     O72492   2.536   2.481  10.753 -0.2500  0.3539 -0.5786
  550MOL0     C72493   2.644   2.553  10.804  0.1858  0.6004  0.1043
  550MOL0     C72494   2.687   2.510  10.934 -0.0485 -0.0326 -0.6235
  550MOL0     C72495   2.797   2.566  10.999  0.3118  0.4097 -0.0282
  550MOL0     C72496   2.875   2.669  10.933  0.4027 -0.1005 -0.3978
  550MOL0     C72497   2.974   2.753  11.009  0.1731  0.2871  0.2070
  550MOL0     O72498   3.013   2.695  11.130  0.9434 -0.9801  1.1789
  550MOL0     C72499   3.086   2.764  11.223 -0.1515 -0.1127  1.0006
  550MOL0     C72500   3.071   2.902  11.256 -0.7509 -0.2638  0.0754
  550MOL0     C72501   3.160   2.973  11.347  0.5857 -0.0578  1.0778
  550MOL0     C72502   3.264   2.912  11.412  0.0989  0.5680  1.1660
  550MOL0     O72503   3.347   2.995  11.486  0.0929  0.4403  0.0919
  550MOL0     C72504   3.480   2.981  11.439  0.2636 -0.0738  0.8337
  550MOL0     C72505   3.560   3.108  11.417 -0.0061 -0.1717 -0.2462
  550MOL0     C72506   3.706   3.097  11.457 -0.1444 -0.0199  0.4831
  550MOL0     C72507   3.742   3.038  11.591 -0.2803  0.3881  0.4173
  550MOL0     C72508   3.894   3.060  11.624 -0.4870  0.7513  0.0725
  550MOL0     C72509   3.989   2.973  11.553 -0.3307  0.0118 -0.2512
  550MOL0     C72510   4.118   2.958  11.624  0.1511 -0.9606 -0.1514
  550MOL0     C72511   4.196   2.862  11.546 -1.1810  0.1927  1.2586
  550MOL0    Cl72512   4.367   2.877  11.620 -0.0497  0.2560 -0.1817
  550MOL0     C72513   3.272   2.776  11.385 -0.3725  0.7342  0.2062
  550MOL0     C72514   3.190   2.699  11.292  0.0354 -0.5720  0.3660
  550MOL0     O72515   3.011   2.861  10.962 -0.2365  0.2787 -0.1065
  550MOL0     C72516   2.836   2.703  10.800 -0.5913 -1.0173 -1.1251
  550MOL0     C72517   2.721   2.654  10.742  0.5827  0.9082 -1.0085
  550MOL0     N72518   2.353   2.667  10.094  0.6975 -0.7517 -0.7144
  550MOL0     N72519   2.425   2.712   9.997  0.2119  0.0017 -1.0127
  550MOL0     C72520   2.527   2.033  10.419  0.2191 -0.4100 -0.5234
  550MOL0     C72521   2.433   1.933  10.401 -0.1976  0.6204  0.0220
  550MOL0     C72522   2.181   1.596  10.204 -0.0118 -0.1658  0.1523
  550MOL0     C72523   2.173   1.507  10.318 -0.6481 -0.6279  0.1487
  550MOL0     C72524   2.062   1.414  10.313  0.0202  0.8498  0.3965
  550MOL0     C72525   1.977   1.407  10.208 -0.0637 -0.8580 -0.3846
  550MOL0     O72526   1.866   1.317  10.211  0.6971 -0.8879  0.4254
  550MOL0     C72527   1.774   1.319  10.104 -0.4269 -0.3307  0.2659
  550MOL0     C72528   1.687   1.193  10.118  0.1002 -0.4113 -0.5064
  550MOL0     C72529   1.615   1.194  10.251 -0.0561 -0.5404 -0.4162
  550MOL0     C72530   1.508   1.084  10.264 -0.0578  0.7053  0.0175
  550MOL0     C72531   1.557   0.953  10.233 -0.8189  0.5056  0.0521
  550MOL0     C72532   1.588   0.838  10.201  0.7121  0.0823 -0.4227
  550MOL0     C72533   1.994   1.488  10.100 -0.5778 -0.8797  0.7790
  550MOL0     C72534   2.099   1.575  10.092  0.5016  0.4421 -0.4276
  550MOL0     H72535   2.595   1.727  10.192 -2.0992 -0.1357  0.0601
  550MOL0     H72536   2.773   1.889  10.226  0.7674 -0.4718  2.1171
  550MOL0     H72537   2.860   2.091  10.193 -2.7240 -1.3849  0.1462
  550MOL0     H72538   2.916   2.059  10.360 -2.1324  0.0570  1.5550
  550MOL0     H72539   3.046   2.240  10.313  0.5091 -1.7144  1.4967
  550MOL0     H72540   2.925   2.293  10.425 -0.1937 -0.5151  0.1031
  550MOL0     H72541   2.951   2.448  10.269 -0.8125  0.9242  1.0795
  550MOL0     H72542   2.785   2.385  10.251 -0.8408 -1.4771  0.6743
  550MOL0     H72543   3.019   2.313  10.070  0.5545  1.6580  2.8313
  550MOL0     H72544   2.863   2.243  10.059  1.9192 -2.0777  2.3715
  550MOL0     H72545   2.931   2.441   9.899 -0.3161 -0.7594 -0.7075
  550MOL0     H72546   2.886   2.538  10.055  3.2699 -1.6824  0.6964
  550MOL0     H72547   2.672   2.430  10.036 -0.4063 -1.2093 -0.1907
  550MOL0     H72548   2.721   2.368   9.867  1.0395 -1.4469  1.1696
  550MOL0     H72549   2.779   2.605   9.804 -0.3083  0.1548 -0.1830
  550MOL0     H72550   2.602   2.563   9.818 -1.7625 -1.5737  2.0236
  550MOL0     H72551   2.644   2.784   9.856  1.6663  0.9074  0.5445
  550MOL0     H72552   2.750   2.755   9.991 -0.3414 -1.5604  0.9131
  550MOL0     H72553   2.649   2.662  10.234 -1.9810 -0.6875  1.7291
  550MOL0     H72554   2.270   2.585  10.329  0.3328  0.7792 -1.1443
  550MOL0     H72555   2.392   2.674  10.412  0.3262 -1.1808  2.7026
  550MOL0     H72556   2.527   2.444  10.310 -0.1547  0.8813  0.8037
  550MOL0     H72557   2.380   2.390  10.401  2.3714 -1.0558  2.5486
  550MOL0     H72558   2.575   2.365  10.516  1.0479 -0.1316 -2.8869
  550MOL0     H72559   2.633   2.522  10.491  1.1796 -0.9105  3.5715
  550MOL0     H72560   2.376   2.461  10.636  0.1401  0.3916 -1.9779
  550MOL0     H72561   2.447   2.627  10.638  0.8093 -0.1181  1.6261
  550MOL0     H72562   2.617   2.449  10.991 -2.2715  1.4037 -1.6736
  550MOL0     H72563   2.818   2.526  11.098 -1.3044  2.3667  1.1786
  550MOL0     H72564   2.992   2.964  11.215  0.6403  0.5401 -1.4972
  550MOL0     H72565   3.155   3.080  11.364  1.6419  0.4306 -1.3203
  550MOL0     H72566   3.478   2.933  11.341  0.4842 -0.1611  0.8706
  550MOL0     H72567   3.534   2.912  11.504  0.5298  0.0755  0.7728
  550MOL0     H72568   3.519   3.190  11.477  1.5866  0.0030  0.6461
  550MOL0     H72569   3.555   3.131  11.310  1.9083 -1.0387 -0.5699
  550MOL0     H72570   3.749   3.198  11.453  0.0063 -0.0347  1.4413
  550MOL0     H72571   3.760   3.037  11.383 -2.5550 -1.5450 -0.1641
  550MOL0     H72572   3.680   3.076  11.673 -2.3941 -1.5229 -0.1718
  550MOL0     H72573   3.710   2.934  11.588 -1.9941  0.8894 -0.1641
  550MOL0     H72574   3.913   3.042  11.730  4.5142 -1.1611 -0.8379
  550MOL0     H72575   3.918   3.164  11.599 -2.5130  1.0072 -1.0231
  550MOL0     H72576   3.987   3.014  11.451 -3.1217  0.5030 -0.0694
  550MOL0     H72577   3.937   2.878  11.540 -2.1057  0.8044  0.7322
  550MOL0     H72578   4.155   3.058  11.647 -3.2478  0.4825 -0.3505
  550MOL0     H72579   4.100   2.915  11.723 -3.3948 -0.5193 -0.4752
  550MOL0     H72580   4.211   2.900  11.444  0.7629  1.3004  1.9043
  550MOL0     H72581   4.162   2.760  11.528 -0.9305  0.3219 -0.0610
  550MOL0     H72582   3.352   2.712  11.420 -1.2144 -0.7691 -0.4972
  550MOL0     H72583   3.207   2.593  11.279 -1.7216 -0.9963  1.2517
  550MOL0     H72584   2.889   2.782  10.749  0.1916  0.2817  1.5664
  550MOL0     H72585   2.699   2.695  10.644 -2.2211  0.1082 -0.7998
  550MOL0     H72586   2.503   2.120  10.480 -1.6069 -0.9230 -0.4477
  550MOL0     H72587   2.335   1.939  10.447 -0.2405 -0.9604  0.1814
  550MOL0     H72588   2.242   1.522  10.400 -1.8914  1.7742  0.8664
  550MOL0     H72589   2.026   1.351  10.394 -1.5406 -0.1875 -1.0418
  550MOL0     H72590   1.821   1.306  10.006 -0.2157  0.4896  0.2551
  550MOL0     H72591   1.704   1.402  10.091  0.6685  0.7195  0.9364
  550MOL0     H72592   1.626   1.183  10.028  1.2812 -3.4664 -1.0945
  550MOL0     H72593   1.760   1.111  10.124 -0.0796 -0.6511 -1.4573
  550MOL0     H72594   1.570   1.293  10.257  0.2092 -0.4094 -0.6094
  550MOL0     H72595   1.694   1.195  10.327 -0.0658 -1.7736 -0.3688
  550MOL0     H72596   1.465   1.075  10.364 -3.0359  0.4613 -1.2016
  550MOL0     H72597   1.423   1.096  10.196 -0.0598 -3.2926 -0.8945
  550MOL0     H72598   1.633   0.747  10.168 -3.8664 -2.3380 -0.8940
  550MOL0     H72599   1.926   1.490  10.015  2.2015 -2.6645 -1.6994
  550MOL0     H72600   2.123   1.637  10.006 -1.7427  1.0935 -0.6407
  551MOL0     O72601  11.003   0.879   2.428  0.1993  0.1732  0.3229
  551MOL0     C72602  11.113   0.868   2.368  0.7361  0.4673 -0.3616
  551MOL0     O72603  11.132   0.812   2.251  0.8009 -0.6507  0.5181
  551MOL0     C72604  11.046   0.743   2.166 -0.5971  0.2047  0.2328
  551MOL0     C72605  11.111   0.658   2.065 -0.3041  0.0614  0.4061
  551MOL0     C72606  11.029   0.584   1.977  0.1152 -0.1895  0.0938
  551MOL0     C72607  10.895   0.600   1.974 -0.2970 -0.8052  0.2151
  551MOL0     O72608  10.825   0.536   1.873 -0.4478  0.0027 -0.0918
  551MOL0     C72609  10.706   0.469   1.913  0.2499  0.7016 -0.4084
  551MOL0     C72610  10.579   0.511   1.831  0.2218  0.1237  0.9124
  551MOL0     C72611  10.452   0.440   1.876 -0.0739 -0.5831 -0.1461
  551MOL0     C72612  10.330   0.534   1.896 -1.3420 -0.1541  1.4562
  551MOL0     C72613  10.211   0.462   1.953  0.0086  0.0047 -0.4233
  551MOL0     C72614  10.160   0.358   1.854 -0.0710  0.0440  0.5597
  551MOL0     C72615  10.028   0.306   1.906 -0.0570  0.6110 -0.2771
  551MOL0     C72616   9.956   0.215   1.803  1.1565 -0.2471 -0.5251
  551MOL0     N72617   9.820   0.181   1.846 -0.0723 -0.2449  0.5670
  551MOL0     C72618   9.708   0.273   1.859 -0.4033 -0.2134  0.2478
  551MOL0     C72619   9.615   0.183   1.896  0.2560 -0.0639 -0.5345
  551MOL0     C72620   9.482   0.221   1.942  0.6963 -0.1857  0.1321
  551MOL0     C72621   9.391   0.192   1.829  1.2416 -0.7003  0.4877
  551MOL0     C72622   9.240   0.204   1.874  0.7904  0.0810  0.5863
  551MOL0     C72623   9.134   0.155   1.770  0.2781  0.0604  0.2428
  551MOL0     O72624   9.004   0.161   1.832  0.2694 -0.2754  0.4261
  551MOL0     C72625   8.882   0.168   1.760 -0.2248  0.3885  0.1646
  551MOL0     C72626   8.873   0.145   1.623  0.1443  0.6624 -0.2152
  551MOL0     C72627   8.746   0.140   1.553  0.4510 -1.1867  0.0273
  551MOL0     C72628   8.629   0.161   1.629  0.4392  0.3173  0.0279
  551MOL0     C72629   8.499   0.167   1.564  0.3110 -0.5793 -1.6059
  551MOL0     O72630   8.384   0.184   1.652  0.1485  0.0054  0.1771
  551MOL0     C72631   8.260   0.232   1.603 -0.2130  0.2252  0.4784
  551MOL0     C72632   8.229   0.374   1.606 -0.3651 -0.8995 -0.4186
  551MOL0     C72633   8.104   0.416   1.565  0.4249  0.8482 -0.1192
  551MOL0     C72634   8.023   0.321   1.495 -1.3020  0.0991 -0.2291
  551MOL0     O72635   7.902   0.359   1.451 -0.5605  0.1842 -0.8884
  551MOL0     C72636   7.828   0.461   1.524 -0.4191  1.3192 -0.0523
  551MOL0     C72637   7.688   0.477   1.442 -0.4914  0.5612  0.3117
  551MOL0     C72638   7.589   0.576   1.516 -1.1493 -1.1982  0.5461
  551MOL0     C72639   7.548   0.520   1.648 -1.0016 -0.9048 -0.4059
  551MOL0     C72640   7.401   0.580   1.677 -0.4278 -0.2165 -0.0983
  551MOL0     C72641   7.401   0.733   1.720  0.4003  0.0135 -0.2427
  551MOL0     C72642   7.262   0.772   1.754  0.1745 -0.2691 -0.0256
  551MOL0     C72643   7.252   0.913   1.785  0.2518 -0.4992  0.2101
  551MOL0    Cl72644   7.221   0.939   1.966  0.2380 -0.2402  0.0794
  551MOL0     C72645   8.066   0.198   1.473 -0.0724  0.3704  0.2322
  551MOL0     C72646   8.183   0.147   1.525 -0.6514 -0.8945  0.2920
  551MOL0     O72647   8.486   0.158   1.442 -0.2858  0.3020  0.2080
  551MOL0     C72648   8.640   0.179   1.766  0.6714  0.2089 -0.3249
  551MOL0     C72649   8.764   0.178   1.832  0.1570  0.0370  0.0278
  551MOL0     N72650   9.664   0.052   1.911  1.0982 -0.0310 -0.3873
  551MOL0     N72651   9.783   0.054   1.881 -0.2915 -0.3094 -0.2230
  551MOL0     C72652  10.837   0.699   2.061 -0.0695 -0.0082  0.1642
  551MOL0     C72653  10.912   0.765   2.163  0.6824 -0.3415  0.6050
  551MOL0     C72654  11.235   0.919   2.428  0.3986 -0.8947 -0.3267
  551MOL0     C72655  11.223   0.947   2.570  0.3547 -0.2771 -0.2582
  551MOL0     C72656  11.344   0.984   2.637  0.2830 -0.0711 -0.8741
  551MOL0     C72657  11.461   1.013   2.574  0.0100  0.1542  0.1845
  551MOL0     O72658  11.574   1.059   2.645 -0.3622 -0.2812  0.7180
  551MOL0     C72659  11.549   1.126   2.771  0.2193 -0.8420  0.1600
  551MOL0     C72660  11.678   1.171   2.846  0.3862 -0.0749  0.2324
  551MOL0     C72661  11.797   1.070   2.834 -0.0897 -0.2692 -0.4064
  551MOL0     C72662  11.763   0.945   2.903  0.8553 -0.2204 -1.0548
  551MOL0     C72663  11.877   0.857   2.950  0.0527 -0.5817  0.5586
  551MOL0     C72664  11.967   0.789   2.989 -0.1938  0.0577 -0.5668
  551MOL0     C72665  11.473   0.995   2.439 -0.4129  0.3420  0.6586
  551MOL0     C72666  11.358   0.959   2.365 -0.0575 -0.0724 -0.3407
  551MOL0     H72667  11.217   0.654   2.041 -0.4168 -1.8522  0.0277
  551MOL0     H72668  11.072   0.521   1.900  0.6809  1.4040 -0.9662
  551MOL0     H72669  10.689   0.487   2.020 -0.5086  1.8070 -0.6955
  551MOL0     H72670  10.738   0.365   1.902 -1.3501  0.1327 -0.0766
  551MOL0     H72671  10.604   0.494   1.726 -0.3465 -0.9534  0.9407
  551MOL0     H72672  10.566   0.617   1.856  1.7392  0.1710  1.6103
  551MOL0     H72673  10.458   0.397   1.976 -1.8985 -0.4870  0.0387
  551MOL0     H72674  10.425   0.362   1.805 -1.2640 -2.0641  1.8365
  551MOL0     H72675  10.360   0.617   1.961  2.5227  0.9686 -1.3673
  551MOL0     H72676  10.302   0.575   1.799  0.4855  0.0026  0.9549
  551MOL0     H72677  10.138   0.542   1.966  0.7034  1.2098 -3.3158
  551MOL0     H72678  10.226   0.426   2.056 -2.2591  2.0776  0.7348
  551MOL0     H72679  10.238   0.282   1.845 -0.1950 -0.2080  1.5251
  551MOL0     H72680  10.132   0.399   1.756  1.3121  0.9900  0.5434
  551MOL0     H72681  10.048   0.253   2.000 -0.8979 -1.5061 -1.2376
  551MOL0     H72682   9.960   0.389   1.924 -1.0759  0.1279 -1.7637
  551MOL0     H72683  10.012   0.121   1.795 -0.7005 -1.6146  1.3257
  551MOL0     H72684   9.956   0.255   1.701 -2.6867  2.1388  0.2098
  551MOL0     H72685   9.707   0.380   1.842 -1.8460 -0.4112 -1.1536
  551MOL0     H72686   9.482   0.329   1.962 -1.2407 -0.2278  0.5715
  551MOL0     H72687   9.447   0.167   2.031 -0.7460 -2.4063 -1.6517
  551MOL0     H72688   9.411   0.087   1.807  3.8211 -0.0456 -0.6324
  551MOL0     H72689   9.392   0.266   1.748 -4.7312  0.2286  0.7673
  551MOL0     H72690   9.231   0.151   1.969  0.8707 -1.4122 -0.2181
  551MOL0     H72691   9.217   0.309   1.892 -4.1528 -0.5256 -0.8850
  551MOL0     H72692   9.151   0.052   1.736 -0.3288  0.7797 -2.4644
  551MOL0     H72693   9.141   0.218   1.681  2.0101 -0.1208  0.2141
  551MOL0     H72694   8.965   0.134   1.568 -0.1042 -4.9124 -0.0543
  551MOL0     H72695   8.728   0.135   1.446  0.7074  2.2816 -0.3124
  551MOL0     H72696   8.302   0.446   1.642 -0.8274  0.0447 -1.3182
  551MOL0     H72697   8.068   0.518   1.580  0.6717  1.3845 -2.6576
  551MOL0     H72698   7.874   0.560   1.524  1.9819  0.2794  0.5122
  551MOL0     H72699   7.830   0.423   1.626  1.0818  3.0157  0.6083
  551MOL0     H72700   7.644   0.377   1.432  2.4940 -0.6553 -2.5783
  551MOL0     H72701   7.713   0.516   1.343 -0.0507 -2.4668 -0.8647
  551MOL0     H72702   7.505   0.591   1.448 -0.9084  0.6371  0.5913
  551MOL0     H72703   7.629   0.678   1.525 -1.3388 -0.9833 -0.7376
  551MOL0     H72704   7.522   0.414   1.655 -1.7355 -0.6242  2.7850
  551MOL0     H72705   7.625   0.530   1.725  1.7393 -2.4468 -2.7507
  551MOL0     H72706   7.353   0.530   1.762  0.1814  1.3518  1.2166
  551MOL0     H72707   7.342   0.561   1.587  1.3714  0.6009 -1.5248
  551MOL0     H72708   7.448   0.787   1.637 -0.8390 -1.8100 -2.2535
  551MOL0     H72709   7.461   0.751   1.810  0.4183  1.2441 -0.4721
  551MOL0     H72710   7.226   0.758   1.651  2.0432  1.9525 -1.0758
  551MOL0     H72711   7.215   0.705   1.826 -2.9353  0.1425 -1.5263
  551MOL0     H72712   7.177   0.966   1.725 -0.5017 -0.0531  1.5024
  551MOL0     H72713   7.335   0.971   1.743 -0.3267  1.4946  1.6601
  551MOL0     H72714   8.014   0.138   1.399  0.8070  1.5360 -1.4168
  551MOL0     H72715   8.210   0.042   1.520  2.7385 -0.0818 -1.2893
  551MOL0     H72716   8.553   0.207   1.825 -1.2552 -0.6857 -2.5680
  551MOL0     H72717   8.769   0.193   1.939 -0.3480  2.5944 -0.2456
  551MOL0     H72718  10.732   0.723   2.047 -0.5343  1.9670  4.8813
  551MOL0     H72719  10.869   0.824   2.243 -2.2094 -1.5878  0.0984
  551MOL0     H72720  11.127   0.926   2.615  0.1042  0.5608 -0.3848
  551MOL0     H72721  11.340   0.991   2.745 -1.7240 -2.2741 -0.7147
  551MOL0     H72722  11.520   1.045   2.839 -2.1759  0.0949  0.3564
  551MOL0     H72723  11.462   1.192   2.772  1.1546  0.4487 -0.6763
  551MOL0     H72724  11.696   1.276   2.822 -0.8738 -0.1264 -1.0782
  551MOL0     H72725  11.661   1.183   2.953 -2.5008  0.2165 -0.1760
  551MOL0     H72726  11.880   1.115   2.888 -0.9187 -0.7929  1.3951
  551MOL0     H72727  11.837   1.052   2.734 -1.8271  0.0130 -1.1944
  551MOL0     H72728  11.711   0.973   2.994 -2.8541 -3.3055 -1.9567
  551MOL0     H72729  11.688   0.880   2.856  0.5739  0.0372 -0.9631
  551MOL0     H72730  12.053   0.736   3.022 -0.1033  1.0866  0.9407
  551MOL0     H72731  11.570   1.003   2.390  0.3501 -3.0961  1.3358
  551MOL0     H72732  11.375   0.935   2.260  1.0718  2.5807 -0.8531
  552MOL0     O72733   7.887   3.668   5.638 -0.1453 -0.1097  0.6201
  552MOL0     C72734   7.867   3.646   5.517  0.7565  0.0286 -0.2085
  552MOL0     O72735   7.748   3.605   5.465  0.5985  0.1027 -0.8355
  552MOL0     C72736   7.656   3.558   5.564  0.6521  0.4939 -1.0384
  552MOL0     C72737   7.689   3.437   5.627 -1.2194  0.0953  0.6470
  552MOL0     C72738   7.607   3.394   5.729  0.1699 -0.4428 -0.7492
  552MOL0     C72739   7.498   3.470   5.776 -0.8368  0.3520 -0.0140
  552MOL0     O72740   7.407   3.444   5.890 -0.6230 -0.1406 -0.7141
  552MOL0     C72741   7.454   3.360   5.995  0.1140  0.3317 -0.0857
  552MOL0     C72742   7.414   3.218   5.958  0.3250  0.2687  0.3567
  552MOL0     C72743   7.420   3.118   6.066 -0.2595 -0.3248  0.5451
  552MOL0     C72744   7.437   2.980   6.014  0.7342  0.4024  0.1652
  552MOL0     C72745   7.443   2.886   6.144  0.7336 -1.1654  0.2919
  552MOL0     C72746   7.496   2.743   6.113  0.2006 -0.0864  0.6479
  552MOL0     C72747   7.508   2.659   6.242 -0.2824 -0.9258 -1.2963
  552MOL0     C72748   7.514   2.518   6.197 -0.7150 -0.9049 -0.1412
  552MOL0     N72749   7.546   2.421   6.302  0.6315  0.9337  0.7042
  552MOL0     C72750   7.669   2.369   6.324  0.5217 -1.3118  0.1188
  552MOL0     C72751   7.642   2.268   6.414  0.5669 -0.3498 -0.0532
  552MOL0     C72752   7.740   2.180   6.468 -0.0420  0.4857  0.1887
  552MOL0     C72753   7.823   2.226   6.593  0.4439 -1.0793 -0.1462
  552MOL0     C72754   7.775   2.167   6.725 -0.0348 -0.3926 -0.1207
  552MOL0     C72755   7.647   2.231   6.771 -0.4353  0.5926 -0.6435
  552MOL0     O72756   7.614   2.179   6.908 -0.3835 -0.6463  0.2201
  552MOL0     C72757   7.485   2.209   6.957  0.7462 -0.2339 -0.6365
  552MOL0     C72758   7.456   2.163   7.093 -0.7359 -0.7064  0.1261
  552MOL0     C72759   7.331   2.192   7.145 -0.2142 -0.3943 -0.3292
  552MOL0     C72760   7.241   2.279   7.077 -0.7645 -0.2022 -0.4269
  552MOL0     C72761   7.108   2.314   7.124 -0.6069  0.2863 -1.0520
  552MOL0     O72762   7.054   2.234   7.219 -0.1305  0.2506  0.3455
  552MOL0     C72763   6.923   2.237   7.269 -0.3035  0.4921  0.7316
  552MOL0     C72764   6.920   2.202   7.411 -0.5626 -0.0615  0.1908
  552MOL0     C72765   6.803   2.222   7.478 -0.4608 -0.9449  0.3136
  552MOL0     C72766   6.687   2.275   7.416 -1.0171  1.1082 -1.2724
  552MOL0     O72767   6.576   2.271   7.501  0.1401 -1.3056 -0.8802
  552MOL0     C72768   6.442   2.270   7.447  1.0202  0.2433  0.1710
  552MOL0     C72769   6.379   2.412   7.456 -0.7165  1.4251  0.4814
  552MOL0     C72770   6.255   2.414   7.370 -0.2908  0.0114  0.9054
  552MOL0     C72771   6.284   2.394   7.218 -0.8747 -1.3750 -0.1390
  552MOL0     C72772   6.159   2.444   7.150  0.6332  0.0830  0.4884
  552MOL0     C72773   6.148   2.367   7.008 -0.8897 -0.0578  1.0849
  552MOL0     C72774   6.276   2.397   6.915  0.3370 -0.2139 -0.2712
  552MOL0     C72775   6.282   2.337   6.777  0.3988  0.1132  0.5450
  552MOL0    Cl72776   6.192   2.456   6.676  0.3919  0.5047  0.0178
  552MOL0     C72777   6.697   2.308   7.279 -0.5361  0.1466 -0.1513
  552MOL0     C72778   6.812   2.284   7.206 -0.1162  0.3331  0.3348
  552MOL0     O72779   7.052   2.415   7.085  0.1932  0.4304 -0.9299
  552MOL0     C72780   7.273   2.335   6.942 -1.0522 -0.9361  1.0509
  552MOL0     C72781   7.392   2.287   6.889  0.2514  0.0128 -0.6311
  552MOL0     N72782   7.509   2.275   6.458  0.2156 -0.0803  0.0440
  552MOL0     N72783   7.458   2.370   6.390  0.3567 -0.6185  1.3030
  552MOL0     C72784   7.474   3.587   5.709  0.7060 -0.3464  0.8940
  552MOL0     C72785   7.546   3.639   5.603  0.5988  0.8195  0.0138
  552MOL0     C72786   7.977   3.663   5.420 -1.0100 -0.7469 -0.4217
  552MOL0     C72787   7.957   3.654   5.286  0.8506 -1.3032 -0.1978
  552MOL0     C72788   8.061   3.692   5.196  0.3466  0.8103 -0.7619
  552MOL0     C72789   8.193   3.731   5.234  0.4470  0.7018 -0.2081
  552MOL0     O72790   8.302   3.756   5.160 -0.0297 -0.2695 -0.5319
  552MOL0     C72791   8.322   3.694   5.037 -0.4119  0.0212 -0.1533
  552MOL0     C72792   8.394   3.569   5.070  0.3413  0.3291 -0.2440
  552MOL0     C72793   8.542   3.605   5.115  0.1898  0.9181 -0.6246
  552MOL0     C72794   8.635   3.486   5.092 -0.2306  0.7465  0.3309
  552MOL0     C72795   8.713   3.513   4.970 -0.1185 -0.5598 -0.3649
  552MOL0     C72796   8.755   3.536   4.855  0.1769  0.1106 -0.0750
  552MOL0     C72797   8.213   3.715   5.373  0.2313 -0.2007 -0.0317
  552MOL0     C72798   8.112   3.687   5.469  0.0210  0.2828  0.2595
  552MOL0     H72799   7.774   3.385   5.584  0.0238  2.6646 -0.1720
  552MOL0     H72800   7.639   3.301   5.774  1.6460 -0.5716 -2.0201
  552MOL0     H72801   7.407   3.384   6.091 -0.1562  0.9121 -0.3602
  552MOL0     H72802   7.562   3.354   6.010  0.0366 -0.2181  0.2801
  552MOL0     H72803   7.485   3.183   5.882  1.4746  2.3178  0.4424
  552MOL0     H72804   7.310   3.215   5.924  1.5189  0.9349 -3.8954
  552MOL0     H72805   7.330   3.115   6.127 -1.3026 -1.5427 -0.9871
  552MOL0     H72806   7.502   3.147   6.132 -1.6521  0.0731  2.1538
  552MOL0     H72807   7.359   2.947   5.944  1.2657 -2.5742  0.8495
  552MOL0     H72808   7.534   2.984   5.963  0.4410  0.4013 -0.4015
  552MOL0     H72809   7.342   2.882   6.185 -0.0697 -0.7787 -1.5672
  552MOL0     H72810   7.501   2.938   6.221 -0.4545  1.5795 -0.5632
  552MOL0     H72811   7.597   2.753   6.072 -0.0894 -1.3387 -0.4158
  552MOL0     H72812   7.425   2.702   6.041  0.2059  0.8105  0.1108
  552MOL0     H72813   7.590   2.697   6.303 -3.8906  1.0047  2.9939
  552MOL0     H72814   7.419   2.661   6.306  0.8614 -2.9778  0.4573
  552MOL0     H72815   7.601   2.508   6.132  0.8440  1.4867  1.4326
  552MOL0     H72816   7.422   2.487   6.147 -1.7953  0.6300  0.8195
  552MOL0     H72817   7.768   2.384   6.282  0.6005 -1.4593  0.2475
  552MOL0     H72818   7.811   2.155   6.389  0.2937 -1.6577  1.0881
  552MOL0     H72819   7.683   2.088   6.485  0.5568  0.1208  0.2772
  552MOL0     H72820   7.846   2.333   6.590  0.7365 -1.1397 -0.0757
  552MOL0     H72821   7.921   2.178   6.587  2.1236  2.1770 -1.6410
  552MOL0     H72822   7.758   2.061   6.701  0.0022  0.0994 -2.5178
  552MOL0     H72823   7.842   2.177   6.811  1.9721 -0.8837 -1.5672
  552MOL0     H72824   7.573   2.177   6.712  2.3718 -1.6342 -2.3764
  552MOL0     H72825   7.653   2.340   6.771  1.2766  0.5299  0.2867
  552MOL0     H72826   7.532   2.109   7.149 -1.3126 -0.3760  1.2635
  552MOL0     H72827   7.302   2.141   7.236 -0.7478  0.4920  0.0108
  552MOL0     H72828   7.015   2.167   7.449  1.9456  2.5759 -2.9949
  552MOL0     H72829   6.798   2.189   7.582  2.0868  0.4171  0.9598
  552MOL0     H72830   6.383   2.199   7.505  1.7091  0.8568  1.6648
  552MOL0     H72831   6.442   2.234   7.344  1.4034 -0.5118  0.4244
  552MOL0     H72832   6.451   2.483   7.414  2.5269 -3.3417 -3.2463
  552MOL0     H72833   6.356   2.440   7.559 -0.5270 -0.8071  1.1946
  552MOL0     H72834   6.211   2.512   7.390  1.7659  1.0211  0.8048
  552MOL0     H72835   6.193   2.332   7.407  3.6779 -2.5843  2.4936
  552MOL0     H72836   6.378   2.442   7.189 -1.1054 -0.3334  0.7487
  552MOL0     H72837   6.301   2.290   7.192  0.8109 -1.4197  0.9609
  552MOL0     H72838   6.149   2.552   7.148 -1.4764 -0.0679 -1.7946
  552MOL0     H72839   6.080   2.413   7.219  2.0007 -1.7386  1.3275
  552MOL0     H72840   6.063   2.400   6.948 -2.0387 -0.5334  2.4070
  552MOL0     H72841   6.136   2.262   7.036  1.1429 -0.4738  0.5862
  552MOL0     H72842   6.284   2.506   6.912  0.3002 -0.0595  2.8070
  552MOL0     H72843   6.370   2.358   6.957  1.2608 -1.1604 -2.9531
  552MOL0     H72844   6.240   2.237   6.772 -0.8908  0.6989 -1.6646
  552MOL0     H72845   6.388   2.328   6.752  0.4972 -3.9476  1.7382
  552MOL0     H72846   6.613   2.362   7.235  0.2813 -0.6667 -2.9090
  552MOL0     H72847   6.812   2.307   7.100  0.4977 -2.2847 -0.3201
  552MOL0     H72848   7.204   2.391   6.879  2.0221  0.9406 -0.9358
  552MOL0     H72849   7.407   2.320   6.787  0.4881  0.3142 -0.5027
  552MOL0     H72850   7.382   3.632   5.744  1.3016  1.4938  0.2020
  552MOL0     H72851   7.517   3.729   5.548 -0.7512  1.1899  1.2622
  552MOL0     H72852   7.856   3.626   5.259 -2.0529  2.5885  4.9672
  552MOL0     H72853   8.041   3.676   5.091  0.7839  1.1453 -0.8996
  552MOL0     H72854   8.372   3.757   4.962 -0.6989 -1.4464 -1.6430
  552MOL0     H72855   8.229   3.663   4.988  0.2345  0.7770 -1.9629
  552MOL0     H72856   8.343   3.518   5.153  2.2774  1.2024  1.5704
  552MOL0     H72857   8.406   3.512   4.977  0.7560 -0.9084  0.5470
  552MOL0     H72858   8.542   3.606   5.224 -0.8743 -0.0651 -0.6003
  552MOL0     H72859   8.577   3.705   5.088  1.9534  0.8914  1.3426
  552MOL0     H72860   8.706   3.487   5.175 -0.6121 -0.6150  0.7035
  552MOL0     H72861   8.586   3.389   5.102  0.9582  0.3486  2.8862
  552MOL0     H72862   8.805   3.546   4.761  0.5328  0.1124  0.1111
  552MOL0     H72863   8.304   3.744   5.424 -1.0654  0.8744  1.7864
  552MOL0     H72864   8.132   3.685   5.575  0.1543 -4.7863  0.3801
  553MOL0     O72865  10.406   4.923   2.699 -0.3847 -0.9724  0.1705
  553MOL0     C72866  10.477   4.864   2.784  0.0379  0.8515 -0.5788
  553MOL0     O72867  10.434   4.805   2.906  0.5247 -0.3773 -0.3108
  553MOL0     C72868  10.302   4.791   2.939  0.3189  0.3198  0.0123
  553MOL0     C72869  10.271   4.680   3.038  0.4137  0.4275  0.5634
  553MOL0     C72870  10.135   4.656   3.078  0.0258 -0.0502  0.7765
  553MOL0     C72871  10.025   4.723   3.013 -0.4913 -0.4509  0.4806
  553MOL0     O72872   9.894   4.684   3.004  0.3581 -0.2692  0.1784
  553MOL0     C72873   9.839   4.587   3.091  0.3069  0.4758  0.4545
  553MOL0     C72874   9.712   4.517   3.030  0.0002  0.0986  0.2636
  553MOL0     C72875   9.620   4.441   3.135  0.1676  0.8686 -0.1104
  553MOL0     C72876   9.504   4.363   3.068  0.6284  0.2117  0.1323
  553MOL0     C72877   9.372   4.369   3.146  0.3685  0.7168  0.2399
  553MOL0     C72878   9.389   4.288   3.278  0.5408 -0.4355 -0.7023
  553MOL0     C72879   9.355   4.135   3.253  0.0574 -0.3843 -0.2126
  553MOL0     C72880   9.211   4.095   3.238  0.2325  0.5498  0.4701
  553MOL0     N72881   9.122   4.170   3.325 -0.1807 -0.6636  0.2366
  553MOL0     C72882   9.147   4.180   3.458  0.1303  0.7767 -0.4106
  553MOL0     C72883   9.037   4.235   3.509  1.2421 -0.2616 -0.0559
  553MOL0     C72884   9.009   4.257   3.656 -0.0166  0.2111  0.4623
  553MOL0     C72885   9.054   4.147   3.753  0.9650 -0.0110 -0.5494
  553MOL0     C72886   8.998   4.011   3.695  0.0257 -0.2770 -0.5466
  553MOL0     C72887   8.984   3.889   3.800 -0.0649  0.3292  0.0361
  553MOL0     O72888   8.910   3.772   3.742 -0.5652 -0.4316  0.5875
  553MOL0     C72889   8.778   3.789   3.707  0.4305  0.4476 -0.9818
  553MOL0     C72890   8.743   3.712   3.594  0.5390 -0.3349 -0.3398
  553MOL0     C72891   8.611   3.722   3.556 -0.4018  1.0177  0.3760
  553MOL0     C72892   8.510   3.795   3.607  0.6439  0.7103 -0.6033
  553MOL0     C72893   8.366   3.789   3.570 -0.5714  0.7950 -0.1174
  553MOL0     O72894   8.285   3.889   3.616 -0.0718  1.4108 -0.0228
  553MOL0     C72895   8.156   3.890   3.577  1.0050  0.3108 -0.6583
  553MOL0     C72896   8.053   3.871   3.668 -1.4174 -0.7313 -0.8268
  553MOL0     C72897   7.922   3.849   3.623 -0.6981 -0.1640 -0.5935
  553MOL0     C72898   7.893   3.851   3.492  0.0763  1.2202  1.3055
  553MOL0     O72899   7.758   3.841   3.454  0.0071  0.3402 -0.1489
  553MOL0     C72900   7.697   3.923   3.350 -1.5653 -0.0412 -0.0572
  553MOL0     C72901   7.546   3.888   3.329  0.5042 -0.1106 -0.9363
  553MOL0     C72902   7.455   3.934   3.441 -0.1498  0.6990 -0.5458
  553MOL0     C72903   7.342   3.825   3.481 -0.2611 -0.9508  0.0516
  553MOL0     C72904   7.240   3.897   3.573 -0.5136 -0.5779 -0.4213
  553MOL0     C72905   7.146   3.796   3.643  0.6314 -0.3162  0.5381
  553MOL0     C72906   7.035   3.746   3.544 -0.6385  0.2316  1.4051
  553MOL0     C72907   6.979   3.604   3.575  0.1889 -0.2004 -0.1212
  553MOL0    Cl72908   6.897   3.586   3.744 -0.4957  0.1915  0.0004
  553MOL0     C72909   7.998   3.872   3.398  0.1059 -0.8598 -0.3470
  553MOL0     C72910   8.127   3.905   3.440 -0.3874 -0.5297 -0.3302
  553MOL0     O72911   8.327   3.689   3.506 -0.6866  0.1411  0.1298
  553MOL0     C72912   8.540   3.862   3.733  0.3421 -0.3858  0.0708
  553MOL0     C72913   8.674   3.858   3.773 -0.4905  0.2933 -0.0539
  553MOL0     N72914   8.961   4.283   3.402  0.3176 -0.3361  0.1385
  553MOL0     N72915   9.013   4.245   3.288  0.5200 -0.8131  0.7847
  553MOL0     C72916  10.065   4.829   2.929  0.5160 -0.0292 -0.0644
  553MOL0     C72917  10.190   4.864   2.897 -0.4636 -0.3204  0.9824
  553MOL0     C72918  10.625   4.851   2.776  0.8260 -0.6496  0.4865
  553MOL0     C72919  10.694   4.886   2.657  0.2533 -0.2354 -0.4590
  553MOL0     C72920  10.825   4.863   2.643 -0.4345  0.9183  0.5540
  553MOL0     C72921  10.900   4.810   2.745 -0.0097 -0.4937 -1.0439
  553MOL0     O72922  11.038   4.802   2.727  0.4023 -0.2418  0.6283
  553MOL0     C72923  11.117   4.686   2.758  0.7760  0.2122 -0.4424
  553MOL0     C72924  11.257   4.706   2.798  0.1614 -1.0910  0.5130
  553MOL0     C72925  11.263   4.785   2.934  0.3563 -0.8240  0.6372
  553MOL0     C72926  11.368   4.740   3.029 -0.5098  0.6921  0.0246
  553MOL0     C72927  11.503   4.771   2.974 -0.0435  0.5920  0.0304
  553MOL0     C72928  11.612   4.791   2.909  0.7852  1.0394  0.3026
  553MOL0     C72929  10.844   4.784   2.873  0.9356 -0.7336 -0.0437
  553MOL0     C72930  10.707   4.801   2.881  0.0535 -0.8394 -0.1887
  553MOL0     H72931  10.345   4.634   3.101 -1.2486 -0.2044  2.1439
  553MOL0     H72932  10.106   4.583   3.152 -2.6744  0.5099  0.4054
  553MOL0     H72933   9.810   4.641   3.182 -1.5584  2.4434 -1.1861
  553MOL0     H72934   9.917   4.512   3.111  0.1723  0.4900  1.0331
  553MOL0     H72935   9.736   4.442   2.954 -1.5318  0.0428 -0.1991
  553MOL0     H72936   9.640   4.590   2.992 -0.6490  1.0719  3.0929
  553MOL0     H72937   9.573   4.519   3.195  1.6226  1.5884  0.1350
  553MOL0     H72938   9.677   4.374   3.200 -2.2675 -2.1130 -0.7884
  553MOL0     H72939   9.481   4.407   2.971 -0.3297 -0.1646  0.1857
  553MOL0     H72940   9.544   4.264   3.044  0.4462  0.5311 -1.6433
  553MOL0     H72941   9.300   4.330   3.073  2.2003 -2.7269  0.0355
  553MOL0     H72942   9.352   4.474   3.169  0.3455  0.5471  1.0087
  553MOL0     H72943   9.331   4.324   3.364  2.6199 -2.0355  1.5229
  553MOL0     H72944   9.492   4.286   3.315 -0.4549 -0.4933  2.3553
  553MOL0     H72945   9.403   4.109   3.158  2.5249 -0.1527  0.8991
  553MOL0     H72946   9.400   4.068   3.326 -2.1473  1.3749  2.9930
  553MOL0     H72947   9.189   3.988   3.245 -3.3091  1.1644  0.4576
  553MOL0     H72948   9.175   4.107   3.135  1.1575  0.0843  0.0776
  553MOL0     H72949   9.235   4.157   3.517 -0.2985  3.2288  1.3708
  553MOL0     H72950   8.901   4.268   3.668 -0.1068 -1.6249  1.7047
  553MOL0     H72951   9.050   4.353   3.688 -3.6487  2.3910 -0.8420
  553MOL0     H72952   9.012   4.170   3.852  0.1402 -2.0926 -0.3606
  553MOL0     H72953   9.163   4.151   3.760  1.2114  0.6934 -3.6438
  553MOL0     H72954   8.894   4.027   3.667  0.5735  1.4021 -1.8298
  553MOL0     H72955   9.049   3.976   3.604 -1.6571 -0.4676 -1.4521
  553MOL0     H72956   8.920   3.922   3.882 -0.6545  2.1243 -1.0904
  553MOL0     H72957   9.082   3.860   3.839  0.1432  2.2627  1.0826
  553MOL0     H72958   8.811   3.647   3.539  1.0175 -1.5442  1.5877
  553MOL0     H72959   8.579   3.656   3.476  0.7351 -2.3890  2.5422
  553MOL0     H72960   8.075   3.880   3.774  2.2124 -0.1033 -1.5170
  553MOL0     H72961   7.845   3.834   3.698  1.7570 -1.3459  1.9137
  553MOL0     H72962   7.752   3.898   3.259 -0.7081  1.3282  0.0626
  553MOL0     H72963   7.706   4.031   3.364 -0.3811  0.1275 -1.8611
  553MOL0     H72964   7.544   3.779   3.315  0.0700  0.1693 -3.5797
  553MOL0     H72965   7.500   3.934   3.242  0.4821 -0.0907 -0.9140
  553MOL0     H72966   7.412   4.032   3.418 -3.9712 -0.7302 -0.2158
  553MOL0     H72967   7.505   3.941   3.538 -0.5839  0.1719 -0.2795
  553MOL0     H72968   7.288   3.786   3.394 -3.9408  3.8777 -0.3044
  553MOL0     H72969   7.399   3.742   3.522 -0.8192 -0.6816  1.4345
  553MOL0     H72970   7.179   3.970   3.519  0.0265 -0.7375 -1.2692
  553MOL0     H72971   7.303   3.957   3.638  2.9998 -2.8857 -1.4351
  553MOL0     H72972   7.105   3.843   3.733  1.5657  0.3738  0.6203
  553MOL0     H72973   7.214   3.719   3.681  1.5016  0.2196  0.0999
  553MOL0     H72974   6.956   3.822   3.537  0.6683  1.5391  0.0586
  553MOL0     H72975   7.081   3.744   3.445  0.8069 -0.1633  2.0580
  553MOL0     H72976   7.063   3.534   3.582  0.9605  0.8126  1.3842
  553MOL0     H72977   6.911   3.580   3.493 -0.5562  4.7987 -1.3013
  553MOL0     H72978   7.983   3.873   3.291  1.8499 -1.3062 -0.6223
  553MOL0     H72979   8.210   3.927   3.375 -0.8967  1.8356 -0.2666
  553MOL0     H72980   8.471   3.926   3.785 -0.5864 -1.0027 -0.3791
  553MOL0     H72981   8.723   3.900   3.861 -0.1604 -2.8965  1.4349
  553MOL0     H72982   9.995   4.892   2.875  0.2066 -0.4092 -0.1123
  553MOL0     H72983  10.196   4.929   2.811 -2.1212 -3.3330 -1.6305
  553MOL0     H72984  10.642   4.931   2.574  1.0006  2.4268  0.4262
  553MOL0     H72985  10.871   4.897   2.551  0.8244  1.5252  1.3755
  553MOL0     H72986  11.113   4.617   2.673  0.9537 -0.2421 -0.0940
  553MOL0     H72987  11.068   4.628   2.837 -2.9630  1.0491 -1.9439
  553MOL0     H72988  11.318   4.615   2.792 -0.6957 -1.6172 -0.5437
  553MOL0     H72989  11.288   4.772   2.716 -0.9078  0.3090  1.2012
  553MOL0     H72990  11.171   4.786   2.993 -1.7165  1.4931 -2.3434
  553MOL0     H72991  11.282   4.889   2.906 -0.5414 -1.2700 -1.8819
  553MOL0     H72992  11.354   4.785   3.128  0.5634 -1.4486  1.2124
  553MOL0     H72993  11.362   4.631   3.041 -2.1976  0.6872 -0.5084
  553MOL0     H72994  11.709   4.786   2.864 -0.0569 -1.3435 -1.4716
  553MOL0     H72995  10.906   4.742   2.952  2.9738  0.9211 -0.6336
  553MOL0     H72996  10.673   4.780   2.982 -1.4753 -0.1725 -0.5308
  554MOL0     O72997  10.745   7.945   3.754  0.1662 -0.1072  0.2935
  554MOL0     C72998  10.716   8.052   3.704  0.0355 -0.2358  0.0740
  554MOL0     O72999  10.594   8.096   3.667  0.0477 -0.5322  0.0407
  554MOL0     C73000  10.475   8.025   3.684  0.4142 -0.9836  0.2101
  554MOL0     C73001  10.368   8.108   3.647 -0.2210 -0.5130  0.7569
  554MOL0     C73002  10.233   8.062   3.651  1.2191 -0.4842  0.5234
  554MOL0     C73003  10.211   7.937   3.708 -0.6123 -0.3236 -0.3693
  554MOL0     O73004  10.086   7.879   3.727  0.1612  0.0008 -0.4503
  554MOL0     C73005   9.970   7.950   3.665 -0.7075 -0.7245  0.9256
  554MOL0     C73006   9.842   7.885   3.717  0.5338  0.2645  0.6059
  554MOL0     C73007   9.713   7.955   3.670 -0.7919  0.3388 -0.1622
  554MOL0     C73008   9.580   7.894   3.715 -0.0386  0.5802  0.1633
  554MOL0     C73009   9.448   7.979   3.694 -0.6049  0.3053  0.6832
  554MOL0     C73010   9.329   7.921   3.772  0.0279  0.2057  1.0063
  554MOL0     C73011   9.234   7.850   3.675 -0.1217 -0.5275 -0.6265
  554MOL0     C73012   9.145   7.755   3.752 -0.2415  0.6497 -0.4206
  554MOL0     N73013   9.195   7.620   3.754 -0.4265  0.4588  0.3425
  554MOL0     C73014   9.323   7.570   3.777  0.2910  1.4093  0.6178
  554MOL0     C73015   9.319   7.440   3.737  0.0278 -0.5711  0.5556
  554MOL0     C73016   9.440   7.353   3.738  0.0300  0.0232  0.6851
  554MOL0     C73017   9.538   7.402   3.626  0.4838 -0.3035  0.2485
  554MOL0     C73018   9.654   7.309   3.622 -0.7136  0.3766  0.1784
  554MOL0     C73019   9.732   7.303   3.758  0.3434  0.3427  0.5380
  554MOL0     O73020   9.790   7.431   3.776 -0.8003  0.0770 -0.1533
  554MOL0     C73021   9.920   7.440   3.824  0.1978  0.4209 -0.7051
  554MOL0     C73022   9.961   7.363   3.935  0.7033  0.3257  0.5163
  554MOL0     C73023  10.090   7.372   3.976 -0.1617  0.1009  0.4357
  554MOL0     C73024  10.189   7.453   3.917  0.4720  0.6894 -0.3229
  554MOL0     C73025  10.319   7.460   3.970 -0.8003  0.3978 -0.0981
  554MOL0     O73026  10.408   7.519   3.892 -0.5228  0.5149 -0.0318
  554MOL0     C73027  10.539   7.550   3.925 -0.8728 -0.1300  0.1882
  554MOL0     C73028  10.620   7.579   3.819  0.9279 -0.4146  1.0037
  554MOL0     C73029  10.751   7.609   3.837 -0.0207  0.1470 -1.0021
  554MOL0     C73030  10.804   7.618   3.965  0.3754  0.7032 -0.2847
  554MOL0     O73031  10.931   7.653   4.005  0.1338 -0.5300  0.5113
  554MOL0     C73032  11.011   7.742   3.922  0.4315  0.4521 -0.2240
  554MOL0     C73033  11.148   7.765   3.990  0.4572 -0.3798 -0.3517
  554MOL0     C73034  11.222   7.637   4.025 -0.1054  0.9297  0.3645
  554MOL0     C73035  11.350   7.665   4.100 -0.3037 -0.0628 -0.1641
  554MOL0     C73036  11.414   7.536   4.163  0.6495  0.8166  0.1806
  554MOL0     C73037  11.531   7.585   4.262  1.0252  0.8890  0.1275
  554MOL0     C73038  11.647   7.657   4.192  0.1692 -0.2895 -0.2592
  554MOL0     C73039  11.757   7.685   4.292 -0.3992 -0.4738  0.4063
  554MOL0    Cl73040  11.883   7.777   4.201 -0.1377 -0.0825  0.0768
  554MOL0     C73041  10.727   7.579   4.066  0.1267  0.6944 -0.9069
  554MOL0     C73042  10.601   7.542   4.051  0.8660  0.7896  0.6870
  554MOL0     O73043  10.344   7.405   4.079 -0.3415  0.7475 -0.5242
  554MOL0     C73044  10.140   7.519   3.810  0.9192 -0.2642  0.3923
  554MOL0     C73045  10.007   7.522   3.769  0.2900 -0.2447  0.9106
  554MOL0     N73046   9.190   7.416   3.702 -0.0983  0.0217  0.6156
  554MOL0     N73047   9.124   7.525   3.695 -0.1533 -0.8295  0.1409
  554MOL0     C73048  10.321   7.860   3.757  0.5312 -0.5673 -0.5241
  554MOL0     C73049  10.449   7.909   3.747 -0.4473  1.0853 -0.7248
  554MOL0     C73050  10.833   8.128   3.666  0.2615 -0.4337 -0.3600
  554MOL0     C73051  10.960   8.118   3.734 -0.3467 -0.2036  0.1102
  554MOL0     C73052  11.070   8.203   3.706 -0.2162 -0.9698  0.1681
  554MOL0     C73053  11.063   8.290   3.598  0.4551 -1.2328 -0.4486
  554MOL0     O73054  11.153   8.386   3.563 -0.3155  0.2099  0.3223
  554MOL0     C73055  11.277   8.397   3.641 -0.9642 -0.3688  0.7293
  554MOL0     C73056  11.341   8.522   3.589  0.5104 -0.5154  0.2160
  554MOL0     C73057  11.402   8.490   3.452 -0.0417 -0.4381  0.9981
  554MOL0     C73058  11.486   8.610   3.393 -0.5231 -0.0876 -0.3085
  554MOL0     C73059  11.614   8.632   3.469 -0.1412 -0.5459  0.1442
  554MOL0     C73060  11.714   8.641   3.537 -0.0317  0.3050  0.6508
  554MOL0     C73061  10.939   8.287   3.528  0.4619 -0.1958  0.9292
  554MOL0     C73062  10.825   8.213   3.558  0.2218 -0.2320  0.8000
  554MOL0     H73063  10.388   8.208   3.608  0.4544 -0.9796 -0.1420
  554MOL0     H73064  10.151   8.127   3.620  0.5236 -1.5231  0.1547
  554MOL0     H73065   9.980   7.942   3.556  0.7783 -2.6283  1.1547
  554MOL0     H73066   9.981   8.057   3.686  3.6284 -1.1329  1.6663
  554MOL0     H73067   9.841   7.904   3.825 -3.4214  4.5495  0.1149
  554MOL0     H73068   9.818   7.787   3.675 -5.8029  2.1864 -1.4514
  554MOL0     H73069   9.710   7.961   3.561  0.1301  1.0024 -0.1576
  554MOL0     H73070   9.723   8.056   3.712  2.6232 -0.5652  1.5451
  554MOL0     H73071   9.568   7.804   3.652  0.4982 -0.3778  1.3883
  554MOL0     H73072   9.587   7.859   3.818  0.5276 -2.6881 -0.8511
  554MOL0     H73073   9.422   8.000   3.590 -0.3244  0.6532  0.6834
  554MOL0     H73074   9.466   8.078   3.736 -3.4645  0.5891  1.4551
  554MOL0     H73075   9.270   7.998   3.822 -0.5297 -0.7497  1.8663
  554MOL0     H73076   9.366   7.868   3.861  1.4226  4.0383  2.9629
  554MOL0     H73077   9.181   7.926   3.616 -2.3323 -1.2169  0.3741
  554MOL0     H73078   9.286   7.795   3.596  2.2798 -2.2573  2.0066
  554MOL0     H73079   9.057   7.754   3.687 -0.0207 -0.0206 -0.7092
  554MOL0     H73080   9.107   7.795   3.847  1.2169  1.6993 -0.2399
  554MOL0     H73081   9.408   7.618   3.824  0.3622  0.1636  1.8221
  554MOL0     H73082   9.422   7.247   3.721 -2.8068  0.0650  2.7942
  554MOL0     H73083   9.487   7.358   3.836  1.0302 -0.9187  0.2745
  554MOL0     H73084   9.563   7.506   3.646 -3.4280  0.5900  1.2224
  554MOL0     H73085   9.496   7.416   3.526  1.1795  3.0172  0.3273
  554MOL0     H73086   9.636   7.206   3.591  2.1755 -0.2080  0.1276
  554MOL0     H73087   9.722   7.349   3.546 -1.3433  1.2130  0.0414
  554MOL0     H73088   9.812   7.230   3.739 -0.6921 -0.5417 -0.5269
  554MOL0     H73089   9.669   7.268   3.840  1.1898  0.6894  1.3547
  554MOL0     H73090   9.895   7.291   3.982 -0.7124 -1.0352 -3.1517
  554MOL0     H73091  10.113   7.303   4.057  0.1637  1.0161  1.1392
  554MOL0     H73092  10.577   7.584   3.720 -3.7936  0.9060  2.8567
  554MOL0     H73093  10.802   7.626   3.743 -0.6511 -1.3384 -1.6446
  554MOL0     H73094  10.959   7.838   3.913  1.1570  1.4817  4.0657
  554MOL0     H73095  11.025   7.700   3.822 -1.3326 -0.2985 -0.1797
  554MOL0     H73096  11.112   7.820   4.077 -2.8915 -0.8792 -1.2575
  554MOL0     H73097  11.214   7.821   3.923  3.8348 -2.1228  1.2344
  554MOL0     H73098  11.238   7.577   3.935  2.1717  1.0957  0.5967
  554MOL0     H73099  11.158   7.571   4.085  1.3749  0.5585  1.6158
  554MOL0     H73100  11.429   7.701   4.033  0.1989 -1.4711 -0.3556
  554MOL0     H73101  11.334   7.743   4.176 -0.7443 -1.6523  1.4507
  554MOL0     H73102  11.441   7.461   4.088 -0.0286  0.3127  0.4228
  554MOL0     H73103  11.334   7.490   4.221 -1.2228  1.1773 -1.9563
  554MOL0     H73104  11.562   7.508   4.333  0.4193  2.8745  2.7179
  554MOL0     H73105  11.499   7.666   4.328  2.4731  2.5099 -1.0716
  554MOL0     H73106  11.683   7.601   4.105  1.4024  0.3641 -0.1966
  554MOL0     H73107  11.622   7.759   4.163 -1.0267 -0.3566  0.4759
  554MOL0     H73108  11.796   7.587   4.322  1.9330  0.8527  2.0395
  554MOL0     H73109  11.718   7.749   4.372  2.3820  3.1466 -0.8646
  554MOL0     H73110  10.772   7.591   4.164 -1.7842  2.3908 -0.1528
  554MOL0     H73111  10.560   7.501   4.142 -0.6936  0.8308  0.0361
  554MOL0     H73112  10.209   7.575   3.747  3.4831 -1.9565  1.5207
  554MOL0     H73113   9.962   7.576   3.686 -3.5330  1.7614  3.9219
  554MOL0     H73114  10.307   7.761   3.800  0.8211  0.3434  1.8507
  554MOL0     H73115  10.520   7.851   3.806 -1.4775  1.3347  0.8264
  554MOL0     H73116  10.953   8.057   3.824  0.7018  0.5157  0.7042
  554MOL0     H73117  11.166   8.207   3.758  0.0748  2.6364 -0.3799
  554MOL0     H73118  11.338   8.307   3.625 -0.9366 -0.9311  3.5146
  554MOL0     H73119  11.271   8.401   3.750  0.5399 -1.1304  0.8632
  554MOL0     H73120  11.272   8.607   3.586  0.0817 -0.8663  0.0698
  554MOL0     H73121  11.424   8.548   3.656 -0.2301  2.2802  0.1727
  554MOL0     H73122  11.312   8.476   3.390 -1.8857  3.8314  2.2941
  554MOL0     H73123  11.463   8.400   3.453  1.5621  0.5913  0.4000
  554MOL0     H73124  11.497   8.577   3.289 -0.8112 -2.8488  0.4525
  554MOL0     H73125  11.425   8.701   3.402  0.8457  0.7203  1.3278
  554MOL0     H73126  11.786   8.668   3.612 -2.3361 -2.0632  4.0658
  554MOL0     H73127  10.925   8.351   3.441  0.7403  1.0732  1.7779
  554MOL0     H73128  10.745   8.213   3.485  0.6987  1.2273  0.2385
  555MOL0     O73129   1.726   3.492   5.863 -0.3231  0.0167  0.2570
  555MOL0     C73130   1.668   3.429   5.776  0.0670 -0.0918  0.3364
  555MOL0     O73131   1.560   3.473   5.706  0.1758 -0.2330  0.4440
  555MOL0     C73132   1.536   3.607   5.704  0.5221  1.0183 -0.4091
  555MOL0     C73133   1.401   3.655   5.731 -0.4694 -0.0323  0.5198
  555MOL0     C73134   1.368   3.787   5.736  0.5961 -1.1958 -0.1013
  555MOL0     C73135   1.459   3.884   5.700  0.6686  0.3780  0.5355
  555MOL0     O73136   1.405   4.015   5.715 -0.0570  0.8246  1.0337
  555MOL0     C73137   1.288   4.050   5.638 -0.5303 -0.3664 -0.1019
  555MOL0     C73138   1.313   4.171   5.552 -0.0533 -0.1185  0.0414
  555MOL0     C73139   1.293   4.301   5.628 -0.2897  0.3663  0.2785
  555MOL0     C73140   1.381   4.332   5.748 -0.2143  0.8814  0.7110
  555MOL0     C73141   1.529   4.337   5.713 -0.3592  0.7227  0.4736
  555MOL0     C73142   1.570   4.433   5.598  1.0277 -0.0643 -0.6135
  555MOL0     C73143   1.718   4.443   5.574  0.0711 -0.5315 -0.3782
  555MOL0     C73144   1.770   4.528   5.463  0.6507 -0.3120 -0.9755
  555MOL0     N73145   1.713   4.665   5.463 -0.7080 -0.1248 -0.4801
  555MOL0     C73146   1.624   4.715   5.374  0.2352  0.6074  0.7620
  555MOL0     C73147   1.575   4.837   5.429 -0.2442 -0.4179 -0.6657
  555MOL0     C73148   1.460   4.917   5.379  0.2580  0.5482 -0.8111
  555MOL0     C73149   1.451   5.060   5.417 -0.4307 -0.2580  0.2184
  555MOL0     C73150   1.404   5.078   5.568 -0.0054 -0.7118 -0.5045
  555MOL0     C73151   1.384   5.231   5.588  0.5311  0.8188  0.0841
  555MOL0     O73152   1.508   5.292   5.600  0.1206 -0.6847  0.3409
  555MOL0     C73153   1.535   5.428   5.599 -0.2201 -0.5370 -0.0838
  555MOL0     C73154   1.667   5.484   5.611  0.2598 -0.3219 -0.2674
  555MOL0     C73155   1.692   5.623   5.626  0.3348  0.4618  0.4015
  555MOL0     C73156   1.589   5.710   5.618  0.1348 -0.8628  0.3625
  555MOL0     C73157   1.610   5.861   5.644  0.1494  0.5297 -0.6029
  555MOL0     O73158   1.734   5.901   5.698  0.3421  0.9466  0.0124
  555MOL0     C73159   1.743   6.036   5.728  0.7853 -0.2353 -0.3511
  555MOL0     C73160   1.697   6.077   5.856 -0.2961  0.2838  0.1945
  555MOL0     C73161   1.719   6.206   5.896 -0.4506  0.0424  0.0696
  555MOL0     C73162   1.787   6.300   5.812 -1.0852 -0.0092 -0.9850
  555MOL0     O73163   1.809   6.424   5.859 -0.4946  0.0771  0.2794
  555MOL0     C73164   1.939   6.458   5.897 -1.2140 -0.4236  0.2701
  555MOL0     C73165   1.947   6.566   5.999  0.2352  0.6985 -0.3460
  555MOL0     C73166   1.888   6.508   6.130  0.1667  0.6798 -0.0607
  555MOL0     C73167   1.910   6.606   6.235 -0.4141 -1.1116 -0.3066
  555MOL0     C73168   1.886   6.533   6.368 -0.1503 -0.3134 -0.1520
  555MOL0     C73169   1.764   6.599   6.446  0.8971  0.4577 -0.4843
  555MOL0     C73170   1.795   6.738   6.503 -0.0246 -0.6589  0.4307
  555MOL0     C73171   1.697   6.806   6.597 -0.3492  0.1081  0.2845
  555MOL0    Cl73172   1.769   6.964   6.628  0.2042 -0.1577  0.0088
  555MOL0     C73173   1.819   6.261   5.684  0.1598  0.2384  0.1717
  555MOL0     C73174   1.789   6.128   5.636 -0.6198 -0.1525 -1.9039
  555MOL0     O73175   1.513   5.936   5.646 -0.0224  0.1622 -0.5099
  555MOL0     C73176   1.460   5.666   5.581  0.3487 -0.0851  0.1257
  555MOL0     C73177   1.431   5.526   5.588  0.9419  1.0730 -0.5463
  555MOL0     N73178   1.644   4.845   5.554 -0.9173  0.5836  0.9972
  555MOL0     N73179   1.707   4.745   5.579 -0.3490  0.4884  0.7437
  555MOL0     C73180   1.593   3.840   5.659  1.0828 -0.5760  0.1603
  555MOL0     C73181   1.615   3.704   5.652 -0.6646 -0.7571  0.2216
  555MOL0     C73182   1.716   3.290   5.735 -0.5094 -0.2777  0.2685
  555MOL0     C73183   1.818   3.239   5.813 -0.2849 -0.6674 -0.4828
  555MOL0     C73184   1.872   3.111   5.780 -0.5344 -0.0314  0.5260
  555MOL0     C73185   1.830   3.039   5.667  0.3234 -0.3936 -0.2321
  555MOL0     O73186   1.885   2.917   5.650 -0.0353 -0.6752 -0.0690
  555MOL0     C73187   1.839   2.833   5.540 -0.5314 -0.3890  0.7897
  555MOL0     C73188   1.924   2.708   5.531  0.5438  0.0890  0.7244
  555MOL0     C73189   2.076   2.720   5.495  0.5036 -0.3336 -0.7262
  555MOL0     C73190   2.108   2.674   5.353 -0.0370  0.3394  0.1690
  555MOL0     C73191   2.029   2.765   5.268 -0.1345  0.8289 -0.2813
  555MOL0     C73192   1.967   2.839   5.194  0.0959 -0.0111  0.0786
  555MOL0     C73193   1.721   3.091   5.586  0.6194 -0.8589  0.2668
  555MOL0     C73194   1.675   3.222   5.621  0.2752  0.6100  0.2054
  555MOL0     H73195   1.328   3.576   5.747 -1.2065  0.0356 -2.0150
  555MOL0     H73196   1.263   3.810   5.756  1.2411  0.0790  2.1957
  555MOL0     H73197   1.200   4.062   5.702 -0.1214  3.9182 -0.0821
  555MOL0     H73198   1.259   3.969   5.570  0.0669 -1.4204  0.8573
  555MOL0     H73199   1.235   4.172   5.475  0.2815 -0.7683 -0.3101
  555MOL0     H73200   1.410   4.169   5.502  0.9905  2.9306  1.7165
  555MOL0     H73201   1.188   4.308   5.660 -0.3384 -1.0557  0.4877
  555MOL0     H73202   1.306   4.390   5.566  0.7069  1.8821  2.5290
  555MOL0     H73203   1.352   4.434   5.774  1.6624  1.7857 -0.5395
  555MOL0     H73204   1.371   4.259   5.829 -1.9912 -0.9912 -1.0543
  555MOL0     H73205   1.568   4.236   5.699 -0.9210  0.5735 -0.0848
  555MOL0     H73206   1.585   4.376   5.798  1.3818  1.6231 -0.9984
  555MOL0     H73207   1.523   4.528   5.626 -3.4655 -1.9813 -0.7835
  555MOL0     H73208   1.530   4.407   5.499 -0.6379  1.5835 -0.4440
  555MOL0     H73209   1.763   4.485   5.665 -0.8856  0.6761 -0.4505
  555MOL0     H73210   1.745   4.337   5.568  0.0835 -0.6486  1.2405
  555MOL0     H73211   1.734   4.479   5.372 -0.4542 -0.1167 -0.6667
  555MOL0     H73212   1.879   4.529   5.470  0.8444 -3.5472 -1.9113
  555MOL0     H73213   1.599   4.655   5.288  0.4224 -1.8762  2.3542
  555MOL0     H73214   1.367   4.872   5.415  0.1099  1.9764  0.7190
  555MOL0     H73215   1.457   4.909   5.270 -2.1866  0.2268 -0.7880
  555MOL0     H73216   1.398   5.121   5.344 -2.1423 -1.4718  0.3806
  555MOL0     H73217   1.551   5.102   5.421 -0.5248 -0.0575  0.5439
  555MOL0     H73218   1.313   5.022   5.594 -2.2394  1.6983 -2.5791
  555MOL0     H73219   1.488   5.054   5.634 -0.5999 -0.5021  0.3475
  555MOL0     H73220   1.324   5.237   5.680 -0.7694 -1.4644 -0.5379
  555MOL0     H73221   1.317   5.267   5.509 -0.4873  2.7608  1.7334
  555MOL0     H73222   1.747   5.411   5.623  0.3418 -1.0639 -4.0851
  555MOL0     H73223   1.792   5.663   5.640  1.5525 -2.0999 -0.4258
  555MOL0     H73224   1.657   6.003   5.926  1.7210 -0.7812  0.2887
  555MOL0     H73225   1.677   6.249   5.987 -3.2208 -1.6905 -0.2617
  555MOL0     H73226   1.995   6.489   5.808  0.9698  0.5391  1.8579
  555MOL0     H73227   1.982   6.369   5.944  3.2971  1.9799  1.3409
  555MOL0     H73228   1.882   6.647   5.963  0.1057  1.7600  2.0970
  555MOL0     H73229   2.049   6.599   6.017  0.5495  1.2028 -2.7711
  555MOL0     H73230   1.939   6.413   6.150  1.5406  0.9557 -1.9861
  555MOL0     H73231   1.779   6.494   6.129 -0.2441  2.9235  2.3770
  555MOL0     H73232   2.018   6.625   6.241 -0.4182 -1.5830  2.8137
  555MOL0     H73233   1.855   6.699   6.222  0.3224 -0.1805  2.5519
  555MOL0     H73234   1.975   6.540   6.431  0.4312  0.3413 -1.0295
  555MOL0     H73235   1.864   6.428   6.346  3.2696 -0.8367 -1.6763
  555MOL0     H73236   1.743   6.523   6.522  1.2206 -2.4369 -3.0722
  555MOL0     H73237   1.683   6.597   6.372 -0.6997 -2.8949  1.1061
  555MOL0     H73238   1.893   6.722   6.548 -0.6153  1.0912  2.5452
  555MOL0     H73239   1.808   6.804   6.416 -0.0350  0.4815  1.2690
  555MOL0     H73240   1.672   6.744   6.683  1.5400  1.8313  2.1914
  555MOL0     H73241   1.597   6.829   6.559 -0.8356  0.0361  1.4681
  555MOL0     H73242   1.869   6.334   5.622 -0.0440  0.7020  0.5525
  555MOL0     H73243   1.813   6.115   5.531 -4.7463  3.8615 -3.7067
  555MOL0     H73244   1.371   5.725   5.563  1.0042  0.6459 -0.8002
  555MOL0     H73245   1.327   5.500   5.570  1.5032  0.0549 -2.6338
  555MOL0     H73246   1.655   3.919   5.618 -1.3990  1.1130 -0.5763
  555MOL0     H73247   1.719   3.679   5.629 -0.2751  1.1483 -0.2377
  555MOL0     H73248   1.843   3.303   5.897 -0.8150  1.3331 -1.7693
  555MOL0     H73249   1.954   3.066   5.835  0.6522  1.7929  0.3221
  555MOL0     H73250   1.827   2.881   5.442 -0.9064 -0.5062  0.7753
  555MOL0     H73251   1.740   2.797   5.570 -0.1891 -1.4985  0.6389
  555MOL0     H73252   1.928   2.662   5.630  2.0592  0.9809  1.1047
  555MOL0     H73253   1.868   2.643   5.463 -1.2845  1.8334  0.4925
  555MOL0     H73254   2.133   2.656   5.562  1.1106 -4.1273 -4.4400
  555MOL0     H73255   2.106   2.825   5.506  0.1034 -0.2829 -0.0543
  555MOL0     H73256   2.214   2.674   5.327 -0.3567 -2.2429 -1.5113
  555MOL0     H73257   2.068   2.572   5.350 -1.4370  0.8168  1.2665
  555MOL0     H73258   1.929   2.919   5.134 -1.5161  2.2179  3.6907
  555MOL0     H73259   1.676   3.029   5.510  0.4757 -0.1271 -0.2487
  555MOL0     H73260   1.603   3.272   5.556 -0.4501  0.6985  1.0517
  556MOL0     O73261   8.688   0.749   8.563 -0.3898  0.6192 -0.2017
  556MOL0     C73262   8.588   0.807   8.601 -1.0121  0.5540 -0.2678
  556MOL0     O73263   8.593   0.905   8.684 -0.4997 -0.2628 -0.0051
  556MOL0     C73264   8.708   0.954   8.751  0.6030 -0.0242  0.5138
  556MOL0     C73265   8.709   1.093   8.776 -0.0080 -0.6417  0.1227
  556MOL0     C73266   8.811   1.155   8.839  0.1308 -0.1744 -0.2953
  556MOL0     C73267   8.924   1.078   8.878 -0.3836  0.9592 -1.1821
  556MOL0     O73268   9.043   1.117   8.934  0.9285 -0.3539  0.4670
  556MOL0     C73269   9.025   1.141   9.073 -0.1707  0.8991 -0.3779
  556MOL0     C73270   9.123   1.033   9.139 -0.8538 -0.7075  0.8074
  556MOL0     C73271   9.112   1.004   9.291 -0.4126 -0.5346  0.7816
  556MOL0     C73272   9.157   1.133   9.361 -0.1585 -0.5402 -0.9023
  556MOL0     C73273   9.179   1.130   9.512 -0.4226  0.2537 -0.2243
  556MOL0     C73274   9.297   1.046   9.561  0.4277 -0.4330  0.2633
  556MOL0     C73275   9.299   1.042   9.713  0.8625  0.6721  0.3849
  556MOL0     C73276   9.413   0.956   9.777  0.2005 -0.3670  0.0628
  556MOL0     N73277   9.542   1.006   9.719  0.7952  0.1438 -1.1908
  556MOL0     C73278   9.595   1.130   9.774 -0.2198 -0.3182  0.6701
  556MOL0     C73279   9.700   1.160   9.691  0.3432 -0.2258 -0.4099
  556MOL0     C73280   9.777   1.291   9.707 -0.7585  0.0450 -0.1063
  556MOL0     C73281   9.847   1.319   9.567 -0.0279  0.5150 -0.3446
  556MOL0     C73282   9.763   1.399   9.459  0.5702  1.3961  0.0416
  556MOL0     C73283   9.632   1.326   9.425 -1.0023 -0.3078 -0.9316
  556MOL0     O73284   9.583   1.372   9.297 -0.4058 -1.1213 -0.3730
  556MOL0     C73285   9.450   1.398   9.278 -0.9543 -0.7116  0.3201
  556MOL0     C73286   9.411   1.406   9.140  0.9555 -0.0519  0.5807
  556MOL0     C73287   9.281   1.443   9.100  0.6929 -0.5035  0.4862
  556MOL0     C73288   9.182   1.461   9.194 -0.2518 -0.7304 -0.4041
  556MOL0     C73289   9.036   1.491   9.158  0.1040 -0.3022  0.3031
  556MOL0     O73290   8.996   1.502   9.027 -0.3541 -0.3957 -0.0077
  556MOL0     C73291   8.895   1.593   9.007 -0.4784 -0.7994 -1.1474
  556MOL0     C73292   8.868   1.709   9.087  0.6748 -0.4136  0.7895
  556MOL0     C73293   8.777   1.807   9.039 -0.4018  0.4929  0.1476
  556MOL0     C73294   8.713   1.780   8.913  0.5022  0.4044 -0.8884
  556MOL0     O73295   8.629   1.865   8.854 -0.2108 -0.1266  0.2494
  556MOL0     C73296   8.593   1.994   8.913 -0.1142  0.6158  0.4195
  556MOL0     C73297   8.710   2.095   8.928  0.3529 -0.2262  0.4347
  556MOL0     C73298   8.687   2.218   8.838  0.6621 -0.8268 -0.5215
  556MOL0     C73299   8.818   2.304   8.819  0.9620  0.3886  0.2875
  556MOL0     C73300   8.782   2.453   8.809  0.2000 -0.2528 -0.3385
  556MOL0     C73301   8.906   2.550   8.805 -1.1051  0.4672 -0.0890
  556MOL0     C73302   8.992   2.557   8.930  0.1386 -0.3540 -0.5796
  556MOL0     C73303   9.118   2.624   8.897  0.2559 -0.3520  0.2534
  556MOL0    Cl73304   9.218   2.619   9.034 -0.3054 -0.1407 -0.9487
  556MOL0     C73305   8.738   1.657   8.841 -2.0139 -0.1401  0.4848
  556MOL0     C73306   8.837   1.571   8.881 -0.0520  0.0390  0.0538
  556MOL0     O73307   8.961   1.489   9.255 -0.1088 -1.1350  0.4522
  556MOL0     C73308   9.220   1.456   9.332  0.2999  0.6132  0.4069
  556MOL0     C73309   9.353   1.435   9.372  0.1535 -0.1932 -0.5073
  556MOL0     N73310   9.706   1.061   9.592 -0.1771  0.3013 -0.8092
  556MOL0     N73311   9.614   0.974   9.611  0.2732 -0.4508  0.3567
  556MOL0     C73312   8.920   0.939   8.858 -0.6223 -0.2260  0.2552
  556MOL0     C73313   8.812   0.879   8.799 -0.3687  0.3667  1.7148
  556MOL0     C73314   8.463   0.750   8.562  0.7494 -0.2610 -0.5473
  556MOL0     C73315   8.454   0.667   8.445  0.3539  0.1653  0.0167
  556MOL0     C73316   8.326   0.612   8.409  0.4028  0.2536 -0.6347
  556MOL0     C73317   8.213   0.637   8.490  0.1598 -0.2820  0.3188
  556MOL0     O73318   8.099   0.575   8.466  0.0290  0.2910 -0.2550
  556MOL0     C73319   8.096   0.431   8.450  0.9397  0.1899  0.3334
  556MOL0     C73320   8.140   0.351   8.576 -0.0609  0.0621  0.3217
  556MOL0     C73321   8.283   0.296   8.558 -0.5270  0.1678  1.3656
  556MOL0     C73322   8.305   0.182   8.451  0.2973  0.3864  0.4774
  556MOL0     C73323   8.342   0.222   8.320 -0.4900 -0.9079  0.0861
  556MOL0     C73324   8.359   0.250   8.205  0.0950 -0.5618  0.5065
  556MOL0     C73325   8.227   0.729   8.596  0.4060  0.0156  0.1638
  556MOL0     C73326   8.347   0.772   8.638 -0.4302 -0.1040 -0.4656
  556MOL0     H73327   8.628   1.155   8.738  2.2981  2.8791  0.4894
  556MOL0     H73328   8.822   1.263   8.848 -1.1209  0.1388 -1.9795
  556MOL0     H73329   8.928   1.115   9.115  1.2998 -0.3787  2.5850
  556MOL0     H73330   9.052   1.236   9.120 -0.2305 -1.0381  4.0963
  556MOL0     H73331   9.225   1.059   9.109 -1.2336 -0.8430 -0.6904
  556MOL0     H73332   9.101   0.938   9.089 -1.1893 -0.9536  1.4078
  556MOL0     H73333   9.175   0.921   9.326 -1.1300 -0.8321  1.4038
  556MOL0     H73334   9.012   0.970   9.318  0.2186 -3.5342 -0.2850
  556MOL0     H73335   9.253   1.176   9.331 -0.5939  2.0256  0.9755
  556MOL0     H73336   9.082   1.210   9.342 -0.0780 -0.8765 -2.7380
  556MOL0     H73337   9.089   1.089   9.557 -0.1650  0.6079  0.6355
  556MOL0     H73338   9.195   1.232   9.548  3.4997 -0.4906  0.6587
  556MOL0     H73339   9.383   1.089   9.510  0.1880 -2.9440 -2.5560
  556MOL0     H73340   9.294   0.942   9.527  0.3755 -0.0464 -0.9773
  556MOL0     H73341   9.291   1.141   9.759 -0.5866 -0.0297  1.7540
  556MOL0     H73342   9.205   0.990   9.734  0.5490  0.5114 -1.2387
  556MOL0     H73343   9.400   0.848   9.766 -1.0314 -0.2393  0.0723
  556MOL0     H73344   9.412   0.978   9.884  2.6144 -2.5977  0.6520
  556MOL0     H73345   9.566   1.205   9.847  1.8008  1.3318 -0.1165
  556MOL0     H73346   9.855   1.278   9.782 -1.1348  0.0091  0.2869
  556MOL0     H73347   9.713   1.375   9.735 -0.5367  0.7289 -1.5512
  556MOL0     H73348   9.887   1.228   9.523 -1.1805 -0.3423  0.3452
  556MOL0     H73349   9.934   1.382   9.590 -1.6881  2.4080  1.1899
  556MOL0     H73350   9.740   1.501   9.493 -3.2988  1.1492 -1.3544
  556MOL0     H73351   9.828   1.415   9.373  3.6253 -0.4131  1.8119
  556MOL0     H73352   9.556   1.333   9.504 -0.2881 -0.9817 -0.1675
  556MOL0     H73353   9.648   1.218   9.416 -1.3728 -0.3666 -0.9281
  556MOL0     H73354   9.482   1.377   9.063 -1.0085 -3.8536 -0.0313
  556MOL0     H73355   9.248   1.451   8.997 -1.0568 -5.1515  0.4225
  556MOL0     H73356   8.933   1.729   9.172  0.9718  1.5590  0.1588
  556MOL0     H73357   8.767   1.889   9.110  2.0706  1.2024 -0.2262
  556MOL0     H73358   8.549   1.984   9.012  0.1120 -0.4772  0.4221
  556MOL0     H73359   8.511   2.024   8.846 -2.9178 -0.9310  2.9214
  556MOL0     H73360   8.805   2.044   8.908  0.7039  0.3817  0.5142
  556MOL0     H73361   8.716   2.125   9.033  0.0175  0.5906  0.2231
  556MOL0     H73362   8.604   2.268   8.889 -1.3496 -3.5247 -0.9209
  556MOL0     H73363   8.650   2.188   8.740  1.4111  0.3556 -1.1751
  556MOL0     H73364   8.886   2.277   8.900  0.0577 -1.8661  0.3678
  556MOL0     H73365   8.867   2.273   8.726  1.2874  2.3188 -0.2342
  556MOL0     H73366   8.716   2.471   8.895  0.0265 -3.0808  0.1941
  556MOL0     H73367   8.729   2.468   8.715  2.8943  0.2408 -1.8887
  556MOL0     H73368   8.868   2.651   8.785 -1.7737  0.3751  0.6699
  556MOL0     H73369   8.970   2.518   8.723  1.0260 -1.8752  2.3288
  556MOL0     H73370   8.944   2.614   9.010  0.8273  0.8155 -0.9644
  556MOL0     H73371   9.002   2.457   8.973 -0.8125  0.8975  2.8592
  556MOL0     H73372   9.107   2.729   8.867 -0.2683 -0.2110  0.9153
  556MOL0     H73373   9.170   2.573   8.816  0.2321  2.0854 -1.4348
  556MOL0     H73374   8.688   1.640   8.746 -0.3265 -0.1121 -0.4468
  556MOL0     H73375   8.882   1.487   8.830 -1.3660 -0.9646  0.4852
  556MOL0     H73376   9.139   1.477   9.401 -1.2706  0.6441 -1.3615
  556MOL0     H73377   9.374   1.438   9.478  1.8400 -2.4527 -0.6921
  556MOL0     H73378   9.010   0.883   8.883 -0.7635  0.6672  2.9911
  556MOL0     H73379   8.807   0.773   8.775  0.5238  1.0159 -1.8360
  556MOL0     H73380   8.538   0.638   8.383  1.7003  2.0937  0.8214
  556MOL0     H73381   8.325   0.527   8.342 -0.8274  0.2974 -0.6911
  556MOL0     H73382   8.161   0.405   8.366  1.2901  2.0067 -0.0095
  556MOL0     H73383   8.000   0.388   8.421  1.4979  0.2832 -1.8503
  556MOL0     H73384   8.136   0.413   8.666  0.3156 -1.2274  1.2518
  556MOL0     H73385   8.064   0.274   8.593 -1.1908  1.2724  0.9904
  556MOL0     H73386   8.323   0.252   8.650  0.0598 -2.0088  0.1373
  556MOL0     H73387   8.351   0.380   8.541 -1.9195  0.9210 -0.8527
  556MOL0     H73388   8.384   0.119   8.492 -0.9063  0.4056  3.0396
  556MOL0     H73389   8.216   0.119   8.450  1.3797 -1.2068  0.5941
  556MOL0     H73390   8.390   0.265   8.103  2.2574  2.0305  1.4276
  556MOL0     H73391   8.134   0.748   8.650  0.5285  2.6211 -0.4515
  556MOL0     H73392   8.361   0.836   8.725  1.2858  0.4938 -1.1569
  557MOL0     O73393   9.314   1.591   5.427 -0.6269 -0.0653 -0.2018
  557MOL0     C73394   9.300   1.703   5.480 -0.5390 -0.3799  0.0928
  557MOL0     O73395   9.185   1.751   5.539  0.1945 -0.3241 -0.7960
  557MOL0     C73396   9.069   1.676   5.542 -0.5200  0.9762 -0.0825
  557MOL0     C73397   9.026   1.588   5.446  0.5350  0.2937  0.1811
  557MOL0     C73398   8.905   1.510   5.468  0.0314  0.2692  1.4064
  557MOL0     C73399   8.827   1.522   5.586 -0.5310 -0.8486  0.2563
  557MOL0     O73400   8.716   1.439   5.598  0.4680  0.8729 -0.7586
  557MOL0     C73401   8.647   1.439   5.733 -0.0959 -0.3987 -0.3276
  557MOL0     C73402   8.555   1.312   5.743  0.0200  0.5112 -0.5765
  557MOL0     C73403   8.462   1.305   5.868 -0.6293  0.0901  0.5793
  557MOL0     C73404   8.547   1.273   5.993 -1.0090  0.1918 -0.5644
  557MOL0     C73405   8.467   1.300   6.118  0.4466 -0.1159 -0.6034
  557MOL0     C73406   8.353   1.196   6.135  0.1006  0.3450  0.5859
  557MOL0     C73407   8.296   1.199   6.277  0.4198 -0.1944 -0.3666
  557MOL0     C73408   8.384   1.164   6.395 -0.4131 -0.0469 -0.0595
  557MOL0     N73409   8.442   1.029   6.382 -0.2952 -0.4618 -0.0677
  557MOL0     C73410   8.356   0.934   6.355  0.3475 -0.1739  0.5713
  557MOL0     C73411   8.440   0.835   6.304  0.3831  1.0537  0.4144
  557MOL0     C73412   8.382   0.699   6.262 -0.4982  0.0713  0.3464
  557MOL0     C73413   8.236   0.693   6.214  0.1151  0.8675  0.2872
  557MOL0     C73414   8.221   0.761   6.079  0.2171  1.3616 -0.0996
  557MOL0     C73415   8.090   0.777   6.013  0.1205  0.1167 -0.1073
  557MOL0     O73416   8.038   0.658   5.948 -0.4423 -0.6385 -0.0090
  557MOL0     C73417   7.937   0.653   5.847  0.2433 -0.1159  0.5175
  557MOL0     C73418   7.890   0.767   5.768  0.4934  0.5413  0.9507
  557MOL0     C73419   7.787   0.745   5.673 -0.2683 -0.5318 -0.1795
  557MOL0     C73420   7.737   0.616   5.651  0.3718  0.0404  0.2742
  557MOL0     C73421   7.637   0.600   5.543  0.0905  0.9718  0.2048
  557MOL0     O73422   7.571   0.710   5.523  0.5757  0.2099 -0.1387
  557MOL0     C73423   7.458   0.695   5.447  0.2918  0.6104  0.4549
  557MOL0     C73424   7.336   0.690   5.519  0.8123 -0.0491  0.3187
  557MOL0     C73425   7.218   0.675   5.439 -0.7437  0.4005  0.8608
  557MOL0     C73426   7.213   0.665   5.296 -0.7883 -0.2335  0.1201
  557MOL0     O73427   7.094   0.678   5.226  0.2992 -0.0992  0.1774
  557MOL0     C73428   6.965   0.658   5.290 -0.8859  0.6509 -0.2565
  557MOL0     C73429   6.858   0.689   5.184  0.7182  0.3238 -0.4755
  557MOL0     C73430   6.716   0.669   5.221 -0.3755  0.3468  0.2364
  557MOL0     C73431   6.682   0.750   5.344  0.0868  0.5881 -0.1798
  557MOL0     C73432   6.544   0.709   5.411 -0.3445  0.0542 -0.0231
  557MOL0     C73433   6.531   0.780   5.546  0.6037 -0.1329 -0.0661
  557MOL0     C73434   6.416   0.737   5.635 -0.2169  0.5107 -0.0743
  557MOL0     C73435   6.420   0.787   5.784 -0.3585 -0.6701 -0.6095
  557MOL0    Cl73436   6.576   0.729   5.849 -0.0815 -0.0792  0.0577
  557MOL0     C73437   7.338   0.671   5.234 -0.6945  1.1205  0.3646
  557MOL0     C73438   7.457   0.672   5.305 -0.2005 -0.5503  0.3614
  557MOL0     O73439   7.612   0.492   5.483  1.3069  0.1012 -0.1147
  557MOL0     C73440   7.793   0.508   5.726  0.2674 -0.5900  0.5129
  557MOL0     C73441   7.887   0.528   5.824 -0.4449 -1.0815  0.5325
  557MOL0     N73442   8.567   0.878   6.298 -0.4741 -0.2066 -0.3214
  557MOL0     N73443   8.570   0.998   6.345  0.4256 -0.4504  0.1631
  557MOL0     C73444   8.868   1.617   5.678 -0.6039  0.3062  0.3643
  557MOL0     C73445   8.990   1.687   5.662  0.2503 -0.2943 -0.7978
  557MOL0     C73446   9.427   1.779   5.500  0.3445 -0.7428 -0.8885
  557MOL0     C73447   9.437   1.875   5.598  0.5735 -0.0509 -0.4485
  557MOL0     C73448   9.561   1.947   5.620 -0.4048 -0.2816  1.4299
  557MOL0     C73449   9.677   1.909   5.549  0.2087  0.3824  0.0272
  557MOL0     O73450   9.792   1.974   5.576  0.5002 -0.2309 -0.0664
  557MOL0     C73451   9.909   1.901   5.589  0.2865 -0.1552 -0.1920
  557MOL0     C73452   9.990   1.995   5.675  1.3218 -0.3888  0.4038
  557MOL0     C73453  10.135   1.947   5.654  0.0138  0.6900 -0.6089
  557MOL0     C73454  10.167   1.840   5.746 -0.0137 -0.0753 -0.3100
  557MOL0     C73455  10.311   1.816   5.754 -0.0025  0.3936  0.3684
  557MOL0     C73456  10.431   1.792   5.751 -0.4986  0.1273 -0.5800
  557MOL0     C73457   9.668   1.808   5.454 -1.0454  0.2430  0.2353
  557MOL0     C73458   9.542   1.743   5.426 -0.6559  0.6442  0.5699
  557MOL0     H73459   9.082   1.589   5.353  0.4556  0.1194  0.1316
  557MOL0     H73460   8.853   1.455   5.390  0.7385  1.8564 -0.2643
  557MOL0     H73461   8.596   1.536   5.730 -1.6378 -1.1113  1.0553
  557MOL0     H73462   8.712   1.431   5.821  0.6378  1.3182 -0.6784
  557MOL0     H73463   8.613   1.220   5.730  0.4826  0.5643  0.9273
  557MOL0     H73464   8.496   1.310   5.651  0.6204 -0.3280 -0.9573
  557MOL0     H73465   8.390   1.229   5.837  2.8178 -2.8156 -1.0937
  557MOL0     H73466   8.402   1.397   5.871  1.0408  1.2462  4.0772
  557MOL0     H73467   8.589   1.172   5.983  2.4266  1.3344  0.6075
  557MOL0     H73468   8.634   1.339   5.995 -3.1450  3.1553  0.9582
  557MOL0     H73469   8.429   1.402   6.109 -0.8120 -0.6876 -2.4317
  557MOL0     H73470   8.533   1.279   6.203 -0.6879  0.7160  0.5273
  557MOL0     H73471   8.376   1.092   6.112 -1.7168  0.1181 -0.3806
  557MOL0     H73472   8.279   1.231   6.061 -0.6377 -0.9341  0.6989
  557MOL0     H73473   8.262   1.303   6.286  0.0319 -0.1072 -2.4790
  557MOL0     H73474   8.210   1.131   6.270  1.4117 -1.5421  0.2601
  557MOL0     H73475   8.338   1.160   6.494  1.4519  0.0387  0.8520
  557MOL0     H73476   8.459   1.244   6.400 -1.3535  1.0672 -2.3568
  557MOL0     H73477   8.247   0.928   6.355  0.3558 -1.3943 -1.5700
  557MOL0     H73478   8.397   0.634   6.349 -0.8896 -3.4870 -2.0330
  557MOL0     H73479   8.443   0.643   6.190  2.8154 -0.9947  3.6738
  557MOL0     H73480   8.170   0.750   6.282  0.3717  0.7068  0.6754
  557MOL0     H73481   8.203   0.589   6.210  3.0157 -0.1095 -0.0939
  557MOL0     H73482   8.261   0.862   6.096 -0.3468  1.4841  0.5533
  557MOL0     H73483   8.281   0.706   6.007 -3.1018 -0.5522 -1.6550
  557MOL0     H73484   8.092   0.860   5.942  3.4530 -2.2676 -3.1904
  557MOL0     H73485   8.017   0.800   6.091  0.0991 -0.0036 -0.0919
  557MOL0     H73486   7.931   0.863   5.798 -2.6128  2.4684 -0.4393
  557MOL0     H73487   7.763   0.827   5.606 -0.4975 -0.5648 -0.1401
  557MOL0     H73488   7.346   0.694   5.627  1.2638  0.2090  0.2733
  557MOL0     H73489   7.132   0.691   5.504 -0.0645 -0.6443  2.0460
  557MOL0     H73490   6.972   0.749   5.349  2.6001  0.7090 -0.5384
  557MOL0     H73491   6.966   0.563   5.345 -0.8641  0.7932 -0.0064
  557MOL0     H73492   6.879   0.642   5.087 -1.2427  0.6584 -1.1124
  557MOL0     H73493   6.882   0.795   5.172  0.4729  0.7301  2.1188
  557MOL0     H73494   6.688   0.563   5.226 -1.3738  0.3689 -3.0101
  557MOL0     H73495   6.660   0.706   5.135  2.1421  2.1969 -0.7352
  557MOL0     H73496   6.761   0.736   5.418 -2.0714  0.4481  2.2276
  557MOL0     H73497   6.683   0.856   5.315 -2.9388  0.7954  0.1399
  557MOL0     H73498   6.564   0.609   5.452  3.2154  1.5764  2.4183
  557MOL0     H73499   6.449   0.707   5.356 -1.4955  0.6753  1.8359
  557MOL0     H73500   6.509   0.885   5.526  1.5882 -0.2604 -2.1802
  557MOL0     H73501   6.634   0.767   5.581  1.6750  3.0914 -1.6193
  557MOL0     H73502   6.324   0.765   5.583  1.5279  0.8535 -3.2200
  557MOL0     H73503   6.421   0.628   5.647 -3.2913  0.2860  0.1624
  557MOL0     H73504   6.332   0.739   5.828 -1.7703  1.0736 -1.3781
  557MOL0     H73505   6.402   0.895   5.780 -2.4655 -1.0086 -2.0126
  557MOL0     H73506   7.337   0.666   5.125 -0.9960 -0.3240  0.4094
  557MOL0     H73507   7.551   0.678   5.252 -0.2549  2.5851  0.3924
  557MOL0     H73508   7.766   0.404   5.711 -0.5013 -1.1498  4.4980
  557MOL0     H73509   7.930   0.447   5.881 -0.9455 -0.1023  2.3833
  557MOL0     H73510   8.809   1.638   5.767  1.3270  4.5521  0.8777
  557MOL0     H73511   9.021   1.758   5.739 -3.8735 -0.0988  0.9311
  557MOL0     H73512   9.348   1.909   5.649  1.1351 -0.8982  1.1685
  557MOL0     H73513   9.577   2.030   5.687  3.6665  2.1779 -2.1070
  557MOL0     H73514   9.965   1.887   5.496  1.5074 -0.5049  0.5769
  557MOL0     H73515   9.872   1.813   5.642 -3.4381  0.7528 -0.9383
  557MOL0     H73516   9.998   2.099   5.642  0.5818  0.6342  3.1999
  557MOL0     H73517   9.950   1.990   5.777 -1.6465 -2.9432 -0.7371
  557MOL0     H73518  10.200   2.032   5.676 -0.0191  0.1492  1.8811
  557MOL0     H73519  10.148   1.920   5.548 -0.7139  2.1885 -1.1053
  557MOL0     H73520  10.126   1.848   5.846 -0.9484 -1.1033 -0.5950
  557MOL0     H73521  10.132   1.754   5.688  0.5380 -0.7861  0.3876
  557MOL0     H73522  10.533   1.758   5.754 -0.2032  0.9848 -0.5123
  557MOL0     H73523   9.763   1.782   5.408 -2.4119 -0.5447 -2.3988
  557MOL0     H73524   9.530   1.667   5.350 -0.5265 -0.5265  1.6760
  558MOL0     O73525   7.952   6.728   6.611 -1.7106  0.2574  0.3177
  558MOL0     C73526   7.984   6.655   6.514 -0.6487 -0.5528  0.4821
  558MOL0     O73527   7.944   6.668   6.384 -0.1811  0.2887 -0.1874
  558MOL0     C73528   7.869   6.777   6.358 -0.1622  0.9394  0.8505
  558MOL0     C73529   7.734   6.772   6.351  0.5640  0.5284 -0.1906
  558MOL0     C73530   7.662   6.892   6.327 -0.8724  0.7599 -0.1053
  558MOL0     C73531   7.719   7.017   6.296 -0.5449 -0.2752 -0.2023
  558MOL0     O73532   7.638   7.132   6.277 -0.3848 -1.0216 -0.4817
  558MOL0     C73533   7.689   7.268   6.298  0.9658  0.4598  0.3954
  558MOL0     C73534   7.573   7.371   6.287  0.5937 -0.3679  0.9139
  558MOL0     C73535   7.490   7.369   6.150 -0.8074 -0.7389 -0.5578
  558MOL0     C73536   7.342   7.386   6.177  0.1554 -0.8950  0.1625
  558MOL0     C73537   7.287   7.269   6.258  0.7800  0.3549  0.9333
  558MOL0     C73538   7.157   7.219   6.203  0.3271  0.0077 -0.8834
  558MOL0     C73539   7.178   7.110   6.095  0.5141  0.1803 -0.1463
  558MOL0     C73540   7.220   7.150   5.948  0.6669  0.2181 -0.2053
  558MOL0     N73541   7.104   7.165   5.858  0.3952  0.5197 -0.3323
  558MOL0     C73542   7.027   7.283   5.839  0.1788 -1.0157 -0.2579
  558MOL0     C73543   6.908   7.243   5.792  0.8753  0.3745  0.1956
  558MOL0     C73544   6.796   7.331   5.772  0.2528  0.5200 -0.1208
  558MOL0     C73545   6.723   7.303   5.639  0.9542 -0.2502  0.0856
  558MOL0     C73546   6.801   7.315   5.515  0.2741  0.6244  0.7968
  558MOL0     C73547   6.713   7.277   5.399  0.3443 -0.2511  0.1596
  558MOL0     O73548   6.794   7.300   5.279 -0.5000 -1.0928  0.6611
  558MOL0     C73549   6.791   7.428   5.213 -0.1013  0.5665  0.2118
  558MOL0     C73550   6.870   7.442   5.098  0.5697 -0.0256  0.5780
  558MOL0     C73551   6.880   7.570   5.036  0.6165 -1.1451 -0.5275
  558MOL0     C73552   6.810   7.682   5.085 -1.1325  0.8654 -0.2759
  558MOL0     C73553   6.836   7.821   5.037 -0.2908 -0.2287  0.8348
  558MOL0     O73554   6.755   7.915   5.096  0.4884 -0.0187  0.2692
  558MOL0     C73555   6.777   8.040   5.061 -0.1403 -0.8561  0.5752
  558MOL0     C73556   6.864   8.118   5.135 -0.2366 -0.6066 -1.0666
  558MOL0     C73557   6.905   8.248   5.102  0.5022 -0.3008  0.0555
  558MOL0     C73558   6.836   8.314   5.001  1.0826 -0.0334  0.5253
  558MOL0     O73559   6.862   8.442   4.980 -0.3575 -0.8402 -0.4722
  558MOL0     C73560   6.768   8.542   4.967  0.0735  0.6840 -0.2064
  558MOL0     C73561   6.699   8.593   5.105  0.4111 -0.1916  0.5201
  558MOL0     C73562   6.599   8.492   5.178  0.4044 -0.0562  0.3428
  558MOL0     C73563   6.453   8.532   5.138 -0.2610  0.5474  0.8997
  558MOL0     C73564   6.341   8.426   5.157  0.0293 -0.2210  0.4259
  558MOL0     C73565   6.329   8.359   5.021 -0.0102  0.4308 -0.2653
  558MOL0     C73566   6.266   8.217   5.015 -0.2049  0.2705 -0.5556
  558MOL0     C73567   6.128   8.223   5.086 -0.4575  0.2007  0.5921
  558MOL0    Cl73568   6.042   8.376   5.037  0.2367  0.4087 -0.3425
  558MOL0     C73569   6.749   8.236   4.915 -0.1275 -0.5076  0.1002
  558MOL0     C73570   6.723   8.098   4.943  0.7696  0.1909 -0.3292
  558MOL0     O73571   6.931   7.844   4.964 -0.1970 -0.2262  0.0589
  558MOL0     C73572   6.732   7.662   5.199 -0.6042  1.0494  0.0442
  558MOL0     C73573   6.719   7.537   5.255 -0.3688  0.0315  0.2509
  558MOL0     N73574   6.922   7.102   5.768 -0.2923 -0.2707 -0.8484
  558MOL0     N73575   7.035   7.059   5.813 -1.0222  0.1500 -0.6655
  558MOL0     C73576   7.859   7.014   6.300  0.5165  0.6028 -0.2361
  558MOL0     C73577   7.932   6.900   6.328  0.1674  0.1411 -0.1611
  558MOL0     C73578   8.096   6.556   6.537  0.8759 -0.2786  0.1420
  558MOL0     C73579   8.183   6.495   6.439  1.6558  0.0229  0.4158
  558MOL0     C73580   8.304   6.434   6.481 -0.1718 -0.3332  0.1211
  558MOL0     C73581   8.333   6.412   6.617 -0.1846 -0.0328 -0.0147
  558MOL0     O73582   8.451   6.351   6.653  1.2692  0.9901  0.0843
  558MOL0     C73583   8.498   6.232   6.575  0.0503  0.4081 -0.0829
  558MOL0     C73584   8.419   6.105   6.598 -0.2960 -0.4565 -0.3555
  558MOL0     C73585   8.467   5.984   6.507 -0.6855  1.0323 -0.1996
  558MOL0     C73586   8.380   5.864   6.536  0.0309  0.1711 -0.2659
  558MOL0     C73587   8.350   5.785   6.423 -1.2157 -0.2116 -0.1468
  558MOL0     C73588   8.355   5.736   6.314  0.4551 -0.7864 -0.5321
  558MOL0     C73589   8.247   6.456   6.715  0.3285  0.9543 -0.2347
  558MOL0     C73590   8.129   6.528   6.676 -0.1122  0.5579 -0.8422
  558MOL0     H73591   7.690   6.672   6.357  1.8373  0.0167  1.0463
  558MOL0     H73592   7.554   6.887   6.327 -1.0387  3.1868  0.2496
  558MOL0     H73593   7.768   7.292   6.227  0.6716  0.0283 -0.0882
  558MOL0     H73594   7.735   7.275   6.397 -0.5279 -1.4571  1.2811
  558MOL0     H73595   7.630   7.464   6.288  3.1387 -1.8166  1.0334
  558MOL0     H73596   7.502   7.359   6.369 -1.2991  2.4487 -0.1638
  558MOL0     H73597   7.492   7.277   6.090  0.0025 -0.7858 -0.4629
  558MOL0     H73598   7.534   7.453   6.094 -0.6933  0.0600  0.6923
  558MOL0     H73599   7.339   7.472   6.244  2.4492 -2.7147  2.8449
  558MOL0     H73600   7.288   7.402   6.083 -0.9835 -1.8137  0.6339
  558MOL0     H73601   7.257   7.305   6.358 -1.2820 -1.3261  0.9845
  558MOL0     H73602   7.363   7.192   6.273  1.3656 -0.0180 -3.0155
  558MOL0     H73603   7.092   7.295   6.157 -3.3714 -2.9187 -0.9916
  558MOL0     H73604   7.094   7.180   6.283  1.0666  0.5090 -0.0345
  558MOL0     H73605   7.254   7.034   6.117 -0.8632 -1.3769 -0.4904
  558MOL0     H73606   7.085   7.055   6.077  1.3575 -1.8119  1.1962
  558MOL0     H73607   7.278   7.067   5.910 -1.7918 -0.4065 -2.9652
  558MOL0     H73608   7.288   7.236   5.944  0.8678  0.0161 -1.6726
  558MOL0     H73609   7.054   7.382   5.874 -0.3584 -1.1014  0.4113
  558MOL0     H73610   6.830   7.435   5.773  1.7579  0.0468  0.3712
  558MOL0     H73611   6.723   7.323   5.854 -4.1463  2.6927 -3.3703
  558MOL0     H73612   6.647   7.381   5.630  0.9125 -0.2143  0.6915
  558MOL0     H73613   6.660   7.215   5.653 -1.3645  1.4383  0.6848
  558MOL0     H73614   6.840   7.415   5.495  0.9365 -0.0092 -1.3977
  558MOL0     H73615   6.894   7.258   5.508  0.9653  1.7232  0.6730
  558MOL0     H73616   6.614   7.323   5.398 -0.7023 -2.3218  1.0253
  558MOL0     H73617   6.691   7.170   5.403 -1.3278  0.0766  0.6025
  558MOL0     H73618   6.940   7.364   5.069  0.9418  0.4022  0.3128
  558MOL0     H73619   6.938   7.578   4.944  0.5042  0.7150 -0.4606
  558MOL0     H73620   6.917   8.079   5.221 -1.2938 -2.2257 -1.0942
  558MOL0     H73621   6.987   8.282   5.164  1.2364  1.8430 -1.9888
  558MOL0     H73622   6.697   8.513   4.889  0.1202  1.7980 -0.6824
  558MOL0     H73623   6.818   8.634   4.933  0.5325  1.8571  3.1801
  558MOL0     H73624   6.641   8.682   5.079  3.6854  2.4067  1.4604
  558MOL0     H73625   6.771   8.627   5.180  0.3672  0.5595  0.2334
  558MOL0     H73626   6.599   8.521   5.283  0.7356  1.9653 -0.1728
  558MOL0     H73627   6.618   8.384   5.177 -1.3152 -0.3827 -0.5502
  558MOL0     H73628   6.415   8.619   5.193 -1.1775  0.1644  0.8872
  558MOL0     H73629   6.446   8.562   5.032  0.4672 -2.5893 -0.1423
  558MOL0     H73630   6.254   8.482   5.191  0.6936  0.0322  1.8157
  558MOL0     H73631   6.364   8.364   5.245 -5.3212 -2.5139  0.5944
  558MOL0     H73632   6.426   8.350   4.972 -0.5831  0.4666 -1.4437
  558MOL0     H73633   6.271   8.427   4.959 -0.4758  0.8103  0.5651
  558MOL0     H73634   6.256   8.178   4.914 -3.7380 -2.2494  0.5616
  558MOL0     H73635   6.331   8.146   5.067  1.3296  0.4631 -2.1552
  558MOL0     H73636   6.150   8.237   5.193  1.2185 -0.0128  0.2997
  558MOL0     H73637   6.082   8.126   5.064 -0.7807  0.2187  1.1577
  558MOL0     H73638   6.693   8.299   4.846  1.4168 -0.2114 -0.9345
  558MOL0     H73639   6.648   8.052   4.879  1.1472  1.3833 -1.6779
  558MOL0     H73640   6.670   7.732   5.254  0.2571 -0.0353  2.5530
  558MOL0     H73641   6.657   7.537   5.344 -1.7643  1.8622 -0.6618
  558MOL0     H73642   7.912   7.107   6.286  0.3790  0.6185 -0.6503
  558MOL0     H73643   8.040   6.903   6.326  0.2160 -0.8047 -2.3977
  558MOL0     H73644   8.174   6.494   6.331 -0.0559 -1.6357  0.5118
  558MOL0     H73645   8.379   6.411   6.406  1.8995  0.7370  1.7908
  558MOL0     H73646   8.596   6.213   6.618  0.9348 -0.0067 -2.1730
  558MOL0     H73647   8.513   6.242   6.468 -0.9073 -2.4216 -0.5539
  558MOL0     H73648   8.439   6.073   6.701  3.1151  1.1841 -0.3787
  558MOL0     H73649   8.311   6.123   6.591 -0.3192  0.0603  0.9150
  558MOL0     H73650   8.570   5.955   6.532 -1.0969 -0.2750  0.0480
  558MOL0     H73651   8.455   6.001   6.399 -1.0526 -1.4792 -0.6066
  558MOL0     H73652   8.418   5.792   6.609  0.7992 -0.0138 -0.8279
  558MOL0     H73653   8.291   5.905   6.585  2.6444  3.2650  2.4409
  558MOL0     H73654   8.358   5.675   6.226 -2.4785 -1.0549 -0.5677
  558MOL0     H73655   8.279   6.433   6.817  2.0407  0.1294 -0.9162
  558MOL0     H73656   8.060   6.561   6.753  1.6363  2.0044  0.1958
  559MOL0     O73657   6.179   4.141   3.822  0.8028 -0.3453 -0.5137
  559MOL0     C73658   6.183   4.029   3.778 -0.3064  1.0175 -0.1168
  559MOL0     O73659   6.085   3.932   3.776  0.5497  0.6630  0.0697
  559MOL0     C73660   5.969   3.937   3.850 -1.0500 -0.0229 -0.9628
  559MOL0     C73661   5.873   3.849   3.816 -0.1095  0.6891  0.3849
  559MOL0     C73662   5.751   3.833   3.888 -0.0216  0.0150  0.1783
  559MOL0     C73663   5.720   3.916   3.996 -0.0842 -0.0505 -0.7693
  559MOL0     O73664   5.602   3.882   4.061  0.0471  0.3007  0.1691
  559MOL0     C73665   5.543   3.988   4.131  0.2767 -0.6761 -0.4183
  559MOL0     C73666   5.390   3.976   4.134  0.0750  0.0072  0.7176
  559MOL0     C73667   5.351   3.888   4.260  0.7964 -0.1922 -0.1125
  559MOL0     C73668   5.201   3.910   4.306  0.3020 -0.7464 -0.8069
  559MOL0     C73669   5.174   4.049   4.357  0.2808  0.4159  0.5853
  559MOL0     C73670   5.020   4.055   4.382  0.9957 -0.3373 -0.0934
  559MOL0     C73671   4.970   4.203   4.393 -0.1998 -1.1757  0.7778
  559MOL0     C73672   4.816   4.214   4.405  0.3780  0.2328  0.7631
  559MOL0     N73673   4.773   4.141   4.522  0.3592 -0.4778 -0.2522
  559MOL0     C73674   4.640   4.097   4.527  0.0492  0.0879 -0.1727
  559MOL0     C73675   4.613   4.098   4.662 -0.4207  0.2333  0.3144
  559MOL0     C73676   4.468   4.105   4.713  0.8648 -0.1738  0.4627
  559MOL0     C73677   4.424   4.253   4.729 -0.5846  0.6932 -0.9245
  559MOL0     C73678   4.337   4.269   4.849  0.1657  0.3854 -0.3678
  559MOL0     C73679   4.194   4.218   4.848  0.8704 -0.6346  0.2093
  559MOL0     O73680   4.185   4.075   4.860  0.4980 -1.2589 -0.5963
  559MOL0     C73681   4.067   3.998   4.873 -0.8012  0.3364 -0.0842
  559MOL0     C73682   3.942   4.052   4.861  0.8149  1.3553 -0.5049
  559MOL0     C73683   3.829   3.970   4.876 -0.5502 -0.1694  0.0620
  559MOL0     C73684   3.843   3.833   4.908  0.2336 -1.0022 -0.6287
  559MOL0     C73685   3.728   3.745   4.912 -0.3271 -0.4077 -0.3431
  559MOL0     O73686   3.735   3.607   4.910  0.4140 -1.0175  0.0181
  559MOL0     C73687   3.612   3.546   4.935  0.5616 -0.9045 -0.7651
  559MOL0     C73688   3.518   3.533   4.831 -0.0306  0.2564 -0.0379
  559MOL0     C73689   3.397   3.474   4.858  0.5646 -0.3365  0.0515
  559MOL0     C73690   3.373   3.417   4.987 -0.3657 -1.7349 -0.5831
  559MOL0     O73691   3.270   3.339   5.021 -0.0913 -0.1101 -0.2236
  559MOL0     C73692   3.167   3.322   4.923 -0.4197  0.1574  0.4231
  559MOL0     C73693   3.059   3.230   4.983  0.0067 -0.4407  0.3349
  559MOL0     C73694   3.108   3.093   5.036  0.8117 -1.1512  0.1617
  559MOL0     C73695   2.985   3.015   5.077  0.0666  0.2796  0.5776
  559MOL0     C73696   2.914   2.932   4.963  0.5543 -0.0033  0.9434
  559MOL0     C73697   2.862   3.000   4.832 -0.0290 -0.0621 -0.2621
  559MOL0     C73698   2.773   2.896   4.756 -0.3349 -0.0420  0.1207
  559MOL0     C73699   2.715   2.960   4.629 -1.0189  0.0926 -0.7263
  559MOL0    Cl73700   2.604   3.096   4.655 -0.0401  0.0580  0.5944
  559MOL0     C73701   3.468   3.442   5.091  0.2188 -0.1147 -0.6151
  559MOL0     C73702   3.596   3.494   5.063 -0.2759  0.0985 -0.1435
  559MOL0     O73703   3.624   3.804   4.916 -0.0691  0.4360  0.1707
  559MOL0     C73704   3.969   3.783   4.924 -0.1492 -0.7535 -0.0865
  559MOL0     C73705   4.083   3.859   4.895 -0.2446 -0.9064 -0.2695
  559MOL0     N73706   4.735   4.123   4.736  0.9192  0.4832  0.2396
  559MOL0     N73707   4.816   4.159   4.649  0.5618 -0.0791 -0.1065
  559MOL0     C73708   5.812   4.023   4.024  0.3416  0.2553  0.0698
  559MOL0     C73709   5.939   4.019   3.957 -0.3061  0.3364  0.1144
  559MOL0     C73710   6.309   3.988   3.718 -0.6253 -0.0265 -0.7653
  559MOL0     C73711   6.314   3.884   3.632  0.2762  0.0053  0.9319
  559MOL0     C73712   6.429   3.867   3.552  0.4487  0.1708 -0.1371
  559MOL0     C73713   6.548   3.947   3.568  0.1672 -0.3980  0.3905
  559MOL0     O73714   6.664   3.938   3.490 -0.4255  0.9131 -1.1085
  559MOL0     C73715   6.685   3.819   3.410 -0.1640 -0.4707 -0.4072
  559MOL0     C73716   6.659   3.843   3.265 -0.5211 -0.6380  0.7685
  559MOL0     C73717   6.723   3.972   3.211  0.0135 -0.5473 -0.0415
  559MOL0     C73718   6.673   4.023   3.075 -0.6637  0.6514  0.1934
  559MOL0     C73719   6.738   3.957   2.965  0.4022 -0.1423 -0.1570
  559MOL0     C73720   6.800   3.910   2.875 -0.8330 -0.1309 -0.5417
  559MOL0     C73721   6.529   4.042   3.670 -0.4809  0.0015  0.4459
  559MOL0     C73722   6.422   4.062   3.751  0.2675 -0.4283  0.0134
  559MOL0     H73723   5.892   3.797   3.722  0.5010 -0.4757  1.1271
  559MOL0     H73724   5.696   3.745   3.855 -1.2239 -0.0472  2.1580
  559MOL0     H73725   5.560   4.086   4.086  0.9846 -0.3015  0.6192
  559MOL0     H73726   5.583   3.993   4.232 -0.2212 -1.1942 -0.1910
  559MOL0     H73727   5.341   3.941   4.043 -1.2190  0.4586  1.2148
  559MOL0     H73728   5.348   4.077   4.139  0.0354 -0.0639  2.4089
  559MOL0     H73729   5.427   3.898   4.339  1.4266  2.1717 -0.9183
  559MOL0     H73730   5.360   3.786   4.223 -2.0669 -0.3347 -0.6658
  559MOL0     H73731   5.135   3.892   4.221 -0.3510  1.9404 -0.9707
  559MOL0     H73732   5.177   3.838   4.384 -3.3636  1.2929  0.1918
  559MOL0     H73733   5.213   4.119   4.282 -2.1788  0.4449 -0.7533
  559MOL0     H73734   5.225   4.087   4.446 -1.2994  1.5901  1.0142
  559MOL0     H73735   4.995   4.004   4.475 -2.8551  3.5774  1.3791
  559MOL0     H73736   4.963   4.008   4.302  1.1212 -0.9424  0.1696
  559MOL0     H73737   5.014   4.273   4.465 -0.7664 -1.2941  1.2442
  559MOL0     H73738   4.994   4.240   4.292  0.7562 -1.5777  0.8440
  559MOL0     H73739   4.777   4.159   4.319  0.2112 -0.0313  1.0048
  559MOL0     H73740   4.776   4.316   4.402 -0.5476 -0.1472 -0.7934
  559MOL0     H73741   4.579   4.079   4.439  1.8220 -2.9977 -0.9487
  559MOL0     H73742   4.461   4.047   4.806  1.3084 -1.5506 -0.3256
  559MOL0     H73743   4.398   4.053   4.646  2.9071 -0.4592 -1.5824
  559MOL0     H73744   4.382   4.288   4.635 -1.8616 -0.4835 -0.8211
  559MOL0     H73745   4.505   4.323   4.749  0.3438 -0.2745 -1.1916
  559MOL0     H73746   4.388   4.229   4.938 -2.0841 -0.9761  0.3907
  559MOL0     H73747   4.332   4.375   4.876  0.0561  0.9414 -2.4305
  559MOL0     H73748   4.146   4.269   4.764  0.8417 -0.2011  0.4835
  559MOL0     H73749   4.153   4.265   4.938  0.6801  0.9403 -0.6518
  559MOL0     H73750   3.924   4.156   4.835  2.7838  1.8197 -0.1550
  559MOL0     H73751   3.733   4.022   4.872 -0.7508 -0.1693  2.8096
  559MOL0     H73752   3.555   3.576   4.739  1.1577 -2.5995 -1.0234
  559MOL0     H73753   3.332   3.474   4.771  0.7454  1.5828 -0.1321
  559MOL0     H73754   3.212   3.260   4.846  0.7511 -2.0634  2.7393
  559MOL0     H73755   3.129   3.407   4.865 -2.6398 -1.9528 -1.4413
  559MOL0     H73756   2.973   3.225   4.916 -1.0439 -1.1054  1.6623
  559MOL0     H73757   3.018   3.293   5.063 -1.7870  1.4862 -1.9508
  559MOL0     H73758   3.172   3.120   5.121 -0.8478  2.3173  0.4478
  559MOL0     H73759   3.164   3.042   4.957 -0.2989 -1.1387 -0.6477
  559MOL0     H73760   3.019   2.943   5.152  0.1741 -0.8595 -0.5255
  559MOL0     H73761   2.908   3.075   5.125 -0.2398  0.1656  0.2336
  559MOL0     H73762   2.831   2.889   5.019  0.3916 -0.5117  0.3211
  559MOL0     H73763   2.975   2.847   4.930 -1.0636 -2.0595  2.9384
  559MOL0     H73764   2.948   3.037   4.776  1.4504 -0.1743  1.8243
  559MOL0     H73765   2.799   3.082   4.869 -0.6545 -1.2673  1.4807
  559MOL0     H73766   2.845   2.822   4.721  0.3067  0.8541 -0.4846
  559MOL0     H73767   2.693   2.847   4.813 -1.9486  1.5388 -0.7048
  559MOL0     H73768   2.644   2.889   4.586 -1.7972  0.0532  0.5512
  559MOL0     H73769   2.785   2.971   4.547 -2.9993  0.3938 -2.4627
  559MOL0     H73770   3.432   3.407   5.187 -1.3990 -3.3269 -2.2334
  559MOL0     H73771   3.673   3.506   5.139  0.9710 -2.5482 -0.8633
  559MOL0     H73772   3.979   3.676   4.939 -0.8388 -1.0042 -1.2631
  559MOL0     H73773   4.185   3.825   4.905 -0.9152 -2.9337  0.2051
  559MOL0     H73774   5.784   4.103   4.091 -0.6091 -0.9423  1.1492
  559MOL0     H73775   6.015   4.093   3.981  0.0182 -0.0587  0.2957
  559MOL0     H73776   6.233   3.813   3.615 -1.1516  1.8924 -0.6243
  559MOL0     H73777   6.417   3.792   3.475 -1.7150 -0.5354  0.8007
  559MOL0     H73778   6.621   3.733   3.433  0.2560 -0.4136  1.0845
  559MOL0     H73779   6.789   3.791   3.434 -0.2470  0.4911  1.2434
  559MOL0     H73780   6.694   3.757   3.207 -1.2769 -0.5162  0.1161
  559MOL0     H73781   6.550   3.847   3.256 -0.3620  1.3119 -1.2670
  559MOL0     H73782   6.832   3.962   3.215  0.0704  0.1833  0.4467
  559MOL0     H73783   6.691   4.050   3.281 -1.7865  2.1579 -3.5799
  559MOL0     H73784   6.566   4.015   3.056 -0.7748  1.5178  0.4105
  559MOL0     H73785   6.696   4.130   3.070  0.6338  0.3446 -2.6995
  559MOL0     H73786   6.857   3.854   2.804 -2.9539 -1.5640 -1.2320
  559MOL0     H73787   6.613   4.110   3.678 -1.6010  1.8453 -1.9955
  559MOL0     H73788   6.426   4.141   3.825 -1.4675  0.0259 -0.3335
  560MOL0     O73789  10.408   0.242  10.207  0.3836  0.2599 -0.8008
  560MOL0     C73790  10.450   0.348  10.174 -0.0467 -0.6387  0.5327
  560MOL0     O73791  10.413   0.420  10.067  0.4406 -0.1137  0.0205
  560MOL0     C73792  10.305   0.377   9.997 -0.1273  0.8860 -0.0316
  560MOL0     C73793  10.324   0.336   9.863  0.2859  0.4427 -0.3392
  560MOL0     C73794  10.208   0.318   9.785  0.2601 -0.7480  0.1480
  560MOL0     C73795  10.084   0.304   9.845  0.6588 -0.0129  0.4641
  560MOL0     O73796   9.971   0.253   9.781  0.1456  0.0134  0.1449
  560MOL0     C73797   9.950   0.117   9.767  0.9420 -0.2844 -0.1878
  560MOL0     C73798   9.890   0.053   9.896  0.1386  0.7027 -0.1710
  560MOL0     C73799   9.756   0.120   9.944 -0.4508  0.2502  0.6731
  560MOL0     C73800   9.746   0.074  10.088 -0.1120 -0.4641  0.8827
  560MOL0     C73801   9.620   0.118  10.160  0.9286  0.9861  0.5661
  560MOL0     C73802   9.631   0.260  10.193  0.3183 -0.6228 -0.7036
  560MOL0     C73803   9.520   0.323  10.285  0.7883 -0.4257 -0.0236
  560MOL0     C73804   9.493   0.235  10.412 -0.6673 -0.2858  0.1049
  560MOL0     N73805   9.387   0.295  10.495 -0.6546  0.0493  0.1039
  560MOL0     C73806   9.373   0.422  10.543  0.4756  0.3928  0.3007
  560MOL0     C73807   9.255   0.417  10.604 -0.1366 -0.4336  1.0637
  560MOL0     C73808   9.196   0.543  10.656 -0.4842 -0.4545 -0.3312
  560MOL0     C73809   9.238   0.563  10.801 -0.0094 -0.6461 -0.3673
  560MOL0     C73810   9.240   0.441  10.892  0.7346 -0.5229  0.2541
  560MOL0     C73811   9.239   0.469  11.040  0.0678  1.1531  0.5710
  560MOL0     O73812   9.340   0.553  11.083 -0.0375  0.5965  0.4838
  560MOL0     C73813   9.476   0.517  11.077  0.7725  0.6962  0.5623
  560MOL0     C73814   9.562   0.618  11.050  1.0055  0.1120 -0.4244
  560MOL0     C73815   9.698   0.597  11.033 -0.5058 -0.3056 -0.5718
  560MOL0     C73816   9.756   0.475  11.062  0.6473 -0.2908 -0.0147
  560MOL0     C73817   9.905   0.459  11.076 -0.3187  0.5920 -0.5021
  560MOL0     O73818   9.986   0.572  11.045 -0.1741  0.0231 -1.6073
  560MOL0     C73819  10.120   0.561  11.076  0.4892  0.8143  0.5144
  560MOL0     C73820  10.226   0.539  10.982  0.2481  0.1862 -0.3303
  560MOL0     C73821  10.358   0.523  11.023  0.0182  0.2366  0.3547
  560MOL0     C73822  10.396   0.539  11.153  0.7023 -0.0321  0.2756
  560MOL0     O73823  10.536   0.558  11.170 -0.2407 -0.2416 -0.1969
  560MOL0     C73824  10.604   0.487  11.274  0.1705  1.0492 -0.7931
  560MOL0     C73825  10.749   0.535  11.282 -0.1357 -0.1190 -0.2901
  560MOL0     C73826  10.850   0.465  11.183  1.2353  0.0392  0.7785
  560MOL0     C73827  10.996   0.522  11.165  0.4020  0.9172 -0.4024
  560MOL0     C73828  10.992   0.667  11.146  0.0809 -0.2394 -0.2894
  560MOL0     C73829  11.134   0.722  11.132 -0.1040  0.1533  1.3774
  560MOL0     C73830  11.142   0.880  11.097 -0.6411  0.3891 -1.0525
  560MOL0     C73831  11.078   0.910  10.958 -0.0286  0.1372  0.0214
  560MOL0    Cl73832  11.179   0.827  10.845 -0.2525 -0.1895  0.1272
  560MOL0     C73833  10.300   0.556  11.250  0.7860 -0.1412 -0.3996
  560MOL0     C73834  10.168   0.567  11.207  0.5085 -0.8738 -0.2613
  560MOL0     O73835   9.953   0.349  11.098  0.9234 -0.1124  0.1908
  560MOL0     C73836   9.666   0.376  11.109  0.5084 -0.3090  0.0583
  560MOL0     C73837   9.528   0.384  11.102  0.0258 -0.7379 -1.1551
  560MOL0     N73838   9.195   0.297  10.607 -1.0504  0.4365  0.6319
  560MOL0     N73839   9.285   0.226  10.548  0.3579  0.2320 -0.0162
  560MOL0     C73840  10.069   0.332   9.987 -0.6993 -0.0813 -0.5245
  560MOL0     C73841  10.181   0.369  10.059  1.3411  0.6694 -0.5431
  560MOL0     C73842  10.559   0.401  10.261  0.1974 -0.7809  0.2814
  560MOL0     C73843  10.583   0.351  10.388  0.1949 -0.4140 -0.4695
  560MOL0     C73844  10.676   0.405  10.471  0.4592  0.4061  0.0097
  560MOL0     C73845  10.751   0.521  10.431  0.6999 -0.2410 -0.3047
  560MOL0     O73846  10.852   0.587  10.503  0.6914  0.0005  0.1639
  560MOL0     C73847  10.852   0.554  10.640 -0.0180  0.5693  0.6230
  560MOL0     C73848  10.729   0.610  10.709  1.2424  0.0274  0.7293
  560MOL0     C73849  10.761   0.743  10.794  1.0625  0.1880  0.0329
  560MOL0     C73850  10.644   0.771  10.888 -0.7026  0.9248 -0.0600
  560MOL0     C73851  10.679   0.878  10.978  0.5142  0.6577  0.5877
  560MOL0     C73852  10.719   0.959  11.052  0.2652 -0.3186  0.8821
  560MOL0     C73853  10.719   0.571  10.303 -0.6675 -1.3557 -0.6288
  560MOL0     C73854  10.633   0.510  10.212  0.2764  0.3820  1.0759
  560MOL0     H73855  10.425   0.329   9.823 -0.7103  0.5990 -3.0909
  560MOL0     H73856  10.201   0.307   9.677 -0.7955 -1.9638  0.3065
  560MOL0     H73857  10.043   0.060   9.761 -0.6700 -2.9118 -2.8661
  560MOL0     H73858   9.889   0.097   9.679  0.2790  2.4479 -0.4339
  560MOL0     H73859   9.970   0.061   9.970 -0.8004  0.3743  0.9149
  560MOL0     H73860   9.867  -0.052   9.879 -4.0575  1.5463 -1.0094
  560MOL0     H73861   9.669   0.076   9.895  0.4271 -3.0390  1.7605
  560MOL0     H73862   9.757   0.229   9.942 -2.8513  0.3872  2.1962
  560MOL0     H73863   9.746  -0.035  10.077 -4.2183 -0.4519 -0.9196
  560MOL0     H73864   9.830   0.100  10.153  0.2830  0.3807  0.0585
  560MOL0     H73865   9.613   0.069  10.257 -0.4004 -2.4921 -1.1263
  560MOL0     H73866   9.529   0.098  10.103  1.2069 -2.3400  1.0825
  560MOL0     H73867   9.639   0.322  10.103 -1.0990 -0.9513 -1.0846
  560MOL0     H73868   9.721   0.261  10.256 -1.8818 -3.2445  2.8789
  560MOL0     H73869   9.556   0.420  10.320 -1.5863 -0.1657  2.0120
  560MOL0     H73870   9.435   0.338  10.218  2.6727  2.5128 -1.9891
  560MOL0     H73871   9.583   0.206  10.465  0.2826 -2.8186 -2.6290
  560MOL0     H73872   9.446   0.142  10.378 -1.8990  0.5307 -0.5200
  560MOL0     H73873   9.443   0.505  10.544  0.3552  0.8691 -4.6087
  560MOL0     H73874   9.087   0.546  10.649 -0.4075  1.6974 -1.6497
  560MOL0     H73875   9.222   0.628  10.591 -3.0939  0.3190 -0.4635
  560MOL0     H73876   9.169   0.644  10.829 -1.8596 -1.6790 -1.7205
  560MOL0     H73877   9.340   0.604  10.797 -0.8269  1.4950 -1.0707
  560MOL0     H73878   9.149   0.383  10.875  0.4000 -0.5348  1.9243
  560MOL0     H73879   9.321   0.376  10.859 -0.9948 -1.8191 -1.6656
  560MOL0     H73880   9.236   0.378  11.101  0.9847  2.4965  2.7402
  560MOL0     H73881   9.140   0.515  11.053 -0.3161  0.0152  2.0181
  560MOL0     H73882   9.544   0.725  11.038  0.4855 -0.1888 -2.8521
  560MOL0     H73883   9.759   0.683  11.008 -1.1845 -0.1588 -1.7712
  560MOL0     H73884  10.210   0.518  10.877  1.6482 -0.5012 -0.4300
  560MOL0     H73885  10.438   0.514  10.950 -2.5949 -2.7253 -2.4451
  560MOL0     H73886  10.614   0.380  11.257  0.5335  0.8067  0.7781
  560MOL0     H73887  10.564   0.506  11.374  1.4450 -0.3317  0.0200
  560MOL0     H73888  10.781   0.508  11.383  1.2713 -0.8742 -0.9187
  560MOL0     H73889  10.755   0.644  11.268 -0.8500 -0.0308  0.0631
  560MOL0     H73890  10.800   0.464  11.085 -0.8053  0.1235  1.7739
  560MOL0     H73891  10.852   0.358  11.206  1.6305  0.3331  2.1535
  560MOL0     H73892  11.069   0.486  11.238  0.9878  2.9344  0.0608
  560MOL0     H73893  11.025   0.469  11.074  0.1637 -0.0859  0.0838
  560MOL0     H73894  10.945   0.721  11.228  1.3795 -2.1166  1.8222
  560MOL0     H73895  10.944   0.688  11.050 -2.0351 -0.5032  0.6557
  560MOL0     H73896  11.192   0.675  11.051  2.3547  0.5333  2.8135
  560MOL0     H73897  11.185   0.694  11.225 -0.9235 -3.7443  0.8200
  560MOL0     H73898  11.092   0.934  11.178  0.9181  1.1189 -0.5525
  560MOL0     H73899  11.247   0.911  11.092 -0.7434  0.6891 -1.4782
  560MOL0     H73900  11.087   1.015  10.931  1.6525  0.8752  2.9938
  560MOL0     H73901  10.976   0.876  10.936  1.2833 -2.1415 -3.4146
  560MOL0     H73902  10.308   0.573  11.357 -1.7131  1.4279 -0.3948
  560MOL0     H73903  10.095   0.594  11.284  2.0645 -0.5133  1.1467
  560MOL0     H73904   9.711   0.285  11.147 -2.4028 -0.0916  4.9039
  560MOL0     H73905   9.453   0.316  11.141 -0.0976  0.2706  0.4598
  560MOL0     H73906   9.968   0.328  10.026 -1.1998 -2.6184 -1.8577
  560MOL0     H73907  10.183   0.375  10.168  3.1153  0.1577 -0.5242
  560MOL0     H73908  10.518   0.273  10.427  1.0644 -1.6094 -1.3194
  560MOL0     H73909  10.682   0.362  10.571 -0.6766 -2.0168 -0.8817
  560MOL0     H73910  10.944   0.593  10.686 -0.3473  0.9398  0.9720
  560MOL0     H73911  10.862   0.446  10.650 -2.7429  0.3621  1.7239
  560MOL0     H73912  10.641   0.621  10.645 -0.6689 -1.5902  2.8969
  560MOL0     H73913  10.693   0.534  10.779 -0.6209 -0.7512 -0.9752
  560MOL0     H73914  10.776   0.824  10.722 -1.4414  2.8928  2.3520
  560MOL0     H73915  10.847   0.723  10.858 -0.9228  0.7225  3.0484
  560MOL0     H73916  10.549   0.801  10.843 -1.5305 -0.3587  0.7557
  560MOL0     H73917  10.621   0.676  10.936  1.5632 -1.7524 -3.7822
  560MOL0     H73918  10.770   1.030  11.114  1.0826  0.9217 -1.1110
  560MOL0     H73919  10.759   0.667  10.273 -3.1096  0.0892  0.4212
  560MOL0     H73920  10.617   0.560  10.117  0.5981 -0.7735  0.3946
  561MOL0     O73921   6.605   7.356   7.070  0.1566 -0.2745  0.7311
  561MOL0     C73922   6.509   7.280   7.102  0.2542 -0.1073  0.1407
  561MOL0     O73923   6.520   7.161   7.179 -0.3668 -0.5062 -0.1830
  561MOL0     C73924   6.618   7.166   7.285  0.3961 -0.6624  0.5903
  561MOL0     C73925   6.663   7.289   7.346  0.3422  0.1636 -1.2674
  561MOL0     C73926   6.751   7.282   7.456 -0.6412 -1.0117  0.0782
  561MOL0     C73927   6.797   7.155   7.506  0.7208  0.1140  0.5054
  561MOL0     O73928   6.866   7.115   7.622  0.1485 -0.0315  0.5866
  561MOL0     C73929   6.923   7.205   7.707 -0.0174 -0.1522  0.5187
  561MOL0     C73930   6.956   7.147   7.848  0.0583  0.2761  0.2997
  561MOL0     C73931   6.987   7.257   7.944 -0.6642 -0.6490 -0.0203
  561MOL0     C73932   7.123   7.333   7.912 -0.4394 -0.8663 -0.1091
  561MOL0     C73933   7.182   7.386   8.044 -0.2839 -1.0343  0.0549
  561MOL0     C73934   7.100   7.501   8.115 -0.1584  0.5889 -0.0086
  561MOL0     C73935   7.158   7.542   8.247 -0.1355 -0.1913  0.1004
  561MOL0     C73936   7.059   7.637   8.323 -0.3774 -0.4339  0.8069
  561MOL0     N73937   7.036   7.773   8.269  0.1428  0.2057 -0.1609
  561MOL0     C73938   7.140   7.866   8.248 -0.0766 -0.0310 -0.3448
  561MOL0     C73939   7.080   7.989   8.236 -0.1948  0.4540 -0.3308
  561MOL0     C73940   7.142   8.126   8.185  0.7340  0.6609 -0.3075
  561MOL0     C73941   7.044   8.239   8.143  0.5570 -0.9174  0.0712
  561MOL0     C73942   7.123   8.370   8.126  0.2878 -0.1208  0.2316
  561MOL0     C73943   7.033   8.482   8.109 -0.4170  0.5836  0.6572
  561MOL0     O73944   7.108   8.603   8.087 -0.0848 -0.3073 -0.2072
  561MOL0     C73945   7.119   8.621   7.951 -0.2568 -0.0709  0.0829
  561MOL0     C73946   7.072   8.547   7.841 -0.6336  0.3581 -0.3095
  561MOL0     C73947   7.098   8.599   7.715 -0.4279 -0.1019  0.6799
  561MOL0     C73948   7.167   8.725   7.692  0.2847  1.2211  0.8962
  561MOL0     C73949   7.191   8.778   7.562  0.6077  0.5829  0.1661
  561MOL0     O73950   7.117   8.714   7.461 -0.0719 -0.3382 -0.3203
  561MOL0     C73951   7.138   8.750   7.333  1.1651  0.3246  0.5366
  561MOL0     C73952   7.126   8.884   7.286 -0.3388  0.7568 -0.1036
  561MOL0     C73953   7.148   8.915   7.152 -0.0823 -0.6052 -0.6849
  561MOL0     C73954   7.163   8.822   7.057  0.5780 -0.5963  0.1384
  561MOL0     O73955   7.170   8.844   6.923 -0.0324  1.1379 -0.2394
  561MOL0     C73956   7.265   8.779   6.835  0.2966 -0.2565 -0.3010
  561MOL0     C73957   7.193   8.775   6.694  0.8535  0.1675  0.4217
  561MOL0     C73958   7.069   8.690   6.700 -0.0976 -0.8904 -0.0215
  561MOL0     C73959   6.948   8.764   6.653 -0.2252 -0.2696 -0.3720
  561MOL0     C73960   6.837   8.664   6.619 -0.5797 -0.1380 -0.1304
  561MOL0     C73961   6.697   8.717   6.598  0.3507  0.2958 -0.3135
  561MOL0     C73962   6.606   8.608   6.546  0.5554 -0.3274  0.9087
  561MOL0     C73963   6.592   8.475   6.620 -0.5471  0.3495 -0.4284
  561MOL0    Cl73964   6.555   8.490   6.791 -0.3925 -0.1502  0.0206
  561MOL0     C73965   7.150   8.690   7.097 -0.1657  0.4827 -0.0689
  561MOL0     C73966   7.151   8.653   7.230  0.3874 -0.3512  0.2643
  561MOL0     O73967   7.256   8.885   7.550  0.2301 -0.1796  0.2034
  561MOL0     C73968   7.195   8.799   7.805  0.2945  0.5713  0.6390
  561MOL0     C73969   7.175   8.744   7.927  0.1973 -0.2170  0.0977
  561MOL0     N73970   6.944   7.970   8.270  0.0668  0.2991  0.1451
  561MOL0     N73971   6.919   7.839   8.275  0.6111 -0.2905 -1.4790
  561MOL0     C73972   6.749   7.039   7.444  0.1363 -0.1112  0.4084
  561MOL0     C73973   6.667   7.041   7.334  0.1271 -0.2157 -0.4371
  561MOL0     C73974   6.379   7.335   7.065  0.6527 -0.0708  0.4775
  561MOL0     C73975   6.364   7.461   7.003 -0.1114 -0.1294 -0.8181
  561MOL0     C73976   6.239   7.509   6.961 -0.7558 -0.8424 -0.2721
  561MOL0     C73977   6.114   7.442   6.996 -0.1093  0.0136  0.2748
  561MOL0     O73978   5.989   7.492   6.971 -0.3998 -0.5258 -1.0518
  561MOL0     C73979   5.980   7.626   6.931  0.3237  0.7481 -0.7534
  561MOL0     C73980   5.827   7.638   6.894  0.2311 -0.8488  0.7140
  561MOL0     C73981   5.789   7.782   6.846 -0.0151  0.3606 -0.5721
  561MOL0     C73982   5.855   7.902   6.926  0.0113 -0.3503 -0.7528
  561MOL0     C73983   5.849   7.879   7.067  0.6942  0.2485 -0.1691
  561MOL0     C73984   5.830   7.842   7.181  0.6049 -0.6132 -0.5699
  561MOL0     C73985   6.134   7.326   7.066 -0.0472  1.3361 -0.4224
  561MOL0     C73986   6.259   7.267   7.095  0.1440 -0.2165  0.2858
  561MOL0     H73987   6.614   7.381   7.314 -2.1112  0.1128  1.9049
  561MOL0     H73988   6.779   7.365   7.521  0.3537  0.1029 -1.6963
  561MOL0     H73989   6.847   7.283   7.711 -0.2366 -0.3537  0.2843
  561MOL0     H73990   7.010   7.249   7.656 -2.1314 -1.2029 -4.6512
  561MOL0     H73991   7.037   7.076   7.863 -2.8886 -2.8990  2.7321
  561MOL0     H73992   6.862   7.109   7.888 -0.3401  0.8452 -0.0856
  561MOL0     H73993   6.989   7.216   8.046 -2.0403 -0.2346  0.1840
  561MOL0     H73994   6.906   7.330   7.939 -1.8025 -1.9172 -0.9342
  561MOL0     H73995   7.198   7.265   7.869 -0.1007  0.7697 -2.2414
  561MOL0     H73996   7.107   7.418   7.845  0.8004 -1.7151 -1.5508
  561MOL0     H73997   7.281   7.428   8.023 -0.2390 -1.0992  0.1352
  561MOL0     H73998   7.198   7.307   8.118  2.6025  1.2473  2.1024
  561MOL0     H73999   6.994   7.476   8.122  0.1821 -1.2536 -0.7919
  561MOL0     H74000   7.088   7.584   8.045 -5.0439  0.1974  0.0230
  561MOL0     H74001   7.182   7.455   8.309  3.2432  0.0531 -0.6263
  561MOL0     H74002   7.249   7.597   8.221 -0.3208  0.1329  0.1440
  561MOL0     H74003   7.112   7.656   8.417  3.4854 -0.5716 -1.1368
  561MOL0     H74004   6.963   7.585   8.331 -1.1941  0.7867 -0.4810
  561MOL0     H74005   7.245   7.839   8.238 -0.5491 -1.3871 -2.0985
  561MOL0     H74006   7.212   8.107   8.104  1.4159 -1.6628  0.7395
  561MOL0     H74007   7.207   8.173   8.260 -0.3692  0.1488  1.0290
  561MOL0     H74008   6.974   8.249   8.227  1.6855 -0.1163  0.9532
  561MOL0     H74009   6.987   8.224   8.051  0.6424 -1.2076  0.0637
  561MOL0     H74010   7.184   8.385   8.215 -0.9750  1.5284  0.8665
  561MOL0     H74011   7.193   8.352   8.044  1.1701 -1.1141  1.1897
  561MOL0     H74012   6.972   8.498   8.199  0.3224  0.9843  1.0911
  561MOL0     H74013   6.949   8.458   8.043  0.1074 -0.5469  0.3903
  561MOL0     H74014   7.019   8.453   7.846  0.6403 -0.3061  1.7534
  561MOL0     H74015   7.080   8.535   7.630 -4.0249 -1.7511  2.4901
  561MOL0     H74016   7.113   8.968   7.354 -0.6581 -0.4142  1.3289
  561MOL0     H74017   7.164   9.018   7.122  0.3120 -1.1804 -2.6455
  561MOL0     H74018   7.283   8.679   6.875 -0.4172 -0.0855  0.5043
  561MOL0     H74019   7.363   8.827   6.837  1.0310 -1.5661 -2.2989
  561MOL0     H74020   7.249   8.710   6.627 -0.4049 -2.2511  1.5754
  561MOL0     H74021   7.165   8.872   6.651  0.9910 -0.2669 -0.6619
  561MOL0     H74022   7.063   8.651   6.802  1.6382 -1.7727 -0.2188
  561MOL0     H74023   7.078   8.601   6.637 -3.8614 -1.2941 -0.2052
  561MOL0     H74024   6.904   8.836   6.722  0.6452 -1.0767  1.0609
  561MOL0     H74025   6.982   8.818   6.564  1.5466  2.3300  1.7139
  561MOL0     H74026   6.828   8.614   6.716  1.0965  1.9664  1.2120
  561MOL0     H74027   6.879   8.600   6.541  1.5514  0.0958  0.7714
  561MOL0     H74028   6.709   8.803   6.531 -1.2345 -0.6678 -1.9282
  561MOL0     H74029   6.663   8.751   6.696 -0.6035 -0.2651 -0.4499
  561MOL0     H74030   6.512   8.662   6.531  1.2628  1.1329  1.5597
  561MOL0     H74031   6.641   8.574   6.448  0.3838 -1.7205  1.3062
  561MOL0     H74032   6.682   8.415   6.606 -0.1143  0.8730  0.0407
  561MOL0     H74033   6.500   8.421   6.594 -1.5928  2.5594 -1.6451
  561MOL0     H74034   7.149   8.608   7.027  0.4909  2.4092 -2.4784
  561MOL0     H74035   7.132   8.548   7.251 -0.2111 -0.5644 -1.2052
  561MOL0     H74036   7.231   8.902   7.801  1.5265  0.1628  0.5705
  561MOL0     H74037   7.208   8.807   8.010  1.6467  0.9871 -1.3184
  561MOL0     H74038   6.779   6.941   7.480 -0.4786  0.5756  3.0065
  561MOL0     H74039   6.640   6.947   7.286 -4.7659  0.2830  0.7993
  561MOL0     H74040   6.451   7.519   6.973  0.3045  0.2905  1.0722
  561MOL0     H74041   6.244   7.606   6.913  0.4167 -0.6796  0.1415
  561MOL0     H74042   6.033   7.641   6.836  0.8289  1.7596 -0.3218
  561MOL0     H74043   6.027   7.686   7.009  1.8016 -1.0641 -0.1846
  561MOL0     H74044   5.813   7.566   6.813  2.5968  1.8625 -2.4267
  561MOL0     H74045   5.759   7.609   6.973 -1.9182  0.8000 -0.4331
  561MOL0     H74046   5.682   7.806   6.854  0.0301  0.3263  0.2012
  561MOL0     H74047   5.815   7.783   6.739 -1.6489 -0.3884 -1.0096
  561MOL0     H74048   5.963   7.898   6.910  0.1140  3.5648 -1.8135
  561MOL0     H74049   5.814   8.000   6.900  0.6401  0.5231  1.3109
  561MOL0     H74050   5.810   7.813   7.283  0.4048  0.8747 -0.1653
  561MOL0     H74051   6.043   7.274   7.095  2.4227 -1.9830  2.1005
  561MOL0     H74052   6.257   7.174   7.152 -2.3437 -1.1090 -1.0888
  562MOL0     O74053  10.269   6.011   5.580  0.1881 -0.6571  0.2833
  562MOL0     C74054  10.342   5.997   5.675 -0.2910  0.0258  0.5531
  562MOL0     O74055  10.328   5.900   5.770  0.4082  0.1595  0.4878
  562MOL0     C74056  10.236   5.803   5.751 -0.3888 -0.8855  0.8178
  562MOL0     C74057  10.266   5.666   5.721  0.2600 -0.3586 -0.0777
  562MOL0     C74058  10.169   5.563   5.694 -0.3198 -0.6891 -0.3780
  562MOL0     C74059  10.036   5.598   5.700 -0.0331  1.2569 -0.0177
  562MOL0     O74060   9.933   5.510   5.682 -0.1601  0.6733 -0.2366
  562MOL0     C74061   9.950   5.376   5.747  0.9990 -0.2312  0.5518
  562MOL0     C74062   9.888   5.266   5.651 -0.3369 -0.1469  0.2273
  562MOL0     C74063   9.959   5.274   5.520 -0.9888 -0.6083 -0.2016
  562MOL0     C74064   9.909   5.160   5.434 -0.0853  0.6120 -0.2851
  562MOL0     C74065  10.000   5.135   5.320  0.1994 -0.2396  0.4811
  562MOL0     C74066   9.960   5.024   5.221  0.0587  0.9394  0.2540
  562MOL0     C74067   9.958   4.882   5.295  0.5680 -0.6276  0.6019
  562MOL0     C74068  10.076   4.860   5.394  0.2392 -0.2493 -0.1319
  562MOL0     N74069  10.076   4.739   5.484  0.4727 -0.9161 -0.3812
  562MOL0     C74070  10.027   4.620   5.443  0.0696 -0.2321  0.7443
  562MOL0     C74071  10.034   4.545   5.553 -0.0425 -0.8055 -0.2431
  562MOL0     C74072  10.029   4.396   5.558  0.2234  0.1305 -0.6811
  562MOL0     C74073  10.154   4.337   5.499 -0.4256  0.0975  0.0296
  562MOL0     C74074  10.283   4.408   5.558  0.2551 -0.1512 -0.1355
  562MOL0     C74075  10.397   4.323   5.512  0.2269 -0.1419  0.2305
  562MOL0     O74076  10.527   4.402   5.517 -0.4517 -0.2151 -0.0302
  562MOL0     C74077  10.642   4.319   5.508  0.7218 -0.1241 -0.6123
  562MOL0     C74078  10.749   4.353   5.588  0.1656 -0.3468  1.4258
  562MOL0     C74079  10.857   4.269   5.593  0.6200  0.6754  0.4952
  562MOL0     C74080  10.861   4.151   5.514  0.7868 -0.4704 -0.1422
  562MOL0     C74081  10.979   4.059   5.520  0.6178 -0.0048  0.5478
  562MOL0     O74082  10.944   3.922   5.535 -0.1524  0.1922 -0.7819
  562MOL0     C74083  11.053   3.835   5.550 -0.3174  0.7983 -0.3341
  562MOL0     C74084  11.058   3.732   5.460 -0.9539 -0.0889  0.1349
  562MOL0     C74085  11.156   3.636   5.473  0.2404 -0.6262 -0.0586
  562MOL0     C74086  11.248   3.631   5.572 -0.2444 -0.5829 -0.9713
  562MOL0     O74087  11.337   3.529   5.573  0.0254  0.3257 -0.4703
  562MOL0     C74088  11.480   3.554   5.580 -0.5667  0.3675  0.1967
  562MOL0     C74089  11.551   3.436   5.654  0.0002 -0.1614 -0.0303
  562MOL0     C74090  11.686   3.475   5.737 -0.2120 -0.9531 -0.4593
  562MOL0     C74091  11.813   3.485   5.647 -0.2132 -0.0327  0.3098
  562MOL0     C74092  11.935   3.569   5.703 -0.5196  0.2240 -0.2166
  562MOL0     C74093  12.044   3.586   5.601  0.6427  0.4119 -0.3605
  562MOL0     C74094  12.171   3.635   5.670  0.2540 -0.2073  0.1152
  562MOL0     C74095  12.283   3.629   5.566  0.6357  0.8443 -0.5358
  562MOL0    Cl74096  12.432   3.710   5.628 -0.0698 -0.8436  0.0959
  562MOL0     C74097  11.249   3.744   5.654  0.3356 -0.2954  0.7576
  562MOL0     C74098  11.151   3.844   5.646 -0.1807 -1.1177 -0.3119
  562MOL0     O74099  11.084   4.107   5.556 -0.0882 -0.4805  0.6943
  562MOL0     C74100  10.755   4.127   5.428 -0.0229 -0.0344 -0.6691
  562MOL0     C74101  10.637   4.197   5.435  0.7163 -0.2549  0.2442
  562MOL0     N74102  10.073   4.621   5.656 -0.2173 -0.0776  0.3003
  562MOL0     N74103  10.094   4.740   5.616 -0.2858  0.1472 -0.3279
  562MOL0     C74104  10.004   5.733   5.716 -0.3398 -0.0161 -0.5015
  562MOL0     C74105  10.101   5.831   5.739  0.3403  0.2771 -0.5657
  562MOL0     C74106  10.448   6.096   5.699 -0.6132  0.6599  0.2373
  562MOL0     C74107  10.493   6.120   5.832 -0.5393 -0.2308 -0.1463
  562MOL0     C74108  10.583   6.223   5.865  0.2533  0.5960 -0.0392
  562MOL0     C74109  10.627   6.305   5.771 -0.1570 -0.1164  0.7603
  562MOL0     O74110  10.722   6.391   5.813  0.6332 -0.7480 -0.4045
  562MOL0     C74111  10.816   6.435   5.717 -0.1872 -0.2103 -0.3123
  562MOL0     C74112  10.925   6.532   5.773 -0.0763 -0.6372 -0.5063
  562MOL0     C74113  11.046   6.545   5.670 -0.2439 -0.3037  0.3783
  562MOL0     C74114  11.154   6.442   5.700 -0.1554  0.2586  0.3908
  562MOL0     C74115  11.277   6.466   5.626 -0.1029 -0.1653  1.3632
  562MOL0     C74116  11.382   6.502   5.579 -0.1640 -0.6542  1.2392
  562MOL0     C74117  10.578   6.297   5.639  0.0165  0.1226 -0.0837
  562MOL0     C74118  10.493   6.184   5.606 -0.2642  0.1979  0.0469
  562MOL0     H74119  10.369   5.638   5.704  0.0240 -1.1916 -0.2309
  562MOL0     H74120  10.199   5.463   5.666  1.6674 -0.4074  0.5517
  562MOL0     H74121   9.905   5.367   5.847  0.5576 -2.1090  0.2146
  562MOL0     H74122  10.055   5.355   5.766  0.8707 -2.1688 -0.6053
  562MOL0     H74123   9.779   5.264   5.637 -0.4473 -1.3402  1.0570
  562MOL0     H74124   9.921   5.172   5.697 -1.3738 -0.4563  0.3753
  562MOL0     H74125  10.067   5.266   5.536 -1.2571  1.4767  3.7901
  562MOL0     H74126   9.925   5.356   5.455 -1.2051 -1.6424 -1.4343
  562MOL0     H74127   9.886   5.068   5.488  1.4111 -1.3152 -2.7556
  562MOL0     H74128   9.813   5.190   5.391  0.2696  1.5794 -0.4296
  562MOL0     H74129  10.102   5.111   5.351 -0.2478 -3.3682 -0.1685
  562MOL0     H74130  10.007   5.224   5.256 -0.4737 -1.0980 -0.8234
  562MOL0     H74131  10.033   5.020   5.140 -0.9128  1.2696 -0.6511
  562MOL0     H74132   9.857   5.038   5.188 -0.7144 -5.5090 -1.3438
  562MOL0     H74133   9.854   4.878   5.327 -0.5576  0.9915 -2.4118
  562MOL0     H74134   9.958   4.798   5.225 -3.2903  0.3448 -0.7775
  562MOL0     H74135  10.076   4.941   5.467 -0.8938  0.9578 -1.4163
  562MOL0     H74136  10.173   4.860   5.343 -0.1464 -0.0271 -0.8749
  562MOL0     H74137   9.994   4.595   5.342  1.8861  1.6871 -0.4279
  562MOL0     H74138   9.945   4.365   5.496  1.9852 -1.5442 -2.3924
  562MOL0     H74139  10.028   4.361   5.661  2.3066  0.1027 -0.6285
  562MOL0     H74140  10.146   4.354   5.391  1.2207  3.4956  0.2971
  562MOL0     H74141  10.162   4.232   5.529 -0.4679  0.7055  2.3783
  562MOL0     H74142  10.290   4.501   5.501  2.5576  1.5190  2.6006
  562MOL0     H74143  10.290   4.433   5.664 -1.4201  1.1633 -0.3075
  562MOL0     H74144  10.373   4.274   5.417  0.7188 -1.7671  0.9060
  562MOL0     H74145  10.393   4.237   5.579 -2.8206 -2.3653 -2.5218
  562MOL0     H74146  10.747   4.448   5.640 -3.8076  0.8039 -0.4043
  562MOL0     H74147  10.937   4.277   5.667  4.1090 -1.7614 -2.6391
  562MOL0     H74148  10.992   3.737   5.374  1.7490 -0.6297 -2.0998
  562MOL0     H74149  11.156   3.550   5.407  2.1231 -1.0409  0.4434
  562MOL0     H74150  11.508   3.638   5.644  1.7534 -0.1534 -0.0292
  562MOL0     H74151  11.525   3.572   5.481  0.1393 -0.1679  0.4074
  562MOL0     H74152  11.577   3.352   5.589  1.5339 -2.2217  2.9732
  562MOL0     H74153  11.477   3.390   5.720  0.3661 -1.1012 -0.2464
  562MOL0     H74154  11.705   3.411   5.823 -3.5953 -1.8166 -0.2352
  562MOL0     H74155  11.670   3.576   5.777  0.6695 -0.8964 -0.2371
  562MOL0     H74156  11.836   3.380   5.627  2.6124 -0.1928  3.3803
  562MOL0     H74157  11.784   3.523   5.549 -1.2838 -0.0987  0.5914
  562MOL0     H74158  11.972   3.525   5.796  1.8716 -3.0565 -2.4689
  562MOL0     H74159  11.901   3.672   5.718  1.4965  0.9944 -0.5873
  562MOL0     H74160  12.016   3.657   5.523  1.0382 -0.6713 -1.5091
  562MOL0     H74161  12.048   3.481   5.574  0.2357  0.9777 -2.8031
  562MOL0     H74162  12.157   3.738   5.704 -1.3033  0.5000 -2.3979
  562MOL0     H74163  12.197   3.570   5.754 -0.8996 -0.4231  0.3257
  562MOL0     H74164  12.250   3.682   5.476  0.8747  0.6274 -0.7540
  562MOL0     H74165  12.308   3.523   5.552  1.6095  0.4683  3.1779
  562MOL0     H74166  11.332   3.740   5.725  0.5841 -2.0808  0.4126
  562MOL0     H74167  11.149   3.928   5.714 -4.0963 -0.9104 -0.4443
  562MOL0     H74168  10.763   4.039   5.365 -1.8709  0.7458 -2.0940
  562MOL0     H74169  10.562   4.169   5.362  1.5670 -3.5157  0.4316
  562MOL0     H74170   9.901   5.765   5.725 -0.1622  0.6704 -0.8552
  562MOL0     H74171  10.066   5.933   5.741 -0.7122 -0.0703  1.2070
  562MOL0     H74172  10.474   6.045   5.908 -1.6311 -2.4390 -2.4548
  562MOL0     H74173  10.628   6.216   5.964  1.7059 -6.2646 -0.6712
  562MOL0     H74174  10.759   6.489   5.641 -1.9908  0.6697  1.5691
  562MOL0     H74175  10.861   6.345   5.673  0.8896  0.0554  0.2084
  562MOL0     H74176  10.870   6.627   5.778  1.9893  0.5510  1.3111
  562MOL0     H74177  10.953   6.496   5.872 -1.1444  2.7200  1.1831
  562MOL0     H74178  11.105   6.633   5.696  0.0231 -0.8865  1.8275
  562MOL0     H74179  11.022   6.551   5.563  4.6075 -0.9420 -0.9888
  562MOL0     H74180  11.168   6.444   5.808 -1.1103  1.7454  0.5207
  562MOL0     H74181  11.112   6.344   5.676 -0.9180  0.7180 -0.1996
  562MOL0     H74182  11.483   6.521   5.550 -0.2228  2.9939  2.9062
  562MOL0     H74183  10.613   6.371   5.568 -0.1079 -0.3370 -0.6333
  562MOL0     H74184  10.454   6.162   5.507  1.4479 -2.1576 -0.2096
  563MOL0     O74185   2.460   9.181   9.588 -0.5928 -0.0079  0.7061
  563MOL0     C74186   2.411   9.195   9.698 -0.7905 -0.6466 -0.2853
  563MOL0     O74187   2.281   9.194   9.729  0.7215 -0.3701  0.1503
  563MOL0     C74188   2.175   9.191   9.633 -0.9088 -1.1609 -0.3493
  563MOL0     C74189   2.185   9.225   9.503 -0.0106  0.7036 -0.0246
  563MOL0     C74190   2.077   9.217   9.409  0.4722  0.2812  0.8823
  563MOL0     C74191   1.959   9.154   9.440  0.1057  0.7352 -1.0654
  563MOL0     O74192   1.864   9.131   9.353  0.6239  0.8418 -0.7073
  563MOL0     C74193   1.725   9.126   9.412 -0.3739 -0.1560 -0.0260
  563MOL0     C74194   1.602   9.147   9.317 -0.4065 -0.5265 -0.6820
  563MOL0     C74195   1.648   9.158   9.183 -0.7403  0.1190  0.2573
  563MOL0     C74196   1.540   9.210   9.093 -0.6374  0.3004 -0.5295
  563MOL0     C74197   1.595   9.218   8.946 -0.3784  0.0995 -0.3879
  563MOL0     C74198   1.626   9.075   8.905  0.0355 -0.6347  0.2141
  563MOL0     C74199   1.585   9.044   8.761  0.5291 -0.1756  0.7759
  563MOL0     C74200   1.652   9.126   8.658  0.9782  0.5267  0.6743
  563MOL0     N74201   1.602   9.262   8.636 -0.6357  0.1503  0.6293
  563MOL0     C74202   1.475   9.290   8.608 -0.5801 -0.2434  0.8355
  563MOL0     C74203   1.459   9.421   8.638 -0.9653 -1.0224  0.1152
  563MOL0     C74204   1.324   9.486   8.657 -0.2780  0.1024 -0.9293
  563MOL0     C74205   1.273   9.481   8.806 -0.2223  0.0741  0.2928
  563MOL0     C74206   1.356   9.570   8.888  0.2937  0.6614 -0.1558
  563MOL0     C74207   1.321   9.550   9.038 -0.4552  0.4305 -0.1112
  563MOL0     O74208   1.417   9.623   9.118  0.3088  0.0146  0.5826
  563MOL0     C74209   1.382   9.725   9.199 -0.0191  0.6952  0.4657
  563MOL0     C74210   1.318   9.842   9.149  0.9642  0.4682 -0.4430
  563MOL0     C74211   1.293   9.951   9.240  0.8596  0.6066 -0.5314
  563MOL0     C74212   1.331   9.950   9.371  0.5729  0.2843  1.0367
  563MOL0     C74213   1.294  10.061   9.449  0.0989 -0.9165  0.4556
  563MOL0     O74214   1.188  10.144   9.418  0.4699 -0.0950  0.2901
  563MOL0     C74215   1.178  10.248   9.502  0.4578 -0.1808  0.2186
  563MOL0     C74216   1.269  10.363   9.509 -0.6312  0.1328  0.2584
  563MOL0     C74217   1.248  10.469   9.592  0.5212 -0.1144 -0.5338
  563MOL0     C74218   1.145  10.461   9.694  0.2700  0.5268  0.2412
  563MOL0     O74219   1.141  10.564   9.784  0.2090 -0.1043 -0.6582
  563MOL0     C74220   1.007  10.605   9.810  0.0550 -0.3976  0.5771
  563MOL0     C74221   1.003  10.745   9.869 -0.6474 -0.6584 -0.5334
  563MOL0     C74222   1.038  10.863   9.776 -0.5131  0.5127  0.1651
  563MOL0     C74223   0.992  10.842   9.630 -0.2825  0.1504 -0.5756
  563MOL0     C74224   1.003  10.962   9.534  0.2227  0.3714 -0.5054
  563MOL0     C74225   0.901  11.079   9.578  0.3533  0.2172  0.3516
  563MOL0     C74226   0.907  11.198   9.471 -0.5038 -0.7583  0.4963
  563MOL0     C74227   0.776  11.279   9.452  0.3002  0.1924  0.8945
  563MOL0    Cl74228   0.756  11.390   9.595  0.0677  0.3291  0.1116
  563MOL0     C74229   1.056  10.347   9.698  0.2559 -0.4240  0.3758
  563MOL0     C74230   1.073  10.242   9.601 -0.7595 -0.5076 -0.6701
  563MOL0     O74231   1.357  10.071   9.554  0.2005  0.1027 -0.0694
  563MOL0     C74232   1.395   9.841   9.411  0.0336  0.1604  0.2657
  563MOL0     C74233   1.424   9.731   9.333  0.4441  0.1796  0.7014
  563MOL0     N74234   1.586   9.472   8.665  0.7582  0.4710  0.1837
  563MOL0     N74235   1.665   9.374   8.666  0.2437 -0.6189  1.0391
  563MOL0     C74236   1.956   9.108   9.577  0.5668 -1.3486 -0.3212
  563MOL0     C74237   2.050   9.145   9.671 -0.3388 -0.4258  0.0321
  563MOL0     C74238   2.500   9.227   9.814  0.1955  0.2203 -0.8165
  563MOL0     C74239   2.443   9.265   9.945 -1.0325 -0.4297 -0.2148
  563MOL0     C74240   2.535   9.297  10.049  0.6756  0.5427 -0.2949
  563MOL0     C74241   2.670   9.266  10.040 -0.4095 -0.4232  0.2855
  563MOL0     O74242   2.754   9.298  10.144  0.5672  0.2129  0.0641
  563MOL0     C74243   2.887   9.244  10.137 -0.1646 -1.0003 -0.4616
  563MOL0     C74244   2.963   9.318  10.252  0.4623  0.2296 -0.1351
  563MOL0     C74245   3.089   9.239  10.282  0.0246  0.4668 -0.3766
  563MOL0     C74246   3.077   9.098  10.339 -0.4263  0.2242 -0.1860
  563MOL0     C74247   2.976   9.082  10.454 -0.9737  0.6278  0.2207
  563MOL0     C74248   2.894   9.056  10.536 -0.0142 -0.3329  0.3049
  563MOL0     C74249   2.722   9.222   9.909  0.0389  0.6418 -0.3110
  563MOL0     C74250   2.639   9.212   9.800  0.3720 -0.3025 -0.3337
  563MOL0     H74251   2.278   9.252   9.454  0.7406  1.3056  1.6649
  563MOL0     H74252   2.086   9.238   9.303 -0.4001 -1.6796  0.3832
  563MOL0     H74253   1.729   9.209   9.483 -0.3194 -0.5595  0.4499
  563MOL0     H74254   1.712   9.032   9.465 -0.1900 -0.5745 -0.7042
  563MOL0     H74255   1.563   9.243   9.353  3.5024  1.2627 -0.6864
  563MOL0     H74256   1.531   9.064   9.326  0.9176 -1.5913  0.3509
  563MOL0     H74257   1.691   9.060   9.158  1.4282  0.5009  2.0778
  563MOL0     H74258   1.737   9.221   9.170 -0.8449 -0.2930 -3.4214
  563MOL0     H74259   1.457   9.139   9.105  0.0314 -0.3301  0.5598
  563MOL0     H74260   1.511   9.308   9.133 -2.5967 -0.9875  1.4401
  563MOL0     H74261   1.674   9.293   8.941 -2.5687  3.0016  2.8610
  563MOL0     H74262   1.507   9.245   8.887 -3.5225 -2.0309  2.8823
  563MOL0     H74263   1.575   9.000   8.967 -2.5092 -1.0575 -2.1795
  563MOL0     H74264   1.734   9.061   8.909 -0.0647 -1.2240  2.3793
  563MOL0     H74265   1.626   8.944   8.748  0.7957 -0.2016  1.7357
  563MOL0     H74266   1.476   9.048   8.751  0.6439  1.1532 -0.2719
  563MOL0     H74267   1.644   9.078   8.560 -0.6768 -0.0578  1.0611
  563MOL0     H74268   1.761   9.127   8.674  0.9130  2.6972  1.2532
  563MOL0     H74269   1.396   9.223   8.573  0.1270 -0.5493 -0.1989
  563MOL0     H74270   1.245   9.452   8.590 -0.0969  2.2987 -2.3568
  563MOL0     H74271   1.318   9.594   8.642  1.0984  0.5895  1.4547
  563MOL0     H74272   1.276   9.376   8.839 -2.9746  0.2354  1.3216
  563MOL0     H74273   1.168   9.511   8.798 -0.7986 -1.1031  2.4823
  563MOL0     H74274   1.457   9.529   8.877  0.2917  0.8036 -0.7867
  563MOL0     H74275   1.353   9.676   8.859  1.2077  0.5973 -0.5107
  563MOL0     H74276   1.329   9.444   9.066  2.0146  0.2216 -1.3515
  563MOL0     H74277   1.219   9.583   9.059 -1.8527 -2.8309 -1.0949
  563MOL0     H74278   1.276   9.858   9.050 -2.3349  0.9122  0.9285
  563MOL0     H74279   1.252  10.038   9.191 -0.0063 -1.4211 -3.7449
  563MOL0     H74280   1.355  10.361   9.442  0.5093 -2.4125  1.6486
  563MOL0     H74281   1.324  10.546   9.599  1.2834 -0.8096 -1.0233
  563MOL0     H74282   0.950  10.540   9.876 -1.5051  0.3462  0.0229
  563MOL0     H74283   0.950  10.600   9.716  2.1595  1.5660 -0.9167
  563MOL0     H74284   1.065  10.750   9.959  1.4757 -0.7489 -1.9138
  563MOL0     H74285   0.899  10.755   9.901 -1.2064 -0.3123 -2.3453
  563MOL0     H74286   1.147  10.868   9.771 -0.3244 -2.6028 -1.0507
  563MOL0     H74287   0.990  10.948   9.825 -0.6183 -0.1716  1.2762
  563MOL0     H74288   1.057  10.763   9.591 -0.7126  0.1439 -1.3222
  563MOL0     H74289   0.893  10.795   9.622  0.2492 -1.8927  2.8973
  563MOL0     H74290   0.968  10.931   9.436  0.7667  0.1210 -0.6234
  563MOL0     H74291   1.107  10.992   9.523  0.4561 -0.8464 -1.9055
  563MOL0     H74292   0.932  11.118   9.676  0.7801 -0.6221  0.5589
  563MOL0     H74293   0.798  11.042   9.583  0.4332 -0.1363 -0.4562
  563MOL0     H74294   0.977  11.269   9.515  1.9993 -1.3864 -2.1414
  563MOL0     H74295   0.950  11.181   9.372 -0.9863  1.6128 -0.1894
  563MOL0     H74296   0.688  11.215   9.454 -1.1567  2.1204  0.6281
  563MOL0     H74297   0.769  11.338   9.361 -3.1105  0.0124  0.9152
  563MOL0     H74298   0.968  10.340   9.762 -0.8416  0.8956 -0.9000
  563MOL0     H74299   1.004  10.160   9.615 -2.4640  0.8382 -0.7816
  563MOL0     H74300   1.408   9.838   9.519  0.4758  0.3928  0.2231
  563MOL0     H74301   1.474   9.643   9.373 -2.3041 -2.0738 -0.4573
  563MOL0     H74302   1.869   9.051   9.609 -0.2160  0.4548  0.9586
  563MOL0     H74303   2.044   9.110   9.773 -0.6512 -1.4618 -0.3328
  563MOL0     H74304   2.337   9.277   9.968  0.1932  3.6138  5.5173
  563MOL0     H74305   2.492   9.319  10.146  1.2630 -3.3549  1.0448
  563MOL0     H74306   2.943   9.266  10.046 -0.3961 -1.3430 -0.6868
  563MOL0     H74307   2.880   9.136  10.150 -1.2820 -0.6936  2.2119
  563MOL0     H74308   2.984   9.413  10.202 -2.7033  1.4416  0.6235
  563MOL0     H74309   2.912   9.348  10.344  1.8743  2.1218  0.0829
  563MOL0     H74310   3.143   9.298  10.357 -1.4156 -0.5414  1.5242
  563MOL0     H74311   3.146   9.225  10.189 -2.5216 -2.9368 -1.6341
  563MOL0     H74312   3.070   9.027  10.256  3.7872  0.4753 -0.9966
  563MOL0     H74313   3.173   9.068  10.382 -1.1047 -3.1871 -0.7130
  563MOL0     H74314   2.823   9.052  10.616 -0.9023  2.4329 -0.2270
  563MOL0     H74315   2.827   9.208   9.884  0.0821  0.0189  0.2118
  563MOL0     H74316   2.683   9.172   9.709  0.5718 -4.5602  1.4188
  564MOL0     O74317   9.647   4.285   8.512 -0.0630 -0.2272 -0.1654
  564MOL0     C74318   9.744   4.217   8.515  0.1043  0.2153  0.2482
  564MOL0     O74319   9.774   4.123   8.431 -0.3555  0.7707 -0.1911
  564MOL0     C74320   9.696   4.095   8.328 -0.8712  0.1422  0.0547
  564MOL0     C74321   9.670   4.181   8.221 -0.1486 -0.1858 -0.7826
  564MOL0     C74322   9.575   4.138   8.130 -0.3311  0.5550  1.1577
  564MOL0     C74323   9.496   4.016   8.148  0.7687 -0.7414 -0.4096
  564MOL0     O74324   9.396   3.970   8.065  0.1604  0.3505 -0.1959
  564MOL0     C74325   9.409   3.965   7.921  0.3918  0.4522 -0.5322
  564MOL0     C74326   9.510   3.861   7.881  0.1723 -0.3105 -0.5408
  564MOL0     C74327   9.462   3.713   7.901 -0.3854 -0.0083  1.8708
  564MOL0     C74328   9.559   3.617   7.829 -0.1899  0.2420  0.2693
  564MOL0     C74329   9.694   3.626   7.890  0.0180 -0.9601 -0.1663
  564MOL0     C74330   9.777   3.507   7.843 -0.8137 -0.2895 -0.2097
  564MOL0     C74331   9.919   3.529   7.857 -0.6719  0.8160 -0.0778
  564MOL0     C74332   9.983   3.620   7.759  0.1280  0.6231 -0.2665
  564MOL0     N74333  10.130   3.634   7.787  0.2164 -0.6409  0.5808
  564MOL0     C74334  10.228   3.546   7.740  0.5592  0.9645 -0.4378
  564MOL0     C74335  10.344   3.560   7.819  0.4542 -0.3641 -0.7196
  564MOL0     C74336  10.469   3.479   7.809 -0.4173 -0.2291 -0.5785
  564MOL0     C74337  10.462   3.369   7.909  0.0654 -0.3716 -0.5253
  564MOL0     C74338  10.529   3.234   7.859  0.2969  0.2559  0.1693
  564MOL0     C74339  10.498   3.128   7.962  0.4924 -1.0749 -1.6039
  564MOL0     O74340  10.364   3.075   7.940  0.9428  0.5336  1.0952
  564MOL0     C74341  10.254   3.133   8.007 -0.7509  0.4323  0.3489
  564MOL0     C74342  10.259   3.208   8.132  0.0589  0.3275  0.2916
  564MOL0     C74343  10.144   3.252   8.196  0.4260  0.2650  0.9160
  564MOL0     C74344  10.012   3.227   8.142 -0.0713 -0.1767 -0.2154
  564MOL0     C74345   9.890   3.286   8.214  0.4665 -0.5441 -0.3145
  564MOL0     O74346   9.762   3.248   8.163 -1.0113  0.3274  0.7012
  564MOL0     C74347   9.650   3.323   8.175  0.7444 -0.9779 -0.0234
  564MOL0     C74348   9.640   3.466   8.187  0.6420  0.0246 -0.1570
  564MOL0     C74349   9.518   3.523   8.215  0.1704 -0.7478  0.9406
  564MOL0     C74350   9.400   3.446   8.241 -0.8057 -1.2990  0.2317
  564MOL0     O74351   9.273   3.497   8.258  0.5616  0.1716 -0.5213
  564MOL0     C74352   9.248   3.636   8.269  0.2296 -0.7345  0.7301
  564MOL0     C74353   9.096   3.664   8.239  0.1854 -0.2169  0.4164
  564MOL0     C74354   9.069   3.627   8.098  0.9704  0.5711 -0.1915
  564MOL0     C74355   8.931   3.629   8.050  0.2224  0.4575  0.3540
  564MOL0     C74356   8.909   3.574   7.909 -0.9719 -0.3675  0.4178
  564MOL0     C74357   8.759   3.590   7.867 -0.5431  0.8194  0.5318
  564MOL0     C74358   8.723   3.512   7.742 -0.0288 -0.0903  0.2503
  564MOL0     C74359   8.584   3.459   7.744  1.4201  0.3626 -0.3147
  564MOL0    Cl74360   8.553   3.321   7.861 -0.0020 -0.2250 -0.0097
  564MOL0     C74361   9.412   3.306   8.227  0.5690 -0.7103 -0.1265
  564MOL0     C74362   9.538   3.244   8.205  1.2610  0.0038  0.8346
  564MOL0     O74363   9.906   3.378   8.301 -0.1115  0.0461  0.1578
  564MOL0     C74364  10.003   3.135   8.028 -0.1883  0.6297 -0.9652
  564MOL0     C74365  10.123   3.089   7.966 -0.0024 -0.2153  0.2146
  564MOL0     N74366  10.326   3.664   7.907 -0.0391  0.0770 -0.2573
  564MOL0     N74367  10.200   3.704   7.890  0.1377 -0.2769  0.7740
  564MOL0     C74368   9.534   3.933   8.256  0.6337 -0.7984 -0.4924
  564MOL0     C74369   9.633   3.969   8.339 -0.0379 -0.1868  0.3039
  564MOL0     C74370   9.840   4.227   8.635  0.8502  0.2522  0.5253
  564MOL0     C74371   9.846   4.345   8.709 -1.0321  0.4491  0.3302
  564MOL0     C74372   9.947   4.360   8.809 -0.1751 -0.3522 -0.1237
  564MOL0     C74373  10.043   4.264   8.842  0.0074 -0.1212 -0.4702
  564MOL0     O74374  10.138   4.272   8.941  0.1192  0.3842  0.0607
  564MOL0     C74375  10.220   4.382   8.933 -1.0466  0.0738  0.1624
  564MOL0     C74376  10.215   4.507   9.020 -0.0044 -0.3806 -0.0339
  564MOL0     C74377  10.232   4.467   9.167 -0.3162  0.0684  0.7026
  564MOL0     C74378  10.213   4.599   9.257 -0.1506  0.3610  0.7381
  564MOL0     C74379  10.342   4.684   9.252  0.0658 -0.3621 -0.1452
  564MOL0     C74380  10.441   4.750   9.265 -0.9844  0.9467 -0.2528
  564MOL0     C74381  10.042   4.152   8.755  0.6420 -0.9173  0.0391
  564MOL0     C74382   9.942   4.138   8.655 -0.6035  0.3189  0.1265
  564MOL0     H74383   9.721   4.277   8.220 -1.0081  0.3081  0.2145
  564MOL0     H74384   9.542   4.202   8.049  1.2125 -0.4462 -0.3342
  564MOL0     H74385   9.453   4.062   7.895  1.5198  0.4061  1.0197
  564MOL0     H74386   9.311   3.958   7.873  0.4125 -0.9177 -0.3891
  564MOL0     H74387   9.606   3.877   7.932 -0.4465 -1.9292  1.2530
  564MOL0     H74388   9.521   3.862   7.772 -1.6652 -0.8560 -0.7506
  564MOL0     H74389   9.366   3.702   7.849  0.7305 -3.8107  0.2145
  564MOL0     H74390   9.441   3.684   8.004  2.5471 -1.4569  2.1475
  564MOL0     H74391   9.518   3.516   7.836  0.3339  0.0942  1.3884
  564MOL0     H74392   9.571   3.640   7.723 -0.2883 -1.9107 -0.2410
  564MOL0     H74393   9.700   3.642   7.998 -0.1239  2.7433 -0.5876
  564MOL0     H74394   9.737   3.721   7.856  0.2434 -0.8869  0.3157
  564MOL0     H74395   9.760   3.487   7.737  1.4896  1.6901 -1.0385
  564MOL0     H74396   9.748   3.416   7.895  2.4917 -3.1863 -2.9450
  564MOL0     H74397   9.932   3.563   7.960  3.1849  2.7762 -1.0113
  564MOL0     H74398   9.975   3.436   7.858 -3.0285 -0.6754  1.1928
  564MOL0     H74399   9.937   3.718   7.767  1.0049  1.1593 -1.4391
  564MOL0     H74400   9.974   3.582   7.657  0.0509  1.0133 -0.4059
  564MOL0     H74401  10.233   3.472   7.661 -1.2285 -1.2258  1.3751
  564MOL0     H74402  10.564   3.532   7.821 -0.6859  0.8217 -2.6145
  564MOL0     H74403  10.463   3.424   7.714  1.5335 -2.4469  0.4755
  564MOL0     H74404  10.355   3.345   7.916  0.4905 -1.7790  2.4816
  564MOL0     H74405  10.486   3.411   8.007 -2.6425  1.5432 -0.5533
  564MOL0     H74406  10.481   3.186   7.773  0.0442 -4.6152  2.6864
  564MOL0     H74407  10.633   3.245   7.828 -0.9043  4.3893 -3.4700
  564MOL0     H74408  10.515   3.169   8.062  1.3626 -1.7851 -1.4485
  564MOL0     H74409  10.568   3.044   7.965  1.5373 -0.2038 -0.5012
  564MOL0     H74410  10.353   3.248   8.167 -0.7040  1.4715  1.0718
  564MOL0     H74411  10.148   3.314   8.285  0.9339 -0.8255  1.6745
  564MOL0     H74412   9.734   3.518   8.170  0.9591  1.0664  3.7266
  564MOL0     H74413   9.515   3.631   8.224  1.7991 -0.5720 -0.0222
  564MOL0     H74414   9.323   3.692   8.212  2.1763 -2.6312  1.2692
  564MOL0     H74415   9.263   3.663   8.374 -0.3603 -2.2459  1.2416
  564MOL0     H74416   9.069   3.769   8.251 -1.6154 -0.8751  2.8953
  564MOL0     H74417   9.020   3.611   8.299 -2.4864  1.3209 -1.3792
  564MOL0     H74418   9.098   3.523   8.082 -0.9539 -0.2547  1.2371
  564MOL0     H74419   9.131   3.690   8.034 -2.3708  2.6417 -1.6987
  564MOL0     H74420   8.876   3.574   8.127  0.1385 -2.0214 -1.3725
  564MOL0     H74421   8.885   3.729   8.053 -2.5348 -0.7140  0.6044
  564MOL0     H74422   8.935   3.469   7.920 -0.9524 -0.5771 -1.3188
  564MOL0     H74423   8.979   3.616   7.836  0.2330 -0.4936  1.4660
  564MOL0     H74424   8.741   3.698   7.862  0.9645  1.2222  2.3456
  564MOL0     H74425   8.697   3.545   7.945 -2.2953  1.9781 -0.1328
  564MOL0     H74426   8.736   3.579   7.656 -0.0746  0.8546  0.9528
  564MOL0     H74427   8.801   3.437   7.727 -0.9867 -0.6642 -2.2042
  564MOL0     H74428   8.559   3.418   7.645 -1.0062  0.6664  0.1204
  564MOL0     H74429   8.506   3.533   7.763  0.0816 -1.2787  0.9849
  564MOL0     H74430   9.330   3.241   8.258  1.7403 -1.5442  1.3812
  564MOL0     H74431   9.547   3.136   8.213  1.2769  0.0584  1.7038
  564MOL0     H74432   9.900   3.121   7.997  0.2166 -0.3961 -1.9249
  564MOL0     H74433  10.126   3.021   7.881 -0.1471 -0.2686  0.2530
  564MOL0     H74434   9.469   3.848   8.274 -1.7089  1.2387  1.2810
  564MOL0     H74435   9.660   3.903   8.421 -2.8575 -2.6811 -0.5789
  564MOL0     H74436   9.776   4.425   8.689 -1.0251  0.6598  1.0920
  564MOL0     H74437   9.940   4.443   8.879 -2.9428  0.2846 -1.0334
  564MOL0     H74438  10.217   4.420   8.831 -1.2317 -0.7838 -0.1598
  564MOL0     H74439  10.322   4.345   8.937 -1.4286 -0.9827  0.4028
  564MOL0     H74440  10.294   4.579   8.997 -2.7415  2.8461 -0.0268
  564MOL0     H74441  10.129   4.568   8.994  2.9822  2.7324 -3.9621
  564MOL0     H74442  10.330   4.422   9.185  0.0050 -0.3650 -1.7565
  564MOL0     H74443  10.154   4.397   9.196 -1.1995  0.6628 -0.1910
  564MOL0     H74444  10.126   4.660   9.231 -2.0417 -1.4606  2.3765
  564MOL0     H74445  10.185   4.574   9.359  1.5391  1.5127  1.5307
  564MOL0     H74446  10.531   4.809   9.274  0.3495 -1.2027  1.6634
  564MOL0     H74447  10.124   4.081   8.767  1.1349 -1.0997 -3.3847
  564MOL0     H74448   9.940   4.050   8.592  1.5272  0.7519 -0.6354
  565MOL0     O74449  10.239   1.351   7.677  0.7999  0.0451 -0.4452
  565MOL0     C74450  10.183   1.392   7.574 -0.2555  0.4056  0.5444
  565MOL0     O74451  10.249   1.414   7.455  0.3256 -0.7828  0.1082
  565MOL0     C74452  10.381   1.391   7.438 -1.1183  0.3669 -0.3368
  565MOL0     C74453  10.437   1.465   7.337  0.1570 -0.3712  0.1185
  565MOL0     C74454  10.563   1.461   7.301 -1.1561 -0.4636 -1.2219
  565MOL0     C74455  10.652   1.366   7.363 -0.5225  0.9335  0.6387
  565MOL0     O74456  10.784   1.355   7.323 -0.4580 -0.4041 -0.2172
  565MOL0     C74457  10.869   1.241   7.362  0.7244  0.0512  0.3309
  565MOL0     C74458  11.015   1.286   7.350 -0.1649  0.3011 -0.3024
  565MOL0     C74459  11.110   1.164   7.370  0.2695  0.1856  0.1917
  565MOL0     C74460  11.252   1.200   7.350 -0.1684 -1.2479  0.5670
  565MOL0     C74461  11.358   1.094   7.335 -0.4319  0.2957  0.7775
  565MOL0     C74462  11.476   1.129   7.237 -0.2364  0.4969  0.2595
  565MOL0     C74463  11.538   1.267   7.268  0.5990 -0.3211 -0.4268
  565MOL0     C74464  11.638   1.320   7.168  0.0882  0.0329  0.5263
  565MOL0     N74465  11.770   1.254   7.176  0.0564  0.9692  0.9871
  565MOL0     C74466  11.874   1.287   7.252  0.2649 -0.0298 -0.0675
  565MOL0     C74467  11.969   1.203   7.214 -0.2804  1.3487 -0.5380
  565MOL0     C74468  12.110   1.201   7.270  0.7500 -0.1776 -0.0989
  565MOL0     C74469  12.191   1.294   7.186 -0.3655  0.1547  0.5212
  565MOL0     C74470  12.147   1.444   7.200 -0.6608 -0.3776  0.9535
  565MOL0     C74471  12.272   1.527   7.171 -0.0918 -0.0241 -0.1778
  565MOL0     O74472  12.230   1.666   7.160  0.2560 -0.0300  1.1170
  565MOL0     C74473  12.303   1.751   7.082 -0.3582 -0.1526  0.2508
  565MOL0     C74474  12.248   1.855   7.012  0.0661 -0.4175 -0.0732
  565MOL0     C74475  12.329   1.944   6.942  0.1675 -0.3749  0.8580
  565MOL0     C74476  12.467   1.939   6.943 -0.5939 -0.8001  0.3886
  565MOL0     C74477  12.562   2.026   6.875  0.4176  0.4723  0.3249
  565MOL0     O74478  12.501   2.094   6.768 -0.4682 -0.3246  0.5579
  565MOL0     C74479  12.564   2.159   6.666 -1.1560 -0.3147 -0.5736
  565MOL0     C74480  12.679   2.226   6.680 -0.3308 -0.9308 -0.0251
  565MOL0     C74481  12.748   2.278   6.576 -1.2328 -0.4617  0.6405
  565MOL0     C74482  12.706   2.266   6.439  0.5402 -0.6655  0.1354
  565MOL0     O74483  12.774   2.302   6.324 -0.4907  0.4419 -0.6547
  565MOL0     C74484  12.917   2.269   6.320 -0.4256 -0.1398  0.6453
  565MOL0     C74485  13.011   2.399   6.315  0.2826  0.5055  0.1556
  565MOL0     C74486  12.940   2.533   6.300  0.2158  0.2522 -0.0371
  565MOL0     C74487  13.049   2.648   6.286  0.9603  0.0213 -0.0765
  565MOL0     C74488  12.974   2.774   6.261 -0.0865 -0.7427 -0.2474
  565MOL0     C74489  12.874   2.809   6.372 -1.0705  0.3794  0.3881
  565MOL0     C74490  12.822   2.949   6.348  0.9729 -0.0959 -0.7076
  565MOL0     C74491  12.738   2.999   6.466 -0.4161  0.1456 -1.5073
  565MOL0    Cl74492  12.855   3.080   6.600 -0.1244  0.1702  0.0315
  565MOL0     C74493  12.570   2.217   6.430  0.3636  1.0393 -0.8103
  565MOL0     C74494  12.502   2.162   6.545 -0.1439 -0.9103 -0.0511
  565MOL0     O74495  12.683   2.021   6.900  0.4034 -0.8024  0.5149
  565MOL0     C74496  12.525   1.844   7.031 -0.4274 -0.2106  0.2557
  565MOL0     C74497  12.442   1.751   7.100  0.4880 -0.5152  0.6362
  565MOL0     N74498  11.925   1.119   7.115 -0.0457 -0.4277 -0.8358
  565MOL0     N74499  11.800   1.149   7.100  1.1807 -0.8970  1.0616
  565MOL0     C74500  10.597   1.284   7.460 -0.8202 -0.1892 -0.5890
  565MOL0     C74501  10.458   1.286   7.496 -0.0942 -0.5743 -0.6635
  565MOL0     C74502  10.036   1.417   7.578 -0.3290 -0.7362  1.0975
  565MOL0     C74503   9.963   1.457   7.467 -0.3956  0.5767 -0.1885
  565MOL0     C74504   9.824   1.462   7.461 -0.3693 -0.0349 -0.4872
  565MOL0     C74505   9.755   1.423   7.567 -0.3102  0.1536 -0.2101
  565MOL0     O74506   9.622   1.435   7.557  0.3523  0.0983  0.5573
  565MOL0     C74507   9.574   1.555   7.622  0.0784 -0.5671 -0.1960
  565MOL0     C74508   9.458   1.627   7.549  0.2724  0.4651  0.7642
  565MOL0     C74509   9.479   1.651   7.405  0.1580  0.2264  0.3423
  565MOL0     C74510   9.402   1.778   7.351  0.5685  0.3491 -0.6179
  565MOL0     C74511   9.270   1.787   7.392  0.2858  0.6522 -0.6488
  565MOL0     C74512   9.159   1.790   7.438 -0.0232  0.5625 -0.1651
  565MOL0     C74513   9.813   1.364   7.679 -0.3812 -0.4768  0.4503
  565MOL0     C74514   9.955   1.370   7.689  0.1264 -0.4334 -0.3109
  565MOL0     H74515  10.360   1.523   7.287 -0.9420 -1.6004  0.3563
  565MOL0     H74516  10.613   1.515   7.221  0.2795 -2.6672 -1.8981
  565MOL0     H74517  10.840   1.159   7.297 -0.8210  0.4243  0.5267
  565MOL0     H74518  10.854   1.205   7.465 -0.3422  2.9394  1.2900
  565MOL0     H74519  11.031   1.375   7.412  3.4905 -0.5968  0.3011
  565MOL0     H74520  11.031   1.314   7.246 -1.4894 -1.6780 -1.1024
  565MOL0     H74521  11.095   1.086   7.295  1.9208 -1.2917  1.3008
  565MOL0     H74522  11.086   1.128   7.470 -0.1605  0.2237  0.1050
  565MOL0     H74523  11.254   1.271   7.266 -1.3527  0.2482  1.7333
  565MOL0     H74524  11.276   1.267   7.433 -2.9029  2.5837 -1.4138
  565MOL0     H74525  11.301   1.008   7.298  1.4455 -1.1383  1.0530
  565MOL0     H74526  11.397   1.082   7.436  0.9986 -0.0863  0.2133
  565MOL0     H74527  11.444   1.115   7.133  2.8695 -0.4398 -0.6813
  565MOL0     H74528  11.565   1.065   7.243  2.1158  2.9961 -3.2350
  565MOL0     H74529  11.461   1.344   7.273  1.9763  1.0620  1.6931
  565MOL0     H74530  11.571   1.271   7.373 -2.3667  0.3999  0.5783
  565MOL0     H74531  11.647   1.428   7.181 -2.7652  0.5289 -0.8765
  565MOL0     H74532  11.600   1.311   7.066  1.0552  0.8496  0.0773
  565MOL0     H74533  11.879   1.368   7.325  0.4971  2.8020 -2.9814
  565MOL0     H74534  12.137   1.098   7.247 -3.1295 -0.9399 -1.9101
  565MOL0     H74535  12.120   1.220   7.378  2.7551 -1.2318 -0.0579
  565MOL0     H74536  12.176   1.260   7.083 -1.1675 -0.2295  0.7578
  565MOL0     H74537  12.291   1.286   7.230 -0.1710  3.3128  0.9209
  565MOL0     H74538  12.070   1.480   7.131  0.1711  4.2512  2.1278
  565MOL0     H74539  12.119   1.465   7.303 -1.9964 -0.5453  0.6429
  565MOL0     H74540  12.323   1.490   7.081 -2.3024  0.5688 -1.7760
  565MOL0     H74541  12.343   1.529   7.254 -2.0274  4.1459  1.6700
  565MOL0     H74542  12.142   1.877   7.020  0.4344  1.7700 -0.5417
  565MOL0     H74543  12.280   2.027   6.891 -0.7921 -0.9448  0.8300
  565MOL0     H74544  12.720   2.241   6.780 -0.1484 -3.0235  0.2539
  565MOL0     H74545  12.849   2.313   6.598 -0.5037  0.3038 -3.1645
  565MOL0     H74546  12.944   2.197   6.243  0.3166 -1.9157  2.4857
  565MOL0     H74547  12.949   2.219   6.412 -0.7687 -1.6532 -0.0259
  565MOL0     H74548  13.075   2.374   6.229  2.6483 -0.8517  2.1707
  565MOL0     H74549  13.084   2.398   6.396  0.0761  1.1939  0.3566
  565MOL0     H74550  12.881   2.553   6.390 -2.7506 -3.2065 -0.9365
  565MOL0     H74551  12.873   2.524   6.214  0.7568  2.6865 -0.8045
  565MOL0     H74552  13.108   2.657   6.378  1.8767  1.5671 -0.7748
  565MOL0     H74553  13.116   2.627   6.203  2.2570  0.5506  0.7962
  565MOL0     H74554  12.920   2.765   6.166 -2.6311  0.5807  0.9703
  565MOL0     H74555  13.048   2.855   6.258 -1.1306  0.3001  1.1181
  565MOL0     H74556  12.926   2.813   6.468  0.8365  1.7442 -0.6430
  565MOL0     H74557  12.791   2.738   6.381  0.9297 -2.6369 -2.5230
  565MOL0     H74558  12.901   3.022   6.328 -1.5344  3.1880  0.5164
  565MOL0     H74559  12.767   2.951   6.253  1.0589 -1.0521 -0.7880
  565MOL0     H74560  12.672   2.921   6.504  2.1056 -0.7915  1.3509
  565MOL0     H74561  12.671   3.069   6.414 -3.6709 -2.1945 -0.7639
  565MOL0     H74562  12.523   2.227   6.333  0.8998 -0.9606 -1.3084
  565MOL0     H74563  12.399   2.125   6.543  0.5190 -2.9841 -2.9420
  565MOL0     H74564  12.632   1.842   7.047 -0.6243 -2.1137  1.7672
  565MOL0     H74565  12.487   1.689   7.177  1.3135 -1.0136 -0.2200
  565MOL0     H74566  10.653   1.222   7.530 -0.2364  0.8404 -0.1297
  565MOL0     H74567  10.422   1.220   7.574 -1.5442 -0.1467 -0.9411
  565MOL0     H74568  10.018   1.489   7.379  2.6965  1.3643  1.8838
  565MOL0     H74569   9.766   1.489   7.374 -1.4880 -0.1014  0.2276
  565MOL0     H74570   9.651   1.631   7.637 -0.6039  0.1397 -0.2128
  565MOL0     H74571   9.540   1.530   7.723 -0.4130 -1.0083 -0.4725
  565MOL0     H74572   9.365   1.570   7.554  0.0862  0.8602  2.3124
  565MOL0     H74573   9.433   1.723   7.596 -0.8180  0.3083  0.5250
  565MOL0     H74574   9.455   1.563   7.344  1.1710  0.5109 -0.4943
  565MOL0     H74575   9.583   1.672   7.381 -0.0134 -0.2954 -0.9549
  565MOL0     H74576   9.457   1.863   7.393 -0.7912  0.9434  0.0239
  565MOL0     H74577   9.396   1.772   7.242 -2.9380 -1.9287 -0.4509
  565MOL0     H74578   9.067   1.810   7.487  0.0893 -0.3036  0.4032
  565MOL0     H74579   9.766   1.322   7.767  0.6020 -0.4503  0.9982
  565MOL0     H74580  10.011   1.336   7.776 -0.8411  3.3866  2.0342
  566MOL0     O74581   0.536   7.457   7.912  0.4484 -0.9484 -0.9027
  566MOL0     C74582   0.526   7.381   7.814  0.1918  0.3295  0.3959
  566MOL0     O74583   0.636   7.339   7.746 -0.1524  0.5792  0.6078
  566MOL0     C74584   0.757   7.336   7.811 -0.2901 -0.9915  0.7530
  566MOL0     C74585   0.871   7.370   7.736 -0.1581  0.3578 -0.4908
  566MOL0     C74586   1.001   7.368   7.800 -0.1881  1.4486 -0.4891
  566MOL0     C74587   1.010   7.330   7.935 -0.0426  0.8916 -0.0361
  566MOL0     O74588   1.126   7.328   8.010 -0.1805  0.7159  0.6282
  566MOL0     C74589   1.245   7.387   7.967 -0.6021 -0.0465 -0.1626
  566MOL0     C74590   1.227   7.540   7.956  0.8928  1.2395  0.0064
  566MOL0     C74591   1.350   7.598   7.897 -0.7919 -0.1892  0.9128
  566MOL0     C74592   1.361   7.743   7.953  0.4888 -0.2625 -0.0040
  566MOL0     C74593   1.485   7.831   7.918  0.6174  0.3200 -0.1051
  566MOL0     C74594   1.464   7.967   7.989 -0.7872 -0.6267  0.0227
  566MOL0     C74595   1.574   8.068   7.951 -0.5548 -0.9154 -0.0309
  566MOL0     C74596   1.554   8.205   8.006  0.8804 -0.4981  0.5672
  566MOL0     N74597   1.409   8.235   8.034  0.0753 -0.2021  0.1780
  566MOL0     C74598   1.345   8.194   8.148 -0.4378  0.2293 -0.5180
  566MOL0     C74599   1.224   8.251   8.129  0.5067 -0.0661  0.0469
  566MOL0     C74600   1.100   8.229   8.211  0.0244  1.0961 -0.5459
  566MOL0     C74601   1.046   8.081   8.203  0.5901  0.1487 -0.1271
  566MOL0     C74602   1.023   8.037   8.050  0.6537  0.7555 -0.6859
  566MOL0     C74603   0.916   7.931   8.023 -0.4499  1.6501 -0.4315
  566MOL0     O74604   0.927   7.884   7.891 -0.2044 -0.0787  0.7383
  566MOL0     C74605   0.808   7.898   7.827  0.4763 -0.1910 -0.4602
  566MOL0     C74606   0.709   7.802   7.850  0.2525 -0.2420 -0.7974
  566MOL0     C74607   0.590   7.792   7.770  0.2967  0.7402 -0.0489
  566MOL0     C74608   0.577   7.884   7.663  0.0337 -0.0979  0.3070
  566MOL0     C74609   0.457   7.876   7.572  1.1327 -0.3548  0.4835
  566MOL0     O74610   0.468   7.942   7.454 -0.2080 -0.2427  0.1962
  566MOL0     C74611   0.370   7.941   7.358  0.6535  0.4036 -0.7443
  566MOL0     C74612   0.230   7.954   7.405 -0.0798  0.1003  0.8865
  566MOL0     C74613   0.132   7.967   7.305  0.6478 -0.2667  1.0584
  566MOL0     C74614   0.158   7.966   7.167  0.0145 -0.3427  0.8559
  566MOL0     O74615   0.052   7.989   7.074 -0.1419  0.5347  0.2057
  566MOL0     C74616   0.076   7.976   6.938  0.1214 -0.0294 -1.0536
  566MOL0     C74617  -0.058   7.962   6.869  0.5694 -0.3184  0.0196
  566MOL0     C74618  -0.063   7.972   6.717  0.5188  0.4584 -0.3491
  566MOL0     C74619  -0.115   7.841   6.661 -0.3200  0.3873  0.7366
  566MOL0     C74620  -0.114   7.858   6.509 -0.1135  0.1780  0.5826
  566MOL0     C74621  -0.188   7.744   6.431  0.5217  0.1170  0.3452
  566MOL0     C74622  -0.137   7.600   6.454  0.3589 -0.5395 -0.0459
  566MOL0     C74623  -0.209   7.503   6.362 -0.9679  0.5463 -0.6815
  566MOL0    Cl74624  -0.134   7.336   6.411  0.1152  0.6005  0.1210
  566MOL0     C74625   0.294   7.951   7.129 -0.1168  0.1932 -0.4577
  566MOL0     C74626   0.396   7.942   7.220  0.1357 -1.1402  0.6045
  566MOL0     O74627   0.353   7.822   7.617 -0.4157 -0.4877 -0.4998
  566MOL0     C74628   0.682   7.978   7.633 -0.9561  0.0324  0.4251
  566MOL0     C74629   0.792   7.990   7.722  0.7012  0.4329 -0.1304
  566MOL0     N74630   1.209   8.314   8.000  0.3173 -0.0980 -0.4111
  566MOL0     N74631   1.325   8.295   7.943  0.7138  0.7206 -0.5326
  566MOL0     C74632   0.898   7.306   8.005 -0.1818 -0.4287  0.7041
  566MOL0     C74633   0.774   7.300   7.944  0.2775  0.2325  0.9713
  566MOL0     C74634   0.394   7.347   7.760 -0.0120  0.8154 -1.0186
  566MOL0     C74635   0.341   7.225   7.730  0.0945  0.4190 -0.6531
  566MOL0     C74636   0.206   7.213   7.687  0.0327 -0.0385  0.3212
  566MOL0     C74637   0.136   7.323   7.657  1.4466 -0.0107 -0.8550
  566MOL0     O74638   0.002   7.300   7.617 -0.2735  0.0002  0.4588
  566MOL0     C74639  -0.073   7.405   7.551 -1.2141 -0.4484 -0.8409
  566MOL0     C74640  -0.203   7.343   7.489 -0.8455  0.1285 -0.2713
  566MOL0     C74641  -0.172   7.241   7.371  0.8095  0.7788 -0.1513
  566MOL0     C74642  -0.307   7.172   7.315 -0.2979 -0.9181 -0.1458
  566MOL0     C74643  -0.397   7.275   7.254  0.2647  1.4073  0.0875
  566MOL0     C74644  -0.471   7.352   7.194  2.0341  0.6007  0.0639
  566MOL0     C74645   0.190   7.453   7.678 -0.5497 -0.4985  0.9649
  566MOL0     C74646   0.325   7.467   7.732  0.6321  0.2573  0.3311
  566MOL0     H74647   0.851   7.385   7.631 -0.9999  0.5500 -0.3175
  566MOL0     H74648   1.097   7.389   7.753  1.1113  0.1877  1.4628
  566MOL0     H74649   1.277   7.341   7.873  0.4456 -1.3377  0.7867
  566MOL0     H74650   1.329   7.368   8.035 -0.2273  3.4653  0.5597
  566MOL0     H74651   1.220   7.557   8.064 -3.0813 -4.5569  1.1480
  566MOL0     H74652   1.140   7.580   7.902 -0.1597  1.3649  1.6935
  566MOL0     H74653   1.352   7.593   7.788  1.3436  2.4388  0.7405
  566MOL0     H74654   1.443   7.547   7.922 -1.1609 -1.6818 -0.5800
  566MOL0     H74655   1.269   7.787   7.914  1.3258  0.1361 -1.6355
  566MOL0     H74656   1.340   7.739   8.061 -0.8090  0.2654 -0.2243
  566MOL0     H74657   1.504   7.854   7.813  2.6754 -0.1684  0.1158
  566MOL0     H74658   1.574   7.788   7.964  1.3787  2.4976  0.6257
  566MOL0     H74659   1.465   7.956   8.098  1.7315  0.3684  0.1632
  566MOL0     H74660   1.366   8.005   7.959  0.6477  1.0657 -2.9462
  566MOL0     H74661   1.677   8.050   7.986 -0.0048 -0.2845 -1.2508
  566MOL0     H74662   1.574   8.070   7.842  0.3785  2.9702 -0.1078
  566MOL0     H74663   1.596   8.285   7.943  0.1165  0.3023  1.0590
  566MOL0     H74664   1.597   8.207   8.107 -1.9823  3.4164  1.9700
  566MOL0     H74665   1.388   8.119   8.214  1.4245  1.5048 -0.1876
  566MOL0     H74666   1.025   8.304   8.184  0.9179  1.3385 -2.5942
  566MOL0     H74667   1.113   8.242   8.318  0.4320 -4.2663  0.3279
  566MOL0     H74668   0.947   8.081   8.250  0.3805  2.5287 -0.4621
  566MOL0     H74669   1.117   8.008   8.243 -0.3197  0.2314  1.7623
  566MOL0     H74670   0.990   8.129   8.000 -0.8734  1.9140  2.1905
  566MOL0     H74671   1.118   8.004   8.008  0.9527 -2.6542  2.2535
  566MOL0     H74672   0.818   7.974   8.044 -1.7434 -1.1152 -0.4481
  566MOL0     H74673   0.941   7.851   8.093 -2.0039  0.9595 -0.6283
  566MOL0     H74674   0.731   7.726   7.924 -0.4952  1.6390  1.5026
  566MOL0     H74675   0.516   7.713   7.782  0.0197  0.9198 -0.5500
  566MOL0     H74676   0.216   7.963   7.512  0.8562  2.4754  0.8575
  566MOL0     H74677   0.025   7.973   7.318 -0.0467  0.1938 -3.2271
  566MOL0     H74678   0.128   7.884   6.911 -2.0124 -2.0541  1.1838
  566MOL0     H74679   0.133   8.061   6.902  0.5788 -0.5222 -1.5052
  566MOL0     H74680  -0.125   8.040   6.907 -0.0435 -0.5846 -0.5078
  566MOL0     H74681  -0.098   7.864   6.896  0.5149 -0.5028 -0.6981
  566MOL0     H74682   0.034   7.987   6.669  1.3240  0.4981  1.2270
  566MOL0     H74683  -0.133   8.048   6.681 -2.9921 -3.4909 -2.7856
  566MOL0     H74684  -0.058   7.751   6.687  0.6212 -0.5167 -3.6507
  566MOL0     H74685  -0.218   7.819   6.691 -0.8245 -0.1351 -1.2249
  566MOL0     H74686  -0.011   7.855   6.472  0.6802  0.6342  2.6208
  566MOL0     H74687  -0.160   7.951   6.472  2.6266  0.7294 -1.9072
  566MOL0     H74688  -0.156   7.766   6.329  5.0567 -0.9601  1.3435
  566MOL0     H74689  -0.298   7.748   6.433  0.3679 -2.0106 -0.6651
  566MOL0     H74690  -0.028   7.603   6.439  0.5521 -1.8038  0.9351
  566MOL0     H74691  -0.143   7.571   6.560 -1.0071 -0.3985 -0.0780
  566MOL0     H74692  -0.195   7.522   6.256 -1.2957  3.1196 -0.3386
  566MOL0     H74693  -0.315   7.497   6.389 -0.9811 -0.4483 -0.8991
  566MOL0     H74694   0.325   7.949   7.025 -1.4622 -0.7723 -0.8795
  566MOL0     H74695   0.501   7.944   7.195  0.1311 -0.6475  0.6206
  566MOL0     H74696   0.677   8.046   7.549  0.3292 -0.7320 -0.3124
  566MOL0     H74697   0.874   8.057   7.700  0.7747 -0.1262 -1.7108
  566MOL0     H74698   0.911   7.291   8.112  1.6672 -0.1035  0.5606
  566MOL0     H74699   0.688   7.265   8.000 -1.3121 -0.4571 -1.7024
  566MOL0     H74700   0.392   7.130   7.745 -3.3527 -1.8626 -2.3025
  566MOL0     H74701   0.165   7.112   7.686 -0.9586  0.3492  0.2044
  566MOL0     H74702  -0.016   7.455   7.472  0.9643 -0.0174  0.8908
  566MOL0     H74703  -0.105   7.475   7.629 -0.9700  0.1303 -1.2545
  566MOL0     H74704  -0.251   7.294   7.574 -0.0388 -2.4583 -1.2075
  566MOL0     H74705  -0.272   7.411   7.436  1.4653  2.8609 -0.0086
  566MOL0     H74706  -0.104   7.164   7.410 -1.9792 -1.3949  0.7533
  566MOL0     H74707  -0.120   7.299   7.294 -1.5831 -1.0617 -3.4664
  566MOL0     H74708  -0.286   7.090   7.244 -1.4202 -2.0796  0.8193
  566MOL0     H74709  -0.362   7.135   7.402 -2.0529  0.8005 -0.4850
  566MOL0     H74710  -0.537   7.415   7.139  1.1286  1.1374  1.7026
  566MOL0     H74711   0.136   7.545   7.658  2.1777  0.9068 -0.4519
  566MOL0     H74712   0.360   7.566   7.758 -0.3861 -0.3303  4.7286
  567MOL0     O74713   9.524   3.840   2.729 -0.4283 -0.0435 -0.2595
  567MOL0     C74714   9.508   3.791   2.620  0.8027  0.7383 -0.7395
  567MOL0     O74715   9.434   3.680   2.604  0.7616  0.8429  0.0742
  567MOL0     C74716   9.332   3.656   2.693  0.1399  0.5584 -0.0451
  567MOL0     C74717   9.197   3.679   2.660  0.3254  0.6776  0.1758
  567MOL0     C74718   9.090   3.635   2.749  0.9347  0.8300 -0.3277
  567MOL0     C74719   9.119   3.561   2.868 -0.5012  0.3633  0.0934
  567MOL0     O74720   9.032   3.502   2.956 -0.6651 -0.4054  0.1627
  567MOL0     C74721   8.892   3.507   2.913  0.1821  0.3835  0.1692
  567MOL0     C74722   8.818   3.457   3.037  0.5810 -2.1122 -0.7097
  567MOL0     C74723   8.668   3.463   2.993  0.6112  0.2571 -0.6127
  567MOL0     C74724   8.572   3.433   3.106 -0.1407 -0.8150 -0.9575
  567MOL0     C74725   8.568   3.285   3.134  0.7791  0.6519  0.5499
  567MOL0     C74726   8.520   3.260   3.271 -0.2572  0.8214  0.0621
  567MOL0     C74727   8.371   3.282   3.285 -0.0499  0.5329 -0.5558
  567MOL0     C74728   8.311   3.316   3.417 -0.0784 -0.1530  0.3864
  567MOL0     N74729   8.163   3.337   3.414  0.6727 -0.0487  0.2949
  567MOL0     C74730   8.086   3.453   3.424 -0.5615  0.2047  0.8112
  567MOL0     C74731   7.954   3.413   3.435 -0.8257  0.1968 -0.0916
  567MOL0     C74732   7.838   3.507   3.456 -0.1475 -0.3768  0.7807
  567MOL0     C74733   7.715   3.419   3.487 -0.3137  0.2892  0.7366
  567MOL0     C74734   7.587   3.511   3.486  0.5468 -0.5500 -0.5888
  567MOL0     C74735   7.461   3.433   3.529 -0.6746  0.1670  0.1258
  567MOL0     O74736   7.479   3.404   3.666 -0.0499 -0.5802 -0.1952
  567MOL0     C74737   7.366   3.349   3.714 -0.3198  0.8317 -0.0741
  567MOL0     C74738   7.351   3.205   3.723 -0.5818 -0.6442  0.0338
  567MOL0     C74739   7.234   3.148   3.777 -0.1130 -0.9934  0.2519
  567MOL0     C74740   7.133   3.229   3.833 -0.2818  1.4743  0.1318
  567MOL0     C74741   7.001   3.165   3.883  0.0255 -0.9842  0.5902
  567MOL0     O74742   6.908   3.235   3.954  0.0389 -0.9810 -0.5667
  567MOL0     C74743   6.792   3.174   3.976  0.2533  0.4075 -0.4563
  567MOL0     C74744   6.677   3.204   3.905  0.6087 -0.3474 -0.7358
  567MOL0     C74745   6.561   3.143   3.943 -0.3639  0.9202  0.9612
  567MOL0     C74746   6.548   3.049   4.043 -0.5767 -0.6419  0.2658
  567MOL0     O74747   6.439   2.975   4.081  0.2521  0.4690 -0.3521
  567MOL0     C74748   6.314   3.022   4.041 -0.0621  0.5979  0.0923
  567MOL0     C74749   6.214   2.913   4.029  0.0894  0.5109 -0.1064
  567MOL0     C74750   6.076   2.963   4.055 -0.3190 -0.3792 -0.6217
  567MOL0     C74751   5.978   2.871   3.997  0.3576  0.5437 -0.5489
  567MOL0     C74752   5.833   2.930   3.989  0.5230  0.3727  0.3495
  567MOL0     C74753   5.800   3.009   4.112 -0.3379 -0.3643  0.1284
  567MOL0     C74754   5.649   3.019   4.118  0.2977 -0.1632  0.3634
  567MOL0     C74755   5.594   2.907   4.204 -0.0165 -0.7900  0.6789
  567MOL0    Cl74756   5.416   2.931   4.227 -0.0948 -0.1955 -0.2420
  567MOL0     C74757   6.665   3.027   4.121 -0.6532 -0.6070  0.1983
  567MOL0     C74758   6.787   3.089   4.087  0.1073  0.3876 -0.1022
  567MOL0     O74759   6.985   3.057   3.844  0.0632  0.1712  0.1999
  567MOL0     C74760   7.154   3.365   3.828  0.5256 -0.1707  0.1626
  567MOL0     C74761   7.267   3.423   3.765  0.6026  0.0498 -0.0371
  567MOL0     N74762   7.954   3.273   3.420  1.0191 -0.1722 -0.0123
  567MOL0     N74763   8.072   3.229   3.415 -0.4051 -0.2106 -0.0297
  567MOL0     C74764   9.259   3.550   2.909 -0.1335 -0.6442  0.2973
  567MOL0     C74765   9.360   3.591   2.817 -1.8350  0.4439 -0.5290
  567MOL0     C74766   9.566   3.855   2.505  0.4792  0.5906  0.1505
  567MOL0     C74767   9.674   3.949   2.510  0.7373  0.1291 -0.1434
  567MOL0     C74768   9.719   4.008   2.393  0.3218 -0.7200 -0.4387
  567MOL0     C74769   9.661   3.978   2.266 -0.1991  0.7976 -0.2136
  567MOL0     O74770   9.733   4.020   2.158  0.6226 -0.4473  0.5214
  567MOL0     C74771   9.667   3.997   2.031  1.0154  0.8669 -0.6897
  567MOL0     C74772   9.725   4.067   1.908  0.1400 -0.1213  0.5261
  567MOL0     C74773   9.631   4.034   1.788 -0.7104 -0.2430  0.3060
  567MOL0     C74774   9.683   4.085   1.652  0.6736  0.1850  0.6725
  567MOL0     C74775   9.807   4.005   1.618  0.6331 -0.5122 -0.8603
  567MOL0     C74776   9.904   3.957   1.579  0.2638  0.1545  0.2975
  567MOL0     C74777   9.549   3.893   2.266 -0.3691 -0.0846  1.2025
  567MOL0     C74778   9.494   3.845   2.387 -0.3171 -0.1393  0.7786
  567MOL0     H74779   9.164   3.732   2.572 -1.7339  1.5238  1.3940
  567MOL0     H74780   8.985   3.652   2.726  0.6818 -2.3300 -2.1601
  567MOL0     H74781   8.866   3.433   2.836 -1.2672  2.2618 -1.2245
  567MOL0     H74782   8.855   3.605   2.884 -0.2473 -0.0482 -0.7577
  567MOL0     H74783   8.842   3.507   3.131  1.6759 -3.2396 -0.3677
  567MOL0     H74784   8.844   3.351   3.039  2.7049 -1.6530  2.1913
  567MOL0     H74785   8.645   3.383   2.922 -0.4346 -0.8275  0.9050
  567MOL0     H74786   8.645   3.557   2.942  3.4449 -0.3305 -3.2770
  567MOL0     H74787   8.592   3.496   3.193 -1.1323 -0.5878 -0.8753
  567MOL0     H74788   8.468   3.452   3.078 -0.2037 -0.2265 -0.3376
  567MOL0     H74789   8.671   3.247   3.136  0.2351 -1.2745 -2.3990
  567MOL0     H74790   8.510   3.225   3.064  2.0476 -1.1060  0.9267
  567MOL0     H74791   8.589   3.306   3.342  2.5668 -2.7452 -0.0564
  567MOL0     H74792   8.541   3.153   3.285  0.3471  0.7688 -1.0861
  567MOL0     H74793   8.344   3.365   3.220 -2.7598  0.6055  0.5571
  567MOL0     H74794   8.322   3.193   3.243 -0.6345  0.8415 -0.5348
  567MOL0     H74795   8.343   3.411   3.461  2.4770  0.3509 -2.3160
  567MOL0     H74796   8.319   3.230   3.485 -0.8866  0.2874  1.0618
  567MOL0     H74797   8.126   3.553   3.423  1.7021 -0.6338 -0.7840
  567MOL0     H74798   7.821   3.568   3.368  1.0550  1.6377  1.8797
  567MOL0     H74799   7.875   3.570   3.538  3.1935  1.4232 -1.8486
  567MOL0     H74800   7.726   3.380   3.589 -4.3796  0.3060  1.3642
  567MOL0     H74801   7.692   3.340   3.414 -1.3176  0.6916  0.6073
  567MOL0     H74802   7.603   3.599   3.549 -0.4091  0.6770 -1.9926
  567MOL0     H74803   7.571   3.547   3.384 -2.1294 -0.6670 -0.2856
  567MOL0     H74804   7.459   3.348   3.461 -0.7400 -0.3321  0.7482
  567MOL0     H74805   7.383   3.510   3.528  1.0422  2.1024  2.2360
  567MOL0     H74806   7.434   3.154   3.675 -0.7017 -1.1179  0.3222
  567MOL0     H74807   7.220   3.041   3.766 -1.7969 -0.5819 -2.5902
  567MOL0     H74808   6.669   3.276   3.825  0.7405  0.3104 -0.1640
  567MOL0     H74809   6.475   3.167   3.882  0.0626 -1.6623 -0.8061
  567MOL0     H74810   6.313   3.078   3.947  1.0834 -1.4476 -1.2138
  567MOL0     H74811   6.297   3.087   4.127  0.4929  1.2015 -0.2478
  567MOL0     H74812   6.240   2.833   4.100  2.6041 -0.8121 -2.3323
  567MOL0     H74813   6.233   2.873   3.929  3.8890  3.2586 -0.6820
  567MOL0     H74814   6.068   3.060   4.004 -2.2828  1.4318  2.7834
  567MOL0     H74815   6.055   2.976   4.162 -2.3809 -3.3451 -0.5600
  567MOL0     H74816   6.005   2.850   3.893  1.0143  1.7380 -0.6374
  567MOL0     H74817   5.976   2.773   4.045  3.2703 -0.7536 -2.7868
  567MOL0     H74818   5.767   2.845   3.970  0.3881  0.2999  1.1080
  567MOL0     H74819   5.824   3.001   3.906 -3.1678 -0.3729 -0.0549
  567MOL0     H74820   5.840   3.110   4.100 -0.7020 -0.3182 -0.6953
  567MOL0     H74821   5.833   2.968   4.209 -0.4375 -3.0967 -0.8941
  567MOL0     H74822   5.622   3.107   4.176 -0.8776 -1.5571  2.0346
  567MOL0     H74823   5.608   3.025   4.017  1.0990  1.1499  0.0933
  567MOL0     H74824   5.637   2.909   4.305  2.6168  1.6051 -0.3461
  567MOL0     H74825   5.611   2.814   4.150  1.8138 -0.8378  1.2462
  567MOL0     H74826   6.674   2.951   4.198 -0.2291 -2.8483 -1.9045
  567MOL0     H74827   6.881   3.071   4.140  2.5715 -1.1267 -4.4895
  567MOL0     H74828   7.079   3.416   3.887  1.7670  2.3379 -0.3026
  567MOL0     H74829   7.288   3.530   3.764  2.0562 -0.2135 -0.7400
  567MOL0     H74830   9.292   3.507   3.003  0.6932 -0.6537  0.0116
  567MOL0     H74831   9.464   3.574   2.846 -1.8178 -0.9857 -1.3709
  567MOL0     H74832   9.727   3.968   2.603  3.8608  1.2381 -1.9903
  567MOL0     H74833   9.803   4.076   2.392 -1.4458  1.5963  0.0953
  567MOL0     H74834   9.562   4.025   2.034 -0.4460 -3.6710 -1.4568
  567MOL0     H74835   9.665   3.889   2.013  1.2972  0.3858  1.7888
  567MOL0     H74836   9.717   4.174   1.930 -1.6027 -0.2142  0.4540
  567MOL0     H74837   9.826   4.043   1.874 -0.4526 -0.5451 -0.9917
  567MOL0     H74838   9.530   4.071   1.810 -0.1106  0.5233  1.8967
  567MOL0     H74839   9.629   3.925   1.794  4.1802 -0.7819 -2.5001
  567MOL0     H74840   9.606   4.072   1.576  1.5589  1.1108 -0.4225
  567MOL0     H74841   9.705   4.192   1.650 -1.0262  0.6417  2.8013
  567MOL0     H74842   9.978   3.891   1.540 -0.1451 -2.1982  3.1390
  567MOL0     H74843   9.509   3.867   2.169  1.1529 -3.3920  1.3088
  567MOL0     H74844   9.400   3.791   2.380 -1.7065  1.6717  3.4903
  568MOL0     O74845   8.704   6.046   7.803  1.7478 -0.6436  0.0489
  568MOL0     C74846   8.755   6.049   7.693 -0.4310  0.1458  0.8804
  568MOL0     O74847   8.815   5.937   7.624 -0.6669 -0.4442 -0.7702
  568MOL0     C74848   8.832   5.815   7.695  0.1114 -1.3673 -0.4704
  568MOL0     C74849   8.958   5.792   7.746 -0.9429 -0.1758 -0.9257
  568MOL0     C74850   8.978   5.683   7.824  0.0853 -0.3176 -0.6119
  568MOL0     C74851   8.875   5.583   7.842  0.2084  0.3793 -0.3722
  568MOL0     O74852   8.905   5.479   7.924  0.1935  0.8171 -0.0612
  568MOL0     C74853   8.884   5.341   7.880 -0.1012 -0.3225 -0.6818
  568MOL0     C74854   8.848   5.242   7.989 -0.3570  0.2809 -0.4034
  568MOL0     C74855   8.733   5.299   8.075  0.3032  1.1934 -0.0210
  568MOL0     C74856   8.597   5.267   7.993  0.0965 -0.0731  0.5463
  568MOL0     C74857   8.490   5.208   8.084 -0.0470  0.7721 -0.0006
  568MOL0     C74858   8.347   5.217   8.030 -0.0293  0.1913  0.2388
  568MOL0     C74859   8.266   5.358   8.037 -0.2561  0.0116  0.6447
  568MOL0     C74860   8.161   5.371   7.930 -0.0007  0.3864  0.1245
  568MOL0     N74861   8.033   5.299   7.967 -0.0321  0.2232  0.1698
  568MOL0     C74862   7.914   5.297   7.896  0.7861  0.7027  0.4373
  568MOL0     C74863   7.829   5.209   7.967 -0.9085 -0.5197 -0.6046
  568MOL0     C74864   7.684   5.188   7.936  0.3083  0.5110 -0.8594
  568MOL0     C74865   7.607   5.215   8.061 -0.1384  0.7476  0.1477
  568MOL0     C74866   7.458   5.225   8.046  0.3190  0.5467 -0.6404
  568MOL0     C74867   7.388   5.175   8.178 -0.0744 -1.0445 -0.0990
  568MOL0     O74868   7.320   5.288   8.251 -0.4235 -0.0590 -1.0192
  568MOL0     C74869   7.182   5.288   8.242 -0.2601  0.5330 -0.4972
  568MOL0     C74870   7.113   5.174   8.306 -0.6827 -0.6233  0.1117
  568MOL0     C74871   6.975   5.162   8.287 -0.3539  0.2184  0.5266
  568MOL0     C74872   6.897   5.265   8.222 -0.2250  0.7160 -0.0794
  568MOL0     C74873   6.750   5.251   8.212 -0.6702 -0.6433  0.0056
  568MOL0     O74874   6.687   5.373   8.181  0.3305 -0.5145 -0.2133
  568MOL0     C74875   6.560   5.374   8.132 -0.3688  0.5697 -0.0266
  568MOL0     C74876   6.488   5.475   8.193  0.0314  0.2975 -0.3460
  568MOL0     C74877   6.355   5.490   8.167 -0.6560 -0.0999 -0.0694
  568MOL0     C74878   6.300   5.425   8.052 -0.6708  0.1684 -0.2192
  568MOL0     O74879   6.178   5.461   8.019  0.1642  0.5445  0.0422
  568MOL0     C74880   6.112   5.396   7.915  0.4414  0.5728  1.0663
  568MOL0     C74881   5.976   5.456   7.909  0.1594  0.0928 -0.3551
  568MOL0     C74882   5.902   5.412   7.786  0.0751  1.4300  0.2174
  568MOL0     C74883   5.752   5.419   7.805  0.7316 -0.1689  0.8688
  568MOL0     C74884   5.670   5.375   7.685 -0.1395  0.2718 -0.3908
  568MOL0     C74885   5.531   5.431   7.703  0.4989 -0.5137  0.1055
  568MOL0     C74886   5.451   5.391   7.825 -0.0159  0.6227 -1.1051
  568MOL0     C74887   5.347   5.495   7.848  0.7499  0.2011  0.1028
  568MOL0    Cl74888   5.215   5.489   7.716  0.3899  0.3852  0.5534
  568MOL0     C74889   6.379   5.327   7.975 -0.7221 -1.2540 -0.2605
  568MOL0     C74890   6.510   5.307   8.021 -0.2584  0.4573  0.1143
  568MOL0     O74891   6.697   5.140   8.201 -0.6719  0.2559 -0.0699
  568MOL0     C74892   6.969   5.372   8.162  0.3342  0.0616  0.7422
  568MOL0     C74893   7.110   5.379   8.170 -0.9240 -0.5635  0.2609
  568MOL0     N74894   7.896   5.166   8.078  0.4034 -0.4187 -0.3804
  568MOL0     N74895   8.022   5.221   8.077 -0.1021 -0.2395 -0.4996
  568MOL0     C74896   8.745   5.610   7.791  0.8589  0.4844 -0.1081
  568MOL0     C74897   8.722   5.726   7.720 -0.5242  0.6527 -0.1742
  568MOL0     C74898   8.755   6.174   7.618 -1.2505 -0.4370 -0.1654
  568MOL0     C74899   8.798   6.170   7.485 -1.7394 -0.7816  0.1041
  568MOL0     C74900   8.785   6.288   7.415 -0.3636 -0.2753  0.4640
  568MOL0     C74901   8.722   6.411   7.461  0.6455 -0.2720  0.3882
  568MOL0     O74902   8.699   6.512   7.369 -0.3110  0.7887 -0.3412
  568MOL0     C74903   8.632   6.627   7.401 -0.3434  0.1249 -0.2099
  568MOL0     C74904   8.572   6.691   7.285 -0.8595 -0.0549 -0.1915
  568MOL0     C74905   8.473   6.786   7.332  0.6076  0.3515 -0.7785
  568MOL0     C74906   8.344   6.719   7.381 -0.1008  0.1413  0.2337
  568MOL0     C74907   8.257   6.659   7.275  0.1081  0.1970 -0.9113
  568MOL0     C74908   8.186   6.599   7.201 -0.3320  0.4028  0.2962
  568MOL0     C74909   8.679   6.409   7.598 -0.7156 -0.3785 -0.2268
  568MOL0     C74910   8.707   6.295   7.679  0.1045 -0.3856  0.2005
  568MOL0     H74911   9.034   5.867   7.726 -2.7903  1.8628 -0.6648
  568MOL0     H74912   9.081   5.666   7.854 -0.8946 -4.6552  1.0556
  568MOL0     H74913   8.979   5.311   7.836  0.5596 -0.2832  0.6654
  568MOL0     H74914   8.813   5.326   7.798  0.4577  0.4115 -1.3185
  568MOL0     H74915   8.941   5.247   8.046  0.9032  1.6953 -2.4374
  568MOL0     H74916   8.842   5.140   7.950  4.4835 -0.8915  1.2553
  568MOL0     H74917   8.731   5.408   8.084 -4.0970  1.2298  0.5801
  568MOL0     H74918   8.732   5.247   8.171  1.7568 -1.3130 -1.2243
  568MOL0     H74919   8.552   5.358   7.954 -1.0590 -1.9364 -2.8888
  568MOL0     H74920   8.612   5.208   7.902 -0.0309  1.7225 -0.6843
  568MOL0     H74921   8.486   5.242   8.188 -1.3682  1.8427 -0.3811
  568MOL0     H74922   8.521   5.103   8.084  0.5767  0.9490  0.3791
  568MOL0     H74923   8.281   5.149   8.084  0.8413 -1.6479 -0.8762
  568MOL0     H74924   8.349   5.198   7.922 -2.5218 -1.2687  0.3676
  568MOL0     H74925   8.221   5.368   8.136 -1.5173 -2.5180  0.4055
  568MOL0     H74926   8.338   5.437   8.012  1.0219 -1.5038 -0.7213
  568MOL0     H74927   8.200   5.307   7.851  2.5363  0.4347  1.2289
  568MOL0     H74928   8.140   5.473   7.897 -3.5528  0.5351  2.2261
  568MOL0     H74929   7.893   5.341   7.799 -0.9527 -1.3485 -0.2067
  568MOL0     H74930   7.664   5.083   7.912  2.5683 -0.0589 -0.4721
  568MOL0     H74931   7.659   5.251   7.850  0.6216 -0.4467 -1.6798
  568MOL0     H74932   7.654   5.305   8.103  0.0817  2.6171 -3.6913
  568MOL0     H74933   7.633   5.137   8.133  2.3451  2.4152  1.2218
  568MOL0     H74934   7.430   5.329   8.029  0.7008  0.9850  1.1683
  568MOL0     H74935   7.423   5.147   7.978  2.7797 -1.4858  0.2533
  568MOL0     H74936   7.464   5.135   8.245  0.1246  0.6916  0.7899
  568MOL0     H74937   7.321   5.094   8.151 -0.5590  0.2331 -3.1508
  568MOL0     H74938   7.175   5.102   8.358  2.8561  1.8248 -0.3288
  568MOL0     H74939   6.919   5.090   8.347 -1.7917  0.0616 -0.9153
  568MOL0     H74940   6.543   5.526   8.273 -0.5828  1.9864 -0.9442
  568MOL0     H74941   6.304   5.557   8.235  0.5508  1.9112 -1.0477
  568MOL0     H74942   6.102   5.290   7.942  0.8587  0.3681  0.4379
  568MOL0     H74943   6.172   5.403   7.824  1.3093  0.7733  1.6446
  568MOL0     H74944   5.988   5.564   7.907 -2.8054  0.5441 -3.1885
  568MOL0     H74945   5.932   5.422   8.004 -0.7673 -0.4559 -0.9605
  568MOL0     H74946   5.929   5.307   7.772 -2.7567  0.8899 -1.9461
  568MOL0     H74947   5.934   5.472   7.701 -0.3745  2.4492  0.7519
  568MOL0     H74948   5.712   5.363   7.890  0.3864  0.7360  1.3164
  568MOL0     H74949   5.730   5.520   7.839  0.7869 -0.9713  3.5223
  568MOL0     H74950   5.663   5.265   7.682 -0.2296  0.2928 -1.2422
  568MOL0     H74951   5.725   5.413   7.599  2.1126 -2.8902 -0.5082
  568MOL0     H74952   5.469   5.401   7.617 -2.2851 -2.0366  2.4346
  568MOL0     H74953   5.549   5.538   7.706 -0.0286 -0.4143 -0.1011
  568MOL0     H74954   5.399   5.295   7.815  3.1502 -1.5309  1.0744
  568MOL0     H74955   5.517   5.400   7.911  2.2137  1.8067 -2.8448
  568MOL0     H74956   5.386   5.597   7.858 -0.0635  0.5444 -0.1436
  568MOL0     H74957   5.302   5.467   7.944  1.0018  0.2004  0.2210
  568MOL0     H74958   6.350   5.279   7.883 -0.6838  2.1635 -2.2395
  568MOL0     H74959   6.564   5.228   7.970  1.6695  0.9042  1.3478
  568MOL0     H74960   6.927   5.444   8.092  3.9871  0.0196 -1.7494
  568MOL0     H74961   7.160   5.453   8.109  1.2581 -0.6059  1.8700
  568MOL0     H74962   8.670   5.544   7.833  0.6992  0.8661  0.2158
  568MOL0     H74963   8.619   5.747   7.694 -0.2453  0.3566 -1.6048
  568MOL0     H74964   8.834   6.084   7.429 -0.2978  0.1490 -0.4696
  568MOL0     H74965   8.817   6.303   7.312  1.3532 -0.1397  0.9923
  568MOL0     H74966   8.710   6.690   7.445 -1.2556  2.0266 -1.1735
  568MOL0     H74967   8.560   6.608   7.481  1.9263 -3.9385  1.1683
  568MOL0     H74968   8.643   6.756   7.233 -0.4672  2.8584  3.5396
  568MOL0     H74969   8.531   6.616   7.218  3.4329 -1.2464 -1.8081
  568MOL0     H74970   8.435   6.854   7.256  0.9602  0.5710 -0.7575
  568MOL0     H74971   8.517   6.845   7.413  2.7134  0.0724 -1.6481
  568MOL0     H74972   8.356   6.649   7.465 -1.3128 -0.4096 -0.0322
  568MOL0     H74973   8.296   6.805   7.428  0.3377  1.7362 -2.0749
  568MOL0     H74974   8.124   6.544   7.134 -0.2477  1.6991 -0.8914
  568MOL0     H74975   8.626   6.489   7.650  1.2876 -0.4244  2.0751
  568MOL0     H74976   8.677   6.280   7.782  1.4892 -1.6429  0.4500
  569MOL0     O74977   5.397   3.453   1.641  0.0637  0.9734 -0.7553
  569MOL0     C74978   5.322   3.373   1.586  0.0272 -0.8717 -0.2523
  569MOL0     O74979   5.232   3.402   1.482 -0.6999  0.2297  0.5134
  569MOL0     C74980   5.243   3.526   1.431  0.1980  0.2564  0.2190
  569MOL0     C74981   5.362   3.592   1.395 -0.2746 -0.2571  0.1612
  569MOL0     C74982   5.368   3.729   1.345  0.3435  0.1201 -0.1069
  569MOL0     C74983   5.247   3.805   1.337  0.1845  0.4760  0.2065
  569MOL0     O74984   5.270   3.939   1.308 -0.8817  0.0076 -0.1069
  569MOL0     C74985   5.193   4.030   1.389  0.2458 -0.3827  0.3222
  569MOL0     C74986   5.220   4.173   1.339 -0.2091 -0.6554 -0.5088
  569MOL0     C74987   5.369   4.215   1.364  0.2643 -0.1271 -0.3243
  569MOL0     C74988   5.408   4.350   1.299 -0.6449  1.0009  0.3940
  569MOL0     C74989   5.548   4.406   1.293  0.5225  0.2020 -0.0923
  569MOL0     C74990   5.639   4.348   1.186  0.1050 -0.2603 -0.9578
  569MOL0     C74991   5.673   4.195   1.207  0.5150 -0.0690  0.6107
  569MOL0     C74992   5.794   4.147   1.122 -0.3123 -0.1401  0.0866
  569MOL0     N74993   5.928   4.153   1.185  0.2831 -0.0231  0.3683
  569MOL0     C74994   6.017   4.050   1.212  0.4323 -0.1510  0.8276
  569MOL0     C74995   6.134   4.113   1.245 -1.1569  0.2021  0.7021
  569MOL0     C74996   6.269   4.044   1.262  0.1836  0.9775  0.1082
  569MOL0     C74997   6.323   3.963   1.151 -0.6985  0.0742 -0.1877
  569MOL0     C74998   6.473   3.946   1.164 -0.6377 -0.1181  0.4564
  569MOL0     C74999   6.530   3.871   1.290 -0.4462  0.3646 -0.7089
  569MOL0     O75000   6.483   3.744   1.279  0.8784  0.1944 -0.6244
  569MOL0     C75001   6.570   3.650   1.315  0.0813  0.1446  0.2460
  569MOL0     C75002   6.526   3.518   1.302 -0.6581 -0.0396  0.4569
  569MOL0     C75003   6.615   3.408   1.315  0.4814  0.2523 -0.3601
  569MOL0     C75004   6.747   3.425   1.365  0.3710  1.0589 -0.6235
  569MOL0     C75005   6.828   3.312   1.410 -1.0325  0.0505  0.8561
  569MOL0     O75006   6.783   3.186   1.386  0.1862  0.8070 -0.0163
  569MOL0     C75007   6.857   3.072   1.393 -0.0037  0.5628 -0.2343
  569MOL0     C75008   6.795   2.960   1.435 -0.0279  0.8193  0.7149
  569MOL0     C75009   6.868   2.832   1.434  0.5125  0.4249 -0.3661
  569MOL0     C75010   7.011   2.832   1.423 -0.1009 -0.7248  0.2020
  569MOL0     O75011   7.089   2.725   1.439 -0.0123 -0.2285  1.0032
  569MOL0     C75012   7.114   2.686   1.567  0.0365  0.2709  0.0006
  569MOL0     C75013   7.212   2.574   1.586  0.0569 -0.4830  0.2452
  569MOL0     C75014   7.251   2.558   1.734 -0.5128  0.1452  0.0022
  569MOL0     C75015   7.405   2.511   1.743  0.3779 -0.6413 -0.4207
  569MOL0     C75016   7.458   2.526   1.895 -0.2404  0.1014  0.5543
  569MOL0     C75017   7.419   2.405   1.984 -0.2128 -0.5501  0.1355
  569MOL0     C75018   7.491   2.397   2.125 -0.5518 -0.9803  0.3764
  569MOL0     C75019   7.573   2.271   2.152  0.2111 -1.1127  0.3797
  569MOL0    Cl75020   7.743   2.295   2.099 -0.4628  0.1599 -0.1263
  569MOL0     C75021   7.074   2.963   1.394  0.5643  0.9372  0.3708
  569MOL0     C75022   6.992   3.072   1.371  0.1655  0.3451  0.2129
  569MOL0     O75023   6.923   3.339   1.489  0.2813 -0.1187  0.3871
  569MOL0     C75024   6.784   3.559   1.388  1.4937 -0.3615 -1.0421
  569MOL0     C75025   6.692   3.665   1.370 -0.6127 -0.0609  0.3644
  569MOL0     N75026   6.108   4.248   1.234  0.7305 -0.5979  0.3679
  569MOL0     N75027   5.987   4.263   1.203 -0.1995  0.0361 -0.5550
  569MOL0     C75028   5.124   3.735   1.372  0.2118  0.5455  1.0279
  569MOL0     C75029   5.128   3.599   1.408  0.6204  0.0848  0.0199
  569MOL0     C75030   5.327   3.232   1.639 -0.2962  0.2649 -0.4942
  569MOL0     C75031   5.273   3.136   1.548 -0.1802  0.8647  0.3435
  569MOL0     C75032   5.273   3.002   1.588  0.7809 -0.4094 -0.5263
  569MOL0     C75033   5.335   2.968   1.717 -0.2698 -0.1134  0.0844
  569MOL0     O75034   5.360   2.831   1.729 -0.5486  0.6371  0.0653
  569MOL0     C75035   5.445   2.766   1.819  0.1843 -0.0240  0.2262
  569MOL0     C75036   5.377   2.653   1.888  0.0774 -0.5124  0.3784
  569MOL0     C75037   5.261   2.691   1.988  0.1805 -0.9359  0.7605
  569MOL0     C75038   5.182   2.563   2.029 -0.4804  0.0055 -0.0083
  569MOL0     C75039   5.259   2.469   2.108 -1.1452 -0.2506 -0.3630
  569MOL0     C75040   5.343   2.409   2.180  0.5472 -1.4916  0.4219
  569MOL0     C75041   5.372   3.065   1.808 -0.8388  0.4744 -0.7813
  569MOL0     C75042   5.362   3.203   1.768 -0.6902 -0.1784 -0.1778
  569MOL0     H75043   5.449   3.528   1.406 -0.9781 -1.1137  0.9408
  569MOL0     H75044   5.466   3.768   1.321  0.6853 -1.3786 -1.3236
  569MOL0     H75045   5.217   4.014   1.494 -2.0067 -3.2436  0.5214
  569MOL0     H75046   5.087   4.007   1.395  0.1611 -0.0499  0.1624
  569MOL0     H75047   5.149   4.240   1.388  0.5675  0.1666 -0.4771
  569MOL0     H75048   5.189   4.182   1.234  1.1531  1.8454 -0.7703
  569MOL0     H75049   5.442   4.146   1.321  1.5506  2.4897 -2.6900
  569MOL0     H75050   5.391   4.229   1.470 -2.3431 -2.5501  0.6566
  569MOL0     H75051   5.379   4.352   1.194  0.7061  1.0653  0.0065
  569MOL0     H75052   5.345   4.425   1.349  0.4856  0.5737  2.6221
  569MOL0     H75053   5.595   4.400   1.392  1.4305  0.5291 -0.4994
  569MOL0     H75054   5.535   4.513   1.277  1.6686  0.1551 -1.5088
  569MOL0     H75055   5.730   4.409   1.197  1.9281 -3.1335  1.6802
  569MOL0     H75056   5.592   4.372   1.091 -3.1255  1.0146  0.7912
  569MOL0     H75057   5.680   4.174   1.314 -0.1675  5.3508  2.0195
  569MOL0     H75058   5.586   4.137   1.175 -0.5775  2.1123 -0.6247
  569MOL0     H75059   5.800   4.220   1.041  0.1215 -1.6619 -1.2984
  569MOL0     H75060   5.774   4.048   1.080 -1.7851  0.0393  0.3343
  569MOL0     H75061   5.995   3.944   1.213  0.9844 -0.2707  1.3074
  569MOL0     H75062   6.254   3.974   1.346 -1.8887  0.5234 -0.5908
  569MOL0     H75063   6.346   4.121   1.273  0.6263  0.6573 -0.6817
  569MOL0     H75064   6.303   4.018   1.059  1.0204  0.7241 -0.2063
  569MOL0     H75065   6.267   3.869   1.149 -0.0791 -0.5061  3.0927
  569MOL0     H75066   6.498   3.886   1.075 -4.1107 -0.4625 -0.4219
  569MOL0     H75067   6.521   4.044   1.172  0.6842 -0.8633  2.8000
  569MOL0     H75068   6.491   3.928   1.375 -1.6678  0.6578 -1.4428
  569MOL0     H75069   6.638   3.889   1.277 -0.9497  2.5280 -2.6945
  569MOL0     H75070   6.423   3.498   1.275 -0.0832 -1.7265 -0.6126
  569MOL0     H75071   6.578   3.308   1.299 -2.0440  0.5816  2.5498
  569MOL0     H75072   6.690   2.962   1.461 -0.2566  1.6073 -0.2072
  569MOL0     H75073   6.814   2.740   1.453  0.8057  0.3152 -0.0460
  569MOL0     H75074   7.016   2.668   1.614 -1.8922 -1.3894 -4.1584
  569MOL0     H75075   7.155   2.776   1.614 -0.2856 -0.0898  1.0090
  569MOL0     H75076   7.301   2.600   1.528  0.4020  0.4365  1.1566
  569MOL0     H75077   7.171   2.479   1.551  4.6997 -2.7697  0.3186
  569MOL0     H75078   7.205   2.475   1.788  1.1513 -0.2773  0.8633
  569MOL0     H75079   7.243   2.647   1.797  2.0317  0.7319 -0.3717
  569MOL0     H75080   7.406   2.407   1.709  0.6520 -0.3335 -1.3836
  569MOL0     H75081   7.469   2.564   1.672 -0.0183  1.9191  1.0499
  569MOL0     H75082   7.429   2.624   1.935 -1.7331 -0.4352  0.8721
  569MOL0     H75083   7.567   2.531   1.889  0.1034 -2.9838  2.1351
  569MOL0     H75084   7.443   2.312   1.931  1.7585  0.7934 -1.5169
  569MOL0     H75085   7.313   2.415   2.009  0.3937  1.8069  2.2209
  569MOL0     H75086   7.548   2.490   2.133 -2.0772  0.6101 -4.3428
  569MOL0     H75087   7.414   2.406   2.203 -1.8474  2.2326 -1.0921
  569MOL0     H75088   7.532   2.186   2.097 -0.6372 -2.3044  2.7281
  569MOL0     H75089   7.580   2.257   2.260  3.3381  0.8711  0.5514
  569MOL0     H75090   7.181   2.983   1.390  0.6837  0.6721  1.7419
  569MOL0     H75091   7.037   3.167   1.344 -3.3055  1.9452 -0.4823
  569MOL0     H75092   6.881   3.568   1.435  1.1765  0.2152 -0.4761
  569MOL0     H75093   6.742   3.751   1.413 -0.1514  0.1265 -0.5334
  569MOL0     H75094   5.031   3.786   1.349 -0.1625 -1.5869 -3.3499
  569MOL0     H75095   5.030   3.552   1.417  1.4272 -1.2341  3.6640
  569MOL0     H75096   5.244   3.159   1.446  1.3053  0.7836 -0.1248
  569MOL0     H75097   5.236   2.927   1.518  1.1938 -1.3202  0.2236
  569MOL0     H75098   5.462   2.846   1.892 -2.2290  0.2723  0.5617
  569MOL0     H75099   5.516   2.716   1.753  1.2896 -0.1195  1.4571
  569MOL0     H75100   5.340   2.587   1.810 -2.1391  1.6842 -0.5840
  569MOL0     H75101   5.459   2.604   1.941 -0.0486 -1.9434 -0.7020
  569MOL0     H75102   5.196   2.757   1.930  1.8878  0.7508  0.6790
  569MOL0     H75103   5.310   2.739   2.073  0.4606 -0.2026  0.1907
  569MOL0     H75104   5.096   2.590   2.090 -0.8426 -1.1055  0.0018
  569MOL0     H75105   5.130   2.522   1.942  1.5077  1.5267 -2.0388
  569MOL0     H75106   5.415   2.390   2.257 -0.0807  2.5863  2.2738
  569MOL0     H75107   5.398   3.031   1.907  1.1686 -3.8453 -2.5398
  569MOL0     H75108   5.395   3.276   1.842 -1.7327 -1.1047  1.2594
  570MOL0     O75109   9.683  10.670   3.095  0.2157  0.1628 -0.1709
  570MOL0     C75110   9.584  10.732   3.126 -0.0797  0.2163  0.5603
  570MOL0     O75111   9.584  10.842   3.210  0.0643 -0.4532  0.0182
  570MOL0     C75112   9.702  10.895   3.256 -0.1466 -0.3332 -0.3563
  570MOL0     C75113   9.702  10.971   3.371  0.1196 -0.1440 -0.7796
  570MOL0     C75114   9.824  11.031   3.418 -0.3490  0.0647 -0.0229
  570MOL0     C75115   9.949  11.020   3.353 -0.0012 -0.7964 -0.0435
  570MOL0     O75116  10.066  11.068   3.417  0.5036 -0.0860  0.8089
  570MOL0     C75117  10.194  11.028   3.359 -1.5830 -0.4459  0.1794
  570MOL0     C75118  10.301  11.077   3.457  0.1216 -0.1887  0.0373
  570MOL0     C75119  10.438  11.083   3.381  1.0856  0.4199 -0.2175
  570MOL0     C75120  10.554  11.128   3.473  1.1040 -0.7093 -0.3467
  570MOL0     C75121  10.689  11.106   3.416 -0.1331 -0.0662  0.4287
  570MOL0     C75122  10.802  11.184   3.486 -0.6150  0.1720 -0.3428
  570MOL0     C75123  10.848  11.094   3.601 -0.3759  0.1173  0.8685
  570MOL0     C75124  10.935  11.165   3.702  0.0465 -0.7452 -0.7607
  570MOL0     N75125  11.078  11.170   3.670 -0.1392 -0.4705 -0.3154
  570MOL0     C75126  11.170  11.064   3.648 -0.0494  0.9766 -0.4928
  570MOL0     C75127  11.298  11.117   3.628 -0.2547 -0.3411  0.4058
  570MOL0     C75128  11.427  11.052   3.591 -0.0861  0.8109 -0.4900
  570MOL0     C75129  11.541  11.155   3.554  0.4131 -0.7214  0.2502
  570MOL0     C75130  11.669  11.072   3.522  0.3527 -1.2409  0.1392
  570MOL0     C75131  11.771  11.054   3.640  0.3237 -0.7747  0.7175
  570MOL0     O75132  11.733  10.960   3.739 -0.1699  0.9320 -0.2343
  570MOL0     C75133  11.812  10.920   3.850  0.7025 -0.2539  0.1524
  570MOL0     C75134  11.771  10.807   3.922  0.4312  0.1718  0.8855
  570MOL0     C75135  11.845  10.765   4.029 -0.6339 -0.4124 -0.0711
  570MOL0     C75136  11.952  10.847   4.079  0.8358  0.2094 -0.3769
  570MOL0     C75137  12.041  10.800   4.191 -0.1152  0.3161 -0.6129
  570MOL0     O75138  12.164  10.854   4.203  0.1243  0.2038  0.3516
  570MOL0     C75139  12.239  10.833   4.317 -0.1993  0.3831 -0.8876
  570MOL0     C75140  12.342  10.749   4.343 -0.1384 -0.3192  0.8208
  570MOL0     C75141  12.426  10.755   4.450 -1.1581 -0.4937  0.1518
  570MOL0     C75142  12.411  10.858   4.546  1.0230  0.9440  0.1591
  570MOL0     O75143  12.475  10.871   4.668  0.7929 -0.3433  0.5043
  570MOL0     C75144  12.595  10.789   4.689 -0.0667  0.1011  0.1920
  570MOL0     C75145  12.635  10.802   4.835 -1.0745  0.0475  0.0762
  570MOL0     C75146  12.780  10.755   4.865  0.0772 -0.5505  1.3215
  570MOL0     C75147  12.826  10.789   5.008 -0.1986 -1.3927 -0.6581
  570MOL0     C75148  12.947  10.717   5.059 -0.0052  1.7249 -0.0638
  570MOL0     C75149  12.937  10.715   5.206 -0.7710 -0.9278 -0.7448
  570MOL0     C75150  13.039  10.615   5.268 -0.0129 -0.4185 -0.3435
  570MOL0     C75151  13.004  10.584   5.415 -0.1482  0.4578  0.2262
  570MOL0    Cl75152  13.084  10.437   5.480 -0.1011  0.0363 -0.5103
  570MOL0     C75153  12.309  10.951   4.529 -0.4394 -0.7907 -0.2474
  570MOL0     C75154  12.218  10.934   4.418 -0.7560  1.4678  0.5527
  570MOL0     O75155  11.999  10.708   4.266 -1.2203 -0.3037 -0.1963
  570MOL0     C75156  11.997  10.951   4.002  0.4130 -0.3715  0.1681
  570MOL0     C75157  11.927  10.992   3.886 -0.3655 -0.1773  0.3980
  570MOL0     N75158  11.266  11.256   3.636 -0.4778 -0.6085  0.1305
  570MOL0     N75159  11.141  11.284   3.668  0.3516  0.3874 -0.2557
  570MOL0     C75160   9.943  10.957   3.229  0.4352 -0.6639  0.6527
  570MOL0     C75161   9.825  10.899   3.183 -0.1309 -0.1441  0.7883
  570MOL0     C75162   9.444  10.691   3.091  0.7434 -0.0330  0.6878
  570MOL0     C75163   9.335  10.765   3.147 -0.2830 -0.0012  0.0046
  570MOL0     C75164   9.209  10.719   3.119  1.0291  0.0395  0.7515
  570MOL0     C75165   9.183  10.608   3.026 -0.9386  0.4455  0.1676
  570MOL0     O75166   9.054  10.578   2.994 -0.0869 -0.5600  0.1550
  570MOL0     C75167   9.012  10.474   2.907  0.2448  0.1590 -0.5091
  570MOL0     C75168   8.990  10.536   2.769 -0.1091 -0.0950 -0.4338
  570MOL0     C75169   8.903  10.452   2.675 -0.2612  0.6024  0.9507
  570MOL0     C75170   8.750  10.446   2.701 -1.1294 -0.2946 -0.0894
  570MOL0     C75171   8.687  10.369   2.596 -0.4070  0.3750  0.1130
  570MOL0     C75172   8.625  10.301   2.506  0.4561 -0.6691  0.2796
  570MOL0     C75173   9.294  10.545   2.964  0.1402 -0.0883 -0.8147
  570MOL0     C75174   9.424  10.591   2.993  0.3281 -0.3332  0.2356
  570MOL0     H75175   9.606  10.980   3.420 -0.9048 -0.8805 -2.5545
  570MOL0     H75176   9.812  11.081   3.514 -0.5329  0.5303 -0.2898
  570MOL0     H75177  10.212  11.100   3.279 -1.4881  4.0103  3.7706
  570MOL0     H75178  10.207  10.925   3.323 -2.0675  0.7867 -4.0644
  570MOL0     H75179  10.315  10.997   3.531 -1.3969  1.6251  2.4214
  570MOL0     H75180  10.280  11.178   3.493 -0.8039  0.5559 -2.4208
  570MOL0     H75181  10.427  11.149   3.295 -3.7947  0.5959  0.2349
  570MOL0     H75182  10.474  10.984   3.350  2.5257  0.6454  0.6703
  570MOL0     H75183  10.541  11.235   3.494  3.3990 -0.5258  0.4121
  570MOL0     H75184  10.550  11.078   3.570 -0.9612 -2.2208 -1.1243
  570MOL0     H75185  10.679  11.155   3.319 -0.2557  0.6520  0.7961
  570MOL0     H75186  10.712  11.000   3.401 -1.1627 -0.2745  0.2482
  570MOL0     H75187  10.767  11.282   3.520 -3.3616 -0.1180 -2.0166
  570MOL0     H75188  10.876  11.204   3.409 -1.5290 -1.4350 -1.6969
  570MOL0     H75189  10.768  11.039   3.652  2.2875 -1.7177  3.3605
  570MOL0     H75190  10.904  11.018   3.547 -1.5868  1.1129 -1.9895
  570MOL0     H75191  10.924  11.126   3.803 -0.2612  0.9773 -0.0962
  570MOL0     H75192  10.892  11.264   3.721  3.2013  0.3624  1.2606
  570MOL0     H75193  11.147  10.959   3.661 -4.0409  1.9776  2.5486
  570MOL0     H75194  11.418  10.970   3.520  2.4396  1.0795 -1.2056
  570MOL0     H75195  11.466  11.013   3.686  1.0255 -0.7667 -1.5563
  570MOL0     H75196  11.559  11.235   3.627  0.7047  2.2067 -2.8140
  570MOL0     H75197  11.513  11.205   3.461 -0.5911 -0.3033  0.7593
  570MOL0     H75198  11.652  10.973   3.477 -0.1688 -1.0367 -0.1238
  570MOL0     H75199  11.710  11.143   3.450  1.1188  0.0898  1.8215
  570MOL0     H75200  11.794  11.153   3.681  2.4620 -0.1288 -1.7578
  570MOL0     H75201  11.867  11.022   3.599 -0.1545 -1.1509 -0.1414
  570MOL0     H75202  11.676  10.766   3.890 -0.4514  1.1523  2.1330
  570MOL0     H75203  11.819  10.673   4.081  3.3123 -0.7383  1.7398
  570MOL0     H75204  12.349  10.670   4.268  0.1186 -0.9639  1.5058
  570MOL0     H75205  12.505  10.681   4.453  0.1955  0.9338  0.6609
  570MOL0     H75206  12.669  10.828   4.618 -1.9662  0.6181 -1.5980
  570MOL0     H75207  12.572  10.688   4.653 -2.8232  0.9280 -0.6251
  570MOL0     H75208  12.565  10.741   4.893 -0.7657 -0.8995 -0.5292
  570MOL0     H75209  12.619  10.908   4.858  1.9814  0.8204 -0.9394
  570MOL0     H75210  12.850  10.803   4.796  0.7159 -0.9614  1.6662
  570MOL0     H75211  12.785  10.648   4.841  1.0953 -0.2064 -0.0881
  570MOL0     H75212  12.856  10.892   5.031 -1.0761 -1.4126  0.6609
  570MOL0     H75213  12.749  10.762   5.080  1.8092 -1.4632  1.5942
  570MOL0     H75214  13.042  10.769   5.043  0.2144  1.5423  0.6394
  570MOL0     H75215  12.955  10.616   5.020  0.3069  1.6812  0.1127
  570MOL0     H75216  12.838  10.688   5.244 -1.5544 -0.3708 -2.3040
  570MOL0     H75217  12.958  10.820   5.227  0.2447 -0.6497 -2.8733
  570MOL0     H75218  13.039  10.528   5.202  2.2998 -0.5615 -0.2490
  570MOL0     H75219  13.139  10.655   5.246 -0.4477  0.6111 -0.5053
  570MOL0     H75220  12.897  10.568   5.428 -0.2351  1.6086  1.1549
  570MOL0     H75221  13.044  10.663   5.479  1.1799  0.6798 -0.8360
  570MOL0     H75222  12.295  11.038   4.593 -1.1870 -2.2141  1.6179
  570MOL0     H75223  12.134  11.001   4.404 -0.2401  1.6962 -2.0144
  570MOL0     H75224  12.084  11.008   4.035  0.5571 -0.5645  0.1207
  570MOL0     H75225  11.968  11.074   3.828  0.6771  0.8682  2.5353
  570MOL0     H75226  10.029  10.950   3.163 -0.8100  1.2211 -1.2931
  570MOL0     H75227   9.846  10.860   3.084 -0.6351 -1.2880  1.1163
  570MOL0     H75228   9.341  10.850   3.214  1.7117 -0.9101  1.0840
  570MOL0     H75229   9.118  10.764   3.159  1.7822  2.1058  0.2674
  570MOL0     H75230   8.917  10.435   2.943 -0.4497  1.9707 -0.2378
  570MOL0     H75231   9.082  10.390   2.909 -0.2470 -0.3766 -2.9430
  570MOL0     H75232   8.943  10.633   2.782  1.4127  0.3551  2.4209
  570MOL0     H75233   9.090  10.543   2.725 -1.1971  1.7235 -2.8241
  570MOL0     H75234   8.936  10.348   2.670 -0.7124  0.5074 -3.2667
  570MOL0     H75235   8.928  10.491   2.576  1.2400  2.1674  1.8879
  570MOL0     H75236   8.729  10.395   2.795  1.6091 -1.5177 -0.0376
  570MOL0     H75237   8.701  10.544   2.697 -0.4700  0.1396  1.4953
  570MOL0     H75238   8.587  10.248   2.420 -0.5674 -1.0425  0.9438
  570MOL0     H75239   9.284  10.475   2.882  4.9374  0.9263 -2.6088
  570MOL0     H75240   9.503  10.527   2.955  0.7129 -0.1464  0.7054
  571MOL0     O75241   4.653   8.302   7.516 -0.0140 -0.7271  0.3455
  571MOL0     C75242   4.622   8.293   7.635  0.6669  0.1586  0.6561
  571MOL0     O75243   4.496   8.302   7.677  0.0860  0.1062 -0.1773
  571MOL0     C75244   4.394   8.294   7.584  0.7424 -0.1047  0.1472
  571MOL0     C75245   4.299   8.191   7.610  1.2126 -0.9717  0.4663
  571MOL0     C75246   4.182   8.183   7.525 -0.2016 -0.9044  0.1146
  571MOL0     C75247   4.169   8.264   7.413 -0.3857  0.8350 -0.0775
  571MOL0     O75248   4.056   8.266   7.331  0.4845 -0.5838 -0.2710
  571MOL0     C75249   3.934   8.217   7.383 -0.2611  0.4569  0.1970
  571MOL0     C75250   3.817   8.253   7.295  0.1752  0.2930 -0.0936
  571MOL0     C75251   3.807   8.395   7.246  0.3788 -0.0333 -0.0562
  571MOL0     C75252   3.689   8.401   7.140  0.6123  0.0387 -0.1254
  571MOL0     C75253   3.541   8.421   7.185 -0.2303 -0.1581 -0.0157
  571MOL0     C75254   3.507   8.556   7.245 -0.7546 -0.1597  0.3440
  571MOL0     C75255   3.354   8.568   7.259 -0.2780  0.2711 -0.3348
  571MOL0     C75256   3.273   8.551   7.128 -0.1035  0.5826 -0.0999
  571MOL0     N75257   3.145   8.630   7.151 -0.1261  0.7290 -0.7680
  571MOL0     C75258   3.029   8.573   7.201 -0.9988  0.4161 -0.4267
  571MOL0     C75259   2.932   8.669   7.185  0.8054 -1.0244 -0.4668
  571MOL0     C75260   2.796   8.658   7.222  0.2554 -0.1191  0.5887
  571MOL0     C75261   2.782   8.699   7.364 -0.3727  0.6886 -1.2916
  571MOL0     C75262   2.648   8.643   7.417  0.1928 -0.0260  1.2626
  571MOL0     C75263   2.644   8.629   7.572 -0.1239  0.0373  0.1789
  571MOL0     O75264   2.668   8.753   7.646 -0.1281 -0.8252 -0.0355
  571MOL0     C75265   2.561   8.839   7.673 -0.1392 -0.1514 -0.6041
  571MOL0     C75266   2.574   8.939   7.768 -0.2725 -0.1906 -0.1359
  571MOL0     C75267   2.475   9.041   7.790  0.9510  0.9013 -0.9179
  571MOL0     C75268   2.350   9.024   7.727  0.6292  0.2341  0.5713
  571MOL0     C75269   2.243   9.119   7.757 -0.3623  0.5863  0.4428
  571MOL0     O75270   2.277   9.243   7.810 -0.3562  0.4543 -0.4878
  571MOL0     C75271   2.186   9.335   7.839 -0.2929 -0.0235 -0.7157
  571MOL0     C75272   2.215   9.409   7.963  0.3683 -0.4611  0.7504
  571MOL0     C75273   2.122   9.493   8.003  0.3438 -0.7532  0.0732
  571MOL0     C75274   2.012   9.532   7.926 -0.2948 -1.1141 -0.1001
  571MOL0     O75275   1.923   9.626   7.971  0.8482 -0.4037  0.3834
  571MOL0     C75276   1.907   9.637   8.108  1.1200 -0.0664 -0.4823
  571MOL0     C75277   1.777   9.714   8.137  0.3139 -0.1599 -0.7207
  571MOL0     C75278   1.716   9.690   8.282 -0.4818 -0.1187  0.0441
  571MOL0     C75279   1.607   9.799   8.318  0.2230  0.3284  0.1000
  571MOL0     C75280   1.542   9.791   8.452 -0.1998  0.5875 -0.9100
  571MOL0     C75281   1.624   9.865   8.558 -0.0399 -0.4599  0.2281
  571MOL0     C75282   1.540   9.886   8.689  0.8039  0.1759  0.1823
  571MOL0     C75283   1.646   9.935   8.789 -0.2668 -0.1154  0.0766
  571MOL0    Cl75284   1.579  10.011   8.934 -0.2647 -0.1114 -0.3981
  571MOL0     C75285   1.980   9.465   7.809 -0.6831 -1.0601 -0.5702
  571MOL0     C75286   2.068   9.370   7.764  0.4522  0.8476  0.0973
  571MOL0     O75287   2.129   9.075   7.734  1.0465  0.4459  0.2127
  571MOL0     C75288   2.331   8.923   7.629 -0.0850  0.9628 -0.0919
  571MOL0     C75289   2.438   8.834   7.598  0.0659  0.0829 -0.4570
  571MOL0     N75290   2.990   8.773   7.125  0.1924 -0.5121  1.6590
  571MOL0     N75291   3.120   8.750   7.100 -0.0270 -0.6565 -1.5076
  571MOL0     C75292   4.273   8.358   7.385  0.9284 -0.2036  0.1759
  571MOL0     C75293   4.383   8.373   7.467  0.1168  1.5940  0.6400
  571MOL0     C75294   4.725   8.257   7.735  1.7334  0.1813 -0.4711
  571MOL0     C75295   4.702   8.266   7.874 -0.2322 -0.3084  0.9153
  571MOL0     C75296   4.804   8.251   7.966  0.1295  0.4712  0.0719
  571MOL0     C75297   4.934   8.216   7.932  0.3294 -0.2500  1.1546
  571MOL0     O75298   5.042   8.195   8.012 -0.4860 -0.2016 -0.2425
  571MOL0     C75299   5.017   8.172   8.148  0.4008  0.1447 -0.3566
  571MOL0     C75300   5.143   8.114   8.219 -0.3628  0.2730 -0.0890
  571MOL0     C75301   5.194   7.972   8.174 -0.6237  0.6641  0.4578
  571MOL0     C75302   5.249   7.956   8.031  0.1236 -0.2406  0.3186
  571MOL0     C75303   5.366   8.048   8.033  0.2026 -0.3387  0.4397
  571MOL0     C75304   5.455   8.119   8.058  0.0625 -1.3762  0.8954
  571MOL0     C75305   4.953   8.195   7.792 -0.5483  1.0806 -0.4492
  571MOL0     C75306   4.853   8.219   7.696 -0.4819 -0.8197  0.2120
  571MOL0     H75307   4.319   8.118   7.688  2.1873  0.3971  1.5579
  571MOL0     H75308   4.109   8.111   7.560  1.1389 -1.0307  2.9850
  571MOL0     H75309   3.906   8.258   7.480 -1.0333 -1.5171  0.8582
  571MOL0     H75310   3.940   8.108   7.392 -3.8727  0.1894  0.8538
  571MOL0     H75311   3.722   8.237   7.347 -0.8401 -0.6156 -2.1134
  571MOL0     H75312   3.808   8.185   7.210 -0.2378  1.6541 -1.1952
  571MOL0     H75313   3.904   8.411   7.198  1.8451 -0.6814  2.5143
  571MOL0     H75314   3.789   8.468   7.325 -2.7638 -2.3013  1.5664
  571MOL0     H75315   3.709   8.486   7.074 -0.8045  1.7080  1.4993
  571MOL0     H75316   3.701   8.302   7.093  1.2770 -1.1747  2.4180
  571MOL0     H75317   3.502   8.346   7.255 -3.9452 -2.1734 -3.7583
  571MOL0     H75318   3.473   8.402   7.102 -0.1987 -0.4999  0.0342
  571MOL0     H75319   3.562   8.634   7.191 -0.5841  1.7325  3.0912
  571MOL0     H75320   3.567   8.553   7.336  3.6436  0.2405 -2.2552
  571MOL0     H75321   3.322   8.503   7.341  1.9527 -0.4883  0.0145
  571MOL0     H75322   3.330   8.671   7.289  0.3406  0.5440 -0.7483
  571MOL0     H75323   3.267   8.448   7.091  0.3253 -0.4349  2.3939
  571MOL0     H75324   3.302   8.609   7.040 -1.0651 -1.9299 -2.2152
  571MOL0     H75325   3.024   8.469   7.233  3.9669  0.7894  2.6522
  571MOL0     H75326   2.756   8.559   7.197 -1.0987  0.3441  0.8070
  571MOL0     H75327   2.739   8.728   7.161  0.8950 -0.0928  0.0214
  571MOL0     H75328   2.780   8.805   7.391 -1.7190  0.4409 -0.2947
  571MOL0     H75329   2.858   8.659   7.431 -0.8593  0.7877 -0.6703
  571MOL0     H75330   2.571   8.713   7.383  0.1234 -1.0423 -0.7968
  571MOL0     H75331   2.631   8.544   7.376  0.0680  1.0616 -1.5245
  571MOL0     H75332   2.724   8.557   7.594 -0.2106 -0.4848 -1.1305
  571MOL0     H75333   2.553   8.574   7.599 -1.0568 -0.3029 -3.2322
  571MOL0     H75334   2.669   8.937   7.822 -0.5485 -0.2207  0.3600
  571MOL0     H75335   2.492   9.112   7.870 -3.7365  1.9563 -0.5862
  571MOL0     H75336   2.310   9.402   8.014 -0.3205  3.2176  2.9053
  571MOL0     H75337   2.151   9.539   8.098  1.1985  1.3451 -1.1420
  571MOL0     H75338   1.999   9.668   8.159  0.3507 -1.3029  1.7888
  571MOL0     H75339   1.888   9.541   8.158  2.4126 -1.1562 -1.9542
  571MOL0     H75340   1.703   9.688   8.061  1.3978 -0.1046 -1.8258
  571MOL0     H75341   1.790   9.821   8.118  0.2209  0.2130  1.1198
  571MOL0     H75342   1.792   9.702   8.359 -0.8558 -1.0526  0.5761
  571MOL0     H75343   1.699   9.582   8.285  1.8786 -0.7035 -2.8219
  571MOL0     H75344   1.655   9.897   8.316  3.4940 -1.0675  2.3620
  571MOL0     H75345   1.524   9.793   8.246 -0.2547  1.4399  0.5374
  571MOL0     H75346   1.534   9.686   8.482  1.1826  0.7149 -0.0032
  571MOL0     H75347   1.449   9.848   8.456  1.8341  4.0953  1.5492
  571MOL0     H75348   1.656   9.963   8.520 -4.7218  1.3254  0.1676
  571MOL0     H75349   1.716   9.808   8.573  0.2606  0.2897  1.4528
  571MOL0     H75350   1.461   9.961   8.676 -0.1908 -0.5947  1.4062
  571MOL0     H75351   1.488   9.795   8.720  0.8261  0.6685  1.7675
  571MOL0     H75352   1.708  10.013   8.741 -2.3219  1.9034  0.5145
  571MOL0     H75353   1.711   9.853   8.819 -1.1400 -1.2947 -1.1405
  571MOL0     H75354   1.893   9.493   7.751 -2.2552 -0.0121  2.0886
  571MOL0     H75355   2.055   9.324   7.666  3.1327  4.6273 -2.2817
  571MOL0     H75356   2.239   8.877   7.594  1.9884 -2.3350 -1.7503
  571MOL0     H75357   2.412   8.753   7.531 -0.3732  0.5094 -0.8125
  571MOL0     H75358   4.260   8.430   7.305  2.0879 -0.1982 -0.0237
  571MOL0     H75359   4.457   8.443   7.430 -0.1230  0.0295 -3.2114
  571MOL0     H75360   4.604   8.289   7.915 -2.1010 -2.2526 -2.0974
  571MOL0     H75361   4.789   8.255   8.073  1.2333  0.0767  0.2604
  571MOL0     H75362   4.929   8.108   8.161 -0.1255  1.1942  1.6751
  571MOL0     H75363   4.990   8.266   8.196  1.6403 -1.0735  3.0531
  571MOL0     H75364   5.220   8.191   8.208  1.2952 -0.9174  2.1771
  571MOL0     H75365   5.121   8.107   8.326  1.2811  2.7433  0.4970
  571MOL0     H75366   5.116   7.897   8.190  0.6912 -0.3888  2.1797
  571MOL0     H75367   5.275   7.934   8.236  0.3859  0.5939 -0.8454
  571MOL0     H75368   5.277   7.854   8.004 -2.3482 -1.2696  1.4104
  571MOL0     H75369   5.187   8.001   7.953 -0.6283 -0.1062  0.9820
  571MOL0     H75370   5.530   8.187   8.093 -1.0236 -0.6318  1.8776
  571MOL0     H75371   5.044   8.157   7.748 -0.1650  0.9067  0.4759
  571MOL0     H75372   4.881   8.198   7.593  0.0358  0.1350  0.1485
  572MOL0     O75373   6.458  10.831   5.230  0.2961  0.2817 -0.7827
  572MOL0     C75374   6.375  10.768   5.163 -0.3288  0.6066  0.7088
  572MOL0     O75375   6.254  10.811   5.139 -0.2726 -0.1810 -0.5012
  572MOL0     C75376   6.225  10.940   5.161  0.8065 -0.0751 -0.5615
  572MOL0     C75377   6.164  10.968   5.278 -0.1140  0.6214  0.6808
  572MOL0     C75378   6.145  11.097   5.320 -0.9444 -0.3815 -0.1591
  572MOL0     C75379   6.200  11.200   5.247  0.3420  0.6497  0.9555
  572MOL0     O75380   6.187  11.330   5.286 -0.5151  0.5026  0.0460
  572MOL0     C75381   6.191  11.354   5.421 -0.3662  0.2011  0.4656
  572MOL0     C75382   6.244  11.494   5.457 -0.4321  1.1121  0.0473
  572MOL0     C75383   6.166  11.606   5.393 -0.7886  0.3091 -0.1601
  572MOL0     C75384   6.221  11.735   5.423  0.9604 -0.4437  0.0595
  572MOL0     C75385   6.134  11.850   5.366  0.3080 -0.6198  0.5527
  572MOL0     C75386   6.138  11.967   5.455 -0.5773  0.0923 -0.8805
  572MOL0     C75387   6.039  11.967   5.574  1.2294 -0.1171  1.3710
  572MOL0     C75388   5.898  11.939   5.530 -0.5509 -0.5102 -0.6715
  572MOL0     N75389   5.854  12.033   5.430  0.9272 -0.0410  0.0771
  572MOL0     C75390   5.865  12.041   5.293  0.4671  0.0121  0.8127
  572MOL0     C75391   5.785  12.142   5.250 -0.1356 -0.6118  0.2235
  572MOL0     C75392   5.738  12.174   5.110  0.3591  0.0821 -0.3798
  572MOL0     C75393   5.583  12.188   5.118 -0.0712 -0.7592 -0.4128
  572MOL0     C75394   5.527  12.321   5.166 -0.1123 -0.7693 -0.7980
  572MOL0     C75395   5.395  12.374   5.110  0.6193  0.3226 -0.1106
  572MOL0     O75396   5.285  12.283   5.142 -0.0792  0.6471  0.3615
  572MOL0     C75397   5.212  12.272   5.029 -0.2537  0.1321  1.1224
  572MOL0     C75398   5.119  12.375   5.012  1.1756 -0.7642 -0.1208
  572MOL0     C75399   5.030  12.373   4.899 -0.1129  1.3445 -0.5065
  572MOL0     C75400   5.038  12.260   4.813  0.1899 -0.7075 -0.1691
  572MOL0     C75401   4.959  12.250   4.690 -0.2280 -0.5486 -0.0870
  572MOL0     O75402   5.016  12.204   4.576  0.7497 -0.3554  0.4881
  572MOL0     C75403   4.956  12.208   4.455  0.6611 -0.2583 -0.4240
  572MOL0     C75404   4.957  12.089   4.381  0.9314  0.1448  0.2567
  572MOL0     C75405   4.896  12.088   4.253  0.4508 -0.2398 -0.3362
  572MOL0     C75406   4.866  12.218   4.191 -0.1354 -0.4333 -0.2159
  572MOL0     O75407   4.816  12.224   4.070  0.7444 -0.4628 -0.0538
  572MOL0     C75408   4.731  12.119   4.015 -0.2629  1.0130 -0.1150
  572MOL0     C75409   4.766  12.042   3.896 -0.1299 -0.0028  1.1577
  572MOL0     C75410   4.781  12.138   3.772  0.0207  0.4638  0.7462
  572MOL0     C75411   4.927  12.207   3.758  0.0127  0.2346  0.8911
  572MOL0     C75412   4.922  12.368   3.759  0.4493 -0.3690 -0.4339
  572MOL0     C75413   5.052  12.437   3.745  0.5001  0.4023  0.9588
  572MOL0     C75414   5.147  12.410   3.865 -0.3719 -0.3483 -0.1942
  572MOL0     C75415   5.295  12.470   3.859  0.7404 -0.5530  0.4469
  572MOL0    Cl75416   5.368  12.441   3.694 -0.3132  0.3901  0.1441
  572MOL0     C75417   4.880  12.336   4.256  0.8719  0.8826  1.2170
  572MOL0     C75418   4.922  12.337   4.387  0.4239 -0.7175  0.1266
  572MOL0     O75419   4.844  12.301   4.693  0.2437  0.5768  0.1567
  572MOL0     C75420   5.139  12.163   4.830  0.0398 -0.0261  0.3981
  572MOL0     C75421   5.224  12.166   4.936  0.4229 -0.0294 -0.0557
  572MOL0     N75422   5.737  12.203   5.365 -0.8177 -0.3423 -0.2073
  572MOL0     N75423   5.761  12.132   5.463 -0.1657  0.5179 -0.6775
  572MOL0     C75424   6.268  11.175   5.126  0.2978 -0.2146 -0.0504
  572MOL0     C75425   6.274  11.047   5.076 -0.5474 -0.3142 -1.6886
  572MOL0     C75426   6.412  10.636   5.115 -0.9440 -1.2664  0.9493
  572MOL0     C75427   6.313  10.549   5.064 -0.3535 -0.2290  1.0026
  572MOL0     C75428   6.345  10.417   5.030  0.7790  0.7732  0.5668
  572MOL0     C75429   6.477  10.369   5.040  0.4586  0.1314 -0.3617
  572MOL0     O75430   6.494  10.234   5.000 -0.9465  0.8868 -0.4409
  572MOL0     C75431   6.631  10.176   5.007 -0.6810 -0.0079  0.0011
  572MOL0     C75432   6.728  10.232   4.895 -0.5703 -0.8877  0.0839
  572MOL0     C75433   6.681  10.193   4.757 -0.4708  1.1221  0.7401
  572MOL0     C75434   6.720  10.046   4.721 -0.0155 -0.1760 -0.2251
  572MOL0     C75435   6.705  10.010   4.579 -0.2649 -0.2354 -0.2182
  572MOL0     C75436   6.690   9.965   4.472 -0.1217  0.6513 -0.9558
  572MOL0     C75437   6.575  10.449   5.097  0.1343  0.4017 -0.6131
  572MOL0     C75438   6.552  10.587   5.126 -0.2517  0.6656  0.5058
  572MOL0     H75439   6.122  10.884   5.333 -0.9902  1.6065  1.5505
  572MOL0     H75440   6.088  11.102   5.412  2.0797 -1.2477  1.9137
  572MOL0     H75441   6.259  11.276   5.457  1.0098 -1.5373 -4.9615
  572MOL0     H75442   6.091  11.347   5.464  0.0950  0.7963  1.6775
  572MOL0     H75443   6.352  11.492   5.439 -0.0967 -1.4352  1.7789
  572MOL0     H75444   6.243  11.488   5.567  2.5309  0.8002  0.1441
  572MOL0     H75445   6.063  11.591   5.425 -0.9883  1.1240 -0.3976
  572MOL0     H75446   6.161  11.591   5.285 -1.5549 -0.2702 -0.0583
  572MOL0     H75447   6.237  11.742   5.531  0.1946  4.0533  0.0556
  572MOL0     H75448   6.316  11.744   5.369  0.7059  1.5290 -0.1451
  572MOL0     H75449   6.031  11.821   5.343 -0.6759  0.4134  3.2791
  572MOL0     H75450   6.175  11.885   5.271  1.2424  0.2995  1.2764
  572MOL0     H75451   6.136  12.059   5.394  3.6862  1.4629  0.6631
  572MOL0     H75452   6.243  11.970   5.485 -0.9249 -3.8283  1.2113
  572MOL0     H75453   6.074  11.895   5.648  0.6783 -1.5307  0.2952
  572MOL0     H75454   6.047  12.064   5.625  1.8342  0.7605 -0.3324
  572MOL0     H75455   5.838  11.956   5.620  0.9630 -0.8539  0.4393
  572MOL0     H75456   5.886  11.834   5.500 -0.7240 -0.8104  0.4325
  572MOL0     H75457   5.905  11.965   5.227  0.4586  0.2511  0.5332
  572MOL0     H75458   5.771  12.095   5.042 -1.2562 -1.2464  0.3141
  572MOL0     H75459   5.781  12.272   5.085 -0.6069  0.8160  0.7308
  572MOL0     H75460   5.553  12.101   5.176  3.2233 -0.5448  1.8754
  572MOL0     H75461   5.548  12.177   5.015  0.3798 -1.1653 -0.5281
  572MOL0     H75462   5.516  12.316   5.274 -0.8011 -1.0744 -0.8823
  572MOL0     H75463   5.602  12.397   5.139 -1.2889 -0.4588 -3.5568
  572MOL0     H75464   5.410  12.382   5.002  0.4828 -0.5519 -0.1993
  572MOL0     H75465   5.369  12.475   5.146 -2.8513 -0.5633  0.2324
  572MOL0     H75466   5.113  12.459   5.080 -0.5168  1.0603 -2.3756
  572MOL0     H75467   4.970  12.461   4.880  1.1141  1.6831 -3.2328
  572MOL0     H75468   4.988  11.992   4.420  2.7628  1.2970  1.8588
  572MOL0     H75469   4.873  11.996   4.199  2.6171 -0.4412 -1.0105
  572MOL0     H75470   4.638  12.174   3.997 -0.2078  1.6838  1.4909
  572MOL0     H75471   4.711  12.045   4.092  1.3324  2.1217  1.4354
  572MOL0     H75472   4.684  11.970   3.888 -1.7803  1.7761  1.2507
  572MOL0     H75473   4.860  11.988   3.911  1.5057  2.9620  2.5036
  572MOL0     H75474   4.702  12.212   3.784 -1.0643 -0.4173 -0.5927
  572MOL0     H75475   4.771  12.070   3.687 -0.5498 -1.4931  2.2899
  572MOL0     H75476   4.989  12.161   3.835 -2.0916  1.1032  3.2476
  572MOL0     H75477   4.976  12.188   3.663  0.5365  0.0687  1.1907
  572MOL0     H75478   4.875  12.398   3.853  0.7639  2.4341 -1.0637
  572MOL0     H75479   4.862  12.411   3.678  2.2171  0.6087 -1.2905
  572MOL0     H75480   5.028  12.542   3.725  0.6002  0.2686  0.1098
  572MOL0     H75481   5.083  12.390   3.651 -3.2702  0.6098 -0.5281
  572MOL0     H75482   5.109  12.452   3.959 -1.7431  0.2671 -0.9872
  572MOL0     H75483   5.171  12.303   3.875 -2.0288 -0.6497  0.9777
  572MOL0     H75484   5.359  12.428   3.937  0.8805  1.1975  1.3165
  572MOL0     H75485   5.280  12.578   3.867 -4.4571 -0.8871 -0.6704
  572MOL0     H75486   4.851  12.429   4.207  2.1559  2.2989  2.9845
  572MOL0     H75487   4.921  12.429   4.445 -2.5621 -0.5923  0.0271
  572MOL0     H75488   5.133  12.075   4.767 -0.2974  0.6069 -0.4640
  572MOL0     H75489   5.295  12.085   4.954  1.7770  0.9543 -0.7995
  572MOL0     H75490   6.311  11.263   5.078 -1.6704 -1.0186 -3.6267
  572MOL0     H75491   6.335  11.025   4.989 -0.9912 -1.1755 -1.7905
  572MOL0     H75492   6.213  10.591   5.063  0.4484  1.8085 -0.3925
  572MOL0     H75493   6.255  10.364   5.001  1.5100  0.5642 -1.5221
  572MOL0     H75494   6.629  10.070   4.978 -0.7763 -0.0429  0.1353
  572MOL0     H75495   6.675  10.183   5.107  1.5217  2.6094 -1.0267
  572MOL0     H75496   6.719  10.341   4.903 -3.3736 -0.9674 -0.8352
  572MOL0     H75497   6.834  10.209   4.907  1.1625  5.7899  2.0546
  572MOL0     H75498   6.735  10.250   4.680 -2.2573  2.5857  0.4939
  572MOL0     H75499   6.579  10.221   4.731 -0.7699  1.0032  1.7629
  572MOL0     H75500   6.826  10.034   4.749 -0.5466  1.4640  3.0381
  572MOL0     H75501   6.649   9.981   4.772  0.7659 -0.9365 -0.0921
  572MOL0     H75502   6.671   9.912   4.381  0.0254 -2.9229  0.9072
  572MOL0     H75503   6.668  10.400   5.121 -0.7245 -0.3294  1.4459
  572MOL0     H75504   6.634  10.650   5.157  1.7338 -0.6804 -1.6990
  573MOL0     O75505   2.256   0.956   7.686 -0.1646  0.5698 -0.0526
  573MOL0     C75506   2.189   0.892   7.608  0.8359 -0.2174  0.0010
  573MOL0     O75507   2.139   0.767   7.631 -0.6173  0.5546  0.0119
  573MOL0     C75508   2.189   0.680   7.728 -0.2520  0.0814  0.2556
  573MOL0     C75509   2.323   0.665   7.755  0.7730 -0.8204  0.6363
  573MOL0     C75510   2.373   0.579   7.849  1.0813  0.7715 -0.4839
  573MOL0     C75511   2.278   0.493   7.913  0.4726 -0.7603 -0.2116
  573MOL0     O75512   2.309   0.394   8.005 -0.7028  0.3108 -0.1295
  573MOL0     C75513   2.432   0.392   8.078 -0.3154  1.0964 -0.0066
  573MOL0     C75514   2.430   0.292   8.195 -0.5879 -0.2074  0.7220
  573MOL0     C75515   2.323   0.339   8.298  0.7362 -0.1689  0.4509
  573MOL0     C75516   2.323   0.245   8.417  0.6834  0.2442  0.4024
  573MOL0     C75517   2.226   0.313   8.520  0.8780 -1.2212  0.3168
  573MOL0     C75518   2.172   0.230   8.637  0.2045  2.1030 -0.1576
  573MOL0     C75519   2.272   0.173   8.736 -0.0529 -0.4298 -0.6071
  573MOL0     C75520   2.337   0.037   8.698  0.3851 -0.5106 -0.1443
  573MOL0     N75521   2.229  -0.056   8.686  0.3433  0.4512 -0.4112
  573MOL0     C75522   2.156  -0.114   8.795  0.6972 -0.1732 -1.0692
  573MOL0     C75523   2.104  -0.220   8.735 -0.9563 -0.4551  0.4010
  573MOL0     C75524   2.024  -0.326   8.790 -0.3136  0.5029  0.8119
  573MOL0     C75525   2.005  -0.309   8.941 -0.2271 -0.3855  0.3898
  573MOL0     C75526   1.897  -0.409   8.995 -0.0705 -0.5508 -0.5912
  573MOL0     C75527   1.859  -0.406   9.137 -0.4730  0.5689 -0.8589
  573MOL0     O75528   1.973  -0.441   9.218  0.1928  0.7371  0.2541
  573MOL0     C75529   1.973  -0.403   9.352  0.3755  0.9155  0.8487
  573MOL0     C75530   2.105  -0.407   9.406  0.7651  0.5019 -0.1204
  573MOL0     C75531   2.126  -0.366   9.539 -0.0941  1.0023 -0.5108
  573MOL0     C75532   2.003  -0.339   9.621  0.3021 -0.4886  1.2377
  573MOL0     C75533   2.017  -0.317   9.764 -0.8711  0.5236 -1.0197
  573MOL0     O75534   2.122  -0.238   9.821 -0.3447  0.0744  0.5836
  573MOL0     C75535   2.123  -0.234   9.958  0.0142 -0.5454 -0.0705
  573MOL0     C75536   2.007  -0.198  10.035 -0.2279 -0.2726 -0.8041
  573MOL0     C75537   2.022  -0.176  10.180 -0.8295  0.1800 -0.5759
  573MOL0     C75538   2.151  -0.194  10.246 -0.3061 -0.0325  0.0845
  573MOL0     O75539   2.151  -0.183  10.384 -0.7820  0.4014 -0.1813
  573MOL0     C75540   2.285  -0.207  10.435 -0.0825 -0.1978 -0.3025
  573MOL0     C75541   2.286  -0.190  10.590 -0.4373 -0.2916  1.4570
  573MOL0     C75542   2.162  -0.265  10.654 -0.9519  0.5399 -0.5867
  573MOL0     C75543   2.199  -0.262  10.802  0.1083 -0.1751  0.2935
  573MOL0     C75544   2.103  -0.348  10.877 -0.7027  0.6185  0.0518
  573MOL0     C75545   2.139  -0.344  11.027  0.6398 -0.1808 -0.8970
  573MOL0     C75546   2.036  -0.419  11.118  0.2450  0.0636 -0.2440
  573MOL0     C75547   2.085  -0.469  11.245 -0.6671 -0.0248  0.0815
  573MOL0    Cl75548   2.142  -0.336  11.345  0.1518  0.1549  0.2115
  573MOL0     C75549   2.262  -0.225  10.168  0.4358 -0.2184 -0.4812
  573MOL0     C75550   2.246  -0.232  10.024 -0.4541 -0.6140  0.4887
  573MOL0     O75551   1.931  -0.372   9.830  0.2880 -0.0870 -0.5480
  573MOL0     C75552   1.877  -0.339   9.557  0.2348  0.0280  0.1644
  573MOL0     C75553   1.867  -0.367   9.429 -0.4163 -0.7891  1.2172
  573MOL0     N75554   2.120  -0.225   8.595 -0.3785  0.1935  0.3438
  573MOL0     N75555   2.200  -0.131   8.571 -0.4130 -0.3695 -0.8136
  573MOL0     C75556   2.142   0.504   7.891 -0.2100  0.3834 -0.4817
  573MOL0     C75557   2.094   0.601   7.804 -0.0539  0.3370 -0.5804
  573MOL0     C75558   2.134   0.958   7.485  0.4426 -0.0356 -0.3938
  573MOL0     C75559   2.203   1.062   7.417  0.1247 -0.4906  0.0310
  573MOL0     C75560   2.163   1.124   7.291  0.7542  0.8854 -0.0821
  573MOL0     C75561   2.035   1.090   7.250  0.5187  0.3955  0.8447
  573MOL0     O75562   1.988   1.135   7.130 -0.3492  0.5162  0.6806
  573MOL0     C75563   2.037   1.064   7.007 -0.2252 -0.1923 -0.5852
  573MOL0     C75564   1.917   1.024   6.912  0.0202 -1.2489  0.0633
  573MOL0     C75565   1.867   0.882   6.934 -0.6616 -0.2210 -0.2222
  573MOL0     C75566   1.786   0.839   6.812  0.1175 -0.7844  0.6000
  573MOL0     C75567   1.758   0.690   6.814 -0.6344 -0.3495  0.8402
  573MOL0     C75568   1.750   0.566   6.810 -0.6284  0.1094 -0.0513
  573MOL0     C75569   1.959   0.994   7.325 -0.3287 -0.1808 -0.9153
  573MOL0     C75570   2.007   0.922   7.440  0.9131 -0.2574  0.2297
  573MOL0     H75571   2.396   0.717   7.694  1.6797 -4.1742 -1.4311
  573MOL0     H75572   2.481   0.585   7.864  1.0295  1.8966 -0.4692
  573MOL0     H75573   2.444   0.495   8.115  2.6263  0.7297  0.2705
  573MOL0     H75574   2.523   0.380   8.019  0.3233  4.7051 -0.0088
  573MOL0     H75575   2.529   0.284   8.241  0.3210 -0.1010 -1.1394
  573MOL0     H75576   2.400   0.194   8.155 -0.2757  0.4788 -1.3361
  573MOL0     H75577   2.221   0.345   8.259  1.7184  2.1787 -2.1461
  573MOL0     H75578   2.337   0.443   8.329 -1.8717  0.6779 -0.8937
  573MOL0     H75579   2.294   0.147   8.378  0.2731  1.0299 -1.4126
  573MOL0     H75580   2.425   0.239   8.457  0.9971 -0.5251 -0.4569
  573MOL0     H75581   2.147   0.364   8.464  2.2605 -0.8254 -1.3719
  573MOL0     H75582   2.268   0.406   8.559 -1.4087 -0.1497  0.3786
  573MOL0     H75583   2.116   0.148   8.591 -0.9780  1.8334  1.6475
  573MOL0     H75584   2.104   0.296   8.692 -2.1157 -0.8300  0.7293
  573MOL0     H75585   2.349   0.250   8.737 -0.8622  0.3945  0.1105
  573MOL0     H75586   2.227   0.167   8.835  1.7123 -3.0193  0.1560
  573MOL0     H75587   2.411   0.013   8.775 -1.1952  0.3358  1.7251
  573MOL0     H75588   2.388   0.047   8.602 -3.0472  0.3476 -2.0576
  573MOL0     H75589   2.157  -0.073   8.895 -1.0992 -0.7364 -0.7856
  573MOL0     H75590   2.068  -0.425   8.774 -3.4617 -0.8572 -0.2299
  573MOL0     H75591   1.922  -0.311   8.754 -0.2686  1.6811  1.1125
  573MOL0     H75592   1.972  -0.205   8.951  0.5802  0.3504 -3.1032
  573MOL0     H75593   2.103  -0.312   8.990  0.0143  0.0196 -0.0489
  573MOL0     H75594   1.807  -0.409   8.933 -0.3358 -1.5976 -0.2253
  573MOL0     H75595   1.945  -0.505   8.973 -0.2912 -0.8037  0.0270
  573MOL0     H75596   1.782  -0.483   9.148  0.2213  0.0463  0.5070
  573MOL0     H75597   1.837  -0.304   9.170  0.9736  0.8054 -0.5508
  573MOL0     H75598   2.187  -0.443   9.345 -0.5961 -0.3761 -1.4958
  573MOL0     H75599   2.226  -0.358   9.578 -0.7854 -1.5974  2.1889
  573MOL0     H75600   1.918  -0.175   9.977 -1.1546  1.6267  1.2326
  573MOL0     H75601   1.945  -0.144  10.250 -0.3741 -1.7901  0.9396
  573MOL0     H75602   2.355  -0.132  10.397  0.0600  1.0308  2.1733
  573MOL0     H75603   2.322  -0.306  10.406  0.0369  0.7026 -3.6833
  573MOL0     H75604   2.291  -0.082  10.611 -0.5849  0.6389 -2.3938
  573MOL0     H75605   2.383  -0.231  10.619 -0.0149  0.5566  1.2973
  573MOL0     H75606   2.165  -0.367  10.615 -0.4893  0.7609 -1.1230
  573MOL0     H75607   2.065  -0.219  10.629 -0.1876  1.8394 -1.2642
  573MOL0     H75608   2.299  -0.304  10.817 -0.0307  0.2793  2.9662
  573MOL0     H75609   2.193  -0.160  10.841  0.5524  0.9697 -2.3574
  573MOL0     H75610   2.113  -0.451  10.841  0.2793 -0.0731  2.1159
  573MOL0     H75611   1.998  -0.317  10.869 -1.8520 -2.7725  0.4805
  573MOL0     H75612   2.139  -0.240  11.061  1.3222  0.3467 -2.4516
  573MOL0     H75613   2.234  -0.393  11.050  0.4092 -0.6310 -0.8797
  573MOL0     H75614   1.942  -0.365  11.130 -0.3513 -1.0751  0.4146
  573MOL0     H75615   2.019  -0.501  11.047  1.2838 -1.4409  1.1671
  573MOL0     H75616   2.165  -0.539  11.217  0.9027  2.1166 -1.0064
  573MOL0     H75617   2.009  -0.528  11.297 -0.7737  0.9981  1.1262
  573MOL0     H75618   2.361  -0.247  10.204  0.4196 -0.2129 -0.4349
  573MOL0     H75619   2.336  -0.260   9.969 -0.3477 -1.7114  1.1856
  573MOL0     H75620   1.787  -0.330   9.618 -1.2366 -0.4726 -1.8128
  573MOL0     H75621   1.772  -0.352   9.379  0.7618  0.1218 -0.9173
  573MOL0     H75622   2.080   0.439   7.952  0.1492  2.1594  1.9012
  573MOL0     H75623   1.988   0.607   7.787 -0.2794 -0.9008  0.2408
  573MOL0     H75624   2.302   1.095   7.448 -1.4790  3.4962  1.5988
  573MOL0     H75625   2.234   1.188   7.240 -0.5212  1.0079 -1.8272
  573MOL0     H75626   2.099   0.979   7.039 -0.9616  0.6757  3.7482
  573MOL0     H75627   2.104   1.124   6.945  1.0092 -1.3175 -0.4054
  573MOL0     H75628   1.831   1.090   6.919 -0.1440 -1.4679  0.1166
  573MOL0     H75629   1.938   1.036   6.806 -3.5483 -1.7399 -0.8146
  573MOL0     H75630   1.800   0.886   7.021 -1.5728 -1.9385 -0.7982
  573MOL0     H75631   1.953   0.815   6.941  0.4319  1.2848  2.8536
  573MOL0     H75632   1.701   0.903   6.788  0.5912  0.4605  2.0967
  573MOL0     H75633   1.851   0.855   6.725 -2.1386 -2.4358 -1.5365
  573MOL0     H75634   1.742   0.461   6.794  0.7234 -0.1197  0.6523
  573MOL0     H75635   1.856   0.982   7.294 -1.0576  3.1245 -0.0782
  573MOL0     H75636   1.934   0.850   7.478 -0.4299 -0.0254 -1.7514
  574MOL0     O75637   1.566   2.332   9.224  0.0639  0.7037 -0.7494
  574MOL0     C75638   1.650   2.419   9.242  0.8984  0.1438 -0.2849
  574MOL0     O75639   1.622   2.544   9.287 -0.4286  0.3035 -0.5968
  574MOL0     C75640   1.486   2.583   9.292 -0.2714 -0.2915  1.1628
  574MOL0     C75641   1.400   2.547   9.397 -1.3569  0.6086  0.4083
  574MOL0     C75642   1.270   2.590   9.387  0.0890 -0.1046 -0.3248
  574MOL0     C75643   1.225   2.675   9.280 -0.4599 -0.4401 -0.3606
  574MOL0     O75644   1.093   2.707   9.283  0.3652  0.2815  0.5072
  574MOL0     C75645   1.047   2.767   9.401  0.0968 -0.2899 -0.6197
  574MOL0     C75646   0.901   2.723   9.429  0.4581 -1.3375  0.2628
  574MOL0     C75647   0.794   2.790   9.336 -0.8849 -0.1493  0.4204
  574MOL0     C75648   0.672   2.700   9.337 -0.5088  0.3744 -0.1715
  574MOL0     C75649   0.573   2.768   9.245  0.1254  0.1494 -0.3557
  574MOL0     C75650   0.536   2.686   9.126  0.6519  0.6326  0.0969
  574MOL0     C75651   0.429   2.752   9.046 -0.2289 -0.8130  0.8924
  574MOL0     C75652   0.478   2.878   8.967  0.4139  0.0850  1.1802
  574MOL0     N75653   0.371   2.961   8.928  0.0506  0.4463 -0.5366
  574MOL0     C75654   0.284   3.025   9.010  0.0620  0.7553 -1.3007
  574MOL0     C75655   0.237   3.135   8.946  0.0285 -0.7012  0.0950
  574MOL0     C75656   0.144   3.242   9.009 -0.1259 -0.7474  0.8715
  574MOL0     C75657  -0.001   3.188   9.001 -0.7254 -0.0017  0.0379
  574MOL0     C75658  -0.110   3.285   9.045 -0.4086 -0.2817 -0.2843
  574MOL0     C75659  -0.251   3.225   9.019  0.1229 -0.9232  0.8917
  574MOL0     O75660  -0.282   3.094   9.083 -0.0443  0.0373 -0.0592
  574MOL0     C75661  -0.417   3.067   9.076 -0.2929  0.9961  0.2318
  574MOL0     C75662  -0.487   3.028   9.179 -0.2209 -0.3851 -0.8316
  574MOL0     C75663  -0.628   3.009   9.174  0.2884  0.5400  0.4152
  574MOL0     C75664  -0.692   3.030   9.047 -0.6564  0.5844  0.7460
  574MOL0     C75665  -0.836   3.033   9.037  0.0972  0.2125 -0.6464
  574MOL0     O75666  -0.896   3.030   9.162  0.0714 -0.0712  0.1790
  574MOL0     C75667  -1.027   2.996   9.179 -0.5977 -0.2498  0.0632
  574MOL0     C75668  -1.097   2.910   9.098 -0.1393 -0.1033  0.7048
  574MOL0     C75669  -1.223   2.866   9.135  0.4518 -0.5011  0.0475
  574MOL0     C75670  -1.289   2.913   9.250 -0.3078 -0.9512  1.1862
  574MOL0     O75671  -1.421   2.880   9.274  0.1052  0.0587  0.1246
  574MOL0     C75672  -1.501   2.992   9.328  0.7350  0.1675  0.3404
  574MOL0     C75673  -1.647   2.943   9.317  0.0859 -0.4420 -0.7481
  574MOL0     C75674  -1.751   3.061   9.308 -0.2838 -0.0337 -0.6714
  574MOL0     C75675  -1.890   2.998   9.260  0.3887  0.0297 -0.3961
  574MOL0     C75676  -1.986   3.113   9.217  1.1896 -0.2278  0.0475
  574MOL0     C75677  -2.123   3.071   9.177  0.3051  0.2484 -0.1017
  574MOL0     C75678  -2.206   3.190   9.138 -0.3611  0.5013  0.8424
  574MOL0     C75679  -2.165   3.251   8.998  0.2058 -0.4408  0.7214
  574MOL0    Cl75680  -2.297   3.332   8.925 -0.4019 -0.4392 -0.4014
  574MOL0     C75681  -1.213   3.000   9.333  0.1251  0.6847 -0.1914
  574MOL0     C75682  -1.088   3.042   9.297  0.1020  0.1428  1.1326
  574MOL0     O75683  -0.888   3.051   8.928 -0.5820 -0.5271  0.0516
  574MOL0     C75684  -0.619   3.062   8.937 -1.1579 -0.2245  0.3024
  574MOL0     C75685  -0.480   3.079   8.946  0.0521  0.1888  0.3323
  574MOL0     N75686   0.309   3.130   8.827  0.1331 -0.1580  0.3130
  574MOL0     N75687   0.374   3.032   8.818 -0.2025  0.5961  0.1867
  574MOL0     C75688   1.315   2.713   9.184  0.0610  0.3892  0.8416
  574MOL0     C75689   1.453   2.676   9.192 -0.2532  0.0289 -0.1696
  574MOL0     C75690   1.790   2.396   9.185 -0.2463 -0.2965 -0.5930
  574MOL0     C75691   1.824   2.264   9.142 -0.4383  0.6197  0.2699
  574MOL0     C75692   1.953   2.247   9.089  0.6120  0.1705 -0.0309
  574MOL0     C75693   2.045   2.356   9.080 -0.1197  0.2742 -0.5965
  574MOL0     O75694   2.176   2.351   9.040  0.0542 -0.1252  1.1398
  574MOL0     C75695   2.244   2.224   9.037 -0.9713  0.5774  0.2974
  574MOL0     C75696   2.382   2.267   8.967  0.4527  0.5896  0.9837
  574MOL0     C75697   2.461   2.146   8.915  0.4377  0.0616 -0.6466
  574MOL0     C75698   2.499   2.046   9.024  0.1146 -0.2947  0.0641
  574MOL0     C75699   2.644   2.011   9.006  1.0069 -0.3137 -0.2890
  574MOL0     C75700   2.752   1.968   8.994 -1.4831 -0.1826 -0.0459
  574MOL0     C75701   2.016   2.480   9.135 -0.1430  1.1375  0.2029
  574MOL0     C75702   1.887   2.502   9.179  0.0615 -0.0126  0.1423
  574MOL0     H75703   1.450   2.486   9.471 -2.2483  0.2984  0.7654
  574MOL0     H75704   1.196   2.564   9.462  0.9088  2.4187  1.4792
  574MOL0     H75705   1.047   2.875   9.383  0.5210 -0.1377  0.2405
  574MOL0     H75706   1.112   2.751   9.488  2.1653  0.3523 -1.9662
  574MOL0     H75707   0.872   2.753   9.530 -2.4280 -1.8491 -0.3266
  574MOL0     H75708   0.910   2.615   9.438  1.2200 -1.2597  0.4512
  574MOL0     H75709   0.850   2.804   9.243  2.3022  1.4915  2.3988
  574MOL0     H75710   0.764   2.890   9.369 -2.4176 -0.1175 -0.9610
  574MOL0     H75711   0.699   2.602   9.295  2.0444  1.1309 -0.5019
  574MOL0     H75712   0.633   2.685   9.438 -0.2068 -2.5689 -0.4180
  574MOL0     H75713   0.600   2.870   9.219  2.4517  0.2786  2.0432
  574MOL0     H75714   0.477   2.776   9.297 -0.8895 -2.1313 -1.7588
  574MOL0     H75715   0.496   2.589   9.159 -0.1521  0.6374 -0.8070
  574MOL0     H75716   0.631   2.668   9.074 -0.5516 -0.7268 -1.7604
  574MOL0     H75717   0.398   2.681   8.968 -0.9509 -1.1352  1.4667
  574MOL0     H75718   0.335   2.777   9.096 -0.1245  2.0529 -0.1241
  574MOL0     H75719   0.535   2.843   8.881 -1.4064 -0.5099  0.1592
  574MOL0     H75720   0.549   2.939   9.023  1.0470  0.7778 -0.3386
  574MOL0     H75721   0.257   2.999   9.112 -0.6027 -1.1330 -1.9129
  574MOL0     H75722   0.136   3.338   8.956 -2.9033 -1.1736  0.3875
  574MOL0     H75723   0.178   3.261   9.112  2.9941 -1.0120 -0.0049
  574MOL0     H75724  -0.021   3.103   9.067 -2.2887 -0.8142 -1.4059
  574MOL0     H75725  -0.018   3.153   8.899  2.0877 -3.3741  0.5265
  574MOL0     H75726  -0.099   3.308   9.151 -1.4029  1.0474 -0.4512
  574MOL0     H75727  -0.102   3.383   8.997 -0.3187 -0.0762  0.1439
  574MOL0     H75728  -0.262   3.214   8.911  0.3562 -0.9290  0.8683
  574MOL0     H75729  -0.330   3.290   9.058  0.7628 -0.1736  0.9543
  574MOL0     H75730  -0.427   3.017   9.269 -0.5431  5.4506  0.4914
  574MOL0     H75731  -0.672   2.988   9.271  4.2800  1.7695  2.7398
  574MOL0     H75732  -1.048   2.875   9.007 -0.8160 -2.0815  1.0479
  574MOL0     H75733  -1.274   2.800   9.066  1.0957  0.3319 -1.2845
  574MOL0     H75734  -1.495   3.082   9.266  2.5030  1.0692  1.7321
  574MOL0     H75735  -1.472   3.006   9.433 -2.6930 -1.0640  1.5961
  574MOL0     H75736  -1.667   2.861   9.387  1.8740 -2.2617 -2.2458
  574MOL0     H75737  -1.660   2.893   9.220 -0.7173  2.4129 -2.2214
  574MOL0     H75738  -1.709   3.126   9.230 -2.3430  0.3185 -1.5342
  574MOL0     H75739  -1.769   3.128   9.393  0.7726 -0.4728 -0.0768
  574MOL0     H75740  -1.864   2.935   9.175  0.2542  1.5968 -1.6538
  574MOL0     H75741  -1.933   2.935   9.337 -0.5070  0.7033 -0.3325
  574MOL0     H75742  -1.941   3.169   9.134  1.6190 -0.9604 -0.2292
  574MOL0     H75743  -1.995   3.187   9.297 -3.2938 -2.1099  1.6111
  574MOL0     H75744  -2.178   3.016   9.253  0.1527  0.2636 -0.2002
  574MOL0     H75745  -2.111   3.009   9.087 -0.2756 -0.3273  0.2059
  574MOL0     H75746  -2.304   3.144   9.124 -1.0210  1.1448  2.9329
  574MOL0     H75747  -2.199   3.261   9.221 -0.9101  3.2759 -1.3173
  574MOL0     H75748  -2.132   3.175   8.927  0.9665 -2.8057  3.4166
  574MOL0     H75749  -2.092   3.329   9.023 -1.4130  0.6872  2.1749
  574MOL0     H75750  -1.257   3.052   9.417  0.8456  3.8854 -1.6373
  574MOL0     H75751  -1.026   3.107   9.358  2.1954 -0.5175 -0.1802
  574MOL0     H75752  -0.673   3.065   8.843 -0.8315 -4.3974 -0.1995
  574MOL0     H75753  -0.423   3.116   8.861 -2.7850  1.7726 -1.0023
  574MOL0     H75754   1.279   2.774   9.102  0.3133  0.2412  0.6190
  574MOL0     H75755   1.521   2.705   9.113 -1.5602 -0.2995 -1.4610
  574MOL0     H75756   1.759   2.177   9.147 -1.0076  0.6803 -3.1333
  574MOL0     H75757   1.983   2.146   9.060 -0.7929 -0.3646  0.3004
  574MOL0     H75758   2.204   2.146   8.971 -1.0025 -0.8034  1.8956
  574MOL0     H75759   2.264   2.182   9.136  0.2553  0.0954 -0.1247
  574MOL0     H75760   2.365   2.335   8.883 -0.5908  0.4202  1.0420
  574MOL0     H75761   2.445   2.309   9.046  2.1077  0.2222 -0.1025
  574MOL0     H75762   2.553   2.179   8.865  0.9449 -0.8039 -0.3082
  574MOL0     H75763   2.409   2.095   8.834  1.3966 -1.9861 -0.0197
  574MOL0     H75764   2.487   2.094   9.121 -0.5949  0.9534 -0.5968
  574MOL0     H75765   2.445   1.952   9.017  1.8120 -1.7538  3.9804
  574MOL0     H75766   2.853   1.933   8.987 -1.5141 -0.0118 -1.8011
  574MOL0     H75767   2.090   2.559   9.148 -1.3692  2.8786 -2.5350
  574MOL0     H75768   1.852   2.604   9.191  1.3336  0.5381 -0.6052
  575MOL0     O75769   3.019   6.313   9.446 -0.0599 -0.0261  0.3589
  575MOL0     C75770   2.978   6.224   9.368  0.8797 -0.4018 -0.1876
  575MOL0     O75771   3.061   6.133   9.314  0.2893 -0.1917 -0.2920
  575MOL0     C75772   3.188   6.140   9.336  0.4132 -0.0033 -0.3483
  575MOL0     C75773   3.254   6.028   9.383 -0.0740 -0.6200 -0.7918
  575MOL0     C75774   3.391   6.043   9.415  0.7043  1.1813 -0.7256
  575MOL0     C75775   3.469   6.149   9.371  0.6055 -0.3945  0.6465
  575MOL0     O75776   3.606   6.168   9.385 -0.3331  0.5237 -1.0701
  575MOL0     C75777   3.671   6.085   9.486 -0.6671  1.4369 -0.2560
  575MOL0     C75778   3.796   6.164   9.524 -0.9740  0.3242 -0.1300
  575MOL0     C75779   3.884   6.075   9.625  0.4579 -0.1262  0.5161
  575MOL0     C75780   4.006   6.156   9.667  0.0061 -0.2020 -0.7769
  575MOL0     C75781   4.072   6.087   9.789  0.1317 -0.0612  0.2410
  575MOL0     C75782   4.206   6.154   9.836  0.0945  0.3311 -0.4852
  575MOL0     C75783   4.322   6.043   9.851 -0.3164 -0.1239 -0.2184
  575MOL0     C75784   4.349   5.946   9.726  0.1994  0.5460 -1.0039
  575MOL0     N75785   4.465   5.859   9.750 -0.8518 -0.1227  0.0922
  575MOL0     C75786   4.596   5.883   9.698 -0.4015 -0.9868 -1.0875
  575MOL0     C75787   4.665   5.764   9.704 -0.2086 -0.8177 -0.5317
  575MOL0     C75788   4.802   5.744   9.644  0.7515  0.3813 -0.4579
  575MOL0     C75789   4.773   5.756   9.487  0.7194 -0.3106 -0.1615
  575MOL0     C75790   4.899   5.706   9.407 -0.1859  0.1887  0.1197
  575MOL0     C75791   4.883   5.736   9.261  0.0140 -0.4151  0.4737
  575MOL0     O75792   4.875   5.878   9.231 -1.1227  0.7969  0.1356
  575MOL0     C75793   5.000   5.943   9.222 -0.2906  0.0008  0.7494
  575MOL0     C75794   5.086   5.941   9.117  0.0566 -0.5315 -0.0609
  575MOL0     C75795   5.209   6.016   9.126  0.4047 -1.2151  0.0889
  575MOL0     C75796   5.235   6.101   9.238  0.2610 -0.6674  1.0706
  575MOL0     C75797   5.353   6.194   9.229  0.9568  1.2182 -0.0816
  575MOL0     O75798   5.432   6.176   9.121 -0.2088  0.0303  0.5375
  575MOL0     C75799   5.555   6.239   9.114  0.0665 -0.4478 -1.0898
  575MOL0     C75800   5.582   6.375   9.141  0.2158  0.1546 -0.1534
  575MOL0     C75801   5.708   6.420   9.130 -0.3356 -0.0811 -0.0973
  575MOL0     C75802   5.811   6.338   9.084 -0.2793 -0.9777  0.3574
  575MOL0     O75803   5.937   6.400   9.067  1.5798 -0.1370  0.5235
  575MOL0     C75804   6.038   6.303   9.051 -0.6027  0.3248 -0.9084
  575MOL0     C75805   6.173   6.363   9.048 -0.2758  0.5549  0.1377
  575MOL0     C75806   6.281   6.259   9.021  0.0654  0.0391  0.1213
  575MOL0     C75807   6.420   6.312   9.025  0.0951  0.2855  0.4824
  575MOL0     C75808   6.533   6.207   9.006 -0.3285  0.3446  0.0431
  575MOL0     C75809   6.667   6.249   9.058 -0.2311  0.4669 -0.9245
  575MOL0     C75810   6.775   6.156   9.019  0.0747 -0.7994 -0.0627
  575MOL0     C75811   6.893   6.168   9.120  0.1639 -0.3055 -0.6875
  575MOL0    Cl75812   6.854   6.104   9.284  0.0005 -0.2585  0.6770
  575MOL0     C75813   5.781   6.207   9.043 -0.2994  0.4254 -0.6707
  575MOL0     C75814   5.652   6.156   9.058  0.0932  0.2640 -1.5788
  575MOL0     O75815   5.375   6.266   9.325 -0.0746  0.4736 -0.2839
  575MOL0     C75816   5.140   6.111   9.333  0.6214 -0.1685  0.5068
  575MOL0     C75817   5.025   6.033   9.329 -0.0075  0.2466  0.0796
  575MOL0     N75818   4.582   5.668   9.753  0.0581  0.4639 -0.9947
  575MOL0     N75819   4.464   5.729   9.779 -0.5643  0.6073  0.6915
  575MOL0     C75820   3.401   6.245   9.290  0.4615 -0.2026 -0.3829
  575MOL0     C75821   3.256   6.244   9.284 -0.6223 -0.2110  0.5151
  575MOL0     C75822   2.838   6.230   9.328  1.2924 -0.2787  1.5167
  575MOL0     C75823   2.797   6.139   9.233 -0.2384  0.1037 -0.6070
  575MOL0     C75824   2.660   6.135   9.191 -0.0764 -0.1241  0.2884
  575MOL0     C75825   2.569   6.229   9.244  0.9556 -0.0813  0.3921
  575MOL0     O75826   2.436   6.230   9.210  0.1801 -0.2069  0.3568
  575MOL0     C75827   2.395   6.126   9.120  0.4712  0.1982  0.2717
  575MOL0     C75828   2.247   6.109   9.111  0.2382 -0.6731 -0.3042
  575MOL0     C75829   2.208   5.978   9.041  0.2664 -0.1446 -0.7055
  575MOL0     C75830   2.090   6.015   8.949 -0.3461  0.6081 -0.1677
  575MOL0     C75831   2.006   5.899   8.932 -0.3031  0.7417 -0.7274
  575MOL0     C75832   1.936   5.804   8.912 -0.0364  0.6140 -0.6031
  575MOL0     C75833   2.608   6.324   9.336 -0.1565  0.2754  0.6566
  575MOL0     C75834   2.744   6.330   9.370  0.3621  0.0789 -0.0924
  575MOL0     H75835   3.194   5.943   9.413 -2.2135  1.4059  1.1792
  575MOL0     H75836   3.449   5.968   9.467  2.5653  3.3800  0.5915
  575MOL0     H75837   3.704   5.999   9.428  1.7793  1.2405  1.2939
  575MOL0     H75838   3.613   6.050   9.572 -1.1669 -2.2197 -1.8926
  575MOL0     H75839   3.769   6.257   9.575  2.0028  0.6737  0.9922
  575MOL0     H75840   3.861   6.191   9.440  0.2936 -1.7444  0.1132
  575MOL0     H75841   3.921   5.993   9.563  0.9575 -0.6291  1.4542
  575MOL0     H75842   3.829   6.027   9.706  1.2555  1.1292  1.8564
  575MOL0     H75843   4.067   6.169   9.577 -0.1142  3.4396 -0.4912
  575MOL0     H75844   3.972   6.255   9.697  0.0892 -0.3257 -0.2657
  575MOL0     H75845   4.093   5.985   9.753  0.1507  0.0857 -0.1663
  575MOL0     H75846   3.998   6.079   9.869 -0.0686  1.1146  0.1901
  575MOL0     H75847   4.193   6.207   9.931 -0.6458 -0.3964 -0.1752
  575MOL0     H75848   4.249   6.217   9.757 -2.5322 -0.3465 -2.6108
  575MOL0     H75849   4.414   6.096   9.878  1.1086 -2.2757 -0.5745
  575MOL0     H75850   4.295   5.979   9.935 -2.2671 -2.1222 -2.2500
  575MOL0     H75851   4.367   6.015   9.642  0.5063  1.0479 -0.5340
  575MOL0     H75852   4.266   5.877   9.711  1.5410 -1.1557 -0.8528
  575MOL0     H75853   4.638   5.978   9.664  1.9425 -1.4444  0.2754
  575MOL0     H75854   4.833   5.645   9.680  1.0924  0.4691 -0.5139
  575MOL0     H75855   4.870   5.823   9.676  2.7672 -1.9956  1.5420
  575MOL0     H75856   4.749   5.859   9.460 -0.0425  0.1055  1.9167
  575MOL0     H75857   4.688   5.690   9.471  1.5537 -1.3447 -0.4243
  575MOL0     H75858   4.985   5.762   9.444  1.5344 -1.9743 -0.3552
  575MOL0     H75859   4.917   5.601   9.434  1.6381  0.8802  1.9042
  575MOL0     H75860   4.800   5.677   9.221  0.6640 -0.2527 -1.1709
  575MOL0     H75861   4.971   5.705   9.204 -0.7383  1.2798 -1.7356
  575MOL0     H75862   5.080   5.891   9.021  0.1317 -4.2918  1.7060
  575MOL0     H75863   5.267   6.008   9.034 -1.6081  0.2998 -1.3926
  575MOL0     H75864   5.496   6.429   9.182 -0.3371 -1.7181  1.2846
  575MOL0     H75865   5.747   6.520   9.151 -0.5488 -0.1751  0.8067
  575MOL0     H75866   6.032   6.255   8.953  1.6462 -2.1359  0.0594
  575MOL0     H75867   6.039   6.234   9.135  2.9448 -1.7330 -2.4026
  575MOL0     H75868   6.195   6.408   9.145  2.6338  1.6597 -0.9510
  575MOL0     H75869   6.176   6.439   8.969 -1.9819  0.5793  0.0575
  575MOL0     H75870   6.263   6.209   8.925  3.2576 -2.4096  0.6349
  575MOL0     H75871   6.281   6.170   9.085  2.4012 -3.1936 -3.8478
  575MOL0     H75872   6.419   6.382   8.941 -0.5009 -0.1055  0.1615
  575MOL0     H75873   6.428   6.363   9.121  2.2731 -0.9336  1.0235
  575MOL0     H75874   6.558   6.188   8.901 -3.5675 -0.3354 -0.7102
  575MOL0     H75875   6.506   6.107   9.040  2.8185  0.1224  2.3215
  575MOL0     H75876   6.659   6.253   9.167 -0.0839  2.2367 -0.9580
  575MOL0     H75877   6.697   6.347   9.022  2.8589 -0.5995 -1.5690
  575MOL0     H75878   6.758   6.047   9.023  1.1525 -0.9430  0.9247
  575MOL0     H75879   6.809   6.176   8.917 -2.7416 -2.0744 -1.3885
  575MOL0     H75880   6.932   6.268   9.138 -0.4710 -0.1480 -0.1036
  575MOL0     H75881   6.974   6.103   9.086  0.3108 -0.3738 -0.2079
  575MOL0     H75882   5.847   6.136   8.996 -1.7528 -0.8969 -0.8010
  575MOL0     H75883   5.625   6.064   9.007  2.4546 -0.9069 -0.8387
  575MOL0     H75884   5.153   6.168   9.424  1.6430 -0.7902  0.7722
  575MOL0     H75885   4.956   6.030   9.413  1.8026 -1.2137  1.6101
  575MOL0     H75886   3.459   6.323   9.243  1.3163  0.2108  1.2787
  575MOL0     H75887   3.206   6.318   9.222 -3.2787 -1.1093  1.4489
  575MOL0     H75888   2.858   6.062   9.187 -2.1240 -2.7660  1.3661
  575MOL0     H75889   2.631   6.068   9.110 -0.2911 -1.6375  1.5740
  575MOL0     H75890   2.437   6.031   9.156  0.0983  1.1142  3.4353
  575MOL0     H75891   2.427   6.140   9.017 -1.9044 -1.4577 -0.7873
  575MOL0     H75892   2.201   6.099   9.210  1.0206 -0.3228  0.0979
  575MOL0     H75893   2.202   6.190   9.053 -0.6815 -0.7303  0.3129
  575MOL0     H75894   2.179   5.905   9.117  1.2475  0.8105  0.6526
  575MOL0     H75895   2.292   5.931   8.990  2.0750 -1.3281  3.0125
  575MOL0     H75896   2.030   6.092   8.997 -1.9822 -2.1948  2.6447
  575MOL0     H75897   2.116   6.043   8.846 -0.1152 -0.4100 -0.3984
  575MOL0     H75898   1.873   5.720   8.892  0.0067  0.4817 -0.1986
  575MOL0     H75899   2.539   6.396   9.378 -0.1828  0.5778  0.0943
  575MOL0     H75900   2.780   6.406   9.438 -1.7611  0.7432  0.3761
  576MOL0     O75901   7.144  11.309   1.010  0.0630 -0.0082  0.1022
  576MOL0     C75902   7.081  11.215   0.964  0.0966  0.4589  0.1445
  576MOL0     O75903   7.127  11.080   0.937 -0.0346 -0.5074 -0.7728
  576MOL0     C75904   7.258  11.059   0.961 -1.0131 -0.0720  1.1256
  576MOL0     C75905   7.313  10.953   0.873  0.6643 -0.1911  0.3961
  576MOL0     C75906   7.445  10.910   0.874 -0.0997 -0.4442  0.4734
  576MOL0     C75907   7.535  10.974   0.966  0.0277  0.0707  0.3703
  576MOL0     O75908   7.662  10.911   0.952  0.2930 -0.5001 -0.1943
  576MOL0     C75909   7.746  10.912   1.071 -0.2882 -0.0882  0.5166
  576MOL0     C75910   7.892  10.889   1.025 -0.2149 -0.2807  0.8369
  576MOL0     C75911   7.944  10.987   0.920 -0.0007  0.6115  0.3481
  576MOL0     C75912   8.091  10.957   0.871 -0.1535  0.1804 -0.8940
  576MOL0     C75913   8.124  11.037   0.745  0.0402 -0.4589  0.0319
  576MOL0     C75914   8.127  11.193   0.741 -0.4100  0.4973 -0.7249
  576MOL0     C75915   8.225  11.255   0.845  0.5951 -0.4805  0.1748
  576MOL0     C75916   8.374  11.228   0.834 -0.0582  0.5128 -0.1791
  576MOL0     N75917   8.415  11.253   0.703  0.2847  0.7865  1.0309
  576MOL0     C75918   8.532  11.203   0.655  0.9320  0.6693  0.2717
  576MOL0     C75919   8.557  11.252   0.534  0.8871  0.0296 -0.5966
  576MOL0     C75920   8.693  11.242   0.457 -0.2638  0.1065 -1.0448
  576MOL0     C75921   8.779  11.352   0.501 -0.2418 -0.4271 -0.5730
  576MOL0     C75922   8.842  11.316   0.628  1.0852  0.3251  0.0425
  576MOL0     C75923   8.913  11.453   0.671  0.2123 -0.1259 -0.5789
  576MOL0     O75924   8.994  11.415   0.780 -0.2609 -1.0139 -0.1049
  576MOL0     C75925   9.118  11.464   0.777 -0.9442  0.5123  0.3859
  576MOL0     C75926   9.156  11.553   0.874 -0.8041 -0.4720  0.2389
  576MOL0     C75927   9.289  11.599   0.883 -0.3476  0.4103  0.2020
  576MOL0     C75928   9.387  11.553   0.792 -0.6801  0.4656  0.0895
  576MOL0     C75929   9.522  11.595   0.790  0.1808 -0.0896  0.6970
  576MOL0     O75930   9.597  11.584   0.677 -0.1876 -0.0749  0.0689
  576MOL0     C75931   9.724  11.618   0.677 -1.0821  0.2504 -0.7304
  576MOL0     C75932   9.821  11.522   0.700 -0.0471  1.6147 -0.4124
  576MOL0     C75933   9.957  11.557   0.710 -0.1879 -0.0620 -0.1029
  576MOL0     C75934   9.998  11.688   0.690  0.0455  0.1981  0.8767
  576MOL0     O75935  10.127  11.719   0.700  0.0456 -0.2900 -0.1448
  576MOL0     C75936  10.177  11.848   0.647 -0.0063  1.2989 -0.6876
  576MOL0     C75937  10.315  11.879   0.704 -0.4434  0.1207 -0.3474
  576MOL0     C75938  10.387  11.986   0.611 -0.1426  0.0775 -0.9165
  576MOL0     C75939  10.510  12.020   0.701 -1.2462 -0.9320  0.6891
  576MOL0     C75940  10.618  12.072   0.609  0.6094 -0.0496 -0.5245
  576MOL0     C75941  10.735  12.137   0.687 -0.7677 -0.9208 -0.6031
  576MOL0     C75942  10.831  12.030   0.748 -0.2361  0.1997  0.1016
  576MOL0     C75943  10.931  11.977   0.653 -0.9938 -0.1007 -0.7611
  576MOL0    Cl75944  11.073  12.097   0.630  0.0661 -0.3251  0.4874
  576MOL0     C75945   9.905  11.780   0.657  0.1040 -0.7123 -0.2051
  576MOL0     C75946   9.772  11.747   0.661  0.0588 -0.2111  0.3006
  576MOL0     O75947   9.565  11.634   0.889 -0.3423  1.2799  0.1596
  576MOL0     C75948   9.342  11.469   0.691  0.6296  0.7284  0.8705
  576MOL0     C75949   9.214  11.416   0.681 -0.1943  0.3460 -0.4570
  576MOL0     N75950   8.451  11.342   0.506 -0.0570  0.2265 -0.1755
  576MOL0     N75951   8.374  11.347   0.616 -0.6806 -0.3012 -0.6900
  576MOL0     C75952   7.488  11.066   1.048  0.3054 -0.3820 -0.1549
  576MOL0     C75953   7.360  11.117   1.047  0.2528  0.9166 -1.0837
  576MOL0     C75954   6.941  11.242   0.946  0.3615  0.5064  0.4458
  576MOL0     C75955   6.852  11.135   0.944 -0.8805 -0.1154  0.7381
  576MOL0     C75956   6.716  11.166   0.920 -0.9996 -0.2756 -0.0158
  576MOL0     C75957   6.667  11.290   0.908 -0.1202 -0.4235  0.4569
  576MOL0     O75958   6.528  11.297   0.892  0.2435 -1.0115 -0.2698
  576MOL0     C75959   6.458  11.423   0.914  0.4537  0.9644 -0.4103
  576MOL0     C75960   6.365  11.416   1.032  0.3600  0.5147  0.1602
  576MOL0     C75961   6.447  11.408   1.167  0.3288  0.7083 -0.1740
  576MOL0     C75962   6.465  11.259   1.213  0.1583  0.1831 -0.2704
  576MOL0     C75963   6.529  11.270   1.340 -0.4691  0.1196 -0.1524
  576MOL0     C75964   6.586  11.262   1.444 -0.1668  0.2003  0.4277
  576MOL0     C75965   6.753  11.395   0.916 -0.2442 -0.8473  0.2160
  576MOL0     C75966   6.894  11.375   0.938 -0.0021  0.3880 -0.1787
  576MOL0     H75967   7.248  10.904   0.801  0.2151 -3.8508  2.9662
  576MOL0     H75968   7.479  10.836   0.801  1.7785  2.4832 -1.9062
  576MOL0     H75969   7.718  10.839   1.149  3.3511 -0.2406  1.8591
  576MOL0     H75970   7.731  11.011   1.115 -0.7691  0.3970 -0.7027
  576MOL0     H75971   7.907  10.782   1.006  0.1704 -0.7446  3.4458
  576MOL0     H75972   7.955  10.897   1.114  0.4900  0.7338  0.2696
  576MOL0     H75973   7.924  11.086   0.962 -2.2928 -0.8438  3.0329
  576MOL0     H75974   7.880  10.987   0.832  2.0201 -1.5162 -1.2403
  576MOL0     H75975   8.150  10.968   0.962 -0.3098 -3.2377 -0.2619
  576MOL0     H75976   8.101  10.851   0.844 -1.1082 -0.6829  1.8372
  576MOL0     H75977   8.047  11.010   0.673  0.0459  3.6482 -1.7683
  576MOL0     H75978   8.221  10.996   0.714 -1.3420 -4.1696  0.1052
  576MOL0     H75979   8.026  11.232   0.763 -0.4162  1.9441 -3.0299
  576MOL0     H75980   8.143  11.233   0.641 -1.9137  1.2428 -0.7075
  576MOL0     H75981   8.209  11.363   0.850  1.4458 -0.3904  2.0140
  576MOL0     H75982   8.199  11.239   0.951 -0.0907 -1.5731 -0.1463
  576MOL0     H75983   8.399  11.123   0.851 -0.4441  0.2938 -0.9283
  576MOL0     H75984   8.430  11.293   0.902  0.5133 -1.1334  0.9802
  576MOL0     H75985   8.607  11.143   0.705  0.1027 -0.3877  0.2841
  576MOL0     H75986   8.670  11.250   0.350  2.1031 -0.5615 -1.6485
  576MOL0     H75987   8.744  11.146   0.465  2.2378  1.4653  0.9292
  576MOL0     H75988   8.732  11.451   0.504 -0.3893 -0.3180 -3.4681
  576MOL0     H75989   8.864  11.353   0.433  2.1912 -0.2551  2.2677
  576MOL0     H75990   8.758  11.279   0.688 -1.3425  1.4464 -2.4306
  576MOL0     H75991   8.919  11.239   0.618  1.2984  0.7868 -2.6961
  576MOL0     H75992   8.850  11.538   0.701  0.1009 -0.7557  1.0508
  576MOL0     H75993   8.978  11.487   0.590  2.3535  1.9567  1.8315
  576MOL0     H75994   9.102  11.587   0.962  0.8841  0.5083  0.9606
  576MOL0     H75995   9.311  11.664   0.966  1.4164 -1.0286  0.9163
  576MOL0     H75996   9.786  11.419   0.703 -1.2078  1.9268 -1.7247
  576MOL0     H75997  10.026  11.478   0.738 -0.0644 -0.5399 -1.6592
  576MOL0     H75998  10.120  11.937   0.675  2.4109  2.7170 -0.0112
  576MOL0     H75999  10.196  11.828   0.541 -0.1967 -3.0884 -0.0639
  576MOL0     H76000  10.362  11.781   0.700 -1.4351 -0.3344 -2.5506
  576MOL0     H76001  10.293  11.916   0.805  0.5290 -0.1092 -0.0428
  576MOL0     H76002  10.316  12.069   0.614  0.1714  0.3233  1.4178
  576MOL0     H76003  10.414  11.960   0.508 -1.6396 -0.2161 -1.2652
  576MOL0     H76004  10.467  12.094   0.769 -1.4786  0.5089 -0.9539
  576MOL0     H76005  10.540  11.932   0.759 -0.1487 -1.4591 -0.6313
  576MOL0     H76006  10.581  12.157   0.551 -0.2471 -0.6867 -0.9302
  576MOL0     H76007  10.653  11.996   0.539 -0.5963 -1.1526  0.0422
  576MOL0     H76008  10.700  12.200   0.770  0.4347 -1.5061  0.3796
  576MOL0     H76009  10.791  12.209   0.628 -0.2164  2.0526  3.1440
  576MOL0     H76010  10.887  12.067   0.834 -1.3357 -0.8647  1.3233
  576MOL0     H76011  10.777  11.943   0.789 -0.1195  0.9943  2.0627
  576MOL0     H76012  10.864  11.951   0.571 -3.4395  0.0782  1.0832
  576MOL0     H76013  10.962  11.880   0.694 -1.1108  1.5545  3.8343
  576MOL0     H76014   9.920  11.885   0.635 -0.1215 -1.2304 -3.2934
  576MOL0     H76015   9.701  11.822   0.626  0.7527 -0.9519 -3.1126
  576MOL0     H76016   9.415  11.431   0.621  0.5114  0.3578  0.9424
  576MOL0     H76017   9.182  11.351   0.600 -1.6877 -0.6107  0.8302
  576MOL0     H76018   7.554  11.123   1.113 -2.1938  1.7554  0.6840
  576MOL0     H76019   7.331  11.202   1.109  1.9345  0.4739  0.3923
  576MOL0     H76020   6.883  11.033   0.960 -1.2324  0.0484  2.7890
  576MOL0     H76021   6.654  11.078   0.935 -1.0363 -0.4361 -1.0307
  576MOL0     H76022   6.400  11.448   0.825 -0.1326  0.5236 -0.1610
  576MOL0     H76023   6.524  11.510   0.924 -0.1664  1.3994 -0.0414
  576MOL0     H76024   6.312  11.512   1.034 -2.4033 -0.9053  3.1748
  576MOL0     H76025   6.301  11.329   1.013  1.1625 -0.7086  2.6016
  576MOL0     H76026   6.392  11.469   1.239  0.7556  2.8791 -1.5993
  576MOL0     H76027   6.542  11.459   1.150 -0.3269  2.2743  0.6511
  576MOL0     H76028   6.364  11.219   1.221 -0.4583  1.5894 -0.7180
  576MOL0     H76029   6.513  11.197   1.137  0.8049  1.2236 -0.7358
  576MOL0     H76030   6.635  11.237   1.536 -3.5167 -4.5723  1.2510
  576MOL0     H76031   6.724  11.500   0.915 -2.1866 -1.2804  2.4213
  576MOL0     H76032   6.945  11.470   0.949  0.5883  0.2308 -1.4196
  577MOL0     O76033   8.860  10.626   4.898 -0.0507 -0.1736 -0.2167
  577MOL0     C76034   8.836  10.739   4.924 -0.1830 -0.7342 -0.3479
  577MOL0     O76035   8.730  10.787   4.994  0.2882 -0.0480  0.0340
  577MOL0     C76036   8.662  10.695   5.066 -0.7106 -0.9299 -0.1865
  577MOL0     C76037   8.716  10.651   5.187 -0.4911  0.4607 -0.1406
  577MOL0     C76038   8.637  10.564   5.268 -0.2151 -0.4173 -0.0571
  577MOL0     C76039   8.501  10.532   5.235 -0.4721  0.1406 -0.5186
  577MOL0     O76040   8.411  10.443   5.298  0.0345 -0.3843 -0.3883
  577MOL0     C76041   8.401  10.405   5.440 -0.0569  0.0205  0.3816
  577MOL0     C76042   8.331  10.278   5.464  0.0006  0.3925 -0.2203
  577MOL0     C76043   8.297  10.251   5.610  0.5330  0.1169 -0.4174
  577MOL0     C76044   8.155  10.316   5.644  0.0146  0.1532 -0.1912
  577MOL0     C76045   8.035  10.222   5.625  0.7411  0.1872  0.7304
  577MOL0     C76046   7.990  10.148   5.753  0.0330 -0.2331  0.2008
  577MOL0     C76047   8.072  10.023   5.783 -0.9696  0.1019  0.2937
  577MOL0     C76048   7.994   9.927   5.880  0.4318  0.4326 -0.2711
  577MOL0     N76049   8.075   9.830   5.948  0.4075  0.4461 -0.2151
  577MOL0     C76050   8.123   9.716   5.887 -0.6032 -0.1498  0.6719
  577MOL0     C76051   8.215   9.672   5.974  0.8033  0.7613 -0.7373
  577MOL0     C76052   8.308   9.548   5.965  1.1141 -0.4766  0.3029
  577MOL0     C76053   8.227   9.421   5.973 -0.3381  0.0953 -0.5136
  577MOL0     C76054   8.142   9.406   6.091  0.1823  0.6552 -0.5006
  577MOL0     C76055   8.094   9.263   6.103 -0.2375  0.9366  0.2269
  577MOL0     O76056   8.006   9.249   6.221  0.2810  0.3392 -0.5406
  577MOL0     C76057   7.869   9.265   6.200 -0.5054  0.5707  0.1929
  577MOL0     C76058   7.808   9.338   6.297 -0.1897 -0.8458 -0.9314
  577MOL0     C76059   7.674   9.370   6.311 -0.2474  0.3183 -0.3260
  577MOL0     C76060   7.596   9.333   6.201  0.2304  0.4837  0.7780
  577MOL0     C76061   7.453   9.373   6.210 -0.9091 -0.2567  0.3291
  577MOL0     O76062   7.385   9.371   6.089 -0.1228 -0.0129  0.1735
  577MOL0     C76063   7.253   9.404   6.082  0.2703  0.5780 -0.1624
  577MOL0     C76064   7.195   9.365   5.964  0.6493  0.0083  0.9080
  577MOL0     C76065   7.056   9.390   5.947 -0.5387 -0.6591 -0.1438
  577MOL0     C76066   6.966   9.455   6.045 -1.1356  0.4000  0.8191
  577MOL0     O76067   6.829   9.467   6.021 -0.1481  0.0400  0.1940
  577MOL0     C76068   6.753   9.551   6.101 -0.4400 -0.1869  0.0467
  577MOL0     C76069   6.708   9.466   6.224 -0.3124 -0.7787  0.1570
  577MOL0     C76070   6.601   9.541   6.305  0.8548 -0.8598 -0.8812
  577MOL0     C76071   6.458   9.509   6.261 -0.2621 -0.0039  0.7969
  577MOL0     C76072   6.344   9.596   6.313  0.0167 -0.6190  0.2909
  577MOL0     C76073   6.199   9.528   6.310 -0.6947  0.3514  0.4239
  577MOL0     C76074   6.167   9.455   6.189 -1.0414 -0.7595  0.1634
  577MOL0     C76075   6.018   9.466   6.145  0.1552 -0.1139 -0.9225
  577MOL0    Cl76076   5.908   9.406   6.277  0.0374 -0.1901  0.2750
  577MOL0     C76077   7.041   9.505   6.157  0.1400  0.6424  0.3388
  577MOL0     C76078   7.173   9.476   6.174  0.1944 -0.4017  0.4474
  577MOL0     O76079   7.402   9.395   6.319  0.8218 -0.1146 -0.0193
  577MOL0     C76080   7.654   9.265   6.088 -0.0104  0.4435  0.1370
  577MOL0     C76081   7.786   9.224   6.092 -0.1223 -1.0479  0.4733
  577MOL0     N76082   8.221   9.762   6.088 -0.3151  0.5879  0.7434
  577MOL0     N76083   8.140   9.856   6.063 -0.2448  0.1871 -0.5350
  577MOL0     C76084   8.451  10.585   5.119  0.0276 -0.0306  0.3535
  577MOL0     C76085   8.536  10.663   5.035  0.1319  0.8483  0.5685
  577MOL0     C76086   8.939  10.840   4.869  1.3091  1.1014  0.7806
  577MOL0     C76087   8.914  10.978   4.874 -0.2285 -1.1039  0.2088
  577MOL0     C76088   9.005  11.068   4.813  0.5768 -0.0335 -0.3519
  577MOL0     C76089   9.110  11.030   4.734  0.0793  1.1484  0.2092
  577MOL0     O76090   9.189  11.129   4.683 -0.3845 -0.0423 -0.0828
  577MOL0     C76091   9.289  11.093   4.582 -0.2056 -1.2162  1.1119
  577MOL0     C76092   9.329  11.210   4.493  0.0723  0.0340 -0.8855
  577MOL0     C76093   9.446  11.282   4.558 -1.1626 -0.0981 -0.5016
  577MOL0     C76094   9.512  11.373   4.461  0.5449 -0.5772  0.2706
  577MOL0     C76095   9.627  11.450   4.502  0.4665  0.8728  0.2833
  577MOL0     C76096   9.727  11.511   4.536 -0.2225 -0.4973  0.5970
  577MOL0     C76097   9.136  10.888   4.728  0.5216  0.1946 -0.2475
  577MOL0     C76098   9.050  10.802   4.793 -0.2224 -1.1933  0.0459
  577MOL0     H76099   8.816  10.682   5.217  0.1578 -1.2400 -0.4333
  577MOL0     H76100   8.678  10.524   5.361 -1.7606  0.5890  1.1052
  577MOL0     H76101   8.353  10.477   5.507  0.2548  0.4134  0.1859
  577MOL0     H76102   8.505  10.391   5.472 -0.0241 -2.1091 -0.4953
  577MOL0     H76103   8.391  10.196   5.426 -0.3831 -1.8187  3.4623
  577MOL0     H76104   8.239  10.274   5.405  0.7513 -1.8348 -1.3361
  577MOL0     H76105   8.365  10.299   5.681 -1.1959  2.1191 -0.0352
  577MOL0     H76106   8.293  10.148   5.647 -1.0593  1.8067  5.0347
  577MOL0     H76107   8.161  10.361   5.744  1.2126  2.2457 -1.1450
  577MOL0     H76108   8.148  10.406   5.583  1.2360  2.8877  3.3582
  577MOL0     H76109   8.038  10.158   5.536  0.1754  0.3497  0.5914
  577MOL0     H76110   7.951  10.283   5.592  1.0989 -0.5753 -1.8291
  577MOL0     H76111   7.887  10.116   5.734  0.4050 -1.2217 -0.2094
  577MOL0     H76112   8.003  10.222   5.832 -1.2796  0.6914 -0.4129
  577MOL0     H76113   8.107   9.967   5.695 -0.6873 -2.8664  2.1536
  577MOL0     H76114   8.163  10.068   5.822 -1.2477  0.9010  0.0554
  577MOL0     H76115   7.921   9.871   5.821  1.3239  0.5112 -1.4783
  577MOL0     H76116   7.938   9.990   5.950  1.0125  1.5468 -0.7897
  577MOL0     H76117   8.088   9.663   5.798 -0.1094 -0.4786  0.6728
  577MOL0     H76118   8.388   9.545   6.039  0.7702 -2.9624  0.6615
  577MOL0     H76119   8.362   9.541   5.870 -1.8127  0.5767 -1.5803
  577MOL0     H76120   8.299   9.343   5.945 -0.5802  1.5039 -6.5208
  577MOL0     H76121   8.160   9.422   5.887 -0.4069 -2.9165 -0.5823
  577MOL0     H76122   8.198   9.420   6.184 -0.9178  0.5170  0.2071
  577MOL0     H76123   8.058   9.476   6.084 -1.6645 -1.5032 -1.3064
  577MOL0     H76124   8.174   9.191   6.126 -2.0236 -1.0425  0.5881
  577MOL0     H76125   8.037   9.227   6.017  1.7494 -1.0198 -0.4007
  577MOL0     H76126   7.876   9.375   6.373 -2.3020 -0.9807  1.1512
  577MOL0     H76127   7.639   9.434   6.391 -0.0586 -2.7137  2.3417
  577MOL0     H76128   7.246   9.306   5.889 -0.3180  0.5720 -0.2286
  577MOL0     H76129   6.998   9.354   5.863  0.6788 -0.2640 -1.1759
  577MOL0     H76130   6.672   9.589   6.038  1.0855 -0.0682 -1.9412
  577MOL0     H76131   6.815   9.636   6.133  0.9577 -0.8193 -0.8718
  577MOL0     H76132   6.797   9.453   6.285  1.6745 -0.7417 -2.5580
  577MOL0     H76133   6.676   9.371   6.179  0.0072 -1.4813  1.3538
  577MOL0     H76134   6.623   9.647   6.287 -0.1392  0.0873  2.6093
  577MOL0     H76135   6.616   9.514   6.410 -0.8740 -1.7707 -0.8298
  577MOL0     H76136   6.458   9.488   6.153  0.5778  0.3165  0.7324
  577MOL0     H76137   6.434   9.411   6.304 -1.5390 -0.9928 -1.9135
  577MOL0     H76138   6.332   9.689   6.256 -0.5706 -0.6240  0.3992
  577MOL0     H76139   6.362   9.622   6.418  0.3237  1.3569 -0.2123
  577MOL0     H76140   6.122   9.598   6.343 -0.3118  1.2268 -0.4791
  577MOL0     H76141   6.189   9.440   6.375  1.0977 -0.0778  0.1596
  577MOL0     H76142   6.217   9.502   6.105 -2.8504 -1.8841 -1.6472
  577MOL0     H76143   6.204   9.352   6.194  1.5878  0.1235  0.0058
  577MOL0     H76144   6.000   9.413   6.051  0.7348  3.1069 -3.0003
  577MOL0     H76145   5.986   9.569   6.128  2.4198  0.2037 -4.2928
  577MOL0     H76146   6.998   9.559   6.241  2.3902  1.9791  0.7089
  577MOL0     H76147   7.212   9.527   6.262  0.2177  1.2633 -0.4817
  577MOL0     H76148   7.596   9.231   6.003  3.8503 -3.7443 -1.2217
  577MOL0     H76149   7.827   9.173   6.005 -0.0908  0.4349 -0.4110
  577MOL0     H76150   8.344  10.574   5.102 -0.3754  2.3633  0.9803
  577MOL0     H76151   8.507  10.695   4.935 -0.1697  2.1882  1.0674
  577MOL0     H76152   8.830  11.024   4.925  1.3478  0.0663  1.8526
  577MOL0     H76153   8.977  11.173   4.818  0.1065 -0.1726 -0.0001
  577MOL0     H76154   9.261  11.007   4.520  0.2850 -1.4682  1.2314
  577MOL0     H76155   9.376  11.058   4.639  0.6091 -0.6756  0.2164
  577MOL0     H76156   9.366  11.161   4.402  4.6400 -1.4212  1.4641
  577MOL0     H76157   9.248  11.279   4.469 -0.7974  0.2082  2.1511
  577MOL0     H76158   9.526  11.221   4.601 -1.3935 -0.6589 -0.8716
  577MOL0     H76159   9.402  11.348   4.633 -1.1054  3.3173 -3.1997
  577MOL0     H76160   9.551  11.312   4.379  0.7442 -1.3744  0.9467
  577MOL0     H76161   9.448  11.456   4.427  0.5356 -0.0288  1.5822
  577MOL0     H76162   9.817  11.562   4.562 -0.2024 -0.6116  0.7502
  577MOL0     H76163   9.220  10.859   4.666  1.6319 -1.3489  1.8723
  577MOL0     H76164   9.061  10.695   4.778 -1.1270 -1.5387  1.5499
  578MOL0     O76165   4.430   6.621   1.705 -0.1781  0.0192 -0.2250
  578MOL0     C76166   4.488   6.734   1.716  0.5930  0.0231 -0.5273
  578MOL0     O76167   4.612   6.743   1.775  0.3759 -0.6315  1.5815
  578MOL0     C76168   4.688   6.626   1.784 -0.6229 -0.5307 -0.1991
  578MOL0     C76169   4.771   6.612   1.891  0.3656 -0.6924 -0.6380
  578MOL0     C76170   4.852   6.500   1.910  0.4848 -0.2201  0.4744
  578MOL0     C76171   4.848   6.396   1.820 -0.3014  0.2932  0.2846
  578MOL0     O76172   4.922   6.283   1.824 -1.0748 -0.0351  0.2713
  578MOL0     C76173   5.060   6.296   1.867  0.3960  0.3064  0.4692
  578MOL0     C76174   5.145   6.364   1.752 -0.1292  0.2416 -0.0833
  578MOL0     C76175   5.115   6.318   1.610  0.4751  0.6049 -0.0944
  578MOL0     C76176   5.246   6.332   1.534  0.5533 -0.0367  0.0393
  578MOL0     C76177   5.229   6.285   1.394 -0.2935 -0.2150 -0.5942
  578MOL0     C76178   5.354   6.312   1.322 -0.4427 -0.6400 -0.5839
  578MOL0     C76179   5.329   6.312   1.169 -0.1581 -0.4475 -0.1031
  578MOL0     C76180   5.351   6.181   1.089 -1.1076  0.3357 -0.6663
  578MOL0     N76181   5.246   6.074   1.127 -0.7538  0.9664  0.3498
  578MOL0     C76182   5.142   6.046   1.042  1.4392  0.8123 -0.7545
  578MOL0     C76183   5.073   5.950   1.121 -1.2422  0.7722  0.1929
  578MOL0     C76184   4.968   5.877   1.049 -0.5812 -0.8096 -0.5055
  578MOL0     C76185   4.923   5.742   1.105 -0.0017 -0.3058  0.1897
  578MOL0     C76186   4.796   5.689   1.035 -0.0602  0.7367 -1.2712
  578MOL0     C76187   4.698   5.646   1.149  0.6657 -0.9060 -0.2869
  578MOL0     O76188   4.574   5.602   1.103  0.0144  0.1333  0.2684
  578MOL0     C76189   4.554   5.470   1.075 -0.8054 -0.5736  0.3650
  578MOL0     C76190   4.646   5.365   1.088  0.3341  0.7023  0.1190
  578MOL0     C76191   4.604   5.236   1.069  0.7371 -0.1015  0.2949
  578MOL0     C76192   4.485   5.205   1.009  0.5416  0.8901  0.1812
  578MOL0     C76193   4.440   5.062   0.981 -0.1216  0.0758  0.8013
  578MOL0     O76194   4.314   5.050   0.915 -0.3277 -0.3087  0.2426
  578MOL0     C76195   4.262   4.922   0.892  1.4378  0.0318 -0.6101
  578MOL0     C76196   4.239   4.872   0.765  0.5402 -0.3527  0.5993
  578MOL0     C76197   4.175   4.752   0.738 -0.0059 -0.4446  0.4537
  578MOL0     C76198   4.133   4.681   0.857 -0.7485 -0.6336  0.0847
  578MOL0     O76199   4.081   4.560   0.852  0.0633  0.9630 -0.4082
  578MOL0     C76200   4.027   4.513   0.721 -0.2663  0.5718 -0.8937
  578MOL0     C76201   3.925   4.402   0.738  1.0145  0.7399 -0.4376
  578MOL0     C76202   3.856   4.361   0.608  0.4788 -0.9965  0.3342
  578MOL0     C76203   3.764   4.245   0.626  0.1694 -0.5915 -0.2202
  578MOL0     C76204   3.689   4.182   0.507 -0.3953  0.2020 -0.2955
  578MOL0     C76205   3.783   4.160   0.387 -0.8742  0.2529  0.3467
  578MOL0     C76206   3.885   4.047   0.422 -0.7513 -0.7570  0.5355
  578MOL0     C76207   3.951   4.006   0.289 -0.0892 -1.3554  0.0599
  578MOL0    Cl76208   4.102   3.903   0.327  0.2685  0.1484 -0.4832
  578MOL0     C76209   4.153   4.728   0.989  0.7695  0.1898  0.4699
  578MOL0     C76210   4.218   4.849   1.008  0.2637  0.0676  0.3267
  578MOL0     O76211   4.514   4.962   1.009 -0.4686  0.5355  0.6314
  578MOL0     C76212   4.394   5.312   0.977  0.1354  0.6120  0.2473
  578MOL0     C76213   4.426   5.443   1.012 -1.0639  0.1260  0.2730
  578MOL0     N76214   5.152   5.906   1.230 -0.0273 -0.1091 -0.8141
  578MOL0     N76215   5.259   5.979   1.225 -0.4607 -0.3656 -0.4650
  578MOL0     C76216   4.769   6.405   1.704  0.0807 -0.8397 -0.7094
  578MOL0     C76217   4.685   6.527   1.689  0.0624 -0.6836 -0.1328
  578MOL0     C76218   4.412   6.852   1.687  0.0694 -1.0033  0.6063
  578MOL0     C76219   4.460   6.984   1.698  0.1180  0.0417  0.0651
  578MOL0     C76220   4.370   7.091   1.664 -0.8217  0.2844  0.7512
  578MOL0     C76221   4.237   7.074   1.621 -1.0049 -0.2544  0.3718
  578MOL0     O76222   4.173   7.188   1.582 -0.0125  0.0545  0.8324
  578MOL0     C76223   4.032   7.192   1.550 -0.0319  0.3376 -0.0065
  578MOL0     C76224   3.971   7.336   1.544  0.2238 -0.5783  0.4905
  578MOL0     C76225   4.035   7.414   1.435 -1.0301 -0.5241 -0.3712
  578MOL0     C76226   3.963   7.550   1.390  0.4269 -0.4550  0.1625
  578MOL0     C76227   3.977   7.660   1.491  0.2405 -0.1450  0.4838
  578MOL0     C76228   3.980   7.753   1.566 -0.4414 -0.0310 -0.1997
  578MOL0     C76229   4.188   6.946   1.608 -0.3310  0.0201 -0.3957
  578MOL0     C76230   4.276   6.837   1.642  0.4165 -0.9158 -0.1616
  578MOL0     H76231   4.776   6.693   1.964 -0.7412 -1.0429 -0.1506
  578MOL0     H76232   4.906   6.502   2.004  0.7625  0.8806  0.3058
  578MOL0     H76233   5.102   6.195   1.876  1.6563  0.7637 -0.1764
  578MOL0     H76234   5.063   6.342   1.966  0.1616 -0.8304  1.0313
  578MOL0     H76235   5.248   6.341   1.780 -0.9057 -2.9365  0.5431
  578MOL0     H76236   5.124   6.471   1.762  0.4329  0.2598  1.0852
  578MOL0     H76237   5.035   6.377   1.564  0.3152 -0.5090 -1.3028
  578MOL0     H76238   5.073   6.218   1.615 -1.3716  1.3429 -0.0074
  578MOL0     H76239   5.265   6.440   1.537 -1.4568  0.4778 -2.3541
  578MOL0     H76240   5.333   6.288   1.582  2.1885  1.9000 -0.9589
  578MOL0     H76241   5.152   6.345   1.344 -0.6281 -2.3408 -2.8084
  578MOL0     H76242   5.200   6.182   1.372 -0.3183  0.5331 -4.8616
  578MOL0     H76243   5.430   6.238   1.348 -0.7698 -0.4477  1.0093
  578MOL0     H76244   5.389   6.409   1.358  0.8876 -1.3941  0.2540
  578MOL0     H76245   5.224   6.336   1.151  0.1248  0.6948 -0.2992
  578MOL0     H76246   5.390   6.387   1.118 -1.5013 -0.8775 -2.4633
  578MOL0     H76247   5.451   6.139   1.102 -1.2144  0.1305 -0.4770
  578MOL0     H76248   5.325   6.196   0.984 -1.6349  0.4235 -0.5251
  578MOL0     H76249   5.100   6.113   0.967  2.1434  1.0428 -0.9534
  578MOL0     H76250   5.001   5.857   0.947 -2.7509 -3.9147 -0.7243
  578MOL0     H76251   4.880   5.942   1.046 -0.2280 -0.3050 -0.2385
  578MOL0     H76252   4.898   5.759   1.210 -1.9611  3.1551 -0.6640
  578MOL0     H76253   5.003   5.667   1.103  0.0066 -0.7139  4.8603
  578MOL0     H76254   4.767   5.771   0.969  0.2918  0.3351 -1.9332
  578MOL0     H76255   4.818   5.603   0.972 -0.8824  2.5971 -4.3209
  578MOL0     H76256   4.663   5.728   1.212 -2.8292 -2.3486 -0.1472
  578MOL0     H76257   4.749   5.585   1.224 -0.0092  1.5830  2.3675
  578MOL0     H76258   4.745   5.382   1.130  0.5079  1.1250 -0.4356
  578MOL0     H76259   4.675   5.166   1.113 -1.2326 -1.5811  1.2525
  578MOL0     H76260   4.282   4.928   0.682 -0.1048 -0.4899  0.1634
  578MOL0     H76261   4.148   4.724   0.637 -3.1046 -3.5544  1.9202
  578MOL0     H76262   4.101   4.479   0.648  0.9103 -2.1746  1.3888
  578MOL0     H76263   3.982   4.595   0.664  0.5091 -0.4358 -3.0814
  578MOL0     H76264   3.849   4.437   0.808  0.4651  0.6536 -0.9789
  578MOL0     H76265   3.964   4.312   0.785 -1.0441  1.1250  2.2148
  578MOL0     H76266   3.933   4.346   0.532 -0.5895 -1.9009 -0.6209
  578MOL0     H76267   3.804   4.454   0.583  2.5740  0.3482  0.7438
  578MOL0     H76268   3.818   4.177   0.692  4.2675  1.9639 -0.5818
  578MOL0     H76269   3.677   4.269   0.688  0.9894  0.8179  0.4306
  578MOL0     H76270   3.625   4.257   0.460 -2.0957 -1.2214 -0.3685
  578MOL0     H76271   3.629   4.094   0.535  0.2067 -0.0009  0.3994
  578MOL0     H76272   3.822   4.256   0.352  1.0474 -0.4699  0.3781
  578MOL0     H76273   3.736   4.133   0.292 -0.6038  2.4797 -0.4706
  578MOL0     H76274   3.962   4.089   0.488  0.1778  2.8336 -2.4388
  578MOL0     H76275   3.841   3.961   0.473  0.9501 -2.3667 -0.5720
  578MOL0     H76276   3.979   4.094   0.230  0.4551 -1.9168 -0.5299
  578MOL0     H76277   3.879   3.942   0.238 -0.3243 -2.0476  1.2083
  578MOL0     H76278   4.127   4.656   1.066  0.3427 -1.5418 -1.2132
  578MOL0     H76279   4.237   4.893   1.106  1.8561  1.4265 -0.5244
  578MOL0     H76280   4.299   5.302   0.926  0.3583 -0.0613 -0.0493
  578MOL0     H76281   4.367   5.527   0.977  0.8062  0.8685 -1.2750
  578MOL0     H76282   4.763   6.323   1.633  0.3401 -1.5258  0.0473
  578MOL0     H76283   4.617   6.521   1.605  0.3601 -4.5797 -0.2859
  578MOL0     H76284   4.560   7.008   1.733 -0.5784  0.1380  2.1803
  578MOL0     H76285   4.398   7.195   1.675 -0.2318  0.2341 -0.1336
  578MOL0     H76286   3.972   7.150   1.631 -0.4900  2.2133  0.6866
  578MOL0     H76287   4.015   7.136   1.458  1.0092  1.5127 -0.9515
  578MOL0     H76288   3.864   7.325   1.526  0.4926 -2.0767 -0.3223
  578MOL0     H76289   3.993   7.385   1.639 -1.9135 -1.6366  1.6035
  578MOL0     H76290   4.041   7.342   1.352 -1.6774  0.3494 -1.2126
  578MOL0     H76291   4.140   7.434   1.455 -0.4150 -1.2081 -2.6030
  578MOL0     H76292   4.008   7.586   1.297 -2.5092  0.2897 -1.0985
  578MOL0     H76293   3.854   7.537   1.381  0.2338  2.1140 -5.5647
  578MOL0     H76294   3.984   7.840   1.627 -1.5544  0.2992 -0.5765
  578MOL0     H76295   4.093   6.926   1.559  0.9249 -0.9217 -2.5527
  578MOL0     H76296   4.236   6.736   1.642 -1.4146 -0.2110  0.0837
  579MOL0     O76297   8.865   1.738   5.113 -0.2293 -0.5924  0.3445
  579MOL0     C76298   8.822   1.665   5.024  0.4504 -0.0072  0.2819
  579MOL0     O76299   8.847   1.665   4.889  0.9528 -0.2226 -0.0243
  579MOL0     C76300   8.913   1.768   4.827 -0.4591  1.1771 -0.5561
  579MOL0     C76301   9.015   1.743   4.735  0.6832 -0.8645  1.0480
  579MOL0     C76302   9.081   1.853   4.690  0.5726  0.2998  0.2902
  579MOL0     C76303   9.036   1.986   4.705  0.2256 -0.3141 -0.2954
  579MOL0     O76304   9.099   2.095   4.648  0.4850 -0.4745 -0.1815
  579MOL0     C76305   9.232   2.095   4.594  0.0951 -0.0515 -0.1430
  579MOL0     C76306   9.284   2.227   4.547  0.0358  0.0359 -0.5004
  579MOL0     C76307   9.188   2.304   4.449 -0.7332  0.1431  0.4039
  579MOL0     C76308   9.205   2.456   4.483  0.6133 -0.0432  0.6015
  579MOL0     C76309   9.133   2.539   4.381  0.4451  0.2973  0.0282
  579MOL0     C76310   9.151   2.695   4.404 -0.3050 -0.0862 -0.2740
  579MOL0     C76311   9.076   2.774   4.298 -0.2496  0.3253  0.3016
  579MOL0     C76312   9.051   2.921   4.333 -0.6958 -0.1690  0.0548
  579MOL0     N76313   9.160   2.995   4.406  0.0118  0.8249  0.7638
  579MOL0     C76314   9.292   2.993   4.371 -0.7170 -0.4212  0.3675
  579MOL0     C76315   9.351   3.072   4.462 -0.4046  1.5448  0.2747
  579MOL0     C76316   9.500   3.100   4.486 -0.0915 -0.2054  0.5968
  579MOL0     C76317   9.602   3.004   4.420  0.5853  0.1750  0.2778
  579MOL0     C76318   9.585   2.857   4.465  0.4685 -0.2036 -0.0626
  579MOL0     C76319   9.697   2.761   4.420 -0.1750  0.4072  0.4166
  579MOL0     O76320   9.687   2.749   4.283 -0.2016  0.2406 -0.5060
  579MOL0     C76321   9.783   2.811   4.207  1.3004  0.8670  0.4415
  579MOL0     C76322   9.888   2.886   4.255 -0.1015  0.9067  0.8054
  579MOL0     C76323   9.986   2.940   4.170 -0.4836 -0.1816  0.1297
  579MOL0     C76324   9.971   2.938   4.033 -0.0016 -0.3015  0.6216
  579MOL0     C76325  10.076   2.999   3.943  1.0224  0.4233 -0.2517
  579MOL0     O76326  10.175   3.070   4.001  0.6613  0.4476  0.0269
  579MOL0     C76327  10.274   3.129   3.924  0.3524 -0.1697 -0.4969
  579MOL0     C76328  10.329   3.255   3.963 -0.1507  0.1249 -0.0053
  579MOL0     C76329  10.428   3.322   3.892  0.0735  0.7918  0.1976
  579MOL0     C76330  10.478   3.260   3.780  0.1981 -0.4002 -0.2803
  579MOL0     O76331  10.555   3.320   3.684 -0.2214 -0.0323  0.9536
  579MOL0     C76332  10.584   3.459   3.698  0.3443 -0.6126 -0.9034
  579MOL0     C76333  10.694   3.492   3.592  0.2884 -0.4218 -0.5267
  579MOL0     C76334  10.634   3.553   3.466 -0.4245  0.5991  0.2355
  579MOL0     C76335  10.747   3.595   3.368  0.0111  0.4330  0.5527
  579MOL0     C76336  10.695   3.628   3.226  0.2047 -0.2149  0.2490
  579MOL0     C76337  10.591   3.733   3.215 -0.5182 -0.2040 -0.0144
  579MOL0     C76338  10.635   3.872   3.275 -0.4504  0.1504 -0.7345
  579MOL0     C76339  10.536   3.985   3.252 -0.6436 -0.0725 -0.5945
  579MOL0    Cl76340  10.374   3.944   3.317 -0.0860  0.1128  0.6432
  579MOL0     C76341  10.418   3.143   3.735 -1.2051  0.7839 -0.3754
  579MOL0     C76342  10.322   3.072   3.809  0.7438 -0.7422 -0.3917
  579MOL0     O76343  10.043   2.999   3.822  0.2618 -0.3629 -0.0510
  579MOL0     C76344   9.859   2.873   3.976 -0.0968  0.7361 -0.3178
  579MOL0     C76345   9.781   2.795   4.067  0.3388 -0.4903  0.2089
  579MOL0     N76346   9.252   3.097   4.563 -0.1192  0.3129 -0.1272
  579MOL0     N76347   9.135   3.054   4.525  0.4233  0.5799  0.0969
  579MOL0     C76348   8.920   2.001   4.770  0.6915 -0.1468 -0.1860
  579MOL0     C76349   8.868   1.899   4.850  0.8444 -0.2396 -0.1296
  579MOL0     C76350   8.720   1.571   5.073  0.0790 -0.1004 -0.3144
  579MOL0     C76351   8.682   1.573   5.210  0.0945 -0.3810  0.5258
  579MOL0     C76352   8.595   1.477   5.257  1.3667 -0.7436  0.0197
  579MOL0     C76353   8.532   1.390   5.168 -0.2260  0.5858 -0.4766
  579MOL0     O76354   8.451   1.301   5.226  0.6251  0.3221  0.3582
  579MOL0     C76355   8.395   1.196   5.153  0.2550  0.7580  0.5909
  579MOL0     C76356   8.485   1.077   5.128  0.4186 -0.2474  0.1220
  579MOL0     C76357   8.411   0.984   5.039  0.1149  1.0225  0.3227
  579MOL0     C76358   8.481   0.853   5.016 -0.3917  0.1696  0.1121
  579MOL0     C76359   8.463   0.772   5.130 -0.0974  0.6178 -0.4079
  579MOL0     C76360   8.448   0.703   5.229  0.3848 -0.0843  0.7761
  579MOL0     C76361   8.548   1.406   5.033 -0.5424  0.9691  0.3095
  579MOL0     C76362   8.650   1.487   4.986  0.1171  0.0710  0.2265
  579MOL0     H76363   9.052   1.642   4.721 -0.1441 -0.8820 -1.7405
  579MOL0     H76364   9.166   1.843   4.623  0.2293 -1.4651  0.0495
  579MOL0     H76365   9.242   2.018   4.517 -1.3840 -1.7760  1.2816
  579MOL0     H76366   9.301   2.075   4.676 -0.8013  2.6833  1.3965
  579MOL0     H76367   9.387   2.238   4.512  0.5850  1.9837  1.5275
  579MOL0     H76368   9.278   2.277   4.644 -5.4015 -1.5487  0.2710
  579MOL0     H76369   9.086   2.266   4.454  0.0526 -2.4859 -1.1586
  579MOL0     H76370   9.216   2.296   4.343  1.4939  3.8688  0.5306
  579MOL0     H76371   9.163   2.479   4.581  0.7356 -2.2129  1.2127
  579MOL0     H76372   9.308   2.493   4.485 -0.2538  2.7253 -0.5180
  579MOL0     H76373   9.030   2.508   4.362  1.3460 -1.0026 -3.5097
  579MOL0     H76374   9.181   2.530   4.283 -0.6658 -0.4557 -0.4625
  579MOL0     H76375   9.255   2.726   4.398 -0.2371 -0.2124  0.1609
  579MOL0     H76376   9.118   2.717   4.506  0.9914 -2.0241  0.6229
  579MOL0     H76377   9.128   2.772   4.202 -1.4450 -0.3646 -0.3614
  579MOL0     H76378   8.986   2.715   4.277  0.7042 -0.4317 -2.0528
  579MOL0     H76379   8.955   2.936   4.384 -0.5823  1.5460 -0.2079
  579MOL0     H76380   9.042   2.978   4.241 -2.7235 -2.8052 -1.5404
  579MOL0     H76381   9.338   2.937   4.291  3.5631  3.1603 -0.0393
  579MOL0     H76382   9.515   3.093   4.594  2.0071  1.1633  0.4495
  579MOL0     H76383   9.531   3.201   4.457 -1.7746  0.2494  0.2117
  579MOL0     H76384   9.704   3.036   4.439  0.3812 -0.4387  2.7282
  579MOL0     H76385   9.591   3.009   4.311 -0.1343 -1.4062  0.2426
  579MOL0     H76386   9.588   2.845   4.573 -2.4051 -2.3170 -0.1052
  579MOL0     H76387   9.485   2.822   4.439 -0.1391  1.7553 -0.5245
  579MOL0     H76388   9.671   2.666   4.466 -1.0067  2.1215  3.8370
  579MOL0     H76389   9.790   2.795   4.467  0.0566  1.5429 -0.7941
  579MOL0     H76390   9.881   2.917   4.359 -1.7405  3.9720 -0.1046
  579MOL0     H76391  10.069   2.993   4.217 -2.0917  1.7276  0.9308
  579MOL0     H76392  10.299   3.295   4.060  1.8923  0.0880  0.6785
  579MOL0     H76393  10.461   3.421   3.919 -1.2090  1.3370 -0.1657
  579MOL0     H76394  10.614   3.473   3.802  0.0791 -0.6845 -0.8191
  579MOL0     H76395  10.493   3.519   3.687  0.4971 -0.2494 -0.2337
  579MOL0     H76396  10.757   3.406   3.566  1.6731 -0.4247  2.4715
  579MOL0     H76397  10.757   3.565   3.643  0.6365 -1.1232  0.0624
  579MOL0     H76398  10.570   3.640   3.485 -1.0299  0.7067 -2.0522
  579MOL0     H76399  10.565   3.476   3.431  0.1872 -0.2393  0.8356
  579MOL0     H76400  10.812   3.672   3.411  0.2484 -0.1096  1.1744
  579MOL0     H76401  10.807   3.504   3.354  0.3932  0.4324  2.0004
  579MOL0     H76402  10.647   3.541   3.179 -0.1667  0.2520 -0.2542
  579MOL0     H76403  10.780   3.650   3.160 -0.9512 -0.8661 -1.5584
  579MOL0     H76404  10.501   3.704   3.271 -2.3793  3.2390 -0.9307
  579MOL0     H76405  10.560   3.749   3.111 -0.2473 -0.5492 -0.1505
  579MOL0     H76406  10.667   3.866   3.379  2.3271 -2.5053 -1.5874
  579MOL0     H76407  10.722   3.902   3.215  0.8826  1.0254  1.5373
  579MOL0     H76408  10.532   3.999   3.143 -0.1669 -0.1122 -0.6192
  579MOL0     H76409  10.575   4.083   3.282 -3.1953 -0.1851  3.9115
  579MOL0     H76410  10.453   3.099   3.642  1.8169  1.7311  0.2060
  579MOL0     H76411  10.284   2.974   3.780 -0.2050 -1.8150  3.8845
  579MOL0     H76412   9.840   2.879   3.870  4.0179  0.2012 -1.2399
  579MOL0     H76413   9.710   2.740   4.006 -0.2351  0.1227  0.3191
  579MOL0     H76414   8.877   2.099   4.791  4.9398  1.6971  0.9817
  579MOL0     H76415   8.799   1.918   4.931  1.1072 -1.6015  0.4392
  579MOL0     H76416   8.723   1.650   5.275  3.3928 -0.2045 -1.5201
  579MOL0     H76417   8.544   1.474   5.353  1.9329  0.1917  0.3615
  579MOL0     H76418   8.338   1.240   5.071 -1.3483 -0.7066  0.8443
  579MOL0     H76419   8.307   1.159   5.207 -0.1780 -0.4981 -0.9109
  579MOL0     H76420   8.583   1.106   5.088  0.4332  3.8284  2.6123
  579MOL0     H76421   8.502   1.036   5.228 -0.3425  2.4211  1.4394
  579MOL0     H76422   8.413   1.031   4.941 -2.1186  1.5519  0.4968
  579MOL0     H76423   8.307   0.968   5.068  0.2086  1.3262  0.8432
  579MOL0     H76424   8.433   0.798   4.935  1.0395 -0.6247 -0.2369
  579MOL0     H76425   8.587   0.878   5.007  0.5464 -3.3271  0.0435
  579MOL0     H76426   8.458   0.653   5.323  2.7221  3.1556  2.4320
  579MOL0     H76427   8.489   1.356   4.957  1.0555 -1.1485  0.3684
  579MOL0     H76428   8.656   1.503   4.879  0.7371  0.6345  0.3433
  580MOL0     O76429   3.636   4.009   0.078 -0.2937 -0.1030 -0.1060
  580MOL0     C76430   3.578   4.093   0.015 -0.1054  0.0906  0.9762
  580MOL0     O76431   3.588   4.108  -0.120  0.5986  0.3096  0.6148
  580MOL0     C76432   3.621   4.004  -0.203 -0.7036 -1.2322  0.1829
  580MOL0     C76433   3.562   3.878  -0.188  0.3804  0.0486  0.3255
  580MOL0     C76434   3.580   3.784  -0.290  0.5828  0.7770 -0.2393
  580MOL0     C76435   3.650   3.815  -0.405  0.2140 -0.1542 -0.0659
  580MOL0     O76436   3.667   3.730  -0.505 -0.3456 -0.3263  0.0003
  580MOL0     C76437   3.639   3.588  -0.500 -0.3679 -0.1396  0.7360
  580MOL0     C76438   3.658   3.523  -0.640  0.3353  0.7294 -0.4067
  580MOL0     C76439   3.805   3.527  -0.686  1.0927 -0.2306 -0.3338
  580MOL0     C76440   3.902   3.435  -0.605 -0.0372 -0.2673  0.1600
  580MOL0     C76441   4.028   3.505  -0.563  0.5900  0.1621  0.5837
  580MOL0     C76442   4.007   3.612  -0.463 -0.0134  0.2778 -0.0196
  580MOL0     C76443   4.152   3.646  -0.414  0.3600  0.8233 -0.5664
  580MOL0     C76444   4.227   3.730  -0.518 -0.1331 -0.6771  0.0652
  580MOL0     N76445   4.234   3.876  -0.497  0.0492 -0.5110 -0.0426
  580MOL0     C76446   4.330   3.940  -0.415 -1.0215 -0.2803  0.5031
  580MOL0     C76447   4.275   4.057  -0.392  1.0939  0.8256 -0.3182
  580MOL0     C76448   4.344   4.141  -0.285  0.4575 -0.6888 -0.2796
  580MOL0     C76449   4.483   4.180  -0.327 -0.0735 -0.7532  0.5919
  580MOL0     C76450   4.598   4.223  -0.238 -0.5703  0.0964 -0.5410
  580MOL0     C76451   4.608   4.137  -0.115 -0.4717 -0.2069 -0.2483
  580MOL0     O76452   4.659   3.998  -0.134 -0.9492 -0.1249 -0.1657
  580MOL0     C76453   4.720   3.937  -0.032  0.5786  0.3098 -0.0961
  580MOL0     C76454   4.724   3.985   0.097 -0.0148 -0.2054  0.1438
  580MOL0     C76455   4.794   3.911   0.188 -0.8320  0.7187 -0.2007
  580MOL0     C76456   4.873   3.792   0.168 -1.3077  0.5153 -1.0915
  580MOL0     C76457   4.942   3.736   0.281 -0.4315  0.5480 -0.0531
  580MOL0     O76458   5.018   3.624   0.249 -0.0087 -0.2315  0.0987
  580MOL0     C76459   5.110   3.574   0.334 -1.0395  0.2241  1.1077
  580MOL0     C76460   5.108   3.550   0.471  0.3914  0.3714 -0.2474
  580MOL0     C76461   5.218   3.477   0.536  1.1837  0.0507  0.1546
  580MOL0     C76462   5.329   3.443   0.468  0.9399 -0.2238  0.0558
  580MOL0     O76463   5.418   3.368   0.546 -0.1946 -0.4185  0.0451
  580MOL0     C76464   5.555   3.376   0.520 -0.9577 -0.1088  0.2530
  580MOL0     C76465   5.619   3.273   0.609 -0.1946  0.3063  0.2772
  580MOL0     C76466   5.782   3.286   0.620  1.1594  0.3357  0.3488
  580MOL0     C76467   5.826   3.192   0.727  0.2075  0.5296 -0.2380
  580MOL0     C76468   5.839   3.047   0.679  0.5942 -0.3506  0.6762
  580MOL0     C76469   5.921   2.957   0.766  0.4753 -0.0318 -0.8382
  580MOL0     C76470   6.066   2.986   0.755  0.5794  0.9439  0.3927
  580MOL0     C76471   6.148   2.882   0.825  1.3023  0.2610 -0.5846
  580MOL0    Cl76472   6.297   2.950   0.869 -0.4070  0.5262 -0.2031
  580MOL0     C76473   5.337   3.477   0.333 -0.5745  0.2628 -0.9522
  580MOL0     C76474   5.225   3.539   0.271 -0.5681  0.0709  0.7670
  580MOL0     O76475   4.928   3.789   0.393 -0.5126 -0.1665 -0.5696
  580MOL0     C76476   4.855   3.743   0.044 -0.6281 -0.1648  1.2821
  580MOL0     C76477   4.778   3.815  -0.059 -0.9343  0.2044  0.1372
  580MOL0     N76478   4.151   4.073  -0.449  0.3501  0.5619  0.5357
  580MOL0     N76479   4.131   3.962  -0.525  0.8118 -0.4937 -0.4088
  580MOL0     C76480   3.706   3.936  -0.422  0.1674 -0.7215  0.4855
  580MOL0     C76481   3.699   4.032  -0.314 -0.5255 -0.2105  0.4510
  580MOL0     C76482   3.497   4.201   0.083  0.3101  0.0885  0.5479
  580MOL0     C76483   3.463   4.183   0.221 -0.2836  0.4550  0.3290
  580MOL0     C76484   3.394   4.280   0.294  0.9323 -0.4230  1.0774
  580MOL0     C76485   3.349   4.399   0.232  0.0055  0.5723 -0.2869
  580MOL0     O76486   3.291   4.505   0.298  0.7939  0.0538 -0.8675
  580MOL0     C76487   3.156   4.525   0.255  0.3672  0.6375 -0.1060
  580MOL0     C76488   3.067   4.569   0.365  0.1214 -1.3110  0.4071
  580MOL0     C76489   3.007   4.445   0.437  0.2790 -0.6366  0.1842
  580MOL0     C76490   2.899   4.496   0.544  0.3835 -0.5253  0.2660
  580MOL0     C76491   2.762   4.512   0.480  0.0563  0.6278 -0.2096
  580MOL0     C76492   2.672   4.540   0.404 -0.0659 -0.4867  0.3359
  580MOL0     C76493   3.369   4.403   0.092 -0.3498 -1.2229  0.3947
  580MOL0     C76494   3.453   4.311   0.026 -0.3919  0.2023  0.2154
  580MOL0     H76495   3.488   3.865  -0.110  0.8660  0.5397  0.8791
  580MOL0     H76496   3.529   3.688  -0.284  0.1775  0.9668 -0.5801
  580MOL0     H76497   3.539   3.558  -0.466  0.3318 -3.8386 -0.0239
  580MOL0     H76498   3.712   3.534  -0.440  1.4785  0.4590 -0.8625
  580MOL0     H76499   3.583   3.567  -0.707 -0.7787  0.7049  0.7916
  580MOL0     H76500   3.635   3.418  -0.624 -0.9042  0.8976 -1.0119
  580MOL0     H76501   3.825   3.635  -0.689  0.1097 -0.0434 -0.2438
  580MOL0     H76502   3.816   3.491  -0.789  1.6720 -1.2864  0.0785
  580MOL0     H76503   3.856   3.405  -0.510  1.5978  0.4411  1.2408
  580MOL0     H76504   3.938   3.352  -0.667  1.9946  1.5539 -1.2567
  580MOL0     H76505   4.077   3.546  -0.651 -2.4735  0.3814 -1.1534
  580MOL0     H76506   4.088   3.423  -0.520  1.0129 -0.8921 -1.8316
  580MOL0     H76507   3.954   3.567  -0.378  2.5365 -3.7803 -0.2675
  580MOL0     H76508   3.948   3.698  -0.492 -1.6193 -0.6376  0.4118
  580MOL0     H76509   4.150   3.708  -0.324 -2.0894 -1.5227  1.1278
  580MOL0     H76510   4.198   3.550  -0.392 -2.5429 -0.1570  1.9307
  580MOL0     H76511   4.170   3.722  -0.611 -0.5488 -0.9534  0.3384
  580MOL0     H76512   4.328   3.691  -0.529 -0.7709 -2.4617  0.2219
  580MOL0     H76513   4.418   3.890  -0.377  0.9276  3.3394  1.2400
  580MOL0     H76514   4.350   4.082  -0.192  0.3354 -0.5537 -0.1843
  580MOL0     H76515   4.291   4.230  -0.249  1.5886 -0.5621  1.2011
  580MOL0     H76516   4.479   4.269  -0.390  1.4675 -0.3314  1.0399
  580MOL0     H76517   4.519   4.099  -0.391  1.9509 -0.0966  0.8215
  580MOL0     H76518   4.696   4.219  -0.287  1.4061  0.9183  3.0511
  580MOL0     H76519   4.583   4.329  -0.215 -1.4543  0.4856 -2.6512
  580MOL0     H76520   4.517   4.118  -0.058  1.3070 -4.2081  1.6387
  580MOL0     H76521   4.666   4.195  -0.044  2.3847 -2.3970 -0.6029
  580MOL0     H76522   4.669   4.076   0.121 -1.7279 -1.2152  0.1840
  580MOL0     H76523   4.779   3.943   0.290  0.8018  2.7690 -0.5295
  580MOL0     H76524   5.019   3.564   0.531  0.4677  2.4585 -0.5231
  580MOL0     H76525   5.210   3.457   0.642 -0.5346  1.0629  0.2602
  580MOL0     H76526   5.583   3.476   0.553  0.6290 -0.9430  1.6479
  580MOL0     H76527   5.578   3.357   0.415  1.5421 -0.2298  0.7667
  580MOL0     H76528   5.586   3.174   0.575 -0.3175  0.7094 -0.7988
  580MOL0     H76529   5.569   3.277   0.706 -2.0788 -1.8362 -0.5179
  580MOL0     H76530   5.816   3.388   0.640  0.5732  1.4189 -3.4517
  580MOL0     H76531   5.824   3.262   0.522  0.3210 -1.4848  0.4016
  580MOL0     H76532   5.927   3.215   0.763  0.5848  1.1311 -1.6049
  580MOL0     H76533   5.754   3.196   0.809 -2.4904 -1.0205 -2.3679
  580MOL0     H76534   5.868   3.042   0.574 -2.0396 -1.6773 -0.0847
  580MOL0     H76535   5.736   3.009   0.690  0.2617  0.9995  3.0113
  580MOL0     H76536   5.907   2.854   0.733  2.2841 -0.7624  0.5166
  580MOL0     H76537   5.899   2.960   0.873 -1.0028  0.9765 -1.1309
  580MOL0     H76538   6.101   2.977   0.652  4.9549 -1.2177  1.8527
  580MOL0     H76539   6.083   3.084   0.801 -1.6396  0.1564  3.1937
  580MOL0     H76540   6.159   2.791   0.765 -0.0826  0.8019 -1.6976
  580MOL0     H76541   6.092   2.858   0.916  0.8232  1.2655 -0.5987
  580MOL0     H76542   5.438   3.462   0.296 -0.4360 -2.5898  0.3030
  580MOL0     H76543   5.231   3.547   0.163  0.0732  2.0172  0.9213
  580MOL0     H76544   4.903   3.649   0.019 -4.9144 -1.9439 -1.4336
  580MOL0     H76545   4.759   3.772  -0.156 -0.9739  1.6095 -0.5105
  580MOL0     H76546   3.768   3.954  -0.509 -2.1605 -1.1793 -1.3595
  580MOL0     H76547   3.747   4.129  -0.313 -0.2385 -0.3496  1.6666
  580MOL0     H76548   3.506   4.100   0.276  0.5221  0.0484 -0.8656
  580MOL0     H76549   3.373   4.279   0.400 -2.7302 -2.6240  0.5021
  580MOL0     H76550   3.119   4.439   0.199  0.7589  0.8069 -0.6328
  580MOL0     H76551   3.165   4.600   0.176  1.0157  3.0012  2.0894
  580MOL0     H76552   3.118   4.636   0.435 -1.5104 -0.7852  1.1397
  580MOL0     H76553   2.979   4.614   0.319 -1.8231 -1.3686  3.7723
  580MOL0     H76554   3.087   4.390   0.487 -0.1222  0.7243  2.4595
  580MOL0     H76555   2.952   4.377   0.372 -0.6779 -2.1506  2.4389
  580MOL0     H76556   2.902   4.428   0.630  1.9264  2.6104  2.9425
  580MOL0     H76557   2.939   4.587   0.591 -0.1715 -0.9826  1.6883
  580MOL0     H76558   2.583   4.567   0.351 -1.9523 -1.7082  2.6613
  580MOL0     H76559   3.338   4.491   0.036  2.0095 -1.0187 -0.7186
  580MOL0     H76560   3.478   4.319  -0.080  1.5968  1.7305  0.7464
  581MOL0     O76561   9.590   6.106   9.139  0.4725 -0.5305  0.6554
  581MOL0     C76562   9.564   6.099   9.261 -0.8295 -0.7347  0.3247
  581MOL0     O76563   9.600   6.196   9.349  0.1412 -0.7363  0.0322
  581MOL0     C76564   9.643   6.321   9.307  1.7612  0.0620 -0.0092
  581MOL0     C76565   9.733   6.393   9.378 -0.1194 -0.0972 -0.6985
  581MOL0     C76566   9.753   6.533   9.353 -0.1786 -0.5888 -0.7240
  581MOL0     C76567   9.692   6.595   9.233  0.4297  0.5282 -0.2935
  581MOL0     O76568   9.705   6.720   9.190 -0.4080 -0.0773  0.0798
  581MOL0     C76569   9.773   6.814   9.265  0.2302 -0.0998  1.0369
  581MOL0     C76570   9.889   6.857   9.182 -0.2612 -0.0391  0.4634
  581MOL0     C76571   9.995   6.941   9.260  0.3052 -0.6207  0.4244
  581MOL0     C76572   9.937   7.065   9.338  0.4394  0.2884 -0.5543
  581MOL0     C76573  10.027   7.115   9.456 -0.1763  1.5050  0.6341
  581MOL0     C76574   9.980   7.239   9.519 -0.1385  0.4143 -0.2071
  581MOL0     C76575   9.863   7.224   9.618 -0.9209 -0.7022 -0.1286
  581MOL0     C76576   9.806   7.349   9.681 -0.5856  0.1765  1.0959
  581MOL0     N76577   9.893   7.435   9.770  0.3821 -0.2574  0.9499
  581MOL0     C76578   9.997   7.515   9.741 -0.6632 -1.0383 -0.4236
  581MOL0     C76579  10.033   7.570   9.859 -1.0141 -0.2190 -0.1470
  581MOL0     C76580  10.154   7.665   9.876 -0.0333 -1.0393  0.7412
  581MOL0     C76581  10.294   7.610   9.843 -0.4276  1.0568  0.1728
  581MOL0     C76582  10.339   7.486   9.938  0.3305 -0.5559 -1.0421
  581MOL0     C76583  10.481   7.444   9.915  0.5241  0.1390  0.5657
  581MOL0     O76584  10.492   7.308   9.966  0.7026 -0.1131 -0.2305
  581MOL0     C76585  10.464   7.197   9.889  0.4076  0.0785  0.4472
  581MOL0     C76586  10.473   7.072   9.954  0.3674  0.0516 -0.8979
  581MOL0     C76587  10.445   6.952   9.886  0.1017 -0.1337 -0.0568
  581MOL0     C76588  10.406   6.958   9.749  0.1192 -0.3042 -0.1790
  581MOL0     C76589  10.366   6.851   9.675  0.1210  0.4216 -0.2806
  581MOL0     O76590  10.289   6.872   9.566 -0.0280  0.6135  0.0146
  581MOL0     C76591  10.256   6.759   9.499 -0.4759  0.3952 -0.0616
  581MOL0     C76592  10.163   6.677   9.559 -0.2560  0.0338 -0.2787
  581MOL0     C76593  10.122   6.549   9.512 -0.5058 -0.1020  0.3180
  581MOL0     C76594  10.175   6.491   9.397 -0.0633  0.1165  0.1817
  581MOL0     O76595  10.121   6.372   9.368  0.7551  0.5070  0.4505
  581MOL0     C76596  10.154   6.302   9.244 -0.6430  0.6176 -0.2470
  581MOL0     C76597  10.075   6.355   9.117 -0.0600  0.1574 -0.4360
  581MOL0     C76598  10.052   6.498   9.080  0.0094  0.8045  0.3393
  581MOL0     C76599  10.012   6.523   8.932 -0.5380 -0.3706  0.6297
  581MOL0     C76600   9.876   6.482   8.892  0.7471  1.0310  0.7449
  581MOL0     C76601   9.850   6.502   8.736 -0.7399 -0.2370  0.1434
  581MOL0     C76602   9.709   6.452   8.708 -0.2328  0.9034  0.4244
  581MOL0     C76603   9.680   6.519   8.563  0.7794  1.0680 -0.3954
  581MOL0    Cl76604   9.798   6.450   8.441 -0.0703  0.2934 -0.2838
  581MOL0     C76605  10.265   6.574   9.326 -0.3861  0.2152  0.3163
  581MOL0     C76606  10.297   6.710   9.372 -0.2437  0.0494  0.1351
  581MOL0     O76607  10.391   6.741   9.731 -1.1501  0.3896 -0.0553
  581MOL0     C76608  10.388   7.081   9.694  0.1350  0.5695 -0.9252
  581MOL0     C76609  10.429   7.196   9.755 -0.1496  0.4708 -0.4388
  581MOL0     N76610   9.942   7.526   9.958 -0.4255 -0.0301  0.2910
  581MOL0     N76611   9.873   7.433   9.905  0.4311 -0.2609 -0.1870
  581MOL0     C76612   9.601   6.521   9.163  0.0603  0.2273  0.4666
  581MOL0     C76613   9.573   6.391   9.207  0.1906  1.2407 -0.3804
  581MOL0     C76614   9.487   5.981   9.315  0.4462  0.3192 -0.2264
  581MOL0     C76615   9.447   5.964   9.449 -0.2685  0.7833  0.7308
  581MOL0     C76616   9.374   5.854   9.491  0.5663  0.6171  0.3099
  581MOL0     C76617   9.334   5.757   9.398 -0.2788  0.7437  0.5036
  581MOL0     O76618   9.260   5.654   9.455 -0.0394  0.2022 -1.0190
  581MOL0     C76619   9.215   5.559   9.366  0.2876  0.2368 -0.0991
  581MOL0     C76620   9.130   5.463   9.436 -0.0300 -0.3669 -0.6534
  581MOL0     C76621   9.077   5.349   9.348  0.4079 -0.3891 -0.0427
  581MOL0     C76622   9.025   5.234   9.442 -0.5873  0.3460 -0.0787
  581MOL0     C76623   8.940   5.276   9.551 -0.9447 -1.0551  0.7225
  581MOL0     C76624   8.874   5.323   9.640  0.4153  0.6607 -0.2416
  581MOL0     C76625   9.372   5.774   9.264 -0.3462  0.2647  0.3361
  581MOL0     C76626   9.452   5.882   9.223 -0.1376  0.1002 -0.3436
  581MOL0     H76627   9.797   6.333   9.443 -0.1282  0.2009 -0.4121
  581MOL0     H76628   9.828   6.584   9.413 -3.2582  2.6344  0.7561
  581MOL0     H76629   9.794   6.787   9.369 -1.5414 -0.8628  1.2461
  581MOL0     H76630   9.710   6.904   9.271  3.6597  2.7086 -1.2790
  581MOL0     H76631   9.838   6.908   9.100 -1.0175  2.4249  2.3293
  581MOL0     H76632   9.934   6.768   9.137  2.8587  1.5915  0.1032
  581MOL0     H76633  10.081   6.964   9.196  0.0250  0.8507  0.5362
  581MOL0     H76634  10.043   6.882   9.339  2.7067  0.4211 -0.1531
  581MOL0     H76635   9.918   7.141   9.262 -0.4291 -1.2188 -1.9116
  581MOL0     H76636   9.840   7.040   9.383  0.0952  2.0100 -0.2641
  581MOL0     H76637  10.124   7.133   9.409  0.3651  0.2978  1.2522
  581MOL0     H76638  10.041   7.043   9.536 -2.1460  0.4313  0.0961
  581MOL0     H76639   9.951   7.312   9.443 -3.4702  1.0268  1.4412
  581MOL0     H76640  10.065   7.279   9.575  0.2157 -1.4693  0.6746
  581MOL0     H76641   9.788   7.157   9.574 -1.5427 -0.1927  0.1368
  581MOL0     H76642   9.903   7.169   9.704  0.9299 -2.0238 -1.7308
  581MOL0     H76643   9.717   7.310   9.732 -0.5219 -1.3024  0.1276
  581MOL0     H76644   9.787   7.418   9.598 -0.3733  0.5269  1.3371
  581MOL0     H76645  10.060   7.524   9.653 -0.0323 -4.4342 -0.4804
  581MOL0     H76646  10.167   7.708   9.976 -0.0013  2.5544 -0.6609
  581MOL0     H76647  10.131   7.755   9.819  3.2891  0.1813  1.0951
  581MOL0     H76648  10.377   7.683   9.841 -0.1717  0.7567 -2.0240
  581MOL0     H76649  10.280   7.571   9.742 -0.7500  3.0624 -0.6074
  581MOL0     H76650  10.358   7.520  10.041  4.2219  1.5865 -2.2647
  581MOL0     H76651  10.268   7.403   9.935 -0.5592  0.0957  0.4737
  581MOL0     H76652  10.552   7.503   9.974  0.1663  1.8624 -0.6368
  581MOL0     H76653  10.515   7.445   9.811 -1.0614 -1.9813 -0.0491
  581MOL0     H76654  10.491   7.081  10.060  2.8380 -0.4995 -1.2035
  581MOL0     H76655  10.449   6.857   9.938 -1.4108  0.3849  1.0695
  581MOL0     H76656  10.126   6.722   9.651  1.9934  1.5112 -0.0060
  581MOL0     H76657  10.055   6.492   9.576 -0.7494 -0.5304 -0.3142
  581MOL0     H76658  10.131   6.198   9.266 -2.6738  0.6900 -1.7244
  581MOL0     H76659  10.261   6.311   9.222 -0.8170 -1.6553 -2.6037
  581MOL0     H76660   9.977   6.313   9.142 -0.0737  1.5765  2.3061
  581MOL0     H76661  10.118   6.301   9.032  1.7308 -1.4598  1.4065
  581MOL0     H76662  10.136   6.564   9.102  0.8688 -0.1523 -0.0040
  581MOL0     H76663   9.976   6.534   9.150 -0.9500 -0.7179  0.1326
  581MOL0     H76664  10.012   6.631   8.918 -4.3479 -0.2888  0.4163
  581MOL0     H76665  10.090   6.479   8.870 -0.8558 -2.9108  1.9073
  581MOL0     H76666   9.803   6.525   8.960 -3.1831 -2.9797 -0.4661
  581MOL0     H76667   9.862   6.377   8.919 -2.9560  1.1872 -0.0125
  581MOL0     H76668   9.933   6.453   8.684 -1.0287 -0.4433 -0.1296
  581MOL0     H76669   9.866   6.609   8.717  5.3489 -0.6991  0.7509
  581MOL0     H76670   9.697   6.344   8.697 -1.7102  1.0915 -0.1320
  581MOL0     H76671   9.647   6.496   8.787  1.8030  1.1506  1.9752
  581MOL0     H76672   9.670   6.628   8.558 -0.6301  1.2342  2.9731
  581MOL0     H76673   9.583   6.473   8.540  1.1479 -2.0053  3.1857
  581MOL0     H76674  10.312   6.542   9.234 -0.5997  0.6440  0.0527
  581MOL0     H76675  10.381   6.766   9.332  1.5537 -0.2965  3.1447
  581MOL0     H76676  10.354   7.084   9.591  1.5661 -1.7080 -1.5353
  581MOL0     H76677  10.407   7.292   9.710  3.4266  1.1691 -1.0185
  581MOL0     H76678   9.536   6.566   9.089 -1.2136 -1.4840  0.4740
  581MOL0     H76679   9.483   6.342   9.171  0.6551 -1.2320  1.5379
  581MOL0     H76680   9.489   6.023   9.529  1.2757  0.1078  0.4482
  581MOL0     H76681   9.364   5.854   9.599 -0.6249 -0.1718  0.2183
  581MOL0     H76682   9.290   5.500   9.313  1.8625  1.3590  0.7826
  581MOL0     H76683   9.163   5.606   9.282 -1.8344 -0.8192  0.5450
  581MOL0     H76684   9.191   5.420   9.516 -0.8872 -1.2275 -0.4479
  581MOL0     H76685   9.053   5.519   9.491  0.3609  0.8763 -1.3187
  581MOL0     H76686   9.146   5.298   9.281  0.9738  0.3550 -0.0445
  581MOL0     H76687   8.986   5.383   9.299  0.0168 -0.3793  0.6792
  581MOL0     H76688   8.967   5.163   9.382 -1.4615  1.1717 -0.2451
  581MOL0     H76689   9.111   5.187   9.490  1.7257  3.4756 -0.7731
  581MOL0     H76690   8.807   5.366   9.712 -1.3271 -3.6250  1.0211
  581MOL0     H76691   9.342   5.694   9.197 -4.0290  2.1827 -0.6013
  581MOL0     H76692   9.482   5.879   9.119 -0.5843 -0.1147 -0.4706
  582MOL0     O76693   9.728   4.092   9.694 -0.9528 -0.7203 -0.2181
  582MOL0     C76694   9.823   4.146   9.627  0.8125  1.1958  0.1612
  582MOL0     O76695   9.920   4.225   9.680  0.6934  0.5773  0.1086
  582MOL0     C76696   9.918   4.278   9.810  0.2513 -0.3402  0.0666
  582MOL0     C76697   9.937   4.415   9.837 -0.6590 -0.2426 -0.1674
  582MOL0     C76698   9.951   4.460   9.969 -0.5171  0.2328 -0.0631
  582MOL0     C76699   9.930   4.378  10.079 -0.6173  0.3550 -0.2632
  582MOL0     O76700   9.930   4.428  10.205  0.3347 -0.5550  0.5884
  582MOL0     C76701  10.029   4.520  10.235  0.2980 -0.5979  0.5306
  582MOL0     C76702  10.036   4.552  10.389  0.8044  0.0206  0.7271
  582MOL0     C76703   9.915   4.643  10.433  0.3158 -1.2987 -0.0904
  582MOL0     C76704   9.850   4.582  10.550  0.2330 -0.5951 -0.6070
  582MOL0     C76705   9.745   4.672  10.628 -0.8486  0.7734 -0.9533
  582MOL0     C76706   9.628   4.601  10.689 -0.1564  0.9259 -0.4963
  582MOL0     C76707   9.576   4.685  10.811  0.4192 -0.1478  0.1881
  582MOL0     C76708   9.500   4.814  10.754 -0.6528  1.0644 -0.6896
  582MOL0     N76709   9.488   4.902  10.867 -0.9042  0.0384 -0.0076
  582MOL0     C76710   9.411   4.878  10.984  0.4030  0.2903  0.9069
  582MOL0     C76711   9.452   4.971  11.070  0.0256 -0.5860  0.2657
  582MOL0     C76712   9.396   4.984  11.214  0.1701 -0.0017  0.1717
  582MOL0     C76713   9.378   5.128  11.249 -0.8814  0.1393 -0.7133
  582MOL0     C76714   9.237   5.187  11.217  0.8369 -0.0654 -0.2573
  582MOL0     C76715   9.232   5.321  11.282 -0.3149 -0.3186 -0.0171
  582MOL0     O76716   9.092   5.358  11.310  0.1284 -0.0800  0.2798
  582MOL0     C76717   9.025   5.437  11.224  0.1831 -0.0717 -0.3742
  582MOL0     C76718   9.041   5.422  11.085 -0.0344 -0.6743 -1.1287
  582MOL0     C76719   8.955   5.500  11.002 -0.1029  0.5170  0.4706
  582MOL0     C76720   8.869   5.593  11.049  0.0997 -0.7285  0.1334
  582MOL0     C76721   8.783   5.682  10.960  1.4995  0.8276 -0.4176
  582MOL0     O76722   8.683   5.757  11.015 -0.5746  0.9444  0.2304
  582MOL0     C76723   8.609   5.837  10.934 -0.3328  0.0825 -1.6012
  582MOL0     C76724   8.469   5.839  10.960 -0.3846  0.0059 -0.4524
  582MOL0     C76725   8.381   5.914  10.879  0.4160  0.7021 -0.2157
  582MOL0     C76726   8.441   5.996  10.773  0.8037 -0.3878 -0.3524
  582MOL0     O76727   8.354   6.084  10.713 -0.2523 -0.4925  0.1138
  582MOL0     C76728   8.368   6.115  10.578 -0.8413  1.0343  0.0462
  582MOL0     C76729   8.272   6.227  10.551 -0.0853  0.1919  0.2640
  582MOL0     C76730   8.248   6.282  10.400 -0.4654 -0.2159 -0.7188
  582MOL0     C76731   8.336   6.400  10.356  0.0328  0.9476  0.6391
  582MOL0     C76732   8.342   6.412  10.210 -0.1862  0.8881  0.7907
  582MOL0     C76733   8.452   6.502  10.152 -0.3768  0.6345 -0.1237
  582MOL0     C76734   8.459   6.498  10.003 -0.2470 -0.2501 -0.8220
  582MOL0     C76735   8.596   6.545   9.950  0.0426  0.1635  0.7281
  582MOL0    Cl76736   8.571   6.597   9.782  0.1646 -0.4834  0.2228
  582MOL0     C76737   8.574   5.988  10.747  0.1578 -0.2783 -0.0500
  582MOL0     C76738   8.654   5.913  10.830  0.0357  1.1352  0.0414
  582MOL0     O76739   8.795   5.662  10.842 -0.8769  0.2927  0.7395
  582MOL0     C76740   8.848   5.602  11.185  0.4134  0.1699 -0.0511
  582MOL0     C76741   8.926   5.523  11.270  0.0628  0.6790 -0.7406
  582MOL0     N76742   9.544   5.055  11.009 -0.4482  0.3105 -1.0577
  582MOL0     N76743   9.566   5.014  10.887 -0.5106 -0.2762 -0.3609
  582MOL0     C76744   9.898   4.236  10.056  0.1481 -0.2004  0.3622
  582MOL0     C76745   9.889   4.193   9.923 -0.1642  0.2976 -0.0308
  582MOL0     C76746   9.858   4.085   9.496  0.1589  0.5501  0.5256
  582MOL0     C76747   9.822   3.956   9.470  0.1911 -0.6022  0.9014
  582MOL0     C76748   9.851   3.898   9.342 -0.4315 -0.5241 -0.3600
  582MOL0     C76749   9.933   3.960   9.242  1.1166  0.0793 -0.2157
  582MOL0     O76750   9.947   3.892   9.121  0.4149  0.3576 -0.0667
  582MOL0     C76751  10.061   3.893   9.040 -0.1129 -0.7016 -0.2033
  582MOL0     C76752  10.176   3.821   9.097  0.5191 -0.2511 -0.7669
  582MOL0     C76753  10.154   3.678   9.155  0.3233 -0.6875  0.8391
  582MOL0     C76754  10.165   3.578   9.035  0.0315  0.5896 -0.4220
  582MOL0     C76755  10.134   3.439   9.078  0.1978 -0.4040  0.0466
  582MOL0     C76756  10.109   3.332   9.108  1.1864  0.1447  0.5031
  582MOL0     C76757   9.976   4.089   9.274 -0.1862 -0.0311  0.3377
  582MOL0     C76758   9.936   4.150   9.392 -0.5868 -0.6063 -0.6214
  582MOL0     H76759   9.948   4.492   9.761 -1.7587  0.3216  0.2151
  582MOL0     H76760   9.978   4.563   9.989 -3.7145  1.2691 -0.4986
  582MOL0     H76761  10.019   4.618  10.187 -1.1191  0.2181  2.3557
  582MOL0     H76762  10.121   4.473  10.200  3.0902  3.3877  1.8099
  582MOL0     H76763  10.128   4.609  10.405  1.4444 -0.4536 -1.0868
  582MOL0     H76764  10.040   4.457  10.444  0.3295 -0.3540  0.1217
  582MOL0     H76765   9.838   4.649  10.356 -0.4966  0.5851  0.8223
  582MOL0     H76766   9.950   4.741  10.464 -2.7189  0.4454 -1.6671
  582MOL0     H76767   9.803   4.484  10.538  1.1784 -0.8698 -2.3169
  582MOL0     H76768   9.934   4.572  10.619 -0.4628  1.9034  0.7341
  582MOL0     H76769   9.698   4.736  10.552 -1.6300 -0.2013 -1.3190
  582MOL0     H76770   9.791   4.728  10.710 -3.9842  0.0510  1.5183
  582MOL0     H76771   9.663   4.503  10.720  0.7105  0.9007 -1.5001
  582MOL0     H76772   9.545   4.586  10.620 -1.2813  1.3798  0.7107
  582MOL0     H76773   9.503   4.626  10.868 -0.2945 -1.3542 -1.8785
  582MOL0     H76774   9.649   4.705  10.891  0.2807 -4.2035  1.5594
  582MOL0     H76775   9.403   4.787  10.712 -0.9241  2.0848 -0.7323
  582MOL0     H76776   9.551   4.870  10.675 -1.3453  2.2290 -0.3386
  582MOL0     H76777   9.340   4.803  11.015 -1.2839  2.0539  1.5316
  582MOL0     H76778   9.464   4.934  11.283  1.9835 -2.0439 -2.8618
  582MOL0     H76779   9.293   4.948  11.217  0.0478  0.3937  1.6812
  582MOL0     H76780   9.453   5.202  11.218 -1.8033  1.1967 -0.5073
  582MOL0     H76781   9.388   5.129  11.358 -3.0684  1.3280 -0.4665
  582MOL0     H76782   9.229   5.189  11.108 -0.1181  0.9531 -0.1828
  582MOL0     H76783   9.158   5.125  11.262  1.3826 -0.7294 -0.1954
  582MOL0     H76784   9.290   5.391  11.220 -0.1550 -1.5850 -1.3556
  582MOL0     H76785   9.272   5.320  11.383 -4.0671 -2.6454  1.6826
  582MOL0     H76786   9.117   5.352  11.052 -1.9253 -2.0417 -2.8316
  582MOL0     H76787   8.964   5.491  10.895  0.6680  1.4783  0.4443
  582MOL0     H76788   8.427   5.777  11.038 -0.6431  2.1194  1.1694
  582MOL0     H76789   8.274   5.930  10.890  0.3869  2.4166 -2.3867
  582MOL0     H76790   8.350   6.033  10.509  4.4026 -0.1415 -0.2933
  582MOL0     H76791   8.468   6.157  10.563  0.6447 -1.2160  2.7166
  582MOL0     H76792   8.292   6.314  10.614 -2.8101  0.1499  1.3420
  582MOL0     H76793   8.174   6.188  10.581 -1.3858  1.3378 -2.2267
  582MOL0     H76794   8.144   6.312  10.385  0.4797  1.8675 -4.3810
  582MOL0     H76795   8.269   6.197  10.334  2.3608  0.0885 -0.3169
  582MOL0     H76796   8.287   6.490  10.393 -0.6989  2.0458 -2.6499
  582MOL0     H76797   8.436   6.381  10.396 -0.2628 -0.5602  0.7405
  582MOL0     H76798   8.246   6.446  10.169 -0.6119 -2.3885 -1.3165
  582MOL0     H76799   8.362   6.316  10.161  0.0395  0.8330  0.9924
  582MOL0     H76800   8.550   6.470  10.187  0.2304  0.0753 -2.2063
  582MOL0     H76801   8.439   6.608  10.179 -0.8679  0.0900  2.0001
  582MOL0     H76802   8.438   6.397   9.966 -1.6448 -1.3667  2.6130
  582MOL0     H76803   8.378   6.556   9.957 -1.1810 -1.9294 -1.3908
  582MOL0     H76804   8.667   6.462   9.942  0.2782  0.5200 -1.5116
  582MOL0     H76805   8.639   6.629  10.005  1.9949 -0.3798  0.1316
  582MOL0     H76806   8.621   6.033  10.660 -0.5271 -3.9710 -2.5301
  582MOL0     H76807   8.757   5.923  10.797 -0.2025  1.7543 -0.5193
  582MOL0     H76808   8.773   5.670  11.225 -0.5764 -0.9877  0.1077
  582MOL0     H76809   8.909   5.530  11.377  0.6717  1.4939 -0.6837
  582MOL0     H76810   9.890   4.166  10.138  0.1638  0.3847  0.8654
  582MOL0     H76811   9.870   4.089   9.899  2.4411  0.3673 -3.0614
  582MOL0     H76812   9.766   3.894   9.540 -3.1659  1.9860  0.7556
  582MOL0     H76813   9.813   3.797   9.328  0.9663 -1.3759  1.5113
  582MOL0     H76814  10.094   3.995   9.020 -2.4970 -0.2438 -2.4716
  582MOL0     H76815  10.037   3.830   8.953  0.9344  0.1410 -1.1416
  582MOL0     H76816  10.244   3.830   9.011 -0.0593 -3.5378 -1.7118
  582MOL0     H76817  10.205   3.881   9.184 -1.4057 -0.2865 -0.0586
  582MOL0     H76818  10.061   3.683   9.212 -0.6666 -0.3106 -0.7371
  582MOL0     H76819  10.237   3.660   9.224 -0.4765  0.7366  2.2352
  582MOL0     H76820  10.092   3.618   8.964  0.7610  1.3058 -0.7699
  582MOL0     H76821  10.264   3.588   8.992  0.4897  0.2276  0.5142
  582MOL0     H76822  10.079   3.238   9.147  3.6723 -1.2318 -0.6622
  582MOL0     H76823  10.044   4.148   9.214 -2.1189  1.8005 -0.1856
  582MOL0     H76824   9.970   4.253   9.394 -1.5684 -0.2805 -0.7034
  583MOL0     O76825   5.542   0.644  10.460  0.7205  0.7671 -0.0280
  583MOL0     C76826   5.528   0.631  10.586  0.5643  0.6621  0.7511
  583MOL0     O76827   5.622   0.667  10.684 -0.3280  0.8690  0.8143
  583MOL0     C76828   5.740   0.724  10.648 -0.1742 -0.6709  1.2700
  583MOL0     C76829   5.743   0.831  10.559 -1.4629 -0.4573  0.6277
  583MOL0     C76830   5.875   0.875  10.521  0.0541 -0.2935 -0.1363
  583MOL0     C76831   5.996   0.834  10.584  0.4346  0.6663  0.0640
  583MOL0     O76832   6.101   0.900  10.553  0.2551 -1.4702 -0.4579
  583MOL0     C76833   6.224   0.833  10.556 -0.5666  0.2458  0.4353
  583MOL0     C76834   6.336   0.910  10.486  0.4447 -0.0124  0.3800
  583MOL0     C76835   6.320   0.907  10.345 -0.6749  0.2474  0.4918
  583MOL0     C76836   6.437   0.962  10.265  0.3822 -0.8929  0.1975
  583MOL0     C76837   6.399   0.973  10.118  0.0224 -0.0078 -0.1083
  583MOL0     C76838   6.416   0.827  10.046  0.4510  0.5413 -0.3117
  583MOL0     C76839   6.282   0.757  10.013  0.0361  0.6967  0.4614
  583MOL0     C76840   6.306   0.616   9.948 -1.0603  0.1525 -0.2441
  583MOL0     N76841   6.179   0.551   9.930  0.2593  0.2860 -0.3137
  583MOL0     C76842   6.161   0.426   9.977  0.6651  0.4755  0.0830
  583MOL0     C76843   6.033   0.398   9.930 -0.7927 -0.7004 -0.2892
  583MOL0     C76844   5.968   0.261   9.929  0.0573  0.5711  0.5998
  583MOL0     C76845   5.981   0.197  10.069  0.3097  0.4352 -1.1317
  583MOL0     C76846   5.925   0.050  10.093  0.1601  0.3623  0.5698
  583MOL0     C76847   5.781   0.033  10.051 -0.5968  0.6652 -0.0641
  583MOL0     O76848   5.735  -0.093  10.105 -0.6891  0.5612  0.4995
  583MOL0     C76849   5.600  -0.113  10.106 -0.4211  0.6670  0.2839
  583MOL0     C76850   5.545  -0.208  10.194  0.3990  1.7495  0.2137
  583MOL0     C76851   5.404  -0.221  10.194 -0.6346  0.0306 -0.8598
  583MOL0     C76852   5.317  -0.145  10.110 -0.8011 -0.0716 -0.3594
  583MOL0     C76853   5.174  -0.168  10.101 -0.7951 -0.0474 -1.2621
  583MOL0     O76854   5.114  -0.108  10.000  0.5020 -0.1202 -0.9644
  583MOL0     C76855   4.986  -0.137   9.969 -0.2837  0.0927  0.0113
  583MOL0     C76856   4.946  -0.136   9.835 -0.3940  0.2171  0.1323
  583MOL0     C76857   4.816  -0.182   9.804 -0.7942 -0.3283  0.3689
  583MOL0     C76858   4.722  -0.209   9.905  0.7416 -0.5205  0.6831
  583MOL0     O76859   4.590  -0.222   9.873 -0.8205  0.1875 -0.0566
  583MOL0     C76860   4.528  -0.239   9.744  0.8571  0.4315 -0.0976
  583MOL0     C76861   4.376  -0.195   9.737  0.1855  0.7044  0.3840
  583MOL0     C76862   4.338  -0.200   9.589 -0.9421  1.3848  0.5728
  583MOL0     C76863   4.191  -0.174   9.569  0.3734  0.2790  0.3007
  583MOL0     C76864   4.164  -0.165   9.417  0.7556 -0.3452 -0.5907
  583MOL0     C76865   4.014  -0.186   9.378 -0.4780  1.2151 -0.9633
  583MOL0     C76866   3.949  -0.299   9.454 -0.2721  0.4232  0.1664
  583MOL0     C76867   3.808  -0.337   9.401  0.0134 -1.2473  0.1160
  583MOL0    Cl76868   3.684  -0.197   9.411 -0.3710 -0.5681  0.2693
  583MOL0     C76869   4.762  -0.195  10.040 -0.7475  0.1232  0.7598
  583MOL0     C76870   4.889  -0.165  10.074 -0.1602 -0.7281 -0.1137
  583MOL0     O76871   5.130  -0.258  10.178  0.3609  0.4466  0.0424
  583MOL0     C76872   5.377  -0.055  10.032 -0.3517 -0.3444 -1.4638
  583MOL0     C76873   5.516  -0.031  10.028 -0.3826  0.6476  0.1691
  583MOL0     N76874   5.984   0.505   9.849 -0.7313  1.5605  0.4871
  583MOL0     N76875   6.072   0.595   9.854  0.9455  0.6326 -0.6336
  583MOL0     C76876   5.986   0.736  10.682 -0.3204  0.3047 -0.3780
  583MOL0     C76877   5.859   0.683  10.715  0.0816 -0.4449  0.2519
  583MOL0     C76878   5.409   0.567  10.637 -0.1607 -0.5490 -0.5871
  583MOL0     C76879   5.313   0.520  10.553  0.9407  0.2798  0.1006
  583MOL0     C76880   5.197   0.460  10.597 -1.1178 -0.5540  0.7887
  583MOL0     C76881   5.193   0.437  10.744  0.4725  1.0382  1.1208
  583MOL0     O76882   5.101   0.359  10.810  0.4582  0.1265 -0.0335
  583MOL0     C76883   4.962   0.399  10.789 -0.2463  0.4378  0.1717
  583MOL0     C76884   4.917   0.542  10.827 -0.6670 -0.5139  0.0355
  583MOL0     C76885   4.952   0.569  10.978  0.3274  0.3939 -0.4077
  583MOL0     C76886   4.926   0.713  11.004 -1.3492 -0.5223 -0.5256
  583MOL0     C76887   4.781   0.734  11.024 -0.1493  0.6193 -1.3016
  583MOL0     C76888   4.666   0.745  11.056  0.2422  0.1385  0.5252
  583MOL0     C76889   5.278   0.489  10.831  0.0348  0.0602 -0.5227
  583MOL0     C76890   5.389   0.563  10.784 -0.1178  0.4751  1.4161
  583MOL0     H76891   5.656   0.881  10.518 -0.7802  0.5427  0.3517
  583MOL0     H76892   5.884   0.943  10.437  0.3442 -2.0574 -1.5769
  583MOL0     H76893   6.208   0.738  10.505  1.0015  1.6532 -3.0296
  583MOL0     H76894   6.244   0.806  10.660 -2.5307 -2.9746  0.1003
  583MOL0     H76895   6.428   0.859  10.515  0.5206  0.6778  1.4056
  583MOL0     H76896   6.340   1.018  10.508 -0.2719  0.2822 -0.8640
  583MOL0     H76897   6.231   0.969  10.332  0.2335  1.5063  0.0950
  583MOL0     H76898   6.308   0.810  10.294 -2.5100  0.4304  0.5086
  583MOL0     H76899   6.438   1.065  10.302 -2.0133 -0.8089  0.1611
  583MOL0     H76900   6.530   0.908  10.283  0.0664 -1.4623  0.1502
  583MOL0     H76901   6.472   1.040  10.073 -1.1852  1.1767 -0.3789
  583MOL0     H76902   6.297   1.009  10.098 -0.0795 -0.8844 -1.3293
  583MOL0     H76903   6.476   0.761  10.110 -2.6427  0.1593  2.4530
  583MOL0     H76904   6.486   0.840   9.963  0.8366  1.8222  0.1864
  583MOL0     H76905   6.217   0.750  10.101 -1.0972  2.1328 -0.2217
  583MOL0     H76906   6.223   0.809   9.938 -3.9224 -1.0411  2.1012
  583MOL0     H76907   6.373   0.562  10.017 -2.0102 -2.6256 -1.3556
  583MOL0     H76908   6.362   0.622   9.854  0.2636 -2.2678  0.3073
  583MOL0     H76909   6.232   0.360  10.024 -1.3883 -2.3085 -0.4511
  583MOL0     H76910   6.019   0.197   9.856 -0.4030 -1.5784  2.0692
  583MOL0     H76911   5.865   0.265   9.892  0.6874 -1.1004 -1.5776
  583MOL0     H76912   5.938   0.262  10.145 -0.8584 -0.8844 -0.6273
  583MOL0     H76913   6.089   0.189  10.087  0.1258 -0.0803 -0.1830
  583MOL0     H76914   5.996  -0.012  10.037 -2.0070  1.1796 -3.4412
  583MOL0     H76915   5.924   0.033  10.201 -2.0691  0.9007  0.6816
  583MOL0     H76916   5.770   0.039   9.942 -1.2771  4.0200  0.0804
  583MOL0     H76917   5.718   0.111  10.094 -0.0400  0.1717  1.7046
  583MOL0     H76918   5.609  -0.255  10.268  1.4132  1.8849 -0.5611
  583MOL0     H76919   5.351  -0.284  10.265  0.2479 -1.1124 -1.1805
  583MOL0     H76920   5.008  -0.096   9.755 -2.7750  0.2065 -1.8733
  583MOL0     H76921   4.785  -0.172   9.701  0.9387  1.8576 -0.0265
  583MOL0     H76922   4.532  -0.346   9.722 -2.4714  0.4288 -1.3140
  583MOL0     H76923   4.586  -0.186   9.668 -0.2561 -0.3822 -1.5711
  583MOL0     H76924   4.351  -0.102   9.788  0.5728  1.7766 -1.3099
  583MOL0     H76925   4.315  -0.272   9.785 -0.0729 -1.3912 -2.9522
  583MOL0     H76926   4.366  -0.294   9.542  0.1433  2.8293 -1.8541
  583MOL0     H76927   4.394  -0.126   9.531 -1.2692 -0.4420 -2.2364
  583MOL0     H76928   4.133  -0.255   9.613 -2.6247  0.1943 -3.2712
  583MOL0     H76929   4.156  -0.082   9.617  0.9578  1.0225 -0.6534
  583MOL0     H76930   4.215  -0.247   9.367 -2.1615 -0.4564 -3.7532
  583MOL0     H76931   4.204  -0.074   9.373 -1.5622  0.3166 -1.4939
  583MOL0     H76932   4.009  -0.203   9.270  0.6227  0.3942 -0.9033
  583MOL0     H76933   3.956  -0.095   9.395 -1.4674  0.4077  0.2156
  583MOL0     H76934   4.013  -0.387   9.450 -2.4241 -1.2378  0.5826
  583MOL0     H76935   3.941  -0.271   9.560 -2.9505 -0.0833  0.1719
  583MOL0     H76936   3.771  -0.420   9.461 -2.3230  0.2125  0.8393
  583MOL0     H76937   3.811  -0.378   9.299 -1.5154  1.6707 -1.2396
  583MOL0     H76938   4.697  -0.224  10.122  1.4033 -0.6553  2.2547
  583MOL0     H76939   4.922  -0.152  10.177  2.7799 -1.9702 -0.7766
  583MOL0     H76940   5.320   0.002   9.960  1.6452  2.3341 -1.1037
  583MOL0     H76941   5.550   0.049   9.963  2.0169  1.3315  2.1065
  583MOL0     H76942   6.066   0.690  10.738 -1.4905 -0.7347  0.5050
  583MOL0     H76943   5.856   0.611  10.797 -2.5237  1.3704  1.8736
  583MOL0     H76944   5.305   0.526  10.445 -1.7979  0.1032  0.2283
  583MOL0     H76945   5.131   0.410  10.527 -4.1016  2.0630  1.5242
  583MOL0     H76946   4.897   0.326  10.840 -1.1954 -0.1111 -1.7416
  583MOL0     H76947   4.934   0.368  10.688 -0.0730 -3.0737  1.0762
  583MOL0     H76948   4.966   0.616  10.763 -0.7166 -0.3814  0.1495
  583MOL0     H76949   4.811   0.544  10.803 -1.1186 -3.1630  1.4034
  583MOL0     H76950   5.055   0.537  10.993  0.3395 -0.1269 -1.4452
  583MOL0     H76951   4.888   0.506  11.041 -0.1773 -0.1219 -1.3898
  583MOL0     H76952   4.980   0.750  11.092  0.5782  0.2328 -1.9641
  583MOL0     H76953   4.962   0.770  10.919  0.9383 -0.1420  0.5908
  583MOL0     H76954   4.565   0.760  11.089 -0.3390  0.6487 -1.3159
  583MOL0     H76955   5.261   0.470  10.937 -0.4585 -4.0480 -1.1831
  583MOL0     H76956   5.454   0.618  10.852 -1.4426  4.6742 -0.3487
  584MOL0     O76957   5.448   1.571   8.567  0.3730  0.5328  0.0838
  584MOL0     C76958   5.553   1.519   8.609 -1.2058 -0.4781  0.0016
  584MOL0     O76959   5.561   1.426   8.717 -0.3008  0.1343  0.8325
  584MOL0     C76960   5.441   1.355   8.755 -0.0793  0.6633  0.0223
  584MOL0     C76961   5.447   1.216   8.771 -0.1659 -0.4025  0.9394
  584MOL0     C76962   5.335   1.146   8.817 -0.2513  0.0401  0.3203
  584MOL0     C76963   5.219   1.214   8.840 -0.1725  1.0550  0.0001
  584MOL0     O76964   5.131   1.136   8.903 -0.2693  0.3171 -0.0418
  584MOL0     C76965   4.996   1.111   8.851  1.0079 -0.3787 -0.4964
  584MOL0     C76966   5.006   0.988   8.758  0.6614  0.0820  0.4242
  584MOL0     C76967   4.865   0.941   8.727 -0.1366 -0.3917  0.9166
  584MOL0     C76968   4.861   0.820   8.624  0.5234  0.3206 -0.3939
  584MOL0     C76969   4.717   0.786   8.594  0.6315 -0.6349  0.9851
  584MOL0     C76970   4.651   0.887   8.496  0.1760  1.0514 -0.8022
  584MOL0     C76971   4.493   0.873   8.504  0.6421 -0.2358 -0.3467
  584MOL0     C76972   4.435   0.729   8.478  1.3934 -0.5052  0.2618
  584MOL0     N76973   4.488   0.662   8.361  0.6365 -0.3730  0.4726
  584MOL0     C76974   4.452   0.676   8.235  0.4366 -0.3726  0.4421
  584MOL0     C76975   4.530   0.605   8.161 -0.0291  0.2849  0.8087
  584MOL0     C76976   4.543   0.612   8.011  0.7740 -0.5157  0.9381
  584MOL0     C76977   4.676   0.564   7.946 -0.9057  0.3627  0.0745
  584MOL0     C76978   4.713   0.410   7.936 -0.1042  0.3136 -0.2401
  584MOL0     C76979   4.643   0.323   7.840 -0.6843 -0.1027  0.2354
  584MOL0     O76980   4.662   0.184   7.875 -0.5655  1.1521 -0.2658
  584MOL0     C76981   4.554   0.111   7.931 -0.2386 -1.1784 -0.1219
  584MOL0     C76982   4.573   0.030   8.039  1.0855  0.6726  0.5003
  584MOL0     C76983   4.468  -0.048   8.097  0.5776 -0.4718 -0.2354
  584MOL0     C76984   4.338  -0.041   8.047 -0.0066  0.1739  0.0005
  584MOL0     C76985   4.223  -0.114   8.114 -0.0567 -0.0880 -0.7101
  584MOL0     O76986   4.268  -0.214   8.209  0.1329  0.5431 -0.1076
  584MOL0     C76987   4.173  -0.295   8.265 -0.2950 -0.5820 -0.2939
  584MOL0     C76988   4.092  -0.245   8.371  0.1619 -1.2299 -0.1825
  584MOL0     C76989   4.000  -0.322   8.427  0.2830  0.5367 -0.8772
  584MOL0     C76990   3.980  -0.453   8.377 -0.1725  1.0398  1.1589
  584MOL0     O76991   3.887  -0.539   8.430  0.7399 -0.3602  0.0907
  584MOL0     C76992   3.785  -0.485   8.514  0.8887 -0.8291  0.2709
  584MOL0     C76993   3.672  -0.581   8.542  0.4709  0.9425  0.7888
  584MOL0     C76994   3.727  -0.689   8.646  0.9438 -0.0904  0.4175
  584MOL0     C76995   3.619  -0.795   8.684 -1.1664  0.4124  0.7179
  584MOL0     C76996   3.511  -0.734   8.761  0.5717  0.6338  0.1521
  584MOL0     C76997   3.416  -0.829   8.830  0.3722  0.3119 -0.1937
  584MOL0     C76998   3.334  -0.912   8.732  0.6048  0.5196 -0.0150
  584MOL0     C76999   3.221  -1.001   8.792  0.5966 -0.0377 -0.7259
  584MOL0    Cl77000   3.110  -0.896   8.867  0.5880  0.5258  0.0408
  584MOL0     C77001   4.050  -0.497   8.267 -0.2006 -0.1874  1.1064
  584MOL0     C77002   4.148  -0.418   8.206 -0.3779 -0.9570 -0.1203
  584MOL0     O77003   4.114  -0.078   8.097 -0.1824  0.3805  0.3720
  584MOL0     C77004   4.317   0.051   7.938 -0.2099 -0.4473 -0.1613
  584MOL0     C77005   4.427   0.123   7.885 -0.5553 -0.7294  0.2406
  584MOL0     N77006   4.593   0.526   8.248 -0.5959  0.2649 -0.6844
  584MOL0     N77007   4.574   0.565   8.371  0.5029  0.7280  0.3442
  584MOL0     C77008   5.219   1.354   8.834  1.5006  0.5202 -0.5924
  584MOL0     C77009   5.326   1.425   8.791 -0.2390 -0.3279 -0.0834
  584MOL0     C77010   5.692   1.557   8.550 -0.2351 -0.3276 -0.0177
  584MOL0     C77011   5.803   1.517   8.609 -0.4037 -0.0828 -0.1895
  584MOL0     C77012   5.927   1.546   8.564 -0.8919 -0.5225 -0.0054
  584MOL0     C77013   5.943   1.638   8.453 -0.5843 -0.5194 -0.1060
  584MOL0     O77014   6.062   1.683   8.415 -0.5214 -0.3336  0.1861
  584MOL0     C77015   6.184   1.641   8.485 -0.3906  0.4906 -0.1340
  584MOL0     C77016   6.305   1.715   8.414 -1.0904  0.2617  0.3073
  584MOL0     C77017   6.305   1.862   8.443 -0.0171 -1.2874  0.0975
  584MOL0     C77018   6.422   1.928   8.371 -0.1611 -0.2926  0.0277
  584MOL0     C77019   6.399   1.936   8.226 -0.9819 -0.3794 -0.3791
  584MOL0     C77020   6.374   1.921   8.110 -0.2421  0.1442  0.0589
  584MOL0     C77021   5.827   1.677   8.378  0.4483  0.3537  0.0906
  584MOL0     C77022   5.702   1.628   8.428 -0.0229 -0.3708 -0.0377
  584MOL0     H77023   5.544   1.167   8.772  0.1758  0.2149  2.6376
  584MOL0     H77024   5.334   1.046   8.860  2.7896  1.1234  3.3405
  584MOL0     H77025   4.947   1.196   8.803  2.3621  1.2488  0.8301
  584MOL0     H77026   4.935   1.101   8.942  3.4594  0.8379  1.4140
  584MOL0     H77027   5.059   0.901   8.798  2.5641  1.0630  0.1338
  584MOL0     H77028   5.057   1.017   8.665 -2.0824  1.9261 -0.6245
  584MOL0     H77029   4.816   1.028   8.684  1.2410 -0.7757 -1.5975
  584MOL0     H77030   4.803   0.910   8.812  1.7498 -0.0917  2.4719
  584MOL0     H77031   4.912   0.838   8.529  0.7130 -0.9322 -0.5546
  584MOL0     H77032   4.898   0.730   8.675 -2.7497 -0.1729  1.3927
  584MOL0     H77033   4.663   0.795   8.689  0.0109 -0.0403  0.5855
  584MOL0     H77034   4.704   0.686   8.550 -0.7991 -0.8539  1.8331
  584MOL0     H77035   4.694   0.867   8.398  1.0716 -0.4374 -0.1443
  584MOL0     H77036   4.682   0.992   8.505  1.5434  0.7043 -1.2248
  584MOL0     H77037   4.473   0.913   8.603  0.2470  0.4037 -0.6754
  584MOL0     H77038   4.437   0.935   8.433  1.4037 -1.8721 -2.5054
  584MOL0     H77039   4.327   0.734   8.460  0.8377 -4.1326  1.8424
  584MOL0     H77040   4.456   0.657   8.557  1.7765 -0.1538  0.4771
  584MOL0     H77041   4.372   0.742   8.202  2.1747  1.2409 -0.7711
  584MOL0     H77042   4.517   0.711   7.974 -2.4885 -1.7207 -0.4053
  584MOL0     H77043   4.469   0.539   7.977 -0.8293  1.7753 -0.7247
  584MOL0     H77044   4.753   0.612   8.006 -1.6957  2.0375 -0.1899
  584MOL0     H77045   4.688   0.617   7.852  1.4521  1.7980  1.1099
  584MOL0     H77046   4.821   0.400   7.927 -0.2282 -0.0480 -1.4618
  584MOL0     H77047   4.687   0.372   8.035  1.5708  0.7499  0.4105
  584MOL0     H77048   4.677   0.326   7.736 -3.4939 -1.6616 -0.8437
  584MOL0     H77049   4.538   0.354   7.825 -0.8258 -1.1176 -1.0822
  584MOL0     H77050   4.673   0.024   8.081 -0.6678 -1.6951  5.0792
  584MOL0     H77051   4.492  -0.107   8.185  0.2518 -3.2081 -1.8745
  584MOL0     H77052   4.108  -0.143   8.405 -0.3661 -0.6234 -1.6873
  584MOL0     H77053   3.945  -0.307   8.519  2.3931 -2.4060  1.0360
  584MOL0     H77054   3.734  -0.392   8.489 -2.8898 -2.3143  1.8179
  584MOL0     H77055   3.840  -0.467   8.607  2.9412  0.9181 -1.1682
  584MOL0     H77056   3.636  -0.635   8.454 -2.1258  0.2128  2.1825
  584MOL0     H77057   3.583  -0.534   8.585 -0.1751  2.2553 -1.7773
  584MOL0     H77058   3.764  -0.636   8.734 -1.8623 -0.5663  1.9924
  584MOL0     H77059   3.804  -0.750   8.597  0.3838 -1.2083  0.8882
  584MOL0     H77060   3.584  -0.838   8.590  4.0320 -1.7963 -0.5427
  584MOL0     H77061   3.663  -0.883   8.733  1.5621 -1.2746 -4.0552
  584MOL0     H77062   3.443  -0.676   8.698 -3.0867 -1.8152  1.4766
  584MOL0     H77063   3.559  -0.670   8.836  0.5572 -0.2879  0.9703
  584MOL0     H77064   3.347  -0.774   8.895  2.7310  1.2091  1.7240
  584MOL0     H77065   3.467  -0.891   8.905 -3.0230  0.2755  2.3113
  584MOL0     H77066   3.281  -0.861   8.651  0.2501 -0.3311 -0.3330
  584MOL0     H77067   3.396  -0.979   8.672 -3.7036 -3.4088 -0.6722
  584MOL0     H77068   3.272  -1.069   8.861  2.8356  2.3756  0.1865
  584MOL0     H77069   3.161  -1.055   8.718  0.6091 -2.1257  0.7099
  584MOL0     H77070   4.013  -0.592   8.231 -2.4682  1.4628 -1.3949
  584MOL0     H77071   4.196  -0.447   8.114  1.6137  1.0478  0.1978
  584MOL0     H77072   4.216   0.054   7.898 -0.9385 -0.4918  1.5815
  584MOL0     H77073   4.401   0.187   7.801  0.3426 -1.0182 -0.2687
  584MOL0     H77074   5.126   1.406   8.858  0.3098 -1.8587  0.2818
  584MOL0     H77075   5.330   1.533   8.796  3.0877 -0.4187  1.8117
  584MOL0     H77076   5.800   1.449   8.694  1.4730  1.5922  1.3104
  584MOL0     H77077   6.014   1.526   8.626 -1.2320  1.8161  1.3562
  584MOL0     H77078   6.192   1.533   8.467  1.6177  0.4765  0.6055
  584MOL0     H77079   6.194   1.663   8.592  1.5126 -1.4758  0.1846
  584MOL0     H77080   6.398   1.660   8.428 -1.2663 -1.0457 -2.7144
  584MOL0     H77081   6.287   1.700   8.307 -1.7638  1.8785  0.1600
  584MOL0     H77082   6.312   1.872   8.551  0.3948  2.6821 -0.1463
  584MOL0     H77083   6.209   1.906   8.416  0.3287 -0.2013  0.5788
  584MOL0     H77084   6.453   2.029   8.400 -1.7911  1.2755 -3.1795
  584MOL0     H77085   6.505   1.859   8.393  1.6109  0.5549 -3.3318
  584MOL0     H77086   6.351   1.897   8.008  1.3545  2.3427 -0.8751
  584MOL0     H77087   5.829   1.726   8.281  1.9986  0.3655  0.1040
  584MOL0     H77088   5.604   1.661   8.394 -0.6875  0.6415  2.5559
  585MOL0     O77089   8.879   3.911   2.285 -0.6335 -0.0657  0.2673
  585MOL0     C77090   8.961   3.935   2.377 -0.1310 -0.3584 -0.1898
  585MOL0     O77091   8.951   3.886   2.498 -0.4316  0.0291  0.1609
  585MOL0     C77092   8.877   3.776   2.512  0.3666  0.7268  0.0250
  585MOL0     C77093   8.911   3.651   2.450 -0.1122  0.6353 -0.5257
  585MOL0     C77094   8.840   3.536   2.472  1.1612 -0.3421  0.1573
  585MOL0     C77095   8.742   3.529   2.567 -0.5081 -1.1014 -0.1283
  585MOL0     O77096   8.676   3.416   2.610  0.1231  0.4277 -0.4055
  585MOL0     C77097   8.643   3.327   2.499 -0.3685 -0.7804 -0.3503
  585MOL0     C77098   8.531   3.231   2.566 -0.1797  0.4093  0.4362
  585MOL0     C77099   8.555   3.082   2.568 -0.2075 -0.8866 -0.7302
  585MOL0     C77100   8.421   3.011   2.571  1.2998 -0.1853  0.9087
  585MOL0     C77101   8.420   2.855   2.585  0.2616 -0.2965 -0.2534
  585MOL0     C77102   8.452   2.796   2.444  0.6034  0.7975  0.2513
  585MOL0     C77103   8.407   2.646   2.450  0.0982 -0.9455 -0.0429
  585MOL0     C77104   8.437   2.576   2.313  0.6719 -1.2813 -0.5204
  585MOL0     N77105   8.382   2.649   2.195 -0.4595  0.2889 -0.0588
  585MOL0     C77106   8.253   2.688   2.177 -1.1808  0.4682 -0.0526
  585MOL0     C77107   8.238   2.760   2.080 -0.2757  0.4166  0.6450
  585MOL0     C77108   8.116   2.809   2.018 -0.5185 -0.1396 -0.5414
  585MOL0     C77109   7.986   2.737   2.042  0.5350 -0.7198  0.4615
  585MOL0     C77110   7.987   2.588   2.000  0.4921  0.4913 -0.2430
  585MOL0     C77111   7.877   2.544   1.905  0.1527 -0.6757 -1.0021
  585MOL0     O77112   7.925   2.597   1.782  0.7986  0.1813  1.2519
  585MOL0     C77113   7.872   2.548   1.668  0.2959  0.0683  0.0979
  585MOL0     C77114   7.776   2.446   1.675  0.6391 -0.4174  0.5623
  585MOL0     C77115   7.719   2.386   1.555 -0.0587  0.5986 -0.6282
  585MOL0     C77116   7.750   2.451   1.434  0.7464  0.4385 -0.5990
  585MOL0     C77117   7.690   2.396   1.307 -0.0684 -0.5004 -0.2976
  585MOL0     O77118   7.728   2.454   1.191  0.1516 -0.6566 -0.1843
  585MOL0     C77119   7.666   2.406   1.073  0.4307 -0.6757 -0.1886
  585MOL0     C77120   7.520   2.377   1.066 -1.6141  1.2743  0.6415
  585MOL0     C77121   7.460   2.331   0.947 -0.3278 -0.3922  0.3429
  585MOL0     C77122   7.545   2.309   0.832 -0.0857 -0.3902 -1.0826
  585MOL0     O77123   7.497   2.254   0.717 -0.2133  0.5257 -0.1573
  585MOL0     C77124   7.355   2.210   0.722 -0.0933 -0.6248 -0.0836
  585MOL0     C77125   7.294   2.165   0.587 -0.8614 -0.3339  0.6160
  585MOL0     C77126   7.148   2.120   0.620 -0.4476  0.0913 -0.8446
  585MOL0     C77127   7.072   2.097   0.487  0.6567  0.1676 -0.4772
  585MOL0     C77128   7.025   1.951   0.480 -0.1986  0.5766  0.2243
  585MOL0     C77129   6.945   1.923   0.353 -0.0894 -1.1562  0.4468
  585MOL0     C77130   7.046   1.890   0.241 -0.4033 -0.4323 -0.3502
  585MOL0     C77131   6.967   1.854   0.118 -0.0673 -0.0072  0.4165
  585MOL0    Cl77132   6.863   1.990   0.067 -0.0762 -0.3241 -0.4618
  585MOL0     C77133   7.688   2.333   0.839  0.6357 -0.1673 -0.6612
  585MOL0     C77134   7.740   2.383   0.957 -0.4416 -0.4702 -0.4026
  585MOL0     O77135   7.607   2.313   1.326  0.7950 -0.2817 -0.4805
  585MOL0     C77136   7.823   2.567   1.429 -0.2082 -1.0403  0.1722
  585MOL0     C77137   7.882   2.614   1.540 -0.3026 -0.3898 -0.7875
  585MOL0     N77138   8.368   2.783   2.031 -0.3768  0.8937 -0.1252
  585MOL0     N77139   8.449   2.716   2.094  0.5150 -0.2847  0.1023
  585MOL0     C77140   8.715   3.655   2.647  0.3314  0.1118  0.2828
  585MOL0     C77141   8.784   3.771   2.614  0.4872  0.4768  0.4025
  585MOL0     C77142   9.074   4.027   2.343 -0.4930  0.2675 -0.3174
  585MOL0     C77143   9.066   4.089   2.217 -0.2825 -0.0733  0.6869
  585MOL0     C77144   9.168   4.167   2.175  0.2447  0.0367 -0.4713
  585MOL0     C77145   9.291   4.174   2.244 -0.5096  0.5282 -0.4135
  585MOL0     O77146   9.400   4.233   2.200 -0.3000 -0.5151  0.2568
  585MOL0     C77147   9.384   4.364   2.141  0.5953 -0.4996  0.3123
  585MOL0     C77148   9.378   4.375   1.992 -0.2344 -0.1283  0.0047
  585MOL0     C77149   9.349   4.520   1.935  0.1090  0.1894  0.7716
  585MOL0     C77150   9.319   4.523   1.791  0.4184  0.9848 -0.4971
  585MOL0     C77151   9.271   4.652   1.749 -0.4679  0.4158  0.1309
  585MOL0     C77152   9.234   4.742   1.681 -0.1004 -0.3297 -0.5535
  585MOL0     C77153   9.296   4.116   2.374 -0.6510  0.6701 -1.0428
  585MOL0     C77154   9.194   4.041   2.422  0.6465  1.1191  0.1692
  585MOL0     H77155   8.997   3.640   2.385  0.8999  0.7000  0.7521
  585MOL0     H77156   8.872   3.447   2.417  0.5311 -1.6559  1.8231
  585MOL0     H77157   8.729   3.263   2.477 -0.9944 -0.7592 -3.3253
  585MOL0     H77158   8.602   3.376   2.411  1.5875 -0.6976 -1.2779
  585MOL0     H77159   8.438   3.251   2.511 -0.4643  1.9559  1.4131
  585MOL0     H77160   8.514   3.266   2.668 -2.8432  3.7549 -0.9508
  585MOL0     H77161   8.602   3.055   2.662 -0.1669 -1.0816 -0.8076
  585MOL0     H77162   8.616   3.053   2.482 -0.3650 -1.0280 -0.7944
  585MOL0     H77163   8.377   3.055   2.661 -0.2755  2.1693 -0.8816
  585MOL0     H77164   8.371   3.039   2.478  0.7262 -0.2206  1.1971
  585MOL0     H77165   8.319   2.831   2.618  0.0951  1.9270  0.9927
  585MOL0     H77166   8.497   2.839   2.661 -0.3656  3.1620  1.3060
  585MOL0     H77167   8.559   2.804   2.421  0.3928 -1.9663 -2.3389
  585MOL0     H77168   8.386   2.846   2.372 -0.0230 -1.3827 -0.7643
  585MOL0     H77169   8.451   2.596   2.536 -2.4671  0.2227  2.1007
  585MOL0     H77170   8.301   2.643   2.476 -0.1491  0.7380 -0.6885
  585MOL0     H77171   8.406   2.472   2.330  0.5682 -1.3624 -1.1849
  585MOL0     H77172   8.545   2.582   2.304  1.1500 -1.9000  3.1569
  585MOL0     H77173   8.181   2.645   2.247  1.1271 -0.4963  1.8632
  585MOL0     H77174   8.139   2.801   1.912  2.3536 -0.6638  0.0336
  585MOL0     H77175   8.107   2.914   2.050  0.2525 -0.4443  0.7481
  585MOL0     H77176   7.906   2.794   1.993  0.8913 -1.9614 -1.7056
  585MOL0     H77177   7.954   2.750   2.146 -1.4005 -0.6776 -0.0960
  585MOL0     H77178   8.088   2.564   1.965  2.4849  2.1486  3.7055
  585MOL0     H77179   7.972   2.528   2.090 -1.4290  3.3387  1.5024
  585MOL0     H77180   7.777   2.584   1.922  1.1690  1.0610  1.5559
  585MOL0     H77181   7.874   2.435   1.907 -1.0837 -0.6704  1.6641
  585MOL0     H77182   7.750   2.397   1.768 -0.3733  2.7905  2.1090
  585MOL0     H77183   7.669   2.290   1.567  1.2075  0.2020  2.4347
  585MOL0     H77184   7.459   2.395   1.154  0.9857 -1.0093  3.1188
  585MOL0     H77185   7.354   2.313   0.961  0.0542 -4.7550 -0.7801
  585MOL0     H77186   7.287   2.292   0.748 -2.9776 -2.0480 -2.4153
  585MOL0     H77187   7.347   2.130   0.796 -0.3735  1.6426  2.4963
  585MOL0     H77188   7.348   2.083   0.540 -0.9934 -0.1334  0.1039
  585MOL0     H77189   7.304   2.248   0.516 -0.0745  1.5342  2.7893
  585MOL0     H77190   7.096   2.197   0.677 -0.4208 -0.2289 -0.3810
  585MOL0     H77191   7.165   2.032   0.683  3.0992  0.5895 -0.9085
  585MOL0     H77192   7.001   2.178   0.471  0.7147  0.1826 -0.6596
  585MOL0     H77193   7.142   2.117   0.405  0.1937  1.9396 -0.4630
  585MOL0     H77194   6.959   1.941   0.566 -1.6076 -0.1205 -0.9006
  585MOL0     H77195   7.095   1.867   0.479 -1.6106 -0.6239 -0.2711
  585MOL0     H77196   6.883   2.008   0.322 -0.3129 -2.1029 -1.8891
  585MOL0     H77197   6.881   1.839   0.384  0.3956 -1.2809  1.1267
  585MOL0     H77198   7.095   1.984   0.216  1.1556 -0.9995  0.4813
  585MOL0     H77199   7.123   1.819   0.270  0.0582  0.2384  0.0874
  585MOL0     H77200   6.913   1.760   0.129  1.1274 -0.8963 -0.9268
  585MOL0     H77201   7.038   1.824   0.040 -0.7227 -3.6464  1.0641
  585MOL0     H77202   7.743   2.305   0.749  0.5389 -0.9053 -0.4958
  585MOL0     H77203   7.848   2.397   0.955 -0.5267  0.1414 -0.6252
  585MOL0     H77204   7.846   2.620   1.337  1.4776  1.9392  2.1543
  585MOL0     H77205   7.951   2.698   1.538  1.3047 -1.2330  4.3019
  585MOL0     H77206   8.638   3.662   2.723 -1.2816 -2.0539 -1.0321
  585MOL0     H77207   8.769   3.861   2.673  2.1609 -0.6280  2.6599
  585MOL0     H77208   8.989   4.078   2.141  1.9144  3.4584 -2.4274
  585MOL0     H77209   9.159   4.220   2.080 -1.7071  0.1784 -0.2373
  585MOL0     H77210   9.473   4.416   2.177  1.1658 -1.0282 -0.3045
  585MOL0     H77211   9.297   4.420   2.176 -0.5843 -1.1458 -1.4635
  585MOL0     H77212   9.476   4.340   1.957  0.8523  2.6701  0.0194
  585MOL0     H77213   9.292   4.314   1.960  0.6699 -1.2663 -0.3308
  585MOL0     H77214   9.438   4.584   1.939 -0.7589  1.5539 -0.6606
  585MOL0     H77215   9.261   4.562   1.983 -1.5770 -2.8505  0.5690
  585MOL0     H77216   9.407   4.495   1.733  1.8206 -1.4817  2.5219
  585MOL0     H77217   9.246   4.446   1.761  1.1344  0.0032  0.2023
  585MOL0     H77218   9.203   4.824   1.618  0.3030 -1.0502 -1.7256
  585MOL0     H77219   9.396   4.116   2.417 -0.1128 -2.3022 -2.0471
  585MOL0     H77220   9.200   3.983   2.513  0.6857 -0.1301 -0.5906
  586MOL0     O77221   0.291  11.371  10.330  0.8351  0.3926 -0.0624
  586MOL0     C77222   0.379  11.422  10.259 -0.0460 -0.4664  0.9034
  586MOL0     O77223   0.505  11.371  10.247 -0.0825 -0.2003  0.2327
  586MOL0     C77224   0.534  11.237  10.274 -0.2891 -0.1635 -0.2743
  586MOL0     C77225   0.661  11.219  10.336 -0.0839 -0.2823 -1.0323
  586MOL0     C77226   0.698  11.090  10.381 -0.1071 -0.1253  0.4217
  586MOL0     C77227   0.619  10.974  10.351 -0.8663  0.4900  0.0599
  586MOL0     O77228   0.644  10.848  10.384 -0.3098  0.0786  0.1704
  586MOL0     C77229   0.752  10.810  10.303  0.8856  0.0315  0.1296
  586MOL0     C77230   0.789  10.663  10.322  0.8869 -0.0854  0.3219
  586MOL0     C77231   0.913  10.628  10.235 -0.0229  0.2574 -0.5615
  586MOL0     C77232   0.970  10.492  10.266  0.3493 -0.3962  0.7603
  586MOL0     C77233   1.102  10.478  10.205  0.5419  0.0825  0.4550
  586MOL0     C77234   1.118  10.336  10.145  0.4045 -0.1483 -0.0237
  586MOL0     C77235   1.235  10.326  10.050 -0.3277  1.2757 -0.1247
  586MOL0     C77236   1.243  10.188   9.991 -0.0888  0.1860  0.4230
  586MOL0     N77237   1.377  10.136   9.959 -0.2728 -0.1886  0.7415
  586MOL0     C77238   1.445  10.158   9.840 -0.2880 -0.9521 -0.2534
  586MOL0     C77239   1.549  10.073   9.839 -0.4937 -0.1834 -0.5351
  586MOL0     C77240   1.640  10.044   9.720  0.3984 -0.3242 -0.0099
  586MOL0     C77241   1.698  10.171   9.659  0.2402 -0.2659 -0.3900
  586MOL0     C77242   1.703  10.153   9.503 -0.6523  0.3973 -0.3736
  586MOL0     C77243   1.816  10.058   9.466 -0.4785 -0.4652 -0.2223
  586MOL0     O77244   1.839  10.039   9.324  0.1332  0.0849  0.4844
  586MOL0     C77245   1.918  10.127   9.263 -0.2414  0.3500 -0.5842
  586MOL0     C77246   1.914  10.129   9.122  1.0821  0.7582  0.5141
  586MOL0     C77247   2.004  10.200   9.042 -0.0421 -0.1749  0.1590
  586MOL0     C77248   2.085  10.302   9.096 -0.8669 -0.0375 -0.2422
  586MOL0     C77249   2.163  10.397   9.012  0.8388  0.9080 -1.6055
  586MOL0     O77250   2.228  10.504   9.069 -0.5407 -0.0123 -0.1075
  586MOL0     C77251   2.292  10.594   8.986 -0.1419  0.4107 -0.2047
  586MOL0     C77252   2.406  10.556   8.910 -0.9462 -0.6891 -0.8110
  586MOL0     C77253   2.487  10.659   8.859  0.3755  0.4814 -0.5560
  586MOL0     C77254   2.445  10.795   8.869 -0.5578 -0.2419  1.2381
  586MOL0     O77255   2.529  10.900   8.825 -0.0469  0.4454  0.0382
  586MOL0     C77256   2.485  10.971   8.713  0.2402  0.4095  0.9821
  586MOL0     C77257   2.529  11.124   8.724 -0.1317  0.0754  0.6845
  586MOL0     C77258   2.690  11.138   8.706  0.2922  0.1665  0.2078
  586MOL0     C77259   2.744  11.275   8.681  0.3435 -0.3853  0.4301
  586MOL0     C77260   2.724  11.327   8.540  0.2297  0.2426 -0.2269
  586MOL0     C77261   2.804  11.253   8.424  0.7914 -0.0934  0.5989
  586MOL0     C77262   2.963  11.271   8.450  0.6436 -0.2735  0.5685
  586MOL0     C77263   3.042  11.206   8.336 -0.7530  0.6162  0.1512
  586MOL0    Cl77264   3.034  11.039   8.344 -0.4277  0.4898 -0.1565
  586MOL0     C77265   2.334  10.831   8.940 -0.1012 -0.4842  0.0219
  586MOL0     C77266   2.248  10.731   8.992  1.0651  1.7453  0.7682
  586MOL0     O77267   2.165  10.368   8.895  0.6604 -0.7307  0.7089
  586MOL0     C77268   2.076  10.319   9.238 -1.0057 -0.1209 -0.3964
  586MOL0     C77269   1.999  10.228   9.319  0.5865  0.2924  0.0891
  586MOL0     N77270   1.542  10.005   9.964  0.5505  0.4608  0.9189
  586MOL0     N77271   1.439  10.038  10.032  0.0676  0.0782 -0.9342
  586MOL0     C77272   0.497  10.994  10.281 -0.4594  0.0209 -0.5489
  586MOL0     C77273   0.458  11.119  10.246 -0.6240 -0.5604  0.1568
  586MOL0     C77274   0.353  11.563  10.201  0.6911  0.3406  0.0331
  586MOL0     C77275   0.427  11.613  10.094  0.2361  0.9027  0.4512
  586MOL0     C77276   0.394  11.736  10.034 -0.3236  0.3566 -0.5274
  586MOL0     C77277   0.277  11.808  10.079 -0.9988  0.7572 -0.1749
  586MOL0     O77278   0.232  11.933  10.033 -0.0103  0.2554  0.3697
  586MOL0     C77279   0.324  12.040  10.038 -0.2527  0.2506  0.5184
  586MOL0     C77280   0.237  12.167  10.043  0.0617  0.9822  0.3275
  586MOL0     C77281   0.306  12.298  10.069 -0.4697 -0.2011 -0.8982
  586MOL0     C77282   0.415  12.339   9.967  0.2248 -0.3393 -0.1662
  586MOL0     C77283   0.421  12.485   9.964  0.7313  0.5565 -0.3794
  586MOL0     C77284   0.434  12.603   9.953 -0.1570  0.5798 -0.1653
  586MOL0     C77285   0.213  11.759  10.185  0.6201 -0.5909  0.1157
  586MOL0     C77286   0.247  11.637  10.240  0.0588  0.0413 -0.0815
  586MOL0     H77287   0.709  11.311  10.366 -3.5675  1.1379  0.7565
  586MOL0     H77288   0.786  11.078  10.443 -1.7203 -0.0229  2.8608
  586MOL0     H77289   0.840  10.868  10.333  0.7497 -0.7000  2.0684
  586MOL0     H77290   0.733  10.819  10.195 -0.1560 -2.1272  0.0838
  586MOL0     H77291   0.700  10.605  10.294  0.2984  1.7593 -2.0177
  586MOL0     H77292   0.822  10.639  10.423  0.2391 -3.4201 -0.1314
  586MOL0     H77293   0.985  10.708  10.257 -1.5246  1.1095  1.5718
  586MOL0     H77294   0.887  10.629  10.129 -0.4979 -0.0405 -0.4546
  586MOL0     H77295   0.968  10.464  10.372 -0.5588  1.6374  1.3151
  586MOL0     H77296   0.905  10.414  10.225 -0.3849  0.3474  0.4934
  586MOL0     H77297   1.176  10.516  10.276 -1.1422  1.3707  1.5987
  586MOL0     H77298   1.109  10.545  10.119  1.7487 -0.8286 -0.1957
  586MOL0     H77299   1.036  10.316  10.076  1.1092  2.5723 -1.8423
  586MOL0     H77300   1.122  10.256  10.218 -0.8074  1.1102  1.4862
  586MOL0     H77301   1.243  10.388   9.960  1.4657  0.3913 -0.6191
  586MOL0     H77302   1.322  10.338  10.114 -0.5993  1.8544  0.1395
  586MOL0     H77303   1.176  10.178   9.905 -1.0455  1.8055  0.9414
  586MOL0     H77304   1.201  10.116  10.062  1.0793 -0.0501  0.9005
  586MOL0     H77305   1.409  10.221   9.760 -0.0661 -0.4538  0.0359
  586MOL0     H77306   1.583   9.977   9.656  0.3982 -1.4817  1.1507
  586MOL0     H77307   1.727   9.991   9.760 -1.0740 -0.0882  3.9285
  586MOL0     H77308   1.799  10.195   9.691  0.6685  3.9886 -3.8327
  586MOL0     H77309   1.642  10.261   9.687  1.1144 -0.2898  1.5701
  586MOL0     H77310   1.605  10.115   9.470 -1.3913  0.8567  1.2127
  586MOL0     H77311   1.717  10.251   9.457 -0.6168  0.9025  0.6854
  586MOL0     H77312   1.786   9.962   9.508  1.5237 -0.9592  0.1637
  586MOL0     H77313   1.910  10.085   9.515 -0.8258 -0.0304  0.2065
  586MOL0     H77314   1.843  10.070   9.065 -2.0176  1.0702  3.7475
  586MOL0     H77315   2.012  10.186   8.935  0.5237 -0.7483  0.2702
  586MOL0     H77316   2.437  10.452   8.901  0.4022 -0.5393  1.2668
  586MOL0     H77317   2.567  10.616   8.799  1.6359 -0.4640  1.6542
  586MOL0     H77318   2.376  10.968   8.698  0.3568  1.4744 -0.2629
  586MOL0     H77319   2.523  10.915   8.627 -2.0344 -0.9827  0.8025
  586MOL0     H77320   2.491  11.151   8.823  0.8652 -2.7313  1.9568
  586MOL0     H77321   2.465  11.183   8.658 -2.8085 -0.7028  2.3945
  586MOL0     H77322   2.721  11.062   8.634  1.2579 -0.4400  1.2389
  586MOL0     H77323   2.744  11.093   8.790  0.4471 -3.6333 -1.6888
  586MOL0     H77324   2.693  11.340   8.753 -3.7700 -2.4131 -0.3426
  586MOL0     H77325   2.850  11.263   8.702  0.2625 -3.5257 -0.4578
  586MOL0     H77326   2.745  11.435   8.536  0.4266  0.2495  0.7154
  586MOL0     H77327   2.618  11.317   8.514 -0.6522  1.5691  2.4160
  586MOL0     H77328   2.785  11.294   8.325  1.0625 -2.4771 -0.5111
  586MOL0     H77329   2.770  11.149   8.412  0.4167 -0.0465  1.1898
  586MOL0     H77330   2.977  11.379   8.449 -2.1154  0.1594 -0.5140
  586MOL0     H77331   2.988  11.228   8.547 -0.5830 -1.1498  0.5266
  586MOL0     H77332   3.145  11.241   8.346 -0.8650  0.9686  0.1019
  586MOL0     H77333   2.995  11.249   8.247 -1.8070  2.6058  1.5896
  586MOL0     H77334   2.305  10.935   8.947  2.1775  0.2413 -0.4260
  586MOL0     H77335   2.153  10.756   9.038  0.8164  0.9984  0.6615
  586MOL0     H77336   2.138  10.390   9.292  0.0862  0.8487 -2.7806
  586MOL0     H77337   1.994  10.234   9.428 -5.4250  0.9443  0.0934
  586MOL0     H77338   0.430  10.909  10.271 -0.0902 -0.2865 -0.4042
  586MOL0     H77339   0.366  11.140  10.192 -1.1869 -1.2134  0.8441
  586MOL0     H77340   0.512  11.552  10.064 -1.2745 -0.7514 -0.7299
  586MOL0     H77341   0.454  11.774   9.951 -3.1495 -0.1113 -2.9549
  586MOL0     H77342   0.396  12.055   9.958  0.8599  1.8226  1.7589
  586MOL0     H77343   0.372  12.038  10.137 -0.9151  2.3187  0.9363
  586MOL0     H77344   0.181  12.160   9.949  1.4716 -2.3279 -0.4390
  586MOL0     H77345   0.168  12.153  10.127  3.0849 -1.8226  2.6316
  586MOL0     H77346   0.355  12.315  10.165 -2.0531  1.3433 -0.3170
  586MOL0     H77347   0.231  12.378  10.066  0.5622  1.0630  2.6953
  586MOL0     H77348   0.513  12.297   9.989 -1.7239 -5.4863  0.1382
  586MOL0     H77349   0.393  12.291   9.871 -0.5775  0.8460 -0.5940
  586MOL0     H77350   0.450  12.709   9.962 -2.4555  0.8486  2.0199
  586MOL0     H77351   0.122  11.811  10.215 -0.3727 -0.9000 -2.0995
  586MOL0     H77352   0.174  11.591  10.307 -0.9867  0.3742 -0.9601
  587MOL0     O77353   2.975   1.699   2.298  0.0887 -0.5952 -0.5495
  587MOL0     C77354   2.929   1.810   2.273  0.6085  0.2330 -0.2747
  587MOL0     O77355   2.901   1.862   2.143 -0.5807  0.0673  0.6524
  587MOL0     C77356   2.952   1.812   2.022  0.2875  0.3632  0.1937
  587MOL0     C77357   3.037   1.706   2.011  0.9660 -0.5696 -0.1035
  587MOL0     C77358   3.090   1.671   1.895 -0.2640 -0.1287 -0.1257
  587MOL0     C77359   3.061   1.743   1.776 -0.0933 -0.7860 -0.4173
  587MOL0     O77360   3.113   1.723   1.656 -0.5524  0.2130 -0.0283
  587MOL0     C77361   3.064   1.604   1.577 -0.1976  0.1400  0.2532
  587MOL0     C77362   2.943   1.628   1.495  0.7907 -0.1835  0.9057
  587MOL0     C77363   2.976   1.713   1.366  0.6671  0.6812 -0.0186
  587MOL0     C77364   2.836   1.733   1.278  0.0794  0.3131  0.2027
  587MOL0     C77365   2.780   1.603   1.211  0.1435 -0.2022  0.3639
  587MOL0     C77366   2.662   1.616   1.124  0.4252 -0.0967  0.1895
  587MOL0     C77367   2.623   1.483   1.062 -0.5062  0.2062 -0.7844
  587MOL0     C77368   2.508   1.472   0.954 -1.2548  0.1649  0.5163
  587MOL0     N77369   2.379   1.492   1.012  0.2112 -0.3193  0.0775
  587MOL0     C77370   2.324   1.437   1.125 -0.0360  0.4455  0.0737
  587MOL0     C77371   2.197   1.486   1.127 -0.6306 -0.4299  0.2009
  587MOL0     C77372   2.093   1.466   1.233  0.4833 -0.7542 -0.0315
  587MOL0     C77373   2.041   1.606   1.285  0.6504  0.5400 -0.2090
  587MOL0     C77374   1.975   1.673   1.168  1.4850 -0.6382 -0.5249
  587MOL0     C77375   1.867   1.766   1.225  0.0481 -0.0317 -0.5131
  587MOL0     O77376   1.917   1.882   1.288 -0.4038 -0.5526 -0.1683
  587MOL0     C77377   1.846   1.954   1.379  1.4535 -0.5812 -0.1551
  587MOL0     C77378   1.904   2.078   1.417  0.3658 -0.5081 -0.4760
  587MOL0     C77379   1.849   2.161   1.515  0.6197 -0.3098  0.8552
  587MOL0     C77380   1.729   2.122   1.580  0.5503 -0.3724  0.1606
  587MOL0     C77381   1.671   2.213   1.690  0.2191  0.4007 -0.5954
  587MOL0     O77382   1.567   2.161   1.759  0.0947 -0.1927  0.9957
  587MOL0     C77383   1.502   2.240   1.851  0.5846  0.0985  0.7487
  587MOL0     C77384   1.496   2.196   1.994 -0.1588 -0.5603  0.3596
  587MOL0     C77385   1.418   2.271   2.082  0.5024  0.3149 -1.1341
  587MOL0     C77386   1.345   2.384   2.041  0.1252  0.0108 -0.2380
  587MOL0     O77387   1.261   2.467   2.119  1.4317 -0.0033 -0.2135
  587MOL0     C77388   1.256   2.444   2.258 -0.7939  0.0207 -0.1429
  587MOL0     C77389   1.229   2.581   2.311 -0.6317 -0.1968 -0.4542
  587MOL0     C77390   1.281   2.614   2.457  0.9490 -0.2255  0.9185
  587MOL0     C77391   1.278   2.764   2.489  0.3600 -0.2359  0.4438
  587MOL0     C77392   1.366   2.802   2.618  0.4759  0.7200 -0.1951
  587MOL0     C77393   1.518   2.825   2.599  0.3512 -0.0230 -0.1204
  587MOL0     C77394   1.602   2.697   2.592  0.3279  0.4515  0.9427
  587MOL0     C77395   1.751   2.740   2.622 -0.5177  0.5301  0.1639
  587MOL0    Cl77396   1.791   2.713   2.793 -0.1346  0.1792  0.4723
  587MOL0     C77397   1.348   2.425   1.912 -0.5763 -0.7012 -0.2878
  587MOL0     C77398   1.425   2.351   1.822  0.3284 -0.0480 -0.5851
  587MOL0     O77399   1.699   2.334   1.678  0.3329  0.1354 -0.3993
  587MOL0     C77400   1.672   1.996   1.553  0.7582 -1.1948  0.2238
  587MOL0     C77401   1.739   1.906   1.467  0.9836 -0.1666 -1.1119
  587MOL0     N77402   2.174   1.542   1.000  0.3835  0.2386 -0.1457
  587MOL0     N77403   2.281   1.542   0.938 -0.1809 -0.3363  0.7527
  587MOL0     C77404   2.981   1.857   1.789  1.0170 -0.5019  0.4430
  587MOL0     C77405   2.929   1.894   1.917 -0.2990 -0.1635 -0.3116
  587MOL0     C77406   2.898   1.890   2.392  0.0276 -0.5130 -0.9960
  587MOL0     C77407   2.912   1.838   2.519  1.2386 -0.8713  0.4080
  587MOL0     C77408   2.886   1.919   2.629 -0.3054 -0.0804 -0.5864
  587MOL0     C77409   2.821   2.051   2.616 -0.2471  0.0341 -0.1741
  587MOL0     O77410   2.788   2.138   2.714  0.1506 -0.0972  0.1736
  587MOL0     C77411   2.782   2.086   2.849  0.5030  0.3347 -0.3354
  587MOL0     C77412   2.648   2.017   2.886 -0.6214  0.9264 -0.6500
  587MOL0     C77413   2.642   2.018   3.045 -0.1845  0.3638  0.2325
  587MOL0     C77414   2.570   1.896   3.113 -0.1996  1.0917  0.2449
  587MOL0     C77415   2.641   1.770   3.085 -0.7784  0.9367 -0.5933
  587MOL0     C77416   2.709   1.672   3.037  0.2649  0.0620 -0.1182
  587MOL0     C77417   2.792   2.096   2.492 -1.1829  0.9238  0.5925
  587MOL0     C77418   2.841   2.020   2.380 -0.3969 -1.1320 -0.3672
  587MOL0     H77419   3.037   1.632   2.090 -0.1839  0.1654  0.6069
  587MOL0     H77420   3.155   1.589   1.867  3.3276  2.3566  0.1972
  587MOL0     H77421   3.050   1.522   1.648  1.7798  0.3388  0.9259
  587MOL0     H77422   3.145   1.570   1.513 -0.5017 -2.4337  1.0993
  587MOL0     H77423   2.867   1.691   1.542 -0.4813  0.9442 -2.3313
  587MOL0     H77424   2.898   1.530   1.476 -3.6904  1.9314 -0.9000
  587MOL0     H77425   3.062   1.684   1.306  1.7853  1.0405  1.3534
  587MOL0     H77426   2.997   1.818   1.392 -1.5156  1.1147  0.2006
  587MOL0     H77427   2.760   1.776   1.345  0.2532 -0.9196  1.2415
  587MOL0     H77428   2.854   1.813   1.206 -1.1316 -1.1570 -1.8259
  587MOL0     H77429   2.764   1.526   1.287 -2.0674  1.1625  1.4028
  587MOL0     H77430   2.857   1.556   1.150 -0.2927 -1.3219  0.6618
  587MOL0     H77431   2.688   1.681   1.040 -0.4523 -0.4569 -0.3768
  587MOL0     H77432   2.572   1.652   1.174 -0.9416 -2.9994  0.0803
  587MOL0     H77433   2.716   1.466   1.005 -0.4932 -2.5123 -0.0930
  587MOL0     H77434   2.600   1.414   1.143 -1.6338 -0.9260 -2.0245
  587MOL0     H77435   2.515   1.378   0.898  0.6806  1.3356 -1.3653
  587MOL0     H77436   2.524   1.553   0.883  1.0546 -1.0872 -0.5199
  587MOL0     H77437   2.372   1.383   1.207 -0.0591  1.9234  1.1075
  587MOL0     H77438   2.144   1.419   1.317  0.2796  1.7187  1.5626
  587MOL0     H77439   2.015   1.400   1.193  0.8449 -1.3015  0.1584
  587MOL0     H77440   2.129   1.656   1.328  1.7724 -1.0542 -0.5334
  587MOL0     H77441   1.972   1.586   1.367 -0.8903  0.7064 -1.4289
  587MOL0     H77442   2.049   1.738   1.120  3.9704 -0.4261  3.1667
  587MOL0     H77443   1.926   1.601   1.101  0.1439 -0.4528  0.2342
  587MOL0     H77444   1.803   1.709   1.293 -0.5104 -1.5707 -2.2752
  587MOL0     H77445   1.806   1.809   1.145  1.5343  1.0155 -1.1305
  587MOL0     H77446   1.994   2.102   1.362 -0.0063  1.0215 -0.4841
  587MOL0     H77447   1.881   2.264   1.533 -4.3162  1.3323  1.6141
  587MOL0     H77448   1.548   2.105   2.022 -0.0995 -1.1066 -1.4342
  587MOL0     H77449   1.413   2.239   2.186 -0.6720  2.7328 -0.3865
  587MOL0     H77450   1.349   2.405   2.299 -0.4927  0.8965  0.0324
  587MOL0     H77451   1.181   2.372   2.290  1.5174 -2.4241  0.0709
  587MOL0     H77452   1.120   2.587   2.306 -0.6858  0.6619  0.9565
  587MOL0     H77453   1.274   2.656   2.245  0.0695 -0.1805  0.0266
  587MOL0     H77454   1.384   2.578   2.455  0.1762 -2.7347  2.4324
  587MOL0     H77455   1.227   2.556   2.531 -0.0558 -0.2361  0.2006
  587MOL0     H77456   1.312   2.813   2.397 -4.6664  0.7180 -1.2346
  587MOL0     H77457   1.173   2.792   2.499  1.0323  1.9485  2.1266
  587MOL0     H77458   1.349   2.741   2.707  1.4671  2.2240  1.0633
  587MOL0     H77459   1.327   2.901   2.643 -1.4491  0.3880 -1.6378
  587MOL0     H77460   1.542   2.868   2.697 -1.4305 -1.3330  0.9672
  587MOL0     H77461   1.540   2.896   2.519 -0.8331  1.4966  0.8371
  587MOL0     H77462   1.575   2.615   2.659 -3.0303 -0.1045 -0.8693
  587MOL0     H77463   1.597   2.667   2.487 -0.8692  0.8139  0.8805
  587MOL0     H77464   1.776   2.843   2.595  0.3107 -0.3412 -2.7308
  587MOL0     H77465   1.827   2.679   2.573  1.9542  3.3696  0.1377
  587MOL0     H77466   1.289   2.509   1.877  2.8777  0.6879 -3.5710
  587MOL0     H77467   1.431   2.388   1.720 -5.0975 -2.3720 -2.0993
  587MOL0     H77468   1.584   1.962   1.607  0.5472 -0.2194  0.5231
  587MOL0     H77469   1.704   1.803   1.466  0.1665 -0.0068  1.7107
  587MOL0     H77470   2.953   1.918   1.704  1.4128 -0.6288  0.2154
  587MOL0     H77471   2.861   1.976   1.939 -0.3033 -0.7508  2.0717
  587MOL0     H77472   2.945   1.737   2.543  1.1451 -0.6046  1.7469
  587MOL0     H77473   2.903   1.875   2.727 -1.0016  1.4794  0.2692
  587MOL0     H77474   2.777   2.178   2.909 -0.3004 -0.9621  1.6900
  587MOL0     H77475   2.861   2.027   2.896 -1.5114 -1.0615  1.5006
  587MOL0     H77476   2.564   2.075   2.847 -0.5546 -0.8293 -3.6825
  587MOL0     H77477   2.629   1.914   2.853  1.1382  0.5949 -0.7374
  587MOL0     H77478   2.595   2.115   3.064  2.3221  1.8807 -0.7733
  587MOL0     H77479   2.739   2.015   3.094 -0.3905 -0.8701  0.5986
  587MOL0     H77480   2.578   1.903   3.221  3.8915  2.7276  0.0190
  587MOL0     H77481   2.469   1.881   3.074  0.7929 -1.7622 -1.5914
  587MOL0     H77482   2.773   1.587   3.029  0.3068  0.1247 -0.4923
  587MOL0     H77483   2.743   2.190   2.467 -0.2798  1.7224  1.6753
  587MOL0     H77484   2.802   2.057   2.286 -2.0640  0.1524  0.7762
  588MOL0     O77485   0.552   6.111   5.460  0.1415  0.4552 -0.2820
  588MOL0     C77486   0.454   6.183   5.455 -0.1627  0.2202 -0.3792
  588MOL0     O77487   0.332   6.149   5.418 -0.2520 -0.4639  0.1761
  588MOL0     C77488   0.306   6.024   5.382  0.3255 -0.8180  0.2731
  588MOL0     C77489   0.350   5.973   5.262  0.1288 -0.7606  0.6413
  588MOL0     C77490   0.316   5.840   5.228  0.0198 -0.1826  0.2294
  588MOL0     C77491   0.266   5.755   5.324  0.7169 -0.5937  0.4095
  588MOL0     O77492   0.258   5.627   5.285 -0.4977 -0.2916  0.6646
  588MOL0     C77493   0.121   5.574   5.302 -0.0671 -0.7426 -0.6171
  588MOL0     C77494   0.103   5.424   5.271 -0.1738 -0.0962 -0.2592
  588MOL0     C77495   0.140   5.400   5.119  0.5749 -0.4065  0.0836
  588MOL0     C77496   0.200   5.266   5.084 -1.0695 -0.2752  0.2077
  588MOL0     C77497   0.338   5.292   5.023 -0.7764  0.4252  0.0422
  588MOL0     C77498   0.438   5.336   5.137  0.1310  1.5581  0.4907
  588MOL0     C77499   0.578   5.336   5.071 -0.3613 -0.1753 -0.0936
  588MOL0     C77500   0.598   5.452   4.975  0.3093 -0.0859 -0.9848
  588MOL0     N77501   0.716   5.440   4.898 -0.5597  0.5853  0.2543
  588MOL0     C77502   0.743   5.347   4.799  0.5424  0.1676 -0.2389
  588MOL0     C77503   0.863   5.382   4.743  0.8981  0.2689  0.2120
  588MOL0     C77504   0.925   5.305   4.626  1.0679  0.5934 -0.3206
  588MOL0     C77505   1.022   5.197   4.676 -0.0127  0.8996 -0.1826
  588MOL0     C77506   0.955   5.058   4.652  0.4590 -0.2342  0.1158
  588MOL0     C77507   1.052   4.938   4.656  0.1272 -0.8191  0.4439
  588MOL0     O77508   0.976   4.826   4.624  0.8769 -0.2107  0.6313
  588MOL0     C77509   1.051   4.709   4.591  0.0406  0.2253 -0.2495
  588MOL0     C77510   1.191   4.685   4.600  0.4644  0.7730 -0.0903
  588MOL0     C77511   1.244   4.563   4.564 -0.8516 -0.2960  0.6899
  588MOL0     C77512   1.158   4.456   4.504  0.1457  0.3177  0.2344
  588MOL0     C77513   1.231   4.345   4.444 -0.6484 -0.0989  0.4790
  588MOL0     O77514   1.183   4.303   4.319 -0.5462 -0.0252  0.1860
  588MOL0     C77515   1.252   4.198   4.251 -0.8605  0.8138 -0.1391
  588MOL0     C77516   1.299   4.078   4.300  0.3154  0.7527  0.6508
  588MOL0     C77517   1.371   3.989   4.217  0.3343 -0.2466 -0.1603
  588MOL0     C77518   1.405   4.021   4.091  0.0553  1.2980 -0.6185
  588MOL0     O77519   1.474   3.914   4.025  0.3351  0.9943 -0.0754
  588MOL0     C77520   1.545   3.948   3.908  0.3238  0.1002 -0.4016
  588MOL0     C77521   1.590   3.824   3.830  0.2179  0.2274  0.3109
  588MOL0     C77522   1.477   3.752   3.759  0.3280  0.2407  0.1599
  588MOL0     C77523   1.532   3.621   3.701 -0.3957  0.5404  0.2709
  588MOL0     C77524   1.417   3.521   3.649  0.3511 -0.3906  0.1515
  588MOL0     C77525   1.469   3.379   3.630  0.4474 -0.2218 -0.6604
  588MOL0     C77526   1.367   3.305   3.547  0.0956 -0.0709 -0.6172
  588MOL0     C77527   1.413   3.157   3.529  0.7221 -0.0849 -0.1556
  588MOL0    Cl77528   1.560   3.127   3.448  0.3464 -0.1543  0.2551
  588MOL0     C77529   1.356   4.146   4.036 -0.2585  0.5924 -0.3875
  588MOL0     C77530   1.298   4.230   4.127  0.2572 -0.0602  0.0892
  588MOL0     O77531   1.328   4.307   4.501 -0.3194  0.1019 -0.0986
  588MOL0     C77532   1.021   4.479   4.502  0.6809  0.2282  0.3116
  588MOL0     C77533   0.971   4.606   4.548  0.2808  0.8738  0.6298
  588MOL0     N77534   0.908   5.500   4.816 -0.1089  0.6983  0.1750
  588MOL0     N77535   0.818   5.534   4.898 -0.4485 -0.3470  0.1726
  588MOL0     C77536   0.230   5.803   5.446  0.7428  0.3177  0.5187
  588MOL0     C77537   0.250   5.935   5.478  0.0586  0.1420 -0.6863
  588MOL0     C77538   0.464   6.322   5.516 -0.8379  0.6631  0.2974
  588MOL0     C77539   0.584   6.376   5.559 -0.1667  0.1269 -0.2022
  588MOL0     C77540   0.597   6.505   5.606 -0.5898 -0.2338 -0.9748
  588MOL0     C77541   0.482   6.586   5.629  0.0158  0.2073  0.3482
  588MOL0     O77542   0.502   6.710   5.683  0.1376  0.2101 -0.4468
  588MOL0     C77543   0.402   6.796   5.652  0.0232  0.1056 -0.5574
  588MOL0     C77544   0.432   6.944   5.692 -0.4748 -0.4809 -0.1391
  588MOL0     C77545   0.306   7.037   5.642 -0.2485 -0.4046  1.3689
  588MOL0     C77546   0.330   7.181   5.688  0.4776  0.3312 -0.1399
  588MOL0     C77547   0.467   7.233   5.673 -0.0082  0.4544 -1.0641
  588MOL0     C77548   0.562   7.299   5.651  0.1601 -0.1804  0.0311
  588MOL0     C77549   0.366   6.539   5.581  0.1668 -0.6275 -0.6585
  588MOL0     C77550   0.357   6.406   5.526  0.3917  0.0980  0.2927
  588MOL0     H77551   0.401   6.042   5.196  1.9391 -3.4331 -0.9670
  588MOL0     H77552   0.349   5.795   5.135  1.1135 -3.4016  2.0199
  588MOL0     H77553   0.041   5.625   5.246  1.3469  0.5265 -1.5598
  588MOL0     H77554   0.078   5.589   5.401  0.0755 -0.5769 -0.5792
  588MOL0     H77555   0.000   5.394   5.296  0.0822 -0.5800  0.2402
  588MOL0     H77556   0.180   5.366   5.323  0.0668  0.2758 -0.2031
  588MOL0     H77557   0.209   5.478   5.083 -1.5900  1.1101 -0.9962
  588MOL0     H77558   0.056   5.420   5.052  1.9667 -0.2977 -1.7185
  588MOL0     H77559   0.208   5.208   5.176  1.3945 -0.7526 -0.2455
  588MOL0     H77560   0.137   5.200   5.023 -3.2992  0.2820  1.7583
  588MOL0     H77561   0.326   5.364   4.941  0.0032 -0.0807 -0.5444
  588MOL0     H77562   0.379   5.199   4.981  0.1963 -0.0449  1.9225
  588MOL0     H77563   0.439   5.257   5.213  2.1639  0.3653 -0.6782
  588MOL0     H77564   0.425   5.432   5.189  0.5020  0.2271  3.2376
  588MOL0     H77565   0.652   5.343   5.150  0.4253 -2.2961 -0.5696
  588MOL0     H77566   0.593   5.242   5.017 -1.0843 -0.9004  0.9318
  588MOL0     H77567   0.598   5.548   5.028  0.3688  1.2160 -3.2492
  588MOL0     H77568   0.513   5.467   4.908 -2.6213 -4.2189  1.3428
  588MOL0     H77569   0.676   5.272   4.758  1.5881  0.5549 -2.8717
  588MOL0     H77570   0.984   5.378   4.569 -0.2137  1.1564 -0.9513
  588MOL0     H77571   0.846   5.271   4.559 -0.0354  2.1012  0.1540
  588MOL0     H77572   1.044   5.207   4.783  0.6098 -0.4589 -0.1587
  588MOL0     H77573   1.114   5.207   4.617  1.9594  3.5043  2.9519
  588MOL0     H77574   0.868   5.049   4.718 -1.0437  1.3740 -1.5239
  588MOL0     H77575   0.905   5.045   4.556  2.0675 -1.7428 -0.5761
  588MOL0     H77576   1.103   4.932   4.752  1.9684  2.3534 -0.1499
  588MOL0     H77577   1.131   4.960   4.583 -0.4377  1.0483  0.3317
  588MOL0     H77578   1.256   4.770   4.618  0.9602  0.2687  0.5451
  588MOL0     H77579   1.350   4.545   4.549 -1.1382 -0.2916 -1.9780
  588MOL0     H77580   1.270   4.041   4.398  3.7082 -1.3144  1.0337
  588MOL0     H77581   1.410   3.897   4.260  2.9829  0.3839 -1.0166
  588MOL0     H77582   1.628   4.015   3.932 -1.2260  3.0462 -2.6218
  588MOL0     H77583   1.478   4.009   3.847 -2.2417 -2.6745 -0.5922
  588MOL0     H77584   1.645   3.760   3.901  1.4466  3.1136  2.1546
  588MOL0     H77585   1.664   3.864   3.760  1.6229 -0.7833  1.1747
  588MOL0     H77586   1.427   3.801   3.675  0.1959 -0.9284 -0.4505
  588MOL0     H77587   1.382   3.743   3.811 -0.4582 -0.7556 -1.3880
  588MOL0     H77588   1.601   3.645   3.619 -0.0841  0.3985  0.4889
  588MOL0     H77589   1.590   3.567   3.776  2.8897  2.0934 -0.9534
  588MOL0     H77590   1.395   3.558   3.548 -0.6803 -1.6349 -0.0984
  588MOL0     H77591   1.324   3.529   3.705  0.3084 -2.6421  0.4763
  588MOL0     H77592   1.465   3.352   3.736 -3.1013 -1.3869 -0.9442
  588MOL0     H77593   1.562   3.366   3.575  0.6965  1.1548 -0.5931
  588MOL0     H77594   1.274   3.297   3.603  1.4029 -2.5211  1.4113
  588MOL0     H77595   1.351   3.365   3.457  0.6387  3.0879  1.2365
  588MOL0     H77596   1.328   3.098   3.495  0.0905 -1.0454  2.7859
  588MOL0     H77597   1.427   3.117   3.630 -2.4245  2.1064  1.3208
  588MOL0     H77598   1.359   4.170   3.930 -2.2370 -0.2392 -0.6684
  588MOL0     H77599   1.271   4.332   4.098  0.1837  0.2127  1.0707
  588MOL0     H77600   0.952   4.415   4.447 -1.7842  0.9404  2.4047
  588MOL0     H77601   0.863   4.614   4.542  0.2009  0.0747  0.8174
  588MOL0     H77602   0.177   5.732   5.508 -0.9764  0.8963 -0.2310
  588MOL0     H77603   0.218   5.978   5.573 -3.3456  0.0388 -1.6329
  588MOL0     H77604   0.673   6.315   5.547 -1.2641 -2.0146  1.7648
  588MOL0     H77605   0.698   6.542   5.623 -0.4117 -0.1628 -2.1007
  588MOL0     H77606   0.313   6.758   5.703  1.7785 -0.1437  2.5872
  588MOL0     H77607   0.404   6.805   5.543 -1.2065  2.5780 -0.4423
  588MOL0     H77608   0.438   6.966   5.799 -2.3137  3.6931 -0.6949
  588MOL0     H77609   0.522   6.973   5.637 -1.2280  2.4332 -0.0136
  588MOL0     H77610   0.217   6.995   5.689 -1.8860  2.2762  0.8397
  588MOL0     H77611   0.297   7.034   5.533  1.6136  0.1182  1.1582
  588MOL0     H77612   0.262   7.249   5.636 -0.5496 -0.6307 -0.0789
  588MOL0     H77613   0.311   7.183   5.795  2.6304 -2.4920  0.3954
  588MOL0     H77614   0.646   7.364   5.645 -2.6632  4.7884  4.8881
  588MOL0     H77615   0.280   6.605   5.587  1.1453  0.6286  0.4213
  588MOL0     H77616   0.257   6.388   5.488  1.2785  0.2715 -2.2485
  589MOL0     O77617   9.629   6.736  11.137 -0.3366 -0.7465  0.2760
  589MOL0     C77618   9.633   6.787  11.021  0.2716  0.0740 -0.3370
  589MOL0     O77619   9.679   6.735  10.904 -0.2884 -0.5114 -0.5703
  589MOL0     C77620   9.737   6.609  10.917 -0.4808  0.2414  0.2548
  589MOL0     C77621   9.701   6.512  10.821  0.5746 -0.4518  0.6923
  589MOL0     C77622   9.760   6.385  10.824 -0.1876  0.2497  0.2820
  589MOL0     C77623   9.857   6.356  10.916  0.1615  0.4406 -1.0485
  589MOL0     O77624   9.917   6.231  10.907  0.1069 -0.2662 -0.5848
  589MOL0     C77625   9.915   6.130  11.011 -0.0780  0.0801  0.5730
  589MOL0     C77626   9.816   6.029  10.948  0.5007 -0.4864  0.3498
  589MOL0     C77627   9.829   5.888  11.008  0.6051  0.1443 -0.4443
  589MOL0     C77628   9.711   5.787  10.982  0.7718  0.3344  0.6724
  589MOL0     C77629   9.729   5.642  11.036 -0.2518 -0.5771 -0.6728
  589MOL0     C77630   9.709   5.650  11.194  0.7392  0.3072 -0.3878
  589MOL0     C77631   9.678   5.504  11.254  0.1179 -0.5066 -0.3373
  589MOL0     C77632   9.800   5.411  11.232  0.5739 -1.6034 -0.1591
  589MOL0     N77633   9.799   5.275  11.287  0.1615 -0.0161 -0.3426
  589MOL0     C77634   9.768   5.157  11.230 -0.2026 -0.2882  0.0620
  589MOL0     C77635   9.802   5.059  11.313  0.4368  0.9300  0.4798
  589MOL0     C77636   9.784   4.903  11.281 -1.1571  0.8789  0.4625
  589MOL0     C77637   9.896   4.860  11.185 -0.8052  0.2053 -0.4487
  589MOL0     C77638   9.899   4.917  11.038 -0.1877 -0.6530 -0.2108
  589MOL0     C77639   9.967   4.831  10.924 -0.1721  0.9063 -0.4180
  589MOL0     O77640  10.102   4.813  10.977  0.0201  0.1089 -0.5928
  589MOL0     C77641  10.203   4.751  10.910  0.1389  0.7014 -0.5211
  589MOL0     C77642  10.185   4.696  10.790  0.0359 -0.6422 -0.4827
  589MOL0     C77643  10.292   4.622  10.724 -0.0685 -1.0158 -0.5609
  589MOL0     C77644  10.414   4.601  10.793 -0.3018  0.8486 -1.4791
  589MOL0     C77645  10.535   4.517  10.740  0.1165  0.2815 -0.1281
  589MOL0     O77646  10.663   4.554  10.786  0.2054  0.5817  0.3361
  589MOL0     C77647  10.762   4.476  10.734  0.4523  0.4969 -0.4574
  589MOL0     C77648  10.846   4.539  10.641  1.0796 -0.5856 -0.2659
  589MOL0     C77649  10.945   4.464  10.575 -0.0727  0.4002 -0.0622
  589MOL0     C77650  10.975   4.328  10.616 -0.8713 -0.3495 -0.1585
  589MOL0     O77651  11.074   4.254  10.567  0.4468  0.3214 -0.0867
  589MOL0     C77652  11.076   4.257  10.423 -0.1263 -0.0915  0.3465
  589MOL0     C77653  11.162   4.148  10.366  0.4297  0.1611  0.5841
  589MOL0     C77654  11.090   4.012  10.383 -0.6879 -0.7011  0.4008
  589MOL0     C77655  11.183   3.893  10.355  0.2281 -0.4313 -1.3290
  589MOL0     C77656  11.235   3.875  10.216 -0.6099  0.2089 -0.5199
  589MOL0     C77657  11.117   3.859  10.120 -0.5692 -0.0967  0.3879
  589MOL0     C77658  11.164   3.816   9.978  0.0535  1.0225 -0.1501
  589MOL0     C77659  11.255   3.915   9.901 -0.0004  1.0513  0.4086
  589MOL0    Cl77660  11.292   3.827   9.745  0.4568 -0.4490  0.3188
  589MOL0     C77661  10.908   4.278  10.734  0.4484 -0.7305  0.0222
  589MOL0     C77662  10.796   4.348  10.780  0.1735  0.5205 -0.0405
  589MOL0     O77663  10.514   4.429  10.658  0.5857 -0.5961 -0.6105
  589MOL0     C77664  10.432   4.661  10.918  0.6408 -0.3338 -0.3126
  589MOL0     C77665  10.326   4.731  10.975  1.4567  0.4803  0.8996
  589MOL0     N77666   9.848   5.115  11.428  1.0059 -0.0598 -0.7315
  589MOL0     N77667   9.844   5.241  11.409 -0.4297 -0.2718  0.3455
  589MOL0     C77668   9.895   6.453  11.014  0.0631  0.8742  0.4585
  589MOL0     C77669   9.845   6.575  11.006  0.7621 -0.0813  0.9806
  589MOL0     C77670   9.587   6.933  11.015 -0.2973 -0.4004 -0.7217
  589MOL0     C77671   9.661   7.017  10.933 -0.4208 -1.4526  0.5261
  589MOL0     C77672   9.619   7.150  10.893  0.4959  0.0416 -0.7010
  589MOL0     C77673   9.505   7.211  10.960 -0.0589  0.6129 -0.7964
  589MOL0     O77674   9.462   7.333  10.912  0.1675 -0.0435 -0.0854
  589MOL0     C77675   9.329   7.371  10.938  0.3138  0.0314  0.1822
  589MOL0     C77676   9.311   7.524  10.938  0.3725  0.4361  0.1012
  589MOL0     C77677   9.158   7.554  10.942 -0.2837  0.9032 -0.3133
  589MOL0     C77678   9.077   7.545  10.816 -0.3965 -0.4154 -0.0691
  589MOL0     C77679   9.150   7.616  10.706 -0.7940  0.2282 -0.3943
  589MOL0     C77680   9.216   7.652  10.615 -0.8987  0.1376  1.0468
  589MOL0     C77681   9.440   7.124  11.058 -0.5461  0.5872  0.5198
  589MOL0     C77682   9.479   6.995  11.096 -0.7067  0.5777 -0.6540
  589MOL0     H77683   9.639   6.554  10.742 -1.1196 -2.4037  0.8910
  589MOL0     H77684   9.748   6.317  10.740  2.2259  1.3621 -1.0672
  589MOL0     H77685   9.888   6.163  11.112  0.1267 -0.6549  0.8704
  589MOL0     H77686  10.017   6.090  11.002  0.7617  2.4444 -4.1592
  589MOL0     H77687   9.822   6.021  10.839 -3.6858  1.3346 -0.2267
  589MOL0     H77688   9.717   6.067  10.974  0.6199 -0.5863  0.9713
  589MOL0     H77689   9.830   5.912  11.115  2.1341  4.8436 -1.2429
  589MOL0     H77690   9.925   5.842  10.984 -0.5613 -2.4304 -0.5478
  589MOL0     H77691   9.625   5.825  11.039  1.3345  2.0364  0.4369
  589MOL0     H77692   9.686   5.777  10.876  1.2440  0.1557  0.5729
  589MOL0     H77693   9.832   5.617  11.008  0.1845 -0.0413  0.3595
  589MOL0     H77694   9.657   5.578  10.986 -1.0002 -0.1132 -0.2044
  589MOL0     H77695   9.627   5.715  11.224  0.0423 -0.9268  0.4498
  589MOL0     H77696   9.796   5.701  11.238 -1.1729  2.9243  0.6237
  589MOL0     H77697   9.666   5.526  11.360 -0.1705  3.7808 -1.0588
  589MOL0     H77698   9.585   5.470  11.208  0.8830 -0.1865 -2.2483
  589MOL0     H77699   9.889   5.464  11.266 -1.0397  0.6631  0.7747
  589MOL0     H77700   9.799   5.406  11.123 -0.1289  2.3131 -0.4754
  589MOL0     H77701   9.725   5.132  11.133 -0.0615  2.3443 -0.7559
  589MOL0     H77702   9.687   4.878  11.236 -0.6188  0.0939 -0.2850
  589MOL0     H77703   9.791   4.839  11.369 -0.9286 -0.2158 -0.3270
  589MOL0     H77704   9.897   4.752  11.167  0.3129  0.2136 -0.5228
  589MOL0     H77705   9.989   4.883  11.238 -1.3267 -1.6572  1.4284
  589MOL0     H77706   9.799   4.940  11.000 -1.0579 -0.9041  1.7700
  589MOL0     H77707   9.958   5.008  11.054  0.1076 -1.1057  1.6047
  589MOL0     H77708   9.981   4.886  10.831  2.7904  3.1657  1.1890
  589MOL0     H77709   9.939   4.725  10.921 -0.4417  0.7802  2.6846
  589MOL0     H77710  10.093   4.712  10.734 -0.0814 -2.8131 -0.9872
  589MOL0     H77711  10.269   4.570  10.631 -3.8087 -0.0949 -0.3236
  589MOL0     H77712  10.821   4.637  10.601 -0.0439 -0.1653  1.3364
  589MOL0     H77713  10.998   4.519  10.498  0.4858 -0.6508 -0.4459
  589MOL0     H77714  11.118   4.351  10.386 -0.1197  0.0620  0.7374
  589MOL0     H77715  10.971   4.260  10.392 -0.9964 -0.7991  2.9396
  589MOL0     H77716  11.254   4.149  10.425  0.2411  0.4029  0.8771
  589MOL0     H77717  11.183   4.167  10.260  2.2242  1.2479  1.0888
  589MOL0     H77718  10.990   4.011  10.337 -0.9564  2.1315  0.7812
  589MOL0     H77719  11.062   4.004  10.488  1.2809  0.9863  1.1092
  589MOL0     H77720  11.261   3.911  10.429 -0.8505 -2.0956  0.3137
  589MOL0     H77721  11.133   3.799  10.384  0.5573 -1.0538 -2.7239
  589MOL0     H77722  11.299   3.787  10.206 -0.3955  0.3969 -0.8189
  589MOL0     H77723  11.296   3.965  10.202 -2.4872  2.0091  1.8883
  589MOL0     H77724  11.071   3.957  10.111  2.0962  1.5420  2.7790
  589MOL0     H77725  11.039   3.796  10.164 -2.6807  1.4425 -0.9776
  589MOL0     H77726  11.211   3.717   9.982 -0.0813  0.9739  0.2410
  589MOL0     H77727  11.085   3.807   9.903  1.4745 -1.6174 -1.4610
  589MOL0     H77728  11.348   3.931   9.956  0.6390 -1.4001  0.1305
  589MOL0     H77729  11.221   4.019   9.888  1.6239  1.2911 -3.0753
  589MOL0     H77730  10.949   4.190  10.782  3.8865  0.9858  0.5642
  589MOL0     H77731  10.735   4.304  10.859 -2.3246  4.7988  0.6902
  589MOL0     H77732  10.520   4.657  10.981  2.2710 -0.5601 -2.5174
  589MOL0     H77733  10.345   4.782  11.069  2.5050 -1.4614  1.7948
  589MOL0     H77734   9.975   6.429  11.083  0.6050  1.1022 -0.0849
  589MOL0     H77735   9.885   6.664  11.054  0.9408  1.7111 -2.1935
  589MOL0     H77736   9.753   6.983  10.886 -0.1601  0.4424 -0.4588
  589MOL0     H77737   9.672   7.212  10.821  1.1341  1.9503  1.2893
  589MOL0     H77738   9.297   7.342  11.038  1.0425 -0.4312  0.2880
  589MOL0     H77739   9.279   7.323  10.853 -1.6973  0.9883  0.7589
  589MOL0     H77740   9.364   7.573  11.020  1.2669  2.1140 -1.4075
  589MOL0     H77741   9.353   7.571  10.848 -2.6433  1.5274 -0.8472
  589MOL0     H77742   9.145   7.654  10.985 -0.7622  1.4485 -1.6964
  589MOL0     H77743   9.102   7.486  11.006  1.6601 -1.4861 -1.0152
  589MOL0     H77744   9.065   7.443  10.778 -2.3301  0.2850 -1.5316
  589MOL0     H77745   8.977   7.586  10.836  0.8822  2.1975  1.4844
  589MOL0     H77746   9.275   7.681  10.530 -0.9876 -4.1998 -0.7290
  589MOL0     H77747   9.359   7.173  11.110 -0.4598  0.5454  0.6947
  589MOL0     H77748   9.424   6.944  11.174  0.9650 -0.7730 -0.2884
  590MOL0     O77749   2.278   3.752   6.961 -0.2174 -0.4876 -0.4888
  590MOL0     C77750   2.330   3.826   7.043  0.2741 -0.7948 -0.6466
  590MOL0     O77751   2.301   3.836   7.177 -0.2754  0.4739 -0.2868
  590MOL0     C77752   2.176   3.790   7.212 -0.1537 -0.3061 -0.0504
  590MOL0     C77753   2.166   3.667   7.272 -0.3452 -0.0879 -0.6467
  590MOL0     C77754   2.052   3.616   7.320  0.9066 -0.5351  0.2732
  590MOL0     C77755   1.926   3.692   7.296 -1.1218  0.4382  0.1052
  590MOL0     O77756   1.814   3.624   7.330  0.0312 -0.0284  0.0811
  590MOL0     C77757   1.698   3.712   7.332  0.1807 -0.3494 -0.2724
  590MOL0     C77758   1.579   3.637   7.370  0.0381  0.0948  0.5171
  590MOL0     C77759   1.444   3.708   7.378  0.2539  0.4029 -0.3169
  590MOL0     C77760   1.438   3.836   7.465 -0.6718 -0.2662 -0.2816
  590MOL0     C77761   1.288   3.885   7.454  0.0553 -0.1990 -0.1505
  590MOL0     C77762   1.257   3.947   7.319 -0.0430  0.2542 -0.1744
  590MOL0     C77763   1.120   4.011   7.320 -0.6584 -0.4427 -0.5717
  590MOL0     C77764   1.051   4.011   7.184  0.6772 -0.5157 -0.5183
  590MOL0     N77765   0.916   4.064   7.198  0.1801 -0.2311 -0.5713
  590MOL0     C77766   0.803   3.992   7.171  0.3503 -0.1521 -0.2811
  590MOL0     C77767   0.694   4.065   7.173 -0.9914 -0.8959  0.6898
  590MOL0     C77768   0.556   4.002   7.157  0.1279 -1.3050  0.7723
  590MOL0     C77769   0.513   3.930   7.285 -0.1235 -0.1098 -1.4640
  590MOL0     C77770   0.381   3.841   7.280  0.5074  0.1332 -0.2511
  590MOL0     C77771   0.306   3.797   7.409  0.0360  0.1844  0.7668
  590MOL0     O77772   0.180   3.841   7.436 -0.1302  0.0745 -0.0934
  590MOL0     C77773   0.127   3.972   7.432 -0.2253  1.0896 -0.3214
  590MOL0     C77774   0.206   4.086   7.409  0.7753 -0.8083 -0.7723
  590MOL0     C77775   0.146   4.211   7.401  0.4034  0.2623 -0.3137
  590MOL0     C77776   0.000   4.215   7.395 -0.8273 -0.6882 -0.6208
  590MOL0     C77777  -0.076   4.347   7.410 -0.4072 -0.2511  0.1212
  590MOL0     O77778  -0.010   4.464   7.444  0.4574  0.4016 -0.7215
  590MOL0     C77779  -0.089   4.572   7.488 -1.4810 -0.1902  0.0260
  590MOL0     C77780  -0.216   4.612   7.434  0.4340 -0.0736  0.1284
  590MOL0     C77781  -0.281   4.725   7.484 -0.1188 -0.1966 -0.0946
  590MOL0     C77782  -0.227   4.808   7.580  0.4034 -0.1686 -0.4114
  590MOL0     O77783  -0.263   4.938   7.615 -0.4582  0.5316 -0.6719
  590MOL0     C77784  -0.333   5.016   7.510  0.1926  0.5960  0.5115
  590MOL0     C77785  -0.338   5.170   7.542 -1.2091  0.0968 -0.1509
  590MOL0     C77786  -0.420   5.196   7.672  0.9424 -0.0798  0.1215
  590MOL0     C77787  -0.417   5.341   7.713 -0.1170 -0.2563  0.0866
  590MOL0     C77788  -0.283   5.394   7.761 -0.7543 -0.3694 -0.2012
  590MOL0     C77789  -0.207   5.299   7.853 -0.2893  0.2054  0.7408
  590MOL0     C77790  -0.076   5.366   7.914  0.2441  0.6746  0.0212
  590MOL0     C77791   0.039   5.357   7.813 -0.1547 -0.9155 -0.1905
  590MOL0    Cl77792   0.095   5.200   7.785 -0.0239  0.2043 -0.2630
  590MOL0     C77793  -0.104   4.764   7.640  0.4453  0.4977  0.1101
  590MOL0     C77794  -0.031   4.656   7.589 -0.0912  0.0689 -0.4496
  590MOL0     O77795  -0.196   4.338   7.403 -0.1415  0.7203  1.1564
  590MOL0     C77796  -0.066   4.093   7.409  0.7226 -0.2455 -0.3090
  590MOL0     C77797  -0.006   3.974   7.430 -0.5135 -0.3828  0.4638
  590MOL0     N77798   0.739   4.194   7.193  0.4971  1.5003  0.1311
  590MOL0     N77799   0.867   4.188   7.209 -0.2068  1.0062 -1.2599
  590MOL0     C77800   1.939   3.821   7.242  0.4452 -0.5421  0.7552
  590MOL0     C77801   2.067   3.863   7.202  1.5516 -0.0999  0.3930
  590MOL0     C77802   2.431   3.933   7.000  1.0839  0.1971  0.0144
  590MOL0     C77803   2.474   4.046   7.077 -0.2233 -0.5845 -0.1671
  590MOL0     C77804   2.548   4.146   7.029 -1.4779  0.4160 -0.7508
  590MOL0     C77805   2.578   4.149   6.888 -0.0808  0.0598  0.0126
  590MOL0     O77806   2.668   4.230   6.830  0.2328 -0.4156 -0.5896
  590MOL0     C77807   2.658   4.369   6.868 -0.6883 -0.4926 -0.5036
  590MOL0     C77808   2.738   4.454   6.769  1.0624  1.1206  0.0207
  590MOL0     C77809   2.881   4.410   6.756 -0.0747 -0.0315 -0.6154
  590MOL0     C77810   2.968   4.528   6.708 -0.6163 -0.5328  0.3715
  590MOL0     C77811   3.095   4.488   6.641  1.6790 -1.0090  0.2983
  590MOL0     C77812   3.204   4.474   6.592  0.0106  0.1038  0.8566
  590MOL0     C77813   2.547   4.039   6.812  0.9429  0.3831 -1.0034
  590MOL0     C77814   2.462   3.935   6.867  1.3754 -0.1476 -0.3251
  590MOL0     H77815   2.260   3.614   7.285  0.9674  2.1111 -0.6235
  590MOL0     H77816   2.050   3.517   7.364 -0.4392 -1.2614 -1.3350
  590MOL0     H77817   1.665   3.761   7.240 -0.5354  3.5265  1.8084
  590MOL0     H77818   1.714   3.793   7.404  1.4239  0.4369 -1.3888
  590MOL0     H77819   1.590   3.603   7.474 -1.4677  3.4850  1.9476
  590MOL0     H77820   1.567   3.553   7.302 -1.8950  1.4689 -0.9593
  590MOL0     H77821   1.360   3.640   7.398  0.6541 -0.6677 -2.0884
  590MOL0     H77822   1.429   3.737   7.273  0.0547  0.6754 -0.2162
  590MOL0     H77823   1.467   3.818   7.569  2.2723  0.6826 -0.8498
  590MOL0     H77824   1.503   3.907   7.414 -0.3625  1.1259  1.9253
  590MOL0     H77825   1.274   3.969   7.523  0.0218  0.2013 -0.6379
  590MOL0     H77826   1.224   3.802   7.485 -0.1231 -0.5328 -1.3599
  590MOL0     H77827   1.272   3.879   7.234  1.2873  0.2852  0.0134
  590MOL0     H77828   1.337   4.020   7.298  1.0483 -1.5282 -2.8802
  590MOL0     H77829   1.051   3.975   7.397 -1.0199 -0.0338 -0.6953
  590MOL0     H77830   1.126   4.115   7.353 -0.1923 -0.0589 -1.8016
  590MOL0     H77831   1.049   3.909   7.144 -2.0385 -0.3294 -1.0856
  590MOL0     H77832   1.109   4.078   7.121 -0.9599  0.6922 -0.8085
  590MOL0     H77833   0.813   3.885   7.152  0.5734 -0.0242 -0.9483
  590MOL0     H77834   0.551   3.932   7.074  1.2224 -1.1990  0.6053
  590MOL0     H77835   0.480   4.075   7.131  4.0955  2.5452 -1.2968
  590MOL0     H77836   0.496   4.016   7.350  2.6847  1.1946 -2.3166
  590MOL0     H77837   0.600   3.876   7.324  0.6095  0.6657 -1.9702
  590MOL0     H77838   0.317   3.889   7.206  0.2160  0.5646  0.2771
  590MOL0     H77839   0.419   3.759   7.219 -1.9127 -0.7121 -0.7147
  590MOL0     H77840   0.364   3.826   7.497  0.1176 -1.6902  1.3954
  590MOL0     H77841   0.295   3.688   7.417 -1.3128  0.3821  1.7302
  590MOL0     H77842   0.313   4.072   7.414  1.0351  1.1741  0.0315
  590MOL0     H77843   0.213   4.296   7.393  0.5476  0.1589 -0.2058
  590MOL0     H77844  -0.273   4.552   7.364 -1.4220  2.5961 -0.7959
  590MOL0     H77845  -0.382   4.755   7.459 -0.2594 -1.3913 -1.0822
  590MOL0     H77846  -0.432   4.971   7.500  0.6397 -0.2390 -0.3325
  590MOL0     H77847  -0.286   4.988   7.415 -0.3236  1.5433 -0.0399
  590MOL0     H77848  -0.392   5.222   7.463  0.6569  0.4718 -1.2439
  590MOL0     H77849  -0.233   5.200   7.545 -0.5534 -1.9680 -1.0682
  590MOL0     H77850  -0.389   5.131   7.755 -1.6217 -0.3098  1.0142
  590MOL0     H77851  -0.523   5.167   7.646  0.6633  0.5769  0.4696
  590MOL0     H77852  -0.460   5.403   7.634  3.2280  0.1008 -1.6348
  590MOL0     H77853  -0.470   5.350   7.808  0.8403 -0.6586  0.6763
  590MOL0     H77854  -0.304   5.485   7.818 -0.5968 -0.1046 -0.5659
  590MOL0     H77855  -0.222   5.430   7.678  0.1905 -0.0265  0.6120
  590MOL0     H77856  -0.181   5.211   7.795 -2.2876  1.2295 -1.9065
  590MOL0     H77857  -0.282   5.270   7.927 -0.7722  0.2316  0.2648
  590MOL0     H77858  -0.090   5.474   7.927 -0.1301  0.3685  2.6183
  590MOL0     H77859  -0.056   5.330   8.015  1.4555  2.2683  0.3972
  590MOL0     H77860   0.124   5.420   7.842 -0.9170  1.7265 -3.1586
  590MOL0     H77861   0.001   5.405   7.722 -0.5551  0.1009  0.4983
  590MOL0     H77862  -0.061   4.815   7.726  1.0534 -1.3945  0.9925
  590MOL0     H77863   0.058   4.621   7.641 -1.3884 -1.2136  0.9963
  590MOL0     H77864  -0.175   4.098   7.406  0.5492 -0.2767  2.7702
  590MOL0     H77865  -0.073   3.892   7.451 -0.7690 -0.7754 -1.6844
  590MOL0     H77866   1.866   3.900   7.225 -0.5946 -1.4085  1.0091
  590MOL0     H77867   2.091   3.965   7.175  0.2525  0.3348  0.8308
  590MOL0     H77868   2.452   4.053   7.183  0.7434 -1.0924  0.0741
  590MOL0     H77869   2.588   4.224   7.093  0.1063 -0.2440 -0.8931
  590MOL0     H77870   2.711   4.375   6.964  1.9076 -1.8112 -1.7408
  590MOL0     H77871   2.560   4.416   6.873 -0.0584  0.7184  1.6037
  590MOL0     H77872   2.688   4.454   6.672  1.0581  2.1515  0.0087
  590MOL0     H77873   2.748   4.557   6.806  3.0308  0.6535  0.8953
  590MOL0     H77874   2.880   4.335   6.676 -1.1282  1.3250 -1.9216
  590MOL0     H77875   2.927   4.386   6.852  0.7199 -0.6652 -1.1300
  590MOL0     H77876   2.921   4.567   6.618  1.4176  1.4006  0.0646
  590MOL0     H77877   2.978   4.606   6.785 -3.2729  1.5938 -1.2297
  590MOL0     H77878   3.303   4.464   6.553 -0.2998 -0.4449  0.1865
  590MOL0     H77879   2.583   4.024   6.711  1.4978 -0.8319 -0.6410
  590MOL0     H77880   2.425   3.865   6.793 -2.5155  0.4816  0.7831
  591MOL0     O77881   4.652   7.612   1.564 -0.4382 -0.1391 -0.1133
  591MOL0     C77882   4.670   7.543   1.461 -0.4484 -0.2151 -0.4818
  591MOL0     O77883   4.637   7.586   1.332  0.4421 -0.4332 -0.5270
  591MOL0     C77884   4.535   7.679   1.311 -0.4572 -0.1704  0.0669
  591MOL0     C77885   4.434   7.701   1.400 -0.7170 -0.5172 -0.3030
  591MOL0     C77886   4.338   7.803   1.362 -0.4161  0.0274 -0.1293
  591MOL0     C77887   4.350   7.876   1.241 -0.2016  1.1424  0.3713
  591MOL0     O77888   4.250   7.958   1.200  0.2401 -0.9249 -0.3803
  591MOL0     C77889   4.167   7.879   1.117 -0.1167 -0.6487 -0.3543
  591MOL0     C77890   4.069   7.964   1.042  0.2713 -0.2633 -0.2947
  591MOL0     C77891   3.961   8.046   1.123  0.3970 -0.0342 -0.5244
  591MOL0     C77892   3.882   7.976   1.235 -0.0483 -0.7762  0.5960
  591MOL0     C77893   3.793   7.856   1.199  0.2028  1.1163 -0.4081
  591MOL0     C77894   3.681   7.836   1.313  0.0543  0.1543 -0.4407
  591MOL0     C77895   3.583   7.724   1.299 -0.1334 -0.5781 -1.0959
  591MOL0     C77896   3.484   7.709   1.416  0.6242 -0.6553  0.4506
  591MOL0     N77897   3.377   7.814   1.402 -0.5770 -0.0485 -0.6974
  591MOL0     C77898   3.270   7.807   1.301 -0.4581  0.2406 -0.4614
  591MOL0     C77899   3.177   7.890   1.353 -0.1833 -0.2259 -0.0938
  591MOL0     C77900   3.047   7.928   1.286 -0.2796 -0.2743  1.0540
  591MOL0     C77901   2.930   7.917   1.380  0.5497  0.6843  0.3093
  591MOL0     C77902   2.910   7.772   1.415 -0.3595 -0.3470 -1.1806
  591MOL0     C77903   2.783   7.767   1.493  0.5674  0.3998  0.4578
  591MOL0     O77904   2.822   7.804   1.628 -0.0165 -0.8862 -0.1046
  591MOL0     C77905   2.724   7.861   1.712  0.8616  0.2646 -0.5770
  591MOL0     C77906   2.751   7.910   1.837 -0.1615 -0.1336  0.1314
  591MOL0     C77907   2.651   7.962   1.921 -0.2377  0.4929 -0.3201
  591MOL0     C77908   2.517   7.971   1.871 -0.1248 -0.0581  0.4190
  591MOL0     C77909   2.414   8.019   1.969 -0.2673 -0.4278  0.2467
  591MOL0     O77910   2.463   8.102   2.062 -0.3553  0.2851  0.3710
  591MOL0     C77911   2.378   8.143   2.154 -0.3972 -0.2435  0.4303
  591MOL0     C77912   2.301   8.253   2.137  0.3304  0.4686  0.4540
  591MOL0     C77913   2.218   8.300   2.232 -0.2627  0.6125 -0.1693
  591MOL0     C77914   2.187   8.227   2.354  0.6155 -0.7485  0.1765
  591MOL0     O77915   2.095   8.285   2.438 -0.6774  0.3306 -0.4477
  591MOL0     C77916   2.096   8.239   2.577  0.1147  0.0524 -0.0866
  591MOL0     C77917   2.032   8.342   2.666  0.3160  0.0846  0.3164
  591MOL0     C77918   1.882   8.357   2.641 -0.1370  0.1910  0.4451
  591MOL0     C77919   1.806   8.418   2.761 -0.3446  0.3624  0.7393
  591MOL0     C77920   1.668   8.473   2.726 -0.7354  0.8439 -0.4789
  591MOL0     C77921   1.661   8.625   2.758  0.7673 -0.5495  0.7164
  591MOL0     C77922   1.520   8.676   2.724  0.5014  0.6963 -0.3966
  591MOL0     C77923   1.514   8.833   2.749 -0.1027  0.1514 -0.9019
  591MOL0    Cl77924   1.632   8.940   2.670  0.3912  0.3508  0.2614
  591MOL0     C77925   2.262   8.109   2.363  0.4609  0.2372 -0.4361
  591MOL0     C77926   2.365   8.074   2.273  0.6683 -0.8686 -0.4299
  591MOL0     O77927   2.299   7.980   1.953  0.0553 -0.8395 -0.5666
  591MOL0     C77928   2.481   7.922   1.743 -0.4021  0.4724  0.2611
  591MOL0     C77929   2.581   7.855   1.674  0.1058  0.1530  0.6447
  591MOL0     N77930   3.231   7.952   1.467 -0.4882  0.2988  0.0930
  591MOL0     N77931   3.346   7.908   1.493 -0.4444  0.1780 -0.4179
  591MOL0     C77932   4.460   7.855   1.158 -0.4407 -0.6672 -0.0042
  591MOL0     C77933   4.547   7.756   1.191  0.1777 -0.5259 -0.9727
  591MOL0     C77934   4.734   7.409   1.465 -0.9392  0.2228 -0.5854
  591MOL0     C77935   4.726   7.328   1.579 -0.3989  0.0751  0.4744
  591MOL0     C77936   4.775   7.195   1.586 -0.4020  0.2758  1.0633
  591MOL0     C77937   4.836   7.139   1.472  0.8124 -0.8235  0.0293
  591MOL0     O77938   4.912   7.023   1.472  0.8094 -0.7272 -0.0556
  591MOL0     C77939   4.944   6.969   1.604 -0.3910 -0.7577 -0.2085
  591MOL0     C77940   5.007   6.830   1.611 -0.8522 -0.3512  0.4427
  591MOL0     C77941   4.924   6.724   1.540  0.5782  0.1892  0.6898
  591MOL0     C77942   4.946   6.713   1.388  0.4116 -0.3420  0.5236
  591MOL0     C77943   5.084   6.683   1.357  0.3222 -0.2351  0.7530
  591MOL0     C77944   5.193   6.645   1.335 -0.2094  0.6108  0.1281
  591MOL0     C77945   4.842   7.222   1.356  0.1442  0.3088  0.0733
  591MOL0     C77946   4.783   7.351   1.349  0.1802 -1.0761 -0.4309
  591MOL0     H77947   4.424   7.642   1.491 -2.5042 -0.5839 -0.5087
  591MOL0     H77948   4.261   7.836   1.431  2.2191  2.7368  1.7598
  591MOL0     H77949   4.116   7.797   1.168 -0.7823 -0.5752 -0.8709
  591MOL0     H77950   4.225   7.830   1.038 -0.1276 -2.0747  0.5047
  591MOL0     H77951   4.017   7.887   0.984 -2.4525 -0.3309  2.0233
  591MOL0     H77952   4.116   8.038   0.977 -0.6732 -0.1456 -0.8696
  591MOL0     H77953   3.888   8.090   1.055 -0.6546  0.7349  1.0229
  591MOL0     H77954   4.017   8.132   1.160  0.9609 -1.5611  2.5403
  591MOL0     H77955   3.953   7.944   1.311  0.1507 -0.1161  0.6879
  591MOL0     H77956   3.830   8.058   1.285  0.1800 -0.2065 -0.0894
  591MOL0     H77957   3.847   7.762   1.187  0.6643  0.9940  2.0010
  591MOL0     H77958   3.733   7.883   1.112  1.8829  0.4322 -1.8191
  591MOL0     H77959   3.626   7.930   1.327  3.0615  1.5629  3.6944
  591MOL0     H77960   3.743   7.825   1.402  1.6402 -0.6723 -1.5922
  591MOL0     H77961   3.520   7.740   1.211 -2.8673 -2.6873  0.3033
  591MOL0     H77962   3.630   7.626   1.286 -1.0968 -0.9894 -1.5875
  591MOL0     H77963   3.543   7.715   1.508  3.5576 -0.8753 -1.2831
  591MOL0     H77964   3.437   7.610   1.417  1.4062 -1.0381  0.2372
  591MOL0     H77965   3.265   7.746   1.211  0.8968  0.4208 -0.6783
  591MOL0     H77966   3.029   7.875   1.192  0.8992  0.6685  0.2481
  591MOL0     H77967   3.054   8.034   1.257 -1.8476 -0.2795  0.5663
  591MOL0     H77968   2.843   7.974   1.345 -0.0814  0.4784  1.4934
  591MOL0     H77969   2.959   7.958   1.477  1.7073 -1.3865  0.8981
  591MOL0     H77970   2.916   7.698   1.335  0.2020 -3.5352  1.5827
  591MOL0     H77971   2.995   7.742   1.478  1.0404  0.1314 -2.7658
  591MOL0     H77972   2.746   7.665   1.507  2.5059 -0.3504  0.4758
  591MOL0     H77973   2.710   7.830   1.442  2.5288  3.1160  0.7721
  591MOL0     H77974   2.854   7.914   1.870  0.1655  0.4229 -0.9170
  591MOL0     H77975   2.684   7.994   2.019 -4.0043 -0.3612  1.4061
  591MOL0     H77976   2.316   8.307   2.045 -1.0583 -2.2613 -1.5274
  591MOL0     H77977   2.169   8.392   2.201 -2.1927  0.0064  0.8678
  591MOL0     H77978   2.193   8.224   2.624  0.1558 -0.8053 -0.4288
  591MOL0     H77979   2.037   8.147   2.567 -2.0668  1.3069  0.4792
  591MOL0     H77980   2.079   8.441   2.657 -3.2348  2.0246  0.8798
  591MOL0     H77981   2.050   8.303   2.766  0.6949  1.3711  0.7764
  591MOL0     H77982   1.829   8.265   2.617  0.9520 -1.5873  4.1566
  591MOL0     H77983   1.865   8.433   2.564  0.3611  0.7272  0.8585
  591MOL0     H77984   1.787   8.347   2.842 -0.9097  1.3859  1.5450
  591MOL0     H77985   1.876   8.499   2.786  0.3849  0.1086 -0.4378
  591MOL0     H77986   1.596   8.413   2.782  0.5308  0.9091  1.3402
  591MOL0     H77987   1.638   8.461   2.622 -1.4736 -0.2526 -0.1527
  591MOL0     H77988   1.729   8.675   2.688 -0.9681  1.0046  0.0694
  591MOL0     H77989   1.694   8.653   2.858  1.9584  0.6133  0.0258
  591MOL0     H77990   1.505   8.665   2.617 -1.3714 -0.8114 -0.0268
  591MOL0     H77991   1.444   8.630   2.789  0.1631  1.7217 -0.0456
  591MOL0     H77992   1.514   8.857   2.856 -1.6397  1.9359 -1.2395
  591MOL0     H77993   1.417   8.868   2.711  0.4065  1.7781 -0.8074
  591MOL0     H77994   2.247   8.053   2.455 -2.1026  1.9702  0.3409
  591MOL0     H77995   2.419   7.982   2.292 -0.6751 -1.6193 -0.0581
  591MOL0     H77996   2.377   7.925   1.711  0.6948  0.3955 -3.8245
  591MOL0     H77997   2.541   7.799   1.590  1.1825  2.4328 -1.5322
  591MOL0     H77998   4.477   7.899   1.060  0.8224  2.2092  1.3856
  591MOL0     H77999   4.628   7.727   1.125  1.0227  2.4841 -1.3960
  591MOL0     H78000   4.693   7.382   1.668  3.5174 -0.4554  2.4808
  591MOL0     H78001   4.757   7.138   1.677 -1.9807  0.9325  1.1881
  591MOL0     H78002   4.846   6.961   1.652 -0.6640  3.7168  0.4244
  591MOL0     H78003   5.002   7.025   1.678  1.0361 -3.2578  0.6720
  591MOL0     H78004   5.109   6.842   1.573 -0.6366  1.1879  1.4258
  591MOL0     H78005   5.008   6.790   1.713 -0.4680 -1.0631  0.1671
  591MOL0     H78006   4.818   6.732   1.566  0.3954 -2.4455  1.0973
  591MOL0     H78007   4.956   6.626   1.578  0.0901 -1.0588 -1.9248
  591MOL0     H78008   4.881   6.639   1.340 -0.6227  0.0545  1.2576
  591MOL0     H78009   4.925   6.808   1.339  0.0729 -0.7118 -0.0581
  591MOL0     H78010   5.291   6.604   1.326 -0.0659  0.1110  3.0309
  591MOL0     H78011   4.893   7.179   1.271  3.6852 -2.4325  3.2073
  591MOL0     H78012   4.789   7.400   1.252 -2.8007  0.2433 -0.0647
  592MOL0     O78013   3.582   5.932   7.541  0.0699  0.3412  0.5018
  592MOL0     C78014   3.656   5.919   7.440 -0.2402  0.8777 -0.0569
  592MOL0     O78015   3.783   5.965   7.423 -0.0879  0.4723  0.3486
  592MOL0     C78016   3.853   6.025   7.524  0.5732 -0.7712  0.0036
  592MOL0     C78017   3.986   5.983   7.527  0.5110 -0.2039 -0.5903
  592MOL0     C78018   4.068   6.049   7.621  0.4537 -0.3337  0.3318
  592MOL0     C78019   4.014   6.151   7.709  0.2363  0.3847  0.4237
  592MOL0     O78020   4.100   6.195   7.806  0.2593  0.0512 -0.5254
  592MOL0     C78021   4.121   6.330   7.843 -0.2610 -0.2359 -0.0680
  592MOL0     C78022   4.264   6.340   7.909  0.4340 -0.3298 -0.4923
  592MOL0     C78023   4.378   6.307   7.810  0.5552  0.3626 -0.5763
  592MOL0     C78024   4.516   6.348   7.872  0.3489 -0.1547  0.1142
  592MOL0     C78025   4.634   6.295   7.789  0.0335  0.7847 -0.1035
  592MOL0     C78026   4.774   6.298   7.858  0.4207  0.8936 -0.1360
  592MOL0     C78027   4.819   6.436   7.898 -0.1478 -0.2667 -0.9092
  592MOL0     C78028   4.841   6.544   7.792  0.2210 -0.2241 -0.2213
  592MOL0     N78029   4.912   6.662   7.841  0.0719 -0.1989 -0.0721
  592MOL0     C78030   4.896   6.720   7.965  0.2506 -0.0775 -0.1184
  592MOL0     C78031   4.988   6.823   7.968 -1.1520  0.4741 -0.4161
  592MOL0     C78032   5.019   6.917   8.075  0.3824  0.7904  0.6321
  592MOL0     C78033   5.163   6.928   8.123  0.2440 -0.2169  0.4166
  592MOL0     C78034   5.195   7.052   8.209  0.4408  0.0337  0.2769
  592MOL0     C78035   5.221   7.175   8.125  0.6784  0.1582  1.6801
  592MOL0     O78036   5.357   7.170   8.064 -0.4714  0.7683  0.2852
  592MOL0     C78037   5.465   7.179   8.148 -0.1482  0.6072 -0.5601
  592MOL0     C78038   5.472   7.250   8.271  0.0328  0.3376  0.8112
  592MOL0     C78039   5.593   7.253   8.338  0.6770  0.3694 -0.5108
  592MOL0     C78040   5.697   7.171   8.291 -0.5131 -0.3255  0.2106
  592MOL0     C78041   5.824   7.161   8.369  0.4287  0.8371  0.7445
  592MOL0     O78042   5.862   7.274   8.435 -0.3641 -0.4892 -0.5810
  592MOL0     C78043   5.978   7.284   8.503 -0.3928  0.8759  0.9689
  592MOL0     C78044   5.985   7.355   8.618  0.0240 -0.0810  0.1365
  592MOL0     C78045   6.100   7.373   8.694 -0.4340  0.1970 -0.7651
  592MOL0     C78046   6.219   7.326   8.649  0.1854 -0.3629  0.7936
  592MOL0     O78047   6.325   7.340   8.724  0.2945  0.4358  0.2141
  592MOL0     C78048   6.420   7.224   8.721  0.3311  0.0072  0.6837
  592MOL0     C78049   6.512   7.236   8.831 -0.0188 -0.0130 -0.0153
  592MOL0     C78050   6.462   7.180   8.967 -0.4600  0.0040 -0.2260
  592MOL0     C78051   6.442   7.025   8.961  0.7118  0.4440 -0.3845
  592MOL0     C78052   6.436   6.972   9.105  0.4405 -0.7337  0.2824
  592MOL0     C78053   6.383   6.836   9.114  0.3802 -0.7230  0.5154
  592MOL0     C78054   6.359   6.792   9.264  0.7262  0.5216  0.6931
  592MOL0     C78055   6.289   6.652   9.261 -0.6739 -0.4280  0.5767
  592MOL0    Cl78056   6.111   6.672   9.214 -0.0465 -0.0616  0.0797
  592MOL0     C78057   6.217   7.258   8.523 -0.1849  0.2393  0.1269
  592MOL0     C78058   6.098   7.226   8.459 -0.8965  0.2995  0.3556
  592MOL0     O78059   5.883   7.053   8.366  0.2462 -0.6329 -0.2393
  592MOL0     C78060   5.692   7.103   8.170  0.2239  0.0184 -0.9678
  592MOL0     C78061   5.572   7.110   8.098 -1.1649 -0.8912 -0.7525
  592MOL0     N78062   5.073   6.796   7.861 -0.3243 -0.5058  0.6932
  592MOL0     N78063   5.028   6.704   7.789 -0.1917 -0.2793 -0.3818
  592MOL0     C78064   3.882   6.194   7.698  0.1066  0.0814 -0.2715
  592MOL0     C78065   3.804   6.137   7.594  0.2517 -0.1217  0.6471
  592MOL0     C78066   3.605   5.866   7.305 -0.1716 -1.0139 -0.4162
  592MOL0     C78067   3.469   5.853   7.282 -0.5469 -1.1678 -0.1269
  592MOL0     C78068   3.433   5.798   7.163  0.7902  0.5141  0.1178
  592MOL0     C78069   3.522   5.753   7.061 -0.7336 -0.2258 -1.1743
  592MOL0     O78070   3.483   5.695   6.941  0.3172  0.4530 -0.2803
  592MOL0     C78071   3.356   5.636   6.930 -0.4198  0.9754  0.0531
  592MOL0     C78072   3.338   5.540   6.808 -0.8744  0.3639  0.1423
  592MOL0     C78073   3.464   5.449   6.771 -0.0666 -0.8962 -0.3707
  592MOL0     C78074   3.430   5.336   6.676  0.2743 -0.7335 -0.0567
  592MOL0     C78075   3.389   5.369   6.541  0.7002  0.0572 -0.4840
  592MOL0     C78076   3.359   5.394   6.433 -0.8107  0.4145 -0.7293
  592MOL0     C78077   3.659   5.778   7.084  0.9069  0.1783 -0.8374
  592MOL0     C78078   3.690   5.837   7.203 -0.5596 -0.4612 -0.2297
  592MOL0     H78079   4.018   5.896   7.471  1.2588 -3.0394  3.7717
  592MOL0     H78080   4.173   6.024   7.629  0.1977 -1.7757 -0.3424
  592MOL0     H78081   4.042   6.348   7.917  2.0051 -0.0065  2.4755
  592MOL0     H78082   4.109   6.388   7.751  2.0246  0.1392 -0.1733
  592MOL0     H78083   4.271   6.269   7.992 -2.1260 -3.2076 -2.5047
  592MOL0     H78084   4.272   6.443   7.943 -1.6139 -0.6178  1.0189
  592MOL0     H78085   4.358   6.361   7.717  1.4731  0.6156 -0.6378
  592MOL0     H78086   4.383   6.198   7.799  0.5602  0.3498 -0.4482
  592MOL0     H78087   4.523   6.457   7.874  2.0971 -0.2246  2.7313
  592MOL0     H78088   4.515   6.315   7.976 -1.4160 -1.5598 -0.3034
  592MOL0     H78089   4.622   6.342   7.691 -0.9011 -2.2640 -1.5638
  592MOL0     H78090   4.603   6.193   7.766 -3.1343  1.9860 -1.8010
  592MOL0     H78091   4.841   6.245   7.790  0.1097 -2.8876  2.1909
  592MOL0     H78092   4.772   6.238   7.950  3.6089 -4.5173 -3.0639
  592MOL0     H78093   4.740   6.474   7.963  2.0868  1.9141  0.7202
  592MOL0     H78094   4.911   6.423   7.954  0.2358 -1.5175 -1.7744
  592MOL0     H78095   4.744   6.563   7.745  1.0216 -0.5729 -2.1339
  592MOL0     H78096   4.898   6.503   7.708  0.4706 -0.9502  0.2909
  592MOL0     H78097   4.830   6.696   8.047  1.0392 -0.0276  0.5457
  592MOL0     H78098   4.957   6.893   8.162 -2.9859  2.3520 -1.1264
  592MOL0     H78099   4.978   7.010   8.033  2.2726  0.5238 -2.0609
  592MOL0     H78100   5.229   6.940   8.037 -1.4017  0.5982 -0.7829
  592MOL0     H78101   5.185   6.831   8.168 -1.4382 -0.5941  0.5075
  592MOL0     H78102   5.126   7.059   8.293 -0.0847 -0.9487 -0.0647
  592MOL0     H78103   5.286   7.027   8.265  1.0219 -0.3451 -0.8033
  592MOL0     H78104   5.206   7.269   8.179  0.0549  0.7185  0.5721
  592MOL0     H78105   5.150   7.178   8.041  0.0810  3.8538  2.1544
  592MOL0     H78106   5.379   7.300   8.296 -1.6648 -1.7216 -0.8824
  592MOL0     H78107   5.587   7.307   8.432 -3.3166  0.7216 -0.8000
  592MOL0     H78108   5.899   7.408   8.658  0.4912  0.4965  0.3934
  592MOL0     H78109   6.093   7.433   8.784  1.0379  1.7200 -1.6110
  592MOL0     H78110   6.475   7.225   8.626 -0.5626  0.3303  0.1626
  592MOL0     H78111   6.381   7.122   8.725  2.0390 -0.8168 -1.5753
  592MOL0     H78112   6.537   7.340   8.857  3.4025 -0.4160 -1.1521
  592MOL0     H78113   6.603   7.183   8.801 -0.3919  0.1303 -1.4713
  592MOL0     H78114   6.363   7.222   8.990 -0.5189 -1.9651  4.0620
  592MOL0     H78115   6.527   7.197   9.053 -0.2939 -2.5283  0.2416
  592MOL0     H78116   6.338   7.014   8.928  0.2312  1.6455  0.6459
  592MOL0     H78117   6.517   6.979   8.897  2.3714  1.7889  0.5171
  592MOL0     H78118   6.389   7.050   9.167  1.7825 -1.2111  1.9719
  592MOL0     H78119   6.541   6.976   9.136  0.6513  2.5433 -0.4218
  592MOL0     H78120   6.454   6.768   9.066 -1.7755 -1.6533 -1.5789
  592MOL0     H78121   6.287   6.832   9.061 -0.5549 -2.1749  2.2355
  592MOL0     H78122   6.451   6.780   9.322  0.3014  3.1029  2.0507
  592MOL0     H78123   6.298   6.866   9.318  0.4921  1.1183 -0.3670
  592MOL0     H78124   6.291   6.603   9.359 -1.2785 -0.1431  0.7328
  592MOL0     H78125   6.342   6.604   9.179  1.6744  3.0681 -0.2054
  592MOL0     H78126   6.308   7.213   8.484 -0.2085  0.8085 -0.6173
  592MOL0     H78127   6.104   7.184   8.359  1.0681 -0.8697  0.9159
  592MOL0     H78128   5.771   7.043   8.126  1.4336  1.1316 -0.3618
  592MOL0     H78129   5.575   7.071   7.997  1.4252  1.2949 -1.6487
  592MOL0     H78130   3.834   6.270   7.758 -3.5375 -2.9921  1.1177
  592MOL0     H78131   3.708   6.182   7.572  0.9872  1.4716  0.5877
  592MOL0     H78132   3.414   5.907   7.358  0.6428 -0.6610  0.3946
  592MOL0     H78133   3.329   5.777   7.143  1.4536 -1.6846 -1.4881
  592MOL0     H78134   3.285   5.718   6.919 -0.3986  1.0272  0.2916
  592MOL0     H78135   3.341   5.575   7.019 -1.8789 -0.3472 -1.0479
  592MOL0     H78136   3.242   5.492   6.828  0.1976 -0.7312  3.2468
  592MOL0     H78137   3.322   5.612   6.727 -0.2476 -0.9353 -1.1724
  592MOL0     H78138   3.506   5.405   6.862  0.4855  1.6511  0.6904
  592MOL0     H78139   3.541   5.512   6.726 -2.5217  2.1000 -0.6730
  592MOL0     H78140   3.529   5.290   6.664  1.1051  0.5524  1.5227
  592MOL0     H78141   3.364   5.267   6.729  0.2956  1.7380  3.4832
  592MOL0     H78142   3.322   5.428   6.338 -5.2781 -3.0945 -0.5464
  592MOL0     H78143   3.722   5.736   7.007  2.8636  0.6943  0.4031
  592MOL0     H78144   3.796   5.834   7.225 -0.4853 -1.7153 -0.6348
  593MOL0     O78145  10.026   1.457  10.064  0.3916 -0.8804 -0.5215
  593MOL0     C78146   9.989   1.512  10.172  0.1897  0.4153 -0.2379
  593MOL0     O78147  10.062   1.510  10.288 -0.0021 -0.8724 -0.3310
  593MOL0     C78148  10.179   1.445  10.288 -0.2814 -0.6256 -0.5772
  593MOL0     C78149  10.278   1.480  10.197  0.2629  0.0224  0.1537
  593MOL0     C78150  10.410   1.443  10.213  0.9626  0.4994 -0.8309
  593MOL0     C78151  10.447   1.344  10.309 -0.4608  0.1721 -0.4194
  593MOL0     O78152  10.574   1.285  10.329  0.4527  0.5874 -0.1901
  593MOL0     C78153  10.681   1.367  10.273 -1.0210 -0.2477  0.2009
  593MOL0     C78154  10.712   1.468  10.392  0.3708 -0.1605 -0.5273
  593MOL0     C78155  10.809   1.573  10.375 -0.2651  0.0366 -0.2358
  593MOL0     C78156  10.960   1.519  10.395 -0.0589 -0.6623  0.4784
  593MOL0     C78157  11.066   1.631  10.405  0.2507  0.4017 -0.3876
  593MOL0     C78158  11.077   1.716  10.278  0.7725  0.4314 -0.6881
  593MOL0     C78159  11.200   1.810  10.275  0.0578  0.2970  0.0860
  593MOL0     C78160  11.164   1.946  10.343 -0.6629  0.2070 -0.1887
  593MOL0     N78161  11.276   2.042  10.340 -0.6736  0.0665  0.2174
  593MOL0     C78162  11.415   2.020  10.359  0.0075  0.1584  0.1738
  593MOL0     C78163  11.470   2.139  10.340  0.1377 -1.4376 -0.4454
  593MOL0     C78164  11.616   2.170  10.369 -0.3312 -0.6000  0.4622
  593MOL0     C78165  11.660   2.313  10.315 -0.2668  0.4246 -0.3506
  593MOL0     C78166  11.655   2.326  10.165  1.4930 -0.0786  1.2565
  593MOL0     C78167  11.680   2.468  10.120 -0.1316 -0.7360  0.0449
  593MOL0     O78168  11.823   2.481  10.094  0.3143 -0.0929 -0.3387
  593MOL0     C78169  11.909   2.578  10.154 -0.5051  1.3995  0.1839
  593MOL0     C78170  11.978   2.549  10.270  0.0675  1.3140 -0.3643
  593MOL0     C78171  12.050   2.647  10.337  0.0878 -0.7524  0.6025
  593MOL0     C78172  12.069   2.777  10.289  0.4909 -0.2568  0.3679
  593MOL0     C78173  12.151   2.881  10.353 -0.5264 -0.3380 -0.1418
  593MOL0     O78174  12.241   2.821  10.443  0.2600  0.3758  0.1220
  593MOL0     C78175  12.339   2.877  10.513 -0.7449 -0.0243 -1.0043
  593MOL0     C78176  12.401   3.000  10.486 -0.5290 -0.5214  0.0096
  593MOL0     C78177  12.500   3.045  10.572 -1.0936 -0.3911 -0.6325
  593MOL0     C78178  12.543   2.960  10.679 -0.3295 -0.0578  0.2462
  593MOL0     O78179  12.648   2.993  10.762  0.9614 -1.0887 -0.3555
  593MOL0     C78180  12.734   3.104  10.732 -0.3689 -0.8299 -0.0355
  593MOL0     C78181  12.829   3.126  10.848 -0.2380 -0.6087  0.7976
  593MOL0     C78182  12.760   3.174  10.970 -0.3666  0.1117 -0.4474
  593MOL0     C78183  12.864   3.180  11.081 -0.4737 -0.4702  0.6641
  593MOL0     C78184  12.808   3.235  11.219 -0.3275 -0.4470 -0.0672
  593MOL0     C78185  12.920   3.233  11.324 -0.6643  0.0951  0.5986
  593MOL0     C78186  12.870   3.303  11.451  0.3644  1.3807  0.1445
  593MOL0     C78187  12.868   3.452  11.453  0.3916  1.2259 -0.2071
  593MOL0    Cl78188  12.857   3.508  11.629  0.4814 -0.2732 -0.4519
  593MOL0     C78189  12.479   2.845  10.707  0.3109 -0.0698 -0.3089
  593MOL0     C78190  12.378   2.805  10.628 -0.6212  0.6022 -0.2530
  593MOL0     O78191  12.149   2.993  10.308 -0.6690  0.1442 -0.1204
  593MOL0     C78192  11.987   2.813  10.178  0.5452  0.2979 -0.2151
  593MOL0     C78193  11.915   2.714  10.108  0.5837 -0.1674  0.5571
  593MOL0     N78194  11.373   2.228  10.299 -0.2439 -0.5177 -0.4462
  593MOL0     N78195  11.254   2.172  10.302 -0.0888  0.5932 -0.0101
  593MOL0     C78196  10.353   1.313  10.403 -0.6536 -0.3738  0.4216
  593MOL0     C78197  10.216   1.366  10.390 -0.7872  0.4110 -0.0761
  593MOL0     C78198   9.847   1.555  10.173  0.2420  0.2948  0.9289
  593MOL0     C78199   9.771   1.573  10.051  0.2129 -0.3377 -0.0883
  593MOL0     C78200   9.647   1.623  10.049  0.5482 -0.3200  0.8616
  593MOL0     C78201   9.587   1.659  10.173  0.2981  0.3655 -0.8093
  593MOL0     O78202   9.462   1.722  10.192  0.1538  0.6038  0.4015
  593MOL0     C78203   9.378   1.733  10.075  0.1485 -1.4951 -0.2563
  593MOL0     C78204   9.253   1.781  10.131  0.0913 -0.2327 -0.5018
  593MOL0     C78205   9.139   1.795  10.033 -0.3561 -0.1857 -0.3729
  593MOL0     C78206   9.131   1.940   9.982 -1.1297  0.6236 -0.4412
  593MOL0     C78207   9.260   2.004   9.972  0.3091  0.5344 -0.1229
  593MOL0     C78208   9.365   2.066   9.975 -0.0623  0.0355  0.2283
  593MOL0     C78209   9.648   1.629  10.292 -0.0516  0.3126 -0.0744
  593MOL0     C78210   9.782   1.572  10.297 -0.1763 -0.6485 -0.8330
  593MOL0     H78211  10.247   1.559  10.128  2.4288 -0.3313 -1.2995
  593MOL0     H78212  10.476   1.477  10.134  0.3993 -1.8969 -2.4393
  593MOL0     H78213  10.669   1.412  10.174 -0.7025  2.4707  1.2950
  593MOL0     H78214  10.759   1.290  10.265 -2.2880 -1.3914 -2.2669
  593MOL0     H78215  10.744   1.422  10.485 -0.8375  0.4982  0.2337
  593MOL0     H78216  10.617   1.514  10.420  1.0323  0.1005  1.4113
  593MOL0     H78217  10.785   1.644  10.455 -1.6131 -1.3760  0.6790
  593MOL0     H78218  10.793   1.621  10.278  2.3365  0.8900 -0.2946
  593MOL0     H78219  10.981   1.452  10.480  0.3143 -0.3441  0.6374
  593MOL0     H78220  10.978   1.456  10.308 -1.4151  0.8664 -0.9695
  593MOL0     H78221  11.165   1.589  10.422  0.6020  1.1552 -0.5454
  593MOL0     H78222  11.039   1.705  10.482 -1.5231  1.9300 -2.3500
  593MOL0     H78223  10.981   1.767  10.277 -0.8258 -2.3442 -0.5223
  593MOL0     H78224  11.087   1.646  10.194  3.8229 -1.9343  1.4104
  593MOL0     H78225  11.284   1.769  10.333 -1.0569 -1.5658  0.4501
  593MOL0     H78226  11.235   1.828  10.173 -1.0131  2.0413 -0.0121
  593MOL0     H78227  11.115   1.942  10.441 -0.4447 -1.7049 -0.1102
  593MOL0     H78228  11.086   1.991  10.281  1.5222  0.9914 -2.5087
  593MOL0     H78229  11.463   1.931  10.399  2.4665  1.3883  0.1920
  593MOL0     H78230  11.675   2.093  10.320 -1.4458 -1.1757 -0.0164
  593MOL0     H78231  11.648   2.173  10.473  2.6380 -0.6678 -0.3541
  593MOL0     H78232  11.756   2.343  10.358  0.5216 -0.3231 -1.5157
  593MOL0     H78233  11.589   2.383  10.360  0.4166  0.4286  0.7716
  593MOL0     H78234  11.732   2.259  10.125 -0.7808 -3.0453  1.5176
  593MOL0     H78235  11.562   2.292  10.120  0.4966  2.9425  0.8304
  593MOL0     H78236  11.653   2.530  10.206 -2.6344 -2.4231  0.5746
  593MOL0     H78237  11.631   2.494  10.026  1.4602 -2.0313 -1.2003
  593MOL0     H78238  11.973   2.451  10.315 -1.8746  1.4773 -0.1170
  593MOL0     H78239  12.103   2.642  10.431 -1.4444  0.1419  1.5517
  593MOL0     H78240  12.374   3.050  10.394  0.1556 -0.2169 -0.0304
  593MOL0     H78241  12.554   3.136  10.546  1.1963 -1.8512 -1.3389
  593MOL0     H78242  12.675   3.195  10.726 -0.7291 -0.9820  0.9933
  593MOL0     H78243  12.777   3.089  10.632  1.4277  1.8254  0.2220
  593MOL0     H78244  12.909   3.199  10.834  0.0158 -0.6684  1.8237
  593MOL0     H78245  12.882   3.035  10.878 -0.5930  0.1961  4.3266
  593MOL0     H78246  12.698   3.091  11.005 -1.6418  0.9955 -0.5496
  593MOL0     H78247  12.699   3.264  10.960 -1.2878 -0.1080  2.1586
  593MOL0     H78248  12.899   3.077  11.095 -0.7317 -1.3310 -3.6148
  593MOL0     H78249  12.951   3.241  11.056  1.5751 -2.9976  1.2221
  593MOL0     H78250  12.722   3.179  11.256  0.7030 -1.1480  1.4098
  593MOL0     H78251  12.774   3.338  11.210 -0.5765 -0.5674 -0.5250
  593MOL0     H78252  13.010   3.286  11.292 -0.6583  0.9543  1.9581
  593MOL0     H78253  12.945   3.128  11.344  0.2588  0.2935  0.5497
  593MOL0     H78254  12.762   3.293  11.464  0.3184  0.5154 -0.7978
  593MOL0     H78255  12.929   3.256  11.531 -1.1994 -0.3094  0.3870
  593MOL0     H78256  12.787   3.501  11.398 -0.1363  0.0104 -0.5322
  593MOL0     H78257  12.957   3.480  11.396  2.5027 -5.1022 -0.8172
  593MOL0     H78258  12.503   2.795  10.800 -1.1822  0.2999  0.3071
  593MOL0     H78259  12.323   2.713  10.641  1.1722 -0.5815 -0.6895
  593MOL0     H78260  11.979   2.916  10.145 -0.0883  0.0661 -0.8119
  593MOL0     H78261  11.852   2.743  10.024  1.1625 -1.9625 -0.5717
  593MOL0     H78262  10.373   1.266  10.498 -1.1670  0.1295  0.7904
  593MOL0     H78263  10.142   1.350  10.467 -0.9447 -0.1556 -0.3381
  593MOL0     H78264   9.827   1.555   9.960  1.9981  1.6417  0.5349
  593MOL0     H78265   9.590   1.637   9.958 -0.5695  2.1197  1.8552
  593MOL0     H78266   9.370   1.640  10.018 -3.1151 -0.6710 -1.3542
  593MOL0     H78267   9.423   1.811  10.012  0.3950 -0.0417  1.6200
  593MOL0     H78268   9.223   1.705  10.204 -0.8799 -0.5049 -1.1597
  593MOL0     H78269   9.257   1.879  10.178  0.5774  1.1259 -3.1769
  593MOL0     H78270   9.045   1.767  10.080 -1.4495  2.5440 -0.7744
  593MOL0     H78271   9.162   1.725   9.952  2.7313 -2.7458  2.4379
  593MOL0     H78272   9.068   1.955   9.894  1.2747  1.2918 -2.1617
  593MOL0     H78273   9.075   2.005  10.049  0.2716 -1.8332  3.4456
  593MOL0     H78274   9.456   2.122   9.987  1.7427 -1.6686 -3.8867
  593MOL0     H78275   9.611   1.658  10.389 -0.3619 -0.2060 -0.0355
  593MOL0     H78276   9.834   1.551  10.390  2.0060 -3.2355 -2.4940
  594MOL0     O78277   0.855   0.988   0.208  0.0211 -0.0796  0.1577
  594MOL0     C78278   0.942   1.060   0.155  0.6724 -0.1632 -0.2501
  594MOL0     O78279   1.034   1.005   0.072 -0.4637 -0.4259  0.8766
  594MOL0     C78280   1.042   0.867   0.043 -0.1803  0.2322  0.2671
  594MOL0     C78281   0.982   0.827  -0.075  0.6731  0.5924 -0.0202
  594MOL0     C78282   0.998   0.683  -0.110 -0.3820  0.2698  0.6876
  594MOL0     C78283   1.053   0.591  -0.022  0.7765 -0.0338 -0.0590
  594MOL0     O78284   1.023   0.460  -0.055  0.1716 -1.1389 -0.1678
  594MOL0     C78285   1.063   0.369   0.042 -1.1518 -0.4240 -0.4586
  594MOL0     C78286   1.030   0.237  -0.016 -0.0108  0.3231  0.4664
  594MOL0     C78287   1.100   0.111   0.031  0.4440 -0.8628  0.9577
  594MOL0     C78288   1.045   0.080   0.173 -0.4114  0.0855 -0.4082
  594MOL0     C78289   0.896   0.073   0.201 -0.4236 -0.1264  0.8842
  594MOL0     C78290   0.870   0.011   0.348 -1.2005 -0.1308  1.0948
  594MOL0     C78291   0.729   0.032   0.399 -0.8803  0.1373 -0.7539
  594MOL0     C78292   0.709  -0.037   0.538  0.6330  0.6705 -0.4656
  594MOL0     N78293   0.776   0.039   0.644  0.5783 -1.3484 -0.5272
  594MOL0     C78294   0.722   0.148   0.707 -0.1319 -0.5037 -1.2619
  594MOL0     C78295   0.816   0.185   0.795 -0.2397 -0.6667 -0.1229
  594MOL0     C78296   0.814   0.310   0.885  0.6969 -0.0672  0.5763
  594MOL0     C78297   0.819   0.438   0.815  0.2318  0.4645  0.4180
  594MOL0     C78298   0.870   0.555   0.892 -0.1865  0.0546 -0.4037
  594MOL0     C78299   0.815   0.562   1.039 -0.2209  0.2950 -0.7317
  594MOL0     O78300   0.682   0.619   1.038  0.1119 -0.1045 -0.6820
  594MOL0     C78301   0.688   0.760   1.009 -0.6400  0.5281  0.6478
  594MOL0     C78302   0.741   0.849   1.106  1.2966  0.0085  0.1714
  594MOL0     C78303   0.716   0.986   1.097  0.1576 -0.0884 -0.2864
  594MOL0     C78304   0.644   1.033   0.986  0.8422  0.5327 -0.4990
  594MOL0     C78305   0.605   1.178   0.976  0.6449  0.6908  0.6580
  594MOL0     O78306   0.624   1.252   1.084 -0.4390 -0.6358 -0.7185
  594MOL0     C78307   0.591   1.388   1.088  0.9239  0.0358  0.3111
  594MOL0     C78308   0.473   1.440   1.024 -0.2190 -0.2774 -0.3564
  594MOL0     C78309   0.434   1.569   1.050 -0.9508 -0.0678 -0.3295
  594MOL0     C78310   0.501   1.647   1.142  0.6148 -0.1768 -0.5162
  594MOL0     O78311   0.454   1.776   1.176 -0.8807  0.2247  0.4968
  594MOL0     C78312   0.321   1.796   1.167  1.0649  0.2283  0.4176
  594MOL0     C78313   0.287   1.930   1.217  0.1400 -0.2425  0.4280
  594MOL0     C78314   0.319   2.051   1.126  0.3897  0.7071 -0.9511
  594MOL0     C78315   0.314   2.193   1.196  0.1231 -0.4601 -0.1134
  594MOL0     C78316   0.279   2.292   1.083  0.0106  0.3374 -0.6095
  594MOL0     C78317   0.200   2.406   1.144 -1.2179  0.1926  0.2305
  594MOL0     C78318   0.290   2.498   1.236 -0.0714  0.7817  0.1347
  594MOL0     C78319   0.400   2.570   1.164  0.8900  0.6448  0.4115
  594MOL0    Cl78320   0.464   2.704   1.248 -0.4299  0.1528 -0.0948
  594MOL0     C78321   0.620   1.600   1.200  0.1547 -0.7270 -0.1948
  594MOL0     C78322   0.660   1.474   1.170 -0.3989 -0.2018  0.3939
  594MOL0     O78323   0.577   1.216   0.869  0.3554  0.2578  0.1945
  594MOL0     C78324   0.611   0.946   0.882 -1.1380  0.5837  0.5920
  594MOL0     C78325   0.627   0.804   0.894  0.3570 -0.6384 -0.2426
  594MOL0     N78326   0.927   0.097   0.786 -0.6069 -0.4032 -0.0299
  594MOL0     N78327   0.900   0.015   0.693 -0.9493 -0.4579 -0.8904
  594MOL0     C78328   1.114   0.645   0.091  0.3900 -0.4825  0.2163
  594MOL0     C78329   1.112   0.785   0.127  0.1831  0.8894  0.5879
  594MOL0     C78330   0.943   1.204   0.170  0.2756  0.6629  1.3666
  594MOL0     C78331   1.048   1.288   0.125 -0.3870 -0.1957  0.2154
  594MOL0     C78332   1.024   1.426   0.128 -0.1612  0.2580  0.3541
  594MOL0     C78333   0.916   1.485   0.198 -0.8641 -0.1011  0.2197
  594MOL0     O78334   0.919   1.620   0.191  0.0488 -0.1918  0.2460
  594MOL0     C78335   0.808   1.689   0.239  0.1587  1.1314  0.0141
  594MOL0     C78336   0.827   1.714   0.389  0.2944 -0.8718 -0.1728
  594MOL0     C78337   0.713   1.806   0.442  0.7982 -0.0829 -0.1613
  594MOL0     C78338   0.710   1.952   0.386 -0.1505  0.4433 -0.2109
  594MOL0     C78339   0.835   2.019   0.428 -0.2619 -1.0500  0.7176
  594MOL0     C78340   0.932   2.090   0.437 -0.0245 -0.0946  0.3443
  594MOL0     C78341   0.822   1.396   0.244 -0.5402 -0.4830 -0.4989
  594MOL0     C78342   0.838   1.260   0.227  0.4090 -0.4931 -0.6368
  594MOL0     H78343   0.938   0.903  -0.139 -0.9339 -0.6725 -0.4789
  594MOL0     H78344   0.962   0.648  -0.206 -2.4277  1.6587  0.9030
  594MOL0     H78345   1.023   0.388   0.142 -3.1050  0.2046 -1.3160
  594MOL0     H78346   1.170   0.372   0.064 -1.4742  3.5140  1.4692
  594MOL0     H78347   1.070   0.241  -0.118  1.6847  1.9578  1.1507
  594MOL0     H78348   0.921   0.232  -0.003  0.1129  1.3262  2.1422
  594MOL0     H78349   1.208   0.124   0.032  0.6797 -2.4041  3.1081
  594MOL0     H78350   1.078   0.030  -0.040 -1.2092  0.8291 -0.5911
  594MOL0     H78351   1.089  -0.019   0.185 -0.7826 -0.4560 -2.8933
  594MOL0     H78352   1.090   0.151   0.244  1.2049  0.5895 -1.8546
  594MOL0     H78353   0.850   0.008   0.126 -3.9733  1.7909  1.1913
  594MOL0     H78354   0.840   0.167   0.198 -1.2038 -0.5999  0.0785
  594MOL0     H78355   0.945   0.063   0.407  1.6993  0.8602 -3.0458
  594MOL0     H78356   0.896  -0.095   0.352  0.6880  0.3127  1.3016
  594MOL0     H78357   0.710   0.140   0.401 -2.8002 -0.1915  0.8328
  594MOL0     H78358   0.647  -0.005   0.337 -0.9971 -0.8653 -0.0088
  594MOL0     H78359   0.736  -0.143   0.529 -1.8564 -0.1453  0.7018
  594MOL0     H78360   0.604  -0.040   0.568  0.8269 -1.2971  0.1972
  594MOL0     H78361   0.623   0.188   0.692 -0.7377 -2.1520 -1.8510
  594MOL0     H78362   0.896   0.311   0.957  1.6817  0.6066 -0.5255
  594MOL0     H78363   0.716   0.302   0.933  0.8231  3.5002  1.7199
  594MOL0     H78364   0.724   0.468   0.768  0.5568  1.2686  0.2650
  594MOL0     H78365   0.888   0.423   0.732 -0.4760  1.5200 -0.3814
  594MOL0     H78366   0.979   0.553   0.894 -0.1426  1.6376  1.5400
  594MOL0     H78367   0.853   0.651   0.844 -0.5073  1.6500  2.6580
  594MOL0     H78368   0.894   0.607   1.100  3.1356 -2.4346 -2.6925
  594MOL0     H78369   0.793   0.463   1.081  2.9805 -0.2039  0.0659
  594MOL0     H78370   0.793   0.814   1.195  0.7931  2.9589  1.7372
  594MOL0     H78371   0.754   1.053   1.173  0.3788 -1.1060  0.5249
  594MOL0     H78372   0.409   1.384   0.958  0.3706 -0.5900 -0.6738
  594MOL0     H78373   0.345   1.605   0.998 -0.5926 -0.1890 -1.0433
  594MOL0     H78374   0.253   1.726   1.217 -1.1109  2.7051  1.1502
  594MOL0     H78375   0.292   1.804   1.062 -0.1258 -2.2997  0.4742
  594MOL0     H78376   0.341   1.946   1.311  0.5096  0.7485  0.0628
  594MOL0     H78377   0.180   1.937   1.238  0.2751  1.1420  0.7414
  594MOL0     H78378   0.247   2.051   1.043  0.1729 -2.1791 -0.8767
  594MOL0     H78379   0.414   2.035   1.074 -0.7224 -1.0548 -2.6128
  594MOL0     H78380   0.233   2.194   1.269 -0.3191 -1.1751 -0.5769
  594MOL0     H78381   0.403   2.226   1.249 -1.1898 -2.8373  3.9878
  594MOL0     H78382   0.213   2.258   1.003 -1.4110  0.1552  0.5736
  594MOL0     H78383   0.379   2.317   1.046  0.2313  2.6057  1.2486
  594MOL0     H78384   0.112   2.364   1.193 -2.8975  1.8612 -1.1994
  594MOL0     H78385   0.161   2.472   1.065 -1.1047  0.2462  0.2199
  594MOL0     H78386   0.225   2.571   1.286 -0.8309 -0.1311  0.5141
  594MOL0     H78387   0.331   2.445   1.322 -0.1293  2.2586  1.0973
  594MOL0     H78388   0.369   2.610   1.067  2.1580 -2.8684 -1.6469
  594MOL0     H78389   0.472   2.495   1.130  0.9436  1.5942 -1.7267
  594MOL0     H78390   0.677   1.657   1.272 -0.8004 -0.6148  0.4916
  594MOL0     H78391   0.758   1.439   1.202  2.4260  3.9311 -2.6153
  594MOL0     H78392   0.565   0.992   0.795  1.0532  1.7295 -0.0420
  594MOL0     H78393   0.599   0.742   0.810 -0.0929  1.1132 -1.4583
  594MOL0     H78394   1.162   0.586   0.169 -2.0168 -1.0198  1.4043
  594MOL0     H78395   1.167   0.822   0.213  0.9527 -1.4112  1.1761
  594MOL0     H78396   1.136   1.250   0.075  1.8549  0.8452  3.0786
  594MOL0     H78397   1.099   1.492   0.087  0.1207  0.5701  1.3401
  594MOL0     H78398   0.715   1.633   0.222  0.1671  1.1828 -0.2064
  594MOL0     H78399   0.798   1.781   0.181 -0.5149  0.7096 -0.5528
  594MOL0     H78400   0.838   1.612   0.426  2.3785 -1.6036 -2.4352
  594MOL0     H78401   0.919   1.773   0.393 -1.2244  1.8522 -2.2379
  594MOL0     H78402   0.715   1.804   0.552 -1.4800 -2.9106 -0.0600
  594MOL0     H78403   0.620   1.755   0.415  0.2121  0.4228  0.8209
  594MOL0     H78404   0.705   1.951   0.276  1.2670  2.4716 -0.3611
  594MOL0     H78405   0.624   2.012   0.417 -0.5600 -1.3041  2.2618
  594MOL0     H78406   1.011   2.162   0.438 -2.0738  2.3127  0.2114
  594MOL0     H78407   0.727   1.431   0.282 -0.2328  0.4224 -0.5445
  594MOL0     H78408   0.756   1.202   0.268 -0.2406  2.7827  3.4631
  595MOL0     O78409   6.299   4.273   0.694 -0.4113  0.1940 -0.0168
  595MOL0     C78410   6.265   4.277   0.813  0.4168  0.7955  0.2988
  595MOL0     O78411   6.146   4.294   0.858  0.0574 -0.5711  0.0095
  595MOL0     C78412   6.031   4.301   0.778  0.1386  0.5160 -0.0310
  595MOL0     C78413   5.924   4.375   0.843 -0.7946 -0.1805  0.3656
  595MOL0     C78414   5.802   4.397   0.770 -0.0995 -0.1675  0.3438
  595MOL0     C78415   5.790   4.351   0.636  0.2782  0.9497 -0.4296
  595MOL0     O78416   5.675   4.376   0.557 -0.7119 -0.5062  0.6302
  595MOL0     C78417   5.594   4.500   0.568  0.5834 -0.5062 -1.0004
  595MOL0     C78418   5.473   4.478   0.661 -0.8025 -0.0285  0.1377
  595MOL0     C78419   5.387   4.353   0.627  0.1971  0.1187 -0.7167
  595MOL0     C78420   5.262   4.338   0.712 -0.4156 -0.3400 -0.0078
  595MOL0     C78421   5.307   4.306   0.860  0.1396 -0.9292  0.7078
  595MOL0     C78422   5.173   4.275   0.935 -0.5971  0.5226 -0.5553
  595MOL0     C78423   5.078   4.393   0.949 -0.1536 -0.4746  0.0001
  595MOL0     C78424   5.110   4.482   1.064 -0.6217 -0.4436  0.2457
  595MOL0     N78425   5.222   4.578   1.053  0.1235  0.2726  0.6738
  595MOL0     C78426   5.250   4.636   0.925 -0.3538 -0.2669 -0.0901
  595MOL0     C78427   5.333   4.734   0.957 -0.5783 -0.0197  0.6157
  595MOL0     C78428   5.391   4.831   0.852 -0.3806  0.3820  0.0241
  595MOL0     C78429   5.328   4.971   0.853 -0.3974 -0.0405 -0.0265
  595MOL0     C78430   5.321   5.035   0.991  0.2199 -0.7380 -0.8473
  595MOL0     C78431   5.312   5.191   0.995 -0.3521  0.3103  0.5922
  595MOL0     O78432   5.322   5.249   1.131 -0.0838  0.2479  0.4038
  595MOL0     C78433   5.447   5.266   1.181  0.5374  0.4858  0.5717
  595MOL0     C78434   5.511   5.158   1.242  0.0764 -0.4880 -0.3280
  595MOL0     C78435   5.644   5.177   1.295  0.4569  0.1830  1.4915
  595MOL0     C78436   5.711   5.302   1.274 -0.1366 -0.6134 -0.6187
  595MOL0     C78437   5.850   5.300   1.326 -0.8041 -0.0889 -0.5824
  595MOL0     O78438   5.916   5.186   1.334 -0.6520 -0.1569  0.3774
  595MOL0     C78439   6.049   5.187   1.338  0.8717 -0.4192 -0.1037
  595MOL0     C78440   6.120   5.169   1.225 -1.1733 -0.5581  0.4814
  595MOL0     C78441   6.256   5.153   1.224  0.4644  0.7591 -0.1987
  595MOL0     C78442   6.326   5.163   1.342  0.8103 -0.0695  0.6499
  595MOL0     O78443   6.461   5.132   1.329  0.8825 -0.7511 -0.5511
  595MOL0     C78444   6.547   5.183   1.427 -0.0174  0.0442 -0.1452
  595MOL0     C78445   6.685   5.123   1.402  0.5019 -0.2081 -0.5512
  595MOL0     C78446   6.754   5.187   1.287  0.6095 -1.1411  0.0577
  595MOL0     C78447   6.899   5.160   1.262 -1.0062  0.6463 -0.7086
  595MOL0     C78448   6.934   5.183   1.111  0.0069  0.4671 -0.7456
  595MOL0     C78449   7.074   5.230   1.083  0.2676  0.0128  0.3146
  595MOL0     C78450   7.098   5.267   0.932 -0.2468 -0.7694 -0.7942
  595MOL0     C78451   7.053   5.400   0.905  0.3739 -0.4392  0.4565
  595MOL0    Cl78452   7.166   5.527   0.951  0.0142 -0.6431  0.3328
  595MOL0     C78453   6.254   5.181   1.467 -0.3997 -0.2314  0.2891
  595MOL0     C78454   6.119   5.193   1.465  1.0822  0.1189 -0.9556
  595MOL0     O78455   5.901   5.410   1.340  0.0062  0.6629  0.3396
  595MOL0     C78456   5.641   5.412   1.211  1.2833  0.2194 -0.1076
  595MOL0     C78457   5.515   5.386   1.159  0.5122  0.5818 -0.0885
  595MOL0     N78458   5.369   4.728   1.092  0.0399  0.5295  0.0648
  595MOL0     N78459   5.295   4.641   1.153 -0.1291  0.0644 -0.1782
  595MOL0     C78460   5.895   4.278   0.583  0.5684 -1.0759  0.6051
  595MOL0     C78461   6.018   4.261   0.643  0.0247  0.3132 -0.5444
  595MOL0     C78462   6.364   4.296   0.922  0.1735 -0.3263 -0.2603
  595MOL0     C78463   6.334   4.355   1.049 -0.4418 -0.5381 -0.5575
  595MOL0     C78464   6.438   4.372   1.143  0.2726  0.7126  0.3706
  595MOL0     C78465   6.568   4.326   1.116  0.0195 -0.1329  1.1264
  595MOL0     O78466   6.670   4.335   1.207 -0.5294 -0.2254  0.4920
  595MOL0     C78467   6.643   4.376   1.343 -0.0592 -0.3246 -0.1893
  595MOL0     C78468   6.750   4.312   1.436  0.6034  0.4869 -0.1071
  595MOL0     C78469   6.762   4.164   1.400  0.1039  0.3766  0.1662
  595MOL0     C78470   6.864   4.093   1.482 -0.4803 -0.2500 -0.6333
  595MOL0     C78471   7.005   4.142   1.476 -0.3939 -0.4195  0.6844
  595MOL0     C78472   7.127   4.171   1.475 -0.6466 -0.1225  0.1900
  595MOL0     C78473   6.595   4.266   0.989 -0.2958 -0.3158 -0.3371
  595MOL0     C78474   6.492   4.257   0.890 -0.7310  0.6921  0.9994
  595MOL0     H78475   5.946   4.410   0.943 -1.9681 -0.3711  0.6983
  595MOL0     H78476   5.721   4.452   0.815 -1.1285 -1.0442 -0.3880
  595MOL0     H78477   5.553   4.527   0.470  1.2205  0.2032 -1.0784
  595MOL0     H78478   5.669   4.570   0.605 -0.0881  0.1249 -0.8217
  595MOL0     H78479   5.414   4.570   0.657 -2.2485 -0.9815 -2.2433
  595MOL0     H78480   5.514   4.459   0.761  2.0247 -2.8328 -1.3555
  595MOL0     H78481   5.449   4.263   0.634 -2.1378 -1.7324 -2.0507
  595MOL0     H78482   5.348   4.352   0.525  1.9764  1.8785 -1.4710
  595MOL0     H78483   5.207   4.432   0.699  0.7791  0.2388 -1.0290
  595MOL0     H78484   5.202   4.254   0.675  0.7700 -0.7428 -1.0949
  595MOL0     H78485   5.366   4.385   0.907  1.8660 -1.5939 -0.2540
  595MOL0     H78486   5.367   4.215   0.867  1.7296 -0.1352 -1.3507
  595MOL0     H78487   5.202   4.243   1.036  1.0392 -0.5175 -1.3108
  595MOL0     H78488   5.122   4.196   0.879 -1.9942  0.6714  0.4384
  595MOL0     H78489   5.070   4.452   0.858 -3.4177 -1.0597 -0.2096
  595MOL0     H78490   4.975   4.360   0.965 -0.1347 -0.4717  0.1325
  595MOL0     H78491   5.126   4.420   1.153 -1.4144 -3.9684 -1.8918
  595MOL0     H78492   5.026   4.551   1.080  0.5967  1.4547 -1.1088
  595MOL0     H78493   5.213   4.618   0.825  3.1599 -0.6094 -1.4610
  595MOL0     H78494   5.374   4.789   0.753 -0.9277  3.1157 -1.1108
  595MOL0     H78495   5.499   4.840   0.868 -0.0864 -2.0889 -0.1019
  595MOL0     H78496   5.223   4.959   0.825 -0.9054  1.3733  1.1994
  595MOL0     H78497   5.383   5.036   0.785  1.5354 -2.5842 -1.0703
  595MOL0     H78498   5.237   4.992   1.046 -1.0356 -0.2775 -2.3440
  595MOL0     H78499   5.419   5.002   1.029  2.5835  1.3356 -4.5600
  595MOL0     H78500   5.211   5.219   0.964 -0.8309 -0.7124  1.1954
  595MOL0     H78501   5.396   5.223   0.932  0.8885 -3.2280  0.2624
  595MOL0     H78502   5.470   5.058   1.244 -2.4721  0.4772  0.3687
  595MOL0     H78503   5.707   5.102   1.342  1.7075  1.3610  1.7859
  595MOL0     H78504   6.068   5.174   1.130  0.5088  0.3739 -0.4455
  595MOL0     H78505   6.302   5.137   1.127  1.2136 -0.1533  0.2847
  595MOL0     H78506   6.509   5.146   1.523 -2.8335 -0.6853 -1.4347
  595MOL0     H78507   6.538   5.292   1.427 -2.3073 -0.0761 -1.3825
  595MOL0     H78508   6.668   5.015   1.394  0.1198 -0.0213 -2.8647
  595MOL0     H78509   6.742   5.152   1.491  0.6360 -2.0059 -0.0078
  595MOL0     H78510   6.738   5.296   1.289  0.4303 -1.1754  0.6403
  595MOL0     H78511   6.696   5.160   1.198 -4.0110 -2.5773  3.1625
  595MOL0     H78512   6.962   5.211   1.336 -2.8648  0.4841  1.0309
  595MOL0     H78513   6.920   5.055   1.281 -1.9740  0.7447  1.1154
  595MOL0     H78514   6.866   5.252   1.060 -2.2649 -0.9683  0.1761
  595MOL0     H78515   6.915   5.088   1.060 -0.2209  0.5634 -0.8414
  595MOL0     H78516   7.137   5.144   1.108  0.3332  0.4568  1.7613
  595MOL0     H78517   7.105   5.319   1.139  2.6003 -0.4452 -0.1545
  595MOL0     H78518   7.206   5.272   0.914  0.4961 -0.3627  2.9618
  595MOL0     H78519   7.050   5.197   0.863 -1.1734 -0.9792  0.0350
  595MOL0     H78520   6.957   5.423   0.953  0.2077 -2.1790  1.0076
  595MOL0     H78521   7.032   5.411   0.799  1.8322  0.7473  0.2477
  595MOL0     H78522   6.301   5.178   1.565 -0.8104 -0.1581  0.4903
  595MOL0     H78523   6.063   5.204   1.558  1.6387  0.2518 -0.6332
  595MOL0     H78524   5.686   5.508   1.190  1.1913  0.3176  0.1410
  595MOL0     H78525   5.460   5.465   1.108  2.8184  1.6796 -1.0325
  595MOL0     H78526   5.879   4.242   0.482  0.1657  1.4673 -0.3278
  595MOL0     H78527   6.087   4.196   0.589 -0.4758  0.8368 -1.8502
  595MOL0     H78528   6.236   4.395   1.073  0.2451  1.0830 -0.3184
  595MOL0     H78529   6.420   4.435   1.229  1.5165  0.4280  0.8589
  595MOL0     H78530   6.545   4.345   1.381  0.3855 -1.4683  0.0589
  595MOL0     H78531   6.667   4.483   1.342  0.8569 -0.4690  1.8966
  595MOL0     H78532   6.846   4.360   1.418 -0.4789  2.0595 -2.2543
  595MOL0     H78533   6.730   4.325   1.543  0.0139 -1.0679  0.0063
  595MOL0     H78534   6.807   4.151   1.301  0.4432  2.0684  0.0679
  595MOL0     H78535   6.663   4.116   1.406  0.2728  0.1227  1.1060
  595MOL0     H78536   6.838   4.095   1.588 -1.9813 -1.1172 -0.9721
  595MOL0     H78537   6.861   3.988   1.455 -2.8887  0.4880 -3.9156
  595MOL0     H78538   7.226   4.211   1.478 -0.8927  0.4592  3.0750
  595MOL0     H78539   6.699   4.236   0.984 -0.7286 -1.8622 -0.3591
  595MOL0     H78540   6.528   4.231   0.791  2.9246 -0.7451  2.5422
  596MOL0     O78541   9.800   0.316   8.934 -0.4962  0.4948 -0.4434
  596MOL0     C78542   9.913   0.345   8.922  0.0811 -0.1978  0.0980
  596MOL0     O78543  10.020   0.256   8.922  0.5712 -0.8945  0.2998
  596MOL0     C78544   9.993   0.122   8.926  0.8205 -0.4658 -0.5475
  596MOL0     C78545  10.090   0.038   8.867 -1.1589 -0.2820  0.2748
  596MOL0     C78546  10.071  -0.103   8.860 -0.0100  0.0056 -0.7221
  596MOL0     C78547   9.966  -0.160   8.928  0.0023  1.0115 -0.1630
  596MOL0     O78548   9.953  -0.294   8.945  1.0249 -0.1404  0.3012
  596MOL0     C78549  10.019  -0.399   8.879  0.0683  0.6273  0.0455
  596MOL0     C78550   9.950  -0.542   8.885 -0.7577  0.5953  0.6121
  596MOL0     C78551  10.029  -0.652   8.807 -0.3123  0.5402 -0.3294
  596MOL0     C78552   9.956  -0.787   8.840 -0.2066 -0.4138  0.7679
  596MOL0     C78553  10.044  -0.907   8.785 -0.4229 -0.1517  0.6532
  596MOL0     C78554  10.021  -1.041   8.874  0.9658  0.2357  1.0668
  596MOL0     C78555   9.871  -1.060   8.906  0.4846  0.9445 -0.5304
  596MOL0     C78556   9.836  -1.205   8.915 -0.2477  0.0407 -0.0430
  596MOL0     N78557   9.690  -1.219   8.919  0.6062 -0.3666 -0.0339
  596MOL0     C78558   9.601  -1.175   9.018 -0.0764 -0.0682 -0.2461
  596MOL0     C78559   9.478  -1.225   8.985  0.2043  0.2958 -0.9296
  596MOL0     C78560   9.351  -1.203   9.061 -0.4086 -0.1843 -0.6362
  596MOL0     C78561   9.228  -1.144   8.969 -0.6315  0.3296 -0.2388
  596MOL0     C78562   9.268  -1.038   8.876  0.4841  1.0399  0.0741
  596MOL0     C78563   9.329  -0.919   8.953  0.2322 -0.0667  0.0965
  596MOL0     O78564   9.321  -0.789   8.884  0.3613  0.1822 -0.4348
  596MOL0     C78565   9.200  -0.722   8.901  0.0258 -0.5937  1.3585
  596MOL0     C78566   9.079  -0.777   8.936 -0.4439  0.3760  0.2042
  596MOL0     C78567   8.970  -0.697   8.928  0.1382  1.0076  0.1253
  596MOL0     C78568   8.977  -0.556   8.892  0.5292  0.6001  0.1693
  596MOL0     C78569   8.849  -0.480   8.868 -0.7162  0.0566  0.3599
  596MOL0     O78570   8.734  -0.549   8.873 -0.7082  0.5644 -0.1628
  596MOL0     C78571   8.621  -0.485   8.836 -0.0720 -0.1572  1.1159
  596MOL0     C78572   8.509  -0.488   8.923 -0.0513  1.1993 -0.1673
  596MOL0     C78573   8.388  -0.427   8.874 -0.6757  0.9334  0.0193
  596MOL0     C78574   8.369  -0.361   8.752  0.1617  0.3203 -0.7396
  596MOL0     O78575   8.253  -0.305   8.712  0.3521  0.1157 -0.0976
  596MOL0     C78576   8.141  -0.322   8.793  0.2579 -0.6217  0.5167
  596MOL0     C78577   8.046  -0.206   8.751  0.5272  0.4374  1.3882
  596MOL0     C78578   7.910  -0.217   8.836  0.8567  0.1201 -0.1540
  596MOL0     C78579   7.813  -0.109   8.780 -0.0944 -0.0212 -0.0501
  596MOL0     C78580   7.690  -0.103   8.863 -0.0443  0.6974  0.7297
  596MOL0     C78581   7.608  -0.229   8.822 -0.6038 -0.2236  0.1307
  596MOL0     C78582   7.503  -0.189   8.720  0.2100 -0.3741  0.3829
  596MOL0     C78583   7.404  -0.077   8.777 -0.4378  0.6953 -0.4543
  596MOL0    Cl78584   7.246  -0.090   8.697  0.1468 -0.0890 -0.8319
  596MOL0     C78585   8.480  -0.361   8.679 -0.8313  0.0132  0.5941
  596MOL0     C78586   8.609  -0.419   8.716 -0.2732 -0.3974 -0.4301
  596MOL0     O78587   8.870  -0.361   8.832  0.9504 -0.2453 -0.4495
  596MOL0     C78588   9.103  -0.502   8.873  0.1315  0.2189 -0.1493
  596MOL0     C78589   9.212  -0.588   8.870 -0.2425 -0.7538 -0.5825
  596MOL0     N78590   9.487  -1.308   8.876  0.1883 -0.4993 -0.4814
  596MOL0     N78591   9.609  -1.293   8.838 -0.3049 -0.3891 -0.5139
  596MOL0     C78592   9.876  -0.083   9.001 -0.3912 -0.0935 -0.1853
  596MOL0     C78593   9.881   0.058   8.994 -0.2945  0.2002 -0.0400
  596MOL0     C78594   9.945   0.499   8.907  0.1133  0.2406  0.8330
  596MOL0     C78595   9.854   0.596   8.945  0.8585  0.5128  0.4935
  596MOL0     C78596   9.891   0.733   8.934 -0.2514 -0.1412 -0.9541
  596MOL0     C78597  10.016   0.772   8.884  1.0052 -0.3539  0.4481
  596MOL0     O78598  10.039   0.908   8.878 -0.7577  0.9631  0.0613
  596MOL0     C78599  10.167   0.953   8.830  0.3176  0.5337 -0.5319
  596MOL0     C78600  10.170   1.097   8.803  0.0599  1.0361 -0.6379
  596MOL0     C78601  10.055   1.147   8.713  0.7226  0.9413  0.1263
  596MOL0     C78602  10.059   1.299   8.685  0.7858 -0.9010  0.8259
  596MOL0     C78603  10.146   1.342   8.581 -0.2012 -0.6893 -0.4325
  596MOL0     C78604  10.236   1.358   8.502 -0.0371  0.1905  0.0338
  596MOL0     C78605  10.103   0.670   8.832  0.2005  0.8436 -1.0223
  596MOL0     C78606  10.072   0.538   8.852  0.0424 -0.2119 -0.2003
  596MOL0     H78607  10.174   0.076   8.809 -0.1187 -1.2157  1.1188
  596MOL0     H78608  10.151  -0.155   8.808  0.8771  0.6222 -0.0146
  596MOL0     H78609  10.121  -0.403   8.916 -0.5248  2.0214  1.9987
  596MOL0     H78610  10.035  -0.383   8.772  2.0294  0.8324  0.3374
  596MOL0     H78611   9.850  -0.529   8.842 -0.2978  1.9751 -0.1126
  596MOL0     H78612   9.940  -0.572   8.990  0.3702 -1.2867  0.2265
  596MOL0     H78613  10.133  -0.653   8.841 -0.5441  1.4020  0.4504
  596MOL0     H78614  10.024  -0.626   8.701 -2.5212  0.0683 -0.3917
  596MOL0     H78615   9.952  -0.794   8.949  2.0120 -2.4134  0.8060
  596MOL0     H78616   9.860  -0.793   8.788  0.0329  0.4301  0.2092
  596MOL0     H78617  10.151  -0.893   8.800 -0.3009 -0.9028  0.5209
  596MOL0     H78618  10.024  -0.929   8.679  3.5142  1.2224 -0.5270
  596MOL0     H78619  10.084  -1.040   8.964 -0.4995 -2.5049  2.2565
  596MOL0     H78620  10.046  -1.124   8.807 -1.1480 -0.0824  0.5964
  596MOL0     H78621   9.857  -1.032   9.010 -1.0088 -1.8648  0.1172
  596MOL0     H78622   9.801  -1.019   8.833 -1.5873 -1.1754  0.1237
  596MOL0     H78623   9.887  -1.241   9.005 -1.1739  3.3225  1.9862
  596MOL0     H78624   9.861  -1.256   8.822 -6.3246 -0.0977 -2.0843
  596MOL0     H78625   9.639  -1.116   9.101  0.2251  1.7449 -1.6130
  596MOL0     H78626   9.380  -1.145   9.149  2.1600 -1.1958 -0.7426
  596MOL0     H78627   9.318  -1.305   9.083 -1.1431  0.3684  0.9470
  596MOL0     H78628   9.153  -1.104   9.038 -2.7515  0.0637 -2.2754
  596MOL0     H78629   9.184  -1.227   8.914  0.3681  0.5883 -1.4698
  596MOL0     H78630   9.332  -1.086   8.800  0.5564  0.9558  0.1885
  596MOL0     H78631   9.174  -1.012   8.826 -0.3434  0.1854  1.1218
  596MOL0     H78632   9.433  -0.944   8.978 -0.5243 -4.3626 -0.3036
  596MOL0     H78633   9.279  -0.896   9.048  0.3824  0.1882  0.1156
  596MOL0     H78634   9.065  -0.883   8.953  0.0654  0.6583  2.6718
  596MOL0     H78635   8.873  -0.743   8.940  1.6386 -2.6810 -0.5785
  596MOL0     H78636   8.516  -0.544   9.015 -2.1387  1.7924  0.4053
  596MOL0     H78637   8.309  -0.443   8.946 -0.5623 -1.8860 -0.3406
  596MOL0     H78638   8.159  -0.311   8.900 -0.9685  1.7028  0.5451
  596MOL0     H78639   8.092  -0.419   8.775  0.0414 -0.6140  1.0255
  596MOL0     H78640   8.022  -0.217   8.645 -4.5820  2.5034  2.0646
  596MOL0     H78641   8.080  -0.103   8.766 -0.4067  0.8437  0.7749
  596MOL0     H78642   7.924  -0.199   8.943 -0.6131 -2.3865  0.5647
  596MOL0     H78643   7.869  -0.319   8.834  2.6012 -0.6022 -0.8742
  596MOL0     H78644   7.869  -0.018   8.798  0.1975  0.0767 -1.3607
  596MOL0     H78645   7.782  -0.127   8.676  0.9098 -1.9735 -0.0538
  596MOL0     H78646   7.640  -0.006   8.858 -1.6881 -0.1323 -3.8817
  596MOL0     H78647   7.717  -0.108   8.969 -2.5155  0.5490  1.4106
  596MOL0     H78648   7.555  -0.263   8.912 -1.8477  1.0935 -0.0589
  596MOL0     H78649   7.665  -0.319   8.798 -1.2065 -1.0766  1.6999
  596MOL0     H78650   7.551  -0.154   8.628 -0.3865 -1.3878 -0.3277
  596MOL0     H78651   7.442  -0.278   8.705 -1.4858  1.0552 -1.8845
  596MOL0     H78652   7.450   0.021   8.764  3.2884 -0.9673 -1.2204
  596MOL0     H78653   7.394  -0.098   8.884 -0.1281 -2.5319 -0.9440
  596MOL0     H78654   8.479  -0.313   8.582 -2.4838 -2.2601 -0.6231
  596MOL0     H78655   8.702  -0.407   8.661 -0.2364 -0.1233 -0.3126
  596MOL0     H78656   9.125  -0.397   8.863  2.4535  0.0649  2.3377
  596MOL0     H78657   9.303  -0.547   8.826 -0.9862  0.5821 -0.9339
  596MOL0     H78658   9.795  -0.119   9.064 -0.6845  0.6850 -0.1074
  596MOL0     H78659   9.795   0.108   9.038 -0.6716  3.2359 -3.7435
  596MOL0     H78660   9.755   0.571   8.981  1.5216 -1.4891  1.0769
  596MOL0     H78661   9.822   0.813   8.959  1.2199  1.1956 -0.9312
  596MOL0     H78662  10.203   0.899   8.741  1.9274  2.2070 -0.9562
  596MOL0     H78663  10.245   0.938   8.905  1.2792  2.3444 -1.1131
  596MOL0     H78664  10.152   1.138   8.903  3.1064  1.6787 -0.2667
  596MOL0     H78665  10.268   1.118   8.761 -0.6975  0.0914 -3.0257
  596MOL0     H78666   9.961   1.115   8.760  0.9706  1.9627  1.3797
  596MOL0     H78667  10.053   1.101   8.614 -0.1570  0.9383  0.1390
  596MOL0     H78668   9.962   1.331   8.648  0.4736  2.5787  3.9578
  596MOL0     H78669  10.075   1.357   8.777 -1.5587  1.8537 -0.3623
  596MOL0     H78670  10.322   1.375   8.440  0.4651  0.0854  0.6885
  596MOL0     H78671  10.204   0.686   8.795 -0.0730 -0.5088 -2.4659
  596MOL0     H78672  10.145   0.462   8.826  1.2452  1.2427 -1.2514
  597MOL0     O78673   9.513   4.507   5.688  0.4533  0.2885  0.0136
  597MOL0     C78674   9.620   4.543   5.730 -0.2905 -0.0886 -0.0825
  597MOL0     O78675   9.672   4.667   5.731  1.2731  0.1716  0.3671
  597MOL0     C78676   9.609   4.773   5.678  0.0249  0.5264 -1.1127
  597MOL0     C78677   9.518   4.838   5.759 -0.3256 -1.1189  0.5512
  597MOL0     C78678   9.459   4.956   5.703  0.0432 -0.7227 -0.2710
  597MOL0     C78679   9.465   4.994   5.565  0.3702  0.7037 -1.4230
  597MOL0     O78680   9.421   5.111   5.501  0.2282  0.6397 -0.3411
  597MOL0     C78681   9.297   5.169   5.559  0.1289 -0.7277  0.3351
  597MOL0     C78682   9.251   5.258   5.447 -0.2283 -0.8367 -0.9315
  597MOL0     C78683   9.126   5.333   5.490 -0.8973  0.5274  0.0898
  597MOL0     C78684   8.996   5.275   5.444  0.4095 -0.0999  0.3437
  597MOL0     C78685   8.870   5.346   5.517 -0.2384  0.4655 -0.0488
  597MOL0     C78686   8.802   5.252   5.616  0.3299 -0.0605  0.2493
  597MOL0     C78687   8.672   5.328   5.664 -0.4711 -0.0729 -0.2927
  597MOL0     C78688   8.636   5.279   5.803  0.0186  0.1637  0.3259
  597MOL0     N78689   8.489   5.267   5.823 -0.0123  0.0684 -0.5084
  597MOL0     C78690   8.405   5.361   5.891  0.1071  0.2436 -0.3012
  597MOL0     C78691   8.289   5.301   5.903 -0.5509 -1.3279 -0.3646
  597MOL0     C78692   8.160   5.372   5.966 -0.1810  0.4243  0.5986
  597MOL0     C78693   8.167   5.379   6.123  0.1074  1.0321  0.0452
  597MOL0     C78694   8.033   5.426   6.184  0.3935 -0.2115 -0.4384
  597MOL0     C78695   8.049   5.469   6.327 -0.0575 -0.4592 -0.1290
  597MOL0     O78696   8.065   5.362   6.420  0.3713 -0.1203  0.1703
  597MOL0     C78697   8.044   5.401   6.549  0.0448  0.3558 -1.0118
  597MOL0     C78698   7.959   5.326   6.639  0.4567  0.2805  0.8697
  597MOL0     C78699   7.939   5.370   6.764 -0.2131  0.5328 -1.2234
  597MOL0     C78700   7.994   5.491   6.824 -0.4234  0.5904 -0.2063
  597MOL0     C78701   7.951   5.539   6.959 -0.5592  0.1745  0.6837
  597MOL0     O78702   8.031   5.640   7.005  0.2869  1.0848 -0.4547
  597MOL0     C78703   7.996   5.694   7.122  1.2333 -0.0740 -0.3406
  597MOL0     C78704   7.873   5.748   7.164  0.5226 -0.4269 -0.9451
  597MOL0     C78705   7.873   5.812   7.290 -0.4912  0.3999 -0.3687
  597MOL0     C78706   7.995   5.838   7.366 -0.0042  0.4508 -0.1604
  597MOL0     O78707   8.000   5.923   7.474  0.1656 -0.1158 -0.4237
  597MOL0     C78708   7.909   6.037   7.490 -0.0703 -0.5127 -0.5140
  597MOL0     C78709   7.967   6.162   7.567  1.0490 -0.3555  0.3128
  597MOL0     C78710   7.858   6.254   7.591 -1.0496 -0.6270  0.0495
  597MOL0     C78711   7.923   6.389   7.638 -0.2689  0.5417 -0.1039
  597MOL0     C78712   7.964   6.477   7.518  0.0754  0.4840  0.1056
  597MOL0     C78713   7.901   6.616   7.483 -0.0099 -0.4254  0.1347
  597MOL0     C78714   7.755   6.595   7.432 -0.1004 -0.1934  0.1398
  597MOL0     C78715   7.653   6.583   7.548  0.3962  0.2522  0.2553
  597MOL0    Cl78716   7.655   6.729   7.673 -0.0210  0.0954  0.0639
  597MOL0     C78717   8.105   5.799   7.307 -0.3266 -0.4161  0.0072
  597MOL0     C78718   8.113   5.708   7.203  0.1853  0.5185  0.6425
  597MOL0     O78719   7.855   5.493   7.013 -0.5656 -0.0621 -0.4226
  597MOL0     C78720   8.097   5.550   6.746 -0.3373 -0.4113 -0.5825
  597MOL0     C78721   8.125   5.500   6.615 -0.7347 -0.0749  0.0740
  597MOL0     N78722   8.298   5.176   5.839 -0.0764 -0.4369  0.6928
  597MOL0     N78723   8.419   5.156   5.793  0.4468 -0.8955  0.4695
  597MOL0     C78724   9.554   4.916   5.490 -1.0339  0.7435  0.0860
  597MOL0     C78725   9.624   4.807   5.546 -0.0471  0.0715  0.6133
  597MOL0     C78726   9.707   4.442   5.800  0.8680 -0.1957 -0.4034
  597MOL0     C78727   9.801   4.463   5.895  0.1256 -0.7225  0.2396
  597MOL0     C78728   9.885   4.359   5.934  0.2364 -0.5371 -0.8922
  597MOL0     C78729   9.874   4.233   5.876 -0.2218  0.2315 -0.6089
  597MOL0     O78730   9.937   4.115   5.915  0.1816 -0.0251 -0.0395
  597MOL0     C78731   9.985   4.087   6.044  1.1639  0.1340 -1.3703
  597MOL0     C78732   9.878   4.072   6.159 -0.3911 -0.5514  0.2433
  597MOL0     C78733   9.941   4.010   6.289  0.5927  0.4378 -0.7625
  597MOL0     C78734   9.983   3.863   6.277  0.2395  0.7509 -1.1943
  597MOL0     C78735   9.873   3.776   6.239  0.9276 -0.3918  0.4634
  597MOL0     C78736   9.777   3.713   6.216 -0.0770 -0.0362  0.4672
  597MOL0     C78737   9.791   4.217   5.770 -0.2405  1.0561 -0.0538
  597MOL0     C78738   9.704   4.318   5.743 -0.1577 -0.4308 -0.4871
  597MOL0     H78739   9.511   4.797   5.859 -1.0599 -1.9313  0.1757
  597MOL0     H78740   9.389   5.017   5.760  0.3081  2.0435 -2.6605
  597MOL0     H78741   9.317   5.221   5.653  1.3669 -0.1635 -0.2144
  597MOL0     H78742   9.224   5.088   5.570  2.8688 -3.3205  0.6978
  597MOL0     H78743   9.230   5.207   5.353  2.1030  1.9135 -3.1206
  597MOL0     H78744   9.334   5.328   5.438 -0.1050 -0.6907  0.8410
  597MOL0     H78745   9.129   5.430   5.440 -0.3823  0.1610 -0.6274
  597MOL0     H78746   9.133   5.346   5.598 -0.0941  0.5909  0.0382
  597MOL0     H78747   8.979   5.297   5.339 -1.8502 -3.4962 -0.1236
  597MOL0     H78748   8.994   5.168   5.464  2.5396 -0.0362  1.1684
  597MOL0     H78749   8.810   5.365   5.428 -0.4340  1.2826  0.2465
  597MOL0     H78750   8.912   5.433   5.568  0.1673  0.1180  0.2255
  597MOL0     H78751   8.864   5.231   5.704 -1.1117 -1.5658  0.9552
  597MOL0     H78752   8.769   5.155   5.576 -2.6543  1.5288 -1.4731
  597MOL0     H78753   8.690   5.435   5.674 -1.6378  0.0022  1.7903
  597MOL0     H78754   8.587   5.313   5.597 -0.3488  0.5960 -0.5988
  597MOL0     H78755   8.672   5.332   5.892  1.3608 -0.8017  0.3835
  597MOL0     H78756   8.693   5.188   5.824  3.0479  2.0786  0.8982
  597MOL0     H78757   8.442   5.458   5.923  2.3123 -1.2878  2.2243
  597MOL0     H78758   8.066   5.324   5.938 -1.4972  3.4240 -0.5309
  597MOL0     H78759   8.161   5.471   5.919  0.2846 -1.7818 -4.7767
  597MOL0     H78760   8.250   5.444   6.155  1.8064 -1.8346  1.8465
  597MOL0     H78761   8.187   5.277   6.156 -1.9080  0.4038 -0.5100
  597MOL0     H78762   7.991   5.509   6.127  0.0417 -1.1161 -1.5398
  597MOL0     H78763   7.964   5.340   6.183 -0.8883  0.3912  4.8300
  597MOL0     H78764   7.967   5.532   6.362  0.9551  1.6036 -1.2617
  597MOL0     H78765   8.123   5.550   6.330 -0.8028  0.2149  0.5331
  597MOL0     H78766   7.899   5.247   6.595  1.1026  0.9428 -1.3618
  597MOL0     H78767   7.874   5.296   6.810  2.4832 -1.0030  0.3392
  597MOL0     H78768   7.777   5.740   7.115  0.9436 -0.2933 -1.8031
  597MOL0     H78769   7.775   5.843   7.326  0.4863  2.1933  0.9287
  597MOL0     H78770   7.813   6.004   7.530 -0.8866  0.0851 -1.8919
  597MOL0     H78771   7.888   6.069   7.387  0.4245  0.5770 -0.2924
  597MOL0     H78772   8.040   6.209   7.502  0.3653 -0.1669 -0.3228
  597MOL0     H78773   7.999   6.129   7.667  0.0207 -0.3406  0.6596
  597MOL0     H78774   7.802   6.208   7.673 -1.3680  1.4899  1.1156
  597MOL0     H78775   7.786   6.266   7.509 -0.6233  2.2294 -0.0059
  597MOL0     H78776   7.850   6.446   7.695 -0.6209 -1.5202  1.6385
  597MOL0     H78777   8.003   6.379   7.712 -2.0054  0.6215  1.8802
  597MOL0     H78778   7.959   6.423   7.423 -0.3902  1.5067 -0.4689
  597MOL0     H78779   8.065   6.505   7.549 -0.9211  2.2878  2.0401
  597MOL0     H78780   7.945   6.665   7.395 -0.9138  0.4936  0.1651
  597MOL0     H78781   7.898   6.687   7.566  0.4930  1.2384 -1.2058
  597MOL0     H78782   7.735   6.689   7.379  1.3595  1.8231  2.8832
  597MOL0     H78783   7.744   6.510   7.365  0.9496  0.5151 -0.9774
  597MOL0     H78784   7.657   6.491   7.607 -0.8414 -0.6434 -0.9853
  597MOL0     H78785   7.552   6.576   7.505 -0.2480  0.5055  1.6876
  597MOL0     H78786   8.204   5.833   7.336  0.0860  1.4903 -3.0804
  597MOL0     H78787   8.202   5.668   7.156  0.5260 -0.5321  2.1138
  597MOL0     H78788   8.156   5.625   6.797 -0.0198 -2.3519  2.0973
  597MOL0     H78789   8.207   5.540   6.556 -0.4009 -1.8355 -0.7303
  597MOL0     H78790   9.578   4.935   5.386  0.8516  0.5116  0.4289
  597MOL0     H78791   9.694   4.743   5.494  0.8636 -1.0717  3.1236
  597MOL0     H78792   9.822   4.557   5.945  1.8486  0.0488 -1.7801
  597MOL0     H78793   9.949   4.381   6.019 -1.1011 -1.9967  0.5646
  597MOL0     H78794  10.049   4.167   6.082 -1.4390  1.3168  0.9103
  597MOL0     H78795  10.033   3.989   6.033 -0.4272 -0.9180  0.3379
  597MOL0     H78796   9.842   4.174   6.176  0.9369  0.2214 -1.2825
  597MOL0     H78797   9.797   4.015   6.114 -0.2458  0.4025 -1.3015
  597MOL0     H78798   9.869   4.008   6.371 -0.1191 -0.0513 -1.3757
  597MOL0     H78799  10.024   4.073   6.322  0.9148  1.0940 -2.6508
  597MOL0     H78800  10.062   3.864   6.202  1.7206  0.3691  0.3118
  597MOL0     H78801  10.030   3.834   6.371 -0.3790  0.5366 -0.9441
  597MOL0     H78802   9.687   3.655   6.204  0.7859 -1.4053  0.3512
  597MOL0     H78803   9.781   4.120   5.723 -0.8536 -0.2157  2.5151
  597MOL0     H78804   9.631   4.296   5.666 -0.1191 -1.0315 -0.3611
  598MOL0     O78805   3.939   8.893   5.414  0.3149 -0.2679 -0.2511
  598MOL0     C78806   4.001   8.814   5.486 -0.4860 -0.2463  0.6176
  598MOL0     O78807   3.965   8.779   5.615  0.0435 -0.4167  0.9076
  598MOL0     C78808   3.835   8.782   5.658  1.1101 -0.2112  1.1412
  598MOL0     C78809   3.729   8.738   5.574  0.3188  0.3856 -0.9422
  598MOL0     C78810   3.595   8.737   5.632 -0.1207 -0.2128  0.4800
  598MOL0     C78811   3.570   8.778   5.767 -1.4097 -0.1787 -0.0896
  598MOL0     O78812   3.439   8.777   5.800  0.0050 -0.2518  0.4444
  598MOL0     C78813   3.408   8.729   5.936 -0.5051 -0.0564 -0.4477
  598MOL0     C78814   3.471   8.587   5.973 -0.1291  0.2784  0.6075
  598MOL0     C78815   3.423   8.532   6.115  0.8321  0.1439 -0.4956
  598MOL0     C78816   3.287   8.457   6.124  0.1386 -0.0493  0.6945
  598MOL0     C78817   3.253   8.401   6.269 -0.1175 -0.6209  1.0319
  598MOL0     C78818   3.340   8.278   6.289 -1.0001  0.6475 -0.3771
  598MOL0     C78819   3.346   8.236   6.434 -0.1708 -0.4447 -0.3039
  598MOL0     C78820   3.444   8.114   6.444  0.6892 -0.7069 -0.5292
  598MOL0     N78821   3.424   8.062   6.587  0.0065  0.3957  0.3382
  598MOL0     C78822   3.456   8.123   6.708 -0.3152  0.4658  0.7020
  598MOL0     C78823   3.391   8.056   6.801 -0.1888 -0.0005 -1.0256
  598MOL0     C78824   3.397   8.098   6.946 -0.0118 -0.0731  0.7942
  598MOL0     C78825   3.307   8.011   7.025  0.3851  0.5192  0.2788
  598MOL0     C78826   3.319   8.045   7.176 -0.6601 -0.2507  0.1516
  598MOL0     C78827   3.452   8.022   7.240 -0.0827 -0.0409 -0.0078
  598MOL0     O78828   3.432   8.056   7.380  0.1396 -0.2395 -0.8529
  598MOL0     C78829   3.533   8.035   7.471 -0.5250  0.0876 -0.3157
  598MOL0     C78830   3.648   7.961   7.449 -1.4392 -0.0070  0.6669
  598MOL0     C78831   3.745   7.962   7.552  0.4151 -0.3822  0.2570
  598MOL0     C78832   3.727   8.028   7.677 -0.1537 -0.8803 -0.4885
  598MOL0     C78833   3.830   8.023   7.787 -1.1962 -0.2534  0.1572
  598MOL0     O78834   3.944   7.955   7.750 -0.4822  0.3196  1.1661
  598MOL0     C78835   4.052   7.951   7.831 -0.8477 -1.0135  0.3323
  598MOL0     C78836   4.141   7.833   7.816  0.4071 -0.1978  0.0233
  598MOL0     C78837   4.258   7.839   7.888 -0.6548  0.3143 -0.5440
  598MOL0     C78838   4.286   7.933   7.994 -0.0156 -0.7102 -0.3157
  598MOL0     O78839   4.405   7.943   8.061 -0.1111 -0.1241  0.2578
  598MOL0     C78840   4.522   7.910   7.983  0.1677 -0.6056 -0.1427
  598MOL0     C78841   4.650   7.926   8.077  0.3915 -0.7999  0.4099
  598MOL0     C78842   4.666   7.819   8.179  0.5197  0.3952 -0.3128
  598MOL0     C78843   4.793   7.836   8.257  0.3333  0.4382 -0.2461
  598MOL0     C78844   4.804   7.731   8.356 -0.4164  0.4221 -0.1158
  598MOL0     C78845   4.946   7.713   8.414 -0.2159  0.3473 -0.1449
  598MOL0     C78846   4.991   7.816   8.516  0.0949  0.5124 -0.2480
  598MOL0     C78847   5.130   7.805   8.572  0.9409  0.1505 -0.7526
  598MOL0    Cl78848   5.194   7.974   8.601 -0.3415  0.0796 -0.4094
  598MOL0     C78849   4.197   8.044   8.010  0.2054  1.0337 -0.5027
  598MOL0     C78850   4.090   8.053   7.927 -0.0219 -0.8346  1.0080
  598MOL0     O78851   3.796   8.070   7.899 -0.5463 -1.0872  0.3663
  598MOL0     C78852   3.606   8.093   7.703  0.2382 -0.9156  0.5222
  598MOL0     C78853   3.511   8.089   7.597  0.4067  0.3156  0.6418
  598MOL0     N78854   3.348   7.938   6.740 -0.1510 -0.3550  0.9304
  598MOL0     N78855   3.363   7.941   6.610 -0.4089  0.5343 -0.3045
  598MOL0     C78856   3.676   8.823   5.843  0.5788 -1.1455  0.1995
  598MOL0     C78857   3.812   8.824   5.789 -0.5296 -1.1640  0.6938
  598MOL0     C78858   4.140   8.770   5.437  0.3562 -0.0926 -0.6250
  598MOL0     C78859   4.223   8.688   5.513  0.3395  0.1223  0.7817
  598MOL0     C78860   4.343   8.638   5.465  0.1701 -0.4030 -0.1687
  598MOL0     C78861   4.383   8.660   5.340  0.8861 -0.3408  0.1519
  598MOL0     O78862   4.503   8.611   5.293  0.0028  0.2807  0.0868
  598MOL0     C78863   4.609   8.703   5.271 -0.0083 -0.4200  0.4600
  598MOL0     C78864   4.741   8.624   5.276  0.3214 -0.5092  0.1149
  598MOL0     C78865   4.859   8.727   5.269  0.4211 -0.4065  0.4697
  598MOL0     C78866   4.995   8.674   5.247 -0.2532 -0.3653 -0.0163
  598MOL0     C78867   5.009   8.619   5.111 -0.2038  0.2445  0.5188
  598MOL0     C78868   5.023   8.589   4.991  0.7634  0.1484 -0.2073
  598MOL0     C78869   4.306   8.754   5.262 -0.2964  0.0773 -0.2972
  598MOL0     C78870   4.191   8.814   5.315 -0.6120 -0.4544 -0.5269
  598MOL0     H78871   3.743   8.701   5.473 -0.4268  2.7573 -2.0006
  598MOL0     H78872   3.517   8.706   5.562  1.1274 -1.7722 -0.2761
  598MOL0     H78873   3.300   8.728   5.950 -0.3081  3.1665  2.6332
  598MOL0     H78874   3.454   8.795   6.011 -2.3455  0.0264  0.6739
  598MOL0     H78875   3.580   8.599   5.979  0.0557 -0.3654 -0.9541
  598MOL0     H78876   3.450   8.511   5.897  0.7846  0.1614  0.4470
  598MOL0     H78877   3.420   8.620   6.180  1.7924 -1.2338  1.5063
  598MOL0     H78878   3.497   8.458   6.146  0.1915  0.3214  1.6104
  598MOL0     H78879   3.217   8.536   6.095  1.6483  0.5487 -1.6135
  598MOL0     H78880   3.290   8.365   6.066  0.7221 -1.0564  2.2634
  598MOL0     H78881   3.145   8.385   6.275  0.2267 -3.8406  0.3354
  598MOL0     H78882   3.279   8.482   6.339 -0.6325  1.2410 -0.8297
  598MOL0     H78883   3.437   8.290   6.240 -1.9164  4.0023 -1.6795
  598MOL0     H78884   3.301   8.189   6.239 -1.1482  0.9058 -0.7201
  598MOL0     H78885   3.397   8.312   6.494  2.7335 -1.3895 -1.3866
  598MOL0     H78886   3.247   8.205   6.469 -1.6153  1.2962 -2.4993
  598MOL0     H78887   3.542   8.156   6.422  0.1349  1.5381  0.8999
  598MOL0     H78888   3.403   8.049   6.366 -2.5474  2.0973 -1.4510
  598MOL0     H78889   3.511   8.216   6.721 -1.7355  1.4522 -0.0615
  598MOL0     H78890   3.353   8.198   6.954 -0.7654 -0.2488 -0.8090
  598MOL0     H78891   3.503   8.109   6.974  0.1005  2.8156 -0.4917
  598MOL0     H78892   3.343   7.908   7.011  0.6385  0.5439  0.7349
  598MOL0     H78893   3.205   8.023   6.987  1.1980  0.6346 -2.0717
  598MOL0     H78894   3.296   8.152   7.183  3.9977  1.2009 -2.7065
  598MOL0     H78895   3.244   7.990   7.233  1.1718 -1.4701  1.4793
  598MOL0     H78896   3.537   8.073   7.196  0.4182 -2.5316 -2.1577
  598MOL0     H78897   3.469   7.914   7.240  1.7770  0.1974  1.7349
  598MOL0     H78898   3.669   7.911   7.354 -0.0077 -0.6301  1.2796
  598MOL0     H78899   3.834   7.903   7.531  1.0037  0.4294  0.4452
  598MOL0     H78900   4.114   7.754   7.747  1.6543 -0.6189  0.0028
  598MOL0     H78901   4.335   7.767   7.863 -1.8944 -1.1897 -0.1797
  598MOL0     H78902   4.542   7.977   7.899  1.6163  0.2382  0.8145
  598MOL0     H78903   4.521   7.812   7.936 -2.0806  1.1412 -4.2765
  598MOL0     H78904   4.667   8.021   8.130 -0.0824 -0.4080 -0.1235
  598MOL0     H78905   4.736   7.913   8.011  2.1415  0.6315  2.2743
  598MOL0     H78906   4.647   7.731   8.117 -2.7320 -0.3743  1.5459
  598MOL0     H78907   4.584   7.824   8.251 -0.6344 -0.3596 -1.5341
  598MOL0     H78908   4.875   7.836   8.184  0.6900  0.9632  0.1521
  598MOL0     H78909   4.788   7.933   8.307  2.2110 -0.9661  3.0189
  598MOL0     H78910   4.772   7.639   8.306 -1.9198 -0.2011  1.8681
  598MOL0     H78911   4.728   7.753   8.430 -0.5566 -0.6402  0.0745
  598MOL0     H78912   5.023   7.689   8.339  0.3579  2.4227 -0.2845
  598MOL0     H78913   4.940   7.623   8.475 -0.3453  1.6544  1.8703
  598MOL0     H78914   4.974   7.917   8.477 -2.1967  0.8877  1.5216
  598MOL0     H78915   4.926   7.804   8.603  3.8186 -0.0443  2.6868
  598MOL0     H78916   5.189   7.757   8.493 -1.2534  1.2344 -3.2309
  598MOL0     H78917   5.114   7.745   8.662 -0.5854  0.1897 -0.9743
  598MOL0     H78918   4.227   8.113   8.089 -0.2849  0.9884 -0.2725
  598MOL0     H78919   4.026   8.140   7.937  0.0555 -0.6861  0.2352
  598MOL0     H78920   3.577   8.138   7.797 -1.3500  1.6905 -1.0957
  598MOL0     H78921   3.412   8.131   7.603 -1.4640 -3.6965  1.0457
  598MOL0     H78922   3.673   8.838   5.950  0.0124  4.7487 -0.3040
  598MOL0     H78923   3.896   8.845   5.855  0.2451 -0.1718 -0.5621
  598MOL0     H78924   4.191   8.660   5.613 -1.1915  1.2796  0.6474
  598MOL0     H78925   4.404   8.569   5.522 -0.4803  0.4793  1.6768
  598MOL0     H78926   4.603   8.789   5.339 -1.6266 -0.7929  0.8121
  598MOL0     H78927   4.609   8.738   5.167 -2.1851  0.9994  0.8810
  598MOL0     H78928   4.747   8.558   5.363 -0.7209 -1.7580 -0.7258
  598MOL0     H78929   4.729   8.550   5.196 -1.4976  0.6785 -0.7997
  598MOL0     H78930   4.852   8.791   5.358 -1.3000  0.0616  0.0453
  598MOL0     H78931   4.834   8.779   5.176  4.6521 -1.0085 -1.2159
  598MOL0     H78932   5.065   8.753   5.273  1.5330 -1.9865  0.3494
  598MOL0     H78933   5.022   8.590   5.311  3.1485  0.2226 -0.5047
  598MOL0     H78934   5.033   8.582   4.885  0.3811 -2.0783 -0.1282
  598MOL0     H78935   4.355   8.782   5.169  2.2599 -2.6319  0.0820
  598MOL0     H78936   4.134   8.898   5.277 -1.7736 -0.9950 -0.0163
  599MOL0     O78937   1.052   0.462   2.107  0.1599 -0.9118  0.8069
  599MOL0     C78938   1.066   0.489   2.229 -0.0376  1.1601  1.2145
  599MOL0     O78939   0.975   0.536   2.310 -0.0590 -0.9631 -0.5427
  599MOL0     C78940   0.835   0.546   2.295 -0.2240 -0.9375  0.0869
  599MOL0     C78941   0.775   0.577   2.416  0.3387  0.9436 -0.2802
  599MOL0     C78942   0.638   0.558   2.425 -0.3419  0.1547 -0.4031
  599MOL0     C78943   0.561   0.527   2.313  1.6183 -0.0347  0.3428
  599MOL0     O78944   0.422   0.529   2.315  0.3005  0.1501  0.0341
  599MOL0     C78945   0.341   0.487   2.428 -0.7216 -0.9862  1.1062
  599MOL0     C78946   0.207   0.528   2.388  1.1224 -0.9655 -0.0473
  599MOL0     C78947   0.123   0.569   2.517  0.1812 -0.2234 -0.4527
  599MOL0     C78948  -0.024   0.623   2.486 -1.4350  0.7609  0.4871
  599MOL0     C78949  -0.116   0.503   2.485  0.1812  0.3115 -0.2991
  599MOL0     C78950  -0.271   0.537   2.486 -0.4166  0.2713  1.0002
  599MOL0     C78951  -0.362   0.414   2.516  0.5827  0.7356  0.0335
  599MOL0     C78952  -0.510   0.447   2.492 -0.9767  0.0167  0.5989
  599MOL0     N78953  -0.589   0.360   2.585 -0.8271 -0.5472  0.6395
  599MOL0     C78954  -0.566   0.223   2.600  0.0813  0.2567 -0.7655
  599MOL0     C78955  -0.691   0.175   2.643 -0.3594 -0.2000 -0.2227
  599MOL0     C78956  -0.728   0.030   2.666  0.4350  0.7629 -0.3598
  599MOL0     C78957  -0.820  -0.020   2.552 -0.0748 -0.0394  0.0463
  599MOL0     C78958  -0.833  -0.168   2.568  0.3575  0.5848  0.7935
  599MOL0     C78959  -0.900  -0.235   2.446 -0.4069 -0.0810 -0.6290
  599MOL0     O78960  -1.033  -0.196   2.431  0.4819 -0.3067 -0.3146
  599MOL0     C78961  -1.132  -0.273   2.498 -0.8348 -0.3031  0.7704
  599MOL0     C78962  -1.114  -0.352   2.610 -0.0183  0.5679 -1.0978
  599MOL0     C78963  -1.220  -0.449   2.637  0.0097 -0.2201  1.5817
  599MOL0     C78964  -1.343  -0.445   2.571 -0.6210  0.5455 -1.1557
  599MOL0     C78965  -1.445  -0.518   2.639 -0.5747  0.3607  0.4064
  599MOL0     O78966  -1.566  -0.516   2.570 -0.2438 -0.4865 -0.1377
  599MOL0     C78967  -1.686  -0.490   2.631 -0.3719  0.6959 -0.1717
  599MOL0     C78968  -1.780  -0.467   2.542 -0.2203  0.0349  0.2395
  599MOL0     C78969  -1.918  -0.445   2.585 -0.6186 -0.4245  0.4443
  599MOL0     C78970  -1.955  -0.458   2.722 -0.7303 -0.6494 -0.3487
  599MOL0     O78971  -2.082  -0.428   2.754  0.0587 -0.1216 -0.6215
  599MOL0     C78972  -2.165  -0.542   2.757 -0.0272 -0.4030 -0.3094
  599MOL0     C78973  -2.308  -0.505   2.708  0.0648 -0.0787 -0.5442
  599MOL0     C78974  -2.302  -0.433   2.569 -0.7008 -0.0637 -0.6472
  599MOL0     C78975  -2.445  -0.428   2.519 -0.0761  1.0467 -0.5629
  599MOL0     C78976  -2.520  -0.317   2.584 -0.5098 -0.4838 -0.3386
  599MOL0     C78977  -2.646  -0.275   2.504 -0.2776 -0.4418 -0.0357
  599MOL0     C78978  -2.728  -0.394   2.456 -0.3147  0.0796  0.8764
  599MOL0     C78979  -2.870  -0.340   2.413  0.4618  0.4399 -0.4539
  599MOL0    Cl78980  -3.008  -0.478   2.409  0.0495  0.1473 -0.0246
  599MOL0     C78981  -1.849  -0.481   2.812  0.1458  0.3565  0.5603
  599MOL0     C78982  -1.715  -0.482   2.768  0.5660 -0.6713  0.7852
  599MOL0     O78983  -1.423  -0.563   2.749  0.3621 -0.1511 -0.8288
  599MOL0     C78984  -1.363  -0.352   2.465 -0.0717 -0.6544 -0.3985
  599MOL0     C78985  -1.260  -0.262   2.438  0.4801 -0.7045  0.1926
  599MOL0     N78986  -0.785   0.281   2.656  0.5349  0.2370 -0.5142
  599MOL0     N78987  -0.717   0.380   2.617 -0.5849 -0.0578  0.3578
  599MOL0     C78988   0.619   0.523   2.189  0.1315  0.5509 -0.2239
  599MOL0     C78989   0.754   0.524   2.182 -0.3006  0.8109  0.0014
  599MOL0     C78990   1.196   0.452   2.293 -0.0293  0.2369 -0.0971
  599MOL0     C78991   1.289   0.375   2.225 -0.0484  0.2319 -0.0209
  599MOL0     C78992   1.416   0.346   2.267 -0.1239 -0.8094 -0.0994
  599MOL0     C78993   1.451   0.383   2.396 -0.4584  0.6699  0.4096
  599MOL0     O78994   1.567   0.337   2.451  0.4432  0.3146 -0.6777
  599MOL0     C78995   1.606   0.409   2.565 -0.6697 -0.0271  0.6535
  599MOL0     C78996   1.569   0.347   2.709  0.0446 -0.8690 -0.2223
  599MOL0     C78997   1.595   0.448   2.816  0.0041 -0.1971 -0.9145
  599MOL0     C78998   1.732   0.451   2.873  0.6704  0.3788 -0.3155
  599MOL0     C78999   1.738   0.528   2.999  0.8211  0.9370  0.2084
  599MOL0     C79000   1.757   0.568   3.110 -0.5515 -1.0513 -0.7722
  599MOL0     C79001   1.359   0.453   2.472  0.3809  0.0729 -0.2246
  599MOL0     C79002   1.236   0.492   2.419  0.2808  0.5364  0.0329
  599MOL0     H79003   0.834   0.592   2.506  1.9659 -1.5779 -0.8196
  599MOL0     H79004   0.597   0.558   2.526 -1.3218  1.1222 -0.7791
  599MOL0     H79005   0.372   0.545   2.516  0.2653 -0.7894  0.6450
  599MOL0     H79006   0.339   0.378   2.432  2.4255 -1.1095  1.7176
  599MOL0     H79007   0.166   0.439   2.339  1.7335 -0.8547 -0.7897
  599MOL0     H79008   0.199   0.619   2.328 -2.4288  0.6938  2.6401
  599MOL0     H79009   0.184   0.654   2.548 -1.1121  1.2241 -1.7051
  599MOL0     H79010   0.123   0.488   2.591  1.3728  1.0469  0.9953
  599MOL0     H79011  -0.056   0.697   2.560  0.7381  0.8955  1.3729
  599MOL0     H79012  -0.023   0.667   2.386 -0.2989  3.3950  1.5493
  599MOL0     H79013  -0.102   0.445   2.577 -0.3755 -0.4978 -0.7153
  599MOL0     H79014  -0.094   0.438   2.400 -1.1454  0.3071 -0.6544
  599MOL0     H79015  -0.277   0.583   2.387  3.5007 -2.5206 -0.8284
  599MOL0     H79016  -0.298   0.621   2.551  1.3444 -0.4479  2.7856
  599MOL0     H79017  -0.329   0.326   2.459 -1.6083 -0.1087 -0.0226
  599MOL0     H79018  -0.350   0.389   2.621  0.9249  0.7614  0.0024
  599MOL0     H79019  -0.524   0.449   2.384 -3.3909  3.9054  0.8130
  599MOL0     H79020  -0.538   0.550   2.514  2.2194  1.0450  0.3393
  599MOL0     H79021  -0.478   0.164   2.577 -0.2994 -1.5104  1.8105
  599MOL0     H79022  -0.780   0.010   2.760  0.0308  2.5503 -0.1718
  599MOL0     H79023  -0.636  -0.028   2.671  0.6169  1.0931  0.3364
  599MOL0     H79024  -0.777   0.005   2.455 -0.0967  1.2223  0.3383
  599MOL0     H79025  -0.923   0.016   2.564 -0.2424 -1.0968  2.3478
  599MOL0     H79026  -0.737  -0.218   2.585 -1.1869 -2.7238  0.4270
  599MOL0     H79027  -0.894  -0.195   2.655 -1.2793 -0.8854 -0.7444
  599MOL0     H79028  -0.899  -0.344   2.458 -1.4658 -0.1978 -1.4375
  599MOL0     H79029  -0.842  -0.213   2.356  0.1793 -1.5887 -0.6540
  599MOL0     H79030  -1.029  -0.356   2.678  0.4360  0.9123 -1.6381
  599MOL0     H79031  -1.196  -0.526   2.711  2.7490 -3.1172 -1.9169
  599MOL0     H79032  -1.736  -0.455   2.444  1.9305  1.5796  1.3280
  599MOL0     H79033  -1.986  -0.433   2.501  0.6715  0.1763 -0.5460
  599MOL0     H79034  -2.175  -0.592   2.853 -4.6815 -2.5207 -1.5974
  599MOL0     H79035  -2.132  -0.619   2.686 -1.2315 -1.3093  0.0964
  599MOL0     H79036  -2.336  -0.435   2.788  3.1986 -0.2801  0.8731
  599MOL0     H79037  -2.366  -0.596   2.719  3.7815 -2.4313  1.5950
  599MOL0     H79038  -2.243  -0.487   2.494 -0.5446  2.4503 -2.4737
  599MOL0     H79039  -2.255  -0.335   2.580  1.7895 -0.9885 -2.1311
  599MOL0     H79040  -2.447  -0.406   2.412  0.0798 -2.9213 -1.5517
  599MOL0     H79041  -2.495  -0.525   2.518 -0.9861  1.4968  0.2289
  599MOL0     H79042  -2.466  -0.224   2.601  0.2141 -1.1110  0.9464
  599MOL0     H79043  -2.557  -0.354   2.680  0.0199 -1.0772 -0.3537
  599MOL0     H79044  -2.602  -0.220   2.421 -0.7609  2.3662  1.4398
  599MOL0     H79045  -2.707  -0.209   2.567  1.7691 -1.9497  3.9139
  599MOL0     H79046  -2.680  -0.444   2.372 -0.8823  0.7443  0.1457
  599MOL0     H79047  -2.741  -0.456   2.545 -1.8908  0.8287  1.2185
  599MOL0     H79048  -2.857  -0.275   2.326  4.6419  3.2942  1.9705
  599MOL0     H79049  -2.901  -0.273   2.494 -0.9346 -2.0578  1.2146
  599MOL0     H79050  -1.866  -0.459   2.917 -3.9330  2.4970 -0.3109
  599MOL0     H79051  -1.635  -0.485   2.841  0.7123  1.7149  0.8080
  599MOL0     H79052  -1.461  -0.348   2.418  0.8339  0.8258 -2.2947
  599MOL0     H79053  -1.277  -0.194   2.355 -1.4696  0.4473  1.4466
  599MOL0     H79054   0.554   0.494   2.107  2.4775  2.2963 -2.8918
  599MOL0     H79055   0.797   0.474   2.095 -1.4780  0.3544 -0.3393
  599MOL0     H79056   1.256   0.331   2.131  1.6697  0.3771 -0.7144
  599MOL0     H79057   1.490   0.283   2.220 -0.3046  0.0396 -1.6117
  599MOL0     H79058   1.580   0.513   2.541 -0.7208 -0.1849 -0.0037
  599MOL0     H79059   1.715   0.395   2.564 -0.3246  2.1420 -1.5952
  599MOL0     H79060   1.463   0.323   2.699 -0.4077  1.5729 -2.1317
  599MOL0     H79061   1.618   0.255   2.742  0.9511  0.2056  1.6101
  599MOL0     H79062   1.520   0.414   2.888  1.3244 -1.8406 -0.2372
  599MOL0     H79063   1.581   0.547   2.772  0.6982 -0.0227 -0.7655
  599MOL0     H79064   1.766   0.351   2.900 -2.1034 -0.4642  0.3399
  599MOL0     H79065   1.801   0.487   2.797  0.2489  0.6345 -0.5816
  599MOL0     H79066   1.774   0.611   3.207  0.8518 -1.3851 -0.8474
  599MOL0     H79067   1.380   0.488   2.573  1.0286 -1.5066  0.2199
  599MOL0     H79068   1.166   0.556   2.472 -0.9932 -0.1517 -0.7634
  600MOL0     O79069   0.482   2.758  10.812  0.4402 -0.6637 -0.3054
  600MOL0     C79070   0.566   2.819  10.874  0.9207  1.5085  0.4869
  600MOL0     O79071   0.599   2.795  11.009  0.7280 -0.0773  0.5396
  600MOL0     C79072   0.539   2.697  11.082  0.1765  0.2126 -0.0381
  600MOL0     C79073   0.466   2.587  11.044  0.3385 -0.8032 -0.1877
  600MOL0     C79074   0.392   2.515  11.145 -0.5404 -0.1581 -0.0759
  600MOL0     C79075   0.386   2.552  11.283 -0.3075 -0.0120 -0.0410
  600MOL0     O79076   0.313   2.493  11.389  0.7714 -0.7076  0.3121
  600MOL0     C79077   0.195   2.421  11.363 -0.5824 -0.2952  0.5009
  600MOL0     C79078   0.117   2.383  11.484 -0.1312 -0.1224  0.3686
  600MOL0     C79079   0.185   2.299  11.585 -0.9103  0.1416  0.2150
  600MOL0     C79080   0.194   2.152  11.541 -1.4626 -0.7565 -0.6313
  600MOL0     C79081   0.300   2.080  11.636 -0.3822  0.9834  0.2179
  600MOL0     C79082   0.312   1.929  11.616 -0.0900  0.1188  0.1893
  600MOL0     C79083   0.212   1.834  11.692  0.0822 -0.0097 -0.4801
  600MOL0     C79084   0.276   1.698  11.724  0.6319 -0.0206  0.6039
  600MOL0     N79085   0.281   1.610  11.606  0.4138 -0.2171 -0.0389
  600MOL0     C79086   0.366   1.636  11.501  0.1647  0.4516 -0.3399
  600MOL0     C79087   0.329   1.538  11.414 -0.2617 -0.0187 -1.0928
  600MOL0     C79088   0.383   1.516  11.278  0.4739 -0.4076  0.3111
  600MOL0     C79089   0.527   1.476  11.268 -0.5055 -0.3044  0.2799
  600MOL0     C79090   0.570   1.330  11.320  1.3317  1.3706 -0.5681
  600MOL0     C79091   0.714   1.296  11.281  0.0705 -0.0335  0.6514
  600MOL0     O79092   0.739   1.157  11.286  0.1834 -0.1223 -0.2645
  600MOL0     C79093   0.722   1.084  11.172 -0.8006  0.0656 -0.5350
  600MOL0     C79094   0.682   0.949  11.197 -0.5379  0.7710 -0.2734
  600MOL0     C79095   0.683   0.854  11.089 -0.0463 -0.5857  0.5978
  600MOL0     C79096   0.715   0.897  10.958  1.8771 -0.7942 -0.2986
  600MOL0     C79097   0.706   0.808  10.842 -0.1257  0.1968 -0.0606
  600MOL0     O79098   0.726   0.860  10.708 -0.1022  0.6757  0.2219
  600MOL0     C79099   0.719   0.765  10.614  0.1937 -0.1324  0.1618
  600MOL0     C79100   0.838   0.701  10.579 -0.3477  0.3350 -0.0783
  600MOL0     C79101   0.833   0.580  10.502  0.3709 -0.4713 -0.7623
  600MOL0     C79102   0.706   0.531  10.459  0.3373  0.3780 -0.1269
  600MOL0     O79103   0.701   0.412  10.401  0.5783  0.2921 -0.1141
  600MOL0     C79104   0.580   0.338  10.375 -1.1660  0.1729  0.1517
  600MOL0     C79105   0.526   0.264  10.497 -0.1573 -0.2406 -0.3076
  600MOL0     C79106   0.622   0.144  10.530 -0.2473  0.1568  0.2545
  600MOL0     C79107   0.552   0.055  10.637  0.1636  0.3406 -0.3643
  600MOL0     C79108   0.654  -0.023  10.739 -0.2002 -0.4932 -0.6940
  600MOL0     C79109   0.588  -0.123  10.833 -0.6097 -0.1721  0.1454
  600MOL0     C79110   0.561  -0.251  10.750  0.8309  1.0614 -0.8200
  600MOL0     C79111   0.542  -0.381  10.839 -1.1991 -0.3715  0.6299
  600MOL0    Cl79112   0.538  -0.534  10.744 -0.1677  0.3156 -0.2914
  600MOL0     C79113   0.591   0.615  10.480  0.4734  0.2652 -0.1010
  600MOL0     C79114   0.601   0.725  10.560  0.3192  0.8545 -0.5667
  600MOL0     O79115   0.684   0.686  10.870  0.7597 -0.6235 -0.0691
  600MOL0     C79116   0.724   1.036  10.937  0.2970  0.8122  0.3808
  600MOL0     C79117   0.742   1.126  11.039  0.7332 -0.5202 -0.1817
  600MOL0     N79118   0.227   1.463  11.466 -0.4258 -0.1364 -0.4530
  600MOL0     N79119   0.200   1.507  11.586 -0.2863  0.4677  0.6726
  600MOL0     C79120   0.466   2.659  11.312  0.3538 -0.5099 -0.2490
  600MOL0     C79121   0.548   2.727  11.218 -0.3858  0.0770 -2.1084
  600MOL0     C79122   0.642   2.924  10.806  0.9249 -0.2769 -0.0743
  600MOL0     C79123   0.606   2.982  10.685 -0.2726  0.1410  0.0103
  600MOL0     C79124   0.674   3.091  10.633  0.7941 -0.3428 -0.0044
  600MOL0     C79125   0.779   3.144  10.709  0.1777 -1.2209 -0.1851
  600MOL0     O79126   0.854   3.247  10.678  0.2597 -0.7158  0.5327
  600MOL0     C79127   0.794   3.361  10.599 -0.6187  0.1844 -1.0080
  600MOL0     C79128   0.671   3.419  10.661  0.3027  0.0216  0.0162
  600MOL0     C79129   0.585   3.505  10.568  0.0835 -0.5956  0.3161
  600MOL0     C79130   0.660   3.629  10.515  0.9881 -0.2336 -0.4148
  600MOL0     C79131   0.586   3.746  10.561  0.6349 -0.8673 -1.0790
  600MOL0     C79132   0.544   3.857  10.602  0.0728  0.6393 -0.3937
  600MOL0     C79133   0.817   3.091  10.830 -0.8939  0.7993 -0.0638
  600MOL0     C79134   0.748   2.981  10.880  0.4999 -0.1729 -0.8500
  600MOL0     H79135   0.456   2.560  10.939  1.8393  0.3901 -0.6772
  600MOL0     H79136   0.346   2.422  11.111 -3.0786  1.2774 -0.8904
  600MOL0     H79137   0.220   2.344  11.290  3.2103  0.7010  0.5704
  600MOL0     H79138   0.130   2.500  11.324 -1.4771 -1.2394  0.0230
  600MOL0     H79139   0.026   2.334  11.447  0.0082  0.1709 -0.3807
  600MOL0     H79140   0.096   2.478  11.533 -0.4517  0.6791 -1.2697
  600MOL0     H79141   0.138   2.301  11.684 -1.2200 -0.7210  0.0973
  600MOL0     H79142   0.287   2.335  11.603 -0.0644 -0.4169 -2.8427
  600MOL0     H79143   0.105   2.087  11.543  0.6676 -4.0048  2.8371
  600MOL0     H79144   0.236   2.150  11.440 -1.1651 -0.5042 -0.5145
  600MOL0     H79145   0.276   2.101  11.741  2.1626  3.7471  0.3848
  600MOL0     H79146   0.399   2.127  11.630  0.8944 -1.4083  1.1507
  600MOL0     H79147   0.410   1.909  11.660 -0.7730 -0.1277  1.6563
  600MOL0     H79148   0.318   1.902  11.511 -4.0650 -2.5141  0.4300
  600MOL0     H79149   0.183   1.877  11.789  0.5945  1.7893 -1.0816
  600MOL0     H79150   0.124   1.824  11.628  0.0126 -2.1719 -0.1148
  600MOL0     H79151   0.199   1.653  11.787  0.6038 -0.4526  0.2688
  600MOL0     H79152   0.363   1.701  11.791  0.5277 -1.1508  0.8168
  600MOL0     H79153   0.452   1.701  11.491 -0.0739  0.8679  0.2675
  600MOL0     H79154   0.372   1.607  11.219  2.0232 -0.9095 -0.8061
  600MOL0     H79155   0.319   1.438  11.234 -1.6542  1.8081 -0.7435
  600MOL0     H79156   0.582   1.545  11.333  0.2175 -0.5922 -0.0167
  600MOL0     H79157   0.568   1.506  11.171 -0.1652  0.3392  0.6133
  600MOL0     H79158   0.562   1.339  11.429  1.2446  0.2345 -0.4664
  600MOL0     H79159   0.504   1.249  11.286  0.5065  1.8511 -0.1254
  600MOL0     H79160   0.785   1.351  11.344  1.1733  0.4117 -0.9295
  600MOL0     H79161   0.734   1.326  11.178  4.1051 -0.5061  1.1569
  600MOL0     H79162   0.672   0.911  11.298  0.6632  4.6513  1.5093
  600MOL0     H79163   0.672   0.750  11.118  0.4710 -0.3134  1.8268
  600MOL0     H79164   0.930   0.733  10.626 -0.1699  0.3292 -0.4138
  600MOL0     H79165   0.932   0.538  10.488  0.7945  0.0772  0.4146
  600MOL0     H79166   0.598   0.256  10.303  1.2174 -0.7456  1.6671
  600MOL0     H79167   0.497   0.401  10.342  0.1825  1.3424 -1.1250
  600MOL0     H79168   0.424   0.226  10.489  0.5312 -2.1600 -0.4118
  600MOL0     H79169   0.524   0.331  10.583  0.8909 -0.5139 -0.0544
  600MOL0     H79170   0.703   0.197  10.581 -0.2626  1.0324 -0.6194
  600MOL0     H79171   0.665   0.097  10.441  1.3646  2.2697 -0.1466
  600MOL0     H79172   0.485   0.112  10.701  1.3403  1.1244  0.2112
  600MOL0     H79173   0.497  -0.016  10.574 -0.8683  1.9404 -1.3313
  600MOL0     H79174   0.699   0.055  10.800 -4.3127  0.3726  1.6234
  600MOL0     H79175   0.735  -0.075  10.688 -0.8418 -2.6150  0.3354
  600MOL0     H79176   0.498  -0.071  10.868 -0.4160  0.9188 -0.9064
  600MOL0     H79177   0.652  -0.143  10.920 -0.6790  1.5548  0.6218
  600MOL0     H79178   0.465  -0.237  10.700  0.5558  2.5835  0.0628
  600MOL0     H79179   0.632  -0.277  10.672  1.5989 -1.5199  0.6050
  600MOL0     H79180   0.452  -0.363  10.898  0.0278  6.1260  1.3246
  600MOL0     H79181   0.632  -0.392  10.902 -0.4855 -2.0865 -0.6153
  600MOL0     H79182   0.487   0.589  10.464 -0.2176  1.5499  1.8734
  600MOL0     H79183   0.512   0.772  10.599  0.1384  0.8604 -0.9768
  600MOL0     H79184   0.732   1.064  10.832 -3.4298  0.6678 -0.0797
  600MOL0     H79185   0.792   1.220  11.018  1.8176 -0.6229  1.6536
  600MOL0     H79186   0.467   2.684  11.418 -2.9931 -0.5133 -0.0964
  600MOL0     H79187   0.617   2.801  11.256  1.0010 -0.6142 -3.1947
  600MOL0     H79188   0.523   2.941  10.629  2.6973 -2.0600 -3.2058
  600MOL0     H79189   0.649   3.116  10.531  2.3851 -2.7257 -1.0600
  600MOL0     H79190   0.772   3.325  10.498 -2.9522 -0.2567 -0.3993
  600MOL0     H79191   0.875   3.432  10.581  0.3139 -0.2868  1.0779
  600MOL0     H79192   0.596   3.343  10.687 -1.1389  1.3389 -0.1270
  600MOL0     H79193   0.701   3.466  10.756 -1.5136 -2.4585  1.9510
  600MOL0     H79194   0.492   3.543  10.611 -1.8363  0.3814 -4.1186
  600MOL0     H79195   0.551   3.441  10.487  2.2266 -2.7856  1.0376
  600MOL0     H79196   0.767   3.629  10.533  0.9158 -0.7620  0.0390
  600MOL0     H79197   0.658   3.635  10.406 -1.9551 -1.8666 -0.5642
  600MOL0     H79198   0.514   3.955  10.633 -1.3891 -0.3328  1.4748
  600MOL0     H79199   0.911   3.124  10.871 -1.1679 -1.6350  2.8736
  600MOL0     H79200   0.779   2.931  10.971  0.1795 -1.9191 -1.6577
  601MOL0     O79201   3.629   8.406   6.518  0.5307 -0.1805  0.6929
  601MOL0     C79202   3.655   8.403   6.636 -0.1648 -0.7697  0.4733
  601MOL0     O79203   3.582   8.454   6.740 -0.1943  0.1244  0.1826
  601MOL0     C79204   3.466   8.520   6.709  0.4726  0.2175 -0.0210
  601MOL0     C79205   3.355   8.495   6.789  0.4194 -0.2447  0.3871
  601MOL0     C79206   3.227   8.555   6.762  0.1177  0.0457 -0.4618
  601MOL0     C79207   3.208   8.634   6.648  0.3063  0.4566 -0.3305
  601MOL0     O79208   3.091   8.686   6.610  0.5536  0.6962 -0.4355
  601MOL0     C79209   3.048   8.678   6.473 -0.2288  1.2744 -0.6106
  601MOL0     C79210   2.896   8.717   6.443 -0.6768 -0.1174 -0.4345
  601MOL0     C79211   2.849   8.857   6.463 -0.2525 -0.3021 -0.4819
  601MOL0     C79212   2.713   8.886   6.409 -0.4142 -0.0002 -1.0810
  601MOL0     C79213   2.643   9.000   6.482  0.4578  0.3082  0.2019
  601MOL0     C79214   2.500   8.998   6.448  0.7561  0.7769  0.2298
  601MOL0     C79215   2.426   9.121   6.515 -0.6000 -0.5769 -0.2212
  601MOL0     C79216   2.290   9.132   6.443  0.3391 -0.3005 -0.3205
  601MOL0     N79217   2.186   9.034   6.471 -0.4010 -0.8645 -0.7079
  601MOL0     C79218   2.158   8.927   6.394 -1.6162  0.2893 -0.2271
  601MOL0     C79219   2.060   8.869   6.454  0.2951  1.1606 -0.1333
  601MOL0     C79220   2.001   8.737   6.421  0.7436 -0.2646  0.7388
  601MOL0     C79221   2.000   8.643   6.540  0.1352 -0.4926 -0.8647
  601MOL0     C79222   2.139   8.590   6.583 -0.3912 -0.5203  0.0922
  601MOL0     C79223   2.216   8.523   6.470  0.1264 -0.2331 -0.1049
  601MOL0     O79224   2.293   8.619   6.392 -0.0602  0.1176  0.6460
  601MOL0     C79225   2.416   8.584   6.354  0.2869  0.5723 -0.3195
  601MOL0     C79226   2.442   8.619   6.225 -0.3651  0.7794  0.0261
  601MOL0     C79227   2.559   8.578   6.176 -1.2490  0.3712 -0.1814
  601MOL0     C79228   2.659   8.510   6.252 -0.4357  0.2572  0.7307
  601MOL0     C79229   2.781   8.466   6.187 -0.3349 -0.3607 -0.4743
  601MOL0     O79230   2.804   8.519   6.073 -0.0987  0.1059  0.6734
  601MOL0     C79231   2.907   8.486   5.995  0.2289  0.1469 -0.6249
  601MOL0     C79232   2.972   8.582   5.929  0.5726  0.1730 -0.3585
  601MOL0     C79233   3.083   8.559   5.848  0.1144 -0.1268 -0.3827
  601MOL0     C79234   3.123   8.428   5.825  0.9869  1.2237  0.5402
  601MOL0     O79235   3.231   8.402   5.740 -0.0645  0.2424  0.6863
  601MOL0     C79236   3.217   8.421   5.596  0.1872  0.7527  0.8186
  601MOL0     C79237   3.273   8.559   5.553 -0.6286  0.0071 -0.0543
  601MOL0     C79238   3.309   8.564   5.408  0.3622  0.8225  0.7783
  601MOL0     C79239   3.429   8.472   5.375  0.1772 -0.4269  0.0901
  601MOL0     C79240   3.464   8.472   5.223  0.2082  0.7444 -0.1359
  601MOL0     C79241   3.377   8.366   5.143  0.0357  0.7149  0.8997
  601MOL0     C79242   3.427   8.351   4.995  0.5332  0.1499  0.1068
  601MOL0     C79243   3.335   8.401   4.879  0.2547  0.4397  0.2931
  601MOL0    Cl79244   3.413   8.352   4.717 -0.0776  0.1921 -0.0062
  601MOL0     C79245   3.055   8.322   5.886  0.9582  0.6658 -0.0173
  601MOL0     C79246   2.952   8.347   5.971  0.5717 -0.2873  0.1767
  601MOL0     O79247   2.860   8.398   6.251  0.6284 -0.3792  0.3332
  601MOL0     C79248   2.628   8.476   6.381  0.1295 -0.0875 -0.3648
  601MOL0     C79249   2.504   8.515   6.431 -0.6981 -0.0017 -0.9213
  601MOL0     N79250   2.026   8.932   6.572  0.3744  1.1765 -0.3324
  601MOL0     N79251   2.099   9.036   6.579  0.0617  0.2580  0.5264
  601MOL0     C79252   3.327   8.674   6.588  0.2776 -0.2142 -0.8436
  601MOL0     C79253   3.448   8.611   6.606 -0.0951 -0.6900  0.2734
  601MOL0     C79254   3.775   8.329   6.678  0.0672 -0.1123 -0.6500
  601MOL0     C79255   3.836   8.243   6.593 -1.3288  1.1788  0.6026
  601MOL0     C79256   3.953   8.171   6.629 -0.0165 -0.3007  1.1679
  601MOL0     C79257   4.009   8.192   6.754 -0.9801 -0.1909 -0.0352
  601MOL0     O79258   4.110   8.108   6.779  0.1199  0.3469 -0.8710
  601MOL0     C79259   4.178   8.120   6.905 -0.0757  0.7190  0.4865
  601MOL0     C79260   4.289   8.225   6.895  0.4807 -0.0405  0.1501
  601MOL0     C79261   4.363   8.267   7.025 -0.6539 -0.7716  0.0713
  601MOL0     C79262   4.492   8.343   7.007  0.0854  0.6969  0.6012
  601MOL0     C79263   4.481   8.449   6.914 -0.3332 -0.6537 -0.3137
  601MOL0     C79264   4.469   8.540   6.839 -0.3590  0.3422 -1.1712
  601MOL0     C79265   3.942   8.274   6.844  0.1866 -0.4842  0.3517
  601MOL0     C79266   3.823   8.336   6.811  1.0740 -0.4918 -0.0108
  601MOL0     H79267   3.377   8.421   6.866 -1.6948 -1.1031  0.2363
  601MOL0     H79268   3.146   8.538   6.833  0.7977 -1.0686  0.0678
  601MOL0     H79269   3.061   8.574   6.442  0.6735  1.1590  0.1352
  601MOL0     H79270   3.106   8.746   6.409 -0.8974  1.4322 -1.0652
  601MOL0     H79271   2.831   8.664   6.514 -0.4266  0.9411  0.6086
  601MOL0     H79272   2.887   8.681   6.340  4.4337 -2.3573 -0.4199
  601MOL0     H79273   2.921   8.928   6.420 -0.5247  0.9271  1.0083
  601MOL0     H79274   2.861   8.869   6.571 -1.6044 -0.4574 -0.3008
  601MOL0     H79275   2.717   8.891   6.299  0.6970  0.5515 -1.0273
  601MOL0     H79276   2.659   8.799   6.447 -1.8021  0.1848 -2.5019
  601MOL0     H79277   2.688   9.096   6.455 -0.4248  0.4573 -0.8033
  601MOL0     H79278   2.650   8.997   6.591  1.0442 -4.2388  0.2422
  601MOL0     H79279   2.460   8.905   6.492  2.5126 -1.2878 -2.2193
  601MOL0     H79280   2.485   9.000   6.340 -2.6924 -0.9679  0.5429
  601MOL0     H79281   2.411   9.110   6.623  0.7001 -2.8823 -0.2014
  601MOL0     H79282   2.478   9.215   6.497 -0.0254 -0.3409  2.2498
  601MOL0     H79283   2.300   9.140   6.334  0.3209  0.9374 -0.2530
  601MOL0     H79284   2.266   9.233   6.479 -1.5931 -2.1037  4.1202
  601MOL0     H79285   2.201   8.903   6.298  1.5881 -0.6572  1.3206
  601MOL0     H79286   2.055   8.708   6.331 -1.1670 -0.2046 -0.5073
  601MOL0     H79287   1.900   8.762   6.386  1.8807  0.0825 -2.6922
  601MOL0     H79288   1.937   8.555   6.525 -1.1396  0.0751  0.9308
  601MOL0     H79289   1.950   8.689   6.626  1.5190  0.0856 -0.3392
  601MOL0     H79290   2.197   8.665   6.639  1.4048 -0.8087 -1.2893
  601MOL0     H79291   2.119   8.517   6.662 -0.5852  1.7550  2.2757
  601MOL0     H79292   2.151   8.465   6.404 -1.7600 -0.3114  1.7056
  601MOL0     H79293   2.273   8.439   6.512 -0.9013 -0.2903  1.2644
  601MOL0     H79294   2.375   8.683   6.169 -2.7009  0.1123  1.8876
  601MOL0     H79295   2.586   8.599   6.073  1.5050 -2.6647 -0.2520
  601MOL0     H79296   2.941   8.685   5.945 -0.6430 -0.6475  4.0360
  601MOL0     H79297   3.139   8.641   5.804 -0.9578 -0.0250 -1.6481
  601MOL0     H79298   3.112   8.416   5.565  0.8243 -0.8632 -1.3074
  601MOL0     H79299   3.257   8.334   5.544 -4.0275 -1.7048  1.2130
  601MOL0     H79300   3.360   8.586   5.614  0.5781 -2.2215 -0.6567
  601MOL0     H79301   3.188   8.624   5.576 -1.1259 -1.1872  1.7557
  601MOL0     H79302   3.323   8.667   5.373 -0.1580 -0.4470 -3.8093
  601MOL0     H79303   3.221   8.538   5.349 -1.8438  2.8361  2.9118
  601MOL0     H79304   3.516   8.498   5.436  0.6423  0.9241 -1.0947
  601MOL0     H79305   3.409   8.369   5.408 -0.2291 -1.3868 -2.8428
  601MOL0     H79306   3.570   8.448   5.218 -0.5769 -3.2212 -3.9776
  601MOL0     H79307   3.455   8.570   5.175  1.8297  1.8777  1.6983
  601MOL0     H79308   3.269   8.381   5.154 -0.0386 -0.4860  2.0217
  601MOL0     H79309   3.389   8.272   5.196  0.3296  0.6761  0.7697
  601MOL0     H79310   3.528   8.394   4.990  0.5255  0.0406 -2.5675
  601MOL0     H79311   3.429   8.244   4.976 -3.1893  0.2369 -1.5999
  601MOL0     H79312   3.320   8.509   4.871  1.4262  0.6962  1.2146
  601MOL0     H79313   3.233   8.363   4.887 -0.5980  1.6515 -3.0862
  601MOL0     H79314   3.102   8.228   5.861  1.2488  1.1717 -1.4440
  601MOL0     H79315   2.899   8.265   6.019  0.0014  0.5261  0.9514
  601MOL0     H79316   2.703   8.416   6.430  0.9018  0.2825 -1.0709
  601MOL0     H79317   2.475   8.482   6.530  2.4506  0.2496  0.1878
  601MOL0     H79318   3.326   8.732   6.496  0.8337 -2.0926 -2.0956
  601MOL0     H79319   3.538   8.638   6.553  0.1950 -1.3047  0.4431
  601MOL0     H79320   3.791   8.218   6.497 -1.5532 -1.4099  1.2909
  601MOL0     H79321   4.003   8.096   6.568  0.0577 -0.4901  1.4587
  601MOL0     H79322   4.238   8.033   6.936  3.8529  2.8772 -0.3139
  601MOL0     H79323   4.106   8.135   6.986 -0.3202 -0.6212  0.5463
  601MOL0     H79324   4.360   8.181   6.823  0.1605  2.0245 -1.5279
  601MOL0     H79325   4.246   8.317   6.855 -2.2087 -1.1935  0.1679
  601MOL0     H79326   4.387   8.178   7.084  0.4977  0.5544  1.7054
  601MOL0     H79327   4.303   8.335   7.087  2.4001  2.2285  0.0364
  601MOL0     H79328   4.515   8.393   7.101 -0.0359  0.8742  0.5356
  601MOL0     H79329   4.557   8.261   6.976 -1.3588 -0.9818  1.8056
  601MOL0     H79330   4.458   8.633   6.787 -0.3511  1.3945  0.6313
  601MOL0     H79331   3.965   8.286   6.949  2.2109 -0.0901 -0.0937
  601MOL0     H79332   3.789   8.416   6.875  2.0624 -0.3709  0.3768
  602MOL0     O79333  10.738   2.412  10.501  0.0125  0.3182 -0.2749
  602MOL0     C79334  10.670   2.361  10.412  0.5138 -1.1723 -0.0784
  602MOL0     O79335  10.710   2.332  10.284  0.5371 -0.0829 -0.2004
  602MOL0     C79336  10.823   2.399  10.245  0.6536 -0.6709  0.1751
  602MOL0     C79337  10.821   2.538  10.222  0.1222 -0.4946  1.2556
  602MOL0     C79338  10.930   2.597  10.163 -1.2897  1.0721  0.5494
  602MOL0     C79339  11.048   2.522  10.138  0.4904  0.1132 -0.1275
  602MOL0     O79340  11.166   2.568  10.087 -0.3485 -0.5536  0.8052
  602MOL0     C79341  11.234   2.668  10.170 -0.3108  0.4477  0.4406
  602MOL0     C79342  11.266   2.611  10.305 -0.2806  0.3130 -0.4334
  602MOL0     C79343  11.377   2.698  10.376  0.9705 -0.0506  0.0796
  602MOL0     C79344  11.387   2.654  10.523 -0.1577  0.1274 -0.5939
  602MOL0     C79345  11.505   2.730  10.597  0.1156 -0.9291  0.8001
  602MOL0     C79346  11.541   2.686  10.738 -0.3629 -0.0412  0.4253
  602MOL0     C79347  11.647   2.573  10.743  0.0215 -0.3607  0.1440
  602MOL0     C79348  11.609   2.442  10.671  0.6003  0.7444 -0.0234
  602MOL0     N79349  11.690   2.326  10.696 -1.4995  1.0118 -0.3944
  602MOL0     C79350  11.830   2.329  10.658  0.6699  0.1303  0.8597
  602MOL0     C79351  11.875   2.214  10.714  0.5450  0.5482  0.3829
  602MOL0     C79352  12.023   2.191  10.720  0.8206  1.0722  0.1122
  602MOL0     C79353  12.096   2.165  10.587 -0.0614 -0.3112  0.2996
  602MOL0     C79354  12.042   2.027  10.547  0.0130 -0.4792  0.2953
  602MOL0     C79355  12.142   1.943  10.459  0.9119 -0.2263 -0.1391
  602MOL0     O79356  12.263   1.924  10.536  0.6170  0.3624  0.7949
  602MOL0     C79357  12.314   1.806  10.503  0.8407 -0.1141 -0.2112
  602MOL0     C79358  12.305   1.699  10.592  0.7137  0.8805  0.2803
  602MOL0     C79359  12.380   1.586  10.558  0.1746 -0.3762 -0.8293
  602MOL0     C79360  12.463   1.572  10.447  0.4859 -0.8155 -0.2272
  602MOL0     C79361  12.535   1.445  10.419  0.2257 -0.2360  0.1992
  602MOL0     O79362  12.498   1.338  10.486  0.2153 -0.0144  0.4374
  602MOL0     C79363  12.554   1.221  10.449  0.1504 -0.3161  0.2790
  602MOL0     C79364  12.543   1.165  10.319  0.8371 -0.0017 -0.8964
  602MOL0     C79365  12.571   1.029  10.289 -0.4945  0.2069 -0.7915
  602MOL0     C79366  12.618   0.949  10.401 -0.2311 -1.0471 -0.1132
  602MOL0     O79367  12.644   0.813  10.375  0.0843 -0.2631 -0.3934
  602MOL0     C79368  12.683   0.719  10.469 -1.1253  0.1728  0.5167
  602MOL0     C79369  12.719   0.594  10.386  0.5025 -0.8903  0.1879
  602MOL0     C79370  12.777   0.507  10.499  0.5157  0.0910 -0.8264
  602MOL0     C79371  12.847   0.382  10.447  0.3299 -0.0805 -0.5995
  602MOL0     C79372  12.891   0.278  10.549  0.6244  0.0474  0.1105
  602MOL0     C79373  13.010   0.317  10.639  0.2258 -0.0098  0.7318
  602MOL0     C79374  13.037   0.217  10.759 -0.2278  0.1125 -0.6206
  602MOL0     C79375  13.034   0.070  10.728 -0.3898 -0.1912  1.1844
  602MOL0    Cl79376  13.129  -0.030  10.842  0.9873 -0.2131  0.5828
  602MOL0     C79377  12.648   1.008  10.524 -0.2953  0.2072  0.8626
  602MOL0     C79378  12.613   1.144  10.551 -0.5771  0.4440  0.1383
  602MOL0     O79379  12.627   1.454  10.332  0.6436  0.0641 -0.8041
  602MOL0     C79380  12.459   1.683  10.357 -0.5542 -0.7892 -0.5482
  602MOL0     C79381  12.396   1.800  10.399 -0.1151  0.6932 -0.4500
  602MOL0     N79382  11.772   2.136  10.760  0.8064 -0.2879 -0.2869
  602MOL0     N79383  11.657   2.199  10.739  0.6945  0.2119 -1.1721
  602MOL0     C79384  11.050   2.384  10.167  0.4729 -0.9994  0.2221
  602MOL0     C79385  10.932   2.320  10.224 -0.6233 -0.6842 -0.4594
  602MOL0     C79386  10.532   2.325  10.450 -0.1314 -0.1877 -0.3010
  602MOL0     C79387  10.489   2.307  10.587  0.4608  0.0122  0.9657
  602MOL0     C79388  10.353   2.301  10.615  0.8235  1.1534 -0.6583
  602MOL0     C79389  10.258   2.272  10.525 -0.2366  0.0139 -0.1364
  602MOL0     O79390  10.128   2.244  10.561  0.0771  0.6076  1.0173
  602MOL0     C79391  10.040   2.358  10.581  0.2019 -0.2370  0.1736
  602MOL0     C79392   9.899   2.317  10.613  0.0961 -0.3374  0.3348
  602MOL0     C79393   9.868   2.294  10.756  0.7692 -0.0256  0.6787
  602MOL0     C79394   9.724   2.254  10.774  0.8792 -0.5108  0.1329
  602MOL0     C79395   9.643   2.371  10.806 -0.5548 -0.6339 -0.0983
  602MOL0     C79396   9.560   2.455  10.831  0.2566  0.5151  0.7552
  602MOL0     C79397  10.307   2.260  10.389  0.1034  0.5716  0.2852
  602MOL0     C79398  10.441   2.294  10.353 -0.1651 -0.7887  0.0301
  602MOL0     H79399  10.732   2.597  10.238 -1.1608 -0.9026 -3.0581
  602MOL0     H79400  10.942   2.704  10.145  1.6924  0.6186 -0.7673
  602MOL0     H79401  11.165   2.752  10.176 -3.0253 -1.4004 -2.0020
  602MOL0     H79402  11.330   2.688  10.120 -0.1503 -1.8719 -0.3312
  602MOL0     H79403  11.299   2.507  10.311  1.4376  0.9254  2.1260
  602MOL0     H79404  11.171   2.609  10.360 -0.2846 -0.3630 -0.4570
  602MOL0     H79405  11.350   2.804  10.372  1.0360  0.2360  3.8280
  602MOL0     H79406  11.477   2.681  10.336  1.5134  2.6565  0.1010
  602MOL0     H79407  11.299   2.673  10.585  3.1174  0.7588  4.3617
  602MOL0     H79408  11.396   2.545  10.515  1.7091  0.3481 -2.4601
  602MOL0     H79409  11.485   2.837  10.598  3.6526 -0.1423  1.4031
  602MOL0     H79410  11.596   2.722  10.536  1.2415 -1.9404  2.5354
  602MOL0     H79411  11.447   2.663  10.788  0.2617 -0.5278  1.4049
  602MOL0     H79412  11.600   2.765  10.785  1.4253  0.9734 -3.0883
  602MOL0     H79413  11.736   2.614  10.694  0.2738 -2.1589 -0.9991
  602MOL0     H79414  11.662   2.552  10.849 -2.7642  2.6009  1.2887
  602MOL0     H79415  11.578   2.465  10.569 -0.0174 -0.9671 -0.2568
  602MOL0     H79416  11.513   2.406  10.708  1.2707 -1.7380 -0.5214
  602MOL0     H79417  11.881   2.409  10.607 -0.8965  1.6185  1.5247
  602MOL0     H79418  12.057   2.111  10.788  2.8369  3.0864  1.6275
  602MOL0     H79419  12.080   2.276  10.760 -1.4836  1.0683  3.8368
  602MOL0     H79420  12.205   2.167  10.596 -0.0268  0.3528 -0.1993
  602MOL0     H79421  12.067   2.244  10.517  1.4401 -0.1280 -0.1561
  602MOL0     H79422  12.023   1.968  10.638  2.2659 -1.9476 -0.0949
  602MOL0     H79423  11.954   2.049  10.486 -1.1490  2.6603  2.8496
  602MOL0     H79424  12.166   2.001  10.370  1.8360 -0.0149  0.2351
  602MOL0     H79425  12.087   1.852  10.438 -2.9838  1.6719  0.9216
  602MOL0     H79426  12.237   1.699  10.677 -0.7783  3.8390 -0.7763
  602MOL0     H79427  12.371   1.506  10.632 -0.0720  2.0102  1.8884
  602MOL0     H79428  12.520   1.230  10.237  0.2708  0.3792 -0.4418
  602MOL0     H79429  12.567   0.980  10.192  3.5611  1.1036 -1.6226
  602MOL0     H79430  12.603   0.698  10.540  0.3894 -0.1988  2.1754
  602MOL0     H79431  12.770   0.763  10.520 -1.1906 -1.9431  2.6012
  602MOL0     H79432  12.793   0.633  10.315 -1.4325  0.1801 -1.3372
  602MOL0     H79433  12.628   0.558  10.339 -1.5638  0.4340  2.9051
  602MOL0     H79434  12.692   0.481  10.563 -2.9081 -0.3096 -5.0520
  602MOL0     H79435  12.840   0.571  10.562  0.2085  2.3347 -2.6721
  602MOL0     H79436  12.775   0.317  10.397  2.6133 -2.5183 -0.8994
  602MOL0     H79437  12.932   0.408  10.384  0.3840 -5.4715 -3.2289
  602MOL0     H79438  12.926   0.191  10.493 -0.2293 -0.3313  0.1368
  602MOL0     H79439  12.805   0.257  10.614  0.5668  4.1521  1.6387
  602MOL0     H79440  13.007   0.414  10.689 -0.7952  1.5461 -2.1403
  602MOL0     H79441  13.102   0.318  10.580  0.3560 -2.7076  0.7432
  602MOL0     H79442  13.140   0.240  10.790 -0.9485  1.7067  0.7260
  602MOL0     H79443  12.981   0.236  10.851  0.1627 -0.1076 -0.3319
  602MOL0     H79444  13.059   0.047  10.624 -0.9951  1.0331  0.7499
  602MOL0     H79445  12.929   0.045  10.745 -0.5643 -0.1984  0.1420
  602MOL0     H79446  12.674   0.953  10.613 -0.0470  0.6387  1.0615
  602MOL0     H79447  12.621   1.162  10.658  0.3708 -2.1398  0.5616
  602MOL0     H79448  12.501   1.675  10.257 -1.8578 -3.5636 -0.9679
  602MOL0     H79449  12.395   1.879  10.324 -0.6736 -1.3275 -2.7220
  602MOL0     H79450  11.142   2.334  10.142  0.9763  0.8871 -2.0881
  602MOL0     H79451  10.929   2.216  10.255 -2.0158 -0.7016 -0.6160
  602MOL0     H79452  10.550   2.307  10.676 -1.8082 -3.2242  2.7481
  602MOL0     H79453  10.329   2.319  10.719  0.7013 -0.9760 -0.2746
  602MOL0     H79454  10.050   2.425  10.495 -1.9230  2.5215  1.8888
  602MOL0     H79455  10.082   2.424  10.658 -0.7890 -0.0342  0.5601
  602MOL0     H79456   9.844   2.410  10.591  0.3622  0.0827  1.3848
  602MOL0     H79457   9.866   2.239  10.544 -1.2825  0.8029 -0.3664
  602MOL0     H79458   9.916   2.375  10.811  3.9774 -1.0133 -0.4377
  602MOL0     H79459   9.931   2.209  10.783  0.7903 -0.2932 -0.1638
  602MOL0     H79460   9.685   2.196  10.689 -0.7568  0.3852  0.2347
  602MOL0     H79461   9.714   2.175  10.849 -4.0522  0.5182  0.9444
  602MOL0     H79462   9.486   2.530  10.849 -4.3470 -2.8313 -2.2357
  602MOL0     H79463  10.235   2.233  10.313  2.1783  1.3105 -2.0423
  602MOL0     H79464  10.466   2.284  10.248  1.2338 -1.0296  0.3675
  603MOL0     O79465   0.801   1.437   9.633  0.4110 -0.2363  0.6094
  603MOL0     C79466   0.855   1.358   9.561  0.0394  0.4478 -0.7829
  603MOL0     O79467   0.922   1.395   9.446  1.0929  0.4876  0.0745
  603MOL0     C79468   0.933   1.526   9.412  0.2453 -0.4357 -0.2364
  603MOL0     C79469   1.054   1.593   9.415  1.1781  0.0204 -0.4237
  603MOL0     C79470   1.055   1.719   9.368  0.7534  0.1964 -0.3835
  603MOL0     C79471   0.944   1.797   9.347  0.1267  0.0686 -0.5894
  603MOL0     O79472   0.968   1.932   9.316  0.0625  1.1320  0.1382
  603MOL0     C79473   0.856   2.025   9.313  0.4588  0.1928  0.9264
  603MOL0     C79474   0.913   2.169   9.286 -0.1044 -0.4439 -0.4480
  603MOL0     C79475   0.801   2.276   9.315 -1.1338  1.4770  0.1161
  603MOL0     C79476   0.785   2.294   9.468  0.2994 -0.7126 -0.1882
  603MOL0     C79477   0.653   2.358   9.512  0.6265 -0.4004 -0.4678
  603MOL0     C79478   0.637   2.395   9.658  1.0297  0.0077 -0.1520
  603MOL0     C79479   0.493   2.406   9.705 -0.3416 -0.2020  0.0794
  603MOL0     C79480   0.416   2.523   9.654  1.0431 -0.2847  0.4031
  603MOL0     N79481   0.279   2.529   9.711 -0.0717 -0.3203 -0.1066
  603MOL0     C79482   0.180   2.437   9.696 -0.5129 -0.6277  0.7223
  603MOL0     C79483   0.084   2.486   9.770  0.3004  0.0141  0.0235
  603MOL0     C79484  -0.050   2.428   9.778  0.7706 -0.4824  0.5718
  603MOL0     C79485  -0.148   2.486   9.670  0.4104  0.8539  0.3902
  603MOL0     C79486  -0.180   2.643   9.677 -0.3757  0.0727 -0.0768
  603MOL0     C79487  -0.256   2.698   9.802  0.7459  0.0431 -0.3376
  603MOL0     O79488  -0.305   2.829   9.768 -0.8525  0.1375 -0.5856
  603MOL0     C79489  -0.428   2.859   9.832  0.4341  0.5874 -0.1264
  603MOL0     C79490  -0.539   2.879   9.754 -0.0789  0.5097  0.5701
  603MOL0     C79491  -0.665   2.924   9.799  0.0206  0.1096 -0.8058
  603MOL0     C79492  -0.677   2.960   9.932  0.3402  0.4130 -0.6059
  603MOL0     C79493  -0.805   2.991   9.995 -0.1144 -0.7316 -0.3481
  603MOL0     O79494  -0.826   2.956  10.118  0.1393 -0.7646  0.1060
  603MOL0     C79495  -0.937   2.992  10.198  0.2745  0.8938  1.4096
  603MOL0     C79496  -0.934   2.942  10.327  0.1689 -0.6171  0.1201
  603MOL0     C79497  -1.036   2.963  10.419  0.2397  0.8797  0.3642
  603MOL0     C79498  -1.144   3.044  10.382 -0.1607 -0.1265  0.3056
  603MOL0     O79499  -1.255   3.084  10.454  0.0237  0.2542 -0.1826
  603MOL0     C79500  -1.275   3.035  10.584  1.0942 -0.2642  0.0722
  603MOL0     C79501  -1.399   3.087  10.654 -0.3170  0.0642  0.0101
  603MOL0     C79502  -1.384   3.238  10.685 -1.1413 -0.2140 -0.3738
  603MOL0     C79503  -1.500   3.306  10.745 -0.2536 -0.1368 -0.1893
  603MOL0     C79504  -1.526   3.271  10.901 -0.3122 -0.1351  0.7221
  603MOL0     C79505  -1.660   3.326  10.949 -0.3640  0.8407 -1.0051
  603MOL0     C79506  -1.706   3.234  11.073  0.2796 -0.0789  0.8049
  603MOL0     C79507  -1.842   3.278  11.139  0.6116  0.2737 -0.3870
  603MOL0    Cl79508  -1.859   3.447  11.144  0.0738  0.2970  0.3098
  603MOL0     C79509  -1.144   3.100  10.256  0.6892 -0.3068 -0.0147
  603MOL0     C79510  -1.041   3.073  10.155  0.7523 -1.0861 -0.0340
  603MOL0     O79511  -0.884   3.046   9.919  0.1359  0.1117 -0.3457
  603MOL0     C79512  -0.564   2.944  10.016  0.5572  0.4010  0.9644
  603MOL0     C79513  -0.444   2.890   9.964  0.3750 -0.7567  0.2640
  603MOL0     N79514   0.113   2.601   9.840  0.3140 -0.3353  1.8455
  603MOL0     N79515   0.232   2.626   9.793  0.2950  0.4130 -1.2156
  603MOL0     C79516   0.826   1.727   9.344 -0.7356  0.1012  0.1531
  603MOL0     C79517   0.821   1.591   9.365  0.4909  0.3884  0.4239
  603MOL0     C79518   0.846   1.214   9.594 -0.0182 -0.6309  0.7851
  603MOL0     C79519   0.772   1.169   9.709  0.2029  0.8105 -0.8993
  603MOL0     C79520   0.762   1.027   9.739 -0.0994  0.3696 -1.0978
  603MOL0     C79521   0.837   0.937   9.669 -0.3067 -0.1050 -0.4005
  603MOL0     O79522   0.848   0.804   9.713  0.6351 -0.6506 -0.9023
  603MOL0     C79523   0.862   0.696   9.619 -0.0533 -0.1140  0.3627
  603MOL0     C79524   0.766   0.583   9.657 -0.6872 -0.0021  0.0052
  603MOL0     C79525   0.784   0.547   9.800  0.0140  0.1189  0.5638
  603MOL0     C79526   0.727   0.403   9.816 -1.1641 -0.4949 -0.1264
  603MOL0     C79527   0.846   0.313   9.778  0.1007 -0.0479 -0.1223
  603MOL0     C79528   0.938   0.241   9.742 -0.1021  0.0460 -0.5348
  603MOL0     C79529   0.904   0.982   9.551 -0.1201 -0.6124 -0.8336
  603MOL0     C79530   0.919   1.119   9.518  0.3557  0.0120  0.4290
  603MOL0     H79531   1.139   1.537   9.453  2.6644  2.5864  0.2329
  603MOL0     H79532   1.156   1.758   9.366  0.5260  0.7808 -2.1459
  603MOL0     H79533   0.808   2.024   9.411 -1.9493 -1.4242 -0.1573
  603MOL0     H79534   0.783   2.008   9.233  0.7779  2.3435  0.1084
  603MOL0     H79535   0.958   2.188   9.188  1.4387  0.2461  0.3566
  603MOL0     H79536   0.997   2.180   9.355 -2.4319 -3.1491  3.2254
  603MOL0     H79537   0.704   2.236   9.282 -0.2423 -0.0061 -0.8189
  603MOL0     H79538   0.816   2.368   9.258  0.4856  0.0385 -1.9151
  603MOL0     H79539   0.790   2.200   9.522 -0.3228 -0.7566 -0.1964
  603MOL0     H79540   0.867   2.361   9.496 -1.8588  3.0379 -2.0359
  603MOL0     H79541   0.578   2.281   9.493 -1.2562  0.4266  2.7736
  603MOL0     H79542   0.622   2.440   9.446 -0.4829  0.0018  0.5080
  603MOL0     H79543   0.672   2.497   9.675  0.5214  0.5544 -2.1783
  603MOL0     H79544   0.690   2.330   9.728  0.3452 -1.2270 -0.7558
  603MOL0     H79545   0.443   2.311   9.684  0.9530 -0.8320 -0.2341
  603MOL0     H79546   0.498   2.400   9.814  1.3308 -2.6263 -0.0667
  603MOL0     H79547   0.412   2.512   9.545 -1.7440 -0.4766  0.4642
  603MOL0     H79548   0.469   2.616   9.677  2.4231 -1.2511  1.3002
  603MOL0     H79549   0.183   2.348   9.634  1.3297  0.8344 -1.4640
  603MOL0     H79550  -0.098   2.446   9.874  1.5074  1.9212  0.5376
  603MOL0     H79551  -0.041   2.319   9.771  0.9259 -0.4435  0.0943
  603MOL0     H79552  -0.239   2.427   9.680  2.6098 -2.5515  2.6116
  603MOL0     H79553  -0.114   2.465   9.568 -0.2077 -1.2306  0.5634
  603MOL0     H79554  -0.082   2.690   9.678 -1.1994  1.9776  2.9084
  603MOL0     H79555  -0.234   2.667   9.585 -0.7297  0.6693  0.2841
  603MOL0     H79556  -0.201   2.711   9.895 -0.4138  0.9665  0.2400
  603MOL0     H79557  -0.342   2.635   9.827  1.4292 -0.1228  1.7672
  603MOL0     H79558  -0.526   2.859   9.648 -2.5878  0.0310  0.3045
  603MOL0     H79559  -0.750   2.945   9.734 -3.4175 -1.6342  2.7204
  603MOL0     H79560  -0.839   2.892  10.345 -0.2886 -0.9591  1.7255
  603MOL0     H79561  -1.033   2.915  10.517  0.3660  0.7723  0.3087
  603MOL0     H79562  -1.190   3.067  10.645  0.1193  1.6590  0.4917
  603MOL0     H79563  -1.287   2.926  10.577 -0.1259 -0.1881  0.6775
  603MOL0     H79564  -1.420   3.025  10.741 -2.0218 -1.7493 -1.5648
  603MOL0     H79565  -1.479   3.058  10.584 -0.5615 -2.2449  1.1549
  603MOL0     H79566  -1.357   3.285  10.589 -0.2494 -0.4558 -0.2505
  603MOL0     H79567  -1.292   3.261  10.741 -1.1249 -0.9544 -0.0939
  603MOL0     H79568  -1.497   3.415  10.733 -2.6512 -0.3385 -4.5254
  603MOL0     H79569  -1.585   3.270  10.686 -0.9406  2.6626 -1.0470
  603MOL0     H79570  -1.452   3.314  10.969 -3.6555  1.6466  3.6000
  603MOL0     H79571  -1.521   3.162  10.912  2.8402 -0.0355  1.0957
  603MOL0     H79572  -1.726   3.322  10.862 -0.1250  1.5133 -1.2255
  603MOL0     H79573  -1.651   3.432  10.975  0.6035  0.5788 -0.2131
  603MOL0     H79574  -1.725   3.133  11.038 -0.3348  0.1289  0.5280
  603MOL0     H79575  -1.622   3.231  11.143  1.4626  1.1655 -0.4775
  603MOL0     H79576  -1.848   3.229  11.237 -4.2955 -3.8465 -2.2848
  603MOL0     H79577  -1.920   3.222  11.086  0.8023  0.7851 -1.2310
  603MOL0     H79578  -1.222   3.168  10.222  0.8965 -0.7707 -1.5196
  603MOL0     H79579  -1.064   3.113  10.057 -1.0040 -1.3349  0.2314
  603MOL0     H79580  -0.549   2.989  10.114 -2.4788 -0.0204  1.7170
  603MOL0     H79581  -0.351   2.886  10.019  1.4455  3.7227 -0.7716
  603MOL0     H79582   0.738   1.774   9.300 -0.6623 -0.2635 -0.3935
  603MOL0     H79583   0.729   1.534   9.360  0.9847 -0.5686  1.5771
  603MOL0     H79584   0.732   1.230   9.790 -1.8510 -0.7247 -0.6690
  603MOL0     H79585   0.704   0.987   9.822  1.5286 -2.1231 -1.0694
  603MOL0     H79586   0.963   0.656   9.625 -0.8883 -2.3929  0.2899
  603MOL0     H79587   0.843   0.736   9.519 -0.6620 -0.5230  0.3043
  603MOL0     H79588   0.660   0.602   9.640 -0.3776 -1.0019 -4.0862
  603MOL0     H79589   0.785   0.502   9.585 -2.9307 -0.7722  0.2259
  603MOL0     H79590   0.739   0.632   9.853  0.0915  2.7775 -3.2425
  603MOL0     H79591   0.886   0.547   9.841 -0.6033 -0.2714  2.1657
  603MOL0     H79592   0.687   0.398   9.918  1.4825 -1.1839  0.9613
  603MOL0     H79593   0.649   0.385   9.742  0.5781 -0.9629 -1.9494
  603MOL0     H79594   1.012   0.168   9.716 -0.5506 -0.6212  0.0262
  603MOL0     H79595   0.956   0.916   9.482  1.5825 -0.5888  0.3668
  603MOL0     H79596   0.980   1.138   9.430 -0.9827  2.7441 -0.0452
  604MOL0     O79597   9.249   3.323  10.924 -0.3208 -0.0706 -0.3497
  604MOL0     C79598   9.197   3.375  10.824  1.1752  0.0144  1.0360
  604MOL0     O79599   9.062   3.369  10.791 -0.3161 -0.4799  0.4634
  604MOL0     C79600   8.961   3.373  10.891  0.3151  0.1566 -0.8368
  604MOL0     C79601   8.842   3.441  10.862 -0.1341 -0.3376 -0.1890
  604MOL0     C79602   8.732   3.469  10.957 -0.4912  0.3420 -0.0303
  604MOL0     C79603   8.735   3.417  11.091  0.1342 -0.5752 -0.1278
  604MOL0     O79604   8.635   3.434  11.184  0.6785  0.7813  1.4417
  604MOL0     C79605   8.602   3.306  11.245  0.2536  0.6175 -1.1271
  604MOL0     C79606   8.443   3.316  11.294 -1.0287 -1.2883 -0.1232
  604MOL0     C79607   8.380   3.190  11.353 -1.0278 -0.1129  0.1374
  604MOL0     C79608   8.451   3.149  11.483 -0.1703  0.1111  0.4082
  604MOL0     C79609   8.363   3.201  11.601 -0.7645  0.1522 -0.4506
  604MOL0     C79610   8.400   3.131  11.733 -0.2538 -0.1021 -0.8719
  604MOL0     C79611   8.547   3.143  11.764  0.1332 -0.3782  1.0407
  604MOL0     C79612   8.578   3.065  11.883 -0.0638 -0.0855  0.9600
  604MOL0     N79613   8.716   3.106  11.934  0.1852  0.1312 -0.2047
  604MOL0     C79614   8.747   3.168  12.053  0.5265  0.5004  0.0242
  604MOL0     C79615   8.884   3.153  12.060 -0.0273 -0.0704 -0.2095
  604MOL0     C79616   8.966   3.162  12.185  0.2450  0.8603 -0.4660
  604MOL0     C79617   9.034   3.291  12.212 -0.4024  0.6298  0.7956
  604MOL0     C79618   9.146   3.283  12.308 -0.9168 -0.0362  0.8389
  604MOL0     C79619   9.256   3.180  12.268 -0.2597  0.4793  1.1777
  604MOL0     O79620   9.328   3.215  12.147  0.2629 -0.8632 -0.6799
  604MOL0     C79621   9.461   3.221  12.147  0.3615 -1.2608 -0.2736
  604MOL0     C79622   9.529   3.184  12.041 -0.0408  0.2218 -0.6119
  604MOL0     C79623   9.664   3.195  12.024  0.0649  0.1164  0.3256
  604MOL0     C79624   9.738   3.259  12.131  0.1139  0.7260 -0.1422
  604MOL0     C79625   9.873   3.299  12.111  0.0922  1.0474  0.4162
  604MOL0     O79626   9.922   3.392  12.193  0.5734  0.2938  0.1361
  604MOL0     C79627  10.062   3.427  12.196  0.1671 -1.1829 -0.2928
  604MOL0     C79628  10.109   3.534  12.131 -1.1864 -0.4694  0.5632
  604MOL0     C79629  10.242   3.576  12.135  0.0348  0.0785  0.4268
  604MOL0     C79630  10.333   3.486  12.200 -0.5741  0.1307 -0.1464
  604MOL0     O79631  10.465   3.518  12.206 -0.4219 -0.9690 -0.1902
  604MOL0     C79632  10.497   3.579  12.333 -0.5518 -0.2645  0.3732
  604MOL0     C79633  10.461   3.725  12.345  0.0087  0.4351 -0.6938
  604MOL0     C79634  10.519   3.787  12.460  0.1955  1.1323  0.0631
  604MOL0     C79635  10.432   3.914  12.505  0.0799 -0.0076  0.9014
  604MOL0     C79636  10.477   3.979  12.630  0.6664  0.3491  0.0329
  604MOL0     C79637  10.636   4.002  12.650 -1.0554  0.0383 -0.9938
  604MOL0     C79638  10.659   4.038  12.789  0.1576  0.5485  0.8649
  604MOL0     C79639  10.798   4.085  12.807  0.1846  0.1853  0.8877
  604MOL0    Cl79640  10.921   3.957  12.770  0.2675  0.7248  0.0454
  604MOL0     C79641  10.290   3.380  12.272  0.4997 -0.3725  0.2094
  604MOL0     C79642  10.153   3.356  12.278 -0.1644 -0.3302 -0.7959
  604MOL0     O79643   9.940   3.224  12.040  0.4945 -0.5902 -0.6298
  604MOL0     C79644   9.665   3.307  12.242  0.0519 -0.2279  0.0804
  604MOL0     C79645   9.526   3.280  12.256  0.4675 -0.0641  0.3646
  604MOL0     N79646   8.940   3.107  11.943 -0.0922  0.5843 -0.1880
  604MOL0     N79647   8.835   3.084  11.863  0.8530  1.3913  0.6819
  604MOL0     C79648   8.858   3.346  11.119  1.2830  0.6013  0.6664
  604MOL0     C79649   8.961   3.318  11.023 -0.1141 -0.6140 -0.8351
  604MOL0     C79650   9.291   3.397  10.714 -0.5785 -0.0397  0.3290
  604MOL0     C79651   9.256   3.406  10.584 -0.1248 -0.4511 -0.0146
  604MOL0     C79652   9.351   3.424  10.484 -0.0416  0.5400 -1.7468
  604MOL0     C79653   9.494   3.429  10.509  0.9843 -0.5153  0.5349
  604MOL0     O79654   9.572   3.461  10.398 -0.6020 -0.2912  0.5772
  604MOL0     C79655   9.676   3.360  10.392 -0.5772  0.8337 -0.2092
  604MOL0     C79656   9.699   3.332  10.243  0.5627 -0.0339  0.1724
  604MOL0     C79657   9.565   3.301  10.172 -0.2709  0.9179 -0.8418
  604MOL0     C79658   9.577   3.245  10.030 -0.2873 -0.2706  0.4401
  604MOL0     C79659   9.632   3.109  10.031 -0.9369 -0.4582  0.1228
  604MOL0     C79660   9.661   2.996  10.055  0.3416 -0.0980 -1.2906
  604MOL0     C79661   9.527   3.422  10.640 -0.6740 -0.1325 -0.4610
  604MOL0     C79662   9.431   3.417  10.747  0.5109 -0.2384 -0.1192
  604MOL0     H79663   8.830   3.477  10.760 -0.0947 -1.6680 -0.6782
  604MOL0     H79664   8.646   3.523  10.919 -0.8700 -0.1328  0.1556
  604MOL0     H79665   8.671   3.293  11.329  1.0816  2.6782 -1.4299
  604MOL0     H79666   8.613   3.220  11.178  0.9595  0.6161 -1.0143
  604MOL0     H79667   8.377   3.351  11.214  0.9448  0.4182 -1.1167
  604MOL0     H79668   8.437   3.400  11.364  0.4103 -0.7228 -0.6446
  604MOL0     H79669   8.401   3.121  11.271 -0.3909  1.2010 -0.8366
  604MOL0     H79670   8.271   3.190  11.363 -0.8671  0.6753  2.7160
  604MOL0     H79671   8.457   3.040  11.481  0.9560  0.1698 -1.2601
  604MOL0     H79672   8.553   3.188  11.490  0.0088  0.1350 -1.7560
  604MOL0     H79673   8.260   3.194  11.568 -0.3281  0.0278 -1.8431
  604MOL0     H79674   8.382   3.306  11.625 -1.5883  0.0975  0.5094
  604MOL0     H79675   8.374   3.026  11.722 -0.2093 -0.2128 -0.0028
  604MOL0     H79676   8.344   3.185  11.810 -1.6561 -1.4603 -0.8836
  604MOL0     H79677   8.612   3.117  11.680 -0.2436  4.5169 -1.1106
  604MOL0     H79678   8.593   3.242  11.770  0.2205 -0.4833  2.3253
  604MOL0     H79679   8.579   2.957  11.867 -2.0076  0.0487 -0.4252
  604MOL0     H79680   8.501   3.084  11.959 -3.1032 -0.0849 -1.8696
  604MOL0     H79681   8.672   3.209  12.120 -1.3052 -0.7585 -1.1596
  604MOL0     H79682   9.040   3.082  12.176 -1.2710 -0.3718 -3.5099
  604MOL0     H79683   8.904   3.145  12.273 -2.7474 -1.9037 -2.8552
  604MOL0     H79684   8.961   3.368  12.242 -0.9148  0.1325  0.8469
  604MOL0     H79685   9.078   3.330  12.120  1.5632  1.4899  2.0418
  604MOL0     H79686   9.195   3.380  12.315 -2.3571  0.6937  1.1528
  604MOL0     H79687   9.111   3.247  12.405  3.6614 -3.0918  1.7075
  604MOL0     H79688   9.221   3.077  12.260 -1.5201  1.0050 -0.8176
  604MOL0     H79689   9.319   3.172  12.358 -1.1356 -0.8846  1.7073
  604MOL0     H79690   9.477   3.149  11.952 -1.0321  0.9076 -0.3132
  604MOL0     H79691   9.705   3.156  11.932  1.5662 -0.8916  1.3577
  604MOL0     H79692  10.038   3.598  12.081  1.3011  1.8953 -0.1617
  604MOL0     H79693  10.275   3.671  12.094 -2.7879  1.4195  1.0921
  604MOL0     H79694  10.606   3.577  12.334 -0.4547 -1.0545 -3.0041
  604MOL0     H79695  10.467   3.511  12.414  4.3199 -0.6479  2.1820
  604MOL0     H79696  10.352   3.733  12.347 -0.1921 -1.7064 -0.6278
  604MOL0     H79697  10.486   3.786  12.258 -0.0629  2.3339  0.5740
  604MOL0     H79698  10.617   3.812  12.419  1.3658  1.2650  2.7184
  604MOL0     H79699  10.513   3.719  12.546  0.9910  0.9211 -0.0449
  604MOL0     H79700  10.462   3.983  12.426 -0.9150  0.6651  1.0850
  604MOL0     H79701  10.323   3.901  12.509 -0.4235  2.4941 -1.3805
  604MOL0     H79702  10.435   3.914  12.706 -1.7708  2.5777  0.7232
  604MOL0     H79703  10.432   4.076  12.653  0.9976  0.3720  0.6108
  604MOL0     H79704  10.674   4.079  12.583  0.3701  0.0972 -0.1394
  604MOL0     H79705  10.697   3.915  12.623  2.3136  1.0270  2.6226
  604MOL0     H79706  10.592   4.121  12.811 -1.3287  0.9255 -3.9463
  604MOL0     H79707  10.644   3.953  12.857  3.4148  0.8297  2.0946
  604MOL0     H79708  10.819   4.108  12.911 -0.0772 -0.0346  0.9896
  604MOL0     H79709  10.805   4.167  12.734 -2.3268 -1.7452 -1.7780
  604MOL0     H79710  10.350   3.312  12.332 -0.3322 -0.9781  0.3609
  604MOL0     H79711  10.128   3.274  12.345  1.5219 -0.5488 -0.3963
  604MOL0     H79712   9.714   3.354  12.326 -1.4223 -2.4084  2.2936
  604MOL0     H79713   9.467   3.325  12.336  1.2065  2.3681 -0.3862
  604MOL0     H79714   8.881   3.303  11.216  0.0330  0.4628  0.9155
  604MOL0     H79715   9.042   3.254  11.057 -0.3991 -0.4346  0.2292
  604MOL0     H79716   9.153   3.400  10.550  0.2716  4.6073 -3.1427
  604MOL0     H79717   9.311   3.448  10.386 -1.9643  3.5628 -0.3870
  604MOL0     H79718   9.627   3.266  10.420 -1.1634 -0.1170 -3.8992
  604MOL0     H79719   9.762   3.391  10.453  0.0184 -0.2998 -0.4274
  604MOL0     H79720   9.745   3.419  10.195 -0.5847  0.7289  0.4216
  604MOL0     H79721   9.778   3.256  10.236 -1.1050 -1.7788 -0.7255
  604MOL0     H79722   9.513   3.397  10.160 -2.6087  0.1010  1.8193
  604MOL0     H79723   9.495   3.241  10.231 -2.6927  3.1848 -1.2008
  604MOL0     H79724   9.480   3.246   9.979 -0.6965  2.0781  1.1118
  604MOL0     H79725   9.637   3.314   9.970 -2.1201 -0.6547 -1.9730
  604MOL0     H79726   9.678   2.895  10.086 -1.2930 -0.3608 -1.1585
  604MOL0     H79727   9.635   3.431  10.652 -0.2310 -0.9874 -3.1309
  604MOL0     H79728   9.468   3.434  10.847  1.2144 -1.0544 -0.2256
  605MOL0     O79729   5.549   4.524   4.537  0.4108  0.0175 -0.0257
  605MOL0     C79730   5.550   4.649   4.522 -0.4765  0.1483  0.0083
  605MOL0     O79731   5.662   4.723   4.524  0.0811 -0.2718  0.5956
  605MOL0     C79732   5.784   4.672   4.554  0.2327 -0.1941 -0.6643
  605MOL0     C79733   5.871   4.754   4.625 -1.0163  0.3040 -0.3318
  605MOL0     C79734   6.006   4.741   4.631  0.5861  1.6964  0.2519
  605MOL0     C79735   6.069   4.630   4.581  1.3017  0.5810  0.6016
  605MOL0     O79736   6.200   4.619   4.611 -0.1695  0.6431 -0.3739
  605MOL0     C79737   6.273   4.501   4.574 -1.5167  0.3059 -0.2990
  605MOL0     C79738   6.418   4.526   4.595  0.3251 -0.1834 -0.2136
  605MOL0     C79739   6.483   4.560   4.730  0.8824 -1.0316 -0.5863
  605MOL0     C79740   6.635   4.562   4.718 -0.6799 -0.4238 -0.4418
  605MOL0     C79741   6.705   4.555   4.855  0.6023 -0.4279  0.1388
  605MOL0     C79742   6.699   4.687   4.937 -0.4635 -0.3815 -0.0310
  605MOL0     C79743   6.790   4.684   5.059  1.2195 -0.5487 -0.0977
  605MOL0     C79744   6.737   4.600   5.173 -0.8503 -1.2683 -0.4969
  605MOL0     N79745   6.821   4.629   5.292 -0.8479  0.0481  0.7818
  605MOL0     C79746   6.958   4.640   5.302  0.1841 -0.7388 -1.1642
  605MOL0     C79747   6.970   4.639   5.438 -0.9052 -0.3286  0.0961
  605MOL0     C79748   7.093   4.655   5.522  0.4389 -1.1035 -0.1046
  605MOL0     C79749   7.145   4.798   5.525  0.6511 -0.3983 -0.1737
  605MOL0     C79750   7.162   4.847   5.667 -1.2120  0.8198 -0.5840
  605MOL0     C79751   7.201   4.996   5.666  0.1433  0.9304 -0.7912
  605MOL0     O79752   7.213   5.065   5.794 -0.4681  0.5368 -0.0843
  605MOL0     C79753   7.279   4.997   5.891  0.3279  0.6703  0.1715
  605MOL0     C79754   7.234   5.001   6.022 -0.5089  0.0105 -0.7119
  605MOL0     C79755   7.301   4.941   6.127 -0.0630  0.6126  0.8414
  605MOL0     C79756   7.406   4.845   6.102 -0.2657  0.9493 -0.3384
  605MOL0     C79757   7.467   4.769   6.207 -0.6322  0.9830  0.5481
  605MOL0     O79758   7.600   4.737   6.191  0.6051 -1.3270  0.8762
  605MOL0     C79759   7.661   4.655   6.279  0.5281  0.3588 -0.1075
  605MOL0     C79760   7.620   4.518   6.299 -0.1794 -0.5477  0.6819
  605MOL0     C79761   7.682   4.443   6.400  0.8344  0.8333  0.7894
  605MOL0     C79762   7.800   4.480   6.456  0.2198  0.6614 -0.3193
  605MOL0     O79763   7.859   4.384   6.534  0.4560 -0.2835  0.1816
  605MOL0     C79764   7.984   4.399   6.597 -0.1162  0.1821  0.5565
  605MOL0     C79765   8.098   4.397   6.504 -0.2568  1.1633 -0.4448
  605MOL0     C79766   8.234   4.406   6.570 -0.4659  0.7624  0.4583
  605MOL0     C79767   8.352   4.417   6.477  0.5465  0.4293  0.9396
  605MOL0     C79768   8.458   4.503   6.543  0.0536 -0.8519 -0.1286
  605MOL0     C79769   8.572   4.535   6.444  0.1295  0.9683  0.2986
  605MOL0     C79770   8.670   4.651   6.486 -0.2869 -0.2947 -0.2470
  605MOL0     C79771   8.725   4.732   6.371 -0.0684  0.3744  0.5627
  605MOL0    Cl79772   8.806   4.624   6.244  0.2600  0.1477  0.5008
  605MOL0     C79773   7.843   4.609   6.442  0.5962 -0.6969  0.3357
  605MOL0     C79774   7.770   4.699   6.353 -0.5289 -0.1430 -0.0178
  605MOL0     O79775   7.405   4.749   6.309 -0.3393  1.0112 -0.0185
  605MOL0     C79776   7.452   4.838   5.969  0.2327  0.7042 -0.6176
  605MOL0     C79777   7.400   4.912   5.869 -0.3428 -0.2353 -0.3870
  605MOL0     N79778   6.851   4.648   5.501  0.2411  0.5202 -0.2955
  605MOL0     N79779   6.760   4.644   5.411  0.0436 -0.3247 -1.3468
  605MOL0     C79780   5.995   4.536   4.503  0.0416 -0.2190 -0.7921
  605MOL0     C79781   5.850   4.558   4.502  0.1534  1.2696 -0.1817
  605MOL0     C79782   5.435   4.730   4.495  0.4236 -1.1109 -0.3048
  605MOL0     C79783   5.308   4.667   4.494  0.0049 -0.1507  0.1283
  605MOL0     C79784   5.191   4.747   4.494  0.5172  0.5990  1.0946
  605MOL0     C79785   5.188   4.886   4.482  0.0168 -0.5344  1.1247
  605MOL0     O79786   5.082   4.972   4.460  1.1338  0.1502 -0.2358
  605MOL0     C79787   4.961   4.906   4.425  0.4735 -0.6514 -0.0468
  605MOL0     C79788   4.876   5.011   4.349  0.2721 -1.1484 -0.4120
  605MOL0     C79789   4.934   5.046   4.214 -0.4317 -0.8525 -0.1260
  605MOL0     C79790   4.964   4.940   4.109  0.9683  0.2366  0.4854
  605MOL0     C79791   4.985   5.009   3.979 -0.5651  0.8090  0.4702
  605MOL0     C79792   4.993   5.059   3.865 -0.1259  0.4606  0.1265
  605MOL0     C79793   5.314   4.950   4.489 -1.2925 -0.4223  0.3967
  605MOL0     C79794   5.438   4.875   4.495 -0.6472 -0.1152 -0.6338
  605MOL0     H79795   5.818   4.834   4.676 -0.0752 -0.2004  1.5337
  605MOL0     H79796   6.056   4.814   4.694  0.5637  0.6034  1.5912
  605MOL0     H79797   6.266   4.470   4.470 -1.4318 -0.1871 -0.1624
  605MOL0     H79798   6.250   4.406   4.622  1.3407 -1.2784 -1.7657
  605MOL0     H79799   6.435   4.595   4.511 -3.1448 -1.1653 -1.9160
  605MOL0     H79800   6.450   4.422   4.580 -0.6268 -1.1939  3.6277
  605MOL0     H79801   6.465   4.476   4.798 -3.1019  0.7254  0.8503
  605MOL0     H79802   6.445   4.658   4.761 -2.1019 -2.3597  0.2817
  605MOL0     H79803   6.674   4.476   4.664  1.2868 -0.5910  1.1261
  605MOL0     H79804   6.661   4.655   4.665  1.1155  0.5022  1.8686
  605MOL0     H79805   6.804   4.511   4.841  0.1588 -2.5456  2.8989
  605MOL0     H79806   6.654   4.483   4.919 -4.4076 -0.9472 -3.7770
  605MOL0     H79807   6.594   4.708   4.960  0.3811  0.3154  3.8256
  605MOL0     H79808   6.740   4.763   4.870  1.8653 -0.6861  0.9509
  605MOL0     H79809   6.894   4.660   5.033  1.4003  0.2841 -0.1616
  605MOL0     H79810   6.804   4.787   5.093 -0.6667  0.1552 -1.2758
  605MOL0     H79811   6.736   4.491   5.161 -0.2146 -1.0427 -3.5924
  605MOL0     H79812   6.639   4.640   5.201  1.5165  5.6182 -0.0081
  605MOL0     H79813   7.024   4.627   5.217  0.1172  0.3804 -1.4065
  605MOL0     H79814   7.171   4.590   5.482 -0.1795 -0.7647 -1.9658
  605MOL0     H79815   7.072   4.627   5.626  2.7130  1.3017  1.1151
  605MOL0     H79816   7.073   4.859   5.469  1.6049 -0.4763 -1.5505
  605MOL0     H79817   7.242   4.801   5.473  0.2942 -2.1547 -1.0220
  605MOL0     H79818   7.068   4.838   5.723 -0.7901 -1.2968 -0.1387
  605MOL0     H79819   7.245   4.791   5.710  0.8014  3.6593 -0.4925
  605MOL0     H79820   7.121   5.044   5.608 -0.9081  1.0935  0.7473
  605MOL0     H79821   7.293   5.007   5.608  1.2249  1.9797  1.0399
  605MOL0     H79822   7.159   5.075   6.048  2.1011  1.7951  2.4937
  605MOL0     H79823   7.267   4.967   6.227  0.6549  0.3915  1.1473
  605MOL0     H79824   7.525   4.486   6.258 -1.5519  2.8354  0.8523
  605MOL0     H79825   7.643   4.345   6.423 -0.8591  1.5871  1.2400
  605MOL0     H79826   8.002   4.328   6.678  1.8684 -0.3364 -0.3009
  605MOL0     H79827   7.982   4.488   6.662  4.3324 -0.9709  2.6300
  605MOL0     H79828   8.075   4.475   6.430 -1.6527  3.4350  2.2241
  605MOL0     H79829   8.099   4.300   6.453  0.0188  0.1786  1.3682
  605MOL0     H79830   8.262   4.320   6.632 -0.5002  1.1464  1.0172
  605MOL0     H79831   8.239   4.496   6.633 -1.3012 -0.8758  3.0410
  605MOL0     H79832   8.394   4.317   6.464  0.4727  0.6165 -0.8728
  605MOL0     H79833   8.343   4.478   6.387  4.4443 -0.3486 -0.1318
  605MOL0     H79834   8.485   4.452   6.636 -5.4371 -0.0583  2.3073
  605MOL0     H79835   8.415   4.596   6.583 -0.0331 -0.1109 -1.8399
  605MOL0     H79836   8.536   4.561   6.344  3.6017  2.5279 -0.6821
  605MOL0     H79837   8.629   4.442   6.434 -2.6594 -0.8804  0.2721
  605MOL0     H79838   8.611   4.716   6.552 -1.3489  0.2009 -1.6383
  605MOL0     H79839   8.749   4.617   6.553 -0.2858 -1.7546 -0.9439
  605MOL0     H79840   8.799   4.802   6.412  1.3598 -0.4175 -0.5500
  605MOL0     H79841   8.645   4.788   6.322 -1.5291 -3.0771 -1.2912
  605MOL0     H79842   7.925   4.635   6.509 -0.7478 -0.7227  2.0512
  605MOL0     H79843   7.796   4.803   6.342 -0.1854 -0.4578 -3.2741
  605MOL0     H79844   7.531   4.766   5.947  1.0329  0.1782  3.2980
  605MOL0     H79845   7.444   4.891   5.771  0.7099 -0.0090  0.0240
  605MOL0     H79846   6.041   4.453   4.451 -0.1842  0.4047 -2.0211
  605MOL0     H79847   5.794   4.488   4.442 -0.3571  1.3318  0.2096
  605MOL0     H79848   5.303   4.560   4.508  0.0427  0.0510  2.0537
  605MOL0     H79849   5.100   4.688   4.497  1.8611 -1.6720  0.0034
  605MOL0     H79850   4.911   4.870   4.515 -1.6675  0.2704 -0.7992
  605MOL0     H79851   4.983   4.818   4.363 -2.1575 -1.2484 -0.2442
  605MOL0     H79852   4.787   4.956   4.319  0.2527 -1.8150  0.7866
  605MOL0     H79853   4.845   5.096   4.410  0.2145  0.7969 -2.9944
  605MOL0     H79854   5.025   5.106   4.226 -1.3697  0.9228 -1.4145
  605MOL0     H79855   4.872   5.124   4.170  1.7587  1.0964  0.0372
  605MOL0     H79856   5.049   4.875   4.128  0.4031 -1.2450 -1.5655
  605MOL0     H79857   4.878   4.874   4.094 -0.3310  1.5414  1.8780
  605MOL0     H79858   5.008   5.120   3.779 -0.5402  3.3009  1.9441
  605MOL0     H79859   5.315   5.059   4.492  3.8501 -0.2111  1.5885
  605MOL0     H79860   5.524   4.940   4.512 -1.4917  0.3287  2.5841
  606MOL0     O79861   4.346   0.476   0.205  0.3092  0.5093 -0.1376
  606MOL0     C79862   4.394   0.441   0.098  0.5263 -0.7904 -0.4511
  606MOL0     O79863   4.319   0.381  -0.002 -0.4782  0.4845 -0.8858
  606MOL0     C79864   4.181   0.352   0.026  0.1977  0.0432 -0.5276
  606MOL0     C79865   4.092   0.427   0.108  1.0284 -0.3128  0.0626
  606MOL0     C79866   3.967   0.382   0.143  0.6289  0.4626 -0.2421
  606MOL0     C79867   3.917   0.263   0.094 -0.2576 -0.2424  0.3074
  606MOL0     O79868   3.783   0.213   0.112 -0.5207  0.8932  0.3382
  606MOL0     C79869   3.679   0.319   0.149  0.3981 -0.4496  0.0160
  606MOL0     C79870   3.535   0.268   0.146 -0.5463 -0.1022  0.1253
  606MOL0     C79871   3.515   0.182   0.025  0.0738  0.1670 -1.7069
  606MOL0     C79872   3.542   0.035   0.070 -0.1291  0.6304  0.5076
  606MOL0     C79873   3.525  -0.068  -0.054  0.5935  0.6028 -0.1101
  606MOL0     C79874   3.570  -0.207  -0.006 -0.0369  0.1055  0.5770
  606MOL0     C79875   3.575  -0.307  -0.120 -0.4286 -1.4140 -0.1545
  606MOL0     C79876   3.711  -0.321  -0.189 -0.0458  0.2808 -0.5568
  606MOL0     N79877   3.823  -0.330  -0.084  0.3235  0.4495  0.6427
  606MOL0     C79878   3.911  -0.226  -0.062 -0.7505  0.5725  0.2470
  606MOL0     C79879   3.992  -0.276   0.030  0.3051  0.6595 -0.6004
  606MOL0     C79880   4.115  -0.209   0.094 -0.6337  0.0248  0.5129
  606MOL0     C79881   4.235  -0.273   0.016 -0.9561 -0.5970 -0.6255
  606MOL0     C79882   4.365  -0.201   0.026 -0.4003 -1.0621  0.6392
  606MOL0     C79883   4.469  -0.250  -0.079 -0.9107  0.2348  0.2964
  606MOL0     O79884   4.519  -0.370  -0.032  0.7303 -0.3382 -0.1489
  606MOL0     C79885   4.638  -0.430  -0.073  0.0571 -0.8937 -0.5628
  606MOL0     C79886   4.699  -0.380  -0.192 -0.4127  0.0426 -0.4111
  606MOL0     C79887   4.816  -0.449  -0.234 -0.6702  0.7817  0.5422
  606MOL0     C79888   4.882  -0.548  -0.163  0.2315  0.2053 -1.5142
  606MOL0     C79889   4.991  -0.629  -0.225 -0.6843  0.1037  0.3140
  606MOL0     O79890   5.015  -0.607  -0.366 -0.0931 -0.1605 -0.6482
  606MOL0     C79891   5.110  -0.677  -0.424  0.5274  0.1396 -0.6894
  606MOL0     C79892   5.195  -0.620  -0.512 -0.6439  0.6179 -0.4480
  606MOL0     C79893   5.285  -0.704  -0.584  0.2367  0.3429 -0.0045
  606MOL0     C79894   5.288  -0.851  -0.568  0.4101 -0.1814  0.5547
  606MOL0     O79895   5.370  -0.932  -0.633 -0.1951  0.0315  0.2752
  606MOL0     C79896   5.436  -0.872  -0.744  0.0476 -0.7590  0.5707
  606MOL0     C79897   5.451  -0.992  -0.836 -0.1050  0.1167  0.0300
  606MOL0     C79898   5.492  -0.956  -0.974  0.6124 -0.2682 -0.1541
  606MOL0     C79899   5.601  -0.851  -1.002 -1.3436  0.5457 -1.1358
  606MOL0     C79900   5.752  -0.895  -0.947  0.2092  0.0662  0.8509
  606MOL0     C79901   5.859  -0.801  -1.000  0.1101 -0.1920 -0.1786
  606MOL0     C79902   6.000  -0.805  -0.936 -0.2112 -0.4893  0.2966
  606MOL0     C79903   6.007  -0.699  -0.830 -0.1985  0.1390  0.1682
  606MOL0    Cl79904   6.187  -0.650  -0.813 -0.1111 -0.1509  0.2032
  606MOL0     C79905   5.184  -0.909  -0.489  0.1064 -0.2708 -0.1564
  606MOL0     C79906   5.105  -0.819  -0.409  0.3567  0.8004 -0.5149
  606MOL0     O79907   5.052  -0.713  -0.152  0.2469 -0.0817 -0.1363
  606MOL0     C79908   4.818  -0.588  -0.038 -0.1121  0.9333  0.3812
  606MOL0     C79909   4.699  -0.531   0.003 -0.0112  0.5125 -0.3962
  606MOL0     N79910   3.953  -0.414   0.058 -0.3004 -0.1761  0.2544
  606MOL0     N79911   3.852  -0.441  -0.015  0.0888 -0.3719  0.5395
  606MOL0     C79912   4.002   0.187   0.002  1.1234  0.8392  0.5055
  606MOL0     C79913   4.135   0.228  -0.026  0.4683 -0.6575  0.2858
  606MOL0     C79914   4.532   0.489   0.079 -0.5584  0.3875 -0.4085
  606MOL0     C79915   4.601   0.571   0.163  0.0052 -0.4220 -0.4471
  606MOL0     C79916   4.733   0.617   0.127 -0.0997  0.8415  0.4389
  606MOL0     C79917   4.796   0.573   0.007 -1.2618  0.5173  0.4428
  606MOL0     O79918   4.929   0.610  -0.029 -0.1044  0.3650  0.0279
  606MOL0     C79919   5.027   0.530   0.031 -0.0454 -0.1618 -0.4366
  606MOL0     C79920   5.144   0.610   0.077 -0.4938  0.2219 -0.4941
  606MOL0     C79921   5.278   0.538   0.087  0.3620 -0.4164 -0.7905
  606MOL0     C79922   5.366   0.622   0.177 -0.4412  1.3686 -1.0190
  606MOL0     C79923   5.344   0.585   0.316  0.8016 -0.2059  0.2263
  606MOL0     C79924   5.334   0.564   0.439  0.5726 -0.5418  0.8046
  606MOL0     C79925   4.725   0.485  -0.082  0.3344  0.0283 -0.3328
  606MOL0     C79926   4.592   0.450  -0.040 -0.7419  0.9787 -0.9216
  606MOL0     H79927   4.122   0.525   0.144 -2.0509  1.4269 -1.7309
  606MOL0     H79928   3.901   0.448   0.198 -1.4209  0.1882 -2.2314
  606MOL0     H79929   3.684   0.413   0.095 -1.8606  0.7441  1.7365
  606MOL0     H79930   3.695   0.355   0.251  0.8162 -1.0623  0.1716
  606MOL0     H79931   3.470   0.356   0.140 -0.6165 -0.2214 -1.0467
  606MOL0     H79932   3.512   0.216   0.240 -0.6961  2.3483  1.5287
  606MOL0     H79933   3.580   0.210  -0.058  0.1933 -0.3392 -1.7912
  606MOL0     H79934   3.411   0.179  -0.007 -0.4085 -0.8234 -0.1895
  606MOL0     H79935   3.647   0.029   0.099 -0.2440 -1.9886  0.6188
  606MOL0     H79936   3.484   0.010   0.159  0.1206 -1.3455  0.1614
  606MOL0     H79937   3.576  -0.014  -0.134 -2.1766  0.2757 -2.2445
  606MOL0     H79938   3.425  -0.085  -0.093 -0.7160  1.4126  2.6356
  606MOL0     H79939   3.490  -0.242   0.058 -1.3147 -0.4148 -1.2288
  606MOL0     H79940   3.654  -0.187   0.062 -1.0950 -0.2160  2.0042
  606MOL0     H79941   3.554  -0.404  -0.075 -3.9947 -0.4254  0.6658
  606MOL0     H79942   3.493  -0.300  -0.192 -0.5535 -1.1173  0.0127
  606MOL0     H79943   3.731  -0.242  -0.262 -0.2961 -0.6769 -1.6929
  606MOL0     H79944   3.710  -0.406  -0.258 -0.5460 -0.2052  0.0498
  606MOL0     H79945   3.915  -0.120  -0.086  0.7723  0.2828 -0.9121
  606MOL0     H79946   4.129  -0.220   0.202 -1.9215 -0.0248  0.6925
  606MOL0     H79947   4.126  -0.101   0.079  1.4785 -0.0515  1.1480
  606MOL0     H79948   4.210  -0.272  -0.091 -3.4411  0.0361 -0.0938
  606MOL0     H79949   4.252  -0.377   0.046 -0.3432  0.4122  2.8520
  606MOL0     H79950   4.364  -0.093   0.014 -1.7816 -1.1765 -0.4549
  606MOL0     H79951   4.394  -0.224   0.129 -0.5111 -1.9588  0.4833
  606MOL0     H79952   4.557  -0.188  -0.098 -0.4132 -1.0179 -1.8359
  606MOL0     H79953   4.431  -0.268  -0.180  2.4320  1.3408 -1.3259
  606MOL0     H79954   4.653  -0.308  -0.259  0.4449 -1.3826 -2.6570
  606MOL0     H79955   4.850  -0.426  -0.334 -2.4702 -1.1405 -0.5894
  606MOL0     H79956   5.189  -0.513  -0.526 -0.0479  0.5677 -1.1016
  606MOL0     H79957   5.352  -0.653  -0.652  1.5090 -0.8869  0.2575
  606MOL0     H79958   5.527  -0.827  -0.704  0.1696 -1.4741  1.1120
  606MOL0     H79959   5.372  -0.800  -0.796 -0.8220 -1.3853  0.7531
  606MOL0     H79960   5.351  -1.035  -0.842 -0.6814  0.3006  4.7628
  606MOL0     H79961   5.518  -1.071  -0.801 -3.3511 -3.0285 -0.2500
  606MOL0     H79962   5.401  -0.929  -1.027 -0.9729 -0.2777  2.4101
  606MOL0     H79963   5.539  -1.040  -1.027  0.1214 -1.9995  2.0097
  606MOL0     H79964   5.620  -0.840  -1.109 -1.3296 -0.2598 -1.2205
  606MOL0     H79965   5.564  -0.754  -0.967 -3.4967 -0.6521  0.0927
  606MOL0     H79966   5.772  -1.000  -0.973 -0.9724 -0.0471  0.3047
  606MOL0     H79967   5.755  -0.880  -0.839  0.9895  0.9626  0.7077
  606MOL0     H79968   5.815  -0.702  -0.990  2.6816  0.9595  0.7486
  606MOL0     H79969   5.869  -0.811  -1.108  0.5764 -1.2348 -0.0558
  606MOL0     H79970   6.024  -0.899  -0.885  1.1067 -0.4394 -0.1867
  606MOL0     H79971   6.059  -0.789  -1.027 -0.1221  1.3287  0.6397
  606MOL0     H79972   5.981  -0.751  -0.737  2.1818 -1.2188  0.1410
  606MOL0     H79973   5.945  -0.610  -0.844  0.0629  0.2686 -0.1781
  606MOL0     H79974   5.182  -1.017  -0.494  0.6797 -0.2423 -1.9996
  606MOL0     H79975   5.028  -0.863  -0.346  0.4267  2.3554  0.7489
  606MOL0     H79976   4.846  -0.676   0.018  3.2121  1.9958  0.6385
  606MOL0     H79977   4.658  -0.554   0.101  0.6440  0.8603 -0.0321
  606MOL0     H79978   3.974   0.092  -0.044  2.6383  0.7416 -0.3017
  606MOL0     H79979   4.211   0.168  -0.076  1.1402 -0.6639  1.2795
  606MOL0     H79980   4.547   0.598   0.253 -1.9234 -1.2421 -1.3052
  606MOL0     H79981   4.800   0.684   0.178  1.7750  0.2517 -1.1338
  606MOL0     H79982   5.068   0.463  -0.045 -0.4722 -1.4695  0.4616
  606MOL0     H79983   4.991   0.471   0.116  0.0353  2.4783  1.5364
  606MOL0     H79984   5.153   0.681  -0.006  2.1714 -2.9311 -3.1855
  606MOL0     H79985   5.120   0.669   0.166  3.3785  0.4156  0.6059
  606MOL0     H79986   5.337   0.514  -0.002  2.8066 -2.9712  1.3178
  606MOL0     H79987   5.264   0.436   0.125  3.1965 -0.6683 -0.2027
  606MOL0     H79988   5.474   0.610   0.161 -0.1781  2.6505 -0.3803
  606MOL0     H79989   5.349   0.729   0.166  3.0350  1.9850 -1.5193
  606MOL0     H79990   5.320   0.547   0.544  0.7189 -0.8616  0.7710
  606MOL0     H79991   4.770   0.449  -0.174 -0.9330 -0.7628 -0.6768
  606MOL0     H79992   4.538   0.379  -0.102 -2.3864 -0.8416  2.3419
  607MOL0     O79993   9.771   6.919  10.592  0.5868  0.5353  0.2421
  607MOL0     C79994   9.756   6.830  10.508  0.2434 -0.3472 -0.2484
  607MOL0     O79995   9.854   6.752  10.446  0.1930 -0.5850 -0.2849
  607MOL0     C79996   9.959   6.747  10.533  0.4991 -0.2611  0.1160
  607MOL0     C79997  10.046   6.850  10.490  0.4115 -0.3029  0.5721
  607MOL0     C79998  10.161   6.880  10.579  0.1426 -0.7647 -0.6296
  607MOL0     C79999  10.196   6.792  10.689 -0.4345 -0.3821 -0.4209
  607MOL0     O80000  10.304   6.803  10.770 -0.4865  0.0562 -0.3049
  607MOL0     C80001  10.375   6.929  10.772  1.2379  0.0647 -0.8676
  607MOL0     C80002  10.496   6.893  10.855 -0.1437 -0.1438 -0.4532
  607MOL0     C80003  10.475   6.882  11.002 -0.5753  0.1947  0.2467
  607MOL0     C80004  10.606   6.848  11.084  0.7346 -0.4098  0.3330
  607MOL0     C80005  10.637   6.965  11.174 -0.3551  0.4924 -0.0854
  607MOL0     C80006  10.751   6.920  11.271  0.2349 -0.3820  0.1599
  607MOL0     C80007  10.790   7.028  11.381 -0.1144  0.7774  1.1972
  607MOL0     C80008  10.919   6.985  11.461 -0.0224 -0.2357 -0.2584
  607MOL0     N80009  11.033   7.030  11.388 -0.3620  0.0667  0.0793
  607MOL0     C80010  11.079   7.160  11.386  0.1381 -0.0974  0.1951
  607MOL0     C80011  11.202   7.148  11.324 -0.1181  0.7491  0.2919
  607MOL0     C80012  11.318   7.243  11.310  0.0211 -0.0436 -0.0258
  607MOL0     C80013  11.274   7.382  11.260  0.3286  0.2844  0.1610
  607MOL0     C80014  11.205   7.366  11.127 -0.0467  0.5948  0.7957
  607MOL0     C80015  11.195   7.499  11.050  0.3035 -1.0086  0.0243
  607MOL0     O80016  11.162   7.488  10.906  0.3743  1.0863  0.4691
  607MOL0     C80017  11.145   7.613  10.841 -0.3138  0.2471  0.2645
  607MOL0     C80018  11.147   7.737  10.904  0.1653 -0.3614  0.4352
  607MOL0     C80019  11.142   7.863  10.843  0.2460 -0.3735 -0.5256
  607MOL0     C80020  11.130   7.859  10.704  0.1054  0.2605  0.6401
  607MOL0     C80021  11.119   7.985  10.626 -0.8743  0.6278 -0.5185
  607MOL0     O80022  11.132   8.096  10.695  0.2814  0.0495  0.5395
  607MOL0     C80023  11.099   8.216  10.645  0.2050  0.2468 -0.2775
  607MOL0     C80024  10.963   8.241  10.607  0.4096  0.6492  1.3056
  607MOL0     C80025  10.923   8.359  10.557 -0.4030 -0.2385  0.6071
  607MOL0     C80026  11.010   8.465  10.538  0.2061  0.0595 -0.4901
  607MOL0     O80027  10.955   8.584  10.486  0.5531  0.2264  0.1399
  607MOL0     C80028  11.019   8.711  10.526 -0.0126 -0.4169 -0.1127
  607MOL0     C80029  11.089   8.774  10.409  0.6809 -0.2208  0.0623
  607MOL0     C80030  11.203   8.874  10.456 -0.1342 -0.7637  0.2255
  607MOL0     C80031  11.162   8.992  10.537 -0.1874  0.3870 -0.4248
  607MOL0     C80032  11.284   9.048  10.615 -0.7191  0.5910  0.2912
  607MOL0     C80033  11.402   9.073  10.536  0.0813  0.0891 -0.5576
  607MOL0     C80034  11.391   9.191  10.439  0.1041  0.2879 -0.6759
  607MOL0     C80035  11.532   9.251  10.395  0.1116  0.2233 -0.2708
  607MOL0    Cl80036  11.620   9.128  10.279 -0.2306  0.5253 -0.2817
  607MOL0     C80037  11.140   8.445  10.575 -0.9736  0.0016 -0.2661
  607MOL0     C80038  11.191   8.319  10.629  0.1622  0.1094 -0.5000
  607MOL0     O80039  11.098   7.976  10.505 -0.4026 -0.2372 -0.3202
  607MOL0     C80040  11.111   7.737  10.641 -0.1315  0.4019 -0.9122
  607MOL0     C80041  11.113   7.617  10.709 -0.2900 -0.4145  0.0881
  607MOL0     N80042  11.220   7.007  11.298  0.5385  0.1366 -0.7056
  607MOL0     N80043  11.117   6.938  11.346 -0.9266 -0.3693  0.4006
  607MOL0     C80044  10.110   6.687  10.719  0.2831 -0.4440  0.2252
  607MOL0     C80045   9.987   6.664  10.645 -0.6618  0.1843 -0.9614
  607MOL0     C80046   9.622   6.823  10.447 -0.1941  0.4787 -0.0858
  607MOL0     C80047   9.527   6.923  10.479 -0.0544 -0.0819 -0.0605
  607MOL0     C80048   9.405   6.923  10.415 -0.2517  0.0680 -0.1477
  607MOL0     C80049   9.362   6.835  10.324 -0.6206  0.1463  0.2950
  607MOL0     O80050   9.247   6.854  10.256 -0.5088  0.1069 -0.6509
  607MOL0     C80051   9.201   6.740  10.172  0.3522 -0.1717 -0.6309
  607MOL0     C80052   9.065   6.784  10.117  0.9592 -0.5144  0.4425
  607MOL0     C80053   9.015   6.687  10.005  0.0166  0.3806 -0.3573
  607MOL0     C80054   9.011   6.531  10.050 -0.0182 -0.1659 -0.8459
  607MOL0     C80055   8.928   6.498  10.167  0.1699 -0.1523 -0.1538
  607MOL0     C80056   8.875   6.465  10.270  0.1876  0.2224  0.7738
  607MOL0     C80057   9.463   6.731  10.293  0.1289 -0.1900  0.3136
  607MOL0     C80058   9.594   6.719  10.352  0.6133  0.0863 -0.0862
  607MOL0     H80059  10.029   6.905  10.399  0.6755  0.2737  0.8633
  607MOL0     H80060  10.229   6.962  10.555  0.6059 -0.2936  1.9775
  607MOL0     H80061  10.315   7.011  10.812  0.5313 -1.9983  2.7529
  607MOL0     H80062  10.416   6.956  10.674  2.4968 -2.1445 -1.0268
  607MOL0     H80063  10.573   6.970  10.856  1.1404 -1.4009 -0.0330
  607MOL0     H80064  10.554   6.810  10.813  2.1901  1.6186 -0.8865
  607MOL0     H80065  10.399   6.805  11.017  1.4274 -1.4372  3.1982
  607MOL0     H80066  10.438   6.977  11.040 -0.2458  0.7945 -0.8994
  607MOL0     H80067  10.592   6.761  11.148 -0.7091 -2.8014 -2.9797
  607MOL0     H80068  10.689   6.829  11.016  1.2681  0.8312  0.6106
  607MOL0     H80069  10.549   6.994  11.232 -0.0637 -1.1990  1.3081
  607MOL0     H80070  10.674   7.052  11.120  2.5102 -0.0671  0.7859
  607MOL0     H80071  10.830   6.895  11.200  0.1651  4.3652 -1.9377
  607MOL0     H80072  10.712   6.834  11.327  2.2036 -1.8782 -0.6519
  607MOL0     H80073  10.801   7.124  11.330 -1.0525 -0.2240 -1.0326
  607MOL0     H80074  10.707   7.045  11.450 -1.5976 -0.3196 -0.2385
  607MOL0     H80075  10.923   6.876  11.478 -0.6761 -0.1103  0.8144
  607MOL0     H80076  10.927   7.040  11.555  1.7372  0.3328 -0.7034
  607MOL0     H80077  11.030   7.250  11.421  0.8455  1.2901 -2.1901
  607MOL0     H80078  11.391   7.215  11.234  0.7048  1.7772 -0.1016
  607MOL0     H80079  11.375   7.245  11.403 -1.1073  1.1345  0.6839
  607MOL0     H80080  11.350   7.460  11.251 -1.3616  1.7714 -2.6088
  607MOL0     H80081  11.193   7.421  11.323 -0.3828 -0.4374 -0.2926
  607MOL0     H80082  11.260   7.297  11.062  0.0700 -0.4957  2.0272
  607MOL0     H80083  11.102   7.330  11.137 -0.3041  0.7966 -0.7225
  607MOL0     H80084  11.289   7.553  11.067  1.1731 -1.9739 -1.5515
  607MOL0     H80085  11.113   7.560  11.090 -0.0990 -3.0208  2.4997
  607MOL0     H80086  11.137   7.744  11.012 -0.4215 -3.0737  0.6120
  607MOL0     H80087  11.146   7.956  10.898 -1.2303 -0.7289  0.2385
  607MOL0     H80088  10.894   8.160  10.627  2.6123 -1.4874  0.8687
  607MOL0     H80089  10.817   8.383  10.547 -0.6135 -0.9876  0.9761
  607MOL0     H80090  11.081   8.685  10.613  0.7618  0.0427 -0.5293
  607MOL0     H80091  10.938   8.776  10.561 -1.4434 -0.5310 -2.9699
  607MOL0     H80092  11.020   8.823  10.339  1.5252 -0.6928 -1.1341
  607MOL0     H80093  11.136   8.689  10.359  0.9887 -2.8073  4.2983
  607MOL0     H80094  11.265   8.905  10.371 -0.2630  1.5738  0.9105
  607MOL0     H80095  11.270   8.815  10.518 -0.5066 -0.5894  0.7986
  607MOL0     H80096  11.127   9.058  10.457  0.7137 -2.0928 -3.0524
  607MOL0     H80097  11.080   8.967  10.605  1.3453 -0.6018  1.1514
  607MOL0     H80098  11.308   8.964  10.682  1.9900 -0.7643 -2.1694
  607MOL0     H80099  11.255   9.135  10.674  1.0485  0.8476  0.8387
  607MOL0     H80100  11.448   8.988  10.485 -1.3506 -0.4772 -0.9356
  607MOL0     H80101  11.472   9.108  10.612 -1.0426 -0.0831  0.5942
  607MOL0     H80102  11.342   9.157  10.346 -0.2944 -0.2360 -0.2820
  607MOL0     H80103  11.338   9.281  10.469  1.9552  1.9286 -2.0416
  607MOL0     H80104  11.584   9.281  10.487  4.2574  2.1697 -2.9532
  607MOL0     H80105  11.516   9.345  10.343 -3.0649 -0.1658 -0.1879
  607MOL0     H80106  11.205   8.530  10.556 -1.4737  0.6526  0.8342
  607MOL0     H80107  11.293   8.294  10.658  1.0566  0.4151 -3.1776
  607MOL0     H80108  11.095   7.727  10.534  1.1321  2.4040 -1.3433
  607MOL0     H80109  11.114   7.523  10.654  0.9547 -0.9680  1.0027
  607MOL0     H80110  10.155   6.629  10.799  0.5555 -1.1269 -0.4032
  607MOL0     H80111   9.933   6.571  10.660  2.8639 -2.1861 -1.6794
  607MOL0     H80112   9.550   6.998  10.554 -1.9165  2.0998 -1.5554
  607MOL0     H80113   9.339   7.007  10.433  0.0712  0.0115  1.4356
  607MOL0     H80114   9.182   6.654  10.238  1.3638  1.2191  1.5693
  607MOL0     H80115   9.274   6.722  10.093  0.8841  0.7032 -0.3424
  607MOL0     H80116   8.991   6.776  10.198 -1.6409  0.7174 -1.6357
  607MOL0     H80117   9.081   6.888  10.087  2.3698 -0.7054  0.5078
  607MOL0     H80118   9.068   6.686   9.910 -0.0129  0.4580 -0.3753
  607MOL0     H80119   8.914   6.726   9.994 -1.2999 -2.0147  1.9759
  607MOL0     H80120   8.979   6.468   9.967  1.7410  1.2886 -2.7092
  607MOL0     H80121   9.109   6.502  10.089 -1.1982 -4.2110 -0.3936
  607MOL0     H80122   8.811   6.450  10.355 -1.2262 -3.5675 -0.7448
  607MOL0     H80123   9.443   6.648  10.226  3.1557  0.8595 -2.1648
  607MOL0     H80124   9.669   6.641  10.337  2.4681  1.0932  2.9489
  608MOL0     O80125   3.679   2.237   3.889 -0.1321  0.2339 -1.0305
  608MOL0     C80126   3.757   2.149   3.925  1.0664  0.6348 -1.3078
  608MOL0     O80127   3.712   2.020   3.979 -0.8358  0.2740 -0.2644
  608MOL0     C80128   3.582   1.979   3.948  1.0868  0.4928 -1.1809
  608MOL0     C80129   3.493   2.006   4.050  1.0466  0.5972 -0.0966
  608MOL0     C80130   3.358   1.991   4.021  0.2175 -0.7282  0.0992
  608MOL0     C80131   3.315   1.920   3.912  0.6629  0.0812 -0.3039
  608MOL0     O80132   3.180   1.908   3.902  0.4817 -0.1231 -0.2764
  608MOL0     C80133   3.123   1.857   3.768 -1.0314  0.1960 -0.6291
  608MOL0     C80134   2.980   1.913   3.768 -0.8133 -0.0450 -0.3940
  608MOL0     C80135   2.892   1.883   3.890 -0.0532 -0.4815 -0.6545
  608MOL0     C80136   2.741   1.883   3.862 -0.2711 -0.1888 -0.1325
  608MOL0     C80137   2.693   1.735   3.827 -0.5566 -0.6454 -0.1189
  608MOL0     C80138   2.740   1.677   3.690  0.4578  0.2405 -0.1035
  608MOL0     C80139   2.695   1.771   3.567 -0.1351 -0.0361  0.1271
  608MOL0     C80140   2.729   1.700   3.437  0.5422  0.5426  0.0543
  608MOL0     N80141   2.875   1.678   3.428  0.1066 -0.4016  0.7653
  608MOL0     C80142   2.938   1.560   3.401 -0.1985  0.2170 -0.4071
  608MOL0     C80143   3.068   1.591   3.390 -0.7311 -0.6000  0.1853
  608MOL0     C80144   3.192   1.505   3.371  1.3584 -1.4910  0.1401
  608MOL0     C80145   3.196   1.375   3.460  0.9627  0.5707 -0.5758
  608MOL0     C80146   3.342   1.339   3.511 -0.5485  0.4362 -0.9666
  608MOL0     C80147   3.398   1.441   3.615  0.2691  0.0402  0.4303
  608MOL0     O80148   3.484   1.519   3.531 -0.4406 -0.0531 -0.3068
  608MOL0     C80149   3.611   1.541   3.565 -0.3495  0.3416  0.9306
  608MOL0     C80150   3.668   1.546   3.689 -0.5112 -0.0964 -0.3753
  608MOL0     C80151   3.803   1.587   3.699  0.0998 -0.1944 -0.4981
  608MOL0     C80152   3.887   1.618   3.590  0.4943  0.5924 -0.4578
  608MOL0     C80153   4.032   1.632   3.606  0.4359 -0.1695  0.1766
  608MOL0     O80154   4.104   1.632   3.491  0.9751 -0.0235 -0.0288
  608MOL0     C80155   4.237   1.654   3.487 -0.9517  0.7148 -0.0332
  608MOL0     C80156   4.322   1.609   3.592  0.1332  0.2311  0.2752
  608MOL0     C80157   4.460   1.614   3.585  0.0775  0.0474 -0.6250
  608MOL0     C80158   4.517   1.675   3.464 -0.2344  0.7549 -0.1868
  608MOL0     O80159   4.651   1.663   3.439 -0.7042 -1.1277 -0.0358
  608MOL0     C80160   4.722   1.720   3.325 -0.0651 -0.8134  1.1554
  608MOL0     C80161   4.745   1.878   3.353  0.2059  0.1465  0.0667
  608MOL0     C80162   4.836   1.929   3.246 -0.0502  0.1074  0.2487
  608MOL0     C80163   4.842   2.082   3.262 -0.2217  0.1381 -0.3306
  608MOL0     C80164   4.725   2.172   3.233 -0.2337  0.3507 -0.2413
  608MOL0     C80165   4.668   2.141   3.093  0.4940 -0.1355 -1.1468
  608MOL0     C80166   4.540   2.222   3.065  0.3485  0.9203 -0.3170
  608MOL0     C80167   4.486   2.161   2.930 -0.0677 -0.2134 -0.0026
  608MOL0    Cl80168   4.328   2.242   2.898 -0.4310  0.0208  0.0875
  608MOL0     C80169   4.434   1.727   3.367 -0.4475  0.3596  0.0704
  608MOL0     C80170   4.293   1.716   3.378 -0.3443  0.3766 -0.2789
  608MOL0     O80171   4.075   1.651   3.720 -0.1516  0.8333 -0.1757
  608MOL0     C80172   3.830   1.595   3.463  0.7361 -0.4605  0.7629
  608MOL0     C80173   3.692   1.561   3.455 -0.8201  0.7403 -0.3855
  608MOL0     N80174   3.079   1.731   3.406  0.2472 -0.3630 -0.9393
  608MOL0     N80175   2.960   1.778   3.429  0.0980 -0.4639 -1.3415
  608MOL0     C80176   3.409   1.884   3.814  0.2845  0.2703 -0.1036
  608MOL0     C80177   3.540   1.912   3.824  0.1350 -0.4654 -0.9812
  608MOL0     C80178   3.902   2.164   3.933  0.6236  0.9720  0.2853
  608MOL0     C80179   3.958   2.292   3.912  0.5807 -0.0570  0.1374
  608MOL0     C80180   4.097   2.299   3.915 -0.0303  0.5248  0.8827
  608MOL0     C80181   4.187   2.187   3.945  0.1214  0.3715 -0.2099
  608MOL0     O80182   4.327   2.205   3.951 -0.1974 -1.1885 -0.6739
  608MOL0     C80183   4.423   2.098   3.967  0.6915 -0.2793 -0.2872
  608MOL0     C80184   4.471   2.058   3.830 -0.6924  0.1215  0.3342
  608MOL0     C80185   4.576   2.159   3.775  0.3700 -0.1551  0.7554
  608MOL0     C80186   4.658   2.119   3.658 -0.1308  0.1834  0.4566
  608MOL0     C80187   4.741   2.219   3.590 -0.6836  0.0916  0.0845
  608MOL0     C80188   4.805   2.302   3.527 -0.3012  0.4842  0.2213
  608MOL0     C80189   4.125   2.062   3.952  0.0191 -0.2046  0.4658
  608MOL0     C80190   3.989   2.048   3.956  0.4000  0.5011  0.6276
  608MOL0     H80191   3.530   2.067   4.131  0.5327 -0.0094  0.6087
  608MOL0     H80192   3.277   2.017   4.090  0.0178 -2.3417  0.5225
  608MOL0     H80193   3.118   1.748   3.772  2.1245 -0.0442 -0.9666
  608MOL0     H80194   3.178   1.887   3.679  6.0903 -2.0569  2.2763
  608MOL0     H80195   2.924   1.868   3.685 -2.9210  2.5002 -0.5193
  608MOL0     H80196   2.986   2.020   3.746  0.6021  0.0165  0.2111
  608MOL0     H80197   2.913   1.965   3.959 -1.8439 -0.2568 -0.3252
  608MOL0     H80198   2.928   1.792   3.939 -0.8612 -1.5880 -2.0622
  608MOL0     H80199   2.699   1.902   3.961 -1.0788  0.0558 -0.5084
  608MOL0     H80200   2.709   1.955   3.787 -1.3592 -0.4557  0.0542
  608MOL0     H80201   2.584   1.746   3.816 -0.4053  1.3911  0.1196
  608MOL0     H80202   2.723   1.669   3.909  0.9794 -1.3898 -1.2386
  608MOL0     H80203   2.701   1.576   3.677  3.4062 -0.7674 -2.1650
  608MOL0     H80204   2.845   1.649   3.702 -0.0976 -1.2648  1.9336
  608MOL0     H80205   2.588   1.789   3.572  0.1827  1.8946  0.6291
  608MOL0     H80206   2.739   1.871   3.575  2.8892 -1.2273 -0.3254
  608MOL0     H80207   2.702   1.762   3.350 -1.8630  0.9822  1.0143
  608MOL0     H80208   2.668   1.609   3.431  0.6523  0.0404  4.1228
  608MOL0     H80209   2.894   1.461   3.391  2.8495 -1.7199  3.0535
  608MOL0     H80210   3.282   1.561   3.398  1.1591 -1.9627  1.8590
  608MOL0     H80211   3.192   1.481   3.264 -1.2026  0.3105 -0.3585
  608MOL0     H80212   3.157   1.293   3.398 -0.8674  0.9256  0.0634
  608MOL0     H80213   3.125   1.388   3.542 -1.6409  3.4270 -3.0077
  608MOL0     H80214   3.325   1.250   3.573 -1.0327  2.5323  2.2060
  608MOL0     H80215   3.414   1.323   3.431  0.9953  5.1485 -0.7960
  608MOL0     H80216   3.458   1.388   3.690  1.3819  2.1490  1.0974
  608MOL0     H80217   3.320   1.501   3.662  2.2382  3.2364 -0.0468
  608MOL0     H80218   3.612   1.527   3.780 -0.5411 -0.2295 -0.4206
  608MOL0     H80219   3.845   1.593   3.799  1.8818 -2.3488 -1.0529
  608MOL0     H80220   4.281   1.553   3.675 -0.1278 -0.1627 -0.1164
  608MOL0     H80221   4.511   1.570   3.670  1.8056  0.0999 -1.5820
  608MOL0     H80222   4.683   1.706   3.224  1.7080 -1.6535  0.5697
  608MOL0     H80223   4.819   1.670   3.321 -1.1341 -2.8918 -1.0474
  608MOL0     H80224   4.795   1.894   3.450  0.4243  0.0983 -0.0369
  608MOL0     H80225   4.654   1.938   3.362  0.0288 -0.4224  5.1280
  608MOL0     H80226   4.799   1.900   3.147 -0.3699  1.3722 -0.0189
  608MOL0     H80227   4.932   1.884   3.274 -0.7536 -0.3397  2.0833
  608MOL0     H80228   4.883   2.094   3.363  1.2477 -1.0957 -0.7630
  608MOL0     H80229   4.911   2.106   3.181 -0.8825 -2.8439 -1.9228
  608MOL0     H80230   4.768   2.272   3.234  2.6998 -0.7721 -1.0583
  608MOL0     H80231   4.649   2.155   3.309  1.6037  0.0301  1.6330
  608MOL0     H80232   4.652   2.034   3.076 -1.0857 -0.5058  2.0072
  608MOL0     H80233   4.750   2.166   3.024  0.6975  0.4893 -0.6908
  608MOL0     H80234   4.469   2.194   3.143  0.6812 -1.1695 -0.6966
  608MOL0     H80235   4.558   2.330   3.067 -1.9339  1.4026  3.5076
  608MOL0     H80236   4.479   2.052   2.931  1.8326 -0.4089 -1.9913
  608MOL0     H80237   4.561   2.182   2.853  0.4983  1.0928  0.8640
  608MOL0     H80238   4.484   1.764   3.278  2.3005 -0.2842  1.2409
  608MOL0     H80239   4.225   1.760   3.306  0.4199  1.3767 -0.4135
  608MOL0     H80240   3.902   1.607   3.383  3.2239  1.5271  3.0945
  608MOL0     H80241   3.657   1.555   3.352  0.8907  0.4804 -0.9830
  608MOL0     H80242   3.384   1.822   3.729  1.2239 -1.5809  0.9046
  608MOL0     H80243   3.603   1.888   3.739 -1.7859  3.0382 -3.6410
  608MOL0     H80244   3.902   2.383   3.896  0.5371  0.1776  1.5436
  608MOL0     H80245   4.143   2.398   3.917 -0.7548  0.8628  2.5189
  608MOL0     H80246   4.384   2.008   4.016  1.3441 -0.4872 -0.1417
  608MOL0     H80247   4.506   2.133   4.030  0.1774 -0.6853  0.6419
  608MOL0     H80248   4.519   1.961   3.845 -0.7382 -0.3352 -2.1250
  608MOL0     H80249   4.388   2.040   3.762 -0.2760  0.0076 -0.1453
  608MOL0     H80250   4.639   2.168   3.865 -0.1551 -0.6616  1.1759
  608MOL0     H80251   4.530   2.255   3.748  0.4124 -0.3769 -0.1402
  608MOL0     H80252   4.728   2.041   3.690 -1.6712 -0.5918  2.1722
  608MOL0     H80253   4.586   2.064   3.596  1.3258 -0.7496 -0.4627
  608MOL0     H80254   4.874   2.374   3.487 -1.4531  2.7304  2.0108
  608MOL0     H80255   4.171   1.967   3.978  0.4594  0.6774  3.2150
  608MOL0     H80256   3.953   1.946   3.968 -2.1999  0.5099 -4.4034
  609MOL0     O80257   7.531   8.146   6.392 -0.3187  0.8118  0.4193
  609MOL0     C80258   7.478   8.120   6.287 -0.6239 -0.4442  0.1261
  609MOL0     O80259   7.496   8.015   6.211 -0.2121  0.6627 -0.8638
  609MOL0     C80260   7.610   7.939   6.208  0.2634  0.5993 -0.3667
  609MOL0     C80261   7.670   7.865   6.314 -0.1066 -0.2227  0.6299
  609MOL0     C80262   7.791   7.788   6.290  0.1445  0.5880 -0.7122
  609MOL0     C80263   7.826   7.757   6.161 -0.8481 -0.9538 -0.0994
  609MOL0     O80264   7.915   7.662   6.118  0.0309  0.5208  0.3931
  609MOL0     C80265   7.933   7.546   6.198  0.0564 -0.2417 -0.6880
  609MOL0     C80266   8.056   7.569   6.289 -0.7300 -0.3915 -0.1539
  609MOL0     C80267   8.059   7.478   6.414  0.4825  0.2885 -0.3193
  609MOL0     C80268   8.191   7.448   6.470 -0.3106  0.3202  0.6801
  609MOL0     C80269   8.268   7.338   6.402  0.5918  0.2813  0.2180
  609MOL0     C80270   8.385   7.292   6.495 -0.4325 -0.3344  0.3604
  609MOL0     C80271   8.416   7.144   6.451 -0.4221  0.1670 -0.5801
  609MOL0     C80272   8.487   7.129   6.315  0.3167  0.3284  0.1158
  609MOL0     N80273   8.629   7.121   6.324  0.4566  0.2802  1.0284
  609MOL0     C80274   8.711   7.045   6.399 -0.0293 -0.1156  0.8129
  609MOL0     C80275   8.832   7.063   6.344 -0.2534  1.3820  0.8008
  609MOL0     C80276   8.961   6.994   6.390 -0.8833 -0.0829  0.5478
  609MOL0     C80277   8.982   6.973   6.537 -0.0662 -0.2559 -0.1820
  609MOL0     C80278   9.029   7.096   6.615  0.4703  0.1676 -0.2544
  609MOL0     C80279   9.178   7.094   6.634  0.7680 -0.1274 -0.4454
  609MOL0     O80280   9.225   7.226   6.677  0.3400 -0.0889 -0.0342
  609MOL0     C80281   9.347   7.252   6.734  0.0307  0.5361  0.1526
  609MOL0     C80282   9.449   7.152   6.749 -0.0106 -0.8502 -0.7273
  609MOL0     C80283   9.579   7.187   6.798 -0.3110 -0.0000 -0.8759
  609MOL0     C80284   9.590   7.312   6.861 -0.2272 -0.4627  1.1540
  609MOL0     C80285   9.714   7.350   6.928 -0.0428 -0.0861 -0.9371
  609MOL0     O80286   9.819   7.259   6.930 -0.2041 -0.2585  0.5942
  609MOL0     C80287   9.945   7.296   6.974 -1.0414 -0.3847  0.7566
  609MOL0     C80288  10.010   7.422   6.967 -0.3485 -0.6041 -0.5777
  609MOL0     C80289  10.139   7.440   7.026  0.5843 -0.8511  1.2978
  609MOL0     C80290  10.206   7.333   7.093 -0.2579 -0.6814 -0.2288
  609MOL0     O80291  10.329   7.353   7.147 -0.3123 -1.0499 -0.4100
  609MOL0     C80292  10.406   7.242   7.191  0.4688 -0.6774 -0.4786
  609MOL0     C80293  10.551   7.291   7.223 -0.0934  0.9794  0.2824
  609MOL0     C80294  10.637   7.168   7.260  0.8533  0.0486  0.3478
  609MOL0     C80295  10.696   7.083   7.145  0.5728 -0.3334  0.2240
  609MOL0     C80296  10.792   6.973   7.201  0.1337 -0.6602 -0.2011
  609MOL0     C80297  10.831   6.874   7.092  0.2211  0.1643  0.4894
  609MOL0     C80298  10.733   6.763   7.066  0.5337 -0.9852 -0.5062
  609MOL0     C80299  10.743   6.714   6.918 -0.3847  0.2098 -0.4056
  609MOL0    Cl80300  10.655   6.835   6.798 -0.4856  0.1540  0.4428
  609MOL0     C80301  10.147   7.205   7.085 -0.0949  0.5992  0.5463
  609MOL0     C80302  10.019   7.190   7.042  0.1397  0.0290  0.0290
  609MOL0     O80303   9.711   7.459   6.990  0.1491 -0.1733 -0.4458
  609MOL0     C80304   9.485   7.415   6.844 -0.4779  0.1951  0.6146
  609MOL0     C80305   9.365   7.381   6.784 -0.4210 -0.2723 -0.1996
  609MOL0     N80306   8.823   7.140   6.232  0.0697  0.0471  0.1260
  609MOL0     N80307   8.706   7.181   6.219  0.5839 -0.2850  0.2283
  609MOL0     C80308   7.778   7.828   6.063  0.5299  0.0053  0.0327
  609MOL0     C80309   7.661   7.902   6.088 -0.2725  0.1872 -0.2249
  609MOL0     C80310   7.359   8.198   6.265  0.0406 -0.8136 -0.9446
  609MOL0     C80311   7.264   8.164   6.170 -0.5041 -0.0343  0.5516
  609MOL0     C80312   7.149   8.238   6.157  0.0306  0.1777  0.8235
  609MOL0     C80313   7.118   8.351   6.231 -0.1774 -0.6519 -0.7844
  609MOL0     O80314   7.013   8.430   6.199 -0.2255 -0.3082  0.2452
  609MOL0     C80315   7.027   8.574   6.222  0.2197  1.5456 -0.9753
  609MOL0     C80316   6.932   8.657   6.130 -0.4850  0.3876 -0.3337
  609MOL0     C80317   6.792   8.602   6.158  0.3712 -0.0983 -0.2571
  609MOL0     C80318   6.679   8.693   6.093 -0.8917 -0.6442  0.3816
  609MOL0     C80319   6.557   8.685   6.164 -0.4575 -0.4471  0.1176
  609MOL0     C80320   6.444   8.676   6.214  0.2954  0.3264  0.3683
  609MOL0     C80321   7.210   8.396   6.327  0.3224  0.4608 -0.9375
  609MOL0     C80322   7.321   8.316   6.347 -0.2347 -0.1923 -0.1449
  609MOL0     H80323   7.648   7.895   6.416  0.7343  3.0921 -0.0398
  609MOL0     H80324   7.854   7.750   6.370 -2.8995 -0.8465  1.2027
  609MOL0     H80325   7.937   7.453   6.140 -0.5700 -0.8129  0.1693
  609MOL0     H80326   7.850   7.527   6.266 -1.0750  1.8635 -1.3756
  609MOL0     H80327   8.057   7.672   6.327 -3.3298  0.4700 -2.1138
  609MOL0     H80328   8.145   7.557   6.226 -2.1950 -0.0567 -2.4119
  609MOL0     H80329   7.996   7.391   6.392  1.2583 -0.0674 -1.2212
  609MOL0     H80330   8.007   7.539   6.488  1.8174  0.6713  0.3241
  609MOL0     H80331   8.260   7.533   6.466  0.2474 -0.1697 -1.5557
  609MOL0     H80332   8.173   7.424   6.575 -0.9433 -2.1457  0.0608
  609MOL0     H80333   8.303   7.375   6.304  2.2551  2.2425  1.4514
  609MOL0     H80334   8.199   7.255   6.388  0.2373  0.4006  1.2059
  609MOL0     H80335   8.352   7.296   6.599 -1.2582 -1.4866  0.1617
  609MOL0     H80336   8.473   7.357   6.485  1.0369 -1.9398  1.9533
  609MOL0     H80337   8.471   7.092   6.530 -0.0485  1.2820 -0.0940
  609MOL0     H80338   8.321   7.091   6.440 -0.7233  0.9848 -2.3014
  609MOL0     H80339   8.452   7.202   6.241 -0.7207  1.2215  1.4521
  609MOL0     H80340   8.452   7.030   6.282 -0.4865  0.1956  1.3087
  609MOL0     H80341   8.674   6.972   6.471 -2.3483 -1.9636 -1.9886
  609MOL0     H80342   9.044   7.055   6.355 -0.5936 -1.6761 -1.7860
  609MOL0     H80343   8.957   6.895   6.343 -1.6649 -0.6134  1.6676
  609MOL0     H80344   9.050   6.888   6.546  0.5625  0.3721  1.3257
  609MOL0     H80345   8.882   6.952   6.577  0.2640 -0.4459  0.5495
  609MOL0     H80346   8.996   7.189   6.570  1.9487  1.4132  1.0963
  609MOL0     H80347   8.991   7.086   6.718 -0.8441  1.7478 -0.5539
  609MOL0     H80348   9.232   7.058   6.545  0.5575 -0.8383 -0.2958
  609MOL0     H80349   9.207   7.024   6.713  2.7451  0.2628 -0.7621
  609MOL0     H80350   9.433   7.062   6.691 -0.2616 -1.9689  1.0240
  609MOL0     H80351   9.664   7.124   6.776 -0.7938 -0.2678 -2.0465
  609MOL0     H80352   9.971   7.505   6.908 -1.3754 -1.0019 -0.4600
  609MOL0     H80353  10.195   7.531   7.007 -1.7821  0.1872 -1.4962
  609MOL0     H80354  10.420   7.164   7.116 -1.3811  0.0511 -1.6596
  609MOL0     H80355  10.359   7.198   7.279  2.4605  0.9625  1.5462
  609MOL0     H80356  10.541   7.353   7.312  0.8658  0.4221  0.7903
  609MOL0     H80357  10.598   7.339   7.137 -1.6190 -1.9311 -2.3818
  609MOL0     H80358  10.579   7.102   7.325 -0.3133  1.4472  0.7671
  609MOL0     H80359  10.717   7.205   7.324  0.2695  0.0073  1.1098
  609MOL0     H80360  10.613   7.032   7.095  0.1874  0.5221 -0.0242
  609MOL0     H80361  10.735   7.146   7.065 -1.2314  0.5641 -0.0098
  609MOL0     H80362  10.752   6.921   7.289  0.1050 -0.6653 -0.2170
  609MOL0     H80363  10.887   7.010   7.242  2.2650 -3.5345 -2.1683
  609MOL0     H80364  10.920   6.828   7.134  1.9268  0.2031 -2.7532
  609MOL0     H80365  10.859   6.927   7.000  2.5879  0.2664  1.2176
  609MOL0     H80366  10.744   6.684   7.141 -2.1086 -1.3234 -0.3910
  609MOL0     H80367  10.629   6.795   7.075  0.9101  0.1535  0.1376
  609MOL0     H80368  10.686   6.621   6.909 -2.2172  1.4005 -1.8875
  609MOL0     H80369  10.847   6.698   6.888 -1.2257  0.3325 -3.7439
  609MOL0     H80370  10.193   7.112   7.116 -1.9156  0.1176  1.9787
  609MOL0     H80371   9.981   7.091   7.022  1.8517 -0.3855 -1.4075
  609MOL0     H80372   9.513   7.515   6.874  2.3064  0.5999 -2.6909
  609MOL0     H80373   9.287   7.456   6.781  2.4478  3.0796  1.7963
  609MOL0     H80374   7.809   7.818   5.960 -1.4826  1.8914 -0.8433
  609MOL0     H80375   7.621   7.951   6.000  0.0124  0.2120 -0.3392
  609MOL0     H80376   7.290   8.096   6.090  0.2977  1.4877 -0.5339
  609MOL0     H80377   7.085   8.203   6.077  0.3038  2.9706 -0.7533
  609MOL0     H80378   7.132   8.606   6.213  1.8943 -2.8212  0.4979
  609MOL0     H80379   6.992   8.591   6.324  0.1646 -1.9384 -0.3081
  609MOL0     H80380   6.935   8.766   6.140 -0.7993  0.3351  0.4098
  609MOL0     H80381   6.958   8.641   6.025  0.1738  0.1924 -0.1402
  609MOL0     H80382   6.776   8.596   6.266 -0.7066 -1.4307 -0.4697
  609MOL0     H80383   6.796   8.502   6.114  3.9275  0.5832 -1.8708
  609MOL0     H80384   6.729   8.790   6.101  3.2399 -2.1572 -3.1808
  609MOL0     H80385   6.667   8.677   5.985  3.3600 -1.5001 -0.1177
  609MOL0     H80386   6.356   8.691   6.274  0.7494  1.5969  0.7578
  609MOL0     H80387   7.198   8.478   6.397 -1.1318 -0.7672  0.3202
  609MOL0     H80388   7.385   8.336   6.432 -0.5663 -1.6729  0.4909
  610MOL0     O80389   4.564   1.572   3.933 -0.3849  0.4357 -0.0126
  610MOL0     C80390   4.600   1.672   3.996 -0.3739  0.8739 -0.3997
  610MOL0     O80391   4.527   1.738   4.089 -0.0992  0.2097  0.3899
  610MOL0     C80392   4.396   1.732   4.106  0.8819 -0.0995  0.4604
  610MOL0     C80393   4.307   1.666   4.021 -0.4056  0.2133 -0.4968
  610MOL0     C80394   4.173   1.675   4.044 -0.3152 -0.4908  0.7772
  610MOL0     C80395   4.121   1.761   4.141  0.7967 -0.4664 -0.3203
  610MOL0     O80396   3.980   1.772   4.156 -0.8763 -0.5559 -1.2205
  610MOL0     C80397   3.935   1.743   4.288 -1.0773 -0.3206 -1.0923
  610MOL0     C80398   3.785   1.720   4.298  0.6274 -0.1353 -0.8043
  610MOL0     C80399   3.743   1.599   4.227  0.1466  0.8574 -1.3459
  610MOL0     C80400   3.587   1.597   4.212 -1.3376  0.9780  0.3024
  610MOL0     C80401   3.551   1.479   4.114  0.0152  0.3161  0.4354
  610MOL0     C80402   3.397   1.489   4.092 -0.5267 -0.0447 -0.1399
  610MOL0     C80403   3.342   1.418   3.965 -0.2736  1.0433  0.7244
  610MOL0     C80404   3.285   1.288   4.006  0.2536 -0.4338 -0.2450
  610MOL0     N80405   3.210   1.229   3.889 -0.9097  0.5402 -0.0168
  610MOL0     C80406   3.095   1.286   3.852  0.5271  0.3278  0.0758
  610MOL0     C80407   3.043   1.211   3.748 -0.5948  0.0636  0.7185
  610MOL0     C80408   2.915   1.238   3.674  0.9055  0.1395 -0.4315
  610MOL0     C80409   2.794   1.238   3.766  0.4802 -0.0448 -0.4875
  610MOL0     C80410   2.667   1.263   3.686  0.0703 -1.1270  0.3852
  610MOL0     C80411   2.536   1.256   3.767  0.4107  0.2137 -0.9636
  610MOL0     O80412   2.541   1.368   3.858 -0.5836  0.7675 -0.1133
  610MOL0     C80413   2.431   1.382   3.938  0.1901  0.0681  1.3757
  610MOL0     C80414   2.438   1.494   4.009 -0.7791 -0.4084 -0.1076
  610MOL0     C80415   2.309   1.535   4.077  0.6977  0.8262 -0.3023
  610MOL0     C80416   2.195   1.448   4.075  0.4225 -1.0709 -0.2981
  610MOL0     C80417   2.083   1.482   4.164 -0.2225  0.2214  0.2388
  610MOL0     O80418   2.064   1.615   4.200  0.6733  0.0709 -0.2604
  610MOL0     C80419   1.939   1.640   4.249 -0.4013 -0.7714  0.0621
  610MOL0     C80420   1.819   1.619   4.176 -1.1478 -0.0777 -1.5146
  610MOL0     C80421   1.704   1.675   4.224  0.1557  0.7201 -0.0685
  610MOL0     C80422   1.700   1.755   4.347 -0.2049  0.2559  1.1647
  610MOL0     O80423   1.585   1.805   4.401  0.3848 -0.5834  0.2638
  610MOL0     C80424   1.464   1.725   4.406 -0.0148 -0.5739 -0.1228
  610MOL0     C80425   1.367   1.784   4.513  0.3524  0.0112 -0.7069
  610MOL0     C80426   1.219   1.723   4.522  0.3643  0.1459  0.1534
  610MOL0     C80427   1.124   1.823   4.457 -0.3084 -0.0666  0.1928
  610MOL0     C80428   0.975   1.795   4.477  0.3492 -0.3659 -0.3884
  610MOL0     C80429   0.903   1.910   4.399  0.8399  0.1810  0.1001
  610MOL0     C80430   0.746   1.894   4.419 -0.5139 -0.1863 -0.1158
  610MOL0     C80431   0.685   2.030   4.387  1.5716 -1.0045  0.4167
  610MOL0    Cl80432   0.504   2.019   4.372 -0.2871  0.2192 -0.4289
  610MOL0     C80433   1.815   1.783   4.408 -0.2539 -0.7416 -0.5750
  610MOL0     C80434   1.932   1.725   4.360 -0.5444  0.3323 -0.1097
  610MOL0     O80435   2.012   1.388   4.205 -0.3160 -0.2042  0.1518
  610MOL0     C80436   2.199   1.333   3.999 -0.5052 -0.0494 -0.8550
  610MOL0     C80437   2.317   1.302   3.940  0.1099 -0.4584 -0.0394
  610MOL0     N80438   3.134   1.109   3.727 -0.7246 -0.3036  0.2802
  610MOL0     N80439   3.230   1.122   3.810  0.2321  0.0559  0.0176
  610MOL0     C80440   4.210   1.833   4.223 -0.3630 -0.5221 -0.1918
  610MOL0     C80441   4.344   1.812   4.210 -0.4191  0.6180 -0.2344
  610MOL0     C80442   4.728   1.737   3.958  1.2229  0.5247 -0.1427
  610MOL0     C80443   4.784   1.847   4.037  0.1244  0.3783  0.5155
  610MOL0     C80444   4.884   1.928   3.981  0.7898 -0.8972  0.4666
  610MOL0     C80445   4.934   1.893   3.855  0.0978 -0.7493  0.5309
  610MOL0     O80446   5.023   1.989   3.800 -0.8732 -0.1699  0.2023
  610MOL0     C80447   5.125   1.955   3.699  0.8194 -0.3399 -0.3953
  610MOL0     C80448   5.175   2.088   3.650 -0.4880  0.6706 -0.6828
  610MOL0     C80449   5.323   2.076   3.622  1.1241 -0.5925 -0.4832
  610MOL0     C80450   5.361   2.053   3.487  0.1458 -0.2134  0.1070
  610MOL0     C80451   5.299   1.936   3.437  0.2836 -0.1140  0.6685
  610MOL0     C80452   5.230   1.841   3.402  0.2455 -0.0159  0.8317
  610MOL0     C80453   4.892   1.783   3.781 -0.4527 -0.5620 -0.5951
  610MOL0     C80454   4.786   1.710   3.830 -0.9651 -1.2078 -0.4509
  610MOL0     H80455   4.343   1.592   3.950 -0.4381  0.2511 -0.5524
  610MOL0     H80456   4.104   1.617   3.984  1.7540 -1.6563 -0.6298
  610MOL0     H80457   3.963   1.832   4.345 -0.7780  0.0271 -1.7701
  610MOL0     H80458   3.984   1.650   4.319 -0.1900 -0.5784 -3.1029
  610MOL0     H80459   3.738   1.808   4.253 -0.3191  1.0953  2.2994
  610MOL0     H80460   3.735   1.709   4.395  1.1605 -2.8190 -0.7524
  610MOL0     H80461   3.776   1.514   4.288 -2.4158  0.9838  0.3706
  610MOL0     H80462   3.793   1.589   4.130 -2.2858  0.9105 -2.6760
  610MOL0     H80463   3.527   1.598   4.303 -0.8045  1.3508  0.6603
  610MOL0     H80464   3.564   1.686   4.154 -0.8267 -0.9297 -3.0728
  610MOL0     H80465   3.572   1.389   4.172 -2.6702  1.4343  3.4111
  610MOL0     H80466   3.616   1.499   4.027 -1.1742 -1.5821 -0.9460
  610MOL0     H80467   3.372   1.595   4.085 -0.3714  0.0983  1.2141
  610MOL0     H80468   3.364   1.444   4.186  0.1691 -0.0611  0.0991
  610MOL0     H80469   3.279   1.491   3.912 -0.4426  0.8692  0.6863
  610MOL0     H80470   3.421   1.402   3.890  0.6338  0.8494  1.6995
  610MOL0     H80471   3.214   1.303   4.088 -0.8854 -1.3932 -1.0182
  610MOL0     H80472   3.361   1.222   4.047  1.7745  0.1983 -1.8952
  610MOL0     H80473   3.053   1.376   3.896  0.7224 -1.2180  3.7634
  610MOL0     H80474   2.909   1.164   3.594 -1.5644  0.4736 -0.6298
  610MOL0     H80475   2.923   1.341   3.638 -0.0906 -0.0443 -1.2444
  610MOL0     H80476   2.814   1.316   3.840  1.1133 -0.5353 -0.1245
  610MOL0     H80477   2.796   1.144   3.823  0.3567  1.1698  1.6383
  610MOL0     H80478   2.677   1.368   3.657  3.3456 -1.3813  0.1199
  610MOL0     H80479   2.655   1.195   3.602 -1.6694 -1.3741  0.8023
  610MOL0     H80480   2.524   1.160   3.818 -0.5971  0.1817 -1.2489
  610MOL0     H80481   2.455   1.268   3.694  0.6369  1.8661 -0.9802
  610MOL0     H80482   2.526   1.557   4.017 -2.0217  1.1847  2.1047
  610MOL0     H80483   2.299   1.625   4.137 -2.3287 -0.6703  1.6619
  610MOL0     H80484   1.823   1.564   4.083 -0.0465 -1.9067 -0.4524
  610MOL0     H80485   1.611   1.656   4.172  0.1956 -1.0317  0.4297
  610MOL0     H80486   1.489   1.623   4.434  0.9261 -0.9118 -2.0175
  610MOL0     H80487   1.429   1.730   4.302  1.9092 -0.0142 -0.7919
  610MOL0     H80488   1.364   1.893   4.503 -2.9598  0.1250  0.3291
  610MOL0     H80489   1.408   1.755   4.610 -1.2411  0.8253  0.2597
  610MOL0     H80490   1.189   1.714   4.627  0.2269  0.6732  0.1644
  610MOL0     H80491   1.210   1.624   4.478  0.0738 -0.8143  2.2220
  610MOL0     H80492   1.154   1.918   4.502 -1.9131 -1.4486  4.7618
  610MOL0     H80493   1.143   1.830   4.350 -0.7852 -0.2124  0.0956
  610MOL0     H80494   0.958   1.795   4.585 -0.9396 -0.0569 -0.5731
  610MOL0     H80495   0.935   1.699   4.441 -1.2657  0.9750 -2.3963
  610MOL0     H80496   0.925   1.919   4.292 -0.5999  2.7225 -0.0391
  610MOL0     H80497   0.939   2.000   4.449  0.0725 -0.1522  1.2873
  610MOL0     H80498   0.708   1.809   4.362  0.9090 -2.9513  2.7781
  610MOL0     H80499   0.724   1.869   4.523 -0.0520 -0.9775 -0.2067
  610MOL0     H80500   0.724   2.071   4.293  2.4574  1.9728  1.9378
  610MOL0     H80501   0.708   2.097   4.471  0.8830  2.6139 -2.0154
  610MOL0     H80502   1.816   1.839   4.501 -0.5984 -0.6752 -0.6124
  610MOL0     H80503   2.028   1.741   4.407  0.4097 -0.2839 -1.7683
  610MOL0     H80504   2.122   1.259   4.017 -2.2544  1.9218  0.1719
  610MOL0     H80505   2.327   1.199   3.907  2.7353 -1.3938  3.1247
  610MOL0     H80506   4.171   1.902   4.297 -0.6462 -1.1618  0.2639
  610MOL0     H80507   4.399   1.869   4.286 -0.8876  4.3391 -2.4189
  610MOL0     H80508   4.746   1.872   4.135 -1.3470  2.3064 -0.4746
  610MOL0     H80509   4.939   2.002   4.039 -1.1276  0.5797  0.5005
  610MOL0     H80510   5.087   1.892   3.617 -1.0167  0.0503  0.1064
  610MOL0     H80511   5.207   1.901   3.747  1.0062 -0.2410 -0.6001
  610MOL0     H80512   5.117   2.128   3.566 -0.8980  1.3141 -0.1023
  610MOL0     H80513   5.159   2.156   3.734 -1.3243  0.3325 -0.5613
  610MOL0     H80514   5.372   1.997   3.678  0.3225  0.7201  2.2617
  610MOL0     H80515   5.356   2.176   3.654 -2.5423  0.5587  0.2459
  610MOL0     H80516   5.333   2.142   3.430  5.0359  2.1103  0.8374
  610MOL0     H80517   5.469   2.051   3.468  0.5772 -1.7231  2.3493
  610MOL0     H80518   5.161   1.762   3.381 -0.3432  1.0617 -1.6601
  610MOL0     H80519   4.953   1.758   3.695  0.5932 -0.6853  0.1571
  610MOL0     H80520   4.750   1.626   3.771 -3.3141  0.3943 -1.4269
  611MOL0     O80521   2.974   2.762   9.646  0.2738  0.0015 -0.3239
  611MOL0     C80522   2.967   2.708   9.539 -0.0138  0.3188  0.1586
  611MOL0     O80523   2.852   2.683   9.482 -0.2015  0.0466  0.4634
  611MOL0     C80524   2.738   2.751   9.532 -0.2123  0.0328 -0.6477
  611MOL0     C80525   2.728   2.888   9.543 -0.1077  0.5126 -0.6489
  611MOL0     C80526   2.606   2.945   9.586  1.2897  0.4572 -0.4888
  611MOL0     C80527   2.491   2.870   9.614 -0.2503  0.2988 -0.5381
  611MOL0     O80528   2.372   2.928   9.648  0.0781 -1.2888 -0.4575
  611MOL0     C80529   2.312   2.885   9.771  0.3795 -0.0560 -0.0982
  611MOL0     C80530   2.168   2.936   9.789 -0.2878  0.1101  0.2099
  611MOL0     C80531   2.069   2.851   9.694  0.2685 -0.0778 -0.7064
  611MOL0     C80532   1.927   2.907   9.698 -0.1596  0.4342 -0.1374
  611MOL0     C80533   1.837   2.830   9.590 -0.1576 -0.4051 -0.6209
  611MOL0     C80534   1.697   2.893   9.597  0.0873  1.0328 -0.0456
  611MOL0     C80535   1.609   2.845   9.485  0.2332  0.3879 -0.1168
  611MOL0     C80536   1.495   2.947   9.476  0.7236  0.0388 -0.1094
  611MOL0     N80537   1.426   2.945   9.602 -0.3565  0.2825  0.2638
  611MOL0     C80538   1.349   2.835   9.653 -0.0802 -0.9157  0.2207
  611MOL0     C80539   1.287   2.885   9.768  0.2679  0.1847  0.6689
  611MOL0     C80540   1.213   2.797   9.868 -0.3179  0.2725  0.1217
  611MOL0     C80541   1.069   2.770   9.831 -0.3512 -0.9837 -0.3968
  611MOL0     C80542   1.003   2.911   9.816  0.3729  0.2932 -0.0407
  611MOL0     C80543   0.850   2.900   9.806  0.2589 -0.4267 -0.0639
  611MOL0     O80544   0.793   3.028   9.763  0.5097  0.3890  0.2761
  611MOL0     C80545   0.669   3.008   9.704 -0.1186 -0.1042 -0.8992
  611MOL0     C80546   0.633   3.092   9.593 -1.3994  0.4193 -0.5659
  611MOL0     C80547   0.515   3.060   9.528 -0.9167  0.9632  1.0594
  611MOL0     C80548   0.429   2.965   9.575 -0.8283 -0.8724 -0.3803
  611MOL0     C80549   0.317   2.913   9.493 -0.3301 -1.1851  0.8781
  611MOL0     O80550   0.252   2.802   9.533  0.1872  0.2965 -0.6938
  611MOL0     C80551   0.138   2.760   9.468 -0.0952 -0.6186  0.2752
  611MOL0     C80552   0.024   2.835   9.452 -0.7758 -0.2974  0.0667
  611MOL0     C80553  -0.087   2.786   9.387  0.3029  0.2158  0.5566
  611MOL0     C80554  -0.093   2.657   9.335  0.5772 -0.3420  0.4038
  611MOL0     O80555  -0.211   2.621   9.267 -0.7779  0.7781  0.0634
  611MOL0     C80556  -0.177   2.542   9.155  0.9850 -0.6289 -0.3266
  611MOL0     C80557  -0.295   2.513   9.059 -0.9863 -0.1660  0.4864
  611MOL0     C80558  -0.252   2.462   8.919  0.2033 -0.4025  1.0751
  611MOL0     C80559  -0.361   2.360   8.876 -1.1853 -0.1765 -0.2166
  611MOL0     C80560  -0.351   2.314   8.729  0.2733  0.4097  0.6978
  611MOL0     C80561  -0.369   2.432   8.640  0.3536  0.4963  0.4619
  611MOL0     C80562  -0.399   2.377   8.492 -0.0326  1.2974  0.1566
  611MOL0     C80563  -0.276   2.313   8.428 -0.0150 -0.0199  0.2090
  611MOL0    Cl80564  -0.141   2.407   8.465  0.0037 -0.4631 -0.2407
  611MOL0     C80565   0.018   2.578   9.355 -0.0411 -0.1786 -0.0301
  611MOL0     C80566   0.134   2.624   9.423  0.0860 -0.5676  0.0489
  611MOL0     O80567   0.299   2.973   9.390 -0.9359 -0.4376  0.3742
  611MOL0     C80568   0.462   2.905   9.694  0.9698 -0.1791  0.4462
  611MOL0     C80569   0.582   2.921   9.765 -0.0839 -0.0342 -0.1709
  611MOL0     N80570   1.322   3.021   9.780  0.2762 -0.7943 -0.7105
  611MOL0     N80571   1.400   3.053   9.681 -0.5610 -0.3630  0.4993
  611MOL0     C80572   2.504   2.728   9.608  0.4555  0.0435  0.2065
  611MOL0     C80573   2.623   2.669   9.571 -0.4471 -0.3281 -0.6720
  611MOL0     C80574   3.091   2.666   9.475 -0.8466 -0.1457 -0.1643
  611MOL0     C80575   3.209   2.645   9.557  0.5978  0.0941 -0.2248
  611MOL0     C80576   3.325   2.617   9.497 -0.0229  0.6454 -0.0344
  611MOL0     C80577   3.335   2.590   9.364  0.0712  0.5644  0.6524
  611MOL0     O80578   3.457   2.561   9.311  0.4329  0.0209  0.4939
  611MOL0     C80579   3.457   2.439   9.239 -0.3704 -0.0481  0.2476
  611MOL0     C80580   3.591   2.389   9.179  0.3962 -0.0642  0.2539
  611MOL0     C80581   3.698   2.367   9.294  1.3735 -0.5187 -0.2441
  611MOL0     C80582   3.833   2.310   9.248  0.3432 -0.6811  0.3609
  611MOL0     C80583   3.886   2.407   9.158 -0.6643 -0.4142 -0.7644
  611MOL0     C80584   3.939   2.484   9.080  0.9362 -1.1763 -0.4537
  611MOL0     C80585   3.219   2.595   9.285 -0.0003 -0.5392 -0.3481
  611MOL0     C80586   3.098   2.637   9.338  0.5425  0.3784 -0.7202
  611MOL0     H80587   2.807   2.963   9.539 -0.9199  1.6229  1.7249
  611MOL0     H80588   2.599   3.050   9.613  2.1347  0.7139 -1.2221
  611MOL0     H80589   2.370   2.926   9.855  1.1688 -2.2599  0.4996
  611MOL0     H80590   2.313   2.776   9.774 -0.9989 -0.0674  1.4801
  611MOL0     H80591   2.160   3.045   9.783  1.8305  0.3021  0.2428
  611MOL0     H80592   2.145   2.902   9.891 -0.6697  1.3188  0.5434
  611MOL0     H80593   2.076   2.747   9.728  2.0318  0.0807 -0.4828
  611MOL0     H80594   2.109   2.853   9.592  1.4573  0.9142 -0.2435
  611MOL0     H80595   1.877   2.903   9.795 -1.3776  0.0934 -0.7593
  611MOL0     H80596   1.933   3.012   9.667  0.3397  0.3197 -0.4495
  611MOL0     H80597   1.826   2.725   9.618 -1.4451 -0.4483 -1.2098
  611MOL0     H80598   1.874   2.840   9.487  5.5257  0.2823  1.1321
  611MOL0     H80599   1.702   3.002   9.589 -0.3153  1.4803  3.9472
  611MOL0     H80600   1.653   2.867   9.693  1.1347  1.7182  0.6454
  611MOL0     H80601   1.667   2.837   9.393 -0.6549  1.3612 -0.7743
  611MOL0     H80602   1.572   2.743   9.501 -3.5653  1.4073 -1.4465
  611MOL0     H80603   1.423   2.916   9.400  0.3760  2.8606 -1.0572
  611MOL0     H80604   1.522   3.048   9.444 -2.6031  0.8208 -0.7663
  611MOL0     H80605   1.349   2.734   9.612  0.4819  0.4813 -3.5737
  611MOL0     H80606   1.235   2.851   9.961  2.3369  0.8429 -0.7497
  611MOL0     H80607   1.272   2.705   9.863 -0.3778  0.0646  2.4634
  611MOL0     H80608   1.030   2.705   9.910 -2.5714 -0.0190 -0.6122
  611MOL0     H80609   1.068   2.711   9.739  2.9043  0.7822 -1.7226
  611MOL0     H80610   1.026   2.967   9.907  0.5787 -3.0317  2.1306
  611MOL0     H80611   1.044   2.957   9.726  0.7675 -0.6003 -0.3318
  611MOL0     H80612   0.809   2.872   9.904 -1.2293  0.6946 -0.3222
  611MOL0     H80613   0.826   2.821   9.734  0.3504 -0.7278  0.2386
  611MOL0     H80614   0.693   3.168   9.543 -0.1034  0.0289  0.3293
  611MOL0     H80615   0.501   3.114   9.435 -0.9415 -0.9905 -0.1269
  611MOL0     H80616   0.032   2.936   9.490  1.5525 -0.9891  1.6006
  611MOL0     H80617  -0.172   2.853   9.378  0.9113  1.0546  0.9323
  611MOL0     H80618  -0.142   2.442   9.182 -2.2671 -1.8810 -0.2487
  611MOL0     H80619  -0.103   2.602   9.103  0.9041  0.9840  1.3125
  611MOL0     H80620  -0.351   2.606   9.044 -1.1814 -0.0391  1.8461
  611MOL0     H80621  -0.352   2.437   9.113  0.6111 -0.5929  1.6528
  611MOL0     H80622  -0.157   2.408   8.922 -0.1331 -0.9839  1.2698
  611MOL0     H80623  -0.243   2.538   8.840  0.3257 -0.4330  1.0586
  611MOL0     H80624  -0.356   2.270   8.938  2.8792  0.4913  0.7422
  611MOL0     H80625  -0.456   2.411   8.894 -1.8465 -1.5272  0.2248
  611MOL0     H80626  -0.410   2.228   8.698  2.8419 -1.4721  0.6276
  611MOL0     H80627  -0.253   2.267   8.713 -0.5401 -1.5718  1.2630
  611MOL0     H80628  -0.295   2.513   8.641  0.5481  0.3257  0.0444
  611MOL0     H80629  -0.462   2.470   8.683 -1.0618 -0.5013 -1.5857
  611MOL0     H80630  -0.484   2.308   8.494  0.2248  0.9375 -0.9646
  611MOL0     H80631  -0.437   2.462   8.435 -0.2527  1.1638  0.1046
  611MOL0     H80632  -0.283   2.310   8.319  1.9695  0.7928  0.0059
  611MOL0     H80633  -0.257   2.212   8.465  3.2440  0.8603  1.2820
  611MOL0     H80634   0.029   2.475   9.324  0.5998 -0.6217  1.5810
  611MOL0     H80635   0.213   2.552   9.436  0.7673 -0.0787 -1.2313
  611MOL0     H80636   0.408   2.822   9.737  2.1960 -0.0217  2.4148
  611MOL0     H80637   0.602   2.870   9.858  0.9001  1.5309  0.5299
  611MOL0     H80638   2.415   2.666   9.616 -0.4124  1.3901  1.9869
  611MOL0     H80639   2.632   2.562   9.555  0.2064 -0.5753  1.1334
  611MOL0     H80640   3.200   2.662   9.664  1.4979  1.3077 -0.3248
  611MOL0     H80641   3.412   2.612   9.562 -0.8432 -1.0591  1.0060
  611MOL0     H80642   3.387   2.450   9.155 -0.2103 -1.7711 -0.1531
  611MOL0     H80643   3.409   2.362   9.301  2.6162 -2.4800 -0.2340
  611MOL0     H80644   3.573   2.294   9.128  2.0039 -0.0295 -0.4267
  611MOL0     H80645   3.638   2.459   9.110 -1.2526 -1.2340 -2.1968
  611MOL0     H80646   3.662   2.307   9.378  0.8730  0.0998 -0.0101
  611MOL0     H80647   3.721   2.458   9.349  3.0770 -0.5399 -0.8505
  611MOL0     H80648   3.888   2.283   9.339  1.1906  0.5452  0.2353
  611MOL0     H80649   3.815   2.221   9.188  3.2586 -0.4958 -0.9980
  611MOL0     H80650   3.990   2.553   9.015 -2.3211  1.9675 -0.0204
  611MOL0     H80651   3.220   2.564   9.181  0.1142 -0.1800 -0.4539
  611MOL0     H80652   3.006   2.654   9.284  1.3280 -0.8086 -2.5356
  612MOL0     O80653   4.660   6.630   6.396  0.0533  0.4420  0.1177
  612MOL0     C80654   4.710   6.738   6.362  0.5244 -0.1626  0.4910
  612MOL0     O80655   4.640   6.858   6.338  0.2068  0.5997  0.1093
  612MOL0     C80656   4.506   6.868   6.350  0.2970 -0.3807  0.2576
  612MOL0     C80657   4.395   6.771   6.364 -0.9542  0.2259 -0.4641
  612MOL0     C80658   4.265   6.803   6.377 -0.2373 -0.6451  0.4742
  612MOL0     C80659   4.229   6.933   6.352 -0.6366 -0.4223  0.4407
  612MOL0     O80660   4.089   6.939   6.366 -0.2291  0.9171  1.3270
  612MOL0     C80661   4.018   7.055   6.325  0.0589  0.8353  0.3701
  612MOL0     C80662   4.048   7.166   6.436 -0.6105  0.4350 -0.5815
  612MOL0     C80663   3.994   7.310   6.424  0.4692  0.3422  0.0254
  612MOL0     C80664   3.835   7.304   6.406 -0.6435 -0.0327 -0.6812
  612MOL0     C80665   3.791   7.446   6.432 -0.4801 -0.5455 -0.5292
  612MOL0     C80666   3.637   7.461   6.442 -0.2451  0.1458 -0.2536
  612MOL0     C80667   3.562   7.360   6.539  0.4961  0.4717  1.2874
  612MOL0     C80668   3.409   7.398   6.545  0.7857 -0.1384 -0.0142
  612MOL0     N80669   3.344   7.381   6.412 -0.2555 -0.6870  0.1111
  612MOL0     C80670   3.352   7.276   6.326 -0.0367 -0.3527  0.2508
  612MOL0     C80671   3.271   7.303   6.217  0.0100 -0.9142  0.7088
  612MOL0     C80672   3.246   7.219   6.087  0.5270 -1.4615  0.0108
  612MOL0     C80673   3.138   7.118   6.095 -0.7514 -0.0076 -0.1228
  612MOL0     C80674   2.997   7.171   6.117  0.1024 -0.1036  0.2017
  612MOL0     C80675   2.910   7.091   6.213 -0.7017  0.2696  0.5494
  612MOL0     O80676   2.983   7.077   6.338 -0.3667 -0.1902 -0.1466
  612MOL0     C80677   2.940   6.991   6.433 -0.5028  0.9175 -1.6373
  612MOL0     C80678   2.822   6.927   6.434 -0.8333  0.1062 -0.0175
  612MOL0     C80679   2.798   6.823   6.519 -0.7462  0.3382 -0.3175
  612MOL0     C80680   2.899   6.776   6.609 -0.0738  0.0833  0.4682
  612MOL0     C80681   2.877   6.667   6.708 -0.2984 -0.3737 -0.5039
  612MOL0     O80682   2.988   6.643   6.786 -1.0946  0.1808 -0.2946
  612MOL0     C80683   2.984   6.528   6.856  0.1484  0.1676  1.0467
  612MOL0     C80684   2.987   6.528   7.000  0.3135  0.2142 -0.0307
  612MOL0     C80685   3.006   6.403   7.066 -0.4477 -0.2126 -0.0397
  612MOL0     C80686   2.992   6.274   7.007 -0.5982  0.1174  0.2173
  612MOL0     O80687   2.999   6.160   7.090  0.1022 -1.2034 -0.4054
  612MOL0     C80688   2.982   6.025   7.034  1.0785 -0.0725 -0.6593
  612MOL0     C80689   3.030   5.925   7.139 -0.3194  1.1170  0.1898
  612MOL0     C80690   2.947   5.810   7.167 -0.2256 -0.1779 -0.7159
  612MOL0     C80691   2.988   5.722   7.292  0.7169  0.2706 -0.3168
  612MOL0     C80692   3.136   5.678   7.295 -0.0622  0.0147  0.6331
  612MOL0     C80693   3.165   5.562   7.378  0.1352 -0.4932 -0.3558
  612MOL0     C80694   3.131   5.579   7.532  0.0461  0.5612  0.3203
  612MOL0     C80695   3.227   5.673   7.596 -0.7329  0.1645 -0.5933
  612MOL0    Cl80696   3.231   5.645   7.772 -0.0997 -0.1761  0.4064
  612MOL0     C80697   2.985   6.281   6.868 -0.1073  0.2782  0.5900
  612MOL0     C80698   2.982   6.406   6.793 -0.0807 -0.2700  1.1654
  612MOL0     O80699   2.767   6.609   6.709 -0.5800  0.4066  0.0466
  612MOL0     C80700   3.023   6.846   6.613 -0.3067 -0.4119 -0.6706
  612MOL0     C80701   3.036   6.954   6.529  0.2449  0.4495  0.3375
  612MOL0     N80702   3.213   7.425   6.234  0.0903  0.1092  0.3624
  612MOL0     N80703   3.257   7.466   6.345 -0.3553  0.0706 -0.0344
  612MOL0     C80704   4.322   7.026   6.307 -0.0127 -0.5249 -0.1857
  612MOL0     C80705   4.460   6.990   6.314  0.5274  0.3710  0.1794
  612MOL0     C80706   4.844   6.754   6.354 -0.5574  0.9146 -0.1832
  612MOL0     C80707   4.915   6.838   6.437 -1.2118 -0.3086 -1.1583
  612MOL0     C80708   5.062   6.856   6.426  0.2449 -0.4785 -0.3236
  612MOL0     C80709   5.115   6.804   6.311 -0.7624  0.4461  0.4099
  612MOL0     O80710   5.247   6.837   6.290  1.3236 -0.2659  0.5880
  612MOL0     C80711   5.355   6.750   6.320  0.2429 -0.7479 -0.0003
  612MOL0     C80712   5.488   6.798   6.263 -0.7383 -0.2435 -0.9109
  612MOL0     C80713   5.587   6.682   6.299  0.0447 -0.8442 -0.9035
  612MOL0     C80714   5.726   6.720   6.253 -1.0683  0.7996  0.0906
  612MOL0     C80715   5.823   6.605   6.275 -0.5421  0.0537 -0.6704
  612MOL0     C80716   5.899   6.510   6.281 -0.1289  0.2204 -0.3895
  612MOL0     C80717   5.057   6.699   6.238  0.2894 -0.6906  0.4672
  612MOL0     C80718   4.920   6.680   6.254 -0.1296 -0.1515  0.6099
  612MOL0     H80719   4.417   6.665   6.371  1.2421  0.7308  3.3093
  612MOL0     H80720   4.187   6.728   6.381  0.7305 -1.6523  0.8753
  612MOL0     H80721   3.911   7.033   6.324  0.3059 -0.4488 -1.2679
  612MOL0     H80722   4.047   7.084   6.224  1.2903  1.6607  0.9432
  612MOL0     H80723   4.156   7.171   6.451 -0.6271 -1.6288  0.6303
  612MOL0     H80724   4.018   7.126   6.534  1.1494 -1.3901 -0.7223
  612MOL0     H80725   4.039   7.368   6.344  0.0528 -0.6005 -0.9119
  612MOL0     H80726   4.037   7.353   6.515  1.5742 -1.8366  0.5975
  612MOL0     H80727   3.812   7.268   6.305 -0.6262 -0.2648 -0.6020
  612MOL0     H80728   3.776   7.229   6.459 -1.2910  1.0848  0.2356
  612MOL0     H80729   3.826   7.518   6.358 -0.7254  1.4852  1.2178
  612MOL0     H80730   3.840   7.485   6.522  1.5126  0.3029 -1.9128
  612MOL0     H80731   3.596   7.439   6.343  2.9786 -2.0784 -1.2826
  612MOL0     H80732   3.628   7.569   6.460  1.0409  0.8213 -3.0550
  612MOL0     H80733   3.574   7.256   6.509  1.1579  0.5105  1.4098
  612MOL0     H80734   3.616   7.367   6.634 -1.3587  0.9802  2.3432
  612MOL0     H80735   3.390   7.501   6.576 -2.1491  0.3997 -3.0115
  612MOL0     H80736   3.354   7.323   6.602 -1.7846  2.6613  1.4825
  612MOL0     H80737   3.424   7.195   6.330  0.2030 -0.3761 -2.4804
  612MOL0     H80738   3.341   7.182   6.048  1.3935  1.4474 -0.9082
  612MOL0     H80739   3.212   7.297   6.018  1.0333 -0.8633  0.4300
  612MOL0     H80740   3.177   7.059   6.178 -0.7664  1.3086  0.8519
  612MOL0     H80741   3.146   7.054   6.006 -0.7362 -0.5768  0.2783
  612MOL0     H80742   3.007   7.271   6.160  0.0132 -0.1854  0.4108
  612MOL0     H80743   2.947   7.175   6.020  1.1523 -1.5675 -0.4349
  612MOL0     H80744   2.877   7.000   6.161 -0.6107  0.9952 -0.8249
  612MOL0     H80745   2.816   7.146   6.222 -0.8549 -0.2274  2.4446
  612MOL0     H80746   2.742   6.948   6.364 -1.5427 -0.6413  0.5625
  612MOL0     H80747   2.701   6.774   6.522  0.5364 -2.3359  2.2372
  612MOL0     H80748   2.999   6.623   7.051  2.0800  0.9327 -1.6641
  612MOL0     H80749   3.006   6.387   7.173 -4.0220 -5.2860 -0.4010
  612MOL0     H80750   3.042   6.016   6.943 -1.1954 -2.1069 -2.0873
  612MOL0     H80751   2.882   5.995   7.000  1.1876 -1.0685 -0.1227
  612MOL0     H80752   3.032   5.974   7.236 -0.1646 -0.9688  1.2979
  612MOL0     H80753   3.132   5.896   7.112 -0.8307 -0.9881  0.3554
  612MOL0     H80754   2.949   5.748   7.077 -0.2953 -0.7103 -0.3565
  612MOL0     H80755   2.842   5.838   7.178  0.1756  0.8561  0.7893
  612MOL0     H80756   2.969   5.778   7.383 -3.2817  1.2095 -1.5475
  612MOL0     H80757   2.932   5.629   7.298  0.9070  0.2633  1.9379
  612MOL0     H80758   3.200   5.762   7.323 -0.5559  1.8052 -2.9749
  612MOL0     H80759   3.159   5.656   7.190  3.4617  1.4287  0.9736
  612MOL0     H80760   3.270   5.536   7.368  1.3010  3.8517 -1.2633
  612MOL0     H80761   3.096   5.478   7.359  0.8327 -2.1607  3.5316
  612MOL0     H80762   3.032   5.622   7.552 -0.8328 -1.7771  1.2665
  612MOL0     H80763   3.129   5.479   7.574  0.4803 -0.4539 -1.9310
  612MOL0     H80764   3.189   5.775   7.582 -1.3001  0.1626  0.7458
  612MOL0     H80765   3.325   5.656   7.551 -1.3971  0.9413 -2.3894
  612MOL0     H80766   2.968   6.189   6.814 -0.2963 -0.7022  2.2540
  612MOL0     H80767   2.981   6.400   6.685 -1.5609 -2.6132  1.2365
  612MOL0     H80768   3.111   6.825   6.672 -1.2929 -3.4161 -0.1013
  612MOL0     H80769   3.131   7.005   6.524  1.5141 -1.8168  0.3099
  612MOL0     H80770   4.295   7.126   6.275  0.7161 -0.0241  0.7210
  612MOL0     H80771   4.529   7.073   6.299  0.7303  0.6611  2.3661
  612MOL0     H80772   4.860   6.892   6.514 -0.1405  0.6966 -1.0658
  612MOL0     H80773   5.125   6.908   6.498 -0.1952 -1.2350  0.6308
  612MOL0     H80774   5.322   6.650   6.290 -1.4508  0.3175 -1.9671
  612MOL0     H80775   5.369   6.750   6.429  3.2017 -0.8894 -0.2823
  612MOL0     H80776   5.481   6.803   6.154  0.4108 -0.0279 -0.9889
  612MOL0     H80777   5.514   6.891   6.313  3.0780 -2.7425  2.4670
  612MOL0     H80778   5.559   6.587   6.253 -2.5670 -0.9501  0.6910
  612MOL0     H80779   5.583   6.671   6.408 -1.4874  0.8512 -0.7328
  612MOL0     H80780   5.713   6.749   6.148 -3.2255 -2.1293 -0.5895
  612MOL0     H80781   5.770   6.808   6.300 -0.1645  0.2622  0.2865
  612MOL0     H80782   5.937   6.410   6.272  2.0888  1.1742 -3.6405
  612MOL0     H80783   5.114   6.645   6.163 -0.2306  0.1746 -0.5757
  612MOL0     H80784   4.854   6.618   6.195  0.8895  0.6714 -1.5223
  613MOL0     O80785   2.468   6.085   8.564  0.2035  0.4944  0.4207
  613MOL0     C80786   2.409   6.190   8.590  0.2363 -1.6445  1.0449
  613MOL0     O80787   2.439   6.286   8.689 -0.2297 -0.4588  0.4373
  613MOL0     C80788   2.565   6.296   8.736  0.8386 -0.7731  0.4852
  613MOL0     C80789   2.688   6.245   8.684 -0.8725 -0.0991  0.7549
  613MOL0     C80790   2.811   6.282   8.734 -0.2978  0.4638 -1.0740
  613MOL0     C80791   2.826   6.359   8.847 -0.1864 -1.3266 -0.5641
  613MOL0     O80792   2.950   6.383   8.904 -0.1763 -0.8577  0.7327
  613MOL0     C80793   3.069   6.409   8.819  0.0368 -0.5631 -0.3454
  613MOL0     C80794   3.196   6.410   8.897  0.9378 -0.1193 -0.1571
  613MOL0     C80795   3.301   6.501   8.846 -0.6115  0.5566  0.8752
  613MOL0     C80796   3.391   6.550   8.965 -0.3449  0.3832 -0.1258
  613MOL0     C80797   3.511   6.626   8.908 -0.4369  0.7639 -0.1057
  613MOL0     C80798   3.595   6.673   9.022  0.1467  0.0462 -0.0809
  613MOL0     C80799   3.701   6.768   8.972 -0.4920  0.4902 -0.2507
  613MOL0     C80800   3.757   6.836   9.092 -0.0103  0.3356  0.3340
  613MOL0     N80801   3.811   6.964   9.051 -1.1494  0.2096 -0.0112
  613MOL0     C80802   3.929   6.997   8.988  0.1233  0.8675  0.5450
  613MOL0     C80803   3.919   7.123   8.957 -0.0840 -0.5239 -0.7924
  613MOL0     C80804   4.039   7.201   8.898  0.2428 -1.0106 -0.1752
  613MOL0     C80805   4.027   7.177   8.745 -0.5441 -0.2806 -0.0720
  613MOL0     C80806   4.039   7.032   8.697 -1.3469  0.2654  0.2186
  613MOL0     C80807   3.908   6.983   8.651 -0.0669 -0.2107  0.1383
  613MOL0     O80808   3.907   6.843   8.625 -0.0142  0.2029  0.5313
  613MOL0     C80809   3.796   6.776   8.589 -0.5129  0.2419  0.2341
  613MOL0     C80810   3.807   6.638   8.582  0.5365  0.8101  1.1195
  613MOL0     C80811   3.695   6.558   8.546  0.7159 -0.9148  0.1773
  613MOL0     C80812   3.565   6.609   8.529 -0.4671 -0.2516 -0.1425
  613MOL0     C80813   3.451   6.521   8.496 -0.5807 -0.6619  0.2444
  613MOL0     O80814   3.328   6.581   8.501  0.4798  0.4186 -0.3235
  613MOL0     C80815   3.213   6.515   8.461  0.4665 -0.4507 -0.5183
  613MOL0     C80816   3.182   6.383   8.500 -0.4802 -0.2989  0.7227
  613MOL0     C80817   3.074   6.311   8.457  0.5464 -0.7859  0.5688
  613MOL0     C80818   2.975   6.379   8.383 -0.4956 -1.5426  0.3696
  613MOL0     O80819   2.861   6.310   8.358  0.0016 -0.1019  0.0267
  613MOL0     C80820   2.743   6.394   8.340 -0.3099  0.3445  0.0000
  613MOL0     C80821   2.681   6.399   8.202 -0.4112  0.0089 -0.1079
  613MOL0     C80822   2.673   6.257   8.146 -0.2512 -0.2869  0.2998
  613MOL0     C80823   2.524   6.219   8.118 -0.8041 -0.2091  0.5793
  613MOL0     C80824   2.500   6.087   8.044 -0.4416  0.5177 -0.6706
  613MOL0     C80825   2.597   5.974   8.092 -0.3096  0.1449 -0.5590
  613MOL0     C80826   2.573   5.839   8.027  0.7007  0.2057  0.3579
  613MOL0     C80827   2.654   5.728   8.095 -0.8226 -0.3976  0.0450
  613MOL0    Cl80828   2.604   5.580   8.012  0.0667  0.2602  0.1251
  613MOL0     C80829   3.004   6.514   8.337  0.1681 -0.3455 -0.1393
  613MOL0     C80830   3.121   6.582   8.376 -0.1794 -0.2982 -0.5100
  613MOL0     O80831   3.470   6.403   8.456  0.0309 -0.3989 -0.5617
  613MOL0     C80832   3.552   6.748   8.560  0.1997 -0.0118  0.2159
  613MOL0     C80833   3.670   6.828   8.578  0.3722 -0.3210  0.9226
  613MOL0     N80834   3.801   7.172   8.989 -0.0953  0.1262  0.6551
  613MOL0     N80835   3.738   7.077   9.046 -0.3580 -0.1414  0.2933
  613MOL0     C80836   2.715   6.414   8.903  1.1558 -0.1937  0.6930
  613MOL0     C80837   2.583   6.379   8.854 -0.4286  0.0566 -0.5268
  613MOL0     C80838   2.299   6.224   8.495 -0.2143  0.4613  0.3148
  613MOL0     C80839   2.238   6.123   8.421 -0.3497 -0.4177  0.3384
  613MOL0     C80840   2.131   6.147   8.328  0.2289 -0.6171 -0.1034
  613MOL0     C80841   2.102   6.277   8.301  0.8624  0.2569  0.4749
  613MOL0     O80842   2.000   6.287   8.200 -0.4908 -0.4466  1.1458
  613MOL0     C80843   1.952   6.419   8.176  0.0878 -0.1441 -0.1487
  613MOL0     C80844   1.832   6.459   8.261  0.2082 -0.3506  0.3542
  613MOL0     C80845   1.711   6.380   8.225 -0.7170  0.4579  0.0464
  613MOL0     C80846   1.573   6.454   8.239 -0.3275 -0.9763 -0.1194
  613MOL0     C80847   1.456   6.372   8.232 -0.6441  0.2235  0.0087
  613MOL0     C80848   1.364   6.300   8.238  0.2189  0.5188 -0.2794
  613MOL0     C80849   2.166   6.383   8.372  0.0565 -0.2697 -0.8893
  613MOL0     C80850   2.269   6.356   8.467  0.0382 -0.3158  0.3141
  613MOL0     H80851   2.691   6.181   8.597  0.5123 -0.7777  1.2861
  613MOL0     H80852   2.897   6.237   8.687 -1.8951 -3.3112 -0.8104
  613MOL0     H80853   3.065   6.500   8.759 -0.2113 -0.0509  0.4309
  613MOL0     H80854   3.081   6.326   8.749  1.6157  0.1258 -0.9397
  613MOL0     H80855   3.220   6.303   8.906 -3.4221 -1.3005 -0.3254
  613MOL0     H80856   3.169   6.443   8.998  0.3110  1.1361 -0.7187
  613MOL0     H80857   3.267   6.597   8.805 -1.8452  1.1440  3.0807
  613MOL0     H80858   3.357   6.447   8.770 -0.3243  1.1828  0.6327
  613MOL0     H80859   3.341   6.618   9.035  4.2453  1.4912  2.4733
  613MOL0     H80860   3.423   6.464   9.025 -2.8863  0.1717  1.0716
  613MOL0     H80861   3.475   6.711   8.849  1.2876 -0.1982 -2.7158
  613MOL0     H80862   3.568   6.561   8.840 -1.5239 -1.4199  0.9462
  613MOL0     H80863   3.636   6.582   9.067 -1.2726  0.5888  2.5585
  613MOL0     H80864   3.527   6.723   9.092 -1.2964 -0.0166 -1.3793
  613MOL0     H80865   3.776   6.712   8.916 -3.9479 -4.1701 -0.8582
  613MOL0     H80866   3.650   6.843   8.910 -1.3371 -0.5363 -0.8233
  613MOL0     H80867   3.830   6.767   9.136  0.2031  0.9540  0.9748
  613MOL0     H80868   3.668   6.847   9.155 -1.5162  4.5173 -2.0857
  613MOL0     H80869   4.016   6.933   8.976 -1.1586 -1.0338  1.0270
  613MOL0     H80870   4.130   7.154   8.937  2.4588  3.6052  0.9775
  613MOL0     H80871   4.037   7.302   8.940 -1.2810 -0.0034 -2.4719
  613MOL0     H80872   4.112   7.241   8.720  0.2386  0.5924  4.1682
  613MOL0     H80873   3.932   7.230   8.726 -1.0478  1.4295  5.5199
  613MOL0     H80874   4.111   7.043   8.615 -1.6500 -0.5053 -0.1596
  613MOL0     H80875   4.084   6.958   8.764  2.1880  2.5543  0.6422
  613MOL0     H80876   3.886   7.026   8.553 -0.3415 -0.9128 -0.1080
  613MOL0     H80877   3.827   7.019   8.716 -1.1435  0.1941 -1.3824
  613MOL0     H80878   3.899   6.583   8.601  0.5503  0.4826  0.1750
  613MOL0     H80879   3.680   6.450   8.544 -1.8315 -0.6270 -0.3450
  613MOL0     H80880   3.256   6.334   8.562  2.8946  1.1631 -1.8217
  613MOL0     H80881   3.061   6.209   8.493  0.9181 -0.5965  1.2765
  613MOL0     H80882   2.737   6.492   8.387  1.5648  0.2067  0.6016
  613MOL0     H80883   2.662   6.349   8.399  2.6552 -1.8619  2.6847
  613MOL0     H80884   2.724   6.459   8.122 -3.9311  0.1618 -2.1056
  613MOL0     H80885   2.577   6.426   8.224 -0.4850 -0.0233 -0.4106
  613MOL0     H80886   2.698   6.185   8.225  2.2829 -0.1409 -0.2758
  613MOL0     H80887   2.749   6.238   8.069  0.5887 -2.8606  1.6469
  613MOL0     H80888   2.460   6.229   8.206  0.2920  0.2697  1.3501
  613MOL0     H80889   2.483   6.301   8.059 -1.8264 -0.6892  0.6075
  613MOL0     H80890   2.508   6.111   7.938 -3.3714  0.1157 -1.0581
  613MOL0     H80891   2.401   6.048   8.068  0.7298 -2.4748 -0.1799
  613MOL0     H80892   2.595   5.960   8.201  3.6006  2.6683  0.0526
  613MOL0     H80893   2.700   6.004   8.071 -0.2946  1.4874  1.1941
  613MOL0     H80894   2.467   5.817   8.041 -0.6569  4.0141 -2.3496
  613MOL0     H80895   2.600   5.840   7.921  1.3051 -2.4436  0.4034
  613MOL0     H80896   2.639   5.734   8.203  2.7217 -0.2065  0.6536
  613MOL0     H80897   2.759   5.750   8.077 -0.5461 -2.1935 -0.8109
  613MOL0     H80898   2.928   6.568   8.282 -1.1270 -1.6188  0.3602
  613MOL0     H80899   3.144   6.682   8.339  0.8671  1.2511  3.7473
  613MOL0     H80900   3.450   6.786   8.565 -0.8637 -2.7653  0.8423
  613MOL0     H80901   3.650   6.933   8.597  2.2748 -0.0810  1.8717
  613MOL0     H80902   2.733   6.490   8.978  1.8984  0.4510 -0.1187
  613MOL0     H80903   2.490   6.420   8.890 -0.3156  0.1137 -0.2973
  613MOL0     H80904   2.267   6.019   8.425  1.5329 -0.1065 -2.3230
  613MOL0     H80905   2.079   6.081   8.259 -0.9950 -0.1844  0.3739
  613MOL0     H80906   1.912   6.425   8.075 -1.7231 -1.7694  0.4278
  613MOL0     H80907   2.028   6.498   8.182  2.0791 -1.7625 -2.0790
  613MOL0     H80908   1.856   6.453   8.368  2.7348 -1.0331 -0.1988
  613MOL0     H80909   1.801   6.561   8.236 -3.0262 -1.7674 -2.2252
  613MOL0     H80910   1.720   6.291   8.288 -0.4021 -2.9108 -4.2822
  613MOL0     H80911   1.723   6.338   8.125 -4.0579 -0.4070 -0.0934
  613MOL0     H80912   1.576   6.487   8.343 -1.1120 -0.4840 -0.2398
  613MOL0     H80913   1.556   6.536   8.168  1.2328 -0.9982 -0.5497
  613MOL0     H80914   1.286   6.227   8.229  1.5321 -1.0227  0.3302
  613MOL0     H80915   2.142   6.485   8.341  0.2760  1.5599  4.1228
  613MOL0     H80916   2.326   6.441   8.503  0.6822  0.1531 -1.6876
  614MOL0     O80917   8.680  10.163   5.485  0.1110 -0.7202  0.2945
  614MOL0     C80918   8.694  10.056   5.431  0.1053  0.4634  0.0058
  614MOL0     O80919   8.742   9.937   5.506 -0.5908  0.0564  0.3217
  614MOL0     C80920   8.720   9.925   5.642  0.2618  0.1530 -0.2737
  614MOL0     C80921   8.619   9.990   5.718 -0.4871  0.4133 -0.3184
  614MOL0     C80922   8.600   9.964   5.851  0.1044 -0.3949 -0.9287
  614MOL0     C80923   8.682   9.874   5.920 -0.0912 -0.6878 -0.1905
  614MOL0     O80924   8.680   9.847   6.058  0.7752  0.8469 -0.5159
  614MOL0     C80925   8.556   9.828   6.121  0.3570 -0.1348  0.1171
  614MOL0     C80926   8.571   9.805   6.280 -0.7865  0.0088  0.1075
  614MOL0     C80927   8.434   9.767   6.351  0.3306  0.4312  0.2245
  614MOL0     C80928   8.454   9.720   6.493 -0.1876 -0.1515 -0.4851
  614MOL0     C80929   8.497   9.836   6.585  0.6717  0.6169 -0.9408
  614MOL0     C80930   8.492   9.795   6.733 -0.1872 -0.5023 -0.6985
  614MOL0     C80931   8.465   9.918   6.828  0.8552 -0.6002  0.8409
  614MOL0     C80932   8.583  10.022   6.828  0.2236  0.2465 -0.1593
  614MOL0     N80933   8.691   9.970   6.909 -0.2689 -0.9189 -0.1527
  614MOL0     C80934   8.773   9.873   6.864 -0.9649 -0.3816  0.5744
  614MOL0     C80935   8.857   9.840   6.969 -0.4965  0.1286 -0.6901
  614MOL0     C80936   8.979   9.751   6.968  0.5436  0.1423  0.5662
  614MOL0     C80937   9.118   9.818   7.000  0.0124 -0.7504  0.1776
  614MOL0     C80938   9.162   9.934   6.908 -0.1103  0.4999 -0.3619
  614MOL0     C80939   9.290  10.006   6.942 -0.4995 -0.2868 -1.0621
  614MOL0     O80940   9.328  10.096   6.837  0.2357  1.2355  1.1827
  614MOL0     C80941   9.437  10.177   6.841 -0.5858  0.5607 -0.7699
  614MOL0     C80942   9.518  10.194   6.954 -0.2283 -0.4217  0.1595
  614MOL0     C80943   9.622  10.291   6.952 -0.3092 -0.2535 -0.2704
  614MOL0     C80944   9.647  10.364   6.837  0.1657 -0.7822  0.2442
  614MOL0     C80945   9.770  10.455   6.835  0.2435  0.1558  0.5809
  614MOL0     O80946   9.792  10.517   6.716 -0.2890  0.7040  0.2851
  614MOL0     C80947   9.901  10.600   6.697 -0.4670  0.3793 -0.8852
  614MOL0     C80948   9.873  10.703   6.612 -0.8154  0.7443  0.7163
  614MOL0     C80949   9.988  10.773   6.562  0.0153 -1.1636  0.6520
  614MOL0     C80950  10.116  10.747   6.607  0.6369 -1.0243  0.1806
  614MOL0     O80951  10.215  10.828   6.544  0.1619 -0.6069 -0.3511
  614MOL0     C80952  10.350  10.826   6.577  0.0910 -0.3194  0.3026
  614MOL0     C80953  10.419  10.905   6.475  0.6009  0.7929 -0.5478
  614MOL0     C80954  10.560  10.870   6.465 -0.4348 -0.7120  1.1705
  614MOL0     C80955  10.636  10.975   6.369  0.5288  0.3023  0.3848
  614MOL0     C80956  10.766  10.908   6.322  0.9600 -0.1150  1.1841
  614MOL0     C80957  10.842  11.002   6.233  0.1491 -0.2685 -0.0072
  614MOL0     C80958  10.971  10.937   6.193  0.0479  0.5497 -0.3430
  614MOL0     C80959  11.062  11.070   6.163  1.2009 -0.1032  1.1154
  614MOL0    Cl80960  11.184  11.120   6.301 -0.1363  0.1331  0.2740
  614MOL0     C80961  10.144  10.648   6.703 -0.2250 -0.5223  0.2097
  614MOL0     C80962  10.034  10.565   6.740 -0.2650  0.1719 -0.3545
  614MOL0     O80963   9.843  10.468   6.940 -0.3253  0.3151  0.2602
  614MOL0     C80964   9.562  10.348   6.726 -0.0019  0.3596  0.6262
  614MOL0     C80965   9.463  10.256   6.731 -0.0684  0.8179 -0.0479
  614MOL0     N80966   8.812   9.920   7.077 -0.0722  0.0479  0.4249
  614MOL0     N80967   8.711   9.996   7.040  0.1753 -0.4450  0.0165
  614MOL0     C80968   8.776   9.806   5.845 -0.5919 -0.7811  0.6625
  614MOL0     C80969   8.801   9.826   5.706  0.3965  0.6689  0.3670
  614MOL0     C80970   8.703  10.057   5.286 -0.6128  0.1286  0.2420
  614MOL0     C80971   8.716  10.184   5.223  0.2804  1.1352 -0.4529
  614MOL0     C80972   8.730  10.191   5.082  0.6302  1.1907  0.5877
  614MOL0     C80973   8.738  10.072   5.010 -0.6897  0.4016 -0.8199
  614MOL0     O80974   8.769  10.073   4.877  0.1821  0.2769 -0.2617
  614MOL0     C80975   8.670  10.143   4.803  0.5213 -0.8132 -0.3534
  614MOL0     C80976   8.596  10.063   4.698  0.0835  0.4211 -0.2127
  614MOL0     C80977   8.669   9.961   4.605 -0.2443 -0.3604 -1.0357
  614MOL0     C80978   8.780  10.017   4.515  1.2120  0.4685  0.4944
  614MOL0     C80979   8.714  10.097   4.410 -0.3412  0.8307  0.0974
  614MOL0     C80980   8.673  10.181   4.335  0.1977  0.1132 -0.0872
  614MOL0     C80981   8.718   9.947   5.075  0.7214  0.6626  1.0175
  614MOL0     C80982   8.711   9.940   5.206  0.2798 -0.2928 -0.0194
  614MOL0     H80983   8.555  10.063   5.669  2.1757  2.4597 -1.0145
  614MOL0     H80984   8.521  10.019   5.903 -0.5798 -3.2607  1.3213
  614MOL0     H80985   8.513   9.742   6.068  2.8865 -3.0307  2.3723
  614MOL0     H80986   8.488   9.913   6.109  0.2301 -0.4204 -1.3489
  614MOL0     H80987   8.601   9.905   6.313 -2.6812  1.6247 -2.5899
  614MOL0     H80988   8.651   9.731   6.288 -2.0601 -1.2435  2.5865
  614MOL0     H80989   8.402   9.674   6.303 -2.2486  1.3148  0.1148
  614MOL0     H80990   8.367   9.848   6.324 -0.8818 -0.9007 -0.9204
  614MOL0     H80991   8.356   9.685   6.529  0.7790 -1.4909  0.9823
  614MOL0     H80992   8.526   9.639   6.508  0.8345  0.9190  0.6151
  614MOL0     H80993   8.416   9.908   6.571 -2.5787 -2.3592  0.8532
  614MOL0     H80994   8.593   9.883   6.563  0.1867  1.8036 -0.6253
  614MOL0     H80995   8.582   9.742   6.767  2.0563  2.5842 -1.4268
  614MOL0     H80996   8.407   9.726   6.738 -1.7502  1.2704 -1.4670
  614MOL0     H80997   8.372   9.962   6.791  1.0006 -0.2130  0.9361
  614MOL0     H80998   8.441   9.881   6.928 -1.0292 -3.8143 -0.6519
  614MOL0     H80999   8.538  10.104   6.884 -1.4429 -0.2402 -0.7215
  614MOL0     H81000   8.615  10.053   6.727 -0.3856 -1.6904 -0.9918
  614MOL0     H81001   8.785   9.851   6.759 -0.0714 -1.8202  0.9540
  614MOL0     H81002   8.994   9.706   6.869  1.1644  1.1346  0.1966
  614MOL0     H81003   8.947   9.664   7.026  1.5469  1.4453  3.2936
  614MOL0     H81004   9.193   9.739   7.013 -2.2124 -3.1101 -0.5472
  614MOL0     H81005   9.127   9.867   7.098  2.6593 -2.1921  0.7403
  614MOL0     H81006   9.177   9.893   6.808  2.6295 -1.7772  0.8405
  614MOL0     H81007   9.082  10.007   6.921 -0.7346  0.0714 -1.6216
  614MOL0     H81008   9.369   9.938   6.973  0.0890  0.9616  0.2774
  614MOL0     H81009   9.260  10.063   7.030  3.1523 -0.6445  0.5666
  614MOL0     H81010   9.503  10.145   7.050 -0.5320  0.7203  0.7204
  614MOL0     H81011   9.674  10.342   7.033 -4.0413  3.4709  0.1331
  614MOL0     H81012   9.775  10.718   6.568 -1.3083 -0.2594  1.4254
  614MOL0     H81013   9.971  10.844   6.481 -0.6273 -0.0805  1.7069
  614MOL0     H81014  10.392  10.726   6.592  0.4215 -0.1346  0.6544
  614MOL0     H81015  10.340  10.875   6.674 -1.5429 -0.8998  0.4654
  614MOL0     H81016  10.421  11.012   6.497  1.4870  0.3616  1.7511
  614MOL0     H81017  10.369  10.889   6.379  1.1940 -1.1087 -0.5832
  614MOL0     H81018  10.558  10.779   6.404 -2.3961  1.4156 -2.2378
  614MOL0     H81019  10.606  10.869   6.565 -3.1169  1.9225  2.5628
  614MOL0     H81020  10.574  11.017   6.290 -1.7445  0.0189  1.9111
  614MOL0     H81021  10.666  11.052   6.440 -3.3571 -1.2573  4.1561
  614MOL0     H81022  10.745  10.818   6.265 -1.8226  0.9090  0.4456
  614MOL0     H81023  10.828  10.880   6.408  0.3743 -1.1335  1.2793
  614MOL0     H81024  10.841  11.103   6.273 -4.5039 -0.2170  0.3633
  614MOL0     H81025  10.768  11.016   6.153 -0.2575 -0.7598  0.2781
  614MOL0     H81026  11.007  10.880   6.280 -0.6030  0.0078 -0.4202
  614MOL0     H81027  10.974  10.865   6.111  0.4696  0.3344 -0.1453
  614MOL0     H81028  11.005  11.154   6.121  2.0119 -0.2536 -0.3697
  614MOL0     H81029  11.128  11.044   6.080 -0.5043 -3.9860  0.7791
  614MOL0     H81030  10.247  10.634   6.734 -0.5810 -1.4947  1.0330
  614MOL0     H81031  10.053  10.476   6.799 -1.0968  0.4772  0.3972
  614MOL0     H81032   9.587  10.397   6.632  0.1813 -0.5131  0.2092
  614MOL0     H81033   9.396  10.245   6.647 -1.4551 -0.8716  1.1854
  614MOL0     H81034   8.834   9.734   5.902  3.7687 -0.5550 -2.8932
  614MOL0     H81035   8.872   9.771   5.645 -1.2596  0.3502 -1.3733
  614MOL0     H81036   8.712  10.280   5.274 -0.3904  1.2690 -0.7405
  614MOL0     H81037   8.737  10.278   5.017  1.2379 -0.8094 -2.1920
  614MOL0     H81038   8.711  10.227   4.746 -0.8543  1.1173  1.3594
  614MOL0     H81039   8.605  10.200   4.869 -1.0465  0.2667 -2.7096
  614MOL0     H81040   8.519  10.021   4.764  1.2827  1.3984  1.9327
  614MOL0     H81041   8.552  10.137   4.630  0.5521 -0.6652 -1.7564
  614MOL0     H81042   8.598   9.908   4.540 -3.0102  1.3372  0.3795
  614MOL0     H81043   8.727   9.895   4.669  0.8660  3.6920  2.6414
  614MOL0     H81044   8.841  10.092   4.566  1.9594  0.7547 -0.7891
  614MOL0     H81045   8.836   9.932   4.474  0.1832  1.0098 -2.2541
  614MOL0     H81046   8.649  10.264   4.272 -0.4182  0.2174  0.2782
  614MOL0     H81047   8.718   9.859   5.012 -1.2800  1.2403  0.1314
  614MOL0     H81048   8.714   9.840   5.249  0.5974  0.4833  1.8351
  615MOL0     O81049   3.404   1.280   1.186  0.5758  0.2451  0.2119
  615MOL0     C81050   3.521   1.310   1.216  1.3301  0.1041  0.8668
  615MOL0     O81051   3.555   1.436   1.270 -0.1275  0.3360  0.9734
  615MOL0     C81052   3.471   1.545   1.252 -0.0358 -0.3784  0.7182
  615MOL0     C81053   3.452   1.633   1.358 -0.9031  1.0110 -0.2276
  615MOL0     C81054   3.366   1.733   1.354  1.3760  0.1130 -0.1691
  615MOL0     C81055   3.300   1.769   1.239  0.5577 -1.0535  0.7268
  615MOL0     O81056   3.220   1.884   1.233 -0.6526  0.3387 -0.0539
  615MOL0     C81057   3.160   1.936   1.117 -0.0281 -0.4346  0.2608
  615MOL0     C81058   3.257   2.035   1.039  0.1703 -0.5679 -0.2362
  615MOL0     C81059   3.202   2.051   0.900 -0.9851 -0.4329  0.4901
  615MOL0     C81060   3.310   2.117   0.807 -0.2883  0.0680 -1.1234
  615MOL0     C81061   3.275   2.123   0.657 -0.0581 -0.3406 -0.0945
  615MOL0     C81062   3.179   2.238   0.608 -0.7064  0.2457 -1.0643
  615MOL0     C81063   3.029   2.225   0.609  0.4449 -0.1826  0.3971
  615MOL0     C81064   2.961   2.351   0.546  0.0239  1.1020  0.2392
  615MOL0     N81065   2.976   2.480   0.624  0.1072  1.0871  0.0585
  615MOL0     C81066   2.952   2.486   0.762  0.1509  0.7275 -0.3192
  615MOL0     C81067   3.035   2.580   0.807  0.0451 -0.7332 -0.6084
  615MOL0     C81068   3.051   2.623   0.948 -0.2785  0.0296 -1.2300
  615MOL0     C81069   2.918   2.662   1.015 -0.1528 -0.5029  0.6518
  615MOL0     C81070   2.944   2.710   1.156  0.5647  0.5707  0.1792
  615MOL0     C81071   2.983   2.596   1.249  0.2836 -0.0286  0.6542
  615MOL0     O81072   3.013   2.668   1.372 -0.6680 -0.1615  0.3475
  615MOL0     C81073   3.060   2.616   1.492  0.3628 -0.0637  0.3364
  615MOL0     C81074   3.058   2.695   1.611 -0.5887 -0.2201  0.1886
  615MOL0     C81075   3.118   2.660   1.727  0.9354 -1.0116  0.1264
  615MOL0     C81076   3.191   2.539   1.741  0.6330 -0.9531 -0.1411
  615MOL0     C81077   3.260   2.502   1.861 -0.0044  0.2017 -0.2065
  615MOL0     O81078   3.216   2.581   1.966 -0.3035  0.2113 -0.2148
  615MOL0     C81079   3.267   2.558   2.090  0.1930 -0.4853  0.3036
  615MOL0     C81080   3.187   2.496   2.184  0.2263 -0.1723 -0.2778
  615MOL0     C81081   3.225   2.487   2.322  0.2189  0.9860  0.3859
  615MOL0     C81082   3.351   2.526   2.352  0.0726 -0.3341 -0.2175
  615MOL0     O81083   3.379   2.500   2.483  0.3436 -0.1922 -0.2287
  615MOL0     C81084   3.517   2.504   2.528  0.4929  0.1260  0.0108
  615MOL0     C81085   3.525   2.505   2.678 -1.0373  0.1209 -0.0917
  615MOL0     C81086   3.486   2.642   2.741 -0.2987  0.8361  1.1896
  615MOL0     C81087   3.449   2.619   2.888  0.2000  0.7173  0.4938
  615MOL0     C81088   3.379   2.733   2.964 -0.4533 -0.2307  0.0928
  615MOL0     C81089   3.476   2.837   3.012  0.8944 -0.1080  0.0518
  615MOL0     C81090   3.403   2.976   3.041 -0.8817  0.1700  0.3742
  615MOL0     C81091   3.484   3.071   3.132 -0.3473  0.3957 -0.2662
  615MOL0    Cl81092   3.647   3.131   3.085 -0.3840  0.0260  0.1667
  615MOL0     C81093   3.438   2.578   2.253  0.6166 -0.0077 -0.9643
  615MOL0     C81094   3.390   2.603   2.121 -0.5359 -0.0104 -0.0687
  615MOL0     O81095   3.346   2.414   1.862  0.2084 -0.3299  0.2095
  615MOL0     C81096   3.210   2.469   1.622  0.1095 -0.0258 -0.3321
  615MOL0     C81097   3.139   2.503   1.497 -0.2698  0.3977  0.6325
  615MOL0     N81098   3.106   2.629   0.701  0.9514 -0.0982 -0.5357
  615MOL0     N81099   3.074   2.567   0.591  0.0095  0.4686  0.3838
  615MOL0     C81100   3.301   1.681   1.126  1.2427  0.7319 -0.6073
  615MOL0     C81101   3.391   1.574   1.130 -0.5086  0.2226 -0.0006
  615MOL0     C81102   3.624   1.206   1.237 -0.3247 -0.1177  0.1737
  615MOL0     C81103   3.752   1.233   1.293  0.3122 -0.4727  0.5027
  615MOL0     C81104   3.850   1.131   1.295 -0.0157 -0.3203  0.5290
  615MOL0     C81105   3.825   1.000   1.244 -0.2987  1.0424  0.0008
  615MOL0     O81106   3.914   0.894   1.247 -0.3819 -0.1243  0.2398
  615MOL0     C81107   4.033   0.906   1.315  0.1854 -0.5326  0.1535
  615MOL0     C81108   4.102   0.765   1.322  0.3152 -0.2545 -0.1220
  615MOL0     C81109   4.193   0.736   1.196  0.0923 -0.0272 -0.5286
  615MOL0     C81110   4.215   0.580   1.184  0.0683 -0.2804  0.2830
  615MOL0     C81111   4.309   0.553   1.078 -0.7928  0.6542  0.1759
  615MOL0     C81112   4.382   0.539   0.977 -0.4338  0.7557 -0.1959
  615MOL0     C81113   3.697   0.978   1.205 -0.6432  0.3397 -1.2213
  615MOL0     C81114   3.600   1.075   1.192  1.1006 -0.6045  0.2001
  615MOL0     H81115   3.517   1.614   1.443 -0.3591  3.0084 -0.1304
  615MOL0     H81116   3.342   1.780   1.448 -1.5509 -2.9287  0.8185
  615MOL0     H81117   3.076   1.999   1.149 -0.5390 -0.2668 -1.2926
  615MOL0     H81118   3.120   1.859   1.050 -3.0405 -0.1703  1.5709
  615MOL0     H81119   3.358   1.994   1.038 -0.6226 -2.6124 -1.7473
  615MOL0     H81120   3.268   2.130   1.092  1.1765  0.0534 -1.5211
  615MOL0     H81121   3.109   2.105   0.918 -2.3467 -2.9035  1.3368
  615MOL0     H81122   3.180   1.962   0.840  1.3037 -0.4474 -0.4269
  615MOL0     H81123   3.333   2.215   0.849 -2.0328 -0.8719  2.5309
  615MOL0     H81124   3.400   2.055   0.822 -3.3025 -4.1947  1.8127
  615MOL0     H81125   3.238   2.027   0.622 -1.6652  0.0495  0.4747
  615MOL0     H81126   3.371   2.141   0.607  0.3679  0.4861  0.9825
  615MOL0     H81127   3.208   2.275   0.510 -0.0800 -3.0624 -2.2634
  615MOL0     H81128   3.197   2.323   0.674  1.5134 -0.7122 -0.3148
  615MOL0     H81129   2.999   2.150   0.536 -0.6983  1.0314 -0.4355
  615MOL0     H81130   2.969   2.217   0.700 -1.7946  2.7549 -0.6517
  615MOL0     H81131   2.858   2.331   0.515  1.4342 -3.0562 -2.7763
  615MOL0     H81132   3.027   2.367   0.459  0.9137 -0.2848  0.6331
  615MOL0     H81133   2.883   2.425   0.820 -0.3447  1.5047 -0.0885
  615MOL0     H81134   3.116   2.710   0.940  0.3009 -0.5578 -3.3026
  615MOL0     H81135   3.107   2.546   1.004 -0.5989  0.2601 -0.5775
  615MOL0     H81136   2.850   2.576   1.015 -1.6062  0.5790  2.3355
  615MOL0     H81137   2.866   2.743   0.963 -1.5327 -1.3031  0.7143
  615MOL0     H81138   3.022   2.786   1.155  1.5851 -0.4344  0.5254
  615MOL0     H81139   2.848   2.754   1.186  0.9346  0.4066  1.6898
  615MOL0     H81140   3.059   2.527   1.213  0.0385  0.0272  0.0271
  615MOL0     H81141   2.896   2.531   1.264 -0.3504  1.3363  3.8193
  615MOL0     H81142   2.995   2.783   1.615 -2.1727 -1.2828 -0.3760
  615MOL0     H81143   3.101   2.728   1.810 -0.2446 -0.4315 -0.5597
  615MOL0     H81144   3.089   2.454   2.165 -0.3266  0.4657  1.0336
  615MOL0     H81145   3.154   2.437   2.387 -2.2532  2.2066 -1.2150
  615MOL0     H81146   3.568   2.590   2.484  2.2240 -1.8103 -2.0424
  615MOL0     H81147   3.566   2.411   2.496  0.9223  0.3024  0.1440
  615MOL0     H81148   3.633   2.494   2.696 -0.5081  4.8275  0.7936
  615MOL0     H81149   3.472   2.421   2.725 -0.1244 -0.0150  0.7524
  615MOL0     H81150   3.397   2.674   2.685 -0.9559 -2.8440 -0.1987
  615MOL0     H81151   3.573   2.707   2.727  0.2524  0.1452  1.3595
  615MOL0     H81152   3.378   2.536   2.900  0.4120  0.6427  1.3645
  615MOL0     H81153   3.540   2.582   2.938 -0.3343  0.1546  1.0733
  615MOL0     H81154   3.319   2.693   3.047 -2.8683  0.4517 -1.2100
  615MOL0     H81155   3.311   2.796   2.905 -0.5724  1.0324  1.4962
  615MOL0     H81156   3.548   2.873   2.937 -1.0047  1.9203 -0.9505
  615MOL0     H81157   3.527   2.805   3.102 -0.7471 -1.5414  0.5289
  615MOL0     H81158   3.381   3.016   2.941 -1.1131 -0.0302  0.3452
  615MOL0     H81159   3.311   2.953   3.095 -1.8902 -4.4179 -2.6688
  615MOL0     H81160   3.492   3.015   3.226  1.3502  0.5419 -0.2777
  615MOL0     H81161   3.418   3.156   3.153  0.1974  1.3435 -2.1311
  615MOL0     H81162   3.534   2.620   2.279 -0.0414  0.0802  1.5636
  615MOL0     H81163   3.452   2.652   2.048  2.5609  1.5762  3.2911
  615MOL0     H81164   3.282   2.388   1.625 -1.1005 -1.1355 -0.2162
  615MOL0     H81165   3.158   2.434   1.416 -1.8217 -0.5595  1.0453
  615MOL0     H81166   3.249   1.706   1.034  4.8846  2.7047 -2.3331
  615MOL0     H81167   3.395   1.508   1.044  1.5485  4.0092 -3.1532
  615MOL0     H81168   3.780   1.332   1.329 -0.9544 -0.5410  1.7739
  615MOL0     H81169   3.950   1.141   1.335  1.5957 -2.1583 -2.6585
  615MOL0     H81170   4.011   0.939   1.418  0.1916 -0.6855  0.2043
  615MOL0     H81171   4.107   0.981   1.287  1.7479 -1.0615  2.4930
  615MOL0     H81172   4.164   0.755   1.411 -0.0202 -0.5856  0.0715
  615MOL0     H81173   4.022   0.691   1.328  0.1196 -0.2217 -1.8255
  615MOL0     H81174   4.281   0.797   1.217 -1.6017  3.0176 -1.5756
  615MOL0     H81175   4.147   0.770   1.103  0.6181  0.3869 -0.6439
  615MOL0     H81176   4.245   0.546   1.284  3.3955 -0.4265 -0.6541
  615MOL0     H81177   4.121   0.535   1.149 -0.3806  0.4946  0.4656
  615MOL0     H81178   4.431   0.529   0.883 -0.7036  4.3957 -0.8570
  615MOL0     H81179   3.673   0.877   1.172  0.5559 -0.4443  0.1390
  615MOL0     H81180   3.499   1.049   1.160  1.6849 -1.9304 -0.6600
  616MOL0     O81181   8.304   9.634  10.446 -0.1427 -0.3292  0.1578
  616MOL0     C81182   8.277   9.604  10.563 -1.0237 -0.4458  0.3242
  616MOL0     O81183   8.362   9.614  10.668  1.2536 -0.8465 -0.9201
  616MOL0     C81184   8.496   9.628  10.646 -0.8260  0.6977  1.0073
  616MOL0     C81185   8.565   9.682  10.753 -0.6665  0.5789 -0.7050
  616MOL0     C81186   8.701   9.697  10.756 -0.3301  0.2481  0.3913
  616MOL0     C81187   8.787   9.651  10.650 -0.0126 -0.2163  0.0810
  616MOL0     O81188   8.922   9.650  10.639  0.0543 -0.2230  0.0193
  616MOL0     C81189   8.991   9.706  10.758  0.5627  0.4741  0.3193
  616MOL0     C81190   9.138   9.701  10.715  0.1554 -0.8477  0.6136
  616MOL0     C81191   9.204   9.786  10.819  0.2957 -0.1126  0.5177
  616MOL0     C81192   9.358   9.791  10.793  0.1107  0.3555 -0.9846
  616MOL0     C81193   9.422   9.919  10.849  0.0841 -0.1434  0.2698
  616MOL0     C81194   9.573   9.927  10.810 -0.2790  0.5981  0.0913
  616MOL0     C81195   9.641  10.054  10.854  0.3071 -1.0379 -0.3849
  616MOL0     C81196   9.793  10.042  10.865 -0.0487 -0.1065  0.2595
  616MOL0     N81197   9.855  10.167  10.916 -0.2910  0.1673  0.3458
  616MOL0     C81198   9.946  10.239  10.849 -0.9483  0.7243  0.0427
  616MOL0     C81199   9.981  10.339  10.924  0.2275 -0.4035 -0.6230
  616MOL0     C81200  10.073  10.450  10.887  0.1067 -0.6533  0.5601
  616MOL0     C81201  10.092  10.487  10.731  0.3247 -0.0299  0.8980
  616MOL0     C81202  10.207  10.413  10.667  0.1442 -0.1640 -1.2712
  616MOL0     C81203  10.241  10.463  10.529 -0.0150  0.1553  0.6586
  616MOL0     O81204  10.339  10.377  10.466 -0.0574 -0.8328  0.0015
  616MOL0     C81205  10.299  10.284  10.378  0.5057  1.2361  0.0388
  616MOL0     C81206  10.163  10.231  10.365  0.6507 -0.9132 -1.1614
  616MOL0     C81207  10.141  10.119  10.288 -0.0450 -0.0538  0.1894
  616MOL0     C81208  10.243  10.057  10.216  0.3637  0.7159 -0.8527
  616MOL0     C81209  10.216   9.927  10.140 -0.3075  0.1827  0.3542
  616MOL0     O81210  10.319   9.860  10.094  0.4460  0.8252 -0.7140
  616MOL0     C81211  10.305   9.736  10.033  0.0049 -0.6383 -0.0693
  616MOL0     C81212  10.288   9.713   9.891 -0.5020 -0.8222 -0.5183
  616MOL0     C81213  10.255   9.578   9.851  0.5284 -0.8452  0.4436
  616MOL0     C81214  10.248   9.474   9.945  0.4659 -0.2016 -0.5293
  616MOL0     O81215  10.221   9.349   9.897  0.1447 -0.2101  0.3686
  616MOL0     C81216  10.313   9.241   9.924 -0.0195 -0.3086 -0.4967
  616MOL0     C81217  10.457   9.267   9.869  0.8111 -0.9993  0.2666
  616MOL0     C81218  10.472   9.252   9.717  0.0295 -0.9152  0.5450
  616MOL0     C81219  10.614   9.234   9.659  0.4244 -0.2705  1.2177
  616MOL0     C81220  10.605   9.196   9.511  0.0501 -0.6318  0.5555
  616MOL0     C81221  10.534   9.302   9.424 -0.0759 -0.4170 -0.4278
  616MOL0     C81222  10.542   9.258   9.272 -0.7408 -0.4866 -0.3629
  616MOL0     C81223  10.547   9.385   9.184 -0.1708  0.4615 -0.3194
  616MOL0    Cl81224  10.681   9.507   9.216  0.2246 -0.4011 -0.4898
  616MOL0     C81225  10.270   9.503  10.087 -0.1663  0.3282 -0.1640
  616MOL0     C81226  10.306   9.630  10.127  0.4794 -1.1500  0.1534
  616MOL0     O81227  10.101   9.890  10.135  1.0390  0.6085  0.6053
  616MOL0     C81228  10.366  10.118  10.215  0.3448  0.4222 -0.7188
  616MOL0     C81229  10.401  10.216  10.314 -0.5206  0.5461 -0.3144
  616MOL0     N81230   9.899  10.329  11.034  0.1656 -0.0635  0.1017
  616MOL0     N81231   9.825  10.223  11.030  0.1879 -0.0228 -0.3815
  616MOL0     C81232   8.723   9.592  10.544  0.9060 -0.1568 -0.3612
  616MOL0     C81233   8.578   9.576  10.541 -0.7488  0.1163  0.0925
  616MOL0     C81234   8.135   9.564  10.592 -0.1454 -0.0465  0.0828
  616MOL0     C81235   8.045   9.570  10.487 -0.9755 -0.3214  0.1564
  616MOL0     C81236   7.920   9.515  10.506 -0.3220 -0.5197 -1.1607
  616MOL0     C81237   7.888   9.448  10.624  0.2586 -1.1074 -0.3940
  616MOL0     O81238   7.761   9.397  10.621 -0.6278 -0.1454 -0.8554
  616MOL0     C81239   7.712   9.343  10.754 -1.7597 -0.4323 -0.0850
  616MOL0     C81240   7.564   9.329  10.753  0.1949 -0.4157  0.1060
  616MOL0     C81241   7.504   9.469  10.784  0.2908  0.1572  0.0661
  616MOL0     C81242   7.353   9.472  10.790  0.7930  0.9181  0.2846
  616MOL0     C81243   7.303   9.609  10.802  0.1176  0.1529 -0.6580
  616MOL0     C81244   7.252   9.715  10.802  0.6111 -0.9473  0.0777
  616MOL0     C81245   7.982   9.442  10.722  0.6362  0.3914  0.0191
  616MOL0     C81246   8.105   9.505  10.712  0.3115  0.1707 -0.0063
  616MOL0     H81247   8.500   9.681  10.840 -0.1148  0.4665 -0.2940
  616MOL0     H81248   8.743   9.738  10.847 -0.4684  0.4475  0.3633
  616MOL0     H81249   8.984   9.643  10.847  0.0205 -4.8477 -3.0100
  616MOL0     H81250   8.951   9.804  10.785 -2.9774 -1.1223  1.4164
  616MOL0     H81251   9.147   9.725  10.609  0.1431  0.7576  0.9553
  616MOL0     H81252   9.178   9.600  10.729 -1.9277 -1.8929 -0.5945
  616MOL0     H81253   9.179   9.738  10.914 -4.1261 -0.3758 -0.5506
  616MOL0     H81254   9.158   9.881  10.846 -1.0457 -1.5322  3.7131
  616MOL0     H81255   9.408   9.709  10.845  2.5072  3.2110  1.5745
  616MOL0     H81256   9.377   9.791  10.685 -0.0500  1.4490 -1.0195
  616MOL0     H81257   9.404   9.910  10.957 -1.6648  0.1927  0.0514
  616MOL0     H81258   9.370  10.008  10.812 -0.3783  0.3171  1.9207
  616MOL0     H81259   9.585   9.921  10.702 -1.3885  0.0517 -0.0153
  616MOL0     H81260   9.625   9.843  10.858 -1.1270  0.2441  0.4113
  616MOL0     H81261   9.604  10.138  10.796 -1.9043 -1.5137  0.2688
  616MOL0     H81262   9.603  10.082  10.952 -1.4431  2.3022 -1.8542
  616MOL0     H81263   9.834  10.015  10.767 -1.5423 -3.1502  0.3575
  616MOL0     H81264   9.818   9.955  10.926  2.0172 -0.2352 -0.6579
  616MOL0     H81265   9.989  10.200  10.757 -0.8043  0.4715  0.2161
  616MOL0     H81266  10.168  10.421  10.933  2.2738  3.7005 -0.7000
  616MOL0     H81267  10.043  10.540  10.942  0.8567 -1.9450  3.2419
  616MOL0     H81268  10.114  10.594  10.728  0.4492 -0.0641  0.5749
  616MOL0     H81269   9.997  10.469  10.679 -1.3001  0.8547  3.3644
  616MOL0     H81270  10.298  10.446  10.717 -0.1451 -4.3394  2.7308
  616MOL0     H81271  10.180  10.309  10.689 -1.3548  0.4977  0.3099
  616MOL0     H81272  10.286  10.561  10.547  1.9486 -0.5148 -0.2814
  616MOL0     H81273  10.148  10.477  10.473 -0.1657 -1.2776  0.5062
  616MOL0     H81274  10.080  10.277  10.418  1.1301  2.2729 -2.9141
  616MOL0     H81275  10.035  10.095  10.292 -0.0282  0.0568  1.9357
  616MOL0     H81276  10.296   9.799   9.825  0.7801 -0.6231 -0.1219
  616MOL0     H81277  10.221   9.544   9.754 -0.2177 -4.9255  1.9323
  616MOL0     H81278  10.286   9.144   9.882  1.5526 -0.3545 -1.4800
  616MOL0     H81279  10.310   9.222  10.031 -0.1902 -3.3520 -0.9642
  616MOL0     H81280  10.507   9.184   9.919 -0.9316 -1.4279  1.4197
  616MOL0     H81281  10.490   9.370   9.886  1.1852 -0.5627 -2.6650
  616MOL0     H81282  10.419   9.334   9.667  0.2892 -0.6309  0.7275
  616MOL0     H81283  10.412   9.170   9.678  0.2851 -1.2227  0.7949
  616MOL0     H81284  10.681   9.317   9.683  0.4184  0.7833 -1.9536
  616MOL0     H81285  10.668   9.160   9.718 -0.8273  0.4699  3.3989
  616MOL0     H81286  10.560   9.097   9.504 -0.2935 -0.4623  0.3816
  616MOL0     H81287  10.708   9.185   9.475  1.6870 -0.9152  4.7109
  616MOL0     H81288  10.576   9.401   9.440  2.8461 -1.3506 -1.7385
  616MOL0     H81289  10.432   9.291   9.463 -0.0223 -0.2153 -0.2263
  616MOL0     H81290  10.635   9.203   9.252  1.1471  2.6337 -0.8504
  616MOL0     H81291  10.449   9.209   9.243 -2.0221  1.7999 -0.3661
  616MOL0     H81292  10.455   9.441   9.205 -0.2306 -0.7365  3.2398
  616MOL0     H81293  10.558   9.348   9.081 -1.0697 -2.7240  0.5891
  616MOL0     H81294  10.262   9.424  10.161 -0.7600  1.0488  0.5535
  616MOL0     H81295  10.319   9.649  10.233  0.0102  3.2242 -0.4215
  616MOL0     H81296  10.445  10.077  10.154 -0.1354 -3.3138  0.8665
  616MOL0     H81297  10.500  10.252  10.338 -1.9631  3.3735  1.9895
  616MOL0     H81298   8.777   9.548  10.462  1.3127  1.8889 -1.2294
  616MOL0     H81299   8.529   9.522  10.459 -0.9777 -0.1184  0.3819
  616MOL0     H81300   8.080   9.620  10.397 -0.3979  0.6675  0.9117
  616MOL0     H81301   7.850   9.512  10.423 -0.4978  0.1627 -1.0492
  616MOL0     H81302   7.749   9.411  10.831  1.4132 -2.0457  0.0046
  616MOL0     H81303   7.759   9.247  10.778  1.4189  1.4420  1.9296
  616MOL0     H81304   7.539   9.282  10.658  0.5820  0.1042 -0.2564
  616MOL0     H81305   7.532   9.265  10.837 -1.1340 -0.5012 -0.4356
  616MOL0     H81306   7.539   9.544  10.714 -0.2159  1.6170  1.3212
  616MOL0     H81307   7.540   9.492  10.885  3.7844 -4.8028  0.3382
  616MOL0     H81308   7.301   9.442  10.699 -2.1604 -1.4050  2.5292
  616MOL0     H81309   7.315   9.413  10.874  1.2408  2.3252  1.5275
  616MOL0     H81310   7.211   9.814  10.799 -0.6146 -1.3309  2.1234
  616MOL0     H81311   7.968   9.389  10.816  4.5985 -1.0851 -0.0280
  616MOL0     H81312   8.178   9.492  10.791  1.0076 -0.3213 -0.7104
  617MOL0     O81313   6.859   2.455   1.496 -0.7818  0.1365  0.2259
  617MOL0     C81314   6.946   2.368   1.495  0.0341 -0.0188 -0.1586
  617MOL0     O81315   7.004   2.322   1.388 -0.5176  0.3144  0.0152
  617MOL0     C81316   6.963   2.358   1.271  0.1193  0.7512  0.5830
  617MOL0     C81317   6.907   2.249   1.190  0.7439  0.1716 -0.1495
  617MOL0     C81318   6.865   2.280   1.059  0.1579  0.2189  0.0893
  617MOL0     C81319   6.879   2.412   1.002  0.2133 -0.5080 -0.4133
  617MOL0     O81320   6.833   2.435   0.871  0.1543  0.2115  0.4798
  617MOL0     C81321   6.899   2.541   0.795 -0.4078 -0.0991  0.7583
  617MOL0     C81322   7.054   2.499   0.776  0.2353  0.0094 -0.4645
  617MOL0     C81323   7.134   2.612   0.702  0.2702  0.1804  0.0721
  617MOL0     C81324   7.287   2.586   0.719  0.1107 -0.1554  0.1561
  617MOL0     C81325   7.374   2.685   0.644  0.6056 -0.8305 -0.2998
  617MOL0     C81326   7.511   2.653   0.695 -0.0205  0.3490  0.0535
  617MOL0     C81327   7.615   2.716   0.602  0.4953 -0.4137  0.9549
  617MOL0     C81328   7.651   2.865   0.625 -0.3562  0.5042  0.0365
  617MOL0     N81329   7.724   2.875   0.741 -0.1229 -0.6865 -0.2852
  617MOL0     C81330   7.831   2.796   0.791  0.5229 -0.8124 -0.0787
  617MOL0     C81331   7.849   2.852   0.916 -0.1540  0.2680  0.0918
  617MOL0     C81332   7.962   2.797   1.000 -0.2569 -0.0745  0.3760
  617MOL0     C81333   7.955   2.641   1.036  1.2099  0.4070  0.9592
  617MOL0     C81334   8.057   2.597   1.139 -0.3814 -0.8819 -0.4984
  617MOL0     C81335   8.201   2.590   1.089  0.5665  0.2119 -0.9645
  617MOL0     O81336   8.195   2.495   0.981 -0.1892  0.1443 -0.3453
  617MOL0     C81337   8.306   2.438   0.917  0.5494 -0.0705  0.0051
  617MOL0     C81338   8.287   2.336   0.835  0.4005  0.3310  0.1156
  617MOL0     C81339   8.387   2.273   0.768 -0.1546  0.1684  0.1963
  617MOL0     C81340   8.520   2.316   0.788  0.1412  0.1292  0.2856
  617MOL0     C81341   8.636   2.251   0.724  0.3155 -0.0286  0.6309
  617MOL0     O81342   8.753   2.327   0.723 -0.5538  0.3058 -0.0182
  617MOL0     C81343   8.869   2.273   0.683  0.1450  0.2445  0.0446
  617MOL0     C81344   8.885   2.200   0.560  0.2512  0.1763  0.0520
  617MOL0     C81345   9.007   2.142   0.533 -0.4307 -0.2106 -0.3033
  617MOL0     C81346   9.111   2.141   0.625  0.5176 -0.4719  0.6215
  617MOL0     O81347   9.218   2.063   0.598  0.2940  0.0700  0.3620
  617MOL0     C81348   9.346   2.102   0.651 -0.4095 -1.3093  0.2595
  617MOL0     C81349   9.399   2.235   0.588  0.6503  0.5486 -0.1306
  617MOL0     C81350   9.422   2.222   0.442 -0.8277  0.2385  0.2845
  617MOL0     C81351   9.299   2.215   0.348 -0.2563  0.6231  0.6923
  617MOL0     C81352   9.319   2.269   0.210  0.0794 -0.2462 -0.7430
  617MOL0     C81353   9.206   2.226   0.115 -0.4414 -0.1293  0.3051
  617MOL0     C81354   9.064   2.283   0.146 -0.3338 -0.0003  0.2708
  617MOL0     C81355   8.968   2.250   0.030 -0.6084  1.1341 -0.2662
  617MOL0    Cl81356   9.032   2.330  -0.115  0.0765 -0.1153  0.6190
  617MOL0     C81357   9.097   2.207   0.747 -0.1894  0.1957 -0.4697
  617MOL0     C81358   8.975   2.269   0.774  0.3484 -0.0414 -0.1304
  617MOL0     O81359   8.625   2.153   0.656  0.2785 -0.3436 -1.0955
  617MOL0     C81360   8.548   2.424   0.875 -0.2695 -0.4097  0.2152
  617MOL0     C81361   8.436   2.487   0.940  0.7110 -0.1789  1.2655
  617MOL0     N81362   7.769   2.969   0.930 -0.0995  0.2429 -0.4659
  617MOL0     N81363   7.695   2.986   0.828 -0.3649  0.5216  0.4274
  617MOL0     C81364   6.929   2.521   1.086  0.4463 -0.9275  0.6248
  617MOL0     C81365   6.981   2.486   1.212  0.5924 -0.0972  0.2148
  617MOL0     C81366   6.984   2.322   1.633  0.2520 -0.1661 -0.1706
  617MOL0     C81367   7.084   2.220   1.645 -1.1491  0.2473 -0.2091
  617MOL0     C81368   7.131   2.166   1.768  1.4071 -0.4337  0.3072
  617MOL0     C81369   7.076   2.211   1.889 -0.1625 -0.0307 -0.0537
  617MOL0     O81370   7.114   2.149   2.011 -0.5811  0.1660  0.1491
  617MOL0     C81371   7.067   2.222   2.134 -1.4412  0.3848  1.0971
  617MOL0     C81372   7.108   2.152   2.266 -0.6069  0.2780  0.5439
  617MOL0     C81373   7.250   2.129   2.277  0.1118  1.4592 -0.5488
  617MOL0     C81374   7.281   2.021   2.385  0.1638 -0.1392  0.1986
  617MOL0     C81375   7.422   2.017   2.403 -0.3378 -0.3870  0.0449
  617MOL0     C81376   7.540   1.996   2.400 -0.1828 -0.1068  0.5947
  617MOL0     C81377   6.981   2.315   1.881  0.8414 -0.8344 -0.3330
  617MOL0     C81378   6.935   2.365   1.755 -0.6680 -1.0424 -0.4216
  617MOL0     H81379   6.909   2.145   1.220 -1.4398 -0.5064 -2.0740
  617MOL0     H81380   6.811   2.214   0.992 -3.1444  1.9028  0.8742
  617MOL0     H81381   6.884   2.639   0.842 -1.3118 -0.0111  0.3054
  617MOL0     H81382   6.846   2.537   0.700  0.3984 -1.8405  0.3464
  617MOL0     H81383   7.054   2.408   0.716 -2.2780 -2.1585  2.4810
  617MOL0     H81384   7.100   2.488   0.875 -2.1432 -1.8339  0.5237
  617MOL0     H81385   7.106   2.710   0.742  0.1406  0.5612 -0.9107
  617MOL0     H81386   7.102   2.608   0.597 -0.1685 -1.4537  0.2484
  617MOL0     H81387   7.312   2.609   0.823  0.3423  0.5796 -0.0526
  617MOL0     H81388   7.316   2.485   0.690 -0.3634 -0.1367 -0.4050
  617MOL0     H81389   7.325   2.781   0.664  0.8509 -0.8750  0.5335
  617MOL0     H81390   7.369   2.662   0.537  3.9679 -2.0588 -0.3113
  617MOL0     H81391   7.539   2.548   0.689  0.3575  0.5122 -1.8078
  617MOL0     H81392   7.528   2.681   0.799  0.0237  2.3812 -0.4591
  617MOL0     H81393   7.699   2.647   0.586  1.2177  1.0077 -2.3670
  617MOL0     H81394   7.570   2.719   0.502 -1.8651 -1.8454  1.8909
  617MOL0     H81395   7.557   2.919   0.635 -0.5814  0.0743  0.2762
  617MOL0     H81396   7.721   2.897   0.547  1.0495  1.8446  1.7760
  617MOL0     H81397   7.874   2.701   0.760  0.5433 -0.8926  0.1930
  617MOL0     H81398   7.955   2.843   1.099  0.8183  1.3786 -0.1863
  617MOL0     H81399   8.056   2.818   0.949 -2.0178  0.7033 -2.8379
  617MOL0     H81400   7.972   2.581   0.946  0.4709  0.9205  0.4601
  617MOL0     H81401   7.857   2.624   1.081  0.5383 -0.8524 -0.8545
  617MOL0     H81402   8.057   2.666   1.225 -0.4659  0.2165 -1.3557
  617MOL0     H81403   8.033   2.495   1.170 -2.7737 -1.4949 -3.8623
  617MOL0     H81404   8.258   2.542   1.170 -0.6786 -1.2010 -0.8771
  617MOL0     H81405   8.248   2.687   1.073 -2.0090  1.5233 -0.9947
  617MOL0     H81406   8.185   2.301   0.828 -0.7600  3.5020 -0.3071
  617MOL0     H81407   8.370   2.190   0.699  2.0419  0.6549 -1.0451
  617MOL0     H81408   8.814   2.189   0.478  1.1636  1.2296 -0.9104
  617MOL0     H81409   9.029   2.082   0.445 -0.7771  1.6351 -1.7222
  617MOL0     H81410   9.425   2.028   0.632  2.6213  1.1943  2.0119
  617MOL0     H81411   9.347   2.099   0.761  0.2663  1.2390  0.3995
  617MOL0     H81412   9.491   2.277   0.629 -0.3864  1.1073  1.7193
  617MOL0     H81413   9.319   2.307   0.605  1.7008  1.0565  3.3426
  617MOL0     H81414   9.496   2.143   0.428 -1.3405  0.2328 -3.3225
  617MOL0     H81415   9.473   2.314   0.413  3.0871 -1.3724  1.4719
  617MOL0     H81416   9.259   2.114   0.338  0.0756  0.7428 -4.5270
  617MOL0     H81417   9.221   2.279   0.390 -0.3038  0.0024  1.5915
  617MOL0     H81418   9.410   2.221   0.171  0.6536  1.3614 -1.4548
  617MOL0     H81419   9.337   2.376   0.212  5.5343 -0.8678  0.5790
  617MOL0     H81420   9.203   2.117   0.105 -2.4181 -0.0958  0.0782
  617MOL0     H81421   9.239   2.272   0.020  1.7996 -2.6360 -0.2539
  617MOL0     H81422   9.030   2.236   0.239 -1.7885 -2.3119 -1.3385
  617MOL0     H81423   9.067   2.390   0.170 -1.9836 -0.2279  1.6791
  617MOL0     H81424   8.864   2.274   0.053 -1.5830 -1.1869 -1.8535
  617MOL0     H81425   8.981   2.144   0.004 -0.7039  1.5622 -2.2534
  617MOL0     H81426   9.184   2.217   0.811 -0.3629  2.0317 -0.4741
  617MOL0     H81427   8.951   2.329   0.861 -0.3721  4.8186 -3.2668
  617MOL0     H81428   8.643   2.470   0.899 -0.4065 -1.1605  2.5037
  617MOL0     H81429   8.473   2.569   1.000 -0.5953  1.9943 -0.7050
  617MOL0     H81430   6.921   2.622   1.048 -2.4513 -2.0553 -2.2545
  617MOL0     H81431   7.021   2.561   1.280  0.2123  0.9280 -0.6502
  617MOL0     H81432   7.139   2.181   1.560  2.7271  0.5534  1.9374
  617MOL0     H81433   7.199   2.082   1.767 -2.2069 -3.6634 -0.2284
  617MOL0     H81434   6.957   2.215   2.135 -1.4897 -3.2309 -2.3339
  617MOL0     H81435   7.104   2.324   2.122  2.8442 -1.1934 -0.8745
  617MOL0     H81436   7.080   2.229   2.339 -0.2207  1.6864 -0.7400
  617MOL0     H81437   7.049   2.060   2.274  2.6599 -2.1675 -1.0605
  617MOL0     H81438   7.303   2.218   2.312  3.6274 -1.0812  1.1145
  617MOL0     H81439   7.296   2.092   2.185  1.5208 -2.1870  1.4509
  617MOL0     H81440   7.225   2.044   2.476  0.4636 -2.6694  1.0875
  617MOL0     H81441   7.250   1.926   2.342 -1.3989 -0.7419  2.4589
  617MOL0     H81442   7.645   1.982   2.386 -0.0947  2.5973 -3.0536
  617MOL0     H81443   6.934   2.370   1.962 -0.0039  0.1041 -1.4272
  617MOL0     H81444   6.854   2.438   1.753 -1.9173 -2.3219  0.9367
  618MOL0     O81445   9.909   2.389   8.985 -0.2538  0.4602 -0.7801
  618MOL0     C81446   9.914   2.411   8.871  0.4828  0.3556  1.2331
  618MOL0     O81447   9.815   2.393   8.777 -0.4246 -0.7665 -0.3528
  618MOL0     C81448   9.693   2.333   8.808 -1.5163 -0.1553 -0.0346
  618MOL0     C81449   9.685   2.201   8.859  0.7099 -0.0013 -0.5332
  618MOL0     C81450   9.560   2.139   8.884 -0.4565 -0.9192  0.4214
  618MOL0     C81451   9.442   2.206   8.859  0.6621  0.3715 -0.1278
  618MOL0     O81452   9.332   2.133   8.890  0.6318  0.3215 -1.2241
  618MOL0     C81453   9.217   2.139   8.803  0.1502 -0.2031 -0.7178
  618MOL0     C81454   9.229   2.087   8.663  0.2165 -0.0262  0.7732
  618MOL0     C81455   9.326   1.964   8.650 -0.1184 -0.4415 -0.5214
  618MOL0     C81456   9.395   1.961   8.516 -0.3776 -0.7880 -0.0443
  618MOL0     C81457   9.522   1.872   8.512  0.0358 -0.4931  0.4526
  618MOL0     C81458   9.642   1.959   8.503 -0.6827  0.0740  0.4543
  618MOL0     C81459   9.765   1.875   8.541  0.2686  0.5158 -0.0232
  618MOL0     C81460   9.787   1.742   8.467 -0.3164 -0.3706  0.5448
  618MOL0     N81461   9.790   1.763   8.324  0.0545 -0.1864 -0.3966
  618MOL0     C81462   9.902   1.810   8.266 -1.0467 -0.0025 -0.1200
  618MOL0     C81463   9.867   1.841   8.142 -0.3456 -0.6291 -0.3316
  618MOL0     C81464   9.973   1.884   8.040  0.0106  0.0910 -1.1257
  618MOL0     C81465   9.970   1.776   7.931 -1.4175 -0.0712 -0.2210
  618MOL0     C81466  10.090   1.807   7.828  0.6343 -0.0275 -0.5560
  618MOL0     C81467  10.111   1.706   7.720  0.6104 -0.0840 -0.0141
  618MOL0     O81468  10.223   1.763   7.642  0.3984 -0.1972 -0.1342
  618MOL0     C81469  10.192   1.831   7.520 -0.5215  0.7806  0.6961
  618MOL0     C81470  10.152   1.962   7.527  0.1984 -0.6158  0.2240
  618MOL0     C81471  10.133   2.043   7.412 -0.0103 -0.2140  0.0672
  618MOL0     C81472  10.162   1.986   7.280  0.1301 -0.0784  0.5465
  618MOL0     C81473  10.124   2.057   7.156  0.8111 -0.9282 -0.3695
  618MOL0     O81474  10.164   2.010   7.043  0.3743 -0.0553 -0.1552
  618MOL0     C81475  10.130   2.065   6.921  0.5887 -0.4674 -0.1095
  618MOL0     C81476  10.153   2.198   6.888 -0.2196 -1.1034  0.7190
  618MOL0     C81477  10.134   2.251   6.757  0.4761  0.1277 -0.5835
  618MOL0     C81478  10.084   2.163   6.655  0.3670 -0.2670  0.1932
  618MOL0     O81479  10.042   2.193   6.526  0.3359 -0.3715  0.5543
  618MOL0     C81480  10.025   2.342   6.514  1.1106 -0.2447  0.3587
  618MOL0     C81481   9.961   2.379   6.375 -0.6192  0.7561 -0.3082
  618MOL0     C81482  10.066   2.388   6.265  0.0146  0.4805 -0.7941
  618MOL0     C81483  10.014   2.449   6.137 -1.3424  0.2295  0.9354
  618MOL0     C81484  10.113   2.495   6.037 -0.0481 -0.4153 -0.3003
  618MOL0     C81485  10.207   2.601   6.108  0.3472  0.2686 -0.7658
  618MOL0     C81486  10.241   2.721   6.021 -0.4376 -0.3221 -0.2110
  618MOL0     C81487  10.285   2.843   6.088 -0.1396  0.5201 -0.6686
  618MOL0    Cl81488  10.158   2.917   6.181  0.0177  0.0464  0.3366
  618MOL0     C81489  10.060   2.024   6.694  0.5968 -1.3588  0.4020
  618MOL0     C81490  10.078   1.983   6.824 -0.1681 -0.0191  0.2860
  618MOL0     O81491  10.055   2.158   7.173  0.7812 -0.8058  0.4710
  618MOL0     C81492  10.221   1.857   7.277  0.0660 -0.1947  0.2183
  618MOL0     C81493  10.239   1.778   7.393 -0.1007 -0.2666 -0.0097
  618MOL0     N81494   9.733   1.817   8.129  0.1249 -0.3917 -0.4702
  618MOL0     N81495   9.690   1.757   8.236 -0.7542 -0.4072 -0.2194
  618MOL0     C81496   9.445   2.343   8.819 -0.4168 -0.0231 -0.2848
  618MOL0     C81497   9.575   2.414   8.803  0.1229 -0.6842  1.1040
  618MOL0     C81498  10.040   2.468   8.809 -0.7959 -0.0363 -0.0763
  618MOL0     C81499  10.136   2.521   8.894 -0.0823  1.1983  0.4585
  618MOL0     C81500  10.249   2.590   8.836 -0.3460  0.2559 -0.3823
  618MOL0     C81501  10.263   2.607   8.704 -0.3530  0.4341  0.9370
  618MOL0     O81502  10.382   2.659   8.660  0.7704 -0.2612  0.6461
  618MOL0     C81503  10.399   2.689   8.519 -0.3043  0.8120 -0.4891
  618MOL0     C81504  10.525   2.756   8.493  0.7404  0.1218 -0.6605
  618MOL0     C81505  10.521   2.901   8.534 -0.2143 -0.2363 -0.5067
  618MOL0     C81506  10.655   2.980   8.522 -0.1924 -0.1050  0.2973
  618MOL0     C81507  10.761   2.916   8.605  0.0408 -0.1376  0.7995
  618MOL0     C81508  10.836   2.844   8.672 -1.2713 -0.7431  0.1804
  618MOL0     C81509  10.168   2.544   8.622  0.1023 -0.6380 -0.3999
  618MOL0     C81510  10.061   2.473   8.672  0.2958 -0.1976 -0.1906
  618MOL0     H81511   9.778   2.145   8.867 -0.7199 -2.3535  1.0556
  618MOL0     H81512   9.554   2.041   8.929 -0.2119 -2.2298 -2.2140
  618MOL0     H81513   9.180   2.242   8.804  1.7407  0.4036 -1.2246
  618MOL0     H81514   9.132   2.087   8.848  1.4617 -0.6183  1.4259
  618MOL0     H81515   9.279   2.159   8.598 -0.0904 -1.6928 -1.4029
  618MOL0     H81516   9.133   2.062   8.618  1.4006 -1.9746 -0.8236
  618MOL0     H81517   9.281   1.866   8.670 -0.5897  0.3789  3.1789
  618MOL0     H81518   9.404   1.977   8.726 -0.7368  1.9681 -0.2280
  618MOL0     H81519   9.330   1.909   8.445  0.1125 -2.3519  0.6035
  618MOL0     H81520   9.430   2.061   8.491  0.6060 -0.6873  1.6030
  618MOL0     H81521   9.510   1.819   8.417 -0.6108  0.2227  0.1229
  618MOL0     H81522   9.524   1.795   8.591 -0.4413  0.2772  1.2302
  618MOL0     H81523   9.641   2.053   8.560  0.9379  0.2970  0.1775
  618MOL0     H81524   9.656   2.000   8.403 -0.3483 -0.8283  0.1217
  618MOL0     H81525   9.855   1.937   8.528  0.9359 -0.4753 -0.2065
  618MOL0     H81526   9.768   1.870   8.650 -0.9395 -1.5756 -0.0394
  618MOL0     H81527   9.709   1.667   8.485  0.1383 -1.4606 -1.6520
  618MOL0     H81528   9.885   1.700   8.494  1.4162  1.9040 -1.6708
  618MOL0     H81529  10.005   1.811   8.303 -1.9849 -0.0757  2.7278
  618MOL0     H81530  10.074   1.899   8.079  1.9880 -1.1494 -5.2086
  618MOL0     H81531   9.939   1.981   8.003 -0.5480  0.2550 -0.2200
  618MOL0     H81532   9.874   1.784   7.878  0.2290 -0.7245 -3.5989
  618MOL0     H81533   9.992   1.679   7.975 -2.5236 -0.5697 -0.7301
  618MOL0     H81534  10.067   1.902   7.778 -2.0346 -1.6215 -2.6086
  618MOL0     H81535  10.179   1.834   7.886 -0.9793  0.5106  1.8309
  618MOL0     H81536  10.018   1.696   7.663 -0.0641  1.2242  0.7927
  618MOL0     H81537  10.140   1.612   7.769 -0.6438  0.8131  2.6904
  618MOL0     H81538  10.128   2.021   7.615  0.1041 -1.1010  0.5262
  618MOL0     H81539  10.091   2.143   7.415  2.1731  0.8107 -1.2230
  618MOL0     H81540  10.174   2.270   6.967 -3.8851 -0.8826  1.6632
  618MOL0     H81541  10.148   2.355   6.729 -1.1253 -0.2277 -2.9757
  618MOL0     H81542  10.116   2.401   6.530  0.1723  0.5883  3.3026
  618MOL0     H81543   9.952   2.370   6.591  0.7252  0.0471 -0.1087
  618MOL0     H81544   9.912   2.476   6.387 -4.0335 -0.7557 -0.7861
  618MOL0     H81545   9.888   2.300   6.351  0.1701 -0.4194  0.9935
  618MOL0     H81546  10.113   2.295   6.230  0.1801  0.7411 -1.2739
  618MOL0     H81547  10.151   2.442   6.309 -1.2249  2.5294 -0.7892
  618MOL0     H81548   9.965   2.362   6.092  2.0705 -0.2724 -2.2195
  618MOL0     H81549   9.939   2.528   6.153 -1.1237  0.9656 -1.3360
  618MOL0     H81550  10.066   2.521   5.942  1.0627 -2.5637 -1.4987
  618MOL0     H81551  10.186   2.419   6.007  0.7706  0.6162 -0.9978
  618MOL0     H81552  10.300   2.552   6.134 -0.1874 -1.2959 -1.6881
  618MOL0     H81553  10.153   2.636   6.197 -0.9248  0.8362 -1.7282
  618MOL0     H81554  10.325   2.695   5.956  0.6893  1.4049  0.4596
  618MOL0     H81555  10.148   2.754   5.973 -0.0178 -0.4705 -1.1311
  618MOL0     H81556  10.318   2.900   6.001  0.2664  1.2725 -0.0307
  618MOL0     H81557  10.380   2.842   6.142  0.2870 -0.7679 -1.3921
  618MOL0     H81558  10.031   1.959   6.612 -1.9345  1.2743 -0.9840
  618MOL0     H81559  10.056   1.878   6.841  1.2053 -0.9208 -2.8015
  618MOL0     H81560  10.246   1.803   7.186 -2.5282 -0.2947 -0.5343
  618MOL0     H81561  10.290   1.682   7.389  1.2767  0.4176  0.3723
  618MOL0     H81562   9.357   2.401   8.795 -0.2937 -0.5209 -2.1336
  618MOL0     H81563   9.571   2.517   8.770 -3.5866 -1.3424 -1.0690
  618MOL0     H81564  10.128   2.501   9.000  0.5363 -1.9993 -0.0046
  618MOL0     H81565  10.322   2.633   8.903  1.4371 -0.7294 -1.6330
  618MOL0     H81566  10.316   2.753   8.487 -3.7191 -4.0491 -2.5486
  618MOL0     H81567  10.399   2.598   8.459  0.4880  0.3276  0.2215
  618MOL0     H81568  10.597   2.710   8.561 -1.5346  0.0633  1.8603
  618MOL0     H81569  10.558   2.753   8.388  0.0773  2.8532 -1.0176
  618MOL0     H81570  10.487   2.908   8.638 -0.4958 -0.4428 -0.5833
  618MOL0     H81571  10.444   2.956   8.478 -0.8664 -3.3513 -2.9297
  618MOL0     H81572  10.691   2.973   8.419  0.6113 -0.5233  0.5937
  618MOL0     H81573  10.635   3.087   8.531 -1.9516 -0.4149  0.3743
  618MOL0     H81574  10.911   2.778   8.710  0.3931 -0.0334 -1.7000
  618MOL0     H81575  10.182   2.547   8.514  0.6760  1.7254 -0.3161
  618MOL0     H81576   9.980   2.433   8.611 -0.5136  0.7005  0.2817
  619MOL0     O81577   5.145   5.080   3.028  0.0780  0.5630  0.5345
  619MOL0     C81578   5.209   5.162   3.094 -1.1287  0.4237 -1.0187
  619MOL0     O81579   5.177   5.289   3.109 -0.3556  0.0072  0.8786
  619MOL0     C81580   5.071   5.332   3.038 -0.4092  0.0575 -0.4263
  619MOL0     C81581   5.094   5.364   2.903  0.5419  0.2335 -0.4784
  619MOL0     C81582   4.992   5.433   2.829 -0.7084 -0.0484 -0.3069
  619MOL0     C81583   4.861   5.446   2.877  0.3269  0.9800  0.0792
  619MOL0     O81584   4.756   5.494   2.801  0.6077  0.0781  0.0363
  619MOL0     C81585   4.789   5.529   2.663  0.9070 -0.9139  0.0648
  619MOL0     C81586   4.663   5.563   2.583 -0.2792 -0.2361  0.2581
  619MOL0     C81587   4.565   5.438   2.581  1.1744 -0.3296 -0.4142
  619MOL0     C81588   4.471   5.449   2.464  0.1557  0.4245 -0.3509
  619MOL0     C81589   4.369   5.328   2.456  0.2995 -0.0155 -0.7442
  619MOL0     C81590   4.225   5.372   2.401  0.0030  0.2061  0.0721
  619MOL0     C81591   4.232   5.445   2.268  0.0031  0.1149  0.4064
  619MOL0     C81592   4.091   5.512   2.251 -0.0288  1.0309 -0.1088
  619MOL0     N81593   3.999   5.405   2.217  0.5327 -0.1756  0.7837
  619MOL0     C81594   3.858   5.419   2.220 -0.3013 -0.5652  0.2341
  619MOL0     C81595   3.818   5.295   2.182  0.1578  1.0652 -0.1119
  619MOL0     C81596   3.680   5.228   2.188  0.5691  0.1534 -0.1379
  619MOL0     C81597   3.569   5.320   2.160  0.1495 -0.9312 -0.6253
  619MOL0     C81598   3.544   5.346   2.010 -1.2663 -0.2901 -0.1308
  619MOL0     C81599   3.419   5.419   1.981  0.3246 -0.1743  1.0849
  619MOL0     O81600   3.313   5.338   2.005  0.1914  0.3629  0.1973
  619MOL0     C81601   3.177   5.386   2.013  0.2497  0.1576  0.1110
  619MOL0     C81602   3.111   5.354   2.127  0.5368 -0.5260  0.0337
  619MOL0     C81603   2.971   5.377   2.137 -1.0067 -1.1385 -0.9864
  619MOL0     C81604   2.898   5.437   2.031  0.5571 -0.9621 -0.4435
  619MOL0     C81605   2.755   5.451   2.047 -0.4139 -0.2100 -0.4928
  619MOL0     O81606   2.700   5.405   2.158  0.6026 -0.2054 -0.9341
  619MOL0     C81607   2.567   5.407   2.172  0.3552 -0.5583  0.0420
  619MOL0     C81608   2.487   5.519   2.176  1.4223  0.0945  0.6784
  619MOL0     C81609   2.354   5.510   2.216 -0.2131  0.5028  0.5475
  619MOL0     C81610   2.291   5.388   2.248 -1.0115  0.3516  0.7729
  619MOL0     O81611   2.162   5.385   2.294  0.1587 -0.1561 -0.8035
  619MOL0     C81612   2.115   5.279   2.378 -0.2774  0.6390 -0.3853
  619MOL0     C81613   1.993   5.333   2.445  0.2746 -0.1699  0.6803
  619MOL0     C81614   1.923   5.238   2.535 -0.6356  0.1936  0.5447
  619MOL0     C81615   1.820   5.308   2.631 -0.3325  0.9437  0.6721
  619MOL0     C81616   1.748   5.218   2.736  0.0419  0.3223  0.9797
  619MOL0     C81617   1.596   5.271   2.739  0.3522 -0.0982  0.7018
  619MOL0     C81618   1.510   5.167   2.810  0.1718 -0.2336  0.2696
  619MOL0     C81619   1.456   5.204   2.940 -0.1825 -0.0500 -0.1269
  619MOL0    Cl81620   1.354   5.075   3.006 -0.0881  0.0189  0.0417
  619MOL0     C81621   2.365   5.265   2.242  0.2842 -0.5495  0.2533
  619MOL0     C81622   2.504   5.279   2.208 -0.8125  0.3899 -0.1265
  619MOL0     O81623   2.696   5.515   1.965  0.1688 -0.5472  0.4495
  619MOL0     C81624   2.971   5.480   1.918 -0.2683  1.1144  0.0366
  619MOL0     C81625   3.110   5.447   1.904  0.3328  0.5657  0.0808
  619MOL0     N81626   3.930   5.229   2.128  0.1635  0.3581  0.7565
  619MOL0     N81627   4.040   5.291   2.146  0.8046 -0.2802 -1.1705
  619MOL0     C81628   4.828   5.383   3.000  0.2658 -0.8257  0.5699
  619MOL0     C81629   4.933   5.338   3.080 -0.2853  0.5650  0.0477
  619MOL0     C81630   5.332   5.105   3.172  0.0069 -0.0799  0.3887
  619MOL0     C81631   5.442   5.189   3.202 -0.0744 -0.2130  0.5184
  619MOL0     C81632   5.552   5.143   3.265 -0.4614  1.1708  0.8464
  619MOL0     C81633   5.566   5.004   3.291 -0.8161  0.4713  0.7146
  619MOL0     O81634   5.681   4.963   3.348  0.5230 -0.5691 -0.0210
  619MOL0     C81635   5.785   4.898   3.266 -0.1847 -0.5847 -0.7946
  619MOL0     C81636   5.898   4.843   3.357 -0.1112  0.0587 -0.6243
  619MOL0     C81637   5.927   4.935   3.478  0.1901  0.7845  0.1737
  619MOL0     C81638   6.007   4.870   3.596 -0.4192 -0.7131  0.1128
  619MOL0     C81639   6.147   4.852   3.552 -0.7642 -0.7405 -0.8137
  619MOL0     C81640   6.260   4.823   3.515 -0.2108  0.3047  0.1017
  619MOL0     C81641   5.462   4.921   3.245  0.0529 -0.8057 -1.4151
  619MOL0     C81642   5.346   4.970   3.195  0.5276  0.0143 -0.0306
  619MOL0     H81643   5.186   5.339   2.852  1.6182  1.0763  0.9593
  619MOL0     H81644   5.024   5.464   2.730 -1.9531 -2.1608 -1.4397
  619MOL0     H81645   4.839   5.449   2.608 -0.9469 -1.3295 -1.0984
  619MOL0     H81646   4.853   5.618   2.659  1.3309 -1.2614 -1.0599
  619MOL0     H81647   4.697   5.585   2.481 -1.8751  1.0788 -0.0350
  619MOL0     H81648   4.598   5.645   2.614  1.1071  1.5588 -1.3092
  619MOL0     H81649   4.493   5.430   2.663 -2.4594  1.5326 -3.1217
  619MOL0     H81650   4.619   5.344   2.568 -1.8768 -1.9673 -2.0200
  619MOL0     H81651   4.402   5.529   2.495  1.6795  3.0074 -3.0380
  619MOL0     H81652   4.522   5.478   2.372 -2.3701  0.7461 -1.7352
  619MOL0     H81653   4.355   5.267   2.546  0.3679 -1.3742 -1.6130
  619MOL0     H81654   4.412   5.264   2.378  2.5897  0.6034 -0.0637
  619MOL0     H81655   4.180   5.440   2.474 -1.4661  2.1186 -2.4408
  619MOL0     H81656   4.157   5.288   2.384 -0.0230 -0.0189  1.2004
  619MOL0     H81657   4.305   5.526   2.261 -1.2521  1.2209 -0.2664
  619MOL0     H81658   4.264   5.378   2.187  1.1334 -1.4452  2.0719
  619MOL0     H81659   4.089   5.601   2.187  1.1791  1.9424  1.0532
  619MOL0     H81660   4.086   5.558   2.351  2.1694  0.5367  0.2748
  619MOL0     H81661   3.806   5.502   2.266  1.4206  0.4038  0.5158
  619MOL0     H81662   3.658   5.190   2.288  1.1419  1.8529  0.6791
  619MOL0     H81663   3.688   5.148   2.115  1.1021  3.2518 -3.8259
  619MOL0     H81664   3.566   5.414   2.216 -2.8798 -1.0171 -0.4640
  619MOL0     H81665   3.475   5.275   2.192  0.1023  1.4018  3.1179
  619MOL0     H81666   3.624   5.401   1.959 -1.0710  0.6907  1.1902
  619MOL0     H81667   3.539   5.245   1.967 -1.1036 -0.8931  1.2216
  619MOL0     H81668   3.409   5.436   1.873 -1.1112 -1.2046  1.0279
  619MOL0     H81669   3.419   5.518   2.028 -1.7979  0.1152  0.5501
  619MOL0     H81670   3.162   5.298   2.205  1.5474 -2.4570 -1.9263
  619MOL0     H81671   2.922   5.339   2.226 -1.9857 -0.1430 -1.0682
  619MOL0     H81672   2.543   5.607   2.145  2.1348 -0.2914  0.8509
  619MOL0     H81673   2.287   5.594   2.230 -0.7816  0.2617 -0.5482
  619MOL0     H81674   2.186   5.263   2.459 -1.3300  1.5721  0.7524
  619MOL0     H81675   2.091   5.191   2.317  3.3598 -0.1704 -0.9272
  619MOL0     H81676   1.927   5.360   2.362  0.4677  0.3470  0.6880
  619MOL0     H81677   2.021   5.429   2.491  3.3503 -0.4896 -0.2764
  619MOL0     H81678   2.002   5.212   2.606  2.8902  1.3368 -2.6320
  619MOL0     H81679   1.869   5.161   2.480  1.5703 -0.4340 -0.8526
  619MOL0     H81680   1.856   5.403   2.670 -0.8647  1.7671 -0.7395
  619MOL0     H81681   1.742   5.349   2.566 -0.2961 -1.6658 -1.1799
  619MOL0     H81682   1.791   5.232   2.836  1.7204  2.0405  0.0733
  619MOL0     H81683   1.750   5.111   2.715 -0.7454 -0.5521  4.5986
  619MOL0     H81684   1.553   5.292   2.641  3.6867 -0.8761 -1.0863
  619MOL0     H81685   1.587   5.365   2.793 -1.5931 -1.0202  2.1091
  619MOL0     H81686   1.427   5.137   2.745 -1.0879  0.0863  1.6695
  619MOL0     H81687   1.566   5.074   2.823 -0.8893 -0.6586  2.2062
  619MOL0     H81688   1.409   5.302   2.926 -1.8638 -1.0238 -1.7517
  619MOL0     H81689   1.527   5.231   3.019 -0.3493  1.5705 -0.4872
  619MOL0     H81690   2.312   5.174   2.269 -1.6566  1.3577  3.6943
  619MOL0     H81691   2.551   5.182   2.195 -0.1550  0.7516 -0.4949
  619MOL0     H81692   2.927   5.529   1.832 -2.3204  0.4379  0.6404
  619MOL0     H81693   3.167   5.475   1.816  2.6928  0.6385  1.5602
  619MOL0     H81694   4.730   5.383   3.048 -0.4362 -0.2190 -0.7922
  619MOL0     H81695   4.920   5.314   3.185  3.0678 -2.8231 -0.0975
  619MOL0     H81696   5.436   5.297   3.198  2.2414 -0.0429  0.3284
  619MOL0     H81697   5.637   5.209   3.278  0.3937  0.2068  0.2281
  619MOL0     H81698   5.832   4.971   3.200  3.1682 -0.9945  0.9264
  619MOL0     H81699   5.736   4.819   3.209  1.1873 -0.2080 -2.6250
  619MOL0     H81700   5.858   4.745   3.385 -5.0504  2.3014  1.2458
  619MOL0     H81701   5.995   4.834   3.306  2.2002  0.9450  3.2508
  619MOL0     H81702   5.834   4.952   3.533  0.2330 -2.7499  1.6015
  619MOL0     H81703   5.963   5.033   3.447 -2.1552  1.5727 -0.2618
  619MOL0     H81704   6.008   4.940   3.681  0.0537  1.2965 -1.4493
  619MOL0     H81705   5.963   4.772   3.615 -2.4981  0.1937  0.3207
  619MOL0     H81706   6.357   4.807   3.472 -0.6131  0.9929 -1.0954
  619MOL0     H81707   5.458   4.813   3.259 -4.6383 -0.8807 -1.7521
  619MOL0     H81708   5.265   4.900   3.173  1.3934 -1.3041  0.8014
  620MOL0     O81709   4.096   4.652   2.161 -0.2826 -0.0709  0.0336
  620MOL0     C81710   4.033   4.545   2.165 -0.4015  0.0902 -0.2120
  620MOL0     O81711   3.993   4.497   2.290  0.3749 -0.6613 -0.5519
  620MOL0     C81712   3.999   4.550   2.415  0.1240 -1.0296  1.0877
  620MOL0     C81713   4.019   4.688   2.434  1.0590 -0.6490 -0.8328
  620MOL0     C81714   4.013   4.738   2.566 -0.3544  1.0434  0.0470
  620MOL0     C81715   4.008   4.650   2.673  0.7411 -0.1720 -0.5799
  620MOL0     O81716   4.013   4.687   2.806 -0.6354 -0.3557  0.2219
  620MOL0     C81717   3.912   4.777   2.868  0.0055  0.3642  0.7947
  620MOL0     C81718   3.978   4.868   2.970  0.8035 -0.5098 -0.3284
  620MOL0     C81719   4.071   4.968   2.901  0.4967  0.7926 -0.3234
  620MOL0     C81720   3.998   5.093   2.850 -1.0529  0.0073 -0.6994
  620MOL0     C81721   3.925   5.176   2.957 -0.0107  0.2417  0.5686
  620MOL0     C81722   3.889   5.317   2.915 -0.7374 -0.3797 -0.5015
  620MOL0     C81723   3.899   5.410   3.040 -0.1354  0.1526 -0.5548
  620MOL0     C81724   4.055   5.437   3.058  1.0616 -0.1995 -0.4452
  620MOL0     N81725   4.075   5.568   3.115  1.0909 -0.7621  0.7528
  620MOL0     C81726   4.088   5.684   3.040 -1.5944 -0.2364  0.0940
  620MOL0     C81727   4.115   5.777   3.138 -0.4192  0.4590 -0.0337
  620MOL0     C81728   4.134   5.922   3.129 -0.2074  0.7128  1.2667
  620MOL0     C81729   4.249   5.958   3.045 -0.3205 -0.8707  0.1207
  620MOL0     C81730   4.243   6.098   2.981  1.0164 -0.6099 -0.0806
  620MOL0     C81731   4.235   6.196   3.091 -0.6250 -0.3826  0.7760
  620MOL0     O81732   4.096   6.250   3.098  0.2102 -1.1671 -0.0725
  620MOL0     C81733   4.090   6.387   3.069  0.0695 -1.4628  1.0156
  620MOL0     C81734   4.057   6.475   3.175 -0.3306  0.7304  0.9581
  620MOL0     C81735   4.044   6.610   3.137 -0.2945 -0.1473  0.7380
  620MOL0     C81736   4.075   6.659   3.010  0.1962 -0.2541  0.1556
  620MOL0     C81737   4.089   6.803   2.984 -0.8117  0.0928  0.3125
  620MOL0     O81738   4.000   6.884   3.055  0.5590 -0.5570  0.0460
  620MOL0     C81739   4.010   7.016   3.072  0.8636  0.4809 -0.4018
  620MOL0     C81740   4.126   7.097   3.044  0.7046  0.1912 -0.8808
  620MOL0     C81741   4.139   7.230   3.072  1.7449  0.2992  0.4604
  620MOL0     C81742   4.030   7.291   3.135 -0.0872  0.4413 -1.8422
  620MOL0     O81743   4.026   7.414   3.181  0.0980 -0.0624 -0.3642
  620MOL0     C81744   4.115   7.512   3.114 -0.1961 -0.1229 -0.9896
  620MOL0     C81745   4.253   7.509   3.206  0.3732  0.5238  0.0253
  620MOL0     C81746   4.348   7.613   3.151  0.6291 -0.4365 -0.6399
  620MOL0     C81747   4.482   7.613   3.242  0.3137 -0.1440 -0.1381
  620MOL0     C81748   4.600   7.691   3.207  0.0935 -0.3538 -0.5436
  620MOL0     C81749   4.729   7.642   3.273  0.1783  0.3178  0.6891
  620MOL0     C81750   4.860   7.717   3.248  0.1294 -0.9372 -0.3504
  620MOL0     C81751   4.988   7.678   3.331 -0.1385 -0.8406 -0.2465
  620MOL0    Cl81752   5.035   7.504   3.306 -0.1902 -0.2835 -0.1565
  620MOL0     C81753   3.915   7.219   3.174  0.2663  0.0834 -0.1689
  620MOL0     C81754   3.900   7.083   3.135 -1.5574 -0.2626  0.1538
  620MOL0     O81755   4.161   6.838   2.896  0.6469 -0.3796 -0.7450
  620MOL0     C81756   4.116   6.572   2.908 -0.4970 -0.0616  0.0330
  620MOL0     C81757   4.115   6.437   2.937 -0.4863  0.1211 -0.7979
  620MOL0     N81758   4.124   5.716   3.265 -0.1973 -0.1167 -0.1125
  620MOL0     N81759   4.099   5.590   3.251 -0.3153  0.6631  0.4537
  620MOL0     C81760   4.003   4.516   2.647  0.2412 -0.4310 -0.1236
  620MOL0     C81761   3.998   4.463   2.524  1.3266 -0.1973  0.1814
  620MOL0     C81762   3.995   4.471   2.044 -0.3643 -0.8768 -0.5289
  620MOL0     C81763   3.870   4.403   2.039 -0.8167  0.0689 -0.3012
  620MOL0     C81764   3.839   4.327   1.927  0.8121 -0.4757  0.1395
  620MOL0     C81765   3.928   4.317   1.814  1.2569 -0.0175 -0.5566
  620MOL0     O81766   3.916   4.244   1.701  0.0853  0.1164 -0.1831
  620MOL0     C81767   3.788   4.190   1.673  0.6886 -0.9325 -0.1335
  620MOL0     C81768   3.771   4.152   1.535  0.1455  0.5372 -0.0652
  620MOL0     C81769   3.630   4.078   1.527 -0.0760 -0.3700  0.9601
  620MOL0     C81770   3.505   4.172   1.542 -0.0298  0.7813 -0.3674
  620MOL0     C81771   3.375   4.098   1.539  0.1773 -0.1023  0.2151
  620MOL0     C81772   3.271   4.041   1.527 -0.0193 -0.6698 -1.2188
  620MOL0     C81773   4.035   4.394   1.817  0.0685 -0.2002  0.0329
  620MOL0     C81774   4.075   4.459   1.932  0.2615 -0.9226  0.3235
  620MOL0     H81775   4.036   4.758   2.353 -0.7352  0.3535 -0.3822
  620MOL0     H81776   4.014   4.842   2.597  1.3638  0.4113  2.3730
  620MOL0     H81777   3.845   4.708   2.921 -0.8895 -0.9617 -1.8556
  620MOL0     H81778   3.851   4.831   2.795  1.5178 -2.5006 -2.9546
  620MOL0     H81779   4.032   4.801   3.037 -0.1434  0.3210  1.3257
  620MOL0     H81780   3.894   4.908   3.028  0.9559  0.4302 -0.7385
  620MOL0     H81781   4.123   4.928   2.814  0.1844  0.1641 -0.2240
  620MOL0     H81782   4.144   4.998   2.977 -1.8152  3.2403  1.0833
  620MOL0     H81783   4.078   5.150   2.801 -0.6947  0.9191  0.8772
  620MOL0     H81784   3.929   5.065   2.770  2.0256 -0.2514 -3.5252
  620MOL0     H81785   3.982   5.172   3.050  1.6851 -0.9425 -0.4576
  620MOL0     H81786   3.835   5.131   3.002  1.2618  1.2791  4.6121
  620MOL0     H81787   3.785   5.323   2.882 -0.6602  1.0982 -0.5721
  620MOL0     H81788   3.939   5.348   2.822 -1.0039  1.1838 -0.1554
  620MOL0     H81789   3.844   5.502   3.020  0.1328  0.2855 -0.6887
  620MOL0     H81790   3.877   5.376   3.142  3.1155  2.4797  1.1447
  620MOL0     H81791   4.115   5.441   2.966  1.1807  1.1427 -0.3181
  620MOL0     H81792   4.089   5.354   3.121  0.6248 -0.2734 -0.3044
  620MOL0     H81793   4.083   5.696   2.932 -2.8051 -2.4607 -0.1631
  620MOL0     H81794   4.144   5.969   3.227 -1.1599  0.7483  1.3518
  620MOL0     H81795   4.044   5.963   3.082  0.1578 -0.0396 -0.1569
  620MOL0     H81796   4.262   5.889   2.961 -0.3851 -0.2546 -0.4012
  620MOL0     H81797   4.340   5.962   3.106 -0.0312 -1.2798 -0.2757
  620MOL0     H81798   4.325   6.108   2.909  1.7115  1.0535  0.8781
  620MOL0     H81799   4.156   6.098   2.914  2.1392 -0.2126 -1.5926
  620MOL0     H81800   4.303   6.281   3.076 -0.5084 -0.6820 -0.4261
  620MOL0     H81801   4.263   6.160   3.191 -1.0580 -1.8367  0.4020
  620MOL0     H81802   4.027   6.436   3.272  1.9768 -3.8862  0.0993
  620MOL0     H81803   4.010   6.677   3.215 -1.6908 -0.1201  0.1417
  620MOL0     H81804   4.206   7.049   2.990  0.9461  2.1266 -2.3561
  620MOL0     H81805   4.236   7.273   3.048  2.1030 -1.2397 -0.9236
  620MOL0     H81806   4.063   7.608   3.120  1.1028  0.5961 -0.8200
  620MOL0     H81807   4.129   7.499   3.007 -2.8374  1.1682 -1.5802
  620MOL0     H81808   4.304   7.413   3.209 -3.6634 -1.9175 -1.2165
  620MOL0     H81809   4.229   7.531   3.311  1.5319 -1.5651  0.7819
  620MOL0     H81810   4.289   7.704   3.138  1.0303  0.0784  0.8923
  620MOL0     H81811   4.366   7.587   3.047 -1.6797 -1.2248 -0.9139
  620MOL0     H81812   4.447   7.648   3.340 -2.7932 -0.6882 -0.9421
  620MOL0     H81813   4.508   7.507   3.236 -1.5505 -0.5595 -1.6744
  620MOL0     H81814   4.577   7.790   3.248 -0.9437 -0.6258 -0.4375
  620MOL0     H81815   4.607   7.710   3.100 -1.2164  0.8346 -0.4545
  620MOL0     H81816   4.739   7.542   3.231 -2.2595 -1.0564  3.1471
  620MOL0     H81817   4.720   7.633   3.381  2.8389  3.0030  1.2748
  620MOL0     H81818   4.870   7.688   3.143 -0.4608 -0.6841 -0.4865
  620MOL0     H81819   4.842   7.825   3.261 -0.1419 -1.2254  1.9591
  620MOL0     H81820   4.961   7.684   3.436 -1.7158  2.0215 -0.7071
  620MOL0     H81821   5.080   7.732   3.308 -0.6023 -0.9438 -2.6986
  620MOL0     H81822   3.833   7.268   3.226  2.2605  2.0896  1.2464
  620MOL0     H81823   3.807   7.029   3.154 -1.0991 -0.4084  2.2140
  620MOL0     H81824   4.152   6.611   2.814  0.9710 -0.1759  0.5137
  620MOL0     H81825   4.155   6.379   2.854 -2.6994  0.4786 -2.1815
  620MOL0     H81826   3.997   4.442   2.725 -0.0844 -0.2692  0.0033
  620MOL0     H81827   3.999   4.354   2.517  1.3213 -0.3532  2.0304
  620MOL0     H81828   3.799   4.403   2.122 -1.0642 -4.1174 -0.2957
  620MOL0     H81829   3.738   4.287   1.930 -0.5894  2.8023  0.8853
  620MOL0     H81830   3.712   4.267   1.687 -0.0674 -1.0859 -2.7920
  620MOL0     H81831   3.781   4.103   1.739 -0.8002 -1.2259 -0.6334
  620MOL0     H81832   3.782   4.239   1.470 -1.6190 -0.6046 -2.0289
  620MOL0     H81833   3.848   4.079   1.510 -1.6811 -1.4789 -0.1222
  620MOL0     H81834   3.634   4.004   1.607 -1.4731 -0.0098  1.3971
  620MOL0     H81835   3.625   4.035   1.426  2.7793  1.2692  0.0024
  620MOL0     H81836   3.502   4.217   1.641 -0.3785 -3.0522  1.5520
  620MOL0     H81837   3.509   4.241   1.457  2.7053 -0.4613 -1.3832
  620MOL0     H81838   3.189   3.974   1.508  1.4436 -1.9557 -3.3216
  620MOL0     H81839   4.104   4.395   1.734  0.5658 -0.4692  0.4340
  620MOL0     H81840   4.165   4.518   1.940 -0.2498 -0.0521 -0.1952
  621MOL0     O81841   5.860  10.239   8.287 -0.7199 -0.2623 -0.4387
  621MOL0     C81842   5.927  10.309   8.366  0.0026  0.1500 -0.3403
  621MOL0     O81843   5.891  10.414   8.431 -0.6504 -0.4206 -0.0956
  621MOL0     C81844   5.757  10.437   8.439 -0.5282  0.5249 -0.3341
  621MOL0     C81845   5.696  10.360   8.536 -0.9662 -0.2032  0.4716
  621MOL0     C81846   5.558  10.368   8.566 -0.1882 -0.0623 -0.1154
  621MOL0     C81847   5.479  10.452   8.494  0.3648 -1.2316  0.5272
  621MOL0     O81848   5.347  10.461   8.527 -0.3135 -0.0452  0.2296
  621MOL0     C81849   5.251  10.467   8.422 -1.0965  0.1924 -1.2138
  621MOL0     C81850   5.186  10.330   8.405  0.1674 -1.1994  0.1293
  621MOL0     C81851   5.056  10.318   8.322  0.2196  0.1888 -0.6176
  621MOL0     C81852   5.066  10.362   8.179 -0.0810  0.3663  0.3593
  621MOL0     C81853   4.937  10.380   8.113 -0.5596 -0.3546 -0.5444
  621MOL0     C81854   4.955  10.460   7.979  0.0081  0.5321 -0.3316
  621MOL0     C81855   5.027  10.378   7.871 -0.0638 -0.5198  0.9616
  621MOL0     C81856   4.932  10.291   7.785 -0.6568 -1.2667 -0.1208
  621MOL0     N81857   5.002  10.196   7.702 -0.6700 -0.0952 -0.5606
  621MOL0     C81858   5.035  10.069   7.742  0.7436  0.6909 -0.2223
  621MOL0     C81859   5.103  10.013   7.645 -0.0853 -0.0828 -0.6128
  621MOL0     C81860   5.157   9.873   7.642 -0.2547 -0.3330  0.4170
  621MOL0     C81861   5.307   9.884   7.640 -0.0506 -0.3702 -0.3151
  621MOL0     C81862   5.381   9.747   7.633  0.1375  0.1529  0.4287
  621MOL0     C81863   5.536   9.771   7.641 -0.4582  0.6257 -0.1282
  621MOL0     O81864   5.581   9.827   7.767  0.0703  0.0357  0.0487
  621MOL0     C81865   5.717   9.847   7.779  0.0937 -0.3235  0.5962
  621MOL0     C81866   5.814   9.837   7.671 -0.2793  0.1187  0.1883
  621MOL0     C81867   5.943   9.873   7.706 -0.1422  0.5546  1.1564
  621MOL0     C81868   5.979   9.909   7.839  0.1930  0.5501  0.2363
  621MOL0     C81869   6.121   9.935   7.877 -0.4988 -0.0465  0.9927
  621MOL0     O81870   6.209   9.945   7.768 -0.1609 -0.7486 -0.2328
  621MOL0     C81871   6.343   9.940   7.787 -0.4179 -0.4676  0.1837
  621MOL0     C81872   6.422  10.051   7.769 -0.1849 -0.1815 -0.0352
  621MOL0     C81873   6.563  10.059   7.795  0.4143 -0.0159  0.3699
  621MOL0     C81874   6.626   9.945   7.844  0.6583  0.3542 -0.0901
  621MOL0     O81875   6.758   9.959   7.880 -1.0933  0.2404  0.5412
  621MOL0     C81876   6.843   9.982   7.770 -1.1787  0.3498  0.6212
  621MOL0     C81877   6.994   9.951   7.803  0.6290  0.2446 -0.7598
  621MOL0     C81878   7.045  10.067   7.897 -0.9939  0.1895 -0.4147
  621MOL0     C81879   7.187  10.044   7.952  0.1769 -0.2518  0.0679
  621MOL0     C81880   7.239  10.150   8.055  0.0978  0.4339 -0.2819
  621MOL0     C81881   7.376  10.119   8.123 -0.3052 -1.0357 -0.3637
  621MOL0     C81882   7.397  10.200   8.253  0.1509 -0.1079 -0.9406
  621MOL0     C81883   7.313  10.129   8.363 -0.4413 -0.0348 -1.1483
  621MOL0    Cl81884   7.408  10.003   8.451 -0.4775 -0.5116  0.9038
  621MOL0     C81885   6.549   9.820   7.849 -0.1072 -0.9980 -0.2905
  621MOL0     C81886   6.411   9.821   7.829  0.3153 -0.2666  0.7386
  621MOL0     O81887   6.150   9.920   7.995 -1.1662  0.1693  0.2786
  621MOL0     C81888   5.879   9.928   7.933 -0.5585  0.7552  0.5641
  621MOL0     C81889   5.749   9.893   7.906 -0.2559 -0.2423 -0.3791
  621MOL0     N81890   5.134  10.116   7.561 -0.4399  0.0850  0.0836
  621MOL0     N81891   5.069  10.225   7.594 -1.1436 -0.1020 -0.2861
  621MOL0     C81892   5.540  10.532   8.387  1.2155 -0.2508 -0.6621
  621MOL0     C81893   5.677  10.523   8.359 -0.2721  0.5163 -0.8203
  621MOL0     C81894   6.064  10.255   8.391 -0.7833 -0.0509  0.0925
  621MOL0     C81895   6.144  10.305   8.501  0.3847  0.3543  0.1509
  621MOL0     C81896   6.277  10.261   8.529 -0.1386  0.5484  0.9488
  621MOL0     C81897   6.334  10.164   8.441  0.3023 -0.4835 -0.7016
  621MOL0     O81898   6.461  10.120   8.478 -0.3482  0.0070  1.2806
  621MOL0     C81899   6.536  10.039   8.380  0.2305 -0.7811  0.2616
  621MOL0     C81900   6.679  10.048   8.421  0.4856 -0.0060 -0.6272
  621MOL0     C81901   6.760   9.985   8.315  0.0416 -0.7966  1.2728
  621MOL0     C81902   6.910   9.981   8.356 -0.4978  0.1521 -0.5927
  621MOL0     C81903   6.989   9.894   8.258  0.1963 -0.2834  0.4872
  621MOL0     C81904   7.052   9.820   8.186  0.0505  0.0577  0.1581
  621MOL0     C81905   6.256  10.109   8.329  0.2625 -0.5252  0.7477
  621MOL0     C81906   6.120  10.160   8.305  0.5054 -0.1675  0.2494
  621MOL0     H81907   5.751  10.279   8.583  2.3014 -1.2608 -4.4172
  621MOL0     H81908   5.509  10.311   8.644 -0.7236 -1.4936 -1.4544
  621MOL0     H81909   5.307  10.491   8.331  1.9450 -0.5552  0.3146
  621MOL0     H81910   5.166  10.527   8.454 -0.7956  1.0025 -1.8849
  621MOL0     H81911   5.152  10.291   8.501 -0.8035  1.8170  1.1378
  621MOL0     H81912   5.248  10.258   8.351 -0.1018  1.5521 -4.4193
  621MOL0     H81913   4.993  10.394   8.368 -1.7621 -0.8977 -1.3982
  621MOL0     H81914   5.011  10.219   8.335 -0.5946  0.8827  2.5306
  621MOL0     H81915   5.121  10.456   8.181  0.2398  0.1760  0.4119
  621MOL0     H81916   5.125  10.283   8.131  0.3092 -1.2215  3.2338
  621MOL0     H81917   4.873  10.439   8.180  0.4665  1.1285 -0.8196
  621MOL0     H81918   4.896  10.280   8.094  0.6743 -0.8892 -0.4653
  621MOL0     H81919   5.008  10.552   8.007 -1.1754  0.0672  4.3099
  621MOL0     H81920   4.856  10.483   7.939 -0.2326 -1.4687 -1.0098
  621MOL0     H81921   5.073  10.454   7.807  0.4722 -1.6711 -0.0670
  621MOL0     H81922   5.106  10.313   7.911  0.3419  0.6036  2.0535
  621MOL0     H81923   4.882  10.358   7.714 -0.7655  2.0182  2.7833
  621MOL0     H81924   4.857  10.247   7.851 -2.4304 -0.6664 -1.6265
  621MOL0     H81925   4.989  10.033   7.833 -1.7932 -0.2131 -1.7452
  621MOL0     H81926   5.109   9.825   7.556 -4.6126  3.0334  0.6154
  621MOL0     H81927   5.137   9.817   7.733 -2.1816  1.0769  0.9327
  621MOL0     H81928   5.349   9.935   7.727  3.1225 -2.6160 -0.3614
  621MOL0     H81929   5.338   9.947   7.556  0.3875  2.3148  1.7012
  621MOL0     H81930   5.346   9.680   7.711 -2.5431  2.3568  1.2832
  621MOL0     H81931   5.353   9.708   7.534  0.9995 -0.8717  0.5748
  621MOL0     H81932   5.562   9.842   7.562 -0.6889 -1.6602 -2.3853
  621MOL0     H81933   5.584   9.675   7.624 -1.4892  0.3459 -1.5861
  621MOL0     H81934   5.791   9.807   7.570 -2.1142 -0.5809  0.7583
  621MOL0     H81935   6.016   9.856   7.628 -0.7347  0.3720  0.6375
  621MOL0     H81936   6.376  10.140   7.727  0.2890 -0.8045 -1.9821
  621MOL0     H81937   6.606  10.158   7.783 -0.9020  0.7163  1.3850
  621MOL0     H81938   6.833  10.085   7.735 -2.2698 -0.1388 -0.5956
  621MOL0     H81939   6.822   9.925   7.680  1.6613 -0.2304  0.2249
  621MOL0     H81940   7.060   9.953   7.716  2.4645 -0.7230  0.5522
  621MOL0     H81941   7.005   9.856   7.856 -0.3489  1.3396  1.5048
  621MOL0     H81942   6.977  10.085   7.981 -0.0789 -1.6147  0.7682
  621MOL0     H81943   7.047  10.160   7.840 -2.8417  1.0386  0.8038
  621MOL0     H81944   7.186   9.944   7.996 -2.6993 -0.8158 -1.0529
  621MOL0     H81945   7.249  10.025   7.864 -1.6252 -2.2543 -0.8731
  621MOL0     H81946   7.166  10.163   8.135 -0.8132 -1.4909 -0.7374
  621MOL0     H81947   7.261  10.245   8.005  5.6558 -0.5839 -0.3866
  621MOL0     H81948   7.449  10.141   8.045  0.9675  1.0224  1.3051
  621MOL0     H81949   7.387  10.012   8.139  0.8264 -0.7231  1.0767
  621MOL0     H81950   7.503  10.196   8.279 -0.3593 -1.2726  1.1245
  621MOL0     H81951   7.368  10.305   8.238 -0.4392 -0.0442  0.4714
  621MOL0     H81952   7.217  10.094   8.324 -0.0087  0.4537 -2.7501
  621MOL0     H81953   7.293  10.208   8.436  3.4473  0.0796  0.0079
  621MOL0     H81954   6.595   9.727   7.882  2.5879 -0.1789 -1.4268
  621MOL0     H81955   6.349   9.733   7.839  1.7026 -1.6824 -1.9354
  621MOL0     H81956   5.881   9.966   8.034 -1.5447 -0.3303  1.0239
  621MOL0     H81957   5.678   9.899   7.988 -1.4601  0.1293 -1.4118
  621MOL0     H81958   5.486  10.604   8.325  2.5004  0.4697 -0.9684
  621MOL0     H81959   5.711  10.587   8.278 -0.7505  0.0847 -1.3761
  621MOL0     H81960   6.115  10.390   8.562  1.7308 -0.4932  2.0652
  621MOL0     H81961   6.323  10.284   8.624  0.3293  0.7202  0.6841
  621MOL0     H81962   6.534  10.097   8.287  1.4106  1.6365  1.6453
  621MOL0     H81963   6.494   9.938   8.372 -0.4878 -0.7300  2.6634
  621MOL0     H81964   6.707  10.151   8.447  2.9792 -0.8772  0.4018
  621MOL0     H81965   6.683   9.981   8.507 -1.1527 -1.1489 -1.3858
  621MOL0     H81966   6.742  10.046   8.226  1.2469 -2.0867  0.1065
  621MOL0     H81967   6.716   9.889   8.286 -3.8518  1.1698 -0.1734
  621MOL0     H81968   6.954  10.081   8.357 -1.1470  0.4545 -1.5029
  621MOL0     H81969   6.918   9.938   8.456  2.6884 -3.3172 -2.0870
  621MOL0     H81970   7.109   9.756   8.122  1.4029  0.0614  1.3281
  621MOL0     H81971   6.306  10.032   8.271 -1.5314 -0.7576 -0.5685
  621MOL0     H81972   6.068  10.122   8.217 -1.4317  0.6386  0.9762
  622MOL0     O81973   5.568   3.359   7.004  0.0441 -0.3551  0.7007
  622MOL0     C81974   5.636   3.299   7.086  0.2108  0.2090 -0.9765
  622MOL0     O81975   5.600   3.189   7.162 -0.1742 -0.1235  0.5057
  622MOL0     C81976   5.488   3.117   7.144  0.1364  0.5681 -0.1747
  622MOL0     C81977   5.485   2.996   7.229  0.2533 -0.1753 -0.2141
  622MOL0     C81978   5.377   2.912   7.228 -0.1898 -1.1317  0.2531
  622MOL0     C81979   5.268   2.930   7.135  0.0467 -1.4807 -0.1857
  622MOL0     O81980   5.158   2.848   7.115  0.1324  0.1028 -0.8966
  622MOL0     C81981   5.151   2.718   7.179  0.1880 -0.3367  0.2428
  622MOL0     C81982   5.045   2.656   7.100  0.0266  0.3649  0.2217
  622MOL0     C81983   4.991   2.515   7.158 -0.2375 -0.5236 -0.0288
  622MOL0     C81984   4.863   2.450   7.095 -0.5099  0.2548  0.1012
  622MOL0     C81985   4.838   2.309   7.152 -0.1858 -0.9782  0.2927
  622MOL0     C81986   4.715   2.226   7.108  0.0790 -0.4603 -0.3511
  622MOL0     C81987   4.743   2.077   7.150  0.8771 -0.3839  0.1141
  622MOL0     C81988   4.785   2.040   7.288 -0.3081 -0.0357 -0.3796
  622MOL0     N81989   4.775   1.897   7.314 -0.2940 -0.1174 -0.1100
  622MOL0     C81990   4.842   1.805   7.241 -0.5093  0.2392  0.2944
  622MOL0     C81991   4.803   1.680   7.272 -0.2621 -0.8485 -0.0344
  622MOL0     C81992   4.846   1.545   7.208  0.5458 -0.6936 -0.0095
  622MOL0     C81993   4.939   1.475   7.307 -0.5747  0.0909 -0.5908
  622MOL0     C81994   4.997   1.334   7.271 -0.8666  0.9115 -0.1161
  622MOL0     C81995   5.092   1.284   7.369  0.5991 -0.4138  0.0566
  622MOL0     O81996   5.158   1.172   7.316 -0.0714  0.7106 -0.0818
  622MOL0     C81997   5.293   1.182   7.301 -0.1177  0.1370  0.0690
  622MOL0     C81998   5.348   1.110   7.196 -0.0022 -0.4504  0.4139
  622MOL0     C81999   5.483   1.116   7.172 -1.0184 -0.0703 -0.2693
  622MOL0     C82000   5.575   1.188   7.242  1.0054 -0.4581 -0.4583
  622MOL0     C82001   5.702   1.208   7.181 -0.5464 -0.9534 -0.2639
  622MOL0     O82002   5.712   1.210   7.044 -0.4379 -0.1955  0.8303
  622MOL0     C82003   5.836   1.238   6.995  0.1432  0.1879  0.2686
  622MOL0     C82004   5.905   1.360   7.027  0.0092  0.1980  0.2074
  622MOL0     C82005   6.033   1.389   6.963  0.6020 -0.6495 -0.1746
  622MOL0     C82006   6.095   1.292   6.886  0.7878 -0.2136  0.4845
  622MOL0     O82007   6.207   1.329   6.804 -0.5880 -0.1796  0.7333
  622MOL0     C82008   6.308   1.407   6.878 -0.0729  0.0466  0.2884
  622MOL0     C82009   6.433   1.321   6.879  0.3467 -0.3507 -0.5704
  622MOL0     C82010   6.522   1.350   6.754  0.1366  0.3057  0.1961
  622MOL0     C82011   6.651   1.270   6.743  0.2423  0.2711 -0.0018
  622MOL0     C82012   6.749   1.319   6.632 -0.6176 -0.7819 -1.1403
  622MOL0     C82013   6.691   1.316   6.485 -0.0874 -1.2995 -0.8966
  622MOL0     C82014   6.609   1.187   6.440  1.1298 -0.0504 -0.2885
  622MOL0     C82015   6.579   1.210   6.285  0.9345  0.4380 -0.0538
  622MOL0    Cl82016   6.553   1.044   6.221 -0.4136  0.1562 -0.2615
  622MOL0     C82017   6.036   1.164   6.873  0.7962  0.9590  0.6670
  622MOL0     C82018   5.905   1.138   6.923  0.4276  0.6502 -0.6455
  622MOL0     O82019   5.798   1.216   7.260  0.1493  1.1016  0.3277
  622MOL0     C82020   5.526   1.244   7.361  0.2536 -0.8501 -0.0964
  622MOL0     C82021   5.386   1.251   7.392  0.1284 -0.0739  1.1390
  622MOL0     N82022   4.714   1.702   7.380  0.0350  0.1092  0.1057
  622MOL0     N82023   4.703   1.829   7.400  0.9513 -1.2165  0.8813
  622MOL0     C82024   5.268   3.045   7.053 -0.0691  0.6308  0.5674
  622MOL0     C82025   5.385   3.136   7.051  0.5063  0.1828  0.7920
  622MOL0     C82026   5.781   3.353   7.113  1.1177  0.3349 -0.4054
  622MOL0     C82027   5.862   3.304   7.213  0.9021 -0.1304  0.4687
  622MOL0     C82028   5.988   3.359   7.238 -0.5394  0.2347 -0.2613
  622MOL0     C82029   6.040   3.469   7.165  0.4192 -0.5287  0.1002
  622MOL0     O82030   6.176   3.518   7.168  0.6758  0.8452 -0.3160
  622MOL0     C82031   6.268   3.504   7.277 -0.2825 -0.9015  0.2300
  622MOL0     C82032   6.220   3.593   7.395 -0.0228  0.7070  0.3491
  622MOL0     C82033   6.228   3.749   7.359 -0.2038 -0.5668 -1.6648
  622MOL0     C82034   6.197   3.839   7.478 -0.1833  0.5045 -0.1450
  622MOL0     C82035   6.250   3.977   7.472  0.5275 -1.1318 -0.5710
  622MOL0     C82036   6.294   4.091   7.457  0.3077 -0.2114 -0.5388
  622MOL0     C82037   5.948   3.520   7.069 -0.6373  0.4041 -1.5456
  622MOL0     C82038   5.822   3.463   7.048 -0.4900  0.2027  0.7370
  622MOL0     H82039   5.572   2.984   7.292  1.1406 -0.0059 -1.3834
  622MOL0     H82040   5.361   2.828   7.295 -3.5900 -1.4196 -0.7382
  622MOL0     H82041   5.118   2.722   7.283 -0.9113 -3.1896  0.0788
  622MOL0     H82042   5.245   2.665   7.158  1.0451  1.2275 -0.0262
  622MOL0     H82043   5.076   2.632   6.998 -3.4815 -2.5104 -0.3461
  622MOL0     H82044   4.961   2.726   7.097  1.0593  1.6384 -0.1865
  622MOL0     H82045   4.966   2.532   7.263  0.5062  1.5678 -0.1535
  622MOL0     H82046   5.070   2.440   7.149 -1.3196 -1.4876 -1.8935
  622MOL0     H82047   4.785   2.522   7.120  0.0600  1.9053 -2.5401
  622MOL0     H82048   4.877   2.444   6.987  0.0557  1.1357  0.1213
  622MOL0     H82049   4.834   2.319   7.261  1.1674 -0.8245  0.3454
  622MOL0     H82050   4.924   2.244   7.132 -1.1223 -2.0186 -0.4068
  622MOL0     H82051   4.698   2.228   7.000 -4.5152 -2.3499  0.1398
  622MOL0     H82052   4.628   2.267   7.159  1.6287 -0.4627  2.5052
  622MOL0     H82053   4.643   2.034   7.150  0.6588  0.0540 -1.5782
  622MOL0     H82054   4.804   2.020   7.079 -0.2471 -2.0193  0.4102
  622MOL0     H82055   4.729   2.090   7.368 -0.6759  0.7076 -1.0890
  622MOL0     H82056   4.894   2.051   7.290 -0.2831  0.6275 -2.5080
  622MOL0     H82057   4.913   1.830   7.162  0.4012 -0.8091  0.7429
  622MOL0     H82058   4.896   1.547   7.110  2.6743  0.2155  1.0396
  622MOL0     H82059   4.761   1.481   7.181 -0.0904 -0.4003  1.2402
  622MOL0     H82060   4.885   1.467   7.402 -0.7248 -0.2520 -0.7056
  622MOL0     H82061   5.023   1.546   7.314  0.7807 -1.4442 -0.7560
  622MOL0     H82062   4.930   1.250   7.252  1.2673 -0.7343 -0.8631
  622MOL0     H82063   5.061   1.341   7.182 -0.6505 -3.9168 -0.6003
  622MOL0     H82064   5.032   1.254   7.456 -0.2119  2.2247  0.4929
  622MOL0     H82065   5.163   1.361   7.399 -2.2141  2.7893 -0.7793
  622MOL0     H82066   5.292   1.042   7.133 -0.4349  1.1138 -0.9386
  622MOL0     H82067   5.515   1.046   7.096  0.4773 -0.9386  1.0933
  622MOL0     H82068   5.851   1.433   7.087 -1.4380  0.5173 -1.4032
  622MOL0     H82069   6.077   1.488   6.978 -0.8925 -0.0893  0.7386
  622MOL0     H82070   6.277   1.424   6.981 -2.0384 -0.8942 -0.0943
  622MOL0     H82071   6.313   1.503   6.826 -3.9323  0.4787  0.3655
  622MOL0     H82072   6.411   1.214   6.885  1.5798 -0.6174 -0.6235
  622MOL0     H82073   6.495   1.341   6.966 -0.7995  2.7270 -0.3429
  622MOL0     H82074   6.543   1.457   6.757  0.0223  0.3509 -0.3843
  622MOL0     H82075   6.473   1.330   6.658  0.4003 -1.9437  0.4847
  622MOL0     H82076   6.699   1.268   6.841 -1.2546  1.2473  0.7910
  622MOL0     H82077   6.618   1.169   6.715  2.1271 -0.7413  1.1639
  622MOL0     H82078   6.837   1.254   6.629 -0.5230 -0.7585  0.3893
  622MOL0     H82079   6.779   1.422   6.653 -3.8761  0.5097 -2.1607
  622MOL0     H82080   6.773   1.336   6.415 -1.3425 -2.7190 -2.8856
  622MOL0     H82081   6.623   1.401   6.477 -0.4446 -1.5620 -0.7212
  622MOL0     H82082   6.663   1.092   6.450  0.0770 -0.5395  0.9375
  622MOL0     H82083   6.514   1.197   6.493  0.2048  3.3647 -2.2315
  622MOL0     H82084   6.658   1.266   6.233 -3.0052  4.2668 -2.5777
  622MOL0     H82085   6.487   1.266   6.268  1.6304  1.6571  0.0666
  622MOL0     H82086   6.097   1.084   6.831  0.8378  0.1410  2.2171
  622MOL0     H82087   5.865   1.048   6.879 -2.8330  1.6142  0.0620
  622MOL0     H82088   5.589   1.284   7.439 -1.5375  0.0221  0.9724
  622MOL0     H82089   5.366   1.288   7.492 -1.4649 -2.7685  1.9385
  622MOL0     H82090   5.185   3.055   6.985  0.4486 -0.4431 -0.2454
  622MOL0     H82091   5.383   3.223   6.986  1.7031 -0.6233 -0.3863
  622MOL0     H82092   5.824   3.213   7.258  1.0575 -1.1886 -1.4092
  622MOL0     H82093   6.052   3.314   7.313  0.5874  0.2755 -1.1672
  622MOL0     H82094   6.366   3.547   7.254  1.0007 -3.3973  0.7031
  622MOL0     H82095   6.283   3.401   7.309  0.0660 -0.5247  1.3316
  622MOL0     H82096   6.118   3.566   7.423  0.3101  1.3361  2.3532
  622MOL0     H82097   6.286   3.576   7.481  1.7759  1.1417 -0.8793
  622MOL0     H82098   6.168   3.769   7.270 -0.4342  0.5090 -1.2721
  622MOL0     H82099   6.331   3.772   7.328  0.1305 -0.6768 -0.6791
  622MOL0     H82100   6.089   3.844   7.497 -0.2822  2.1724 -0.9726
  622MOL0     H82101   6.250   3.800   7.565  0.7030  1.7711 -0.0867
  622MOL0     H82102   6.340   4.187   7.446  1.0936 -0.8270 -3.8692
  622MOL0     H82103   5.980   3.606   7.012  2.0139  1.2106  0.9363
  622MOL0     H82104   5.767   3.501   6.962  0.3046 -0.7342 -0.2087
  623MOL0     O82105   1.583  10.744  10.105  0.3282  0.0361 -0.3557
  623MOL0     C82106   1.669  10.773  10.030 -0.3564 -0.6370  1.0610
  623MOL0     O82107   1.800  10.803  10.063  0.5359  0.8448 -0.0616
  623MOL0     C82108   1.842  10.786  10.194  0.3450 -0.6579  0.2041
  623MOL0     C82109   1.838  10.893  10.284 -1.0399 -0.1325 -0.1208
  623MOL0     C82110   1.900  10.884  10.401  0.8628  0.1915 -0.6407
  623MOL0     C82111   1.970  10.774  10.442  0.0499  0.0918  0.7955
  623MOL0     O82112   2.028  10.791  10.563 -0.3105 -0.5592 -0.2310
  623MOL0     C82113   2.049  10.669  10.633  0.2487  0.2976 -1.4885
  623MOL0     C82114   1.920  10.612  10.689  0.1694 -0.6562  0.1485
  623MOL0     C82115   1.940  10.522  10.814 -0.6960  0.6500 -0.1357
  623MOL0     C82116   1.966  10.600  10.946  1.1916  0.5475 -0.2315
  623MOL0     C82117   1.967  10.510  11.072  0.6008 -0.4515  0.8046
  623MOL0     C82118   1.940  10.599  11.191 -0.4532  0.3739  0.6180
  623MOL0     C82119   1.902  10.524  11.318 -0.0978  0.0946  0.4853
  623MOL0     C82120   1.842  10.626  11.416 -0.8099  0.2563 -0.1778
  623MOL0     N82121   1.807  10.556  11.543  1.3232 -1.7010  0.3772
  623MOL0     C82122   1.891  10.540  11.648 -0.2466  0.8469 -0.4786
  623MOL0     C82123   1.807  10.480  11.743  0.6022 -0.4307 -0.3523
  623MOL0     C82124   1.846  10.447  11.883 -0.3890  0.5267 -0.6508
  623MOL0     C82125   1.861  10.300  11.906 -0.3974  0.1035  0.3991
  623MOL0     C82126   1.725  10.222  11.923 -0.6726 -0.8116  0.1974
  623MOL0     C82127   1.686  10.139  11.803 -0.3105 -0.2875 -0.0927
  623MOL0     O82128   1.566  10.064  11.814 -0.0208  0.7798 -0.0855
  623MOL0     C82129   1.439  10.110  11.797  0.1872 -0.0660  0.0943
  623MOL0     C82130   1.399  10.241  11.768  0.6433  1.0405  0.0400
  623MOL0     C82131   1.266  10.285  11.756  0.7276  0.2384 -0.5997
  623MOL0     C82132   1.160  10.192  11.760 -0.4819 -0.1636 -0.2067
  623MOL0     C82133   1.021  10.230  11.748 -0.4515 -0.0771 -0.0670
  623MOL0     O82134   0.994  10.356  11.752  0.4205  0.3121  0.2240
  623MOL0     C82135   0.861  10.407  11.751 -0.1587 -0.2237  0.2910
  623MOL0     C82136   0.749  10.348  11.693 -0.2875  0.5073  0.2435
  623MOL0     C82137   0.623  10.402  11.717 -0.2046  0.2932  0.7370
  623MOL0     C82138   0.605  10.522  11.789 -0.0541 -0.5348  0.7006
  623MOL0     O82139   0.479  10.562  11.806 -0.1826 -0.3331  0.3122
  623MOL0     C82140   0.454  10.634  11.922  0.2645  0.0519  0.3641
  623MOL0     C82141   0.311  10.608  11.957 -1.4140 -0.5088 -1.2250
  623MOL0     C82142   0.261  10.666  12.083 -0.0123 -0.7333 -0.3929
  623MOL0     C82143   0.123  10.603  12.128 -0.3369 -1.0901 -1.3689
  623MOL0     C82144   0.059  10.674  12.262 -0.5895  1.1371  0.1321
  623MOL0     C82145   0.174  10.684  12.372 -0.3142 -0.1997 -0.7478
  623MOL0     C82146   0.131  10.718  12.511  0.4110  0.1073  0.1269
  623MOL0     C82147   0.238  10.721  12.620 -0.0580 -0.0979  0.7912
  623MOL0    Cl82148   0.286  10.556  12.661 -0.2672  0.2015  0.0959
  623MOL0     C82149   0.725  10.582  11.836 -0.3429  0.6043 -0.3428
  623MOL0     C82150   0.848  10.525  11.828 -0.3381  0.3942 -0.8171
  623MOL0     O82151   0.933  10.140  11.733  0.4576  0.0827 -0.2573
  623MOL0     C82152   1.197  10.054  11.771  0.3173  1.1987 -0.0260
  623MOL0     C82153   1.333  10.009  11.789  0.4120  0.5987  0.2022
  623MOL0     N82154   1.676  10.473  11.691 -0.6342  0.2420 -0.1945
  623MOL0     N82155   1.679  10.522  11.575 -0.0775 -0.3216 -0.1547
  623MOL0     C82156   1.967  10.660  10.358 -0.0815 -0.3486 -0.5679
  623MOL0     C82157   1.913  10.667  10.232  0.2010  0.2650 -0.4710
  623MOL0     C82158   1.640  10.774   9.887  0.1140  0.7183  0.1776
  623MOL0     C82159   1.507  10.766   9.850 -0.0827  0.4254  0.6741
  623MOL0     C82160   1.478  10.759   9.712  0.0322 -0.1735  1.8082
  623MOL0     C82161   1.572  10.766   9.610 -0.2585 -0.6255  0.7042
  623MOL0     O82162   1.552  10.752   9.474 -0.1888  0.7980  0.2397
  623MOL0     C82163   1.473  10.853   9.416  0.7417  0.6169 -0.2154
  623MOL0     C82164   1.424  10.812   9.280  0.9521  0.2156  0.4064
  623MOL0     C82165   1.318  10.909   9.222 -0.6081  0.2660 -0.9890
  623MOL0     C82166   1.345  11.069   9.229  0.1162 -0.1071  0.0666
  623MOL0     C82167   1.470  11.119   9.185 -0.0169  0.1857 -0.5711
  623MOL0     C82168   1.580  11.156   9.142 -0.1745  0.7309  0.4421
  623MOL0     C82169   1.709  10.775   9.653  0.4463  0.4303 -0.4514
  623MOL0     C82170   1.743  10.785   9.788 -0.1727  0.4795 -0.2131
  623MOL0     H82171   1.795  10.989  10.253 -0.7178 -1.0586 -3.9256
  623MOL0     H82172   1.908  10.972  10.463  1.5987  1.7004 -2.7580
  623MOL0     H82173   2.122  10.694  10.711  0.0351 -2.1014 -0.4291
  623MOL0     H82174   2.092  10.588  10.573  1.1022 -0.8505  0.5545
  623MOL0     H82175   1.857  10.570  10.610 -0.7223  2.4179 -0.8980
  623MOL0     H82176   1.858  10.694  10.727 -4.8335 -2.8018 -2.3901
  623MOL0     H82177   2.019  10.448  10.804 -2.3548 -1.3187  0.5536
  623MOL0     H82178   1.847  10.466  10.827 -1.8013  2.4710  0.2973
  623MOL0     H82179   2.054  10.664  10.942  1.5321  0.4836  3.2157
  623MOL0     H82180   1.884  10.670  10.962  1.0189  1.3116 -3.8057
  623MOL0     H82181   2.064  10.461  11.080  0.8252 -0.3667 -0.9952
  623MOL0     H82182   1.887  10.440  11.046 -0.4593  0.2446  2.0773
  623MOL0     H82183   1.862  10.672  11.166  0.7425  1.2533 -0.6164
  623MOL0     H82184   2.031  10.652  11.218  0.0586 -1.0252  1.7637
  623MOL0     H82185   1.824  10.451  11.295 -1.6216  2.0028 -0.8743
  623MOL0     H82186   1.994  10.481  11.358  0.4051 -1.5487 -2.2160
  623MOL0     H82187   1.760  10.678  11.365 -1.7782 -0.0980  0.9494
  623MOL0     H82188   1.911  10.710  11.429 -1.5981  0.5826  2.5210
  623MOL0     H82189   1.994  10.576  11.651 -0.4572  1.4193  2.4733
  623MOL0     H82190   1.760  10.489  11.936 -0.5893 -0.5912 -0.0552
  623MOL0     H82191   1.940  10.498  11.907 -0.4813  0.0640  0.8433
  623MOL0     H82192   1.920  10.288  11.997  1.1934 -0.4361 -0.6757
  623MOL0     H82193   1.917  10.257  11.823 -0.4381  0.7830  0.0096
  623MOL0     H82194   1.717  10.172  12.020 -3.9968  2.8419  2.1141
  623MOL0     H82195   1.641  10.291  11.935 -1.3428 -1.1750 -1.9738
  623MOL0     H82196   1.771  10.076  11.774 -1.3609 -1.9605  0.3655
  623MOL0     H82197   1.668  10.205  11.717 -0.2124  0.6799  0.6211
  623MOL0     H82198   1.472  10.317  11.743  0.8177  1.0973  0.6838
  623MOL0     H82199   1.252  10.388  11.724  1.7602  0.7156  0.4344
  623MOL0     H82200   0.747  10.261  11.627 -0.1306  0.1822  0.6610
  623MOL0     H82201   0.534  10.359  11.671  0.1301 -0.8637  1.1244
  623MOL0     H82202   0.466  10.742  11.916  3.4172 -0.2478 -0.5062
  623MOL0     H82203   0.525  10.597  11.997  2.7936  1.6803 -1.1033
  623MOL0     H82204   0.302  10.500  11.973 -1.4699 -0.2313  0.7634
  623MOL0     H82205   0.247  10.645  11.876 -1.1825  2.9855  0.0159
  623MOL0     H82206   0.241  10.773  12.073 -3.4164 -1.0036  1.8900
  623MOL0     H82207   0.334  10.657  12.164 -0.4307  2.4548  0.4669
  623MOL0     H82208   0.037  10.613  12.061 -2.2416 -2.7131  0.6875
  623MOL0     H82209   0.141  10.496  12.142 -1.2665 -1.4069 -2.4616
  623MOL0     H82210  -0.032  10.619  12.289 -0.6450  1.9148  1.6355
  623MOL0     H82211   0.021  10.770  12.226 -1.6652  0.1747 -1.4620
  623MOL0     H82212   0.237  10.765  12.333  1.0687 -2.5877 -3.9386
  623MOL0     H82213   0.236  10.594  12.374 -1.1661 -0.8574  2.5564
  623MOL0     H82214   0.084  10.818  12.514 -0.7380 -0.3277 -1.8091
  623MOL0     H82215   0.055  10.650  12.549  1.7127 -1.3638  0.1642
  623MOL0     H82216   0.200  10.778  12.705  1.5354  2.2022  0.0627
  623MOL0     H82217   0.320  10.768  12.565 -1.4626  2.9306  1.0681
  623MOL0     H82218   0.704  10.677  11.885 -0.2208  1.3275 -1.6716
  623MOL0     H82219   0.927  10.564  11.891 -0.2477 -1.9392  0.6500
  623MOL0     H82220   1.117   9.980  11.766  0.4814  0.9244  1.1830
  623MOL0     H82221   1.359   9.904  11.798 -1.1747  0.2921  1.9441
  623MOL0     H82222   2.018  10.570  10.390  1.0480  0.4448 -0.0907
  623MOL0     H82223   1.916  10.582  10.164  3.5996 -2.4015  2.6205
  623MOL0     H82224   1.423  10.758   9.919  0.8967 -1.2860  1.7346
  623MOL0     H82225   1.377  10.751   9.673  2.2988  0.1790 -5.6612
  623MOL0     H82226   1.544  10.936   9.416  0.6487  0.6957 -0.4212
  623MOL0     H82227   1.384  10.871   9.478  1.0890  0.2599  0.4039
  623MOL0     H82228   1.511  10.815   9.214  0.1504  2.1431 -0.6553
  623MOL0     H82229   1.369  10.718   9.292 -1.6623  1.4285 -1.1392
  623MOL0     H82230   1.219  10.889   9.265  0.4292  0.3788  1.6775
  623MOL0     H82231   1.316  10.887   9.115 -0.1996 -3.0343 -0.4246
  623MOL0     H82232   1.276  11.115   9.158 -0.2388 -1.1864 -0.3145
  623MOL0     H82233   1.329  11.093   9.335  1.5239 -0.6795  0.4220
  623MOL0     H82234   1.667  11.195   9.095 -0.9371  1.8663 -0.0660
  623MOL0     H82235   1.795  10.784   9.588  2.9744  2.6791  2.8723
  623MOL0     H82236   1.849  10.798   9.811 -0.2213  2.2683 -0.8653
  624MOL0     O82237   8.051   4.450   0.746 -0.4987  0.2763 -0.1954
  624MOL0     C82238   8.145   4.525   0.784  0.3685 -0.2331 -0.5022
  624MOL0     O82239   8.132   4.642   0.863 -0.4282  0.0184  0.5506
  624MOL0     C82240   8.008   4.696   0.882  0.2925 -0.0062 -0.8075
  624MOL0     C82241   7.906   4.626   0.952  0.3363 -0.8091 -0.1521
  624MOL0     C82242   7.789   4.688   0.987 -0.3433 -0.9963  0.2002
  624MOL0     C82243   7.769   4.820   0.933  0.1539  0.1759  0.0661
  624MOL0     O82244   7.642   4.875   0.932 -0.0548  0.3905 -0.6694
  624MOL0     C82245   7.616   4.962   0.817  0.0416  0.2274  0.0684
  624MOL0     C82246   7.460   4.972   0.810 -0.7574 -1.3683  0.4481
  624MOL0     C82247   7.416   4.999   0.673  0.0538 -0.7030  0.2691
  624MOL0     C82248   7.502   5.108   0.601  0.3993 -0.6350  0.7453
  624MOL0     C82249   7.439   5.178   0.482  0.0397  0.0378 -0.5175
  624MOL0     C82250   7.530   5.293   0.442  0.3380 -1.0861 -0.3236
  624MOL0     C82251   7.511   5.426   0.521 -0.7327 -0.0753  0.2778
  624MOL0     C82252   7.452   5.531   0.433  0.1249 -0.6949 -0.1048
  624MOL0     N82253   7.424   5.654   0.495 -0.0985 -0.0490 -0.9726
  624MOL0     C82254   7.329   5.686   0.591 -0.3725  0.0358 -0.0686
  624MOL0     C82255   7.362   5.806   0.653  0.4418 -0.7350  0.1787
  624MOL0     C82256   7.291   5.877   0.759  0.9554 -1.0919  0.3595
  624MOL0     C82257   7.335   5.818   0.896 -0.2083 -0.7977  0.4562
  624MOL0     C82258   7.232   5.837   1.004  0.4774 -0.1162 -0.6382
  624MOL0     C82259   7.207   5.976   1.047 -0.3999  0.5053 -0.3345
  624MOL0     O82260   7.332   6.051   1.051  0.3998  0.2206 -0.3741
  624MOL0     C82261   7.317   6.179   1.092 -0.9041  0.0753  0.1636
  624MOL0     C82262   7.221   6.259   1.043 -1.2643 -0.8133  0.9197
  624MOL0     C82263   7.217   6.395   1.077  0.2594  0.4957  0.4008
  624MOL0     C82264   7.306   6.446   1.170  0.4887 -0.2526  0.8726
  624MOL0     C82265   7.302   6.578   1.234  0.1747 -0.0278  0.4472
  624MOL0     O82266   7.386   6.607   1.339 -0.5908 -0.4432  0.8804
  624MOL0     C82267   7.382   6.738   1.380 -0.5448  0.0340 -1.2414
  624MOL0     C82268   7.505   6.820   1.378  0.1222  0.1350  0.5528
  624MOL0     C82269   7.510   6.955   1.405  0.0461 -0.0251  0.4840
  624MOL0     C82270   7.400   7.027   1.454 -0.1001  0.1752  0.1551
  624MOL0     O82271   7.393   7.152   1.503  0.7780 -0.4626 -0.0088
  624MOL0     C82272   7.519   7.214   1.551 -0.3396  0.1320  0.9627
  624MOL0     C82273   7.499   7.356   1.620 -0.3457 -0.0490 -0.0601
  624MOL0     C82274   7.485   7.334   1.770 -0.4902 -0.0425 -0.0024
  624MOL0     C82275   7.556   7.453   1.852  0.9256  1.3758  0.0397
  624MOL0     C82276   7.535   7.430   2.005 -0.6668 -0.7745 -0.6019
  624MOL0     C82277   7.396   7.424   2.035  1.3366 -0.1017 -0.0678
  624MOL0     C82278   7.376   7.448   2.194  0.3166 -0.5539 -0.2457
  624MOL0     C82279   7.246   7.409   2.250 -0.3016  0.0796  0.0069
  624MOL0    Cl82280   7.242   7.429   2.425 -0.6568  0.1162  0.0311
  624MOL0     C82281   7.283   6.947   1.458 -0.4334  0.2556 -0.0907
  624MOL0     C82282   7.271   6.810   1.417 -0.1795 -0.4894  0.2299
  624MOL0     O82283   7.220   6.660   1.186 -0.0628 -0.2035  0.2075
  624MOL0     C82284   7.411   6.360   1.217  0.0138 -0.0082  0.4923
  624MOL0     C82285   7.416   6.230   1.176  0.6290 -0.2066 -0.3732
  624MOL0     N82286   7.463   5.857   0.568  0.0167  0.7364  0.0333
  624MOL0     N82287   7.500   5.765   0.483 -0.1753  0.8475 -0.6200
  624MOL0     C82288   7.874   4.887   0.871  0.4056 -0.3157  0.0427
  624MOL0     C82289   7.991   4.826   0.843 -0.3014 -0.0201 -0.6989
  624MOL0     C82290   8.285   4.483   0.757  1.2132  0.0216  0.5117
  624MOL0     C82291   8.313   4.367   0.688  0.3182  0.7437 -0.0868
  624MOL0     C82292   8.441   4.312   0.680  0.1890 -0.1058  0.1904
  624MOL0     C82293   8.545   4.375   0.724 -0.1435 -0.3208 -1.4311
  624MOL0     O82294   8.668   4.320   0.700 -0.0089  0.0171  0.2192
  624MOL0     C82295   8.786   4.404   0.733  0.4604  0.1721  0.1401
  624MOL0     C82296   8.828   4.487   0.623  0.0517  0.8401 -0.2663
  624MOL0     C82297   8.860   4.416   0.492 -0.4992  0.2341 -0.1148
  624MOL0     C82298   8.928   4.522   0.401  0.7502 -0.6725 -0.3545
  624MOL0     C82299   8.812   4.611   0.356 -0.6915 -1.2363  0.2241
  624MOL0     C82300   8.726   4.685   0.316 -0.5369 -0.0033  0.5153
  624MOL0     C82301   8.523   4.503   0.786 -0.0863  0.4049  0.0370
  624MOL0     C82302   8.392   4.545   0.809  0.5150 -0.7241 -0.5282
  624MOL0     H82303   7.912   4.522   0.983 -2.3644 -0.5794  1.4355
  624MOL0     H82304   7.715   4.638   1.048 -0.4477 -1.1505 -0.0512
  624MOL0     H82305   7.658   4.914   0.729 -1.0675  1.8567 -1.4235
  624MOL0     H82306   7.660   5.060   0.836  1.7217 -0.8047  1.9402
  624MOL0     H82307   7.438   5.058   0.874 -4.8747 -0.6901 -1.5130
  624MOL0     H82308   7.417   4.877   0.841 -2.2401 -0.4339  1.3689
  624MOL0     H82309   7.315   5.039   0.685  0.4606 -0.1138  2.2223
  624MOL0     H82310   7.405   4.911   0.609 -1.6410  0.9321 -1.8349
  624MOL0     H82311   7.538   5.191   0.662  1.0293  1.3012 -2.0561
  624MOL0     H82312   7.592   5.054   0.569  1.4969  1.0758  0.8040
  624MOL0     H82313   7.343   5.208   0.523 -0.2585 -2.8122  1.1769
  624MOL0     H82314   7.422   5.113   0.396  0.0726 -2.1575  1.0656
  624MOL0     H82315   7.520   5.313   0.335 -0.3912 -0.9664 -0.2405
  624MOL0     H82316   7.635   5.271   0.462  0.9876  0.7679 -1.4555
  624MOL0     H82317   7.452   5.411   0.612 -2.8186 -0.0859 -1.0159
  624MOL0     H82318   7.605   5.468   0.557 -0.0485 -0.2535 -1.2293
  624MOL0     H82319   7.366   5.492   0.377 -1.0099  1.7288 -0.2116
  624MOL0     H82320   7.536   5.545   0.365  1.5058 -1.4946  1.3764
  624MOL0     H82321   7.254   5.612   0.616  0.4369 -1.1291 -0.9746
  624MOL0     H82322   7.183   5.876   0.741  0.9699  0.2755  0.1103
  624MOL0     H82323   7.323   5.981   0.755  0.7229 -1.0584 -2.3367
  624MOL0     H82324   7.434   5.850   0.929  0.2494 -0.1697 -1.4392
  624MOL0     H82325   7.341   5.708   0.893 -2.8636 -1.2473  4.2311
  624MOL0     H82326   7.137   5.790   0.979 -0.1321  0.2239  0.9074
  624MOL0     H82327   7.263   5.779   1.091 -1.6326  0.9299  0.9028
  624MOL0     H82328   7.156   5.979   1.144  1.9229 -0.1659  0.9935
  624MOL0     H82329   7.141   6.026   0.976 -0.4042 -0.2387 -0.8687
  624MOL0     H82330   7.150   6.237   0.963 -2.3007  3.9664  0.1958
  624MOL0     H82331   7.144   6.464   1.037 -1.0435 -0.9229  0.2207
  624MOL0     H82332   7.588   6.762   1.337 -0.4803 -1.0731  0.9818
  624MOL0     H82333   7.594   7.014   1.369 -1.2382  0.4409 -1.9499
  624MOL0     H82334   7.578   7.219   1.459  0.8196 -1.7561  1.5276
  624MOL0     H82335   7.571   7.144   1.618  0.9217 -3.6145 -3.3802
  624MOL0     H82336   7.409   7.410   1.587 -0.7479  0.8322  2.2921
  624MOL0     H82337   7.591   7.412   1.602  1.9411 -2.6147  2.6425
  624MOL0     H82338   7.530   7.240   1.803 -0.8051 -0.1354  0.1661
  624MOL0     H82339   7.376   7.329   1.782 -0.6476  3.5207  1.1201
  624MOL0     H82340   7.662   7.465   1.827  1.0567 -0.3217 -0.3332
  624MOL0     H82341   7.497   7.541   1.823  0.5954  0.7401 -1.2847
  624MOL0     H82342   7.585   7.515   2.053  1.4367 -1.9103 -0.6851
  624MOL0     H82343   7.579   7.336   2.041 -4.6739 -1.7931  2.4545
  624MOL0     H82344   7.359   7.324   2.010 -0.2202 -0.4410  3.0784
  624MOL0     H82345   7.332   7.498   1.986 -0.3288 -1.3068  0.1992
  624MOL0     H82346   7.454   7.398   2.252 -0.4200 -2.2801 -0.6903
  624MOL0     H82347   7.387   7.556   2.208 -0.4058 -0.8572  4.1290
  624MOL0     H82348   7.208   7.309   2.232 -2.0428  0.7122 -0.0459
  624MOL0     H82349   7.167   7.472   2.208 -2.7722 -3.7396 -1.5553
  624MOL0     H82350   7.190   6.990   1.491 -1.3732 -1.1442 -0.8241
  624MOL0     H82351   7.174   6.763   1.409 -0.1319 -0.3621 -1.6488
  624MOL0     H82352   7.482   6.405   1.286  0.2348  1.2665 -0.5219
  624MOL0     H82353   7.482   6.164   1.231 -2.2731 -0.0240  3.8258
  624MOL0     H82354   7.857   4.989   0.836 -2.8650 -2.0755 -4.5696
  624MOL0     H82355   8.075   4.881   0.802  0.8771 -1.1346  0.1457
  624MOL0     H82356   8.233   4.297   0.665  1.1943  0.3228 -1.9384
  624MOL0     H82357   8.459   4.218   0.628  0.0584 -0.8797  1.4887
  624MOL0     H82358   8.865   4.332   0.758  0.3037 -0.7696 -1.9066
  624MOL0     H82359   8.775   4.455   0.829  0.4087  1.7257 -0.6605
  624MOL0     H82360   8.753   4.566   0.611  0.2718  1.5150  2.2916
  624MOL0     H82361   8.919   4.539   0.652  0.6965 -1.2780  1.8033
  624MOL0     H82362   8.763   4.378   0.460 -2.2717  1.6619  3.0713
  624MOL0     H82363   8.927   4.333   0.517 -2.2609 -0.7023  1.7619
  624MOL0     H82364   9.012   4.581   0.438  0.6484  0.6352 -2.0793
  624MOL0     H82365   8.966   4.471   0.312  1.9701  0.8854 -0.7741
  624MOL0     H82366   8.650   4.747   0.273 -0.0320  0.1217 -0.2219
  624MOL0     H82367   8.602   4.567   0.824  0.7423 -0.1484 -0.7358
  624MOL0     H82368   8.384   4.639   0.863 -0.7403 -2.6443  3.0091
  625MOL0     O82369   0.008   6.803   6.898 -0.1946 -0.1404  0.5983
  625MOL0     C82370  -0.036   6.918   6.871 -0.7359 -0.0285  0.4253
  625MOL0     O82371   0.015   7.038   6.919  1.3512 -0.5830  0.3293
  625MOL0     C82372   0.104   7.009   7.022 -0.2546  0.3398  0.8009
  625MOL0     C82373   0.241   6.988   6.990  0.4925  1.0101  0.2017
  625MOL0     C82374   0.334   6.944   7.088  0.1195 -0.1447 -0.8704
  625MOL0     C82375   0.290   6.958   7.226 -0.0703  0.4844  0.8174
  625MOL0     O82376   0.378   6.918   7.318 -0.0253 -0.6108 -0.3016
  625MOL0     C82377   0.408   6.998   7.434  0.2285  0.1344 -0.0175
  625MOL0     C82378   0.540   7.086   7.413  0.1600 -0.9860 -0.0640
  625MOL0     C82379   0.663   7.011   7.468 -0.1958 -0.5426  0.8286
  625MOL0     C82380   0.801   7.078   7.444  0.4841  0.2246  0.4611
  625MOL0     C82381   0.931   7.033   7.521  0.9424 -0.0086  0.0827
  625MOL0     C82382   0.958   6.892   7.495  0.2246  0.8513  0.6687
  625MOL0     C82383   1.073   6.846   7.584  0.0824 -0.9751  0.1236
  625MOL0     C82384   1.206   6.915   7.564  0.6004  0.1065 -0.7102
  625MOL0     N82385   1.318   6.868   7.651  0.4991 -0.4313  0.4432
  625MOL0     C82386   1.413   6.770   7.622  0.4764 -0.6848  0.4418
  625MOL0     C82387   1.486   6.751   7.730 -0.2424 -0.7780 -0.2947
  625MOL0     C82388   1.597   6.650   7.741 -1.1034 -0.5380  0.2873
  625MOL0     C82389   1.719   6.722   7.798  0.0621 -0.5590  0.5562
  625MOL0     C82390   1.825   6.636   7.873 -0.1296 -0.4878  0.6630
  625MOL0     C82391   1.948   6.724   7.892  0.6782 -0.0612  0.4887
  625MOL0     O82392   2.067   6.660   7.960 -0.0267  0.0178 -0.4275
  625MOL0     C82393   2.176   6.618   7.882  0.2388 -0.0429  0.0025
  625MOL0     C82394   2.164   6.585   7.745  0.0726 -0.1934 -0.4743
  625MOL0     C82395   2.277   6.541   7.667 -0.2386 -0.1968 -0.2568
  625MOL0     C82396   2.399   6.526   7.736 -0.8866 -0.9124  0.3572
  625MOL0     C82397   2.518   6.479   7.667 -0.2049 -0.4546  0.0549
  625MOL0     O82398   2.638   6.518   7.717 -0.8014 -0.5340  0.0519
  625MOL0     C82399   2.743   6.461   7.652  0.2532  0.1894  0.7912
  625MOL0     C82400   2.807   6.530   7.546 -0.0661  1.1102  0.1851
  625MOL0     C82401   2.904   6.454   7.481  0.8263  0.2553  0.5211
  625MOL0     C82402   2.948   6.325   7.519  0.7429 -0.1274 -0.4995
  625MOL0     O82403   3.043   6.274   7.439 -1.1281 -0.9322 -0.5398
  625MOL0     C82404   3.104   6.156   7.477  0.3266  0.4974  0.0862
  625MOL0     C82405   3.233   6.135   7.397  0.5253  0.5908 -0.7327
  625MOL0     C82406   3.338   6.244   7.424  0.0942 -1.0131 -0.4601
  625MOL0     C82407   3.449   6.273   7.320 -0.5063  0.5491 -0.3561
  625MOL0     C82408   3.496   6.426   7.312  0.2460 -0.2517  0.4103
  625MOL0     C82409   3.545   6.471   7.446  0.3210 -0.6792  0.1677
  625MOL0     C82410   3.616   6.607   7.443 -0.7486  0.1215 -0.4310
  625MOL0     C82411   3.684   6.628   7.576 -0.4939 -0.5536 -0.5564
  625MOL0    Cl82412   3.810   6.518   7.628  0.5269  0.1657 -0.2760
  625MOL0     C82413   2.892   6.267   7.631  0.4706  0.9245  1.1898
  625MOL0     C82414   2.786   6.334   7.700  0.4674  0.9697  0.1489
  625MOL0     O82415   2.512   6.404   7.567  0.0923  0.2251 -0.3871
  625MOL0     C82416   2.409   6.556   7.876 -0.6571 -0.5892  0.7303
  625MOL0     C82417   2.297   6.597   7.943  0.1284 -0.0723  0.2285
  625MOL0     N82418   1.429   6.830   7.828 -0.0294 -0.4536  0.6556
  625MOL0     N82419   1.341   6.903   7.777  1.2273  0.5807 -0.2183
  625MOL0     C82420   0.155   6.994   7.263  0.1047  0.0600  0.2856
  625MOL0     C82421   0.064   7.020   7.157  0.5649 -0.1781 -1.0631
  625MOL0     C82422  -0.150   6.909   6.770  1.0141 -0.1864 -0.1308
  625MOL0     C82423  -0.181   7.005   6.674 -0.5564 -0.1502  0.0293
  625MOL0     C82424  -0.294   7.001   6.596  0.1474  0.2110 -0.2593
  625MOL0     C82425  -0.387   6.903   6.607  0.6378 -0.6916  0.2380
  625MOL0     O82426  -0.500   6.911   6.529  0.0346 -0.3281 -0.3997
  625MOL0     C82427  -0.554   6.793   6.472 -0.1902  0.7284 -0.7658
  625MOL0     C82428  -0.648   6.851   6.368 -0.7925  0.1273 -0.1881
  625MOL0     C82429  -0.778   6.892   6.430 -0.3825  0.2423 -0.6811
  625MOL0     C82430  -0.847   7.001   6.350 -0.8573  0.1241 -0.3769
  625MOL0     C82431  -0.929   6.933   6.252  0.0186 -0.0911 -0.0927
  625MOL0     C82432  -0.996   6.869   6.173  0.3839  0.9138 -0.3233
  625MOL0     C82433  -0.361   6.798   6.702 -0.8783  0.5848 -0.4974
  625MOL0     C82434  -0.244   6.799   6.773 -1.0683  0.3788 -0.5288
  625MOL0     H82435   0.285   6.986   6.891  7.0494 -6.6112  2.2566
  625MOL0     H82436   0.438   6.920   7.069  0.5044 -0.7040  1.6204
  625MOL0     H82437   0.421   6.925   7.515 -1.2558  1.3624  1.4006
  625MOL0     H82438   0.323   7.060   7.463 -0.8163 -0.9854 -0.5674
  625MOL0     H82439   0.525   7.182   7.461  0.7326 -1.9217  2.0878
  625MOL0     H82440   0.559   7.105   7.307  1.3776 -3.4190 -0.3560
  625MOL0     H82441   0.654   6.911   7.424  0.1111 -0.7801  1.3025
  625MOL0     H82442   0.655   6.997   7.576 -0.0662  0.2511  0.9463
  625MOL0     H82443   0.833   7.068   7.340 -4.5547  2.1609 -1.5627
  625MOL0     H82444   0.791   7.183   7.475 -3.7758  0.3465 -0.7068
  625MOL0     H82445   0.922   7.061   7.626  2.7675 -1.3458  0.6419
  625MOL0     H82446   1.015   7.090   7.481 -0.7311  3.4253  1.0273
  625MOL0     H82447   0.982   6.883   7.389  1.1708  0.1114  0.9288
  625MOL0     H82448   0.869   6.836   7.526 -0.1780  1.0223 -0.1619
  625MOL0     H82449   1.043   6.873   7.686  0.8797  2.4444 -0.4395
  625MOL0     H82450   1.092   6.739   7.567 -0.5977 -1.1382  0.3485
  625MOL0     H82451   1.191   7.022   7.584  0.6036  0.0432 -0.3625
  625MOL0     H82452   1.230   6.909   7.457  1.1270  2.7319 -0.8034
  625MOL0     H82453   1.435   6.732   7.523 -1.9807  0.1807 -0.5251
  625MOL0     H82454   1.613   6.619   7.637 -0.9545  1.4328 -0.3162
  625MOL0     H82455   1.573   6.569   7.811  0.5366  0.5117  2.1425
  625MOL0     H82456   1.696   6.804   7.868  3.1359 -0.2051  1.2908
  625MOL0     H82457   1.774   6.760   7.712  0.8210 -1.9715  0.3927
  625MOL0     H82458   1.774   6.613   7.967 -1.5314  2.1290  0.6450
  625MOL0     H82459   1.848   6.551   7.809  0.9746 -1.2390  2.0055
  625MOL0     H82460   1.915   6.812   7.949 -1.2958 -1.5354  1.7582
  625MOL0     H82461   1.981   6.767   7.798 -0.3648  3.1885  1.4667
  625MOL0     H82462   2.073   6.588   7.686 -0.6760  1.0155  0.6622
  625MOL0     H82463   2.263   6.516   7.562 -1.1273  3.7002 -1.2518
  625MOL0     H82464   2.792   6.632   7.511  1.2713  1.4195  0.4629
  625MOL0     H82465   2.946   6.495   7.389  2.1652  0.0751  1.0304
  625MOL0     H82466   3.037   6.073   7.452  2.5919 -1.5065  0.2699
  625MOL0     H82467   3.129   6.157   7.584  1.8016 -1.2372 -0.1916
  625MOL0     H82468   3.204   6.133   7.292 -2.1360 -0.0354 -0.0461
  625MOL0     H82469   3.281   6.042   7.428 -0.1892  0.8361  1.2727
  625MOL0     H82470   3.392   6.232   7.519  0.8571 -0.5036 -0.8187
  625MOL0     H82471   3.280   6.334   7.445 -2.8630 -2.7574 -0.4850
  625MOL0     H82472   3.538   6.212   7.339 -2.6082 -1.4992  4.7559
  625MOL0     H82473   3.417   6.241   7.221  2.9126  1.6753 -1.9885
  625MOL0     H82474   3.430   6.500   7.266 -2.3583 -1.6656  1.6469
  625MOL0     H82475   3.575   6.412   7.237 -1.6832 -1.6476 -1.4893
  625MOL0     H82476   3.612   6.391   7.480 -0.1161 -1.8538 -1.5610
  625MOL0     H82477   3.464   6.490   7.517  0.3794  0.4848 -0.0653
  625MOL0     H82478   3.680   6.617   7.355 -0.4201  1.2698 -0.0764
  625MOL0     H82479   3.546   6.690   7.448 -0.1844  0.5625  0.4398
  625MOL0     H82480   3.602   6.631   7.649  0.0800 -0.1692  0.0896
  625MOL0     H82481   3.723   6.729   7.590 -2.0852 -0.2308  2.3247
  625MOL0     H82482   2.920   6.170   7.669  0.3372  0.5565  0.3715
  625MOL0     H82483   2.728   6.276   7.771 -1.0379  0.3087 -1.5355
  625MOL0     H82484   2.500   6.541   7.933 -2.6942 -3.0772  3.6774
  625MOL0     H82485   2.294   6.620   8.049  0.3661  0.4504  0.1265
  625MOL0     H82486   0.128   6.988   7.368 -0.6336  0.3672  0.1247
  625MOL0     H82487  -0.043   7.023   7.173  0.9703 -0.5961  2.3794
  625MOL0     H82488  -0.104   7.080   6.660  0.0918 -0.4779  1.5923
  625MOL0     H82489  -0.314   7.077   6.522 -0.6965 -0.5137 -0.8047
  625MOL0     H82490  -0.607   6.739   6.552  2.7630  0.2556  1.0089
  625MOL0     H82491  -0.472   6.734   6.431 -0.6019 -1.6900  1.6231
  625MOL0     H82492  -0.597   6.932   6.314  3.2869 -1.1406  1.3871
  625MOL0     H82493  -0.658   6.778   6.288  2.3005  0.9581 -1.4699
  625MOL0     H82494  -0.758   6.937   6.528 -2.9539  2.1197 -0.8991
  625MOL0     H82495  -0.846   6.808   6.449 -1.7563  1.3156 -0.6706
  625MOL0     H82496  -0.911   7.058   6.418  0.3833 -0.3648  1.2416
  625MOL0     H82497  -0.775   7.056   6.288 -2.0760 -0.9240 -2.8854
  625MOL0     H82498  -1.061   6.799   6.125  1.6110  0.4426 -1.3523
  625MOL0     H82499  -0.433   6.717   6.708 -1.5187  1.0310 -1.6940
  625MOL0     H82500  -0.231   6.711   6.836 -2.0708  0.2110 -0.5353
  626MOL0     O82501   9.159   2.995   7.429 -0.9311 -0.0610  0.6734
  626MOL0     C82502   9.281   3.007   7.434  0.5767 -0.1033  0.3811
  626MOL0     O82503   9.343   3.129   7.425  0.1179  0.3843  0.2616
  626MOL0     C82504   9.264   3.241   7.433 -0.2301 -1.1260 -0.2556
  626MOL0     C82505   9.283   3.322   7.549  0.2508 -0.2064  0.5988
  626MOL0     C82506   9.208   3.441   7.551 -0.4927  0.5222  0.9324
  626MOL0     C82507   9.114   3.484   7.455 -0.6040 -0.3619  0.1111
  626MOL0     O82508   9.049   3.607   7.471 -0.3795 -0.5783 -0.0781
  626MOL0     C82509   8.983   3.653   7.353 -0.3714 -0.3958 -0.8347
  626MOL0     C82510   8.965   3.808   7.365 -0.9746 -0.4756  0.0482
  626MOL0     C82511   8.862   3.845   7.473 -0.6518  0.2964  0.8014
  626MOL0     C82512   8.831   4.001   7.463  0.4524  0.0009  0.0910
  626MOL0     C82513   8.756   4.054   7.583 -0.5976  0.5720 -0.1603
  626MOL0     C82514   8.740   4.213   7.579  0.5740 -0.2816  0.7502
  626MOL0     C82515   8.698   4.278   7.712  0.0060 -0.3225  0.1993
  626MOL0     C82516   8.653   4.188   7.834 -0.4927  0.8094 -0.0729
  626MOL0     N82517   8.514   4.163   7.811  0.6683  0.7900 -0.2379
  626MOL0     C82518   8.412   4.259   7.797 -0.4279 -0.1546 -0.2348
  626MOL0     C82519   8.307   4.182   7.761  0.0009 -0.8451  0.3824
  626MOL0     C82520   8.157   4.206   7.732  0.2614  0.5881  0.4783
  626MOL0     C82521   8.073   4.068   7.716 -0.6499  0.1242  0.2466
  626MOL0     C82522   7.945   4.081   7.656  0.3056  0.3709 -0.1294
  626MOL0     C82523   7.836   4.124   7.743  0.7115 -0.4361  0.5138
  626MOL0     O82524   7.853   4.250   7.800 -0.4169 -0.7455 -0.2297
  626MOL0     C82525   7.801   4.275   7.926 -0.5724  0.5274  0.9066
  626MOL0     C82526   7.695   4.201   7.987 -1.1013  0.0148  0.2116
  626MOL0     C82527   7.653   4.247   8.113 -0.5154  0.5859  0.7719
  626MOL0     C82528   7.704   4.358   8.186  1.2086  0.6631  0.8690
  626MOL0     C82529   7.650   4.394   8.321  0.6615 -1.2097  1.1061
  626MOL0     O82530   7.532   4.343   8.358  0.3042  0.5609  0.0879
  626MOL0     C82531   7.470   4.342   8.484 -0.3807 -0.4193 -0.2856
  626MOL0     C82532   7.334   4.297   8.504 -0.9344 -0.4452  0.3520
  626MOL0     C82533   7.272   4.292   8.629 -0.4545 -0.8134 -0.8034
  626MOL0     C82534   7.348   4.324   8.742  0.4869  0.2797 -0.7380
  626MOL0     O82535   7.284   4.341   8.861  0.7899  0.2450  0.2123
  626MOL0     C82536   7.251   4.473   8.912  0.4623  0.1574 -0.5918
  626MOL0     C82537   7.114   4.478   8.987 -0.9600  0.3428  0.4465
  626MOL0     C82538   6.997   4.411   8.922  0.3451  0.6059 -1.4327
  626MOL0     C82539   6.869   4.406   9.014 -0.5547  0.5941 -0.4778
  626MOL0     C82540   6.743   4.344   8.949  0.1429 -0.0543 -1.2226
  626MOL0     C82541   6.629   4.357   9.055 -0.7057  0.5395  0.0098
  626MOL0     C82542   6.506   4.284   8.991 -0.4895 -0.9070 -0.9580
  626MOL0     C82543   6.399   4.263   9.095  0.5255 -0.8748 -0.4894
  626MOL0    Cl82544   6.293   4.401   9.117  0.0702  0.2356 -0.4022
  626MOL0     C82545   7.478   4.362   8.727 -0.1583  0.1195  0.3602
  626MOL0     C82546   7.544   4.354   8.603 -0.5231  0.1830 -0.6375
  626MOL0     O82547   7.719   4.461   8.396  0.2075  0.1411  0.2545
  626MOL0     C82548   7.820   4.416   8.120  0.8005  0.3279 -0.7183
  626MOL0     C82549   7.861   4.381   7.990 -0.1330  0.2298 -0.0386
  626MOL0     N82550   8.344   4.048   7.765 -0.0665 -0.3024  0.9972
  626MOL0     N82551   8.470   4.042   7.783  0.5019 -0.5554 -0.2795
  626MOL0     C82552   9.114   3.407   7.339  0.3155 -0.0644  0.7876
  626MOL0     C82553   9.189   3.285   7.326  0.3754 -0.3467  0.4545
  626MOL0     C82554   9.359   2.882   7.456 -0.3840  0.8950  0.4700
  626MOL0     C82555   9.494   2.874   7.421  0.3033  0.2186  0.2841
  626MOL0     C82556   9.572   2.760   7.449  0.1441 -0.9535  0.3994
  626MOL0     C82557   9.518   2.644   7.487  0.0554  0.5926 -0.1839
  626MOL0     O82558   9.595   2.532   7.522 -0.3529 -0.4978  0.1674
  626MOL0     C82559   9.740   2.529   7.498 -1.2478  0.5997  0.1759
  626MOL0     C82560   9.786   2.392   7.516  0.0388  0.6425  0.8253
  626MOL0     C82561   9.710   2.299   7.410 -0.3500  0.4233 -0.4823
  626MOL0     C82562   9.762   2.158   7.412  0.2054  0.5513  0.1313
  626MOL0     C82563   9.749   2.103   7.547 -0.0189  0.1855 -0.8480
  626MOL0     C82564   9.745   2.036   7.657  0.2313 -0.2983  0.0191
  626MOL0     C82565   9.383   2.641   7.504  1.0317  0.8320 -0.3966
  626MOL0     C82566   9.301   2.759   7.487  0.6261  0.7649 -0.3055
  626MOL0     H82567   9.327   3.289   7.642 -2.3923 -1.2326  1.6012
  626MOL0     H82568   9.211   3.507   7.637 -1.2036  2.3695 -0.3895
  626MOL0     H82569   8.887   3.602   7.360 -0.4297 -0.2028 -0.1679
  626MOL0     H82570   9.035   3.635   7.259 -0.4378  0.1546 -0.9811
  626MOL0     H82571   8.940   3.859   7.272 -0.1880  2.7627  1.4625
  626MOL0     H82572   9.065   3.850   7.384 -0.1442  1.1879 -6.0497
  626MOL0     H82573   8.902   3.828   7.573 -0.0180  2.5413  0.9943
  626MOL0     H82574   8.775   3.780   7.464 -2.1066  2.4510 -3.2667
  626MOL0     H82575   8.924   4.059   7.455 -1.5758  3.5458  0.1528
  626MOL0     H82576   8.764   4.024   7.380 -1.4945  0.8645  1.7874
  626MOL0     H82577   8.797   4.025   7.680 -3.0804  0.4845  0.9495
  626MOL0     H82578   8.656   4.010   7.571 -1.0498  1.6668 -0.4786
  626MOL0     H82579   8.650   4.236   7.520 -0.8427  2.1895  3.5688
  626MOL0     H82580   8.817   4.274   7.530  1.4589 -0.9940  1.2362
  626MOL0     H82581   8.787   4.330   7.749  0.2273 -0.3196 -0.3251
  626MOL0     H82582   8.627   4.360   7.694 -2.3304 -1.8311  2.0094
  626MOL0     H82583   8.656   4.255   7.920  0.0027  3.5187 -2.0666
  626MOL0     H82584   8.707   4.096   7.859 -1.1206 -0.0575 -1.7167
  626MOL0     H82585   8.421   4.367   7.803 -0.8273 -0.0320 -1.4887
  626MOL0     H82586   8.159   4.264   7.640  3.8010  0.5766  0.4324
  626MOL0     H82587   8.111   4.258   7.817  1.2311  2.0180  0.1612
  626MOL0     H82588   8.058   4.034   7.818  0.7845  1.8614  1.0961
  626MOL0     H82589   8.128   3.995   7.655  0.3402 -0.7384  2.1030
  626MOL0     H82590   7.946   4.154   7.574 -0.4407  1.4340  0.7700
  626MOL0     H82591   7.918   3.985   7.611  0.9666 -0.3798  1.0303
  626MOL0     H82592   7.829   4.045   7.818  4.1368 -0.4508  0.9581
  626MOL0     H82593   7.740   4.118   7.690  0.3446  0.2953  1.0673
  626MOL0     H82594   7.650   4.115   7.941 -0.7540 -1.3531  2.2876
  626MOL0     H82595   7.566   4.191   8.145 -0.9125  0.4203 -0.5366
  626MOL0     H82596   7.277   4.263   8.418  2.6644  0.6227 -2.7521
  626MOL0     H82597   7.169   4.261   8.647  1.0801 -5.1228  2.1311
  626MOL0     H82598   7.231   4.540   8.828 -4.2583  3.1379  2.4080
  626MOL0     H82599   7.329   4.527   8.966  0.3998  2.7990 -2.9429
  626MOL0     H82600   7.078   4.581   8.997 -2.3693  0.2205 -2.3496
  626MOL0     H82601   7.125   4.429   9.084  1.0197  0.2175  0.1917
  626MOL0     H82602   7.020   4.304   8.922  1.7733  0.7033  3.3540
  626MOL0     H82603   6.979   4.461   8.826  0.6267  1.0929 -1.2353
  626MOL0     H82604   6.895   4.351   9.104  2.3389 -0.1256 -1.6374
  626MOL0     H82605   6.835   4.508   9.032  2.2975  1.7167 -0.9300
  626MOL0     H82606   6.764   4.248   8.902  0.9955  0.4058 -1.8013
  626MOL0     H82607   6.720   4.397   8.856 -1.9491  0.0314 -0.7051
  626MOL0     H82608   6.600   4.463   9.062  2.5066  1.5163  0.3920
  626MOL0     H82609   6.657   4.316   9.152  0.0326  0.1310 -0.3677
  626MOL0     H82610   6.461   4.341   8.909  1.9502  1.7269 -0.6308
  626MOL0     H82611   6.546   4.192   8.949  0.0191 -0.1284 -2.2360
  626MOL0     H82612   6.444   4.248   9.194 -3.0118 -1.1596  1.2225
  626MOL0     H82613   6.346   4.170   9.073  0.1318 -1.7387  3.4014
  626MOL0     H82614   7.525   4.404   8.816  0.4810  1.7611 -0.7198
  626MOL0     H82615   7.651   4.372   8.612 -0.6436  0.0858  1.3217
  626MOL0     H82616   7.857   4.505   8.169 -0.5028  0.3396  0.3074
  626MOL0     H82617   7.946   4.436   7.950  0.3369  0.8379  1.7138
  626MOL0     H82618   9.046   3.426   7.256  0.3978  1.2083  0.9842
  626MOL0     H82619   9.172   3.228   7.235 -2.3739  2.6838 -1.1636
  626MOL0     H82620   9.550   2.960   7.386 -0.6865 -0.1188 -2.3492
  626MOL0     H82621   9.679   2.762   7.429  0.3113  1.8458  1.2352
  626MOL0     H82622   9.794   2.596   7.565 -1.5851 -2.2439  3.5739
  626MOL0     H82623   9.778   2.564   7.401  2.8349  0.8922  1.7002
  626MOL0     H82624   9.890   2.360   7.526  0.0419  0.0361 -0.9554
  626MOL0     H82625   9.755   2.369   7.619  0.8319 -0.8190  0.7705
  626MOL0     H82626   9.715   2.337   7.307 -0.4067 -1.3834 -1.2021
  626MOL0     H82627   9.603   2.298   7.432 -0.3034 -1.2151 -0.1798
  626MOL0     H82628   9.698   2.098   7.347  1.4065 -3.0096  1.9990
  626MOL0     H82629   9.865   2.158   7.376  0.3306  0.5611  0.4884
  626MOL0     H82630   9.721   1.987   7.749  1.0539  0.7374  0.8188
  626MOL0     H82631   9.336   2.547   7.532  1.1657  1.4985  2.3788
  626MOL0     H82632   9.195   2.741   7.499  1.0626 -1.6570  0.6643
  627MOL0     O82633   8.091   7.944   4.589 -0.5146  0.5693  0.0782
  627MOL0     C82634   8.147   7.935   4.474 -0.1787  0.1638 -0.9640
  627MOL0     O82635   8.082   7.916   4.354  0.1241 -0.0761 -0.2850
  627MOL0     C82636   7.948   7.889   4.371 -0.5753  1.1128  0.5941
  627MOL0     C82637   7.896   7.751   4.359 -0.8639 -0.2563 -0.7043
  627MOL0     C82638   7.760   7.736   4.350  0.2189 -0.7205  0.4730
  627MOL0     C82639   7.674   7.838   4.371  0.3638  0.3067 -0.6504
  627MOL0     O82640   7.537   7.802   4.383 -0.0025  0.0176  1.1315
  627MOL0     C82641   7.441   7.891   4.419 -0.2540  0.7491 -0.9424
  627MOL0     C82642   7.375   7.967   4.307  0.3422 -1.0516 -0.1398
  627MOL0     C82643   7.247   8.032   4.364  1.0168  0.4252 -0.0870
  627MOL0     C82644   7.179   8.107   4.249  0.3846 -0.1206 -0.0261
  627MOL0     C82645   7.082   8.214   4.305 -0.6094  0.8945  0.2137
  627MOL0     C82646   6.986   8.263   4.198  0.7590 -0.3376 -0.5564
  627MOL0     C82647   7.060   8.353   4.090 -0.1216 -0.9983  0.0932
  627MOL0     C82648   7.018   8.498   4.072  0.0514 -0.3477 -0.5581
  627MOL0     N82649   6.876   8.518   4.047  0.7817  0.6871  0.1691
  627MOL0     C82650   6.808   8.644   4.041 -0.2180  0.4508 -0.3061
  627MOL0     C82651   6.677   8.621   4.013  0.4274  0.1383 -0.0415
  627MOL0     C82652   6.559   8.719   4.002 -0.1934  0.0906 -0.5221
  627MOL0     C82653   6.516   8.767   4.142 -0.1688 -0.3931 -0.8807
  627MOL0     C82654   6.402   8.877   4.152  0.2381 -0.2026  1.1810
  627MOL0     C82655   6.266   8.846   4.077  0.1357 -0.7569  0.3033
  627MOL0     O82656   6.167   8.950   4.079 -0.7940  0.0707  0.4534
  627MOL0     C82657   6.105   8.987   4.195  0.7713  0.7943  0.1725
  627MOL0     C82658   6.074   8.892   4.298 -0.8014  0.1821  0.8397
  627MOL0     C82659   5.994   8.924   4.406  0.6858 -0.2426 -0.4700
  627MOL0     C82660   5.934   9.050   4.415  0.1311 -0.7347  0.0189
  627MOL0     C82661   5.865   9.090   4.541  1.2596 -0.6979  0.3065
  627MOL0     O82662   5.830   8.998   4.635 -0.0374  0.3571  0.0120
  627MOL0     C82663   5.756   9.028   4.752 -0.5252 -0.1116 -0.8568
  627MOL0     C82664   5.705   8.918   4.816  0.2577 -0.0396  0.7029
  627MOL0     C82665   5.651   8.921   4.947  0.3494  0.3567  0.1001
  627MOL0     C82666   5.651   9.048   5.016  0.3721  0.5944  0.4214
  627MOL0     O82667   5.605   9.063   5.146  0.2972  0.1193 -0.1115
  627MOL0     C82668   5.612   8.951   5.242 -0.3446 -0.9845  0.6716
  627MOL0     C82669   5.464   8.916   5.286 -0.1905  0.6491 -0.1343
  627MOL0     C82670   5.394   8.814   5.206  0.4581  0.5357  0.4061
  627MOL0     C82671   5.450   8.674   5.245  0.6691  0.9711 -0.6039
  627MOL0     C82672   5.398   8.558   5.160 -0.1707 -0.2707  0.3132
  627MOL0     C82673   5.462   8.433   5.232 -0.5834  1.2831 -0.4547
  627MOL0     C82674   5.423   8.300   5.162  0.3625 -0.5568  0.5440
  627MOL0     C82675   5.276   8.307   5.113 -0.2047 -0.5775 -0.1536
  627MOL0    Cl82676   5.233   8.159   5.016 -0.2036 -0.0208 -0.4159
  627MOL0     C82677   5.703   9.164   4.948 -0.5839  0.5123 -0.1155
  627MOL0     C82678   5.760   9.154   4.818  0.0011 -0.2236 -0.6527
  627MOL0     O82679   5.843   9.212   4.554  0.1318  0.7393  0.0196
  627MOL0     C82680   5.959   9.143   4.312  0.2955 -0.3511  0.8208
  627MOL0     C82681   6.041   9.114   4.202 -0.3629 -0.0260  0.9351
  627MOL0     N82682   6.663   8.483   4.000 -0.2780 -0.5360 -0.1334
  627MOL0     N82683   6.777   8.425   4.025 -0.4506  0.2843  0.5878
  627MOL0     C82684   7.728   7.963   4.392 -0.3123  0.1234 -0.5471
  627MOL0     C82685   7.861   7.987   4.391 -0.3752  0.0793  0.7547
  627MOL0     C82686   8.296   7.948   4.477  0.7277 -0.9288 -0.4298
  627MOL0     C82687   8.365   8.005   4.583 -0.5070 -0.6455 -0.7526
  627MOL0     C82688   8.502   8.030   4.570 -0.9540  0.6103  0.1298
  627MOL0     C82689   8.574   7.985   4.452  0.3144  0.5630 -0.9621
  627MOL0     O82690   8.703   8.001   4.428 -0.2214 -0.0607  0.2332
  627MOL0     C82691   8.766   8.105   4.497 -0.5098 -0.3525 -0.4660
  627MOL0     C82692   8.903   8.128   4.448  0.3158 -0.0784  0.8230
  627MOL0     C82693   8.935   8.278   4.479 -0.1361  0.9686 -0.4880
  627MOL0     C82694   9.077   8.322   4.441 -0.5365  0.2038  0.4959
  627MOL0     C82695   9.180   8.294   4.543 -0.4435  0.3122  0.6083
  627MOL0     C82696   9.294   8.287   4.594 -0.9672  0.0838  0.1967
  627MOL0     C82697   8.496   7.930   4.351 -1.2563 -0.0073  0.5923
  627MOL0     C82698   8.370   7.907   4.363  0.6886  1.4709  0.0323
  627MOL0     H82699   7.967   7.671   4.344  0.2306  0.5960 -0.1733
  627MOL0     H82700   7.714   7.641   4.325 -5.2369  1.7697 -0.5521
  627MOL0     H82701   7.467   7.958   4.501 -3.9397  3.6497 -1.8701
  627MOL0     H82702   7.360   7.828   4.457  1.7823 -0.5720  1.5333
  627MOL0     H82703   7.346   7.901   4.224  0.5631  0.7088 -1.6953
  627MOL0     H82704   7.455   8.036   4.277 -0.9738  0.5825 -0.0468
  627MOL0     H82705   7.275   8.087   4.454 -0.0668 -2.5105  2.2005
  627MOL0     H82706   7.180   7.953   4.399  1.2688  0.6267  0.8614
  627MOL0     H82707   7.253   8.161   4.190 -0.9146  1.6985 -0.1101
  627MOL0     H82708   7.140   8.034   4.178 -0.3069 -0.2473  0.4784
  627MOL0     H82709   7.143   8.298   4.340  0.6494 -0.5199  1.5785
  627MOL0     H82710   7.029   8.167   4.389  0.0458  0.4331  0.3770
  627MOL0     H82711   6.908   8.327   4.241  1.5419  0.9534 -0.9932
  627MOL0     H82712   6.930   8.184   4.146 -1.9118  3.5062 -4.2453
  627MOL0     H82713   7.168   8.368   4.095  0.2052 -2.3383 -1.7743
  627MOL0     H82714   7.062   8.300   3.994  0.0522  1.1349 -1.1603
  627MOL0     H82715   7.073   8.532   3.984 -0.1388  0.3981 -0.3982
  627MOL0     H82716   7.035   8.554   4.165 -1.3973 -3.7384  1.9919
  627MOL0     H82717   6.849   8.744   4.054  1.6717 -0.6460  4.0727
  627MOL0     H82718   6.478   8.652   3.971  1.0733 -1.9340  0.3057
  627MOL0     H82719   6.577   8.799   3.930  3.2773 -0.3344 -0.2962
  627MOL0     H82720   6.607   8.805   4.188  0.7100 -1.8858 -1.2876
  627MOL0     H82721   6.496   8.679   4.204  5.4594  0.2392  2.5638
  627MOL0     H82722   6.381   8.886   4.259  0.6494  1.2299  1.1679
  627MOL0     H82723   6.438   8.973   4.116  3.3827  0.2629  4.8907
  627MOL0     H82724   6.215   8.754   4.106  0.7466 -1.0956  0.3219
  627MOL0     H82725   6.295   8.825   3.974 -1.1662 -2.1434  0.1955
  627MOL0     H82726   6.117   8.792   4.296  1.7292  1.1171  3.1089
  627MOL0     H82727   5.974   8.845   4.478  1.6036 -0.5688 -0.5604
  627MOL0     H82728   5.712   8.822   4.766 -2.0668 -1.8073  3.4719
  627MOL0     H82729   5.611   8.825   4.978 -0.5239  1.0885  1.3584
  627MOL0     H82730   5.656   8.991   5.334  4.9789  1.1969 -2.3962
  627MOL0     H82731   5.675   8.869   5.208 -2.1140 -1.7010 -1.0901
  627MOL0     H82732   5.416   9.014   5.297 -0.3933  0.4036  1.3541
  627MOL0     H82733   5.463   8.888   5.391 -3.5972 -0.2901 -0.3078
  627MOL0     H82734   5.415   8.824   5.100 -2.9240  1.1488 -0.3117
  627MOL0     H82735   5.285   8.816   5.208  0.1656 -2.0800 -3.1126
  627MOL0     H82736   5.558   8.666   5.229  0.4229 -0.8942 -1.7236
  627MOL0     H82737   5.425   8.647   5.348 -0.1191 -0.5327 -1.1494
  627MOL0     H82738   5.429   8.583   5.059  1.6022  2.8034  1.4674
  627MOL0     H82739   5.289   8.563   5.168 -0.2490 -1.5063  0.1076
  627MOL0     H82740   5.448   8.437   5.340  0.8100  2.3854 -0.2879
  627MOL0     H82741   5.571   8.430   5.242 -0.7660 -1.1604  2.8372
  627MOL0     H82742   5.474   8.277   5.069 -1.2508 -0.5163 -0.3932
  627MOL0     H82743   5.426   8.213   5.228 -0.9894 -1.0046  0.0619
  627MOL0     H82744   5.264   8.400   5.056 -0.9986  0.5640  1.7811
  627MOL0     H82745   5.201   8.332   5.189 -3.1706  3.0957 -3.8254
  627MOL0     H82746   5.722   9.260   4.995 -0.2224  0.6882 -0.6110
  627MOL0     H82747   5.801   9.246   4.779  0.1018  1.5135  3.0491
  627MOL0     H82748   5.920   9.245   4.307  1.9869  0.3496 -4.2065
  627MOL0     H82749   6.066   9.184   4.123 -2.7193  1.0201  1.0244
  627MOL0     H82750   7.663   8.044   4.422  0.8151  0.7285  0.3297
  627MOL0     H82751   7.899   8.087   4.404  0.3748 -0.4762  3.4372
  627MOL0     H82752   8.324   8.043   4.676 -0.8348  1.1854 -1.6140
  627MOL0     H82753   8.547   8.082   4.654  0.7143  3.6483 -2.4165
  627MOL0     H82754   8.778   8.086   4.604  1.0982  3.0310  0.1023
  627MOL0     H82755   8.710   8.198   4.483  1.6946  0.9680 -0.8708
  627MOL0     H82756   8.974   8.061   4.497  1.9429  0.2756 -0.9222
  627MOL0     H82757   8.912   8.113   4.340 -1.4036 -1.4462  0.8201
  627MOL0     H82758   8.919   8.308   4.583 -2.7037 -0.0807 -0.5165
  627MOL0     H82759   8.872   8.338   4.413 -0.4331 -0.2192 -1.3212
  627MOL0     H82760   9.104   8.265   4.352 -1.1599  2.7242 -1.4113
  627MOL0     H82761   9.086   8.430   4.430  0.8326 -0.0618 -1.4485
  627MOL0     H82762   9.391   8.290   4.639 -0.2770  0.8711 -1.2699
  627MOL0     H82763   8.540   7.922   4.252  0.4685  2.8191  1.0062
  627MOL0     H82764   8.311   7.873   4.278  0.5597  0.9241  0.3335
  628MOL0     O82765   6.392   6.060   4.335 -0.3535  0.5354  0.1042
  628MOL0     C82766   6.410   6.179   4.368  1.1748  0.3699  0.6431
  628MOL0     O82767   6.519   6.223   4.427 -0.4917  0.3402 -0.1076
  628MOL0     C82768   6.635   6.145   4.448  0.1662 -0.1974  0.1300
  628MOL0     C82769   6.718   6.205   4.538 -0.4052 -0.4764 -0.0702
  628MOL0     C82770   6.842   6.152   4.575 -0.5286  0.1948 -0.3175
  628MOL0     C82771   6.886   6.030   4.530 -1.0553 -0.4744  0.0824
  628MOL0     O82772   6.986   5.950   4.577 -0.4481 -1.0943 -0.2417
  628MOL0     C82773   7.107   6.024   4.598 -0.0551  0.0539 -0.6099
  628MOL0     C82774   7.226   5.927   4.626  0.8718  0.0900 -0.2488
  628MOL0     C82775   7.350   5.992   4.584 -0.1131 -0.7812  0.1105
  628MOL0     C82776   7.470   5.894   4.592 -0.0355 -0.1784 -0.0400
  628MOL0     C82777   7.590   5.978   4.540  0.2740  0.2834 -0.1598
  628MOL0     C82778   7.664   6.030   4.662  0.5456  0.9559  0.0281
  628MOL0     C82779   7.796   6.101   4.611  0.5615  0.0417 -0.5163
  628MOL0     C82780   7.785   6.246   4.556 -0.1855  0.3144  0.1619
  628MOL0     N82781   7.907   6.322   4.588  0.0010 -0.7824  0.3564
  628MOL0     C82782   7.952   6.374   4.712 -0.3235  0.0924  0.1808
  628MOL0     C82783   8.083   6.411   4.689 -0.4488 -0.4176 -0.2070
  628MOL0     C82784   8.191   6.470   4.781  0.0391 -0.1121  0.7889
  628MOL0     C82785   8.154   6.615   4.801 -0.3553 -0.1194  0.1262
  628MOL0     C82786   8.258   6.698   4.882 -0.7146 -0.2379 -0.1484
  628MOL0     C82787   8.235   6.846   4.871 -0.0791 -0.1010 -0.4251
  628MOL0     O82788   8.102   6.878   4.925  0.2443  0.3381  0.5100
  628MOL0     C82789   8.099   6.959   5.032 -0.5662 -0.7023 -0.6730
  628MOL0     C82790   8.136   7.088   5.031 -0.7993  0.3970  0.5228
  628MOL0     C82791   8.122   7.179   5.134 -0.0550  0.1534  0.2099
  628MOL0     C82792   8.073   7.132   5.251 -0.3628 -0.4741 -0.1953
  628MOL0     C82793   8.077   7.211   5.377  0.6323 -0.4082 -0.4504
  628MOL0     O82794   8.143   7.331   5.373 -1.2964  0.3521  0.5768
  628MOL0     C82795   8.144   7.427   5.475  0.4263  0.6032  0.2131
  628MOL0     C82796   8.053   7.437   5.582 -1.0346 -0.7422 -0.3172
  628MOL0     C82797   8.078   7.531   5.689  0.5685  0.1159 -0.0698
  628MOL0     C82798   8.173   7.629   5.668  0.4852 -0.7186 -0.0078
  628MOL0     O82799   8.181   7.742   5.744  0.2549  0.5794 -0.2042
  628MOL0     C82800   8.090   7.741   5.857  0.4231  1.4289  0.0590
  628MOL0     C82801   8.118   7.880   5.921 -0.1008  0.6473 -0.6467
  628MOL0     C82802   8.255   7.882   5.996  0.4689 -0.5534 -0.9853
  628MOL0     C82803   8.271   7.773   6.108 -0.3311  0.1581  0.7224
  628MOL0     C82804   8.411   7.763   6.170  0.3426 -0.9406 -0.2261
  628MOL0     C82805   8.530   7.752   6.078 -0.2259 -0.1108  0.2398
  628MOL0     C82806   8.521   7.640   5.973  0.0485  0.1738  0.8811
  628MOL0     C82807   8.551   7.504   6.026  0.4783  0.3562 -0.8146
  628MOL0    Cl82808   8.570   7.373   5.918 -0.2771  0.1587 -0.0574
  628MOL0     C82809   8.271   7.608   5.577  0.2313  0.5044  0.3012
  628MOL0     C82810   8.260   7.506   5.471 -0.7799  0.4609 -0.7681
  628MOL0     O82811   8.011   7.170   5.473  0.1579  0.0764 -0.1615
  628MOL0     C82812   8.036   6.995   5.260  0.3387 -0.4349  0.3760
  628MOL0     C82813   8.046   6.910   5.152  0.7017  0.4817  0.7461
  628MOL0     N82814   8.103   6.399   4.556  0.8935  0.3595 -0.6497
  628MOL0     N82815   8.007   6.342   4.502  0.9280 -0.2335 -0.6977
  628MOL0     C82816   6.800   5.969   4.431  0.2265 -0.4779  0.2486
  628MOL0     C82817   6.676   6.026   4.393 -0.8764 -0.9543  0.2392
  628MOL0     C82818   6.296   6.273   4.336 -0.0795 -0.9552  0.8246
  628MOL0     C82819   6.277   6.393   4.401 -0.1808  0.2350 -0.9382
  628MOL0     C82820   6.187   6.490   4.373  0.3421  0.5743 -0.3266
  628MOL0     C82821   6.088   6.454   4.273 -0.0361 -0.3719  0.7774
  628MOL0     O82822   5.993   6.556   4.243 -0.1611  0.6059  0.8749
  628MOL0     C82823   5.901   6.518   4.142 -1.0112 -1.1829  1.0608
  628MOL0     C82824   5.800   6.635   4.145  0.3473 -0.6647  0.2784
  628MOL0     C82825   5.817   6.732   4.027 -0.0953  0.6615 -0.5254
  628MOL0     C82826   5.741   6.704   3.899 -0.8075  0.0548  0.5148
  628MOL0     C82827   5.831   6.627   3.823 -0.3032 -0.6835  0.6847
  628MOL0     C82828   5.914   6.573   3.755  0.3819  0.1261  0.2725
  628MOL0     C82829   6.099   6.329   4.200  0.3535 -0.0738 -0.8851
  628MOL0     C82830   6.203   6.237   4.234 -0.9889 -0.6319  0.0654
  628MOL0     H82831   6.699   6.307   4.570 -1.3082 -1.0556  1.3339
  628MOL0     H82832   6.896   6.191   4.661  2.5672 -0.4491 -1.8548
  628MOL0     H82833   7.101   6.084   4.690  0.5121 -2.4684  1.1742
  628MOL0     H82834   7.127   6.084   4.509 -1.0128  0.2864 -0.6812
  628MOL0     H82835   7.215   5.834   4.570  3.5306  1.7059 -3.8769
  628MOL0     H82836   7.236   5.921   4.735  1.3001  3.5746  0.0426
  628MOL0     H82837   7.372   6.085   4.638 -0.2296 -0.7366  0.0824
  628MOL0     H82838   7.347   6.025   4.480  3.1142 -1.2892 -0.2571
  628MOL0     H82839   7.486   5.862   4.695  2.1669  0.6641 -0.0761
  628MOL0     H82840   7.475   5.804   4.529 -0.4461 -0.6976  0.6487
  628MOL0     H82841   7.558   6.059   4.474  2.1887 -0.3219 -1.9314
  628MOL0     H82842   7.650   5.902   4.489  1.2507 -0.5481  2.0958
  628MOL0     H82843   7.691   5.958   4.740  2.6868  2.9547  1.2676
  628MOL0     H82844   7.599   6.106   4.708 -2.0872 -3.1937  4.0712
  628MOL0     H82845   7.866   6.099   4.695 -1.0810  1.5291  0.9747
  628MOL0     H82846   7.849   6.042   4.535  1.1146 -0.8939  0.5652
  628MOL0     H82847   7.693   6.295   4.591 -0.1231 -0.6690  1.7790
  628MOL0     H82848   7.779   6.242   4.446  1.1358 -0.5025  0.0980
  628MOL0     H82849   7.903   6.359   4.808  2.2378 -1.7189  1.3160
  628MOL0     H82850   8.289   6.449   4.737 -1.0887  0.4690 -2.2436
  628MOL0     H82851   8.195   6.431   4.884 -1.0817  1.7969  1.6089
  628MOL0     H82852   8.060   6.638   4.852 -0.1136 -0.1970  0.6133
  628MOL0     H82853   8.145   6.662   4.703 -1.0883 -1.8259 -0.6711
  628MOL0     H82854   8.252   6.668   4.987 -2.4325  0.8812  0.1034
  628MOL0     H82855   8.354   6.668   4.839 -1.1251 -1.7451 -0.0874
  628MOL0     H82856   8.250   6.894   4.774  0.1450  3.0866  1.0701
  628MOL0     H82857   8.312   6.890   4.934 -0.9705  0.4250  0.3116
  628MOL0     H82858   8.177   7.115   4.934 -1.3358 -1.1904 -0.1897
  628MOL0     H82859   8.148   7.281   5.107 -5.7414  1.5232 -1.3746
  628MOL0     H82860   7.972   7.365   5.589 -1.0003 -0.6856  0.9628
  628MOL0     H82861   8.002   7.527   5.767  0.4575  1.0376 -0.1109
  628MOL0     H82862   8.108   7.658   5.925  1.6838  2.3759  0.9465
  628MOL0     H82863   7.985   7.716   5.843  0.7108 -2.0656  2.7674
  628MOL0     H82864   8.047   7.900   6.002  1.5411  0.9711  0.7870
  628MOL0     H82865   8.120   7.949   5.836  1.0649  0.8320 -0.4873
  628MOL0     H82866   8.279   7.984   6.029  2.5407 -1.8745  2.1381
  628MOL0     H82867   8.337   7.857   5.927 -0.1790 -2.9608 -0.9600
  628MOL0     H82868   8.195   7.803   6.182 -0.5013  3.5732 -0.6708
  628MOL0     H82869   8.253   7.676   6.060  1.9934  1.7820 -4.0460
  628MOL0     H82870   8.409   7.672   6.230  0.8763 -1.2753 -0.7015
  628MOL0     H82871   8.429   7.846   6.239  0.8897  0.8149 -2.3675
  628MOL0     H82872   8.625   7.743   6.132  0.8438  0.1333 -1.5186
  628MOL0     H82873   8.554   7.839   6.015  1.0193 -0.7558 -0.2219
  628MOL0     H82874   8.422   7.642   5.927  0.1001 -3.2628  0.3848
  628MOL0     H82875   8.582   7.673   5.889 -3.4482  3.3847 -0.6915
  628MOL0     H82876   8.478   7.473   6.101 -0.2245  1.0615 -1.1913
  628MOL0     H82877   8.653   7.521   6.063 -0.2769  1.4396  0.8659
  628MOL0     H82878   8.350   7.680   5.557 -0.2033 -0.0462 -4.5758
  628MOL0     H82879   8.339   7.496   5.397 -2.3299 -1.4830 -2.2643
  628MOL0     H82880   7.984   6.962   5.348  0.3172 -1.2067  0.0760
  628MOL0     H82881   7.996   6.813   5.148 -0.6629  1.1650  0.3220
  628MOL0     H82882   6.827   5.866   4.413 -0.6866 -1.0788  2.0180
  628MOL0     H82883   6.626   5.984   4.306  0.3041  2.2489 -2.1573
  628MOL0     H82884   6.351   6.416   4.478 -0.3509  2.2343 -1.3208
  628MOL0     H82885   6.176   6.588   4.419 -1.6523 -0.4474  1.5745
  628MOL0     H82886   5.842   6.430   4.169 -3.2894 -1.4949 -3.8687
  628MOL0     H82887   5.933   6.515   4.038 -1.4463  1.9995  0.7242
  628MOL0     H82888   5.706   6.580   4.134 -0.6766  0.9954  0.5032
  628MOL0     H82889   5.792   6.684   4.242 -2.2600  0.4200 -0.3956
  628MOL0     H82890   5.923   6.756   4.014  0.5483 -2.2935 -1.3752
  628MOL0     H82891   5.776   6.825   4.069  0.4845  0.6810  0.0219
  628MOL0     H82892   5.643   6.663   3.926 -0.5726  1.6452  4.4051
  628MOL0     H82893   5.723   6.799   3.850  4.0999 -0.8598 -4.0048
  628MOL0     H82894   5.994   6.530   3.699  2.5522  0.1893  3.1498
  628MOL0     H82895   6.025   6.300   4.126 -1.7858 -0.5467  1.2931
  628MOL0     H82896   6.215   6.140   4.187  3.7155 -1.7478  2.9483
  629MOL0     O82897   6.282   0.737   8.529  0.5757  0.0724 -0.6561
  629MOL0     C82898   6.328   0.850   8.542 -0.2535 -0.5261 -0.4240
  629MOL0     O82899   6.269   0.966   8.595  0.1093  0.5315  0.0757
  629MOL0     C82900   6.141   0.965   8.648 -0.6568 -0.6455 -0.0845
  629MOL0     C82901   6.056   1.070   8.618  0.1342  1.1514 -1.1057
  629MOL0     C82902   5.931   1.088   8.681  0.1948  0.9860 -0.4003
  629MOL0     C82903   5.884   0.997   8.772 -0.0114  0.0526  0.1933
  629MOL0     O82904   5.756   0.995   8.821  0.1051 -0.6179  0.4966
  629MOL0     C82905   5.718   0.889   8.927  0.2446  0.0449  0.4033
  629MOL0     C82906   5.577   0.912   8.967  0.1533 -0.9274  0.2422
  629MOL0     C82907   5.527   0.818   9.079  0.4580  0.6680  0.4642
  629MOL0     C82908   5.507   0.677   9.026  0.2475 -0.1493 -0.5535
  629MOL0     C82909   5.407   0.589   9.110  0.1272 -0.5378 -0.5276
  629MOL0     C82910   5.258   0.639   9.107 -0.6693 -0.5489 -0.0856
  629MOL0     C82911   5.175   0.548   9.194  0.1080 -0.7336 -0.0708
  629MOL0     C82912   5.203   0.578   9.340  0.3176 -0.1229  0.6247
  629MOL0     N82913   5.149   0.708   9.378  0.6699 -0.0913 -0.0514
  629MOL0     C82914   5.206   0.828   9.373  0.0884  1.1243 -0.3159
  629MOL0     C82915   5.130   0.909   9.453 -0.5925  0.6131  0.0070
  629MOL0     C82916   5.155   1.054   9.489 -0.5994  0.0602 -0.4117
  629MOL0     C82917   5.117   1.083   9.635 -0.0597 -0.0078 -0.6309
  629MOL0     C82918   5.115   1.229   9.689 -0.2946  0.1493 -0.7020
  629MOL0     C82919   4.987   1.311   9.665  1.5585  0.1101 -0.2187
  629MOL0     O82920   4.863   1.231   9.671 -0.2380  0.6535  0.7399
  629MOL0     C82921   4.804   1.210   9.791 -0.0890  0.2764  0.5273
  629MOL0     C82922   4.680   1.259   9.816 -0.2577  0.3067 -0.1153
  629MOL0     C82923   4.608   1.230   9.925  0.0096  0.1389 -0.8109
  629MOL0     C82924   4.663   1.154  10.025 -0.0289 -0.5070  0.4396
  629MOL0     C82925   4.580   1.111  10.135 -0.5096 -0.1679 -0.4685
  629MOL0     O82926   4.469   1.173  10.151  0.0862  0.0440 -1.0455
  629MOL0     C82927   4.382   1.132  10.253  0.2120  0.3583 -0.6807
  629MOL0     C82928   4.252   1.095  10.222 -0.0495 -0.1405 -0.6348
  629MOL0     C82929   4.159   1.065  10.320 -0.4545 -0.7894  0.5814
  629MOL0     C82930   4.190   1.072  10.453  1.2386 -0.3023 -0.0103
  629MOL0     O82931   4.091   1.028  10.534  0.5405 -0.0596 -0.1743
  629MOL0     C82932   4.091   1.064  10.679  0.1577  0.0714  0.4068
  629MOL0     C82933   4.024   1.212  10.695  0.3177  0.7259 -0.0579
  629MOL0     C82934   3.876   1.218  10.672  0.4545  0.5568 -0.2004
  629MOL0     C82935   3.796   1.129  10.779 -0.4133 -0.2979 -0.0990
  629MOL0     C82936   3.674   1.208  10.832  0.8991 -0.3760  0.2854
  629MOL0     C82937   3.726   1.329  10.929 -0.1023 -0.1666 -0.3349
  629MOL0     C82938   3.608   1.355  11.025  0.3090  0.4055  0.4873
  629MOL0     C82939   3.654   1.433  11.153  0.0117 -0.2677 -0.2641
  629MOL0    Cl82940   3.773   1.552  11.101  0.0756  0.3698  0.1621
  629MOL0     C82941   4.320   1.114  10.489 -0.5812  0.3172 -0.0010
  629MOL0     C82942   4.417   1.154  10.390 -0.2278 -0.0153  0.3027
  629MOL0     O82943   4.630   1.027  10.211  0.2777 -0.5607 -0.0531
  629MOL0     C82944   4.790   1.100  10.000  0.6152  0.8198  0.6065
  629MOL0     C82945   4.860   1.126   9.886  0.2857  1.8011  0.4584
  629MOL0     N82946   5.014   0.847   9.493  0.0315 -0.1338  1.7213
  629MOL0     N82947   5.031   0.729   9.445 -0.0100 -0.3738 -0.1357
  629MOL0     C82948   5.966   0.890   8.797  0.8873  0.9958  0.9866
  629MOL0     C82949   6.096   0.876   8.742  0.9228 -0.1348 -1.5026
  629MOL0     C82950   6.463   0.870   8.495  0.7751 -0.4850 -1.0026
  629MOL0     C82951   6.521   0.795   8.389 -0.2918  0.3469 -0.6037
  629MOL0     C82952   6.649   0.819   8.339 -0.5423  0.0787  0.4145
  629MOL0     C82953   6.733   0.918   8.398  0.4346 -0.4569 -0.2489
  629MOL0     O82954   6.861   0.952   8.354  0.4590  0.3418 -0.0302
  629MOL0     C82955   6.925   0.855   8.265  0.6887  0.2470 -0.4547
  629MOL0     C82956   6.943   0.711   8.322 -0.6455  0.4853 -0.2923
  629MOL0     C82957   7.035   0.619   8.237 -0.6916  0.2811 -0.9661
  629MOL0     C82958   7.184   0.664   8.232  0.5490  0.0488 -0.3442
  629MOL0     C82959   7.259   0.572   8.153  1.1177 -0.2223 -0.5329
  629MOL0     C82960   7.327   0.503   8.088  0.5493  0.4845  0.2244
  629MOL0     C82961   6.675   1.002   8.496 -0.3068 -0.3673  0.5798
  629MOL0     C82962   6.539   0.978   8.537 -0.1053  0.0387  0.1440
  629MOL0     H82963   6.086   1.144   8.544  0.1595  2.7645  0.4658
  629MOL0     H82964   5.863   1.169   8.658 -3.0030 -1.3987 -0.0923
  629MOL0     H82965   5.771   0.907   9.021 -0.9348  2.8770  0.6119
  629MOL0     H82966   5.727   0.786   8.891 -1.4394  0.5249 -1.6040
  629MOL0     H82967   5.515   0.918   8.877  0.6616  1.5649 -0.0170
  629MOL0     H82968   5.574   1.014   9.007 -1.1892 -1.1236  0.6683
  629MOL0     H82969   5.436   0.860   9.124  0.6144  0.8226  0.6354
  629MOL0     H82970   5.589   0.808   9.169 -0.6985  3.1404  1.6408
  629MOL0     H82971   5.471   0.684   8.923 -2.0190  2.8109  0.2900
  629MOL0     H82972   5.607   0.634   9.026  0.3174 -0.4358 -5.3004
  629MOL0     H82973   5.451   0.579   9.209 -0.5565 -1.0900 -0.2740
  629MOL0     H82974   5.394   0.486   9.075  1.0604 -0.5943 -0.7307
  629MOL0     H82975   5.217   0.640   9.006 -1.6380 -2.6739  0.2427
  629MOL0     H82976   5.263   0.746   9.130 -2.2971  0.4608 -3.7379
  629MOL0     H82977   5.076   0.576   9.158  1.7380  2.7287 -2.3493
  629MOL0     H82978   5.189   0.440   9.183  2.4239 -0.4411 -0.5059
  629MOL0     H82979   5.310   0.578   9.363  0.5932  1.1513 -0.5579
  629MOL0     H82980   5.164   0.496   9.401  1.3723 -2.2058 -1.3289
  629MOL0     H82981   5.301   0.849   9.323  1.1981 -2.1981  0.1329
  629MOL0     H82982   5.091   1.105   9.416  0.2748 -1.7987 -2.6447
  629MOL0     H82983   5.257   1.087   9.467 -1.6523  3.7164 -0.5303
  629MOL0     H82984   5.187   1.024   9.695 -1.4303 -1.6787 -0.5816
  629MOL0     H82985   5.025   1.028   9.656  0.9214 -1.2592  0.5841
  629MOL0     H82986   5.117   1.235   9.799  0.5819  2.7168 -0.7921
  629MOL0     H82987   5.210   1.275   9.660  1.2408 -2.6527 -0.4778
  629MOL0     H82988   4.989   1.350   9.563 -1.1785 -1.2343 -0.8841
  629MOL0     H82989   4.992   1.390   9.740  1.8391 -0.8995  0.8479
  629MOL0     H82990   4.649   1.333   9.742 -0.5812  0.5330  0.2459
  629MOL0     H82991   4.509   1.274   9.930 -0.1377 -0.2887  0.2007
  629MOL0     H82992   4.229   1.098  10.116  1.5951  0.0132 -1.0245
  629MOL0     H82993   4.059   1.030  10.294  0.0819 -0.9917 -1.3789
  629MOL0     H82994   4.187   1.047  10.727  0.1982 -1.4161 -0.1557
  629MOL0     H82995   4.021   0.991  10.723  0.4053 -0.5387 -0.1922
  629MOL0     H82996   4.075   1.273  10.619 -0.8273 -0.1785 -1.6231
  629MOL0     H82997   4.061   1.255  10.788  0.3908  3.1999 -1.1329
  629MOL0     H82998   3.858   1.189  10.568  1.4912 -1.7459  0.1957
  629MOL0     H82999   3.849   1.322  10.690  4.0283  1.0804  3.6138
  629MOL0     H83000   3.773   1.039  10.722  1.8620 -3.6881  3.8267
  629MOL0     H83001   3.860   1.099  10.862  0.1164 -1.0729 -0.7767
  629MOL0     H83002   3.602   1.144  10.885  0.6873 -0.8265 -0.5238
  629MOL0     H83003   3.613   1.241  10.748  1.8993 -3.2241 -1.7194
  629MOL0     H83004   3.735   1.423  10.872 -2.2809  0.3550  0.0996
  629MOL0     H83005   3.816   1.289  10.976  0.2894 -0.3812 -1.2299
  629MOL0     H83006   3.540   1.424  10.976  0.1790  0.6749  1.0448
  629MOL0     H83007   3.555   1.263  11.051 -2.9819  2.6799  2.5057
  629MOL0     H83008   3.695   1.366  11.229  2.1073  1.6845  0.4535
  629MOL0     H83009   3.571   1.488  11.198  1.0368  0.9436  0.2071
  629MOL0     H83010   4.351   1.124  10.593 -0.1369  1.2222 -0.2091
  629MOL0     H83011   4.516   1.194  10.411  2.2180 -4.1702 -1.9746
  629MOL0     H83012   4.833   1.024  10.065 -0.7015 -0.0079  0.5298
  629MOL0     H83013   4.954   1.078   9.857 -1.6249 -0.4660 -2.6181
  629MOL0     H83014   5.932   0.808   8.860 -1.9009  1.5500  0.3371
  629MOL0     H83015   6.158   0.790   8.766 -0.4189 -0.7653 -0.1718
  629MOL0     H83016   6.461   0.720   8.339 -0.8119  0.8234 -0.6984
  629MOL0     H83017   6.676   0.771   8.246  0.0594  0.7784  0.2104
  629MOL0     H83018   7.021   0.902   8.238  0.3984 -0.2345 -2.5248
  629MOL0     H83019   6.864   0.845   8.175  0.1990 -1.6805  0.0438
  629MOL0     H83020   6.979   0.726   8.424 -0.5589  0.5276 -0.3285
  629MOL0     H83021   6.845   0.664   8.325  0.2104 -1.3691 -0.3690
  629MOL0     H83022   6.998   0.612   8.134 -0.4535  0.0771 -1.0371
  629MOL0     H83023   7.042   0.519   8.279  3.2568  1.8695  2.8813
  629MOL0     H83024   7.195   0.763   8.186  1.7919  0.5182  0.8634
  629MOL0     H83025   7.223   0.674   8.334 -3.6003  4.2203  1.2216
  629MOL0     H83026   7.380   0.433   8.026 -3.5464  0.2607 -3.4622
  629MOL0     H83027   6.738   1.087   8.517  0.3270 -0.4526 -0.8547
  629MOL0     H83028   6.493   1.050   8.605 -0.8096  1.7303 -2.0038
  630MOL0     O83029   9.375   0.775  10.395 -0.5647 -0.1361 -1.2103
  630MOL0     C83030   9.380   0.852  10.496  0.6727 -0.4795  0.6190
  630MOL0     O83031   9.492   0.892  10.558 -0.5018  0.0896 -0.0899
  630MOL0     C83032   9.605   0.818  10.523 -0.3411  0.1205  0.5569
  630MOL0     C83033   9.651   0.721  10.607  0.6965 -0.3142  0.3193
  630MOL0     C83034   9.757   0.647  10.572 -1.4342 -0.1043  0.2640
  630MOL0     C83035   9.820   0.661  10.445  0.9757  0.1130  0.8478
  630MOL0     O83036   9.923   0.583  10.405  0.0832 -0.8640  0.0956
  630MOL0     C83037   9.936   0.462  10.480  1.0226 -0.7326  0.7315
  630MOL0     C83038  10.032   0.376  10.404  0.3896  0.2398  0.4647
  630MOL0     C83039   9.996   0.232  10.440  0.4054 -0.0994  0.9912
  630MOL0     C83040   9.994   0.195  10.588  0.7619  0.0895 -0.2576
  630MOL0     C83041  10.110   0.240  10.671 -1.6170  0.5003 -0.8907
  630MOL0     C83042  10.179   0.132  10.759 -0.4289 -0.6301 -0.1617
  630MOL0     C83043  10.100   0.102  10.883 -0.2787  0.8526 -0.7272
  630MOL0     C83044  10.168   0.004  10.973  0.0790  1.0353  1.2877
  630MOL0     N83045  10.072  -0.039  11.072 -0.4618  0.2707 -0.4062
  630MOL0     C83046  10.057   0.017  11.204 -0.0018  0.2038 -0.4301
  630MOL0     C83047   9.954  -0.058  11.259 -0.2632 -0.3119 -0.5097
  630MOL0     C83048   9.898  -0.031  11.395 -0.5157  0.5267  0.1122
  630MOL0     C83049   9.744  -0.041  11.409 -0.3659  0.3135  0.2802
  630MOL0     C83050   9.672   0.063  11.329  0.4550  0.3898  0.1876
  630MOL0     C83051   9.518   0.057  11.336 -0.3776  0.3732 -0.2252
  630MOL0     O83052   9.448   0.083  11.217 -0.0429 -0.6734 -0.5533
  630MOL0     C83053   9.312   0.085  11.238  0.5178  0.3017  1.8063
  630MOL0     C83054   9.239  -0.014  11.172  0.5725 -0.8025  0.1264
  630MOL0     C83055   9.107  -0.024  11.192  0.2434 -0.8587  0.3794
  630MOL0     C83056   9.035   0.077  11.264  0.4713  0.5081  0.5973
  630MOL0     C83057   8.885   0.062  11.288  0.3113  0.8218  0.3600
  630MOL0     O83058   8.820   0.134  11.387 -0.3397  0.6524  0.0632
  630MOL0     C83059   8.692   0.124  11.421  0.0195  0.4889 -0.0448
  630MOL0     C83060   8.657   0.128  11.558  0.6707  0.0109 -0.0655
  630MOL0     C83061   8.524   0.119  11.601  0.0091 -0.4715  0.7742
  630MOL0     C83062   8.426   0.089  11.510  0.7341  0.3271 -0.3650
  630MOL0     O83063   8.294   0.081  11.542  0.5556  0.6513 -0.3915
  630MOL0     C83064   8.258  -0.041  11.610  0.8637  0.0604  0.1245
  630MOL0     C83065   8.140  -0.014  11.700 -0.8218 -1.0996 -0.1457
  630MOL0     C83066   8.067  -0.151  11.721 -0.2867  0.0680 -0.2636
  630MOL0     C83067   7.942  -0.154  11.807 -0.5162  0.1277 -0.3038
  630MOL0     C83068   7.915  -0.303  11.836  0.4022 -0.4264  0.0253
  630MOL0     C83069   7.803  -0.312  11.945 -0.4164 -1.4902  0.3892
  630MOL0     C83070   7.773  -0.452  11.989  0.2752 -0.0464  0.2399
  630MOL0     C83071   7.664  -0.515  11.898 -0.0130 -0.5816 -0.0782
  630MOL0    Cl83072   7.648  -0.690  11.952  0.1360  0.2054  0.2861
  630MOL0     C83073   8.463   0.086  11.379 -0.5078  0.0969 -0.4087
  630MOL0     C83074   8.588   0.106  11.326 -0.7548 -0.7733 -0.6403
  630MOL0     O83075   8.840  -0.022  11.211  0.0356  0.1986  0.0948
  630MOL0     C83076   9.109   0.162  11.347 -0.6978 -0.6830  0.5483
  630MOL0     C83077   9.248   0.163  11.336 -0.0862  0.1943 -1.2576
  630MOL0     N83078   9.915  -0.152  11.163  0.0074  0.9587  0.0681
  630MOL0     N83079   9.981  -0.140  11.052 -1.2734 -0.1521  0.4089
  630MOL0     C83080   9.780   0.767  10.359  0.2703  0.4046 -0.1403
  630MOL0     C83081   9.673   0.845  10.396  1.0180  0.4820 -0.4232
  630MOL0     C83082   9.257   0.926  10.542  0.2208  0.2301  0.1588
  630MOL0     C83083   9.131   0.883  10.498  0.0178  0.0789  0.0225
  630MOL0     C83084   9.011   0.941  10.537  0.4264 -0.2506  0.2633
  630MOL0     C83085   9.002   1.046  10.630 -0.4550  0.8226  0.2258
  630MOL0     O83086   8.875   1.103  10.650 -0.6124  0.0099  0.1097
  630MOL0     C83087   8.882   1.233  10.706  1.4015  0.7062 -0.2509
  630MOL0     C83088   8.742   1.289  10.693 -0.3572 -0.3376  0.3689
  630MOL0     C83089   8.641   1.184  10.747 -0.1463 -0.6808 -0.0100
  630MOL0     C83090   8.500   1.243  10.711 -0.8240 -0.1076 -0.4090
  630MOL0     C83091   8.397   1.144  10.726  1.1599 -0.8101 -0.2482
  630MOL0     C83092   8.330   1.048  10.742 -0.2606  1.0054  0.6145
  630MOL0     C83093   9.122   1.084  10.689 -0.2382 -0.5832  0.1891
  630MOL0     C83094   9.251   1.026  10.648  1.6420 -0.1295  0.6858
  630MOL0     H83095   9.593   0.707  10.697  0.6636 -0.3896  0.2863
  630MOL0     H83096   9.786   0.571  10.644  1.5816  1.9932  1.4422
  630MOL0     H83097   9.837   0.419  10.497  0.5079  0.4256  0.7710
  630MOL0     H83098   9.981   0.475  10.579  0.5190  2.1517  0.6747
  630MOL0     H83099  10.136   0.404  10.425 -0.3490  2.1472  1.9028
  630MOL0     H83100  10.009   0.388  10.298  2.1102  1.4395  0.1808
  630MOL0     H83101  10.071   0.168  10.393  2.2168  1.8756  0.9929
  630MOL0     H83102   9.898   0.203  10.402 -0.0761  3.3655 -0.8781
  630MOL0     H83103   9.902   0.230  10.635  1.0112 -0.0395  0.3352
  630MOL0     H83104   9.993   0.086  10.591  0.2568  0.0825 -0.6258
  630MOL0     H83105  10.095   0.336  10.720  1.4749  0.6309  0.0163
  630MOL0     H83106  10.186   0.245  10.592 -0.8579 -0.0619 -0.2018
  630MOL0     H83107  10.283   0.154  10.784 -1.0683 -0.7025  3.0597
  630MOL0     H83108  10.184   0.044  10.695  0.2647 -0.4249 -0.3915
  630MOL0     H83109  10.092   0.194  10.942  0.3386  0.0384  0.6794
  630MOL0     H83110  10.002   0.061  10.857 -0.6626  0.9003  0.5579
  630MOL0     H83111  10.257   0.050  11.017  3.1451  0.5732 -3.6625
  630MOL0     H83112  10.210  -0.080  10.917  0.5121  2.5727 -0.8384
  630MOL0     H83113  10.106   0.100  11.254 -0.5336  0.2741 -0.0178
  630MOL0     H83114   9.930   0.070  11.421 -1.4664  1.0128 -0.5440
  630MOL0     H83115   9.952  -0.101  11.459 -1.9122 -0.1679  0.5679
  630MOL0     H83116   9.727  -0.010  11.512  1.3729  5.4039 -0.6902
  630MOL0     H83117   9.712  -0.145  11.394  1.3986 -0.5261  1.9396
  630MOL0     H83118   9.693   0.166  11.359 -1.1964  1.8177 -2.9724
  630MOL0     H83119   9.710   0.055  11.226  1.3966 -1.0523  0.6260
  630MOL0     H83120   9.493   0.131  11.412 -2.9628  0.1186 -0.7289
  630MOL0     H83121   9.486  -0.043  11.367 -0.6051 -0.0521 -1.7549
  630MOL0     H83122   9.298  -0.077  11.105  2.8802 -0.1152  1.3900
  630MOL0     H83123   9.052  -0.103  11.140 -0.2041 -0.6191  0.4794
  630MOL0     H83124   8.733   0.155  11.630  0.1536  0.9630  0.1501
  630MOL0     H83125   8.489   0.129  11.704  0.2844 -1.9803  1.0431
  630MOL0     H83126   8.348  -0.079  11.659  1.4341  2.4222  1.0789
  630MOL0     H83127   8.224  -0.103  11.527  0.9508  3.3869 -2.6369
  630MOL0     H83128   8.077   0.065  11.660  1.0768  0.7656  0.3401
  630MOL0     H83129   8.178   0.013  11.799 -0.4736 -1.1743 -0.2580
  630MOL0     H83130   8.135  -0.212  11.782 -1.9439 -0.5875  1.0010
  630MOL0     H83131   8.060  -0.206  11.627  3.7151 -2.9808  0.9493
  630MOL0     H83132   7.959  -0.110  11.905 -2.2876  4.2534 -1.6432
  630MOL0     H83133   7.867  -0.091  11.758 -0.5664  0.8009  0.6207
  630MOL0     H83134   8.007  -0.347  11.875  1.3442  0.5048 -1.0796
  630MOL0     H83135   7.878  -0.358  11.749 -1.0710  0.6942 -0.1076
  630MOL0     H83136   7.710  -0.268  11.908 -0.7650 -1.8763  0.7993
  630MOL0     H83137   7.844  -0.258  12.030  1.6817 -3.4517  0.7409
  630MOL0     H83138   7.866  -0.510  11.984 -0.5343 -1.7047  2.7142
  630MOL0     H83139   7.732  -0.453  12.090 -0.6603 -2.0069 -0.1206
  630MOL0     H83140   7.686  -0.512  11.791 -2.6023  0.0745 -0.6538
  630MOL0     H83141   7.573  -0.455  11.907 -1.4723 -2.5650 -0.8511
  630MOL0     H83142   8.376   0.082  11.313  0.8455  0.1822 -2.2643
  630MOL0     H83143   8.599   0.101  11.218  0.5248  0.7257 -0.6111
  630MOL0     H83144   9.058   0.226  11.419  0.5665 -1.0899  1.8630
  630MOL0     H83145   9.303   0.231  11.400  0.2712  1.3822 -2.7608
  630MOL0     H83146   9.829   0.782  10.263  0.7030 -0.0693 -0.0009
  630MOL0     H83147   9.638   0.923  10.329 -1.4908  0.9842  1.3500
  630MOL0     H83148   9.130   0.796  10.432 -1.1268 -1.7922  2.3783
  630MOL0     H83149   8.924   0.919  10.476 -0.1180  0.1808  0.8708
  630MOL0     H83150   8.946   1.305  10.653 -1.6494  1.6707 -2.9723
  630MOL0     H83151   8.905   1.235  10.812  1.3635  2.9201 -0.2526
  630MOL0     H83152   8.732   1.384  10.745 -0.8259  0.7975 -1.6977
  630MOL0     H83153   8.716   1.323  10.592  0.5560 -0.8610 -0.0619
  630MOL0     H83154   8.643   1.178  10.857 -0.6660  5.2087  0.6643
  630MOL0     H83155   8.653   1.086  10.701 -0.9564  0.1265 -2.0295
  630MOL0     H83156   8.477   1.337  10.762 -0.5072  0.4014 -1.1932
  630MOL0     H83157   8.508   1.268  10.605  0.7842  0.7001 -0.1333
  630MOL0     H83158   8.294   0.951  10.769  5.1750 -0.8283  2.3676
  630MOL0     H83159   9.121   1.164  10.763  1.7703  1.7623 -2.0988
  630MOL0     H83160   9.348   1.066  10.677  1.6662  0.4943 -0.2166
  631MOL0     O83161   8.579   5.955   1.110  0.2035  0.5396  0.4155
  631MOL0     C83162   8.642   6.052   1.140  0.5640  0.1652  0.7122
  631MOL0     O83163   8.777   6.060   1.157  0.3509 -0.0090  0.1962
  631MOL0     C83164   8.846   5.947   1.158 -0.1549 -0.5933 -0.6912
  631MOL0     C83165   8.894   5.896   1.040  0.2408 -1.1299  0.1078
  631MOL0     C83166   8.997   5.807   1.042 -0.2539  0.0434  0.1947
  631MOL0     C83167   9.054   5.768   1.158 -0.2629  0.0800  0.3958
  631MOL0     O83168   9.144   5.669   1.134  0.5253  0.5995 -0.2719
  631MOL0     C83169   9.207   5.603   1.245  0.5421 -0.4280 -0.4510
  631MOL0     C83170   9.336   5.534   1.195 -0.8127  0.8137  0.7543
  631MOL0     C83171   9.397   5.431   1.295 -0.1136  0.0101  0.2114
  631MOL0     C83172   9.482   5.339   1.210 -0.2839 -0.1896  0.3224
  631MOL0     C83173   9.597   5.280   1.293 -0.3505 -0.6849  0.9389
  631MOL0     C83174   9.680   5.197   1.188 -0.0298 -0.0128  0.2104
  631MOL0     C83175   9.796   5.122   1.263 -0.1522 -0.1501 -0.3759
  631MOL0     C83176   9.885   5.052   1.163 -0.2562  0.3968  0.1557
  631MOL0     N83177   9.974   4.945   1.213  0.1859  0.4172 -0.6108
  631MOL0     C83178  10.024   4.945   1.338  0.2316  0.2012 -0.5794
  631MOL0     C83179  10.094   4.829   1.350 -0.4704  0.8255 -0.0955
  631MOL0     C83180  10.178   4.778   1.459  1.0662  0.0312 -0.5915
  631MOL0     C83181  10.325   4.818   1.429 -0.6284  0.8528 -0.6840
  631MOL0     C83182  10.399   4.827   1.563 -0.3184  0.3351  0.8391
  631MOL0     C83183  10.386   4.711   1.667  0.0472  0.2595  0.0719
  631MOL0     O83184  10.463   4.594   1.634 -0.1131 -0.1324 -0.4105
  631MOL0     C83185  10.480   4.487   1.720 -0.3458 -0.8480  1.0557
  631MOL0     C83186  10.542   4.371   1.671  0.0407 -0.7981  0.9960
  631MOL0     C83187  10.554   4.261   1.752 -1.0233  0.9576 -0.1596
  631MOL0     C83188  10.503   4.259   1.884  0.1066  0.1118  0.5258
  631MOL0     C83189  10.524   4.141   1.975 -0.1335  1.0050  0.4630
  631MOL0     O83190  10.542   4.165   2.104 -0.4223 -0.6298  0.4627
  631MOL0     C83191  10.549   4.054   2.177 -0.5290 -0.4822  0.1246
  631MOL0     C83192  10.675   3.986   2.200 -0.0975 -0.0508 -0.0662
  631MOL0     C83193  10.686   3.881   2.288  0.7080  0.1169  0.3388
  631MOL0     C83194  10.575   3.838   2.364 -0.3248  0.2188 -0.0255
  631MOL0     O83195  10.583   3.739   2.467  0.5813 -0.0991 -0.0572
  631MOL0     C83196  10.523   3.608   2.427 -0.5305  0.9856 -0.5961
  631MOL0     C83197  10.610   3.491   2.371 -0.1163  0.2692  0.0954
  631MOL0     C83198  10.714   3.446   2.471  0.1580 -0.7580  0.9561
  631MOL0     C83199  10.652   3.388   2.596  0.6004 -0.2877 -0.2334
  631MOL0     C83200  10.739   3.273   2.649  0.5477 -0.4317 -0.1629
  631MOL0     C83201  10.862   3.309   2.723 -0.4569 -0.5155  0.3888
  631MOL0     C83202  10.922   3.178   2.771 -0.7104  0.7073  0.3226
  631MOL0     C83203  11.047   3.209   2.843  0.4497 -0.5212  0.4993
  631MOL0    Cl83204  11.008   3.300   2.992  0.0402 -0.1061 -0.0503
  631MOL0     C83205  10.451   3.901   2.348  0.1032 -0.1366  0.8006
  631MOL0     C83206  10.448   4.012   2.256  0.9552 -0.1617 -0.3456
  631MOL0     O83207  10.534   4.027   1.920  0.3597 -0.4168  0.0132
  631MOL0     C83208  10.443   4.373   1.935 -0.3188  0.1106  0.2979
  631MOL0     C83209  10.437   4.484   1.852  0.8595 -0.3177  0.8543
  631MOL0     N83210  10.079   4.758   1.231 -0.7194 -0.0433 -1.1669
  631MOL0     N83211  10.009   4.832   1.150  0.1060 -0.7633  0.9785
  631MOL0     C83212   9.020   5.825   1.275  0.5341 -0.7433  0.1431
  631MOL0     C83213   8.922   5.923   1.279  0.2899 -0.0868 -0.7588
  631MOL0     C83214   8.568   6.174   1.143  0.3220 -0.7358 -0.5043
  631MOL0     C83215   8.628   6.300   1.161 -1.2346  0.6528 -0.8258
  631MOL0     C83216   8.563   6.418   1.179  0.7395  0.7263  0.2832
  631MOL0     C83217   8.423   6.420   1.163  0.1610  0.3801  1.3427
  631MOL0     O83218   8.369   6.534   1.214  0.4705 -0.7191  0.3369
  631MOL0     C83219   8.248   6.587   1.157  1.2696  0.3553  0.1419
  631MOL0     C83220   8.274   6.693   1.059 -0.2287 -0.4033 -0.9296
  631MOL0     C83221   8.374   6.806   1.094  0.1594 -0.5580 -1.0308
  631MOL0     C83222   8.528   6.784   1.088 -1.3987 -1.1483  0.4719
  631MOL0     C83223   8.606   6.898   1.146  0.6693  0.1636  0.7060
  631MOL0     C83224   8.677   6.982   1.208 -0.1046  1.2773  0.2442
  631MOL0     C83225   8.358   6.303   1.122 -0.4156  0.1662 -0.4756
  631MOL0     C83226   8.426   6.183   1.128  0.6969  0.2451  0.6147
  631MOL0     H83227   8.856   5.907   0.939  3.1136 -0.7233 -1.0266
  631MOL0     H83228   9.019   5.752   0.951  0.5419  0.5221  0.0933
  631MOL0     H83229   9.136   5.535   1.295  0.7882  0.5343  1.2844
  631MOL0     H83230   9.226   5.676   1.324 -1.4327  0.9938 -1.2124
  631MOL0     H83231   9.407   5.608   1.156  0.8373 -1.3986 -0.7532
  631MOL0     H83232   9.309   5.472   1.109  2.1586 -1.4635  1.2937
  631MOL0     H83233   9.317   5.391   1.359 -0.1060  1.0690  0.9045
  631MOL0     H83234   9.475   5.480   1.353 -2.2399  3.1380  0.6261
  631MOL0     H83235   9.421   5.271   1.150 -1.3985  0.2437  0.9353
  631MOL0     H83236   9.527   5.402   1.132 -2.9460 -0.1553 -1.3049
  631MOL0     H83237   9.558   5.217   1.374 -0.1883 -3.0270 -0.7140
  631MOL0     H83238   9.667   5.358   1.325 -0.9525 -0.5046  1.8657
  631MOL0     H83239   9.725   5.263   1.114  2.4734  0.0076  1.6389
  631MOL0     H83240   9.613   5.127   1.137 -2.5346  2.0288  0.4373
  631MOL0     H83241   9.857   5.202   1.306 -0.3426  0.6026 -1.4760
  631MOL0     H83242   9.763   5.039   1.326  1.2052  0.2618  0.9228
  631MOL0     H83243   9.953   5.125   1.118 -0.2549  0.3632  0.1029
  631MOL0     H83244   9.826   5.021   1.077 -0.9162 -1.1656  1.1152
  631MOL0     H83245  10.022   5.025   1.412  2.4344  2.2829 -2.5682
  631MOL0     H83246  10.185   4.670   1.475  0.0760  0.0391  0.0031
  631MOL0     H83247  10.142   4.814   1.556 -2.4664 -2.8329 -0.6094
  631MOL0     H83248  10.332   4.915   1.380 -0.8711  0.7111 -1.0013
  631MOL0     H83249  10.379   4.759   1.355 -0.0469  0.0863  0.3193
  631MOL0     H83250  10.505   4.840   1.541 -0.1953 -0.3480  1.0046
  631MOL0     H83251  10.363   4.913   1.620 -0.1043 -0.8249  2.8028
  631MOL0     H83252  10.281   4.685   1.680  0.3177 -0.2710  1.3403
  631MOL0     H83253  10.430   4.730   1.765 -0.2920 -1.4865  0.5948
  631MOL0     H83254  10.591   4.369   1.574 -1.9594  0.0113 -0.0867
  631MOL0     H83255  10.613   4.174   1.725  0.1198  1.5296  0.4516
  631MOL0     H83256  10.756   4.021   2.138  1.0398  4.9490  3.6800
  631MOL0     H83257  10.785   3.837   2.301  0.5897  0.2396  1.8853
  631MOL0     H83258  10.437   3.627   2.362  0.0972 -3.2171 -3.0571
  631MOL0     H83259  10.487   3.569   2.523  1.9373  1.1721  0.4700
  631MOL0     H83260  10.663   3.545   2.292 -0.4771  1.3890  0.6120
  631MOL0     H83261  10.546   3.405   2.346 -2.3631  1.1028  2.5755
  631MOL0     H83262  10.788   3.519   2.504 -0.4024  0.5149 -0.5301
  631MOL0     H83263  10.779   3.368   2.430  3.2062  1.9011  0.4100
  631MOL0     H83264  10.644   3.465   2.673  0.9332  0.3943 -0.8791
  631MOL0     H83265  10.553   3.350   2.569 -0.2088  1.8809 -0.4663
  631MOL0     H83266  10.764   3.204   2.568  0.4224  2.5932 -2.9981
  631MOL0     H83267  10.670   3.226   2.719 -2.0166 -0.7690 -2.7139
  631MOL0     H83268  10.842   3.377   2.807  0.1773 -1.9558  1.7576
  631MOL0     H83269  10.927   3.361   2.652 -2.1580  0.6707 -0.3758
  631MOL0     H83270  10.867   3.124   2.848  2.5056 -0.8607  1.7440
  631MOL0     H83271  10.943   3.113   2.686 -2.2657  1.8155 -0.9667
  631MOL0     H83272  11.097   3.282   2.779  0.8650  1.0380  2.5346
  631MOL0     H83273  11.104   3.117   2.865  0.4686 -0.3453  1.1946
  631MOL0     H83274  10.361   3.876   2.404 -0.3331 -0.2504  0.0685
  631MOL0     H83275  10.354   4.066   2.256  0.7301 -0.5270 -1.1804
  631MOL0     H83276  10.391   4.368   2.031 -1.2524 -2.8146 -0.2416
  631MOL0     H83277  10.379   4.566   1.893 -1.4448 -0.1684 -2.2922
  631MOL0     H83278   9.080   5.806   1.364  1.0858  0.2264 -0.0043
  631MOL0     H83279   8.902   5.977   1.371  4.9437 -0.2787  0.6254
  631MOL0     H83280   8.736   6.306   1.154 -1.0483 -1.1068 -0.1396
  631MOL0     H83281   8.620   6.504   1.214 -0.2293  1.2064  0.6953
  631MOL0     H83282   8.178   6.629   1.229 -2.5829  1.1777 -3.6883
  631MOL0     H83283   8.179   6.510   1.120 -0.8253  2.7315 -1.2151
  631MOL0     H83284   8.311   6.636   0.973 -1.6119  2.8139 -3.9014
  631MOL0     H83285   8.178   6.737   1.033  1.5352  4.3137 -0.3172
  631MOL0     H83286   8.354   6.821   1.200  0.1507 -2.9105 -0.6480
  631MOL0     H83287   8.350   6.899   1.041  4.7574  1.2440 -0.4097
  631MOL0     H83288   8.564   6.697   1.144  1.3016  0.2334  1.0238
  631MOL0     H83289   8.569   6.773   0.987  2.0146 -1.2179  1.7382
  631MOL0     H83290   8.728   7.067   1.247  1.2728 -0.6595  2.9112
  631MOL0     H83291   8.253   6.304   1.093 -0.3134  0.4010 -0.8514
  631MOL0     H83292   8.371   6.090   1.115 -0.9091  1.3620 -0.9967
  632MOL0     O83293   2.866   0.987   0.261 -1.4158 -0.5350 -0.7479
  632MOL0     C83294   2.817   1.092   0.222 -1.3219 -0.0184 -0.3663
  632MOL0     O83295   2.887   1.215   0.207 -0.2794  0.1227  0.1129
  632MOL0     C83296   3.012   1.232   0.260  0.2426  1.1893 -0.1503
  632MOL0     C83297   3.045   1.194   0.393 -0.4179  0.1665  0.1147
  632MOL0     C83298   3.179   1.214   0.439  0.0425  0.2237  0.0856
  632MOL0     C83299   3.282   1.262   0.353 -0.2218 -0.7523  0.6973
  632MOL0     O83300   3.410   1.254   0.372 -0.4302  0.2167 -0.8423
  632MOL0     C83301   3.475   1.379   0.366 -0.4056 -0.3374  0.1016
  632MOL0     C83302   3.625   1.368   0.402 -0.2237 -0.5535  0.3212
  632MOL0     C83303   3.709   1.272   0.334  0.7268  0.6082 -0.1232
  632MOL0     C83304   3.846   1.264   0.394 -1.1603 -0.5974  0.2201
  632MOL0     C83305   3.922   1.142   0.349 -0.7793  0.3184  0.5681
  632MOL0     C83306   4.068   1.131   0.411  0.0903  0.0722 -0.8692
  632MOL0     C83307   4.154   1.267   0.400  0.8692 -0.0983 -1.1683
  632MOL0     C83308   4.286   1.258   0.473  0.5932 -0.4533 -0.0894
  632MOL0     N83309   4.381   1.352   0.411  0.8185 -0.3466 -0.6088
  632MOL0     C83310   4.388   1.488   0.429  0.1223 -0.6525 -0.0969
  632MOL0     C83311   4.501   1.530   0.356 -0.0561  0.6584  0.6969
  632MOL0     C83312   4.541   1.671   0.320 -0.6808  0.3050 -0.9581
  632MOL0     C83313   4.683   1.694   0.354  0.2915  0.5866 -0.1647
  632MOL0     C83314   4.716   1.692   0.513 -0.8589  0.2012 -0.1972
  632MOL0     C83315   4.865   1.676   0.542 -0.0959 -0.6556 -0.1103
  632MOL0     O83316   4.908   1.815   0.509  0.9309 -0.6521 -0.1448
  632MOL0     C83317   5.046   1.837   0.491  0.1951 -1.0369 -0.1269
  632MOL0     C83318   5.144   1.746   0.537 -0.4919 -0.5121 -1.0447
  632MOL0     C83319   5.280   1.768   0.540  0.0493 -0.1377  0.1857
  632MOL0     C83320   5.327   1.880   0.482 -0.0635 -0.6513 -0.8817
  632MOL0     C83321   5.475   1.890   0.485  1.2155  0.6379  0.3035
  632MOL0     O83322   5.548   1.770   0.500 -0.1849 -1.2642 -0.2002
  632MOL0     C83323   5.688   1.786   0.476  0.9646 -0.3440 -0.8905
  632MOL0     C83324   5.779   1.822   0.579  0.4616  0.4133 -0.1174
  632MOL0     C83325   5.913   1.838   0.533  0.2141  0.8751 -1.2779
  632MOL0     C83326   5.953   1.828   0.400  0.2962  0.1921 -0.0318
  632MOL0     O83327   6.086   1.839   0.356 -0.8404 -0.6082  0.2475
  632MOL0     C83328   6.160   1.947   0.410  0.1739 -0.1829  0.1811
  632MOL0     C83329   6.286   1.978   0.333  0.1024  0.8246  0.2232
  632MOL0     C83330   6.382   1.874   0.384 -1.1000 -0.0906  0.2052
  632MOL0     C83331   6.455   1.927   0.510 -0.8460 -0.0841  0.7567
  632MOL0     C83332   6.555   1.817   0.544  0.2604 -0.0583  0.2706
  632MOL0     C83333   6.692   1.851   0.609 -0.7096 -0.2975  0.6243
  632MOL0     C83334   6.660   1.890   0.757  0.0525  0.3646 -0.8579
  632MOL0     C83335   6.669   1.781   0.867  0.1744  0.3916  0.0532
  632MOL0    Cl83336   6.832   1.737   0.907  0.1607  0.6886  0.1957
  632MOL0     C83337   5.863   1.780   0.308 -0.6799 -0.5319 -1.0611
  632MOL0     C83338   5.724   1.767   0.344 -0.7334  0.3276  0.0367
  632MOL0     O83339   5.529   1.999   0.477  0.3539 -0.9391 -0.2080
  632MOL0     C83340   5.238   1.975   0.434 -0.9069  0.3825 -0.5068
  632MOL0     C83341   5.095   1.954   0.436 -0.7209 -0.3582 -0.2571
  632MOL0     N83342   4.561   1.410   0.297  0.9886 -0.2469 -0.7877
  632MOL0     N83343   4.489   1.310   0.334  1.3794  0.5851  0.4617
  632MOL0     C83344   3.245   1.301   0.222  0.6064  0.1027  0.0444
  632MOL0     C83345   3.111   1.289   0.176 -0.9116 -0.1452  0.7083
  632MOL0     C83346   2.687   1.063   0.166  0.0454 -0.2748  0.0764
  632MOL0     C83347   2.628   1.160   0.084 -0.4727 -1.0052 -0.0455
  632MOL0     C83348   2.493   1.154   0.038 -0.3087  0.1304  0.4773
  632MOL0     C83349   2.417   1.040   0.064 -0.1275  0.4579  0.2501
  632MOL0     O83350   2.288   1.027   0.021  1.1453  0.1595 -0.9088
  632MOL0     C83351   2.211   0.929   0.090 -0.2138 -0.8930 -0.2481
  632MOL0     C83352   2.072   0.953   0.023  0.4790 -0.0271  0.4326
  632MOL0     C83353   2.063   0.940  -0.132  0.4741  0.4413 -0.2357
  632MOL0     C83354   1.922   0.953  -0.193 -0.5960 -0.7159 -1.2583
  632MOL0     C83355   1.921   0.966  -0.339  0.5708 -0.1345 -1.1300
  632MOL0     C83356   1.939   0.989  -0.457  0.2703 -0.2297  0.3385
  632MOL0     C83357   2.482   0.937   0.139  0.2669 -0.2798  0.6903
  632MOL0     C83358   2.610   0.950   0.193 -0.6942 -0.2801  0.5592
  632MOL0     H83359   2.971   1.130   0.440  0.2919 -1.3683 -0.7857
  632MOL0     H83360   3.207   1.159   0.528 -1.4110 -1.5092 -0.4724
  632MOL0     H83361   3.424   1.448   0.435 -0.0613 -0.7351  0.7679
  632MOL0     H83362   3.484   1.415   0.264  0.2301 -2.9984 -0.8636
  632MOL0     H83363   3.632   1.356   0.510  2.7402  1.9135  0.5518
  632MOL0     H83364   3.671   1.466   0.381 -1.4351  0.1587  0.8821
  632MOL0     H83365   3.714   1.304   0.230  4.4661  0.2169 -0.2049
  632MOL0     H83366   3.659   1.175   0.336  0.6277  0.6672  0.2690
  632MOL0     H83367   3.892   1.353   0.350 -0.6914  1.1581  3.9580
  632MOL0     H83368   3.851   1.287   0.501 -4.3312 -1.5866  0.6620
  632MOL0     H83369   3.927   1.149   0.240  0.4620  0.8005  0.6406
  632MOL0     H83370   3.879   1.044   0.374  2.6536 -0.8799  2.4250
  632MOL0     H83371   4.128   1.060   0.353 -0.7738 -0.4173 -1.1845
  632MOL0     H83372   4.062   1.100   0.515 -0.4961  1.6446 -0.4070
  632MOL0     H83373   4.175   1.274   0.293 -0.5999 -4.3505 -1.9545
  632MOL0     H83374   4.096   1.355   0.428  2.0989 -0.0192  1.4138
  632MOL0     H83375   4.324   1.155   0.468 -1.1500 -1.3091  2.3621
  632MOL0     H83376   4.271   1.279   0.579 -1.7366 -2.5742  0.1066
  632MOL0     H83377   4.308   1.541   0.480 -1.1656 -2.0144 -0.6361
  632MOL0     H83378   4.477   1.742   0.373  0.6429  0.6152  0.2857
  632MOL0     H83379   4.536   1.685   0.212  0.9267  2.2943 -0.8225
  632MOL0     H83380   4.724   1.790   0.324  0.0337  1.4954  2.1851
  632MOL0     H83381   4.740   1.613   0.308 -0.3034 -1.5474  2.6118
  632MOL0     H83382   4.675   1.782   0.559 -0.3231  0.5619 -0.4141
  632MOL0     H83383   4.671   1.617   0.578  0.3483  0.8766  1.4653
  632MOL0     H83384   4.918   1.596   0.491  0.3270 -3.4804  4.2364
  632MOL0     H83385   4.867   1.657   0.650  0.7607  0.4959  0.0993
  632MOL0     H83386   5.117   1.648   0.575 -4.4540  1.5757  2.3926
  632MOL0     H83387   5.351   1.697   0.579  0.0651  0.9203  2.2187
  632MOL0     H83388   5.736   1.831   0.678  0.0337 -1.8963 -0.0199
  632MOL0     H83389   5.985   1.860   0.611  1.0338  4.2186 -2.8027
  632MOL0     H83390   6.188   1.935   0.515  2.1243  1.1735 -0.1443
  632MOL0     H83391   6.098   2.036   0.394  1.1577  0.3095 -1.0310
  632MOL0     H83392   6.313   2.081   0.356  2.0321 -0.1402  2.6864
  632MOL0     H83393   6.276   1.962   0.225  2.3590 -0.6951  0.1604
  632MOL0     H83394   6.453   1.857   0.302 -0.2097  0.8572  0.7580
  632MOL0     H83395   6.334   1.777   0.405  3.0129 -2.2075  0.9008
  632MOL0     H83396   6.512   2.016   0.484  0.7098 -1.1804  0.2460
  632MOL0     H83397   6.392   1.946   0.597 -0.8006 -0.6914  0.9310
  632MOL0     H83398   6.584   1.770   0.449 -0.1485  1.3531 -0.5930
  632MOL0     H83399   6.507   1.741   0.605  1.3588  0.1638  1.4495
  632MOL0     H83400   6.743   1.929   0.551 -0.6431  2.6553  4.2931
  632MOL0     H83401   6.761   1.767   0.608  2.1490  1.8350  2.6204
  632MOL0     H83402   6.741   1.957   0.785  2.1769 -2.0490 -0.9240
  632MOL0     H83403   6.564   1.944   0.760 -0.2885 -0.2699  0.3314
  632MOL0     H83404   6.617   1.688   0.841  1.6726 -0.4261 -0.1714
  632MOL0     H83405   6.637   1.830   0.959 -1.1229 -1.6484  0.7561
  632MOL0     H83406   5.891   1.787   0.203 -1.1179  0.7805 -1.1091
  632MOL0     H83407   5.651   1.762   0.264 -1.3178  5.2704 -0.0489
  632MOL0     H83408   5.289   2.058   0.386  0.1535 -0.8349 -1.6009
  632MOL0     H83409   5.035   2.030   0.387  1.9231  0.9365 -1.6758
  632MOL0     H83410   3.320   1.341   0.154 -0.1856 -0.9172 -1.4937
  632MOL0     H83411   3.075   1.315   0.077  2.2000  1.1319 -0.2049
  632MOL0     H83412   2.693   1.244   0.061  0.0900 -2.0486 -2.5150
  632MOL0     H83413   2.444   1.221  -0.031 -1.5718  0.0885  1.2822
  632MOL0     H83414   2.204   0.927   0.200  0.5006  0.6811 -0.1587
  632MOL0     H83415   2.257   0.834   0.059  1.6025 -0.8287  1.9282
  632MOL0     H83416   2.007   0.876   0.068  2.7758 -2.1606  0.3505
  632MOL0     H83417   2.041   1.054   0.051  0.0715  0.9247 -3.0301
  632MOL0     H83418   2.114   0.847  -0.161  2.4397  1.6222 -0.7153
  632MOL0     H83419   2.113   1.025  -0.178 -0.9821  1.5937  0.2406
  632MOL0     H83420   1.862   0.863  -0.176 -0.1371 -1.1476 -1.8499
  632MOL0     H83421   1.870   1.037  -0.148 -0.1003 -0.6933 -0.7197
  632MOL0     H83422   1.966   1.015  -0.557  0.4016 -0.7084  0.2462
  632MOL0     H83423   2.432   0.844   0.163  1.9154 -0.8992  1.9613
  632MOL0     H83424   2.660   0.873   0.251 -1.2991 -2.0821 -1.1800
  633MOL0     O83425   1.121   2.597   5.584  0.0465  1.1472  1.0372
  633MOL0     C83426   1.103   2.559   5.699 -0.4968 -0.3634 -0.0443
  633MOL0     O83427   1.000   2.604   5.782  0.2235  0.1766  0.3595
  633MOL0     C83428   0.933   2.695   5.714  0.1868 -0.2513 -0.0144
  633MOL0     C83429   0.818   2.656   5.646 -0.0906 -0.1109  0.4746
  633MOL0     C83430   0.732   2.752   5.584  0.3140  0.8120 -0.7970
  633MOL0     C83431   0.770   2.877   5.564 -0.7477 -0.2696  0.3407
  633MOL0     O83432   0.690   2.963   5.493 -0.6391  0.3531 -1.2303
  633MOL0     C83433   0.725   2.975   5.346 -0.6854 -0.0844 -0.7255
  633MOL0     C83434   0.642   3.089   5.276 -0.3474 -0.0112  0.4898
  633MOL0     C83435   0.492   3.080   5.289  0.1617 -0.5058 -0.1119
  633MOL0     C83436   0.422   2.943   5.273 -0.5839 -1.0987 -0.3661
  633MOL0     C83437   0.274   2.943   5.330 -0.0675  0.1276 -0.1745
  633MOL0     C83438   0.178   3.028   5.227  0.4129  0.0624 -0.0533
  633MOL0     C83439   0.044   3.039   5.300 -0.9659  0.6677 -0.0993
  633MOL0     C83440  -0.044   3.134   5.211 -0.9997  0.0671 -0.8213
  633MOL0     N83441  -0.180   3.153   5.282  0.5816  0.6134 -0.4419
  633MOL0     C83442  -0.211   3.233   5.388  0.4557 -0.5337 -0.0229
  633MOL0     C83443  -0.330   3.188   5.442  0.2620  0.0715  0.2687
  633MOL0     C83444  -0.402   3.231   5.564 -0.1621  0.6045  0.3136
  633MOL0     C83445  -0.474   3.363   5.549  0.6966  0.1737 -0.0313
  633MOL0     C83446  -0.619   3.349   5.594  0.0929  0.1174  0.0075
  633MOL0     C83447  -0.696   3.486   5.589  0.0311  0.5855  0.2416
  633MOL0     O83448  -0.675   3.552   5.457 -1.1894  0.0847  0.7456
  633MOL0     C83449  -0.763   3.653   5.424 -0.1739 -0.4406 -0.7252
  633MOL0     C83450  -0.806   3.740   5.522 -0.3932 -0.2136  0.4870
  633MOL0     C83451  -0.897   3.840   5.484  1.1110 -0.5145  0.4377
  633MOL0     C83452  -0.925   3.871   5.344 -0.1633  0.3620  1.0169
  633MOL0     C83453  -1.016   3.970   5.311  0.5494 -0.4609 -0.5765
  633MOL0     O83454  -1.044   4.002   5.180  0.7379 -0.1987  0.5240
  633MOL0     C83455  -1.139   4.097   5.160 -0.2963 -0.8710 -0.2791
  633MOL0     C83456  -1.271   4.063   5.147  0.7779 -0.6372 -0.2950
  633MOL0     C83457  -1.373   4.162   5.115  0.4878 -0.3897  0.9694
  633MOL0     C83458  -1.337   4.288   5.088 -1.2930  0.3663 -0.1351
  633MOL0     O83459  -1.436   4.376   5.057 -0.1872 -0.1941  0.5838
  633MOL0     C83460  -1.381   4.462   4.947  0.7404 -0.3764 -0.4275
  633MOL0     C83461  -1.410   4.609   4.984  0.3010 -0.4079  0.3101
  633MOL0     C83462  -1.399   4.703   4.860  0.1268  0.4814  0.0186
  633MOL0     C83463  -1.429   4.851   4.892  0.1242  0.0012  0.6357
  633MOL0     C83464  -1.575   4.881   4.932 -0.0801 -1.5176  0.0222
  633MOL0     C83465  -1.676   4.830   4.827 -1.0348 -0.0401  0.4063
  633MOL0     C83466  -1.805   4.916   4.841 -0.3268 -0.4422  0.4142
  633MOL0     C83467  -1.931   4.836   4.802  1.0931  0.8961 -0.4372
  633MOL0    Cl83468  -1.998   4.710   4.902  0.0952  0.1353 -0.2484
  633MOL0     C83469  -1.204   4.331   5.131  0.2145 -0.5090 -0.0416
  633MOL0     C83470  -1.107   4.236   5.163 -0.4081  0.6693 -0.3023
  633MOL0     O83471  -1.068   4.023   5.406  0.0306 -0.3413  0.3272
  633MOL0     C83472  -0.854   3.796   5.245  0.6090  0.3529 -0.0711
  633MOL0     C83473  -0.781   3.685   5.285 -0.4705  0.9417  0.2117
  633MOL0     N83474  -0.364   3.084   5.360  0.2274 -0.1006 -0.8013
  633MOL0     N83475  -0.279   3.064   5.274  0.1015  0.0731  0.4244
  633MOL0     C83476   0.886   2.922   5.635 -0.5016 -0.2971 -0.2379
  633MOL0     C83477   0.963   2.828   5.712  0.1936 -0.2017 -0.0194
  633MOL0     C83478   1.200   2.466   5.763 -0.4089 -0.3270  0.7278
  633MOL0     C83479   1.305   2.405   5.685 -1.3295 -0.0357  0.1978
  633MOL0     C83480   1.408   2.328   5.751 -0.0818 -0.6087  0.6114
  633MOL0     C83481   1.407   2.304   5.889 -0.1847 -0.8758  0.2180
  633MOL0     O83482   1.501   2.239   5.957 -0.6797  0.1608 -0.7690
  633MOL0     C83483   1.613   2.177   5.896  0.8153  0.3060 -0.9686
  633MOL0     C83484   1.593   2.038   5.833  0.0264 -0.5962 -0.6162
  633MOL0     C83485   1.717   1.983   5.762 -0.4003 -0.1689  0.4424
  633MOL0     C83486   1.828   1.961   5.867  0.3594 -0.2676  0.7658
  633MOL0     C83487   1.923   1.855   5.833  0.7155  0.1901  0.7465
  633MOL0     C83488   2.008   1.780   5.789 -0.0979  0.1907  0.0923
  633MOL0     C83489   1.307   2.358   5.967 -0.3789 -1.2086  0.2939
  633MOL0     C83490   1.208   2.440   5.904  0.2383  0.0976  0.0844
  633MOL0     H83491   0.798   2.550   5.646  0.2499 -0.1979 -0.9565
  633MOL0     H83492   0.647   2.711   5.530  1.9515  0.3871 -3.2170
  633MOL0     H83493   0.699   2.884   5.289  0.6940  0.1076 -1.7070
  633MOL0     H83494   0.833   2.991   5.343 -0.7559  0.3296 -1.0704
  633MOL0     H83495   0.664   3.080   5.169 -0.0336  1.5481  0.4079
  633MOL0     H83496   0.673   3.182   5.323 -3.6118  0.9631  0.9729
  633MOL0     H83497   0.439   3.146   5.219  1.4448  1.9810  1.1506
  633MOL0     H83498   0.472   3.120   5.388 -1.8788  1.3786 -1.1934
  633MOL0     H83499   0.427   2.927   5.165  3.2495  2.4639 -0.9596
  633MOL0     H83500   0.485   2.873   5.329  0.6714  0.5879  0.4082
  633MOL0     H83501   0.277   2.996   5.425 -0.5199  1.3204 -0.7994
  633MOL0     H83502   0.232   2.844   5.351  0.6831  0.3016  2.4971
  633MOL0     H83503   0.182   2.985   5.126  1.4860 -0.8509  0.3553
  633MOL0     H83504   0.225   3.125   5.214 -0.1273  0.3474  0.0765
  633MOL0     H83505  -0.013   2.946   5.293  0.2493 -0.0301 -1.0599
  633MOL0     H83506   0.065   3.077   5.400 -0.2828  4.1335 -1.4223
  633MOL0     H83507  -0.076   3.091   5.116 -3.3880 -0.6689  0.2491
  633MOL0     H83508   0.010   3.229   5.202  0.0249 -0.3410  0.6083
  633MOL0     H83509  -0.152   3.304   5.445  0.7340  0.7578 -1.8471
  633MOL0     H83510  -0.345   3.214   5.656 -1.2263  0.2273  0.9224
  633MOL0     H83511  -0.483   3.158   5.572 -0.0179  0.2959 -0.8411
  633MOL0     H83512  -0.481   3.381   5.441 -1.6393 -0.9803 -0.1169
  633MOL0     H83513  -0.421   3.445   5.599  2.7234 -2.1331  1.8656
  633MOL0     H83514  -0.678   3.281   5.531  0.8226 -0.0956 -0.4587
  633MOL0     H83515  -0.619   3.320   5.700  4.2726 -3.2468 -0.6621
  633MOL0     H83516  -0.647   3.547   5.665  1.7417 -0.2495 -0.1513
  633MOL0     H83517  -0.800   3.462   5.613  1.4599 -5.4679  2.1439
  633MOL0     H83518  -0.783   3.715   5.625 -0.3437 -0.9529  0.3020
  633MOL0     H83519  -0.950   3.904   5.555 -2.0840 -0.9266 -1.3567
  633MOL0     H83520  -1.305   3.960   5.153 -3.3716  0.5281 -0.4535
  633MOL0     H83521  -1.477   4.137   5.096 -0.3249  3.6536 -1.0240
  633MOL0     H83522  -1.445   4.441   4.861 -3.4393 -1.3531  2.5593
  633MOL0     H83523  -1.279   4.452   4.910  1.2088  2.1597 -0.0433
  633MOL0     H83524  -1.349   4.656   5.062 -2.7368  2.8264  1.0211
  633MOL0     H83525  -1.516   4.614   5.009 -0.7224 -2.5381 -3.0634
  633MOL0     H83526  -1.467   4.667   4.782 -3.0160  4.0399  0.8002
  633MOL0     H83527  -1.300   4.702   4.813 -0.5522  0.2569 -1.4663
  633MOL0     H83528  -1.361   4.903   4.959  0.8377  0.3692 -0.3516
  633MOL0     H83529  -1.415   4.910   4.801  0.8558 -0.7782  0.2346
  633MOL0     H83530  -1.572   4.989   4.947 -0.2449 -1.4145 -0.6524
  633MOL0     H83531  -1.595   4.845   5.033  0.1184  5.0739  2.8537
  633MOL0     H83532  -1.696   4.724   4.842 -1.1806  0.0806  1.0761
  633MOL0     H83533  -1.639   4.843   4.725  1.4876  4.0522  1.5734
  633MOL0     H83534  -1.823   4.942   4.945 -0.8130 -0.5537  0.3592
  633MOL0     H83535  -1.800   5.008   4.781  1.9131  0.1078  1.3217
  633MOL0     H83536  -1.916   4.796   4.701 -2.5348  1.6222 -1.4428
  633MOL0     H83537  -2.009   4.913   4.807  0.6608  0.4714 -0.5135
  633MOL0     H83538  -1.193   4.439   5.144 -5.0512  0.7998 -3.2974
  633MOL0     H83539  -1.006   4.272   5.181  0.7339 -1.9359 -1.0336
  633MOL0     H83540  -0.858   3.812   5.138  1.2085 -0.9743 -0.3097
  633MOL0     H83541  -0.750   3.610   5.214  0.2937  3.6216 -2.4986
  633MOL0     H83542   0.910   3.025   5.614  0.4331  0.2982  3.0695
  633MOL0     H83543   1.056   2.862   5.757  0.2774 -0.9318  0.3659
  633MOL0     H83544   1.301   2.403   5.577  0.4694 -0.1731  0.1118
  633MOL0     H83545   1.483   2.294   5.679  0.3832  1.8794 -0.1574
  633MOL0     H83546   1.683   2.160   5.978 -1.0607  0.3796  0.7202
  633MOL0     H83547   1.658   2.254   5.832  2.7668  1.1547  1.2830
  633MOL0     H83548   1.564   1.966   5.910  0.0740  2.5672  2.6464
  633MOL0     H83549   1.515   2.048   5.758  0.3017 -1.3197 -1.0054
  633MOL0     H83550   1.749   2.055   5.686 -0.0278  1.1541  1.7950
  633MOL0     H83551   1.693   1.885   5.721 -1.4366  0.5247 -0.6940
  633MOL0     H83552   1.880   2.058   5.870  1.1010 -0.6061 -0.4044
  633MOL0     H83553   1.790   1.946   5.968 -0.1186  0.9467  0.7865
  633MOL0     H83554   2.080   1.723   5.733  1.3581 -1.0353  2.9766
  633MOL0     H83555   1.316   2.336   6.073  2.1848  0.6150  0.5387
  633MOL0     H83556   1.124   2.469   5.967 -0.1015 -0.2571 -0.1969
  634MOL0     O83557   4.607   0.023   0.079 -0.6013  0.2275  0.2879
  634MOL0     C83558   4.635  -0.003   0.194  0.4586 -0.5326  0.2508
  634MOL0     O83559   4.766  -0.019   0.239 -0.5787 -0.0186 -0.0075
  634MOL0     C83560   4.860  -0.029   0.141  0.5862 -0.0503  0.1322
  634MOL0     C83561   4.963   0.071   0.128  0.0602  0.4369 -0.2117
  634MOL0     C83562   5.073   0.048   0.046  0.4559  0.1854  0.0441
  634MOL0     C83563   5.087  -0.076  -0.022 -0.1672 -0.3111  0.4653
  634MOL0     O83564   5.194  -0.095  -0.108 -0.2187 -0.1493  0.1141
  634MOL0     C83565   5.228  -0.231  -0.154 -1.1534  0.0572 -0.1859
  634MOL0     C83566   5.355  -0.232  -0.231  0.1919 -0.8435  0.4048
  634MOL0     C83567   5.397  -0.370  -0.278  0.5653 -0.8803 -0.0770
  634MOL0     C83568   5.521  -0.366  -0.363  0.3286 -0.2092 -0.2233
  634MOL0     C83569   5.571  -0.509  -0.388 -0.1711 -0.4525  0.1564
  634MOL0     C83570   5.658  -0.526  -0.524 -0.1241 -0.0756 -0.4753
  634MOL0     C83571   5.801  -0.467  -0.519 -0.3463 -0.2464 -0.5412
  634MOL0     C83572   5.882  -0.538  -0.417  0.4510 -1.1700 -0.8440
  634MOL0     N83573   6.033  -0.502  -0.408  0.1321 -0.4397 -0.3282
  634MOL0     C83574   6.106  -0.473  -0.517 -0.3514 -0.0498  2.0235
  634MOL0     C83575   6.204  -0.398  -0.466 -0.1964  1.1219  0.4307
  634MOL0     C83576   6.327  -0.367  -0.547  0.2604 -0.0812 -0.4512
  634MOL0     C83577   6.399  -0.237  -0.511 -0.1570 -0.5428  0.5266
  634MOL0     C83578   6.315  -0.122  -0.555 -0.0898  0.9091  0.1434
  634MOL0     C83579   6.345   0.011  -0.484  0.8854  0.0085 -1.0115
  634MOL0     O83580   6.482   0.037  -0.501 -0.2236 -0.1209 -0.4294
  634MOL0     C83581   6.536   0.152  -0.451 -0.8699 -0.3591  0.2999
  634MOL0     C83582   6.675   0.170  -0.478 -0.8684 -0.9495  0.1533
  634MOL0     C83583   6.736   0.289  -0.441 -0.4852  0.2969  0.0779
  634MOL0     C83584   6.668   0.387  -0.372 -0.6400  0.0871  0.1230
  634MOL0     C83585   6.739   0.508  -0.317 -0.5767 -0.4245  0.3962
  634MOL0     O83586   6.855   0.540  -0.375 -0.8394 -0.0411  0.4908
  634MOL0     C83587   6.933   0.641  -0.339  0.8147 -0.8325 -0.0475
  634MOL0     C83588   6.893   0.749  -0.251 -0.4609  0.0515 -0.2749
  634MOL0     C83589   6.970   0.860  -0.236  0.6935  0.3105  0.3938
  634MOL0     C83590   7.097   0.871  -0.277 -1.5128 -0.2149  0.8073
  634MOL0     O83591   7.183   0.974  -0.247 -0.8773  0.1118  0.1899
  634MOL0     C83592   7.141   1.099  -0.185  0.2550  1.2163 -1.4758
  634MOL0     C83593   7.232   1.125  -0.057  0.3931  0.1566  0.1706
  634MOL0     C83594   7.372   1.129  -0.108 -0.9602  0.2751  0.3049
  634MOL0     C83595   7.462   1.131   0.016 -0.4937  0.4540  0.0885
  634MOL0     C83596   7.604   1.164  -0.015  0.5206 -0.3453  0.2280
  634MOL0     C83597   7.688   1.198   0.106 -0.4443  0.4263 -0.6666
  634MOL0     C83598   7.838   1.236   0.080  0.4977 -0.6985  0.4537
  634MOL0     C83599   7.866   1.346  -0.024  0.9691  0.6280 -1.2020
  634MOL0    Cl83600   8.033   1.413  -0.028 -0.3262 -0.4348 -0.2142
  634MOL0     C83601   7.144   0.773  -0.370 -0.3038  1.3046 -0.1951
  634MOL0     C83602   7.055   0.656  -0.408 -0.6505  0.1734 -0.1852
  634MOL0     O83603   6.678   0.560  -0.223 -0.2427 -0.6634  0.5993
  634MOL0     C83604   6.532   0.371  -0.345 -0.0446 -0.4545  0.8937
  634MOL0     C83605   6.469   0.253  -0.379 -0.2719 -0.2467  0.2765
  634MOL0     N83606   6.196  -0.386  -0.334  0.1908 -0.0406 -0.6438
  634MOL0     N83607   6.091  -0.441  -0.299  0.4129 -0.0354 -0.0064
  634MOL0     C83608   4.990  -0.175  -0.004  0.9560 -0.6400 -1.1128
  634MOL0     C83609   4.872  -0.152   0.070 -0.3668 -0.4687  0.0485
  634MOL0     C83610   4.515  -0.035   0.276 -0.4654 -0.2356 -0.0313
  634MOL0     C83611   4.526  -0.125   0.380 -0.6031 -0.5603 -0.8830
  634MOL0     C83612   4.428  -0.142   0.467 -1.5343  0.5730 -0.1443
  634MOL0     C83613   4.302  -0.088   0.445  0.5489 -0.6179  0.0877
  634MOL0     O83614   4.202  -0.120   0.534  0.0933  0.3570 -0.2006
  634MOL0     C83615   4.121  -0.009   0.576 -0.5347  0.0749  0.3388
  634MOL0     C83616   4.007  -0.063   0.659  0.1463  0.0273 -0.8937
  634MOL0     C83617   3.915  -0.141   0.561  0.2912 -0.0533  0.2527
  634MOL0     C83618   3.806  -0.051   0.500 -0.4969 -0.1227 -0.2626
  634MOL0     C83619   3.682  -0.049   0.583  0.5271  0.8833  0.6932
  634MOL0     C83620   3.576  -0.069   0.630  0.0947  0.0602 -0.4352
  634MOL0     C83621   4.280  -0.001   0.341  0.5969 -0.3326  0.0797
  634MOL0     C83622   4.396   0.028   0.259  0.4326  0.4897  0.0015
  634MOL0     H83623   4.956   0.154   0.197  0.7826 -1.2517  2.0064
  634MOL0     H83624   5.152   0.121   0.037 -0.6989  1.1607 -4.2176
  634MOL0     H83625   5.160  -0.268  -0.232  1.8877  0.9276 -3.5451
  634MOL0     H83626   5.247  -0.298  -0.070  1.3391 -0.7862 -1.3169
  634MOL0     H83627   5.435  -0.180  -0.177 -2.6493  2.4799  1.7966
  634MOL0     H83628   5.351  -0.169  -0.321  1.3218 -0.7552  0.3958
  634MOL0     H83629   5.317  -0.418  -0.335  1.2860  0.3002 -2.1711
  634MOL0     H83630   5.404  -0.424  -0.183 -2.4436  1.8496  1.8753
  634MOL0     H83631   5.503  -0.319  -0.460  0.9565 -3.7001 -2.2241
  634MOL0     H83632   5.600  -0.305  -0.319 -1.3971  0.5031  2.0314
  634MOL0     H83633   5.492  -0.584  -0.383  2.2848 -3.1540  1.3748
  634MOL0     H83634   5.630  -0.534  -0.299  2.2763 -1.5335 -1.6333
  634MOL0     H83635   5.607  -0.486  -0.612  0.5703  2.0451  0.0284
  634MOL0     H83636   5.667  -0.634  -0.540  2.2017 -0.7901  3.9680
  634MOL0     H83637   5.848  -0.477  -0.617  0.0688 -1.2827 -0.2498
  634MOL0     H83638   5.787  -0.359  -0.507  1.7347  0.2615 -2.1516
  634MOL0     H83639   5.869  -0.646  -0.427  1.1929 -1.2262 -1.1994
  634MOL0     H83640   5.855  -0.499  -0.318  1.8802 -3.9856  0.7810
  634MOL0     H83641   6.078  -0.505  -0.617  1.6289  1.4663  0.8985
  634MOL0     H83642   6.306  -0.370  -0.654  0.1517 -0.6027 -0.4163
  634MOL0     H83643   6.404  -0.445  -0.540  2.7526  2.3396  0.8989
  634MOL0     H83644   6.495  -0.228  -0.563  0.0995  0.4158  1.1405
  634MOL0     H83645   6.419  -0.234  -0.403  0.1613  3.4180  0.4783
  634MOL0     H83646   6.328  -0.109  -0.663  1.9072 -3.3957 -0.3385
  634MOL0     H83647   6.215  -0.160  -0.536  1.1455 -3.3310 -0.7524
  634MOL0     H83648   6.332  -0.010  -0.377  1.8277  1.3304 -0.6157
  634MOL0     H83649   6.285   0.096  -0.516  3.0788  2.2607  0.4534
  634MOL0     H83650   6.736   0.102  -0.536  0.8885  1.2523 -0.7239
  634MOL0     H83651   6.839   0.302  -0.472 -1.3066  4.3286 -1.6330
  634MOL0     H83652   6.804   0.750  -0.189  0.8748 -2.0183  1.8581
  634MOL0     H83653   6.938   0.933  -0.163 -1.1176  1.8369 -1.7992
  634MOL0     H83654   7.036   1.111  -0.159 -0.8942 -0.0734 -4.9664
  634MOL0     H83655   7.162   1.179  -0.256  0.4730  5.1087  2.5464
  634MOL0     H83656   7.218   1.044   0.016 -3.3323  1.7971  1.4852
  634MOL0     H83657   7.199   1.217  -0.010 -1.9301  0.8422 -2.5569
  634MOL0     H83658   7.372   1.222  -0.165 -1.3676  0.9945  1.4545
  634MOL0     H83659   7.400   1.047  -0.175 -2.3840  0.4884 -0.5937
  634MOL0     H83660   7.431   1.200   0.094  1.8003  1.6692  0.0034
  634MOL0     H83661   7.477   1.035   0.067  1.8493  0.3482 -0.6656
  634MOL0     H83662   7.608   1.251  -0.081 -2.5099 -1.2122 -1.2611
  634MOL0     H83663   7.641   1.083  -0.079 -1.4508  0.1921 -1.7238
  634MOL0     H83664   7.689   1.109   0.170 -3.4763  1.0324  0.3625
  634MOL0     H83665   7.644   1.281   0.162  1.1402  1.5720 -1.0517
  634MOL0     H83666   7.868   1.270   0.180  0.4565  1.3709 -0.1800
  634MOL0     H83667   7.893   1.151   0.038  2.7872  0.1416  1.5272
  634MOL0     H83668   7.802   1.432  -0.009 -1.9500 -1.0753 -2.9116
  634MOL0     H83669   7.835   1.310  -0.123 -1.6628 -2.0655  0.4393
  634MOL0     H83670   7.247   0.777  -0.403  1.4203 -1.6196  3.8867
  634MOL0     H83671   7.070   0.600  -0.500 -1.9452 -0.2772 -0.1476
  634MOL0     H83672   6.479   0.449  -0.292  1.7150 -0.1398  2.2845
  634MOL0     H83673   6.363   0.250  -0.355 -0.4051 -0.7497 -0.3696
  634MOL0     H83674   4.998  -0.268  -0.060  4.3224 -0.5248 -0.9903
  634MOL0     H83675   4.791  -0.222   0.057 -0.4273 -0.5682  0.8942
  634MOL0     H83676   4.620  -0.174   0.406 -0.7470 -0.4113 -0.0381
  634MOL0     H83677   4.446  -0.200   0.557  0.3484  0.0980 -0.7822
  634MOL0     H83678   4.077   0.043   0.490 -0.6943  0.4915  0.6646
  634MOL0     H83679   4.181   0.068   0.625 -1.7561  4.3796 -4.0934
  634MOL0     H83680   4.033  -0.130   0.742 -1.8019  1.8480  1.3493
  634MOL0     H83681   3.953   0.026   0.694 -0.4858 -0.0409 -1.6652
  634MOL0     H83682   3.863  -0.228   0.603  1.1179 -0.9901 -0.6304
  634MOL0     H83683   3.970  -0.181   0.476 -2.8279 -0.6907 -1.6129
  634MOL0     H83684   3.835   0.054   0.502 -2.8266  0.5886 -1.0210
  634MOL0     H83685   3.788  -0.078   0.396 -0.2313 -1.9319  0.1185
  634MOL0     H83686   3.488  -0.089   0.688  0.7260  1.8794  1.2750
  634MOL0     H83687   4.178   0.036   0.330 -0.4750 -3.0737 -0.0534
  634MOL0     H83688   4.414   0.103   0.183  1.3373  2.0914  1.7082
  635MOL0     O83689   4.774   3.168   3.303  0.5602  0.1895 -1.1956
  635MOL0     C83690   4.786   3.147   3.429  0.6484  0.3115 -0.3701
  635MOL0     O83691   4.906   3.113   3.483  0.2763 -0.2632 -0.0560
  635MOL0     C83692   5.006   3.080   3.395 -0.5467  0.4268  0.7441
  635MOL0     C83693   5.093   3.179   3.348  0.1087 -0.6251 -0.1933
  635MOL0     C83694   5.184   3.139   3.240 -0.7404 -0.4300 -0.3199
  635MOL0     C83695   5.180   3.018   3.184  0.3195  0.4390 -0.3217
  635MOL0     O83696   5.270   2.987   3.086  0.1270 -0.1391 -0.3138
  635MOL0     C83697   5.197   2.946   2.971  0.5710 -0.0795 -0.2925
  635MOL0     C83698   5.283   2.964   2.843  0.0640  0.4019  0.0820
  635MOL0     C83699   5.307   3.114   2.809  0.5130  0.0682  0.9617
  635MOL0     C83700   5.174   3.198   2.765  0.2614 -0.3360 -0.3185
  635MOL0     C83701   5.213   3.342   2.724  0.6159 -0.3364  0.1217
  635MOL0     C83702   5.147   3.438   2.830  0.9925 -0.7367  0.9860
  635MOL0     C83703   5.178   3.398   2.977 -0.4147 -1.0565 -0.4636
  635MOL0     C83704   5.159   3.525   3.072  0.0520 -0.2683  0.2161
  635MOL0     N83705   5.019   3.577   3.062 -0.2609  0.9242  0.4092
  635MOL0     C83706   4.922   3.513   3.126 -0.2606  1.3714  0.0723
  635MOL0     C83707   4.817   3.565   3.079  0.9542 -0.3701 -0.1121
  635MOL0     C83708   4.673   3.532   3.125  0.0397 -0.6627 -0.4103
  635MOL0     C83709   4.584   3.663   3.118 -0.2043  0.3060  0.0339
  635MOL0     C83710   4.433   3.636   3.091  0.6346  0.4556 -0.5917
  635MOL0     C83711   4.372   3.572   3.220  0.0186 -0.6745  0.1980
  635MOL0     O83712   4.231   3.569   3.209  0.9681 -0.1957  0.5731
  635MOL0     C83713   4.151   3.679   3.236  0.1524 -0.4044  0.4030
  635MOL0     C83714   4.018   3.683   3.189  0.4560  0.9240  0.1531
  635MOL0     C83715   3.932   3.784   3.217 -0.8071  0.5070  0.0906
  635MOL0     C83716   3.974   3.890   3.296  0.2529  0.8427  0.1660
  635MOL0     C83717   3.884   4.008   3.308  0.9060 -0.0495 -0.3328
  635MOL0     O83718   3.759   3.980   3.278  0.1999  0.4092 -0.0231
  635MOL0     C83719   3.657   4.079   3.306 -0.4134 -0.6378 -0.1834
  635MOL0     C83720   3.535   4.023   3.345 -0.5528  0.4254  0.6424
  635MOL0     C83721   3.422   4.102   3.378  0.1736  0.6523  0.0013
  635MOL0     C83722   3.431   4.238   3.377  1.3363 -0.7328 -0.3804
  635MOL0     O83723   3.319   4.303   3.424 -0.0621  0.6106 -0.3913
  635MOL0     C83724   3.305   4.446   3.424 -0.3510  0.3482  0.6395
  635MOL0     C83725   3.186   4.502   3.514 -0.1764  0.7259 -0.2149
  635MOL0     C83726   3.183   4.657   3.511 -0.2918 -0.0356  0.1775
  635MOL0     C83727   3.063   4.703   3.582 -0.4116 -0.3675 -0.1086
  635MOL0     C83728   3.073   4.854   3.624  0.4890  0.6160  0.2760
  635MOL0     C83729   2.967   4.900   3.721  0.0411  1.0539 -0.5570
  635MOL0     C83730   2.945   5.049   3.722  0.3850 -0.0736  0.3283
  635MOL0     C83731   2.851   5.109   3.830  0.3191  0.5775  0.2094
  635MOL0    Cl83732   2.839   5.289   3.819 -0.0663  0.1739 -0.0186
  635MOL0     C83733   3.550   4.302   3.334 -0.1351  0.5490 -0.4983
  635MOL0     C83734   3.658   4.222   3.287  0.2271  0.4244  0.0132
  635MOL0     O83735   3.920   4.112   3.358 -0.6765  0.2874  0.0201
  635MOL0     C83736   4.110   3.895   3.340  0.1886  0.3608 -0.2901
  635MOL0     C83737   4.203   3.790   3.311  0.2319  0.0213  0.0473
  635MOL0     N83738   4.843   3.657   2.982 -0.0059  0.1934 -0.2900
  635MOL0     N83739   4.971   3.670   2.976  0.7550  0.2245  0.0179
  635MOL0     C83740   5.087   2.919   3.230  0.0030  0.3014 -1.3217
  635MOL0     C83741   5.003   2.948   3.336  0.1613 -0.5559 -0.1595
  635MOL0     C83742   4.666   3.151   3.520 -0.7432  0.0097  0.1547
  635MOL0     C83743   4.663   3.119   3.655 -0.0142  0.5327  0.6176
  635MOL0     C83744   4.538   3.109   3.726 -0.0464 -0.4334  0.4277
  635MOL0     C83745   4.426   3.133   3.675  1.3197 -0.0693  0.7739
  635MOL0     O83746   4.307   3.107   3.747 -0.4159  0.0046  0.2542
  635MOL0     C83747   4.304   2.973   3.799  0.3687 -0.6994  0.0681
  635MOL0     C83748   4.154   2.942   3.844 -0.5040 -0.0813  0.0969
  635MOL0     C83749   4.133   2.798   3.804 -0.2294  0.6735 -0.0232
  635MOL0     C83750   4.001   2.749   3.867  0.7245 -0.0592 -1.0624
  635MOL0     C83751   4.030   2.733   4.012  0.5461 -0.2016  0.3805
  635MOL0     C83752   4.079   2.709   4.115 -0.4634  0.9015  0.0211
  635MOL0     C83753   4.423   3.185   3.543  0.2498  0.2690  0.3326
  635MOL0     C83754   4.541   3.191   3.464  0.2610 -0.1553 -0.7734
  635MOL0     H83755   5.089   3.279   3.391 -1.0278 -0.0159 -1.6429
  635MOL0     H83756   5.262   3.211   3.217 -2.2618  1.3115 -0.2086
  635MOL0     H83757   5.097   2.988   2.955  0.3422 -0.5141 -0.0266
  635MOL0     H83758   5.182   2.837   2.967  1.3965 -0.2380  0.6090
  635MOL0     H83759   5.215   2.924   2.768 -1.7719  0.7022  1.5020
  635MOL0     H83760   5.380   2.913   2.850 -0.9358 -1.6114 -0.0970
  635MOL0     H83761   5.375   3.114   2.724 -1.8576 -1.3580 -1.0801
  635MOL0     H83762   5.351   3.170   2.892 -1.3827  3.0347  0.1172
  635MOL0     H83763   5.126   3.144   2.682  0.3859  0.6275 -1.0324
  635MOL0     H83764   5.099   3.195   2.845 -0.4564  1.5497 -0.8682
  635MOL0     H83765   5.177   3.371   2.625 -1.0182 -0.9459  0.5031
  635MOL0     H83766   5.321   3.358   2.731  0.4022  0.5901  1.7460
  635MOL0     H83767   5.039   3.438   2.817  0.5147  2.5458  3.7680
  635MOL0     H83768   5.179   3.541   2.812  3.2173 -1.5814 -0.2870
  635MOL0     H83769   5.113   3.323   3.022 -1.8456  0.3685 -0.0225
  635MOL0     H83770   5.277   3.352   2.972 -0.9759 -2.2145 -1.4985
  635MOL0     H83771   5.230   3.599   3.034  1.2773 -2.0372 -1.1476
  635MOL0     H83772   5.186   3.499   3.174 -0.9023 -3.5895 -0.2651
  635MOL0     H83773   4.935   3.429   3.194 -1.0117  0.0886 -1.3040
  635MOL0     H83774   4.682   3.488   3.224  4.0675  2.3511  0.8303
  635MOL0     H83775   4.625   3.455   3.063 -3.2236  2.2789 -1.8747
  635MOL0     H83776   4.612   3.742   3.048  1.9346  0.0040  0.5071
  635MOL0     H83777   4.603   3.703   3.218 -0.2922 -0.2542  0.2828
  635MOL0     H83778   4.393   3.736   3.072 -0.2835  0.0423 -0.8775
  635MOL0     H83779   4.403   3.583   3.000  1.5875  0.1948 -0.7654
  635MOL0     H83780   4.407   3.636   3.302 -2.9705  3.1715 -1.1777
  635MOL0     H83781   4.418   3.473   3.232  1.1597 -0.3519 -1.2547
  635MOL0     H83782   3.993   3.603   3.120  1.2882  1.0596 -0.3194
  635MOL0     H83783   3.835   3.771   3.171 -0.5904 -2.9279  0.3386
  635MOL0     H83784   3.523   3.915   3.340  2.6078  0.0163 -1.5570
  635MOL0     H83785   3.325   4.063   3.408 -0.0174  0.6512 -0.6145
  635MOL0     H83786   3.301   4.472   3.317  3.4751  1.0335  0.5169
  635MOL0     H83787   3.395   4.493   3.466 -1.4482  2.1967  1.0495
  635MOL0     H83788   3.186   4.467   3.618  0.2356  0.5815 -0.2610
  635MOL0     H83789   3.096   4.472   3.460 -0.0943  0.2051 -0.0678
  635MOL0     H83790   3.177   4.695   3.409 -2.2304 -0.2557  0.1648
  635MOL0     H83791   3.279   4.691   3.550  2.5169 -2.2350 -4.0454
  635MOL0     H83792   2.975   4.683   3.520 -2.6867  0.7463  2.5524
  635MOL0     H83793   3.042   4.653   3.677 -1.5959  0.9987  0.3736
  635MOL0     H83794   3.047   4.902   3.529 -2.9777 -0.5142  0.5201
  635MOL0     H83795   3.173   4.878   3.662 -0.0887  1.8442  1.1137
  635MOL0     H83796   2.997   4.870   3.821 -0.9995  2.2449  0.1401
  635MOL0     H83797   2.867   4.864   3.695 -0.1180  2.1241 -1.5364
  635MOL0     H83798   3.042   5.099   3.734  0.0471  1.2656 -1.9907
  635MOL0     H83799   2.924   5.076   3.618  1.3714  1.3810  0.4848
  635MOL0     H83800   2.879   5.084   3.932 -1.5230 -1.3708  0.3146
  635MOL0     H83801   2.751   5.068   3.815  1.1720 -1.4194 -0.3957
  635MOL0     H83802   3.556   4.410   3.334  0.1262  0.5561  0.8322
  635MOL0     H83803   3.749   4.259   3.240 -0.6885  0.6203 -1.6997
  635MOL0     H83804   4.138   3.987   3.390  0.9241  1.1482 -2.0668
  635MOL0     H83805   4.299   3.805   3.359 -0.7090  1.7041  1.5695
  635MOL0     H83806   5.082   2.818   3.190  0.0453 -0.1009 -0.3435
  635MOL0     H83807   4.923   2.884   3.371 -1.3074  0.1468 -2.0731
  635MOL0     H83808   4.755   3.096   3.708 -0.0450  0.6036  0.7020
  635MOL0     H83809   4.540   3.091   3.833 -0.7298 -2.3255  0.1653
  635MOL0     H83810   4.364   2.956   3.889 -1.5710 -3.5173  0.9697
  635MOL0     H83811   4.338   2.913   3.714  0.6033  2.0812 -1.9302
  635MOL0     H83812   4.161   2.967   3.950  2.0423  1.3825 -0.3417
  635MOL0     H83813   4.075   2.996   3.790 -2.4271  0.1883  2.9681
  635MOL0     H83814   4.209   2.729   3.840  2.0122  2.7951 -0.3708
  635MOL0     H83815   4.122   2.783   3.696 -1.6466  0.3411  0.1479
  635MOL0     H83816   3.914   2.813   3.849 -0.3418 -0.5017  1.9747
  635MOL0     H83817   3.977   2.647   3.835  2.9692 -1.1793  0.5764
  635MOL0     H83818   4.133   2.692   4.207 -2.7455 -0.5884  1.1700
  635MOL0     H83819   4.333   3.196   3.485  1.0621  1.5583 -0.7366
  635MOL0     H83820   4.529   3.207   3.358  0.4622  0.5657 -0.6936
  636MOL0     O83821   8.101   6.441   2.228  0.7066  0.0033 -0.7006
  636MOL0     C83822   8.018   6.409   2.145  0.1839 -0.5922  0.1465
  636MOL0     O83823   7.909   6.478   2.118 -0.8958 -0.3103  0.8265
  636MOL0     C83824   7.913   6.614   2.156 -0.9416 -0.0607 -0.0841
  636MOL0     C83825   7.997   6.711   2.088  0.1257  0.7653  0.6502
  636MOL0     C83826   8.006   6.841   2.135 -0.1194 -0.1064  0.0884
  636MOL0     C83827   7.921   6.882   2.245  0.9987  0.3127  0.9519
  636MOL0     O83828   7.926   7.016   2.281 -0.2259  0.1392 -0.5505
  636MOL0     C83829   7.853   7.064   2.393 -0.5837 -0.2610 -0.4647
  636MOL0     C83830   7.701   7.099   2.382 -0.9219 -0.7931 -0.8303
  636MOL0     C83831   7.646   7.124   2.520  0.1071  0.4949 -0.1423
  636MOL0     C83832   7.495   7.112   2.529 -0.2272  0.1880  0.0208
  636MOL0     C83833   7.436   7.170   2.660  0.8085  0.2412  0.4222
  636MOL0     C83834   7.285   7.144   2.664 -0.3518  0.4763  0.7357
  636MOL0     C83835   7.224   7.180   2.800  0.4522  0.7049 -0.0009
  636MOL0     C83836   7.081   7.126   2.823 -1.0135 -0.5812  0.8213
  636MOL0     N83837   6.977   7.189   2.742  0.7462 -0.4208 -0.4200
  636MOL0     C83838   6.985   7.295   2.665  0.9745 -0.2989  0.1804
  636MOL0     C83839   6.880   7.293   2.583  1.0859  0.3083 -0.3116
  636MOL0     C83840   6.844   7.397   2.485  0.4406  0.0531 -0.3398
  636MOL0     C83841   6.749   7.498   2.554  0.0863  0.6366 -0.3778
  636MOL0     C83842   6.765   7.632   2.476 -0.5376  0.2758 -0.2394
  636MOL0     C83843   6.664   7.742   2.520  0.5132  0.3088 -0.1223
  636MOL0     O83844   6.704   7.780   2.649  0.1970  0.2007 -0.8640
  636MOL0     C83845   6.688   7.909   2.681  1.3682 -0.5202 -0.4798
  636MOL0     C83846   6.729   8.024   2.613 -0.1484 -0.2923 -0.0090
  636MOL0     C83847   6.681   8.150   2.647  0.1231  0.4773  0.6932
  636MOL0     C83848   6.595   8.167   2.750 -0.0727  0.0869 -0.8801
  636MOL0     C83849   6.533   8.294   2.776 -0.4611 -0.4704  0.2976
  636MOL0     O83850   6.613   8.404   2.743 -0.4054 -0.0859  0.3797
  636MOL0     C83851   6.576   8.533   2.768  0.5041  0.2419 -0.2119
  636MOL0     C83852   6.575   8.594   2.895 -0.7427 -0.1803 -0.3670
  636MOL0     C83853   6.542   8.724   2.911  0.3665  0.2900 -0.4237
  636MOL0     C83854   6.517   8.803   2.798 -0.6745  0.6644  0.3654
  636MOL0     O83855   6.486   8.934   2.801 -0.7891 -1.1354 -0.2641
  636MOL0     C83856   6.500   9.006   2.927  0.6059 -0.9180 -0.2102
  636MOL0     C83857   6.447   9.146   2.922  0.0273  0.6836 -0.2700
  636MOL0     C83858   6.437   9.198   3.071  0.2904  0.2252  0.8082
  636MOL0     C83859   6.427   9.351   3.059 -1.4601 -0.1470 -0.1766
  636MOL0     C83860   6.415   9.428   3.192 -0.5968 -0.0779  0.3403
  636MOL0     C83861   6.361   9.573   3.170  0.5856 -0.5313  0.9690
  636MOL0     C83862   6.305   9.625   3.296 -0.3264 -0.1216 -0.4060
  636MOL0     C83863   6.215   9.745   3.269  0.1749 -0.6716  0.4242
  636MOL0    Cl83864   6.183   9.802   3.431 -0.1034 -0.0122  0.2148
  636MOL0     C83865   6.527   8.744   2.673  0.7831 -0.8585  0.3255
  636MOL0     C83866   6.549   8.618   2.659 -0.0540  1.4821  0.4639
  636MOL0     O83867   6.425   8.303   2.842  0.1142  0.8498  0.7116
  636MOL0     C83868   6.561   8.054   2.828 -0.8765  0.1138  0.3220
  636MOL0     C83869   6.609   7.927   2.795 -0.4259 -0.2714  0.0814
  636MOL0     N83870   6.810   7.173   2.612  0.5109 -0.1164  0.1270
  636MOL0     N83871   6.868   7.113   2.711  0.4340 -0.0870  0.0926
  636MOL0     C83872   7.826   6.787   2.300 -0.3563  0.1683 -0.0308
  636MOL0     C83873   7.828   6.654   2.260  0.6769 -0.4275  0.0963
  636MOL0     C83874   8.052   6.305   2.048 -0.3626 -1.7341  0.0637
  636MOL0     C83875   7.960   6.258   1.960  0.2265  0.4708  0.5616
  636MOL0     C83876   7.977   6.161   1.865  0.3613  0.5907 -1.0257
  636MOL0     C83877   8.100   6.113   1.852  0.1115 -0.0702 -0.6557
  636MOL0     O83878   8.104   6.005   1.758  0.6070 -0.0473 -0.8943
  636MOL0     C83879   8.227   5.947   1.718 -0.0283  0.6587 -0.0916
  636MOL0     C83880   8.276   5.846   1.820 -0.0729 -0.8611 -0.6292
  636MOL0     C83881   8.411   5.786   1.781  0.1715 -0.5565 -0.1401
  636MOL0     C83882   8.403   5.663   1.689 -0.6940 -0.7778  0.2464
  636MOL0     C83883   8.523   5.575   1.705  0.1124 -0.8052  0.5201
  636MOL0     C83884   8.615   5.500   1.722  0.0822 -0.0820  0.0837
  636MOL0     C83885   8.210   6.166   1.921 -0.0031 -0.4619 -0.7749
  636MOL0     C83886   8.184   6.259   2.031  0.1936  0.1975 -0.1947
  636MOL0     H83887   8.052   6.673   2.002 -0.0468 -0.7694  1.1927
  636MOL0     H83888   8.066   6.916   2.083  3.6014 -1.5129  1.9723
  636MOL0     H83889   7.902   7.161   2.410  1.6857 -1.4717  0.3620
  636MOL0     H83890   7.872   7.001   2.480  0.7116  0.2395 -0.3619
  636MOL0     H83891   7.656   7.005   2.348  1.1684 -1.0251 -3.3070
  636MOL0     H83892   7.695   7.183   2.313 -3.4770  0.0184  0.2900
  636MOL0     H83893   7.660   7.230   2.543 -2.7852  0.5686  1.7869
  636MOL0     H83894   7.691   7.060   2.596 -2.7625 -2.1987 -0.4689
  636MOL0     H83895   7.437   7.166   2.455 -1.3472  0.5894  1.1508
  636MOL0     H83896   7.468   7.006   2.516  1.7163 -0.1640 -1.7012
  636MOL0     H83897   7.460   7.277   2.670  0.3774  0.9634 -4.2164
  636MOL0     H83898   7.491   7.123   2.742  0.2270  0.7142  1.0939
  636MOL0     H83899   7.271   7.038   2.642  3.5533  0.1438 -0.9713
  636MOL0     H83900   7.240   7.213   2.592 -2.1237  0.7402  2.0393
  636MOL0     H83901   7.288   7.126   2.871 -0.3227  0.2758  0.3859
  636MOL0     H83902   7.210   7.283   2.832  1.1230 -0.2007  3.7047
  636MOL0     H83903   7.056   7.136   2.929  1.5968  0.6321  1.3981
  636MOL0     H83904   7.094   7.019   2.802 -1.1229 -0.9962  2.6327
  636MOL0     H83905   7.069   7.363   2.671 -0.0021  1.3459 -2.7325
  636MOL0     H83906   6.802   7.360   2.391  0.5089  0.2764 -0.4586
  636MOL0     H83907   6.941   7.442   2.464  0.8558  0.0046  1.3470
  636MOL0     H83908   6.772   7.516   2.659 -0.9195 -2.4123  0.4786
  636MOL0     H83909   6.648   7.456   2.549 -0.1142  0.0888  4.1822
  636MOL0     H83910   6.866   7.672   2.490  0.5459 -2.9754  2.5239
  636MOL0     H83911   6.758   7.610   2.369  2.5115 -0.6150 -0.3368
  636MOL0     H83912   6.566   7.693   2.519  0.2723  0.7839 -1.8966
  636MOL0     H83913   6.661   7.827   2.451 -1.6661 -2.1298 -3.2734
  636MOL0     H83914   6.804   8.011   2.535  1.8759 -1.6893  2.0289
  636MOL0     H83915   6.723   8.225   2.580  0.3796  1.7156  2.1891
  636MOL0     H83916   6.612   8.532   2.976  1.7183 -0.9672 -1.9802
  636MOL0     H83917   6.529   8.768   3.009  1.0738  1.1571 -0.7055
  636MOL0     H83918   6.602   9.018   2.965 -0.3128 -0.2075  2.1559
  636MOL0     H83919   6.429   8.967   3.000  0.0057  1.5839  0.6650
  636MOL0     H83920   6.352   9.148   2.868  0.3516  0.0392 -0.8783
  636MOL0     H83921   6.515   9.211   2.866 -0.3869  0.4476 -1.0648
  636MOL0     H83922   6.517   9.158   3.134 -0.0463 -0.9807  0.5058
  636MOL0     H83923   6.343   9.167   3.118  1.0308 -2.3191  0.7533
  636MOL0     H83924   6.525   9.377   3.018  0.5726 -1.7299  3.1969
  636MOL0     H83925   6.351   9.376   2.984 -0.5460  2.3997 -0.3625
  636MOL0     H83926   6.504   9.423   3.257 -0.9873 -0.9471  0.8241
  636MOL0     H83927   6.345   9.370   3.252  1.4780 -0.6394  2.3920
  636MOL0     H83928   6.291   9.572   3.086  2.3541  0.7311 -0.6219
  636MOL0     H83929   6.448   9.629   3.135  0.4397 -1.3393 -0.8173
  636MOL0     H83930   6.256   9.549   3.358 -1.3308  1.6181  1.0229
  636MOL0     H83931   6.389   9.656   3.359 -1.5006  1.5512  0.4118
  636MOL0     H83932   6.131   9.722   3.202 -0.6736  0.3842  1.1006
  636MOL0     H83933   6.266   9.824   3.214  0.8447 -0.3128  1.5392
  636MOL0     H83934   6.508   8.803   2.583 -3.2292  0.2139  1.6722
  636MOL0     H83935   6.542   8.583   2.557 -4.9425  0.8873  0.7374
  636MOL0     H83936   6.487   8.048   2.907 -0.9782 -0.6125  0.1806
  636MOL0     H83937   6.565   7.842   2.847 -2.5682 -0.8704 -2.5218
  636MOL0     H83938   7.780   6.825   2.391  0.9135  0.7867  0.3813
  636MOL0     H83939   7.753   6.584   2.298  3.5369 -3.0764  1.3323
  636MOL0     H83940   7.859   6.298   1.959 -0.1924 -0.2617 -3.1654
  636MOL0     H83941   7.898   6.121   1.802  0.8220  0.7064 -1.6937
  636MOL0     H83942   8.295   6.033   1.714 -0.4008  1.1850  2.9797
  636MOL0     H83943   8.204   5.912   1.617 -1.7467 -0.2206  0.5714
  636MOL0     H83944   8.286   5.889   1.920 -0.9519 -2.9873  0.4324
  636MOL0     H83945   8.200   5.769   1.837 -1.4972  0.8488  1.2528
  636MOL0     H83946   8.466   5.750   1.868  3.5750 -2.1944 -2.7351
  636MOL0     H83947   8.482   5.855   1.733  0.2530 -0.3404  0.2839
  636MOL0     H83948   8.315   5.612   1.729 -2.5063 -0.0581 -2.5381
  636MOL0     H83949   8.381   5.693   1.586  0.1016 -1.4474 -0.1330
  636MOL0     H83950   8.696   5.429   1.733  1.2276  1.3068  0.9748
  636MOL0     H83951   8.305   6.127   1.886 -0.0290 -0.6533 -0.6306
  636MOL0     H83952   8.262   6.295   2.097 -1.8552 -0.7561  2.9457
  637MOL0     O83953  10.970   6.343   4.412  0.6457  0.3046 -0.0378
  637MOL0     C83954  11.015   6.451   4.446 -0.9806  0.2664  0.6339
  637MOL0     O83955  10.936   6.567   4.456 -0.2274 -0.2836 -0.1918
  637MOL0     C83956  10.808   6.558   4.413  0.3690  0.1425  0.8128
  637MOL0     C83957  10.712   6.496   4.478 -0.9023  0.0107 -0.6001
  637MOL0     C83958  10.578   6.496   4.427 -0.2728 -1.1153 -0.3946
  637MOL0     C83959  10.530   6.571   4.318  0.2734 -0.2944  1.0591
  637MOL0     O83960  10.397   6.588   4.278 -0.0682  0.5146  0.0995
  637MOL0     C83961  10.363   6.718   4.320  0.3454  1.5721  0.4552
  637MOL0     C83962  10.332   6.723   4.473  0.1930  0.0663  0.3948
  637MOL0     C83963  10.206   6.656   4.508  1.2260  0.3155  0.1786
  637MOL0     C83964  10.093   6.720   4.421 -0.1812  0.3218  0.1177
  637MOL0     C83965   9.960   6.703   4.494 -0.0288 -0.5305 -0.0378
  637MOL0     C83966   9.938   6.811   4.593  0.0934  0.4096  0.1699
  637MOL0     C83967   9.805   6.789   4.671  0.6840  1.0434 -0.4180
  637MOL0     C83968   9.697   6.850   4.580 -0.8436 -0.4785 -0.1291
  637MOL0     N83969   9.563   6.831   4.633 -0.1460 -0.2772  0.2937
  637MOL0     C83970   9.478   6.940   4.665  0.3871  1.3396 -0.6105
  637MOL0     C83971   9.355   6.882   4.706  0.2648  0.6830 -0.9494
  637MOL0     C83972   9.223   6.943   4.742 -0.9809  0.8284 -0.8280
  637MOL0     C83973   9.163   7.020   4.621  1.1396  0.5198  0.3981
  637MOL0     C83974   9.125   6.911   4.517 -0.5990  1.2000  0.0164
  637MOL0     C83975   9.072   6.969   4.385  0.2326  0.1638  0.2974
  637MOL0     O83976   9.164   7.067   4.337 -0.8584  0.0189 -0.4851
  637MOL0     C83977   9.280   7.015   4.282  0.1451 -0.3697 -0.7389
  637MOL0     C83978   9.400   7.060   4.336  0.5649 -0.1049 -0.5273
  637MOL0     C83979   9.523   7.039   4.291  0.7474  0.0958 -0.0620
  637MOL0     C83980   9.529   6.932   4.187  0.1164 -0.1555  0.5507
  637MOL0     C83981   9.661   6.884   4.143 -0.6813 -1.3578 -0.3977
  637MOL0     O83982   9.775   6.955   4.187 -0.0321  0.4132 -0.3149
  637MOL0     C83983   9.910   6.929   4.147 -0.3636 -0.1681 -0.0013
  637MOL0     C83984   9.998   7.031   4.183  0.3010  0.3836  0.1471
  637MOL0     C83985  10.130   7.029   4.154 -0.1895 -0.0248  0.8391
  637MOL0     C83986  10.182   6.925   4.074  0.7333 -0.3498 -0.7489
  637MOL0     O83987  10.319   6.925   4.048  0.1974  0.3720 -0.4778
  637MOL0     C83988  10.385   7.045   3.995  0.4256  0.1960 -0.5989
  637MOL0     C83989  10.535   7.031   4.038 -0.2347  0.5145  0.9605
  637MOL0     C83990  10.620   7.103   3.933  0.1840  0.5897  0.7367
  637MOL0     C83991  10.761   7.116   3.987 -0.0503 -0.2259 -0.3975
  637MOL0     C83992  10.842   7.221   3.902 -0.5725  0.1705  0.6080
  637MOL0     C83993  10.989   7.173   3.886  0.3342  0.9470  0.0861
  637MOL0     C83994  11.067   7.161   4.020 -0.1271  0.5537  0.1693
  637MOL0     C83995  11.204   7.083   3.993 -0.3766 -0.7553  0.2145
  637MOL0    Cl83996  11.319   7.179   3.901  0.1233  0.0724 -0.1380
  637MOL0     C83997  10.096   6.815   4.041  0.3088 -0.1355  0.3472
  637MOL0     C83998   9.957   6.815   4.079 -0.0601  0.0592 -1.0842
  637MOL0     O83999   9.656   6.789   4.061 -0.6432  0.6422  0.3821
  637MOL0     C84000   9.407   6.878   4.141 -0.7956  0.3385  0.8841
  637MOL0     C84001   9.282   6.921   4.184 -0.3374 -0.2108 -0.1375
  637MOL0     N84002   9.375   6.747   4.704  0.3288  0.0096 -0.2288
  637MOL0     N84003   9.480   6.715   4.637 -0.7069  0.6229 -0.6759
  637MOL0     C84004  10.633   6.634   4.253  0.6166 -1.0487 -0.2697
  637MOL0     C84005  10.770   6.618   4.295 -0.4136  0.3437  0.3472
  637MOL0     C84006  11.154   6.453   4.482 -0.3995  0.1748  1.3059
  637MOL0     C84007  11.223   6.577   4.501 -0.4216  0.9739 -0.6500
  637MOL0     C84008  11.366   6.572   4.493  0.4774 -0.0127  0.8070
  637MOL0     C84009  11.439   6.456   4.476 -0.8048  0.1106 -0.5569
  637MOL0     O84010  11.574   6.443   4.468  0.9841 -0.5356 -0.2730
  637MOL0     C84011  11.651   6.550   4.418 -0.9471 -0.4468 -0.1160
  637MOL0     C84012  11.808   6.539   4.420  0.3314  0.3455  0.7726
  637MOL0     C84013  11.878   6.560   4.548 -0.0134  0.1433 -0.1366
  637MOL0     C84014  12.031   6.535   4.539  0.1491 -0.7525 -0.3548
  637MOL0     C84015  12.069   6.394   4.533 -0.4376 -0.3182 -0.8683
  637MOL0     C84016  12.079   6.275   4.533 -1.0426  1.0392 -0.2363
  637MOL0     C84017  11.372   6.343   4.459 -0.9056  0.6577  0.4614
  637MOL0     C84018  11.235   6.334   4.472  0.2128  0.0489  0.1680
  637MOL0     H84019  10.738   6.454   4.574 -1.2847  0.1571 -0.4298
  637MOL0     H84020  10.502   6.454   4.491 -0.0130 -0.5006  0.3298
  637MOL0     H84021  10.276   6.745   4.259 -0.4908 -1.4163  0.1638
  637MOL0     H84022  10.443   6.782   4.284  3.0209 -2.0655 -0.6675
  637MOL0     H84023  10.323   6.827   4.508 -1.6696 -1.0734  3.7617
  637MOL0     H84024  10.400   6.666   4.538  1.0831  1.1599  0.4679
  637MOL0     H84025  10.184   6.674   4.614  2.5216 -0.1147  0.5427
  637MOL0     H84026  10.217   6.551   4.480 -0.6326  0.2975 -0.6623
  637MOL0     H84027  10.121   6.823   4.400  0.6560  0.3408  1.1871
  637MOL0     H84028  10.086   6.684   4.318  2.0246 -0.3137  0.1191
  637MOL0     H84029   9.954   6.607   4.545 -1.3644 -0.6592 -0.3868
  637MOL0     H84030   9.887   6.721   4.414 -0.3202 -3.3798 -0.5376
  637MOL0     H84031   9.951   6.908   4.546  2.4780 -0.5469 -1.3407
  637MOL0     H84032  10.024   6.803   4.661 -1.2678  0.1552  1.9466
  637MOL0     H84033   9.781   6.685   4.696  3.6095  0.7511  1.5576
  637MOL0     H84034   9.795   6.831   4.771  0.1128 -0.9418  0.4259
  637MOL0     H84035   9.697   6.794   4.486 -0.3231  0.4955 -0.7306
  637MOL0     H84036   9.724   6.953   4.555 -1.8341 -0.1397  0.1493
  637MOL0     H84037   9.482   7.047   4.647  0.7773  1.2491 -1.0577
  637MOL0     H84038   9.246   7.018   4.818  2.4505  1.0077 -1.8537
  637MOL0     H84039   9.145   6.877   4.780 -0.3431  0.6390  0.1845
  637MOL0     H84040   9.236   7.098   4.595  2.3323  0.3639  2.9788
  637MOL0     H84041   9.069   7.063   4.657 -0.5667  1.0991 -4.0912
  637MOL0     H84042   9.218   6.859   4.492  0.2717  2.2171  0.9828
  637MOL0     H84043   9.056   6.841   4.564 -1.6012  1.2671 -1.3243
  637MOL0     H84044   8.983   7.027   4.409  0.5850  1.6189 -1.6661
  637MOL0     H84045   9.042   6.893   4.312  1.3283  2.7806 -3.1397
  637MOL0     H84046   9.389   7.132   4.417  0.1135 -1.4791  0.6633
  637MOL0     H84047   9.602   7.086   4.349 -0.2774  3.3422 -1.1014
  637MOL0     H84048   9.959   7.127   4.216 -0.3148 -0.1837  1.1039
  637MOL0     H84049  10.194   7.105   4.198  0.1720  0.7982 -1.0362
  637MOL0     H84050  10.344   7.142   4.023  0.8282  0.2181 -0.0782
  637MOL0     H84051  10.360   7.033   3.889 -2.1568  1.8455 -0.2685
  637MOL0     H84052  10.554   6.924   4.026 -1.9705  0.2472  0.3932
  637MOL0     H84053  10.546   7.066   4.142  0.3309 -1.0727  1.4643
  637MOL0     H84054  10.578   7.204   3.934 -1.2286  0.0113  1.3433
  637MOL0     H84055  10.609   7.070   3.829  1.2557  2.1944  0.0640
  637MOL0     H84056  10.760   7.141   4.094  1.2366 -2.3556  0.1603
  637MOL0     H84057  10.809   7.018   3.981 -0.5178 -0.4843 -0.0365
  637MOL0     H84058  10.831   7.321   3.944  0.5659 -0.3520  2.2602
  637MOL0     H84059  10.797   7.228   3.803 -3.0167  2.4747  1.7585
  637MOL0     H84060  11.036   7.253   3.827 -2.4947  0.5812 -2.9263
  637MOL0     H84061  10.997   7.077   3.836 -2.7285  1.1741 -1.0398
  637MOL0     H84062  11.084   7.257   4.069 -0.0502  0.2380  0.7712
  637MOL0     H84063  10.997   7.108   4.086 -0.3844  0.0473 -0.5022
  637MOL0     H84064  11.176   6.988   3.947  1.2091 -1.0340 -0.2265
  637MOL0     H84065  11.250   7.054   4.088  1.0164  0.9747  0.1269
  637MOL0     H84066  10.137   6.741   3.973  1.5977  1.9888 -1.2961
  637MOL0     H84067   9.893   6.732   4.052  0.0731  0.0623 -1.4241
  637MOL0     H84068   9.421   6.812   4.056  1.5617  0.5429  1.0376
  637MOL0     H84069   9.192   6.871   4.148 -0.0715 -1.6632  1.1336
  637MOL0     H84070  10.617   6.687   4.159  4.1444 -0.5624 -0.7579
  637MOL0     H84071  10.853   6.672   4.251 -0.7762  1.0140  0.4721
  637MOL0     H84072  11.174   6.665   4.542 -0.5049  0.8976 -0.5832
  637MOL0     H84073  11.419   6.667   4.504  1.5882 -0.4817 -0.2525
  637MOL0     H84074  11.622   6.633   4.483  0.7321 -1.6714  2.3698
  637MOL0     H84075  11.615   6.589   4.322 -1.6591  0.9555  0.7043
  637MOL0     H84076  11.839   6.453   4.359 -1.5111 -0.3999  0.8022
  637MOL0     H84077  11.844   6.625   4.363 -0.7015  0.9106  0.9557
  637MOL0     H84078  11.825   6.485   4.607 -1.0191  1.4350  0.6514
  637MOL0     H84079  11.851   6.659   4.586 -4.6555 -1.0079  0.1868
  637MOL0     H84080  12.074   6.586   4.452 -0.2195  2.0439  0.9972
  637MOL0     H84081  12.079   6.581   4.625  0.2152  0.9232 -1.2464
  637MOL0     H84082  12.088   6.168   4.531  0.1610  1.1274 -0.4190
  637MOL0     H84083  11.428   6.252   4.440 -2.4406 -1.0633  3.4778
  637MOL0     H84084  11.197   6.233   4.459  2.2832 -0.7579 -0.0204
  638MOL0     O84085   0.367   4.263   0.930 -0.9933 -0.5459  0.7735
  638MOL0     C84086   0.286   4.249   1.019  0.9215 -0.6617 -0.0389
  638MOL0     O84087   0.291   4.159   1.115  0.6756  0.9362 -0.6543
  638MOL0     C84088   0.363   4.044   1.103  0.3660 -0.0192  0.0620
  638MOL0     C84089   0.498   4.040   1.060 -1.2208 -0.5141 -0.2449
  638MOL0     C84090   0.558   3.916   1.045  0.2298 -0.2277  0.4456
  638MOL0     C84091   0.492   3.798   1.067 -0.8079  0.3179 -0.4464
  638MOL0     O84092   0.562   3.681   1.043 -0.2358 -0.3483  0.3890
  638MOL0     C84093   0.493   3.557   1.076 -1.1333 -0.5272 -0.5631
  638MOL0     C84094   0.573   3.441   1.050 -0.2909 -0.1795 -0.3537
  638MOL0     C84095   0.610   3.428   0.891  0.2590 -0.0050 -0.3281
  638MOL0     C84096   0.755   3.374   0.864  0.0004 -0.3226  0.1589
  638MOL0     C84097   0.870   3.463   0.894 -0.9836 -0.0537 -0.0846
  638MOL0     C84098   0.893   3.586   0.810 -0.8303 -0.6125 -0.5081
  638MOL0     C84099   1.027   3.667   0.834  1.7519 -0.3063  0.6560
  638MOL0     C84100   1.148   3.610   0.765  0.6795 -1.4888  1.2643
  638MOL0     N84101   1.249   3.725   0.764  0.2899 -0.4341 -0.7345
  638MOL0     C84102   1.338   3.750   0.868  0.2369  0.6724 -1.4245
  638MOL0     C84103   1.418   3.858   0.843  0.7093  0.2892 -0.1766
  638MOL0     C84104   1.536   3.915   0.913 -0.0697 -0.0752 -0.8785
  638MOL0     C84105   1.667   3.851   0.864  0.0381  0.2821  0.7618
  638MOL0     C84106   1.688   3.725   0.950  0.2954  0.1262 -0.2756
  638MOL0     C84107   1.742   3.605   0.878 -0.5124 -0.3652  0.1529
  638MOL0     O84108   1.643   3.577   0.776  0.0212 -0.3744 -0.2585
  638MOL0     C84109   1.638   3.453   0.725  0.5321  0.3342  0.5045
  638MOL0     C84110   1.541   3.450   0.624 -0.3517  0.3517  0.1477
  638MOL0     C84111   1.522   3.332   0.552  0.2989 -0.0926  0.4579
  638MOL0     C84112   1.603   3.217   0.571  0.5547 -0.3827 -0.3530
  638MOL0     C84113   1.579   3.091   0.487 -0.2466 -0.3629 -0.2495
  638MOL0     O84114   1.495   3.105   0.377 -0.5735  0.0740  0.1792
  638MOL0     C84115   1.469   2.990   0.312  0.1921  0.0975  0.4149
  638MOL0     C84116   1.557   2.947   0.214 -0.0642 -0.7666  0.0693
  638MOL0     C84117   1.525   2.828   0.147 -0.1168  0.2400  0.1545
  638MOL0     C84118   1.402   2.762   0.163  0.6968 -0.2632 -0.9640
  638MOL0     O84119   1.359   2.634   0.132  0.4090 -0.2117 -0.2314
  638MOL0     C84120   1.416   2.577   0.010  0.5621  0.1979 -0.1551
  638MOL0     C84121   1.548   2.513   0.042  1.2244  0.2810  0.8344
  638MOL0     C84122   1.525   2.397   0.149  0.4004 -0.4665  0.7811
  638MOL0     C84123   1.468   2.265   0.094  0.7864  0.2105  0.8310
  638MOL0     C84124   1.431   2.169   0.208 -0.5862 -0.9839  0.2863
  638MOL0     C84125   1.385   2.039   0.155 -0.1234  0.1886 -1.0099
  638MOL0     C84126   1.325   1.959   0.279 -0.6670  0.0884  0.2855
  638MOL0     C84127   1.233   1.841   0.237  0.1437 -1.1499 -0.8976
  638MOL0    Cl84128   1.055   1.885   0.178 -0.1806 -0.1433  0.0118
  638MOL0     C84129   1.315   2.820   0.260  0.3047  1.4660 -0.4253
  638MOL0     C84130   1.344   2.932   0.334 -0.6162 -0.4381 -1.2979
  638MOL0     O84131   1.634   2.987   0.519 -0.1118  0.4559 -0.7216
  638MOL0     C84132   1.702   3.223   0.674  0.2824  0.1232  0.9347
  638MOL0     C84133   1.722   3.344   0.745 -0.4326  1.0930  0.0173
  638MOL0     N84134   1.370   3.909   0.724 -0.2080  0.7831 -0.1445
  638MOL0     N84135   1.271   3.832   0.680 -0.4082 -0.2578 -0.8496
  638MOL0     C84136   0.354   3.801   1.111 -0.7670 -0.1263 -0.7341
  638MOL0     C84137   0.293   3.927   1.128 -1.7756 -0.4990 -1.1125
  638MOL0     C84138   0.161   4.325   1.007 -0.3794  0.3162  0.5793
  638MOL0     C84139   0.051   4.284   1.092  1.0500 -0.4283 -0.5167
  638MOL0     C84140  -0.065   4.355   1.064  1.6473 -0.7153  0.2294
  638MOL0     C84141  -0.088   4.447   0.965  0.5628  0.4801  1.0478
  638MOL0     O84142  -0.216   4.501   0.954 -0.3621  0.4098  0.1686
  638MOL0     C84143  -0.232   4.633   0.899  0.0886  0.2126  0.1674
  638MOL0     C84144  -0.163   4.750   0.961 -1.7800  0.4668  0.9895
  638MOL0     C84145  -0.209   4.752   1.109 -0.1001  0.1674  0.0685
  638MOL0     C84146  -0.190   4.894   1.157 -0.4293  0.0492  1.4951
  638MOL0     C84147  -0.260   4.907   1.279  0.5534 -1.3005  0.0908
  638MOL0     C84148  -0.316   4.919   1.388 -0.8869 -0.4123  0.2838
  638MOL0     C84149   0.026   4.488   0.890 -0.4469 -1.1049  0.6125
  638MOL0     C84150   0.154   4.421   0.903  0.0009 -0.3848 -0.5773
  638MOL0     H84151   0.555   4.130   1.037 -1.8609 -0.2699 -0.9431
  638MOL0     H84152   0.659   3.922   1.006 -0.3699 -1.0816 -1.3197
  638MOL0     H84153   0.404   3.555   1.011 -0.0829 -0.4574 -2.0544
  638MOL0     H84154   0.474   3.559   1.183  1.6001  0.1783 -0.0190
  638MOL0     H84155   0.514   3.357   1.087 -0.6700  1.9649  4.6854
  638MOL0     H84156   0.664   3.453   1.109 -0.2196  1.5847 -0.7704
  638MOL0     H84157   0.601   3.527   0.846 -1.5966  0.8827  1.7643
  638MOL0     H84158   0.540   3.359   0.843 -0.9685 -0.5458  2.0684
  638MOL0     H84159   0.757   3.293   0.936 -0.2462 -0.1798  0.3274
  638MOL0     H84160   0.770   3.336   0.762 -0.6128 -1.9014  0.6334
  638MOL0     H84161   0.969   3.418   0.882 -1.0711 -0.3314  0.2155
  638MOL0     H84162   0.850   3.496   0.996  1.9488  2.4171 -0.1806
  638MOL0     H84163   0.815   3.660   0.828 -0.5947 -0.9007  2.0333
  638MOL0     H84164   0.888   3.555   0.705  0.4115 -1.6596 -0.2958
  638MOL0     H84165   0.999   3.765   0.794  1.8946 -2.1754 -4.8784
  638MOL0     H84166   1.038   3.675   0.942  3.0163  2.0325  0.4188
  638MOL0     H84167   1.121   3.576   0.665  1.3422 -1.8681  1.2103
  638MOL0     H84168   1.179   3.524   0.825  1.2950 -2.7530 -0.7759
  638MOL0     H84169   1.365   3.675   0.941  2.0256  1.4425 -1.2447
  638MOL0     H84170   1.529   3.894   1.020  1.2319 -1.3713 -1.0152
  638MOL0     H84171   1.537   4.020   0.883 -1.5398 -0.3820 -2.1679
  638MOL0     H84172   1.749   3.924   0.864  2.1545 -1.9652  0.0221
  638MOL0     H84173   1.662   3.812   0.762  0.9825 -2.1568  1.5850
  638MOL0     H84174   1.744   3.747   1.041 -0.7494 -1.5923  0.8539
  638MOL0     H84175   1.591   3.684   0.982 -0.0483 -0.5465 -2.0818
  638MOL0     H84176   1.751   3.522   0.949 -1.1856 -0.1754  0.4721
  638MOL0     H84177   1.844   3.624   0.844 -0.9793 -0.4218 -1.3444
  638MOL0     H84178   1.485   3.541   0.605  0.4375  0.2010 -3.7195
  638MOL0     H84179   1.447   3.327   0.473  0.3842  0.3710  0.3453
  638MOL0     H84180   1.641   3.010   0.186  1.0832 -0.4438  3.7674
  638MOL0     H84181   1.588   2.792   0.066 -0.0832 -0.1083  0.3354
  638MOL0     H84182   1.431   2.649  -0.072 -2.5005 -2.1237 -3.0235
  638MOL0     H84183   1.347   2.510  -0.041  0.9379  0.3691 -0.9126
  638MOL0     H84184   1.622   2.585   0.078  3.3568 -1.3194 -0.1188
  638MOL0     H84185   1.586   2.475  -0.053 -2.0160  1.8825 -1.2765
  638MOL0     H84186   1.473   2.430   0.239  0.0092 -0.5222  0.5817
  638MOL0     H84187   1.624   2.371   0.186  0.8893  0.8906  0.4749
  638MOL0     H84188   1.374   2.278   0.039  0.4942 -2.2542  0.6240
  638MOL0     H84189   1.542   2.210   0.034 -2.1778 -1.1191 -1.8994
  638MOL0     H84190   1.358   2.224   0.268 -1.0828 -2.1949  0.8220
  638MOL0     H84191   1.518   2.153   0.273  0.0125 -0.4944 -0.3714
  638MOL0     H84192   1.470   1.976   0.128  0.3584 -0.6253  2.0481
  638MOL0     H84193   1.319   2.043   0.068 -0.4165 -4.7679 -1.3088
  638MOL0     H84194   1.403   1.907   0.335  2.5828  2.4568 -1.6801
  638MOL0     H84195   1.266   2.025   0.344  1.3608  2.6574 -0.3176
  638MOL0     H84196   1.216   1.774   0.322 -4.0213  1.6967  0.9041
  638MOL0     H84197   1.272   1.781   0.154 -0.6282  1.5530 -3.3826
  638MOL0     H84198   1.238   2.752   0.295  1.1975  0.2483 -0.7158
  638MOL0     H84199   1.289   2.983   0.412  1.8469  1.7448 -0.8355
  638MOL0     H84200   1.772   3.141   0.680 -0.4104 -0.5286  0.3246
  638MOL0     H84201   1.807   3.335   0.812 -1.5870 -1.4563  1.2868
  638MOL0     H84202   0.296   3.714   1.141 -3.5376  2.3552  1.8164
  638MOL0     H84203   0.185   3.922   1.143 -1.7128  1.2023  0.2438
  638MOL0     H84204   0.049   4.204   1.166  0.5672 -0.1225 -0.1963
  638MOL0     H84205  -0.146   4.347   1.136  1.4968 -1.1089  0.0158
  638MOL0     H84206  -0.340   4.645   0.893  0.0694  1.8381  2.5602
  638MOL0     H84207  -0.189   4.628   0.798  0.4827  1.0206  0.2897
  638MOL0     H84208  -0.056   4.739   0.945 -1.9106  2.7122 -2.5816
  638MOL0     H84209  -0.194   4.840   0.906  0.1846 -0.3808 -1.7243
  638MOL0     H84210  -0.156   4.676   1.168  0.5924  1.4427  1.1250
  638MOL0     H84211  -0.318   4.745   1.112 -0.7338  5.7501  0.2650
  638MOL0     H84212  -0.085   4.923   1.163 -0.7454  0.9874  3.2194
  638MOL0     H84213  -0.249   4.957   1.089 -3.2733 -2.0259  1.8593
  638MOL0     H84214  -0.363   4.930   1.483 -2.6119 -2.6332 -0.2401
  638MOL0     H84215   0.011   4.575   0.828 -0.9690 -0.8997  1.0233
  638MOL0     H84216   0.235   4.467   0.848  1.7578  0.2614  2.3170
  639MOL0     O84217   7.280   1.149   4.083 -0.3164 -0.7257 -0.7202
  639MOL0     C84218   7.198   1.097   4.153  0.5249  0.1095 -1.2722
  639MOL0     O84219   7.220   1.058   4.281 -0.4945  0.0829 -0.5961
  639MOL0     C84220   7.342   1.085   4.333 -0.9177 -0.1783 -0.1522
  639MOL0     C84221   7.408   0.974   4.391  0.0287  0.3452  0.1971
  639MOL0     C84222   7.537   0.988   4.455 -0.3858 -0.0974  0.2104
  639MOL0     C84223   7.605   1.108   4.453  0.8475  0.5526 -0.1245
  639MOL0     O84224   7.714   1.129   4.531  0.9050  0.9042  0.2763
  639MOL0     C84225   7.824   1.208   4.474  0.4969 -0.0764  0.0003
  639MOL0     C84226   7.940   1.212   4.567 -0.9857  0.1577 -1.3434
  639MOL0     C84227   7.996   1.072   4.592 -0.7857  0.0063  0.8380
  639MOL0     C84228   8.091   1.057   4.720  0.3605  0.3395  0.0477
  639MOL0     C84229   8.165   0.927   4.712 -0.6616 -0.1460  0.2868
  639MOL0     C84230   8.076   0.806   4.738 -1.2616  0.1350 -0.1870
  639MOL0     C84231   8.096   0.753   4.887  0.2418  1.1336 -0.4140
  639MOL0     C84232   8.010   0.828   4.986  0.0954 -0.8616 -0.4292
  639MOL0     N84233   7.965   0.726   5.086  0.5639 -0.1347  0.0814
  639MOL0     C84234   8.049   0.663   5.171 -0.0987  0.2407  0.5084
  639MOL0     C84235   7.972   0.595   5.253 -0.7558  0.4862 -0.5354
  639MOL0     C84236   8.029   0.514   5.372  1.3129 -0.1647  0.5351
  639MOL0     C84237   7.988   0.358   5.345  0.4719 -0.2027  0.0375
  639MOL0     C84238   8.078   0.260   5.428  0.2359  0.0833  0.7002
  639MOL0     C84239   8.039   0.245   5.574  0.1376 -0.6482 -0.2282
  639MOL0     O84240   8.120   0.166   5.658 -0.2862  0.3466 -0.1034
  639MOL0     C84241   8.242   0.219   5.704  0.2386  0.3064  0.5536
  639MOL0     C84242   8.239   0.330   5.786 -0.7491 -0.2543  0.1826
  639MOL0     C84243   8.354   0.365   5.850  1.0144 -1.3731  0.5476
  639MOL0     C84244   8.472   0.299   5.831 -0.5500 -0.4023  1.1773
  639MOL0     C84245   8.583   0.339   5.914  0.3340  0.9127 -0.3561
  639MOL0     O84246   8.707   0.287   5.885 -0.2804  0.5380 -0.1296
  639MOL0     C84247   8.824   0.315   5.955 -0.7244 -0.2366  0.0487
  639MOL0     C84248   8.844   0.397   6.065  0.2181 -0.1038 -0.3735
  639MOL0     C84249   8.972   0.423   6.111 -0.2514 -0.0016 -0.4933
  639MOL0     C84250   9.091   0.374   6.047 -0.3960 -0.2279 -0.9948
  639MOL0     O84251   9.229   0.395   6.076 -1.5221 -0.5936 -0.6700
  639MOL0     C84252   9.269   0.500   6.172 -0.3430  0.0592  0.4531
  639MOL0     C84253   9.423   0.509   6.175 -0.6916  0.4329 -1.0949
  639MOL0     C84254   9.478   0.564   6.034 -0.3011  0.4397 -0.2121
  639MOL0     C84255   9.633   0.570   6.031 -0.1186  0.1570  0.0092
  639MOL0     C84256   9.698   0.609   5.897  0.2439 -0.4012  0.0318
  639MOL0     C84257   9.838   0.660   5.899 -0.1994  1.4453  0.1178
  639MOL0     C84258   9.873   0.726   5.757 -0.5685  0.1769 -0.2621
  639MOL0     C84259  10.020   0.757   5.757 -0.2812 -0.3436 -0.2813
  639MOL0    Cl84260  10.122   0.610   5.748  0.6260  0.2604 -0.2870
  639MOL0     C84261   9.072   0.285   5.941  0.0082 -0.7233 -0.6335
  639MOL0     C84262   8.943   0.260   5.902 -0.5217 -0.5322 -0.1157
  639MOL0     O84263   8.559   0.421   6.000 -0.0265 -1.1719 -0.3784
  639MOL0     C84264   8.479   0.186   5.745 -0.0475 -0.2880  0.1572
  639MOL0     C84265   8.365   0.141   5.684 -0.3795  0.1327  0.4133
  639MOL0     N84266   7.838   0.610   5.221 -0.3537  0.0060 -0.8680
  639MOL0     N84267   7.839   0.677   5.114  0.4846  0.3050  0.4547
  639MOL0     C84268   7.542   1.221   4.399  0.1954  0.0424  0.6843
  639MOL0     C84269   7.416   1.212   4.339  0.3591  0.0456  0.8680
  639MOL0     C84270   7.058   1.085   4.102  0.2390  0.2174  0.9431
  639MOL0     C84271   6.953   1.016   4.163 -0.8404  1.0781 -0.2684
  639MOL0     C84272   6.824   1.013   4.116  0.6074 -1.0915  0.2806
  639MOL0     C84273   6.787   1.089   3.998  0.4204  0.4693 -0.3135
  639MOL0     O84274   6.649   1.092   3.967  0.2227  0.2363 -0.2860
  639MOL0     C84275   6.609   1.157   3.848  0.3881 -0.1329  0.4830
  639MOL0     C84276   6.637   1.065   3.726  0.1513 -0.0315 -0.5108
  639MOL0     C84277   6.590   0.927   3.752 -0.5564 -0.1976  0.4563
  639MOL0     C84278   6.498   0.901   3.639 -0.3459  0.5631 -0.3847
  639MOL0     C84279   6.554   0.895   3.502  0.0499  0.2403  0.1067
  639MOL0     C84280   6.590   0.875   3.390  0.2503 -0.2998  1.2618
  639MOL0     C84281   6.895   1.150   3.929 -0.1107 -0.7445 -0.4834
  639MOL0     C84282   7.021   1.145   3.983 -0.5278 -0.2074  0.3771
  639MOL0     H84283   7.350   0.883   4.403 -1.4820  1.2283 -0.1107
  639MOL0     H84284   7.584   0.903   4.505  0.9621  0.7117  0.3798
  639MOL0     H84285   7.785   1.309   4.466 -1.9305 -0.8007  1.5805
  639MOL0     H84286   7.854   1.167   4.377 -0.8423  4.2233 -2.4733
  639MOL0     H84287   7.892   1.260   4.653 -1.4462  1.8405 -2.4986
  639MOL0     H84288   8.018   1.279   4.531 -0.8054 -0.4763 -2.1655
  639MOL0     H84289   8.044   1.052   4.496 -0.4040  1.7867  0.6260
  639MOL0     H84290   7.914   1.000   4.590 -0.7320 -0.0529  0.7740
  639MOL0     H84291   8.163   1.139   4.715 -2.7277  3.2023 -1.8097
  639MOL0     H84292   8.033   1.074   4.812 -1.2497  0.7400 -0.9877
  639MOL0     H84293   8.254   0.926   4.776  0.6337 -0.7162 -1.4287
  639MOL0     H84294   8.192   0.912   4.607  0.1704  1.8884  0.1589
  639MOL0     H84295   8.116   0.725   4.677 -3.2450  0.9561 -2.7400
  639MOL0     H84296   7.971   0.814   4.709 -1.0767  1.1812 -0.6243
  639MOL0     H84297   8.069   0.648   4.870  0.6188  1.0382 -0.4202
  639MOL0     H84298   8.201   0.741   4.912 -0.2879  0.5424  1.7787
  639MOL0     H84299   7.915   0.852   4.938  0.0437  0.5514  0.3241
  639MOL0     H84300   8.060   0.916   5.030  0.1386 -0.8502 -0.5009
  639MOL0     H84301   8.158   0.664   5.178 -0.0903 -1.1742  0.8963
  639MOL0     H84302   7.989   0.542   5.469  1.4148  0.7408  0.3263
  639MOL0     H84303   8.137   0.533   5.372  0.8750  2.9166  0.6772
  639MOL0     H84304   7.990   0.338   5.237 -3.0638  0.0731 -0.2104
  639MOL0     H84305   7.889   0.344   5.389  1.3488 -0.4300  2.0361
  639MOL0     H84306   8.086   0.162   5.378 -2.1699 -0.0079  0.3472
  639MOL0     H84307   8.175   0.309   5.420  0.9019 -1.3995 -1.3275
  639MOL0     H84308   7.938   0.204   5.564 -0.2205  0.2716 -0.5149
  639MOL0     H84309   8.036   0.349   5.607  0.4482 -0.0856 -1.8632
  639MOL0     H84310   8.153   0.393   5.808  0.3560  1.6462 -0.6736
  639MOL0     H84311   8.350   0.460   5.901  1.8816 -0.5590 -0.8426
  639MOL0     H84312   8.763   0.451   6.113 -1.1062 -2.1541 -0.1692
  639MOL0     H84313   8.989   0.484   6.199  4.9514 -0.1268 -1.1069
  639MOL0     H84314   9.233   0.485   6.274 -0.2242  2.7085  0.9730
  639MOL0     H84315   9.226   0.589   6.126  2.2127  0.9563 -0.3599
  639MOL0     H84316   9.463   0.409   6.193  0.7131  0.9125 -1.4198
  639MOL0     H84317   9.467   0.570   6.255 -0.1750 -1.7288  0.3622
  639MOL0     H84318   9.433   0.663   6.019 -1.1813  0.2833  1.2054
  639MOL0     H84319   9.446   0.502   5.950  0.6619  1.7022 -1.5742
  639MOL0     H84320   9.637   0.648   6.108 -0.1189  1.8003 -1.5953
  639MOL0     H84321   9.664   0.471   6.063  2.6357  0.1216 -2.3539
  639MOL0     H84322   9.643   0.693   5.853  1.3803  3.0345  4.4263
  639MOL0     H84323   9.693   0.522   5.831 -2.0778 -1.2667  1.2443
  639MOL0     H84324   9.895   0.568   5.906 -2.5139 -0.1680 -0.9316
  639MOL0     H84325   9.845   0.727   5.985  0.0328 -0.9815  2.0875
  639MOL0     H84326   9.839   0.667   5.671 -0.9332  1.5986 -1.1246
  639MOL0     H84327   9.825   0.824   5.761 -0.4448  0.1902  2.2436
  639MOL0     H84328  10.043   0.810   5.849 -0.3248  2.2014 -1.6533
  639MOL0     H84329  10.046   0.833   5.682  0.8453 -0.4093  0.0236
  639MOL0     H84330   9.146   0.243   5.874  0.2204 -1.0124 -0.2165
  639MOL0     H84331   8.925   0.196   5.816 -1.0932  3.3504 -3.1618
  639MOL0     H84332   8.567   0.126   5.723  0.2343 -0.0256  0.5416
  639MOL0     H84333   8.373   0.053   5.620 -1.3210  0.7757 -0.6423
  639MOL0     H84334   7.581   1.323   4.396  0.8628 -0.2167 -1.6801
  639MOL0     H84335   7.373   1.307   4.310  0.8293  0.3120  1.0337
  639MOL0     H84336   6.956   0.966   4.260 -1.8763  0.9526 -0.2827
  639MOL0     H84337   6.751   0.969   4.182 -1.3221  0.2580 -0.8636
  639MOL0     H84338   6.662   1.251   3.830 -3.7830  2.2971 -0.3530
  639MOL0     H84339   6.502   1.179   3.846 -0.2630 -2.7362 -2.7982
  639MOL0     H84340   6.589   1.116   3.642 -0.9630 -0.0318  0.1034
  639MOL0     H84341   6.739   1.057   3.687  0.5541  2.0681 -0.0136
  639MOL0     H84342   6.527   0.924   3.841 -2.8143 -1.4917 -1.0922
  639MOL0     H84343   6.659   0.842   3.761 -2.2733 -1.7231 -0.1545
  639MOL0     H84344   6.456   0.802   3.659 -0.0335  0.4569 -0.2475
  639MOL0     H84345   6.417   0.975   3.642  0.8547  1.8895  0.8105
  639MOL0     H84346   6.620   0.865   3.288  0.7179 -3.3878  1.6272
  639MOL0     H84347   6.876   1.212   3.842 -1.5844  1.2316  1.1188
  639MOL0     H84348   7.091   1.199   3.919 -0.6838  0.8084  1.0414
  640MOL0     O84349   3.540   7.185   1.703 -0.4576  1.0277 -0.9548
  640MOL0     C84350   3.497   7.199   1.822 -0.9435  0.4608  0.5727
  640MOL0     O84351   3.550   7.134   1.934 -0.0309 -0.3444 -0.2910
  640MOL0     C84352   3.669   7.068   1.916  1.0133 -0.1799 -0.2684
  640MOL0     C84353   3.786   7.130   1.884  0.4731  0.0734  0.9520
  640MOL0     C84354   3.911   7.070   1.881 -0.5814  0.1030 -0.7941
  640MOL0     C84355   3.923   6.936   1.926  0.0917 -0.8487  0.2283
  640MOL0     O84356   4.051   6.881   1.926  0.3188 -1.0646 -0.6388
  640MOL0     C84357   4.104   6.833   2.051 -0.1666 -0.4342 -0.0256
  640MOL0     C84358   4.250   6.855   2.061 -0.8366  0.9489  0.0827
  640MOL0     C84359   4.311   6.801   2.189  0.0679  0.2299 -0.1358
  640MOL0     C84360   4.456   6.777   2.168 -0.3024 -0.5471  0.1077
  640MOL0     C84361   4.519   6.721   2.294  0.4318  0.4698 -0.1302
  640MOL0     C84362   4.660   6.656   2.272 -1.4312 -0.1300  0.0434
  640MOL0     C84363   4.697   6.574   2.406 -0.6860 -0.5884  0.3899
  640MOL0     C84364   4.854   6.547   2.409  1.1513 -0.0224  0.2116
  640MOL0     N84365   4.888   6.491   2.538 -0.9548  0.9294  0.3227
  640MOL0     C84366   4.863   6.365   2.582  0.4375  0.8368 -0.4305
  640MOL0     C84367   4.914   6.360   2.702 -0.4630 -0.0913 -0.2979
  640MOL0     C84368   4.909   6.232   2.773 -0.4268  0.5513 -0.3829
  640MOL0     C84369   4.775   6.218   2.842  0.6662 -0.5356 -0.2746
  640MOL0     C84370   4.762   6.070   2.910  0.2425 -0.6847  0.2846
  640MOL0     C84371   4.778   5.952   2.817  0.4985 -0.1715  0.3048
  640MOL0     O84372   4.751   5.830   2.882 -1.0457  0.0768 -0.0220
  640MOL0     C84373   4.839   5.786   2.981  0.6114 -0.1303 -0.4811
  640MOL0     C84374   4.804   5.694   3.080  0.6450 -0.4467 -0.3984
  640MOL0     C84375   4.890   5.634   3.175  0.6538 -1.3525  0.0656
  640MOL0     C84376   5.025   5.671   3.173 -0.0805 -0.2159 -0.3082
  640MOL0     C84377   5.111   5.620   3.277 -0.0691  0.3200  0.3344
  640MOL0     O84378   5.063   5.520   3.361  0.2255  0.0385 -0.2269
  640MOL0     C84379   5.148   5.460   3.454  0.1302 -0.0652  1.3295
  640MOL0     C84380   5.146   5.313   3.456 -1.1367 -0.8533 -0.0516
  640MOL0     C84381   5.229   5.247   3.548  0.6491  0.4526  0.4289
  640MOL0     C84382   5.329   5.307   3.620 -1.0947 -0.1353  0.1982
  640MOL0     O84383   5.428   5.231   3.695  0.1967  0.0199 -0.8029
  640MOL0     C84384   5.472   5.111   3.625 -0.4409  0.8517  0.3776
  640MOL0     C84385   5.605   5.071   3.689  0.1397 -0.8139  0.0126
  640MOL0     C84386   5.581   5.045   3.850  0.0204  0.3338  0.3773
  640MOL0     C84387   5.703   4.985   3.914 -0.4168  0.1788 -0.0485
  640MOL0     C84388   5.686   4.966   4.063 -0.0074 -0.4097  0.1203
  640MOL0     C84389   5.697   5.103   4.142 -0.0430  0.4364 -0.0197
  640MOL0     C84390   5.832   5.172   4.117  0.2973  1.2052  0.8791
  640MOL0     C84391   5.838   5.291   4.219 -0.6075 -0.1413 -0.0403
  640MOL0    Cl84392   5.714   5.414   4.173 -0.8060  0.2080 -0.2955
  640MOL0     C84393   5.331   5.454   3.621 -0.6065  0.2229  1.3503
  640MOL0     C84394   5.241   5.523   3.537 -0.4119  0.1102  0.1559
  640MOL0     O84395   5.233   5.658   3.278 -0.3394 -0.0319 -0.2203
  640MOL0     C84396   5.068   5.759   3.065  0.1823 -0.2638  0.3103
  640MOL0     C84397   4.976   5.814   2.975 -0.2582  0.4542 -0.4151
  640MOL0     N84398   4.969   6.481   2.749  0.3434 -0.5657  0.6007
  640MOL0     N84399   4.948   6.562   2.643 -0.7351  0.8496  0.0197
  640MOL0     C84400   3.801   6.865   1.942  1.3174 -0.5427  0.2433
  640MOL0     C84401   3.672   6.930   1.941 -0.6206  0.1898  0.6355
  640MOL0     C84402   3.398   7.302   1.843  0.2518  0.8364 -0.3556
  640MOL0     C84403   3.370   7.396   1.747 -0.3656  1.4987 -0.1839
  640MOL0     C84404   3.268   7.487   1.762  0.7132  0.0526 -0.0581
  640MOL0     C84405   3.194   7.492   1.888 -0.0412  0.3728  0.5683
  640MOL0     O84406   3.087   7.569   1.909 -0.3620 -0.4565  0.1080
  640MOL0     C84407   2.983   7.571   1.803  0.1834  0.4170 -1.2296
  640MOL0     C84408   2.859   7.499   1.825 -0.2597  1.1267 -0.0633
  640MOL0     C84409   2.803   7.512   1.965  0.2537  0.6943 -0.2872
  640MOL0     C84410   2.655   7.480   1.974  0.4016 -0.3091 -0.3584
  640MOL0     C84411   2.614   7.513   2.109  0.5761  0.1645  0.4080
  640MOL0     C84412   2.569   7.520   2.223 -0.5637 -1.3393 -0.2243
  640MOL0     C84413   3.221   7.401   1.984  0.7621 -1.0138  0.4860
  640MOL0     C84414   3.325   7.305   1.963  0.4500  0.7308 -0.1811
  640MOL0     H84415   3.791   7.238   1.885  1.3685  0.0387  1.5983
  640MOL0     H84416   3.997   7.135   1.865  0.1668 -0.2612  1.3758
  640MOL0     H84417   4.078   6.728   2.063  1.1301 -0.9739 -1.6298
  640MOL0     H84418   4.061   6.887   2.136  2.0236  1.2318  0.1322
  640MOL0     H84419   4.275   6.961   2.072 -0.7037  1.1401 -1.6872
  640MOL0     H84420   4.290   6.810   1.969 -2.6183  0.2185 -0.3669
  640MOL0     H84421   4.261   6.708   2.218  1.4499 -0.4907  0.0182
  640MOL0     H84422   4.312   6.871   2.274 -1.3548  1.7456 -1.2975
  640MOL0     H84423   4.455   6.698   2.092  0.2819  0.5642 -1.1002
  640MOL0     H84424   4.503   6.865   2.122 -3.9355  1.5442 -0.0062
  640MOL0     H84425   4.463   6.640   2.340 -0.3911  1.2490  0.2633
  640MOL0     H84426   4.531   6.802   2.366  1.7855  1.6360 -1.5753
  640MOL0     H84427   4.729   6.740   2.256 -3.2034  1.4278  0.1788
  640MOL0     H84428   4.674   6.583   2.192 -0.9234 -0.9240  0.8386
  640MOL0     H84429   4.668   6.623   2.499 -0.8908 -0.0424  0.0454
  640MOL0     H84430   4.641   6.480   2.405 -2.0498  0.1949  0.3204
  640MOL0     H84431   4.911   6.640   2.417  0.4357  0.6700 -1.9697
  640MOL0     H84432   4.886   6.491   2.321 -2.1435 -4.6847  1.5987
  640MOL0     H84433   4.795   6.289   2.546  0.2460  0.0973  1.3689
  640MOL0     H84434   4.995   6.227   2.839 -0.5773  0.0334 -0.2225
  640MOL0     H84435   4.922   6.146   2.706  1.8786  1.2990 -0.9775
  640MOL0     H84436   4.689   6.223   2.774  0.7273 -2.1560 -0.5082
  640MOL0     H84437   4.768   6.291   2.923 -4.0120  0.7121 -1.4864
  640MOL0     H84438   4.838   6.075   2.988  1.9529  0.2300 -1.3477
  640MOL0     H84439   4.662   6.070   2.954  1.1086  2.0416  2.5944
  640MOL0     H84440   4.877   5.947   2.770  0.4835 -0.5440  0.3064
  640MOL0     H84441   4.715   5.938   2.729  2.2673 -4.0617 -0.5861
  640MOL0     H84442   4.706   5.647   3.080  1.6963 -3.0293  2.5847
  640MOL0     H84443   4.866   5.568   3.258  4.2976 -1.2338  1.3890
  640MOL0     H84444   5.070   5.273   3.390 -2.6606 -0.6080  1.4752
  640MOL0     H84445   5.224   5.139   3.550  1.0692  0.3199 -2.1965
  640MOL0     H84446   5.494   5.131   3.520  2.8869  2.2741  1.2007
  640MOL0     H84447   5.397   5.032   3.634  0.0924  0.1223 -1.2728
  640MOL0     H84448   5.688   5.138   3.667  0.4250 -0.3795  2.1982
  640MOL0     H84449   5.633   4.978   3.638  1.2956  0.0103 -0.8841
  640MOL0     H84450   5.495   4.978   3.854  0.4798 -0.2895  0.0289
  640MOL0     H84451   5.539   5.133   3.900 -2.3976 -0.2603 -0.4799
  640MOL0     H84452   5.715   4.884   3.873 -3.2336  0.2980 -1.4227
  640MOL0     H84453   5.794   5.042   3.893  0.0135  0.1550  1.6062
  640MOL0     H84454   5.758   4.889   4.092 -0.4071 -1.0948 -0.6518
  640MOL0     H84455   5.598   4.906   4.087  1.3320 -2.3748  0.4120
  640MOL0     H84456   5.707   5.075   4.248  6.3116 -0.4920 -0.4918
  640MOL0     H84457   5.611   5.167   4.120 -2.5619 -2.4720  0.5590
  640MOL0     H84458   5.909   5.098   4.143  0.8707  1.4194 -0.1519
  640MOL0     H84459   5.851   5.194   4.012 -2.0918 -0.2897  0.0491
  640MOL0     H84460   5.930   5.351   4.216 -1.2658  1.2179  2.7665
  640MOL0     H84461   5.826   5.263   4.324  0.3055  1.3537  0.4879
  640MOL0     H84462   5.397   5.515   3.681 -0.4162  2.2684 -0.8053
  640MOL0     H84463   5.241   5.631   3.547  0.7838 -0.0398  2.4803
  640MOL0     H84464   5.171   5.790   3.061  0.7111 -0.1751  6.1747
  640MOL0     H84465   5.020   5.886   2.907 -0.4879 -1.3368 -2.5725
  640MOL0     H84466   3.802   6.759   1.967 -2.2922 -0.4338  1.3530
  640MOL0     H84467   3.589   6.864   1.966 -0.0984 -0.4726  0.6377
  640MOL0     H84468   3.412   7.381   1.648 -0.1846 -1.2310  0.2254
  640MOL0     H84469   3.230   7.550   1.682  4.3113 -0.4774 -2.4044
  640MOL0     H84470   3.023   7.534   1.708 -2.7671 -3.1085 -1.3301
  640MOL0     H84471   2.965   7.679   1.800  0.2893  0.4953  0.1369
  640MOL0     H84472   2.782   7.552   1.769 -3.8282  0.3572  3.6556
  640MOL0     H84473   2.868   7.392   1.802 -0.3895  1.7295 -3.3553
  640MOL0     H84474   2.810   7.615   2.001 -0.0960  0.4199  0.5813
  640MOL0     H84475   2.852   7.451   2.041 -3.1710 -1.4778  0.4016
  640MOL0     H84476   2.599   7.541   1.903  0.6233  0.1101 -0.1778
  640MOL0     H84477   2.642   7.373   1.953  3.3948 -0.4879 -1.8180
  640MOL0     H84478   2.521   7.509   2.318  2.1064 -3.7525  0.9998
  640MOL0     H84479   3.168   7.404   2.079 -2.6902  0.6189 -1.3201
  640MOL0     H84480   3.356   7.234   2.038  0.8831  1.0658 -0.0371
  641MOL0     O84481   6.700  11.325   9.304 -0.7354  0.1620 -0.4010
  641MOL0     C84482   6.625  11.316   9.394 -0.6349  0.4415 -1.1380
  641MOL0     O84483   6.648  11.371   9.518  0.7028 -1.0120  0.0185
  641MOL0     C84484   6.767  11.409   9.569  0.1347  0.4758 -1.0546
  641MOL0     C84485   6.757  11.419   9.712  0.2993 -0.3411  0.5909
  641MOL0     C84486   6.877  11.460   9.775  0.3204 -0.4087 -0.1192
  641MOL0     C84487   6.990  11.495   9.702  0.7865  0.5497 -0.2738
  641MOL0     O84488   7.103  11.518   9.773 -0.5358 -0.0299 -0.4059
  641MOL0     C84489   7.233  11.534   9.712  0.6977  0.9843 -0.7425
  641MOL0     C84490   7.352  11.544   9.812 -0.6833 -0.1640 -0.3964
  641MOL0     C84491   7.294  11.638   9.917 -0.6727  0.2608  0.0002
  641MOL0     C84492   7.398  11.677  10.015  0.7128 -1.0628 -0.7766
  641MOL0     C84493   7.436  11.561  10.121  1.0123 -0.6857  0.4000
  641MOL0     C84494   7.314  11.544  10.217  0.7346  0.6572  0.3232
  641MOL0     C84495   7.332  11.422  10.307 -0.6456  0.6330 -1.3488
  641MOL0     C84496   7.238  11.305  10.261 -0.8261  0.0493 -0.7193
  641MOL0     N84497   7.266  11.257  10.118 -0.0481 -0.5298  1.3045
  641MOL0     C84498   7.178  11.270  10.009  0.3749  0.4044  0.2668
  641MOL0     C84499   7.244  11.197   9.912  0.9412  0.3922 -0.4022
  641MOL0     C84500   7.193  11.186   9.766  0.1485 -0.0083 -0.6667
  641MOL0     C84501   7.128  11.049   9.734 -0.4201  1.2204 -0.1713
  641MOL0     C84502   7.089  11.034   9.586  0.5142  0.4900  1.2863
  641MOL0     C84503   7.002  10.909   9.571  0.4206 -0.2736  0.2388
  641MOL0     O84504   7.019  10.857   9.440  0.2122  0.3361 -0.5976
  641MOL0     C84505   7.094  10.748   9.407 -0.0447 -0.5124  0.1548
  641MOL0     C84506   7.182  10.686   9.498  0.6074  0.0528 -0.4240
  641MOL0     C84507   7.259  10.586   9.454  0.2297 -0.4011 -0.0064
  641MOL0     C84508   7.260  10.540   9.320 -0.4801 -0.7881  0.4721
  641MOL0     C84509   7.370  10.450   9.277 -0.2926  1.3513 -0.0482
  641MOL0     O84510   7.456  10.410   9.364 -0.4706 -0.3143 -0.7706
  641MOL0     C84511   7.580  10.339   9.330  0.2213  0.1548 -0.4796
  641MOL0     C84512   7.593  10.208   9.375  0.3629  0.3435 -0.0357
  641MOL0     C84513   7.717  10.143   9.366  1.2520  0.7682 -0.0802
  641MOL0     C84514   7.836  10.206   9.332  0.1081 -0.3976 -0.2180
  641MOL0     O84515   7.948  10.130   9.346 -0.4374  0.7942 -0.7384
  641MOL0     C84516   8.071  10.186   9.323 -0.8091 -1.0032  0.3083
  641MOL0     C84517   8.178  10.076   9.285  0.3636  0.4748 -0.7818
  641MOL0     C84518   8.208   9.982   9.417 -0.3626  0.2697  0.3038
  641MOL0     C84519   8.343   9.908   9.411 -0.5599 -0.5788  0.0793
  641MOL0     C84520   8.474   9.997   9.393  0.4305  0.0959 -0.2520
  641MOL0     C84521   8.596   9.910   9.378 -0.5704 -0.4171  0.5497
  641MOL0     C84522   8.725   9.986   9.367 -0.5492  1.2627 -0.4330
  641MOL0     C84523   8.843   9.897   9.331 -0.8111  0.9398  0.5437
  641MOL0    Cl84524   8.985  10.000   9.312 -0.3253 -0.1530  0.5683
  641MOL0     C84525   7.821  10.344   9.285  0.4905 -0.0281  0.1898
  641MOL0     C84526   7.701  10.405   9.283 -0.4659  0.8434 -0.2788
  641MOL0     O84527   7.385  10.425   9.156  0.4161 -0.3244  1.0907
  641MOL0     C84528   7.172  10.599   9.231 -0.4071 -0.0175 -0.1917
  641MOL0     C84529   7.083  10.700   9.272 -0.4257  0.0414 -0.8873
  641MOL0     N84530   7.369  11.167   9.961  0.4598  0.7816 -0.6504
  641MOL0     N84531   7.388  11.201  10.085  0.2761 -0.1516  0.4679
  641MOL0     C84532   6.987  11.489   9.567  0.6145 -0.2947  0.0270
  641MOL0     C84533   6.878  11.445   9.492 -0.5390  0.2812 -0.1856
  641MOL0     C84534   6.497  11.250   9.376 -0.0298  0.2664 -0.1662
  641MOL0     C84535   6.455  11.220   9.252  0.1649 -0.4127 -0.7292
  641MOL0     C84536   6.329  11.177   9.221  0.1770  0.7586  0.0198
  641MOL0     C84537   6.237  11.153   9.330  0.0815 -1.5605  1.2694
  641MOL0     O84538   6.114  11.105   9.306 -0.2020  0.1024 -0.3956
  641MOL0     C84539   6.086  10.976   9.350  0.6545  0.1233  0.1645
  641MOL0     C84540   5.938  10.937   9.385 -0.2764 -0.3065  0.4789
  641MOL0     C84541   5.937  10.781   9.373  0.3086 -0.7549 -0.0756
  641MOL0     C84542   5.876  10.716   9.498  0.2025  1.1726 -0.4043
  641MOL0     C84543   5.738  10.756   9.508  0.1620  0.7955 -0.4548
  641MOL0     C84544   5.625  10.776   9.535  0.2663 -0.7665 -1.1550
  641MOL0     C84545   6.272  11.200   9.453  0.2699  0.6959 -1.5362
  641MOL0     C84546   6.406  11.245   9.482  1.6304 -0.7534 -0.1575
  641MOL0     H84547   6.671  11.404   9.776  1.7391 -2.3790  2.1892
  641MOL0     H84548   6.880  11.467   9.884  1.4325 -0.9590 -0.1033
  641MOL0     H84549   7.223  11.629   9.658 -1.2055  0.9200 -0.5662
  641MOL0     H84550   7.254  11.452   9.642  2.7084 -0.0825  0.9905
  641MOL0     H84551   7.433  11.599   9.762 -0.8529  0.1155 -0.3646
  641MOL0     H84552   7.380  11.445   9.848 -2.6032 -0.9087 -0.8477
  641MOL0     H84553   7.205  11.609   9.973 -0.9961  2.1880  0.5799
  641MOL0     H84554   7.266  11.730   9.863 -0.0115 -0.2168 -1.2041
  641MOL0     H84555   7.489  11.693   9.957  3.6227 -1.3999  3.2665
  641MOL0     H84556   7.367  11.771  10.062 -1.3635 -1.8787 -0.4299
  641MOL0     H84557   7.524  11.580  10.183  0.8471  1.6973  0.0276
  641MOL0     H84558   7.448  11.469  10.063 -0.0070  0.2434 -1.3705
  641MOL0     H84559   7.221  11.540  10.159  0.6224  1.1545  0.4652
  641MOL0     H84560   7.308  11.637  10.275 -0.2370  0.8698 -0.1105
  641MOL0     H84561   7.427  11.368  10.302 -1.3236 -1.1392  2.1097
  641MOL0     H84562   7.306  11.464  10.405 -1.1780 -1.3870 -0.5794
  641MOL0     H84563   7.131  11.329  10.268 -1.2447 -2.1061  2.3900
  641MOL0     H84564   7.256  11.219  10.327  3.2764  0.7976 -0.6096
  641MOL0     H84565   7.075  11.300   9.993  0.8859  1.7408 -0.6877
  641MOL0     H84566   7.264  11.206   9.685  0.4734  1.0692 -0.1426
  641MOL0     H84567   7.114  11.262   9.760 -0.9513 -0.7904  2.1575
  641MOL0     H84568   7.038  11.048   9.796 -0.6908  2.8335 -0.4980
  641MOL0     H84569   7.199  10.971   9.763  1.6271  3.3136  0.7726
  641MOL0     H84570   7.027  11.121   9.561  1.3367  0.7845  0.1549
  641MOL0     H84571   7.183  11.021   9.531  1.3815  1.3621  2.5053
  641MOL0     H84572   6.896  10.937   9.571  0.7197  1.0964  2.2182
  641MOL0     H84573   7.018  10.830   9.646 -1.0647  1.1045  2.1224
  641MOL0     H84574   7.200  10.721   9.599  3.3392 -3.1146  0.4019
  641MOL0     H84575   7.335  10.559   9.526 -1.3187 -1.5701  1.2520
  641MOL0     H84576   7.509  10.155   9.418 -1.5755  1.7535 -1.8904
  641MOL0     H84577   7.740  10.046   9.411  0.1942 -1.4510 -3.9048
  641MOL0     H84578   8.114  10.240   9.408  0.9407 -0.5649 -0.8031
  641MOL0     H84579   8.066  10.253   9.236 -0.8057 -2.8793 -1.1895
  641MOL0     H84580   8.265  10.119   9.235 -0.1773  1.8608 -0.5587
  641MOL0     H84581   8.152  10.002   9.208  2.1032 -0.2665 -0.7204
  641MOL0     H84582   8.126   9.910   9.418  2.4052 -3.1947 -0.9336
  641MOL0     H84583   8.210  10.050   9.503 -0.1638  1.1095 -0.3495
  641MOL0     H84584   8.364   9.853   9.503 -1.1129  1.9520  1.7991
  641MOL0     H84585   8.336   9.839   9.326 -0.2258 -0.4731 -0.0326
  641MOL0     H84586   8.480  10.059   9.482 -1.3969 -0.4039  0.2838
  641MOL0     H84587   8.459  10.057   9.303 -1.3292 -2.2365 -1.6332
  641MOL0     H84588   8.583   9.840   9.295 -1.7743  0.1769  0.2239
  641MOL0     H84589   8.604   9.847   9.468 -0.4891  1.7083  2.0961
  641MOL0     H84590   8.711  10.068   9.296  0.0793  0.2430 -1.7905
  641MOL0     H84591   8.747  10.024   9.467 -3.0635 -1.5917  1.4031
  641MOL0     H84592   8.835   9.837   9.239 -0.0801  4.7396 -2.2106
  641MOL0     H84593   8.850   9.831   9.418 -0.9373  0.4663  0.1990
  641MOL0     H84594   7.915  10.396   9.270  0.6144 -0.6986 -1.5429
  641MOL0     H84595   7.693  10.509   9.252 -1.1536  1.3629  1.4933
  641MOL0     H84596   7.171  10.576   9.125 -2.7107  2.4865 -0.8352
  641MOL0     H84597   7.013  10.739   9.200 -2.9876  0.1588  1.4828
  641MOL0     H84598   7.082  11.506   9.518  1.4404 -1.0142  1.3159
  641MOL0     H84599   6.882  11.437   9.384  0.1409  0.9549 -0.2207
  641MOL0     H84600   6.517  11.246   9.167 -1.0457  5.1701 -0.3366
  641MOL0     H84601   6.295  11.163   9.119 -1.5611  0.6903  0.5622
  641MOL0     H84602   6.137  10.943   9.441  0.3098  0.4023  0.4615
  641MOL0     H84603   6.117  10.915   9.265 -0.9107  3.1485 -2.7986
  641MOL0     H84604   5.925  10.968   9.489 -1.7760  0.2634  0.1562
  641MOL0     H84605   5.855  10.980   9.328 -0.8108 -1.4839  0.3446
  641MOL0     H84606   6.032  10.728   9.363  0.3547 -1.1188  1.8846
  641MOL0     H84607   5.889  10.752   9.278  0.7920 -3.4104  0.3956
  641MOL0     H84608   5.886  10.607   9.493  2.6610  1.3613 -0.9049
  641MOL0     H84609   5.932  10.749   9.586  0.7680  1.5441 -0.8966
  641MOL0     H84610   5.526  10.815   9.544  0.2307 -1.3205  1.5649
  641MOL0     H84611   6.213  11.193   9.544  0.6382 -0.8497 -1.3901
  641MOL0     H84612   6.433  11.282   9.580  1.3487  1.9424 -1.0029
  642MOL0     O84613   6.405   4.994   0.240  0.8251  0.3545 -0.0162
  642MOL0     C84614   6.469   4.926   0.161  0.2665  0.9400 -0.3343
  642MOL0     O84615   6.602   4.948   0.132 -0.2621  0.4672 -0.3271
  642MOL0     C84616   6.663   5.055   0.193 -0.1924 -0.2905  0.6389
  642MOL0     C84617   6.708   5.164   0.113  0.4592  0.4943  0.5452
  642MOL0     C84618   6.776   5.270   0.165 -0.3929  0.4471  0.4511
  642MOL0     C84619   6.795   5.279   0.303 -0.3449  1.0130  0.5988
  642MOL0     O84620   6.862   5.392   0.343  0.5186  0.0118  0.9037
  642MOL0     C84621   6.808   5.450   0.457 -0.3483  0.2315  0.5672
  642MOL0     C84622   6.853   5.592   0.486 -0.6680  0.1653 -0.3305
  642MOL0     C84623   6.753   5.680   0.569  0.0882 -0.1354  0.5504
  642MOL0     C84624   6.735   5.616   0.709  0.6990  0.3311  0.8330
  642MOL0     C84625   6.661   5.701   0.805  0.5355  0.8309  0.1911
  642MOL0     C84626   6.754   5.815   0.854 -0.2991 -0.6884 -0.4568
  642MOL0     C84627   6.701   5.876   0.983 -0.0221  0.5732 -0.0359
  642MOL0     C84628   6.802   5.978   1.045  0.0054 -0.7305  0.2815
  642MOL0     N84629   6.815   6.094   0.958  0.1474 -0.8693  0.5941
  642MOL0     C84630   6.723   6.199   0.944  0.4349  0.3815 -0.0233
  642MOL0     C84631   6.775   6.285   0.863 -0.0855 -0.3050  0.0626
  642MOL0     C84632   6.712   6.415   0.812 -0.9653  0.5171  0.1261
  642MOL0     C84633   6.637   6.384   0.684  0.2414  0.6064  0.0168
  642MOL0     C84634   6.559   6.506   0.622 -0.3545  0.1833 -0.9053
  642MOL0     C84635   6.465   6.476   0.503 -0.4952  0.3911 -1.1368
  642MOL0     O84636   6.393   6.589   0.459 -0.4711 -0.5577  0.1118
  642MOL0     C84637   6.305   6.577   0.356  0.4185  0.9974 -0.1296
  642MOL0     C84638   6.321   6.500   0.249  0.5926 -0.1151  0.7136
  642MOL0     C84639   6.224   6.482   0.149  0.2151 -0.0475 -0.0252
  642MOL0     C84640   6.100   6.558   0.162  0.8421  1.3700 -0.6671
  642MOL0     C84641   5.998   6.534   0.051 -0.0304  0.0268 -0.1468
  642MOL0     O84642   5.887   6.608   0.070  1.1117  0.5375  0.7580
  642MOL0     C84643   5.768   6.613   0.001 -0.7724  0.0905 -0.3785
  642MOL0     C84644   5.691   6.722   0.027  0.1917 -0.9326 -0.2377
  642MOL0     C84645   5.561   6.728  -0.018 -0.6340 -0.0067  0.5576
  642MOL0     C84646   5.510   6.624  -0.099  0.0292 -1.4621  0.4722
  642MOL0     O84647   5.373   6.634  -0.146  0.2083  0.1230  0.0533
  642MOL0     C84648   5.347   6.605  -0.287  0.2414  0.5093  0.7392
  642MOL0     C84649   5.192   6.593  -0.308 -0.1149  0.1859  0.4287
  642MOL0     C84650   5.144   6.582  -0.449  0.5406  0.8063 -0.0031
  642MOL0     C84651   4.984   6.568  -0.441  0.0623 -0.4486  0.2151
  642MOL0     C84652   4.930   6.505  -0.572  0.2297 -0.0008  0.3618
  642MOL0     C84653   4.774   6.496  -0.576 -0.6646  0.0771 -1.6163
  642MOL0     C84654   4.718   6.396  -0.669  0.1270  0.2181 -0.1707
  642MOL0     C84655   4.570   6.385  -0.672 -0.1896 -0.4716  1.1541
  642MOL0    Cl84656   4.494   6.504  -0.780 -0.4013  0.0346 -0.0173
  642MOL0     C84657   5.585   6.507  -0.116 -0.1903 -0.5568  0.1685
  642MOL0     C84658   5.712   6.502  -0.072  1.0145  0.4246 -0.1838
  642MOL0     O84659   6.010   6.444  -0.033  0.3223 -0.1694 -0.0317
  642MOL0     C84660   6.086   6.645   0.267 -1.3736  0.4687  0.2872
  642MOL0     C84661   6.187   6.643   0.368 -0.1945 -0.3270 -0.3237
  642MOL0     N84662   6.891   6.229   0.807  0.9313 -0.6249 -0.9661
  642MOL0     N84663   6.913   6.113   0.866  0.1260  0.4068 -0.6793
  642MOL0     C84664   6.747   5.179   0.380  0.2518  0.4838  0.5062
  642MOL0     C84665   6.678   5.071   0.328  0.3925 -0.1972  0.9490
  642MOL0     C84666   6.400   4.817   0.082 -0.3439  1.5516  0.5013
  642MOL0     C84667   6.265   4.785   0.098  0.0383  0.3260 -0.0067
  642MOL0     C84668   6.204   4.686   0.012  0.0125 -0.5300  0.0720
  642MOL0     C84669   6.280   4.627  -0.087 -0.4593  0.0911  0.0856
  642MOL0     O84670   6.223   4.524  -0.158 -0.4709 -0.4566  0.0695
  642MOL0     C84671   6.108   4.552  -0.238  0.5156 -0.1512  0.9534
  642MOL0     C84672   6.151   4.575  -0.384  0.9599  0.1231 -0.2521
  642MOL0     C84673   6.214   4.449  -0.433 -0.1067 -0.1559 -0.0375
  642MOL0     C84674   6.119   4.331  -0.451  1.0357 -0.1351  0.0128
  642MOL0     C84675   6.159   4.215  -0.375  0.5503  0.4096  0.5088
  642MOL0     C84676   6.199   4.127  -0.296 -0.4344  1.2548 -0.1095
  642MOL0     C84677   6.413   4.648  -0.093 -0.9678  0.3457  0.7825
  642MOL0     C84678   6.474   4.743  -0.019  0.3452  1.1239 -0.3716
  642MOL0     H84679   6.686   5.145   0.008 -1.2185  0.8786  0.7955
  642MOL0     H84680   6.811   5.349   0.099 -1.4376  0.2730 -0.3430
  642MOL0     H84681   6.808   5.389   0.548 -3.6114 -1.8318 -0.6502
  642MOL0     H84682   6.703   5.468   0.433  0.5626  1.0146 -3.6658
  642MOL0     H84683   6.870   5.648   0.394 -1.9276  1.5856  0.2573
  642MOL0     H84684   6.945   5.585   0.545 -2.3704 -4.1017  2.2266
  642MOL0     H84685   6.660   5.695   0.514  0.1702  1.1181  0.7386
  642MOL0     H84686   6.798   5.776   0.594 -2.1345  2.1672 -3.4096
  642MOL0     H84687   6.665   5.532   0.704 -1.9291  2.1557  3.4060
  642MOL0     H84688   6.826   5.566   0.742  0.7068  0.3834  0.8922
  642MOL0     H84689   6.624   5.640   0.889  2.3547  2.2083  2.1065
  642MOL0     H84690   6.573   5.738   0.751 -0.4809  2.1372  2.5831
  642MOL0     H84691   6.753   5.892   0.777 -0.1477  0.7715  0.9395
  642MOL0     H84692   6.852   5.769   0.854 -0.4498 -1.1022  1.4551
  642MOL0     H84693   6.608   5.931   0.971 -1.2720 -1.5258 -0.6350
  642MOL0     H84694   6.665   5.798   1.051 -1.1619 -0.2218 -1.4906
  642MOL0     H84695   6.900   5.932   1.061  0.5330  0.4081  0.4261
  642MOL0     H84696   6.759   6.007   1.142 -0.5849  2.2107 -0.7619
  642MOL0     H84697   6.630   6.210   1.000  0.4302 -0.0405  0.0576
  642MOL0     H84698   6.792   6.488   0.795 -1.7441  1.1062 -1.1742
  642MOL0     H84699   6.648   6.445   0.895 -2.3320 -0.8466 -0.3738
  642MOL0     H84700   6.551   6.319   0.700  0.7094  0.3809  1.7560
  642MOL0     H84701   6.704   6.344   0.607  0.9166 -0.9131  1.3395
  642MOL0     H84702   6.504   6.539   0.711 -1.4098 -2.3602 -0.5151
  642MOL0     H84703   6.633   6.578   0.586 -1.1576 -0.2591 -3.6250
  642MOL0     H84704   6.395   6.393   0.517  0.4163 -0.2240 -0.1485
  642MOL0     H84705   6.546   6.448   0.435  2.0066  0.7037  1.5478
  642MOL0     H84706   6.425   6.469   0.250  0.2316 -1.3613  2.3415
  642MOL0     H84707   6.223   6.423   0.058 -3.1002  0.0942 -0.1922
  642MOL0     H84708   5.733   6.804   0.085 -3.1692  1.6811 -1.1509
  642MOL0     H84709   5.500   6.813   0.010 -1.4235  0.0992 -1.3764
  642MOL0     H84710   5.388   6.507  -0.315 -0.7552 -0.1123  1.3986
  642MOL0     H84711   5.391   6.673  -0.360  3.9157 -1.8203  0.5376
  642MOL0     H84712   5.153   6.680  -0.255  0.3611  0.5661  0.1728
  642MOL0     H84713   5.161   6.507  -0.249  0.9806  0.6867  1.7985
  642MOL0     H84714   5.178   6.491  -0.499 -0.1498  0.2606  0.4855
  642MOL0     H84715   5.173   6.670  -0.506  0.6287 -0.0734 -1.3628
  642MOL0     H84716   4.963   6.499  -0.359 -0.0060 -2.9722 -1.8057
  642MOL0     H84717   4.940   6.667  -0.426  0.2181 -0.3469  0.0110
  642MOL0     H84718   4.971   6.404  -0.580  1.2817  0.3789  0.7156
  642MOL0     H84719   4.981   6.557  -0.653  2.7290 -2.4685  0.1591
  642MOL0     H84720   4.731   6.595  -0.591 -0.0359  0.1761 -2.8905
  642MOL0     H84721   4.747   6.457  -0.477  0.4521  0.2946 -1.2111
  642MOL0     H84722   4.761   6.414  -0.768  1.4905 -2.6069 -0.1755
  642MOL0     H84723   4.756   6.297  -0.642  0.1970  0.2757 -0.0581
  642MOL0     H84724   4.536   6.384  -0.568  1.7651  2.2898  1.9323
  642MOL0     H84725   4.538   6.298  -0.730 -0.6545 -0.5888  1.5742
  642MOL0     H84726   5.530   6.428  -0.167 -1.5108  0.1330  0.4911
  642MOL0     H84727   5.771   6.412  -0.086 -0.3399 -0.0990 -3.5647
  642MOL0     H84728   5.995   6.703   0.280 -3.0260 -2.3739  2.5144
  642MOL0     H84729   6.169   6.697   0.461  3.8907 -1.7580  1.5143
  642MOL0     H84730   6.759   5.189   0.487 -1.5055  0.5142  0.7319
  642MOL0     H84731   6.627   4.993   0.384  1.4273 -1.8596 -0.3290
  642MOL0     H84732   6.204   4.836   0.172 -0.9897 -0.5804 -0.2041
  642MOL0     H84733   6.099   4.661   0.023 -0.3017 -0.1407 -1.6836
  642MOL0     H84734   6.054   4.636  -0.194 -0.4706  0.7314 -1.7722
  642MOL0     H84735   6.039   4.470  -0.215  1.1247 -0.4878  1.6310
  642MOL0     H84736   6.070   4.607  -0.449  0.5729  0.7619  0.5240
  642MOL0     H84737   6.227   4.654  -0.382  1.0190  0.0886  2.3775
  642MOL0     H84738   6.294   4.406  -0.372  1.2083  0.8846 -0.9905
  642MOL0     H84739   6.256   4.489  -0.526 -0.1115  2.2480  0.9266
  642MOL0     H84740   6.022   4.362  -0.413  0.8482 -1.0876  0.3494
  642MOL0     H84741   6.107   4.315  -0.559  0.8690 -2.0211  0.2761
  642MOL0     H84742   6.239   4.051  -0.232 -1.2602  0.7160 -0.2162
  642MOL0     H84743   6.471   4.586  -0.161 -1.1341 -0.0485  0.9943
  642MOL0     H84744   6.580   4.755  -0.037  0.7134 -3.4234 -2.7139
  643MOL0     O84745   1.334   5.289   1.958  0.6623 -0.0924  0.3971
  643MOL0     C84746   1.326   5.274   1.839 -0.2552 -1.0030  0.0571
  643MOL0     O84747   1.429   5.271   1.748  0.0437  0.0222 -0.1133
  643MOL0     C84748   1.561   5.265   1.782  0.0899 -0.1207  0.2198
  643MOL0     C84749   1.629   5.333   1.883 -0.5173 -0.6973 -0.1384
  643MOL0     C84750   1.767   5.329   1.897 -0.6857 -0.1757  0.3585
  643MOL0     C84751   1.845   5.251   1.812 -0.8289  0.1030  0.5061
  643MOL0     O84752   1.979   5.252   1.808 -0.3501  0.5366 -1.0052
  643MOL0     C84753   2.050   5.285   1.929 -0.0021  0.7081 -0.6030
  643MOL0     C84754   2.199   5.285   1.894 -0.2894 -0.3280  0.0853
  643MOL0     C84755   2.232   5.424   1.830 -0.1293  0.5059  0.2509
  643MOL0     C84756   2.367   5.415   1.764 -0.0260  0.0276  0.2665
  643MOL0     C84757   2.395   5.536   1.671  0.4741 -0.4119  0.9232
  643MOL0     C84758   2.519   5.521   1.586 -0.8211  0.4836  1.0861
  643MOL0     C84759   2.561   5.655   1.515  0.1326  1.0520 -0.0103
  643MOL0     C84760   2.466   5.685   1.398  0.4895  0.3122 -0.7051
  643MOL0     N84761   2.524   5.785   1.311 -0.6108 -0.6946 -0.6560
  643MOL0     C84762   2.540   5.921   1.343 -0.3073  0.5243  0.3839
  643MOL0     C84763   2.617   5.967   1.242 -1.1329 -0.8657  0.4436
  643MOL0     C84764   2.676   6.102   1.226  0.0550  0.9857  0.4533
  643MOL0     C84765   2.578   6.204   1.168  1.3799  0.1196  0.3779
  643MOL0     C84766   2.443   6.225   1.243 -0.1135  0.2729 -0.3004
  643MOL0     C84767   2.364   6.347   1.205  0.3784 -0.2652  0.0908
  643MOL0     O84768   2.433   6.471   1.249 -0.3525 -0.3634  0.5364
  643MOL0     C84769   2.372   6.588   1.208 -1.2906 -0.1234 -0.5069
  643MOL0     C84770   2.414   6.701   1.297  0.7992 -0.1962 -0.5115
  643MOL0     C84771   2.350   6.820   1.277  0.2253  0.6577 -0.4912
  643MOL0     C84772   2.280   6.851   1.163 -0.1975  0.5636  0.2206
  643MOL0     C84773   2.214   6.979   1.149  0.0904 -0.9593 -0.2397
  643MOL0     O84774   2.269   7.085   1.230 -0.6914 -0.3809  0.2320
  643MOL0     C84775   2.191   7.201   1.237 -0.2108 -0.7422  0.3999
  643MOL0     C84776   2.148   7.280   1.132  0.7102 -0.2660 -0.2879
  643MOL0     C84777   2.077   7.399   1.158  0.1516 -0.7024  0.1407
  643MOL0     C84778   2.056   7.444   1.287  0.3598 -0.0628 -0.1206
  643MOL0     O84779   1.984   7.560   1.316 -0.6927  0.7273  0.2275
  643MOL0     C84780   1.935   7.639   1.205  0.4378 -0.3005  0.2828
  643MOL0     C84781   1.870   7.766   1.266 -0.0852 -0.9568  0.3069
  643MOL0     C84782   1.768   7.739   1.367  0.0887 -0.4419 -1.1056
  643MOL0     C84783   1.669   7.860   1.377  0.2464  0.0702  0.3000
  643MOL0     C84784   1.539   7.833   1.452 -1.4893  0.0155 -1.0393
  643MOL0     C84785   1.431   7.798   1.352  0.7228 -1.5826 -0.2395
  643MOL0     C84786   1.308   7.739   1.423  0.5725  0.4236 -0.4472
  643MOL0     C84787   1.222   7.831   1.513  0.0014  1.0492  1.0967
  643MOL0    Cl84788   1.165   7.981   1.427  0.6914 -0.5370 -0.2832
  643MOL0     C84789   2.099   7.363   1.392  0.2410  0.2292 -0.0044
  643MOL0     C84790   2.166   7.243   1.360  0.9048 -0.1057 -0.3261
  643MOL0     O84791   2.118   6.991   1.070  1.0690  0.4111 -0.6048
  643MOL0     C84792   2.245   6.744   1.078 -0.6517 -0.2654  0.7922
  643MOL0     C84793   2.285   6.615   1.102 -0.4860 -0.1654  0.3922
  643MOL0     N84794   2.636   5.873   1.145 -0.1105 -0.9364 -0.5717
  643MOL0     N84795   2.572   5.768   1.181  0.2204 -0.4934 -0.1840
  643MOL0     C84796   1.787   5.198   1.698  0.5397  0.4353 -0.1922
  643MOL0     C84797   1.647   5.209   1.683 -0.2079 -0.3200 -0.6557
  643MOL0     C84798   1.184   5.291   1.785 -0.9677 -0.5933 -0.1120
  643MOL0     C84799   1.158   5.298   1.650  0.7321  0.2637  0.1913
  643MOL0     C84800   1.031   5.315   1.605  0.6292  0.3860 -0.0463
  643MOL0     C84801   0.923   5.321   1.698 -1.5493  0.3793  0.6697
  643MOL0     O84802   0.791   5.331   1.671  0.3237 -0.4916  0.0530
  643MOL0     C84803   0.756   5.379   1.542  0.0201 -0.8098  0.7723
  643MOL0     C84804   0.781   5.530   1.504 -0.1825  1.0604  0.9851
  643MOL0     C84805   0.735   5.625   1.613 -0.2739 -0.4278  1.3022
  643MOL0     C84806   0.713   5.764   1.547 -0.0511 -0.1409 -0.2228
  643MOL0     C84807   0.637   5.849   1.644  0.1018  0.9146 -1.3867
  643MOL0     C84808   0.566   5.921   1.710  0.2645 -0.2898  0.2875
  643MOL0     C84809   0.948   5.320   1.835  0.4038 -0.0191 -1.2032
  643MOL0     C84810   1.073   5.300   1.882 -0.3972  0.5228  0.7710
  643MOL0     H84811   1.580   5.389   1.961 -0.7219 -2.7306  1.2505
  643MOL0     H84812   1.813   5.400   1.966 -2.7546  1.4909  0.0994
  643MOL0     H84813   2.036   5.218   2.014 -0.2787 -0.1947 -1.3421
  643MOL0     H84814   2.025   5.386   1.963 -2.8579  1.1245 -3.3857
  643MOL0     H84815   2.237   5.198   1.840  3.2792  1.5189 -0.7378
  643MOL0     H84816   2.261   5.272   1.983  1.2588  2.3718 -0.4868
  643MOL0     H84817   2.223   5.494   1.914  3.8084 -0.3927  1.6411
  643MOL0     H84818   2.157   5.443   1.753  1.6654 -2.6311 -2.5444
  643MOL0     H84819   2.449   5.423   1.835 -0.2098 -0.6267  0.5559
  643MOL0     H84820   2.380   5.320   1.711 -2.7612 -2.4597  3.5796
  643MOL0     H84821   2.400   5.627   1.731  1.1535  0.1922 -0.0260
  643MOL0     H84822   2.308   5.553   1.607  1.3384  1.3009  0.1398
  643MOL0     H84823   2.515   5.443   1.509 -2.7244  0.7579  0.8732
  643MOL0     H84824   2.598   5.478   1.649  1.1011 -0.6671 -1.8702
  643MOL0     H84825   2.552   5.723   1.600 -0.6669 -1.5990  2.1652
  643MOL0     H84826   2.664   5.648   1.478 -0.1954 -1.4248 -0.5810
  643MOL0     H84827   2.375   5.724   1.444  0.3859 -2.0948  1.3655
  643MOL0     H84828   2.447   5.593   1.341  0.6212  1.1040 -2.0568
  643MOL0     H84829   2.502   5.981   1.425 -1.7649  3.6867 -2.4066
  643MOL0     H84830   2.756   6.112   1.151  0.3496  3.8494  1.0397
  643MOL0     H84831   2.722   6.131   1.321  2.7913  2.2519 -1.1334
  643MOL0     H84832   2.549   6.177   1.066 -2.8703 -0.7800  1.6606
  643MOL0     H84833   2.633   6.299   1.162  1.7143 -0.1011 -0.1600
  643MOL0     H84834   2.384   6.133   1.241 -1.0157  0.7619  1.8298
  643MOL0     H84835   2.466   6.223   1.350  1.3884  1.3174 -0.5655
  643MOL0     H84836   2.269   6.335   1.256 -0.2878  0.3320 -0.9734
  643MOL0     H84837   2.342   6.329   1.099 -0.5295  2.4616 -0.2724
  643MOL0     H84838   2.474   6.676   1.384 -0.5535  1.8431  1.0733
  643MOL0     H84839   2.361   6.897   1.352 -0.0081 -0.7277  1.0316
  643MOL0     H84840   2.161   7.239   1.033  0.3583  0.5045 -0.6634
  643MOL0     H84841   2.048   7.460   1.072  3.5832 -0.0862 -0.7204
  643MOL0     H84842   1.870   7.579   1.141 -0.6483  0.8821  0.2424
  643MOL0     H84843   2.028   7.661   1.150  0.6343 -2.6091 -0.4084
  643MOL0     H84844   1.828   7.828   1.186  2.1364 -2.2064 -1.9849
  643MOL0     H84845   1.951   7.817   1.320 -2.6341  2.1005  1.5313
  643MOL0     H84846   1.827   7.734   1.458  0.5951  2.4292 -1.1958
  643MOL0     H84847   1.714   7.644   1.358 -3.8960  1.1191  2.8172
  643MOL0     H84848   1.719   7.930   1.444 -1.6405 -0.7521  2.7136
  643MOL0     H84849   1.651   7.911   1.282  2.0541  0.7993  0.3007
  643MOL0     H84850   1.515   7.922   1.512  1.7585 -0.8322  1.8291
  643MOL0     H84851   1.557   7.754   1.526 -0.5933  1.4684  0.3625
  643MOL0     H84852   1.473   7.744   1.267  0.0503 -2.4879 -0.0070
  643MOL0     H84853   1.390   7.888   1.304 -0.9262 -3.4195 -2.4892
  643MOL0     H84854   1.239   7.701   1.347  0.3234 -1.7172  0.7466
  643MOL0     H84855   1.346   7.656   1.483  1.1059 -1.5598 -3.3236
  643MOL0     H84856   1.286   7.858   1.597 -2.6398  0.3966  3.5069
  643MOL0     H84857   1.134   7.772   1.543  2.1052 -2.7588  0.4651
  643MOL0     H84858   2.080   7.378   1.498 -2.2551 -3.4131  0.2580
  643MOL0     H84859   2.216   7.185   1.437  2.4109  0.3497 -0.9150
  643MOL0     H84860   2.188   6.765   0.988 -0.7677 -0.7244  0.7516
  643MOL0     H84861   2.264   6.533   1.034 -1.5999  1.5329 -1.4092
  643MOL0     H84862   1.843   5.144   1.622 -1.2361 -0.6388 -0.7982
  643MOL0     H84863   1.600   5.168   1.593  0.1481  1.2476 -1.5941
  643MOL0     H84864   1.241   5.296   1.579 -1.1945  1.0105 -2.2430
  643MOL0     H84865   1.010   5.299   1.499  3.6829 -2.9860 -0.3365
  643MOL0     H84866   0.648   5.365   1.544  0.0194 -0.7736  1.1262
  643MOL0     H84867   0.795   5.317   1.461  0.5463  2.0272 -1.2786
  643MOL0     H84868   0.886   5.553   1.482  0.1806 -1.5433 -0.3890
  643MOL0     H84869   0.727   5.545   1.411 -0.8800 -0.7618  1.0624
  643MOL0     H84870   0.805   5.638   1.697  1.9805  2.2288 -0.7905
  643MOL0     H84871   0.645   5.580   1.657  0.6528 -0.7066  3.0436
  643MOL0     H84872   0.808   5.815   1.531 -0.3509 -0.2308 -2.6543
  643MOL0     H84873   0.649   5.765   1.459  2.5059  4.0649 -2.3262
  643MOL0     H84874   0.509   6.002   1.750 -0.7628  0.3979 -2.3715
  643MOL0     H84875   0.865   5.345   1.899  0.4935  1.3796 -1.6089
  643MOL0     H84876   1.090   5.303   1.989 -1.9178  2.9245  1.0123
  644MOL0     O84877   2.551   9.186   6.974  0.6159  0.0861  0.2391
  644MOL0     C84878   2.628   9.089   6.952  0.4592 -0.6543 -0.2657
  644MOL0     O84879   2.589   8.958   6.981  0.0928 -0.2800 -1.2421
  644MOL0     C84880   2.465   8.933   7.022  0.3115  0.0959 -1.1197
  644MOL0     C84881   2.353   8.959   6.943  0.1972 -0.7736 -0.8470
  644MOL0     C84882   2.234   8.919   6.983  0.8402  0.4825  0.1031
  644MOL0     C84883   2.214   8.852   7.101  0.1047  0.7441 -0.9446
  644MOL0     O84884   2.090   8.840   7.153  0.2388 -0.5746 -0.3856
  644MOL0     C84885   2.022   8.723   7.105 -0.1856  0.5958  0.7343
  644MOL0     C84886   1.880   8.762   7.104  0.4357  0.5292 -0.3617
  644MOL0     C84887   1.839   8.832   6.975 -0.0836 -0.3118  0.1701
  644MOL0     C84888   1.700   8.903   6.996 -0.4090 -0.2079 -0.1809
  644MOL0     C84889   1.673   8.993   6.886 -0.1242  0.1191  1.0027
  644MOL0     C84890   1.535   9.066   6.911 -1.2260  0.0117 -0.5367
  644MOL0     C84891   1.544   9.177   7.010  0.7537  0.1357  0.4169
  644MOL0     C84892   1.422   9.266   7.005 -0.2808  0.0245  0.6518
  644MOL0     N84893   1.419   9.361   7.120 -0.2541  0.9123 -0.9473
  644MOL0     C84894   1.462   9.492   7.120  0.1624 -0.3201 -0.5021
  644MOL0     C84895   1.405   9.548   7.232 -0.3472 -0.2751 -0.2276
  644MOL0     C84896   1.407   9.705   7.264 -0.7199  0.5431  0.3048
  644MOL0     C84897   1.535   9.748   7.349  0.3515  1.3552  0.0329
  644MOL0     C84898   1.540   9.891   7.393 -0.1610  0.7277 -0.3873
  644MOL0     C84899   1.638   9.917   7.508  0.0366  0.6451  0.5176
  644MOL0     O84900   1.633  10.056   7.549  0.8933 -0.2944  0.1406
  644MOL0     C84901   1.676  10.164   7.477  0.4106 -0.2717  0.2485
  644MOL0     C84902   1.746  10.158   7.356  0.0570  0.7110  0.8107
  644MOL0     C84903   1.798  10.266   7.287  1.7386  0.5033  0.2904
  644MOL0     C84904   1.768  10.392   7.347  0.2579 -0.5519 -0.2616
  644MOL0     C84905   1.795  10.521   7.280  0.0794  0.1400 -0.0996
  644MOL0     O84906   1.710  10.625   7.309 -0.2219 -0.7692  0.0991
  644MOL0     C84907   1.763  10.751   7.267  0.2604 -0.7879  0.3388
  644MOL0     C84908   1.798  10.785   7.136  0.2559 -0.1608 -0.3473
  644MOL0     C84909   1.837  10.914   7.096  0.3947 -0.2332 -0.0288
  644MOL0     C84910   1.843  11.013   7.194 -0.8508 -0.7988  0.0372
  644MOL0     O84911   1.876  11.147   7.161  0.1690 -0.0341  0.1682
  644MOL0     C84912   1.852  11.191   7.029 -0.2985  0.2788  0.1772
  644MOL0     C84913   1.894  11.345   7.019 -0.1234  0.0518  0.1892
  644MOL0     C84914   1.852  11.431   6.897 -0.5188 -0.4692 -0.0507
  644MOL0     C84915   1.851  11.363   6.756 -0.8202  0.9304  0.1468
  644MOL0     C84916   1.833  11.473   6.645  0.4203  0.1686  0.1288
  644MOL0     C84917   1.800  11.408   6.515 -0.3392  0.1552 -0.2525
  644MOL0     C84918   1.790  11.530   6.422  0.0463 -0.1526  0.0663
  644MOL0     C84919   1.802  11.482   6.281  0.8492  0.0838 -0.4597
  644MOL0    Cl84920   1.816  11.619   6.172  0.2736 -0.5526 -0.1028
  644MOL0     C84921   1.816  10.977   7.332  0.0747  0.2909  0.3038
  644MOL0     C84922   1.788  10.847   7.368  0.2896 -0.0166  0.1050
  644MOL0     O84923   1.890  10.523   7.217 -0.0351 -0.4282  0.4285
  644MOL0     C84924   1.697  10.400   7.470  0.6700  0.6070 -1.0914
  644MOL0     C84925   1.651  10.286   7.529  0.3437  0.3369 -0.3507
  644MOL0     N84926   1.346   9.448   7.311  1.7895 -0.6415  0.3320
  644MOL0     N84927   1.354   9.344   7.241 -0.2586  0.9260  0.3999
  644MOL0     C84928   2.322   8.815   7.189 -0.2513 -0.2519  0.7895
  644MOL0     C84929   2.449   8.860   7.142  0.2984 -0.1214  0.1130
  644MOL0     C84930   2.763   9.111   6.912 -0.3050  0.7414  0.4170
  644MOL0     C84931   2.835   9.004   6.843  0.5045  0.2027  0.0009
  644MOL0     C84932   2.972   9.020   6.819 -0.0946  0.1893  0.1760
  644MOL0     C84933   3.044   9.133   6.843 -0.6759 -0.7873 -0.1222
  644MOL0     O84934   3.179   9.155   6.815 -0.9914 -1.0177  0.0752
  644MOL0     C84935   3.236   9.107   6.692  0.3940  0.4300 -0.3418
  644MOL0     C84936   3.367   9.041   6.720 -0.2551 -0.4408 -1.4823
  644MOL0     C84937   3.358   8.938   6.836  0.1471  0.1890 -1.2327
  644MOL0     C84938   3.491   8.874   6.865 -0.5269  0.8271 -0.3273
  644MOL0     C84939   3.593   8.971   6.890 -0.9996  0.5633  0.4504
  644MOL0     C84940   3.672   9.059   6.911  0.1062  0.0468  0.6410
  644MOL0     C84941   2.981   9.237   6.913  0.0503 -0.8746  0.1086
  644MOL0     C84942   2.836   9.228   6.948  0.0721 -0.1460 -0.5331
  644MOL0     H84943   2.359   9.024   6.856  0.0246  1.0736  0.4431
  644MOL0     H84944   2.155   8.947   6.915  0.5165  0.3486  0.4232
  644MOL0     H84945   2.037   8.646   7.182  1.0966 -1.0013 -1.0124
  644MOL0     H84946   2.067   8.677   7.016  1.3889  1.0177  1.2808
  644MOL0     H84947   1.860   8.822   7.194  0.4538 -1.5814  1.1219
  644MOL0     H84948   1.823   8.670   7.122  0.3469 -0.0768 -3.3344
  644MOL0     H84949   1.846   8.776   6.882 -1.4930  0.1121 -0.2178
  644MOL0     H84950   1.912   8.913   6.970  1.3288 -1.3468  2.3827
  644MOL0     H84951   1.622   8.826   6.999 -0.2765 -0.3813 -0.9468
  644MOL0     H84952   1.698   8.950   7.095 -0.6136  0.5247 -0.5304
  644MOL0     H84953   1.665   8.938   6.792 -1.1998  0.7450  0.7125
  644MOL0     H84954   1.753   9.067   6.880  1.5496 -1.7393 -1.1614
  644MOL0     H84955   1.465   8.985   6.934 -1.3531 -0.0698 -1.2009
  644MOL0     H84956   1.512   9.118   6.817  1.1592 -0.4910 -1.4617
  644MOL0     H84957   1.554   9.139   7.112  0.8369 -0.4222  0.2066
  644MOL0     H84958   1.626   9.243   6.982  0.1189  1.1207  0.8088
  644MOL0     H84959   1.332   9.204   6.999  0.9646 -1.7555 -1.3580
  644MOL0     H84960   1.443   9.330   6.919  5.0652 -0.9583  0.8751
  644MOL0     H84961   1.513   9.553   7.047  0.3712 -1.3188 -1.2091
  644MOL0     H84962   1.311   9.724   7.312  0.3164 -1.4569  3.4336
  644MOL0     H84963   1.407   9.770   7.176 -1.0942 -0.5040 -0.4848
  644MOL0     H84964   1.619   9.730   7.281 -0.6207  0.5890 -1.0083
  644MOL0     H84965   1.544   9.678   7.433  2.9302 -0.0739 -1.3131
  644MOL0     H84966   1.563   9.951   7.304  0.5211  0.4702 -0.3833
  644MOL0     H84967   1.441   9.933   7.414  1.4324  4.9738 -0.3030
  644MOL0     H84968   1.739   9.894   7.472 -1.1836 -1.9341 -1.6305
  644MOL0     H84969   1.611   9.850   7.590  0.5812 -0.2151  0.0140
  644MOL0     H84970   1.764  10.059   7.314  1.8504  0.0266  2.9894
  644MOL0     H84971   1.840  10.244   7.189 -0.5800 -3.9707  0.0389
  644MOL0     H84972   1.784  10.700   7.071 -0.3084 -2.5230  2.6230
  644MOL0     H84973   1.852  10.927   6.989 -1.2355  1.1356 -0.1356
  644MOL0     H84974   1.744  11.183   7.015  0.0172 -3.0348 -1.2791
  644MOL0     H84975   1.905  11.142   6.948  0.8884  0.7425  0.6467
  644MOL0     H84976   2.004  11.344   7.020 -0.1154 -0.0864 -0.4883
  644MOL0     H84977   1.866  11.407   7.105 -0.1804  0.4363 -0.1029
  644MOL0     H84978   1.934  11.503   6.904  0.1902 -1.2394 -0.2556
  644MOL0     H84979   1.763  11.493   6.911  0.1519  1.4729 -3.2658
  644MOL0     H84980   1.944  11.309   6.738  0.6374  2.1488  3.3436
  644MOL0     H84981   1.774  11.286   6.744 -0.2876  0.3767  0.2415
  644MOL0     H84982   1.927  11.529   6.639  1.9063 -2.0658  1.0267
  644MOL0     H84983   1.750  11.541   6.668 -0.6349 -1.1536  0.3351
  644MOL0     H84984   1.708  11.349   6.508 -0.9591  1.1922 -1.5700
  644MOL0     H84985   1.890  11.348   6.500  0.7865  1.3147  1.4892
  644MOL0     H84986   1.697  11.588   6.431  2.0669  3.5036 -0.6888
  644MOL0     H84987   1.875  11.598   6.424  2.0512 -2.5215 -0.0733
  644MOL0     H84988   1.716  11.415   6.266  0.5445  0.6750 -1.5034
  644MOL0     H84989   1.891  11.421   6.265 -0.1389 -1.4414 -0.2962
  644MOL0     H84990   1.822  11.065   7.395  2.4395  0.4614 -0.0794
  644MOL0     H84991   1.781  10.823   7.474  0.7093 -1.0886 -0.0998
  644MOL0     H84992   1.683  10.498   7.516  1.6043  0.2601 -0.0100
  644MOL0     H84993   1.596  10.285   7.622 -1.0605 -1.1456 -1.1309
  644MOL0     H84994   2.313   8.773   7.288  1.0020  3.2715  2.5966
  644MOL0     H84995   2.534   8.829   7.202 -1.6039 -0.0237  3.0979
  644MOL0     H84996   2.781   8.913   6.818 -3.8808  1.9406  2.1093
  644MOL0     H84997   3.026   8.941   6.769 -3.4331 -0.5292 -2.6619
  644MOL0     H84998   3.254   9.188   6.620 -0.3682 -0.2215 -1.3061
  644MOL0     H84999   3.161   9.043   6.645  0.5501  0.4719 -0.6530
  644MOL0     H85000   3.419   9.003   6.632 -1.5814 -0.4270 -2.2956
  644MOL0     H85001   3.419   9.127   6.763 -2.3188 -0.2225  0.7976
  644MOL0     H85002   3.287   8.858   6.812 -1.6791  1.0367  0.9324
  644MOL0     H85003   3.332   8.988   6.930 -0.2327 -3.8456  1.0315
  644MOL0     H85004   3.496   8.809   6.952  2.7426  0.7204 -0.4527
  644MOL0     H85005   3.521   8.811   6.781 -1.0653 -0.9769  0.7896
  644MOL0     H85006   3.760   9.119   6.925  0.3845  1.2810 -4.4993
  644MOL0     H85007   3.035   9.327   6.940 -0.4891 -0.6398  0.4461
  644MOL0     H85008   2.783   9.305   7.004  0.6085 -1.5774  2.1353
  645MOL0     O85009   4.392   4.018   6.759  0.9571 -0.7564  0.3057
  645MOL0     C85010   4.436   4.132   6.747  0.2415  0.4196  0.2605
  645MOL0     O85011   4.487   4.205   6.844 -0.1496 -0.2617 -0.0112
  645MOL0     C85012   4.487   4.151   6.967  0.2172 -0.7032 -0.6328
  645MOL0     C85013   4.371   4.145   7.047 -0.1157 -0.0185  0.3235
  645MOL0     C85014   4.381   4.098   7.173 -0.2609  0.2777  0.2965
  645MOL0     C85015   4.501   4.049   7.235 -0.5261 -0.8618 -0.7982
  645MOL0     O85016   4.492   3.989   7.360  0.2704 -0.8475  0.4159
  645MOL0     C85017   4.603   3.919   7.413 -0.2602  0.5561 -0.7018
  645MOL0     C85018   4.586   3.844   7.545 -0.3426  0.5055  0.2087
  645MOL0     C85019   4.571   3.943   7.664 -0.6196 -0.2922  0.1679
  645MOL0     C85020   4.556   3.877   7.806  0.2206  0.1409  0.7330
  645MOL0     C85021   4.600   3.982   7.926  0.3044  1.1248 -0.4092
  645MOL0     C85022   4.757   3.973   7.924 -0.1198 -0.1012 -0.3678
  645MOL0     C85023   4.816   4.081   8.016  0.0807  1.5696 -0.0363
  645MOL0     C85024   4.958   4.116   7.987 -0.8273  1.3939 -0.5676
  645MOL0     N85025   5.039   3.988   7.961 -0.3364  0.1012 -0.3419
  645MOL0     C85026   5.096   3.906   8.061  0.4780 -0.2674  0.4479
  645MOL0     C85027   5.151   3.809   7.990  0.0823  0.2821  0.6823
  645MOL0     C85028   5.224   3.690   8.044 -0.6766 -0.6652  0.1165
  645MOL0     C85029   5.323   3.626   7.943 -1.0896  0.8585 -0.0997
  645MOL0     C85030   5.409   3.524   8.029  0.4220 -0.5910 -0.0305
  645MOL0     C85031   5.348   3.414   8.112 -0.4785  0.0047 -0.8298
  645MOL0     O85032   5.283   3.325   8.027  0.1883 -0.1938 -0.0669
  645MOL0     C85033   5.214   3.222   8.086  0.1489  0.7552  0.2951
  645MOL0     C85034   5.216   3.194   8.226  0.2124  0.4696  0.0023
  645MOL0     C85035   5.140   3.089   8.281 -0.9524 -0.7395  0.1045
  645MOL0     C85036   5.070   2.996   8.195  0.1464 -0.0207  0.1091
  645MOL0     C85037   4.989   2.882   8.253 -0.8023  0.7342  0.9774
  645MOL0     O85038   4.929   2.802   8.168 -0.7867  0.0017 -0.1027
  645MOL0     C85039   4.862   2.699   8.220 -0.0350 -0.6441 -0.5984
  645MOL0     C85040   4.719   2.706   8.228 -0.3737  1.1179 -0.5528
  645MOL0     C85041   4.650   2.595   8.282 -0.2065 -0.2650 -0.2842
  645MOL0     C85042   4.716   2.480   8.326 -0.0340  0.0614 -0.0029
  645MOL0     O85043   4.641   2.383   8.384  0.6734  0.1017 -0.1930
  645MOL0     C85044   4.600   2.283   8.277 -0.5958 -0.1088  0.2290
  645MOL0     C85045   4.455   2.290   8.237  0.5536 -0.1659  0.6216
  645MOL0     C85046   4.353   2.254   8.349  1.2950  0.1987  0.2955
  645MOL0     C85047   4.225   2.210   8.290  1.5110  0.3482 -0.8283
  645MOL0     C85048   4.114   2.162   8.382  0.1962 -0.4345 -0.3877
  645MOL0     C85049   4.039   2.260   8.468 -0.1578  0.1915  0.2574
  645MOL0     C85050   3.898   2.203   8.497 -0.3949  0.2650 -0.0567
  645MOL0     C85051   3.883   2.057   8.544 -0.4122  0.1187 -0.7272
  645MOL0    Cl85052   3.716   2.027   8.573 -0.0445  0.1905  0.8056
  645MOL0     C85053   4.851   2.484   8.327 -0.7365  0.6481 -0.4919
  645MOL0     C85054   4.929   2.585   8.267  0.7956  0.4394  0.5160
  645MOL0     O85055   4.980   2.881   8.374  0.4836 -0.6304  0.1626
  645MOL0     C85056   5.064   3.039   8.062 -0.2814  0.4026  0.4454
  645MOL0     C85057   5.134   3.148   8.008 -0.0911 -1.1553 -0.5104
  645MOL0     N85058   5.124   3.834   7.860  0.0737  0.4972  0.8562
  645MOL0     N85059   5.074   3.947   7.839  0.3244  0.3258  0.0727
  645MOL0     C85060   4.613   4.042   7.147 -0.3069  0.3463 -0.5730
  645MOL0     C85061   4.608   4.108   7.029  0.0092 -0.5775 -0.2887
  645MOL0     C85062   4.405   4.199   6.623  0.3953  0.1994 -0.7220
  645MOL0     C85063   4.458   4.331   6.597  0.0558  0.7344 -0.6818
  645MOL0     C85064   4.420   4.405   6.480 -0.2595  0.2481  0.5161
  645MOL0     C85065   4.326   4.344   6.387  0.0919  0.5663 -0.0772
  645MOL0     O85066   4.320   4.409   6.266 -0.0200 -0.4159  0.3795
  645MOL0     C85067   4.295   4.340   6.141 -0.0863  0.1326 -0.2007
  645MOL0     C85068   4.278   4.437   6.020 -1.0973  0.8981 -0.9642
  645MOL0     C85069   4.153   4.528   6.042  0.0728 -0.3784 -0.0988
  645MOL0     C85070   4.129   4.621   5.920 -0.3710  0.7760  0.5187
  645MOL0     C85071   4.233   4.713   5.887 -0.0832 -0.4133 -0.8954
  645MOL0     C85072   4.333   4.785   5.863  1.2405  0.8977 -0.0055
  645MOL0     C85073   4.262   4.225   6.417  0.7909 -0.3337 -0.6716
  645MOL0     C85074   4.296   4.150   6.535  0.0341  0.4751 -0.5157
  645MOL0     H85075   4.280   4.179   6.999  1.2508  0.5211 -2.0920
  645MOL0     H85076   4.294   4.098   7.239 -0.7288 -1.8805 -0.2309
  645MOL0     H85077   4.691   3.984   7.419  0.2702 -0.2642  2.5355
  645MOL0     H85078   4.637   3.840   7.345 -2.3283 -1.6003  0.6430
  645MOL0     H85079   4.669   3.775   7.561 -1.9358 -1.8071 -0.8655
  645MOL0     H85080   4.497   3.780   7.543  0.0486 -0.2160  2.8527
  645MOL0     H85081   4.484   4.005   7.643 -0.7690 -0.7377 -0.5617
  645MOL0     H85082   4.653   4.014   7.660  1.1238 -1.7112  4.5227
  645MOL0     H85083   4.450   3.854   7.821  0.3947  0.7387  3.2764
  645MOL0     H85084   4.609   3.783   7.824 -1.1805 -0.6709  0.8212
  645MOL0     H85085   4.559   3.955   8.024 -3.4424 -2.8001 -2.7394
  645MOL0     H85086   4.558   4.080   7.900  0.6551  1.5208  0.4730
  645MOL0     H85087   4.791   4.003   7.824 -0.0208  2.4884  0.3700
  645MOL0     H85088   4.786   3.873   7.957  0.4922  1.1210  3.1388
  645MOL0     H85089   4.762   4.173   7.992 -3.5501 -0.0504  1.1304
  645MOL0     H85090   4.796   4.059   8.121 -1.5102 -0.0694 -0.6293
  645MOL0     H85091   4.997   4.171   8.073 -1.4552  0.7757  0.1322
  645MOL0     H85092   4.970   4.180   7.900  0.4289 -0.3686 -1.7764
  645MOL0     H85093   5.091   3.910   8.169 -0.1984 -0.8341  0.4491
  645MOL0     H85094   5.154   3.620   8.092 -0.2406 -0.6559  0.7819
  645MOL0     H85095   5.281   3.716   8.133 -1.5832 -1.0975  0.8421
  645MOL0     H85096   5.391   3.700   7.901  0.2139  0.2419  0.8729
  645MOL0     H85097   5.264   3.583   7.861 -1.3561 -2.5478  1.6687
  645MOL0     H85098   5.489   3.481   7.968  1.0456 -0.1791  0.4803
  645MOL0     H85099   5.455   3.599   8.094  0.2701  1.1590 -1.8714
  645MOL0     H85100   5.282   3.460   8.186  2.0450 -1.5631  2.6485
  645MOL0     H85101   5.417   3.357   8.174 -2.3901  0.7016  2.1757
  645MOL0     H85102   5.275   3.255   8.293 -1.6825  0.8774  1.3757
  645MOL0     H85103   5.131   3.098   8.388  0.5577 -1.4716  0.3109
  645MOL0     H85104   4.666   2.793   8.190  0.4077  2.2993  0.9335
  645MOL0     H85105   4.542   2.584   8.286 -0.0234 -2.3556 -0.1874
  645MOL0     H85106   4.624   2.183   8.315  0.7865 -0.8332 -2.3080
  645MOL0     H85107   4.660   2.277   8.185  1.4979 -2.3191  1.5964
  645MOL0     H85108   4.449   2.224   8.150  0.7553  0.6061  0.0090
  645MOL0     H85109   4.442   2.394   8.203  0.5834  0.2126  1.7472
  645MOL0     H85110   4.332   2.341   8.413 -2.8429  0.4494 -1.0756
  645MOL0     H85111   4.389   2.171   8.410 -0.1117 -0.7543 -0.1290
  645MOL0     H85112   4.182   2.284   8.221 -2.2244 -0.4726  0.3399
  645MOL0     H85113   4.249   2.115   8.241  0.8629  0.3787 -1.2247
  645MOL0     H85114   4.153   2.084   8.449 -0.8644 -3.0828 -2.6422
  645MOL0     H85115   4.048   2.108   8.313 -0.4782  3.4376 -3.0793
  645MOL0     H85116   4.017   2.352   8.415  0.8999  0.8227  0.8694
  645MOL0     H85117   4.088   2.265   8.566  2.5113 -0.0673 -0.9784
  645MOL0     H85118   3.862   2.264   8.581 -0.0507 -0.1655  0.4055
  645MOL0     H85119   3.836   2.210   8.407  0.7964 -2.4575 -1.2038
  645MOL0     H85120   3.947   2.035   8.631  1.5566 -4.9863 -3.0546
  645MOL0     H85121   3.907   2.001   8.453 -1.8602  0.6435 -1.4434
  645MOL0     H85122   4.899   2.407   8.387  0.9215  1.2399 -1.0073
  645MOL0     H85123   5.035   2.576   8.283  1.0244 -0.1689 -1.0848
  645MOL0     H85124   5.005   2.975   7.997  1.0958 -1.5150  1.0129
  645MOL0     H85125   5.119   3.176   7.905  0.4177 -1.8042 -0.7682
  645MOL0     H85126   4.703   3.992   7.181 -0.8459  1.6111  3.2197
  645MOL0     H85127   4.693   4.120   6.963 -0.0046  0.6743 -0.1091
  645MOL0     H85128   4.540   4.370   6.656  1.2825 -1.6995 -0.6692
  645MOL0     H85129   4.461   4.501   6.450  0.5164  0.1426  1.2134
  645MOL0     H85130   4.206   4.277   6.150 -1.3612  1.9686  0.7951
  645MOL0     H85131   4.377   4.268   6.132  1.5446  1.7942  0.6949
  645MOL0     H85132   4.371   4.495   6.016  1.4434 -2.7506 -0.2980
  645MOL0     H85133   4.259   4.363   5.942 -0.2225 -0.0713 -0.2931
  645MOL0     H85134   4.173   4.585   6.133 -2.0729  0.2732  0.0095
  645MOL0     H85135   4.064   4.467   6.057 -0.3003 -0.5785 -2.5927
  645MOL0     H85136   4.124   4.549   5.838 -0.2191 -0.0916  1.2609
  645MOL0     H85137   4.036   4.679   5.921 -1.3284 -0.7020  2.0467
  645MOL0     H85138   4.418   4.846   5.841  3.0941 -2.3806 -2.7052
  645MOL0     H85139   4.193   4.186   6.343 -0.0996 -0.9226  0.4285
  645MOL0     H85140   4.248   4.054   6.555  1.7529  0.0882  2.4737
  646MOL0     O85141   7.117   4.241   5.071 -0.6428  1.1187 -0.1771
  646MOL0     C85142   7.085   4.265   5.184 -0.1974 -0.2272 -0.4979
  646MOL0     O85143   7.170   4.297   5.281  0.9761 -0.6615  0.6884
  646MOL0     C85144   7.299   4.339   5.235  0.3303 -0.3017  0.7196
  646MOL0     C85145   7.317   4.469   5.202 -0.9822 -0.3273  0.1864
  646MOL0     C85146   7.450   4.511   5.186 -0.1717 -0.5799 -0.3647
  646MOL0     C85147   7.559   4.416   5.202  0.4797 -0.0667  0.8987
  646MOL0     O85148   7.687   4.469   5.177  0.1960 -0.1543 -1.1970
  646MOL0     C85149   7.806   4.387   5.205 -0.2807  0.6187  0.4973
  646MOL0     C85150   7.928   4.485   5.227 -0.2213  0.5207 -0.2117
  646MOL0     C85151   8.063   4.416   5.266  0.5536  0.3828 -0.0734
  646MOL0     C85152   8.110   4.314   5.164  0.5139 -0.4164 -0.1747
  646MOL0     C85153   8.251   4.271   5.190 -0.2055  0.1254 -0.1545
  646MOL0     C85154   8.286   4.130   5.133  0.5466  0.5966 -0.7532
  646MOL0     C85155   8.427   4.083   5.129 -0.9025  1.1127  0.2119
  646MOL0     C85156   8.518   4.160   5.026 -0.9741  1.1781  0.1250
  646MOL0     N85157   8.601   4.079   4.938 -0.1458  1.0588  0.3450
  646MOL0     C85158   8.542   4.003   4.835 -0.8135 -0.3843 -0.8416
  646MOL0     C85159   8.649   3.941   4.785  0.1980  0.6265 -0.2569
  646MOL0     C85160   8.663   3.853   4.661  0.0832 -0.7663 -0.0344
  646MOL0     C85161   8.546   3.759   4.641 -0.3744  0.3828  0.4571
  646MOL0     C85162   8.433   3.805   4.544 -1.0228  0.0671  0.0901
  646MOL0     C85163   8.298   3.746   4.569  0.4482 -0.3052 -0.3001
  646MOL0     O85164   8.263   3.805   4.696  0.8362  0.2041  0.9557
  646MOL0     C85165   8.134   3.787   4.747 -0.6309  0.1242 -0.3991
  646MOL0     C85166   8.056   3.680   4.723  0.3218 -0.7633  0.1059
  646MOL0     C85167   7.931   3.666   4.774 -0.3255  1.2041 -0.2094
  646MOL0     C85168   7.882   3.762   4.868  0.1861 -0.6707 -0.2432
  646MOL0     C85169   7.755   3.748   4.951 -0.1356 -0.3457 -0.7060
  646MOL0     O85170   7.716   3.835   5.054 -0.7693  0.0870 -0.8451
  646MOL0     C85171   7.589   3.814   5.088 -0.0474 -0.3527  0.2832
  646MOL0     C85172   7.487   3.788   5.003 -0.4369  0.3107  0.1151
  646MOL0     C85173   7.359   3.775   5.047  0.6585 -0.0133  0.6577
  646MOL0     C85174   7.317   3.802   5.181 -0.2308 -0.1994  0.7042
  646MOL0     O85175   7.184   3.793   5.205 -0.5087 -0.3166 -0.7708
  646MOL0     C85176   7.149   3.859   5.324  0.3805 -0.1609 -0.0286
  646MOL0     C85177   7.012   3.918   5.300 -0.0019 -0.5934  0.6997
  646MOL0     C85178   6.899   3.808   5.308  0.1883  0.1395  0.0883
  646MOL0     C85179   6.758   3.872   5.317  0.8120  0.4140 -1.1827
  646MOL0     C85180   6.663   3.755   5.347  0.2725  0.3560 -0.1307
  646MOL0     C85181   6.515   3.811   5.343 -0.0203  0.1683 -0.0529
  646MOL0     C85182   6.457   3.812   5.202 -0.3330  0.0365 -0.2339
  646MOL0     C85183   6.315   3.852   5.175 -0.5460 -1.3596 -1.2873
  646MOL0    Cl85184   6.306   4.026   5.224 -0.8191 -0.1429  0.0683
  646MOL0     C85185   7.422   3.818   5.269  0.3175 -0.5060  0.4186
  646MOL0     C85186   7.552   3.820   5.221  0.1184  0.1972 -0.0809
  646MOL0     O85187   7.696   3.642   4.917 -0.9111 -0.0080 -0.1967
  646MOL0     C85188   7.952   3.880   4.892  0.3542 -0.8295  0.6596
  646MOL0     C85189   8.076   3.885   4.835 -0.1481  0.4297  0.4169
  646MOL0     N85190   8.756   3.967   4.870 -0.2536  0.3476  0.1298
  646MOL0     N85191   8.727   4.059   4.954 -0.6731  0.5259  0.6843
  646MOL0     C85192   7.527   4.290   5.212  0.8486  0.3206  0.6352
  646MOL0     C85193   7.399   4.248   5.237 -0.8757 -0.6641  0.4257
  646MOL0     C85194   6.942   4.260   5.220  0.4585 -1.7661  0.5287
  646MOL0     C85195   6.895   4.294   5.351  0.5021 -0.4537  0.0875
  646MOL0     C85196   6.765   4.270   5.393  0.4516  0.2197  0.0077
  646MOL0     C85197   6.676   4.234   5.294  0.2600  0.5115  0.3107
  646MOL0     O85198   6.540   4.231   5.329  0.3830  0.1300  0.3775
  646MOL0     C85199   6.487   4.330   5.411  0.6810 -0.7184 -0.5038
  646MOL0     C85200   6.332   4.310   5.405 -0.1302 -0.5757  0.0480
  646MOL0     C85201   6.269   4.364   5.270  0.4430  0.6100 -0.7160
  646MOL0     C85202   6.149   4.459   5.277  0.2813 -0.5417 -0.1212
  646MOL0     C85203   6.032   4.407   5.347  0.8241  0.1460 -0.5481
  646MOL0     C85204   5.944   4.360   5.416 -0.4973 -0.0906 -0.0223
  646MOL0     C85205   6.722   4.193   5.166 -0.2757 -1.1151  0.0644
  646MOL0     C85206   6.856   4.202   5.131  0.2124 -0.4162 -0.5616
  646MOL0     H85207   7.232   4.534   5.186  0.6645  1.1542 -3.8065
  646MOL0     H85208   7.487   4.610   5.162 -0.1135 -0.5263 -0.0589
  646MOL0     H85209   7.825   4.313   5.127  2.0256 -0.0432  1.5871
  646MOL0     H85210   7.797   4.338   5.302  1.8252  2.1190  1.5216
  646MOL0     H85211   7.904   4.556   5.306 -1.3139 -3.2859  3.2089
  646MOL0     H85212   7.932   4.526   5.125  0.8483  2.4213  0.5337
  646MOL0     H85213   8.056   4.360   5.359  4.0191 -1.9403 -1.0380
  646MOL0     H85214   8.130   4.500   5.286  0.0723  0.3970  1.6873
  646MOL0     H85215   8.047   4.226   5.180 -0.3368  0.1493 -0.3836
  646MOL0     H85216   8.110   4.346   5.060 -1.9169  0.8130  0.1289
  646MOL0     H85217   8.281   4.276   5.295  0.7136 -1.8816 -0.2833
  646MOL0     H85218   8.313   4.339   5.131  2.0308 -0.3448  1.5240
  646MOL0     H85219   8.242   4.121   5.033  1.5001  0.4271 -1.1683
  646MOL0     H85220   8.234   4.056   5.195  0.8561 -0.6011 -1.8796
  646MOL0     H85221   8.475   4.072   5.227 -0.1893  0.6986 -0.1694
  646MOL0     H85222   8.414   3.982   5.089 -1.3981  1.2258  0.0861
  646MOL0     H85223   8.581   4.225   5.088 -2.5935  0.4295  2.6781
  646MOL0     H85224   8.457   4.239   4.982 -1.2557  3.2812  3.8985
  646MOL0     H85225   8.438   3.989   4.807 -1.3187  0.3858  0.5467
  646MOL0     H85226   8.759   3.803   4.675  0.8053  0.6474  0.2990
  646MOL0     H85227   8.677   3.927   4.582 -0.7808  1.6353  1.9123
  646MOL0     H85228   8.498   3.733   4.735  0.5924  1.6094  1.3097
  646MOL0     H85229   8.587   3.669   4.594 -0.4302  1.6961 -2.3257
  646MOL0     H85230   8.419   3.913   4.531  0.9698  0.6504  2.0960
  646MOL0     H85231   8.463   3.773   4.444 -1.1671 -0.9900  0.3760
  646MOL0     H85232   8.300   3.638   4.585 -1.1684 -0.1137  1.6942
  646MOL0     H85233   8.235   3.776   4.484 -1.6627 -0.4684  1.1236
  646MOL0     H85234   8.096   3.614   4.647  0.5957  0.8907 -1.2483
  646MOL0     H85235   7.867   3.582   4.750  1.0903 -0.1413  0.5778
  646MOL0     H85236   7.499   3.782   4.895 -0.0110 -0.6795  0.2108
  646MOL0     H85237   7.293   3.745   4.966  0.5060  0.1015  0.7386
  646MOL0     H85238   7.204   3.948   5.354 -2.5323  1.9584 -0.5637
  646MOL0     H85239   7.144   3.789   5.409 -3.3887  0.6397  0.5613
  646MOL0     H85240   6.990   3.967   5.205 -0.1167  1.1228  1.5811
  646MOL0     H85241   6.987   3.995   5.373 -5.3065 -0.0818 -1.2135
  646MOL0     H85242   6.919   3.752   5.400  2.6901  0.7205 -0.0245
  646MOL0     H85243   6.906   3.740   5.223 -1.1189 -0.8046  0.7038
  646MOL0     H85244   6.752   3.962   5.380  1.4548  1.1070 -2.0939
  646MOL0     H85245   6.733   3.923   5.223  2.7713  2.9464 -0.4409
  646MOL0     H85246   6.701   3.704   5.437  0.7017  0.0518 -0.4750
  646MOL0     H85247   6.669   3.677   5.270  1.4362 -0.2612  0.5468
  646MOL0     H85248   6.514   3.905   5.398  2.8170 -1.2709  2.8165
  646MOL0     H85249   6.448   3.755   5.410 -0.5589  2.5159  1.4885
  646MOL0     H85250   6.513   3.880   5.138  0.5011 -0.1811  0.2442
  646MOL0     H85251   6.462   3.709   5.165  0.5640  0.6301 -1.9051
  646MOL0     H85252   6.237   3.795   5.227  0.5895 -3.0693 -1.3836
  646MOL0     H85253   6.304   3.841   5.067  1.8640 -0.1525 -1.7173
  646MOL0     H85254   7.416   3.823   5.377  2.5061 -0.8452  0.5948
  646MOL0     H85255   7.633   3.838   5.291 -0.1186 -2.5203  1.0005
  646MOL0     H85256   7.909   3.960   4.951 -0.0003 -1.8816  1.8654
  646MOL0     H85257   8.139   3.970   4.859 -1.2711  1.0587  1.2059
  646MOL0     H85258   7.611   4.220   5.212  1.7867  1.4065  0.1836
  646MOL0     H85259   7.389   4.142   5.259  0.5643 -0.7924  0.5327
  646MOL0     H85260   6.965   4.336   5.423 -0.4323  3.7034 -1.1694
  646MOL0     H85261   6.738   4.308   5.491  0.7213  4.6768 -1.3940
  646MOL0     H85262   6.496   4.435   5.381 -1.1727 -0.1325  0.8220
  646MOL0     H85263   6.521   4.319   5.514 -1.4898 -0.1706  0.3218
  646MOL0     H85264   6.303   4.206   5.425 -4.1963  0.4013  0.1165
  646MOL0     H85265   6.290   4.368   5.488  0.0473  2.2427 -1.7069
  646MOL0     H85266   6.259   4.277   5.204 -1.4766  0.4415 -0.2603
  646MOL0     H85267   6.339   4.424   5.210  0.5535 -0.1251 -1.3403
  646MOL0     H85268   6.196   4.550   5.316 -1.0878 -0.8686  2.5657
  646MOL0     H85269   6.104   4.481   5.179 -2.6901  0.5746  1.3434
  646MOL0     H85270   5.866   4.317   5.475 -1.3459 -0.3888 -1.3090
  646MOL0     H85271   6.639   4.161   5.104 -2.7773 -0.1309  2.6947
  646MOL0     H85272   6.897   4.175   5.033  3.3249 -1.4258  0.8705
  647MOL0     O85273   8.797   9.488   3.535 -0.0972  0.0431  0.5272
  647MOL0     C85274   8.865   9.424   3.454 -0.2985 -0.3315  0.0673
  647MOL0     O85275   8.972   9.470   3.383  0.5243 -0.2008 -0.2892
  647MOL0     C85276   9.000   9.593   3.421 -1.0933 -1.1117  0.5368
  647MOL0     C85277   9.072   9.615   3.547 -0.3054  0.6232 -0.1358
  647MOL0     C85278   9.106   9.741   3.601  0.7137 -0.1740 -1.0128
  647MOL0     C85279   9.063   9.855   3.533 -0.2945 -0.1260 -0.5473
  647MOL0     O85280   9.075   9.979   3.591  0.2778  0.2068  0.1816
  647MOL0     C85281   9.150  10.000   3.714  0.0119  0.2538 -1.1213
  647MOL0     C85282   9.191  10.147   3.721 -0.3204 -1.0799 -0.2959
  647MOL0     C85283   9.260  10.180   3.852  0.6405  1.1048  0.0226
  647MOL0     C85284   9.286  10.333   3.857 -0.5707 -0.2438 -0.0089
  647MOL0     C85285   9.362  10.361   3.987  0.0501 -0.9623 -0.0400
  647MOL0     C85286   9.507  10.320   3.971  0.2641 -0.4418  1.0448
  647MOL0     C85287   9.584  10.395   4.080  0.9731  0.6595 -0.3574
  647MOL0     C85288   9.714  10.321   4.134 -0.6386  0.0748  0.8672
  647MOL0     N85289   9.795  10.400   4.229 -0.0973  0.1708  0.0198
  647MOL0     C85290   9.803  10.368   4.368  1.3966 -0.7388  0.4633
  647MOL0     C85291   9.851  10.478   4.417 -0.0231  0.2226  0.9982
  647MOL0     C85292   9.887  10.486   4.568 -0.5457  0.6263 -0.2283
  647MOL0     C85293  10.029  10.434   4.581  0.1340 -0.2940  0.6794
  647MOL0     C85294  10.051  10.397   4.737  0.0775  0.0671  0.5921
  647MOL0     C85295  10.136  10.267   4.749 -0.5160  0.7242  0.4637
  647MOL0     O85296  10.178  10.244   4.883  0.1048 -0.0568  0.7946
  647MOL0     C85297  10.315  10.262   4.906  0.1531 -0.8511 -0.1635
  647MOL0     C85298  10.415  10.211   4.827 -0.1914 -0.2031 -0.1507
  647MOL0     C85299  10.544  10.218   4.868 -0.4911 -0.5303  0.7663
  647MOL0     C85300  10.585  10.293   4.984  0.5222 -0.2222  0.8115
  647MOL0     C85301  10.725  10.313   5.019  0.5509  0.3305 -0.4639
  647MOL0     O85302  10.756  10.390   5.132 -0.6025  0.2288  1.4414
  647MOL0     C85303  10.894  10.421   5.135  0.2037 -0.6934  0.3390
  647MOL0     C85304  10.973  10.349   5.225  0.1424 -0.2424  0.3630
  647MOL0     C85305  11.104  10.385   5.230 -0.5479 -0.3714 -0.7226
  647MOL0     C85306  11.167  10.489   5.158 -0.4947  0.3870  1.2452
  647MOL0     O85307  11.302  10.529   5.173  0.8788 -0.2456 -0.2359
  647MOL0     C85308  11.328  10.628   5.275 -0.3601  0.1158 -0.2285
  647MOL0     C85309  11.310  10.773   5.220  0.1661  0.2645  0.4242
  647MOL0     C85310  11.325  10.894   5.317 -0.5927 -0.8862  0.8826
  647MOL0     C85311  11.277  11.029   5.253 -0.4577 -0.4482 -1.2037
  647MOL0     C85312  11.296  11.148   5.353  0.2690 -0.0475  0.4106
  647MOL0     C85313  11.263  11.283   5.289  0.2731  0.6997 -0.7767
  647MOL0     C85314  11.274  11.396   5.392  0.4813 -1.0703 -0.0477
  647MOL0     C85315  11.211  11.525   5.337 -0.4117  0.3435 -0.1356
  647MOL0    Cl85316  11.274  11.559   5.181  0.3577 -0.1800 -0.6379
  647MOL0     C85317  11.089  10.550   5.057 -0.1416 -0.1831  0.0869
  647MOL0     C85318  10.953  10.527   5.057 -0.3674 -0.3082  0.1223
  647MOL0     O85319  10.805  10.243   4.952 -0.4881  0.2552  0.0297
  647MOL0     C85320  10.475  10.336   5.069 -0.1348  0.9590 -0.1967
  647MOL0     C85321  10.347  10.326   5.034 -0.2331 -0.4021  0.9269
  647MOL0     N85322   9.855  10.583   4.321 -0.6639 -0.2407  0.8086
  647MOL0     N85323   9.828  10.528   4.210 -0.2366  0.6270  1.1790
  647MOL0     C85324   8.992   9.845   3.414 -0.1487  0.4028  0.0254
  647MOL0     C85325   8.963   9.716   3.360  1.0300 -0.6727 -0.1472
  647MOL0     C85326   8.826   9.287   3.426  0.8949  0.3459 -0.2559
  647MOL0     C85327   8.695   9.244   3.447  0.5413  0.6587  0.0394
  647MOL0     C85328   8.662   9.101   3.415  0.0564  0.0912 -0.2837
  647MOL0     C85329   8.753   9.016   3.341  0.2027 -1.0529 -0.0713
  647MOL0     O85330   8.728   8.892   3.293 -0.2724  0.0328 -0.1108
  647MOL0     C85331   8.602   8.829   3.333 -0.5361 -0.5288  0.5699
  647MOL0     C85332   8.482   8.886   3.249 -0.9138  0.0038  0.5067
  647MOL0     C85333   8.508   8.909   3.104  0.5037 -0.1133 -0.7254
  647MOL0     C85334   8.370   8.901   3.027  0.6793 -0.1651  0.1172
  647MOL0     C85335   8.303   9.028   3.036  0.1538  0.0240  0.4198
  647MOL0     C85336   8.242   9.131   3.045  0.4407  0.3554 -0.4140
  647MOL0     C85337   8.883   9.071   3.330  0.3470  0.2437  1.1571
  647MOL0     C85338   8.915   9.199   3.360 -0.3142  0.3598  0.4919
  647MOL0     H85339   9.108   9.531   3.605 -0.3399 -0.7868 -2.0312
  647MOL0     H85340   9.169   9.737   3.690  0.3292 -2.9336 -0.7873
  647MOL0     H85341   9.230   9.928   3.735 -0.3580  0.2276  0.3257
  647MOL0     H85342   9.080   9.982   3.797  0.5314  0.7383 -0.5754
  647MOL0     H85343   9.106  10.216   3.711 -1.7574 -2.1646  2.9306
  647MOL0     H85344   9.262  10.177   3.643  1.4277 -0.4025  1.4887
  647MOL0     H85345   9.347  10.115   3.867  0.1023  0.1515 -0.8662
  647MOL0     H85346   9.182  10.166   3.928 -0.8998  1.5862 -1.4251
  647MOL0     H85347   9.350  10.377   3.780 -1.5465 -1.3031 -1.4802
  647MOL0     H85348   9.190  10.385   3.864 -0.7554 -0.7629  1.8871
  647MOL0     H85349   9.311  10.312   4.070 -0.6506  0.5614  0.4671
  647MOL0     H85350   9.351  10.469   4.000  0.8910 -0.8374 -0.2995
  647MOL0     H85351   9.552  10.336   3.873 -0.4493  2.2056  1.0705
  647MOL0     H85352   9.510  10.212   3.984 -0.8621 -0.5278  0.6522
  647MOL0     H85353   9.623  10.487   4.035  3.2240  0.4892  1.0903
  647MOL0     H85354   9.523  10.419   4.168  2.5010 -0.3015  1.0113
  647MOL0     H85355   9.777  10.297   4.047 -0.3939  1.5399  0.6179
  647MOL0     H85356   9.694  10.224   4.180  3.8243 -0.3895  2.3185
  647MOL0     H85357   9.786  10.269   4.410  2.2824 -2.3487 -2.6490
  647MOL0     H85358   9.822  10.426   4.632  0.4451 -0.2826 -0.0544
  647MOL0     H85359   9.878  10.589   4.603 -0.2200  0.6856 -0.3145
  647MOL0     H85360  10.086  10.523   4.554 -0.0366  0.7493  3.4014
  647MOL0     H85361  10.040  10.348   4.514 -3.2005 -0.2623 -0.1018
  647MOL0     H85362  10.113  10.479   4.775  0.8156  1.4462 -3.1417
  647MOL0     H85363   9.960  10.384   4.797  1.4299  0.7894  2.9437
  647MOL0     H85364  10.215  10.250   4.676 -0.9918 -2.0697  0.4714
  647MOL0     H85365  10.065  10.186   4.728 -3.0212  3.1619 -1.1238
  647MOL0     H85366  10.399  10.166   4.729  2.0351  0.1689 -0.7454
  647MOL0     H85367  10.623  10.178   4.805 -0.6232 -1.5006  1.1906
  647MOL0     H85368  10.928  10.270   5.284  1.2216 -2.2105 -1.3347
  647MOL0     H85369  11.157  10.350   5.318  1.9727  2.8781 -0.7500
  647MOL0     H85370  11.436  10.624   5.286 -0.0835 -2.7222 -2.7320
  647MOL0     H85371  11.268  10.617   5.366 -0.5816 -0.7874 -0.4708
  647MOL0     H85372  11.217  10.783   5.164 -0.6103 -1.3035  1.3798
  647MOL0     H85373  11.395  10.789   5.153  1.1222  0.6950  1.6967
  647MOL0     H85374  11.429  10.911   5.343 -1.3914  4.0674  1.6859
  647MOL0     H85375  11.264  10.880   5.407 -2.6793 -0.5765 -0.3993
  647MOL0     H85376  11.325  11.063   5.161 -0.2547  0.9457 -0.6163
  647MOL0     H85377  11.168  11.034   5.240 -0.6436  0.4118  0.4140
  647MOL0     H85378  11.398  11.149   5.393  0.2224 -1.6954  0.6637
  647MOL0     H85379  11.221  11.136   5.432  1.3815  1.6274  1.7906
  647MOL0     H85380  11.160  11.279   5.254 -0.5135  0.3409  1.3936
  647MOL0     H85381  11.341  11.296   5.213  1.6396 -1.8067  0.0616
  647MOL0     H85382  11.213  11.373   5.480  1.0207 -1.1298  0.3168
  647MOL0     H85383  11.379  11.408   5.422  0.3366 -0.8562  0.3700
  647MOL0     H85384  11.214  11.607   5.409  3.5881 -1.4959  2.0907
  647MOL0     H85385  11.102  11.512   5.334 -0.6642  2.1177  0.1935
  647MOL0     H85386  11.143  10.619   4.993 -1.6855 -0.6568 -1.8278
  647MOL0     H85387  10.906  10.591   4.984 -0.0292 -0.9098 -0.6413
  647MOL0     H85388  10.509  10.375   5.165  2.2061  3.4364 -1.8627
  647MOL0     H85389  10.267  10.362   5.099  0.1425 -1.2073  1.8653
  647MOL0     H85390   8.958   9.935   3.364  1.2455  1.9585  1.7329
  647MOL0     H85391   8.917   9.698   3.264 -0.7719 -0.2943  0.5957
  647MOL0     H85392   8.626   9.321   3.480  2.2306  2.0870  0.3340
  647MOL0     H85393   8.572   9.050   3.447  1.8340 -2.1456  1.4787
  647MOL0     H85394   8.583   8.834   3.440  0.7374 -1.3883  0.8630
  647MOL0     H85395   8.599   8.721   3.314 -1.3814 -0.2442 -1.1104
  647MOL0     H85396   8.402   8.814   3.264 -0.7256 -1.0142 -2.5893
  647MOL0     H85397   8.450   8.982   3.291 -3.0397  1.2164 -3.3570
  647MOL0     H85398   8.571   8.830   3.064  1.8823  1.7150 -2.3658
  647MOL0     H85399   8.574   8.993   3.082 -0.0295  0.3926 -0.4401
  647MOL0     H85400   8.396   8.902   2.921 -0.8477  3.4912 -0.3737
  647MOL0     H85401   8.316   8.810   3.056 -0.2476  0.6886  1.1614
  647MOL0     H85402   8.192   9.225   3.053  1.7340  0.9263  2.0420
  647MOL0     H85403   8.959   9.017   3.275 -0.2257 -0.2713  0.8637
  647MOL0     H85404   9.008   9.243   3.326  0.4003 -1.8595 -0.6072
  648MOL0     O85405   8.970   8.261   0.847 -0.0656 -0.8605 -0.3807
  648MOL0     C85406   9.016   8.159   0.896  0.8032 -0.2175  0.6512
  648MOL0     O85407   9.150   8.146   0.924  0.4058 -0.0050  0.0110
  648MOL0     C85408   9.231   8.252   0.913  0.1497 -0.7034 -0.0670
  648MOL0     C85409   9.262   8.334   1.026  0.8704 -0.4160 -0.4894
  648MOL0     C85410   9.339   8.446   1.017  0.1825 -0.2071 -0.3200
  648MOL0     C85411   9.370   8.494   0.889 -0.2013 -0.5494 -0.1416
  648MOL0     O85412   9.439   8.608   0.867  0.5434  0.6686  0.8340
  648MOL0     C85413   9.532   8.649   0.963 -0.2029 -0.5240  0.2799
  648MOL0     C85414   9.589   8.781   0.920  0.8973  0.2432 -0.4153
  648MOL0     C85415   9.694   8.765   0.817  0.1607 -0.6290  0.4168
  648MOL0     C85416   9.709   8.901   0.741 -1.0541  1.8318  0.0099
  648MOL0     C85417   9.784   8.873   0.607 -0.1328  0.1979  1.1707
  648MOL0     C85418   9.931   8.863   0.626 -0.2176 -0.5476  0.0491
  648MOL0     C85419  10.022   8.877   0.502  0.2576  0.2541 -0.2232
  648MOL0     C85420   9.993   8.766   0.403  0.5417  0.7335 -0.5231
  648MOL0     N85421  10.060   8.767   0.279 -0.1977 -0.2843  0.9624
  648MOL0     C85422  10.026   8.846   0.174  0.2680  0.0792  0.1465
  648MOL0     C85423  10.088   8.798   0.063  0.5736 -0.1346 -0.0509
  648MOL0     C85424  10.076   8.847  -0.074 -0.5824  0.5568  1.1432
  648MOL0     C85425  10.168   8.961  -0.103 -0.9940 -1.0281 -0.3416
  648MOL0     C85426  10.317   8.938  -0.072  0.4125 -0.5360 -0.1901
  648MOL0     C85427  10.396   9.061  -0.099  0.3708 -0.5692 -1.0009
  648MOL0     O85428  10.534   9.026  -0.082  0.0628  0.0816 -0.5651
  648MOL0     C85429  10.636   9.118  -0.114 -0.6816  0.2833  0.0212
  648MOL0     C85430  10.767   9.072  -0.075  0.2164  1.0406 -0.8689
  648MOL0     C85431  10.876   9.154  -0.086  0.3397 -0.1774 -0.1388
  648MOL0     C85432  10.863   9.287  -0.138  0.9575 -0.3139 -0.5064
  648MOL0     C85433  10.976   9.371  -0.162 -0.3860 -0.1959  0.1369
  648MOL0     O85434  11.091   9.339  -0.095 -0.3413 -0.5500  1.0714
  648MOL0     C85435  11.198   9.421  -0.114 -0.2230 -0.3679 -0.0292
  648MOL0     C85436  11.230   9.503   0.004  0.2514 -0.8628  0.0860
  648MOL0     C85437  11.332   9.594  -0.005 -0.4029  0.4228 -0.0613
  648MOL0     C85438  11.395   9.621  -0.130 -0.4510  0.3966 -0.3056
  648MOL0     O85439  11.485   9.727  -0.129 -0.3017  0.4904 -0.3067
  648MOL0     C85440  11.593   9.726  -0.226 -0.0572 -0.4051  0.4182
  648MOL0     C85441  11.680   9.847  -0.194 -0.1750 -0.5662 -0.8039
  648MOL0     C85442  11.806   9.857  -0.275  0.1345 -0.3595  0.0556
  648MOL0     C85443  11.916   9.741  -0.240  0.1936 -0.8519 -0.0219
  648MOL0     C85444  12.050   9.759  -0.305 -0.7573 -0.1290  0.1031
  648MOL0     C85445  12.107   9.899  -0.291  0.1480 -1.2868  0.0366
  648MOL0     C85446  12.235   9.924  -0.371  0.3304  0.7760 -0.3107
  648MOL0     C85447  12.286  10.067  -0.389  0.2232 -0.8752 -0.7220
  648MOL0    Cl85448  12.157  10.180  -0.439  0.2810  0.1444 -0.2180
  648MOL0     C85449  11.357   9.557  -0.245  0.9919  0.1006  0.4704
  648MOL0     C85450  11.267   9.449  -0.229 -0.2304  0.9181  0.8566
  648MOL0     O85451  10.962   9.464  -0.244 -0.0839  1.0853  0.0555
  648MOL0     C85452  10.733   9.324  -0.184  0.8214  0.3570  0.9163
  648MOL0     C85453  10.617   9.241  -0.175  0.6532  0.8038  0.2098
  648MOL0     N85454  10.181   8.704   0.107  0.1495  0.6234 -0.1061
  648MOL0     N85455  10.159   8.687   0.235 -0.6028 -0.9158 -0.1693
  648MOL0     C85456   9.354   8.407   0.777 -0.9418 -0.8718 -1.3727
  648MOL0     C85457   9.294   8.277   0.791  0.1738 -0.4623 -0.0080
  648MOL0     C85458   8.920   8.044   0.924  0.2393  0.5156  0.7265
  648MOL0     C85459   8.965   7.925   0.990  0.9492 -0.1123 -0.3297
  648MOL0     C85460   8.878   7.820   1.023 -0.1548  0.9192  0.6925
  648MOL0     C85461   8.741   7.831   0.976 -0.0986  0.9639 -0.3693
  648MOL0     O85462   8.652   7.731   1.014 -0.0805  0.4280 -0.1512
  648MOL0     C85463   8.529   7.688   0.948  0.6181  0.2840 -1.0121
  648MOL0     C85464   8.537   7.659   0.801 -0.2836 -0.0615  0.9455
  648MOL0     C85465   8.612   7.527   0.767 -0.3136 -0.1824  0.3049
  648MOL0     C85466   8.622   7.514   0.618 -0.1690  0.9320  0.2528
  648MOL0     C85467   8.735   7.426   0.571  0.5136  0.5643 -0.0688
  648MOL0     C85468   8.834   7.358   0.534  1.1310 -0.3158  0.7443
  648MOL0     C85469   8.696   7.949   0.920 -0.4025  0.6122  0.7624
  648MOL0     C85470   8.778   8.056   0.885  0.8256  0.5938 -0.6340
  648MOL0     H85471   9.226   8.301   1.124  0.0037 -1.4495 -1.1311
  648MOL0     H85472   9.356   8.490   1.115  2.4462 -1.6868  0.0233
  648MOL0     H85473   9.614   8.577   0.965  0.8475  0.6596  0.5596
  648MOL0     H85474   9.486   8.655   1.062  0.2987  0.2368  0.4719
  648MOL0     H85475   9.633   8.836   1.003 -0.8774 -0.1520  0.8319
  648MOL0     H85476   9.508   8.837   0.872 -1.4642 -0.2918  2.6156
  648MOL0     H85477   9.656   8.687   0.751  0.7417 -0.7206  0.1929
  648MOL0     H85478   9.787   8.732   0.863  0.0476 -1.6886 -0.0869
  648MOL0     H85479   9.611   8.938   0.711 -1.2346  1.6452  0.3662
  648MOL0     H85480   9.760   8.978   0.800 -1.7033  2.2436  0.0377
  648MOL0     H85481   9.760   8.960   0.545  0.6711 -1.4368 -1.6109
  648MOL0     H85482   9.749   8.783   0.555 -0.2627  1.3026 -0.7470
  648MOL0     H85483   9.956   8.770   0.678  1.4702 -0.0983  0.0786
  648MOL0     H85484   9.969   8.938   0.696  0.7276 -1.3490  0.4261
  648MOL0     H85485   9.991   8.971   0.455 -1.3832  0.0400  0.3771
  648MOL0     H85486  10.130   8.871   0.522  0.5188 -3.9819 -1.7328
  648MOL0     H85487   9.887   8.757   0.377  0.3272 -0.5069  0.6885
  648MOL0     H85488  10.009   8.668   0.449  1.9457  1.2669  0.1944
  648MOL0     H85489   9.939   8.908   0.191 -0.5038 -0.8662 -0.2602
  648MOL0     H85490   9.974   8.881  -0.097  0.0283  1.5242 -0.2798
  648MOL0     H85491  10.110   8.764  -0.136  1.5548  2.7352 -0.8159
  648MOL0     H85492  10.125   9.048  -0.052 -1.9706 -1.9782  0.4808
  648MOL0     H85493  10.171   8.961  -0.212  2.1308  0.3565 -0.3578
  648MOL0     H85494  10.342   8.912   0.031  5.2277  1.4498 -0.6259
  648MOL0     H85495  10.360   8.858  -0.132  3.7722  1.5473 -0.7955
  648MOL0     H85496  10.388   9.149  -0.033  3.1314  0.0806 -1.3724
  648MOL0     H85497  10.370   9.095  -0.199  0.7084  0.4582 -0.7562
  648MOL0     H85498  10.788   8.970  -0.044  3.4856  2.1577  1.0407
  648MOL0     H85499  10.966   9.110  -0.044 -1.1138 -1.9756  1.2743
  648MOL0     H85500  11.176   9.478   0.095 -0.4437 -0.5436 -0.2321
  648MOL0     H85501  11.364   9.655   0.079  1.2439  2.2139 -1.8815
  648MOL0     H85502  11.547   9.739  -0.324  1.0215  2.0589  0.1549
  648MOL0     H85503  11.647   9.631  -0.218  1.8423  0.3070 -2.5417
  648MOL0     H85504  11.716   9.845  -0.091  0.8306 -0.9607 -1.1479
  648MOL0     H85505  11.626   9.941  -0.203 -0.0901 -0.6326 -2.2281
  648MOL0     H85506  11.847   9.957  -0.258  4.1255 -1.9133  0.8846
  648MOL0     H85507  11.778   9.840  -0.380 -3.6357  3.0252  0.2826
  648MOL0     H85508  11.932   9.740  -0.132  1.9563  1.4974 -0.1801
  648MOL0     H85509  11.878   9.646  -0.277 -0.2629 -0.0230 -1.8005
  648MOL0     H85510  12.039   9.761  -0.414  1.0656 -0.8357 -0.1240
  648MOL0     H85511  12.118   9.675  -0.287 -2.8656 -1.7803  0.7940
  648MOL0     H85512  12.126   9.927  -0.187  0.3236 -0.2181 -0.2776
  648MOL0     H85513  12.043   9.975  -0.337  0.6072 -0.9328 -0.0246
  648MOL0     H85514  12.309   9.856  -0.327  0.1223  1.1494  0.6487
  648MOL0     H85515  12.227   9.887  -0.474 -2.6529  0.0381  0.0852
  648MOL0     H85516  12.363  10.081  -0.466 -0.6265  2.6600 -1.1158
  648MOL0     H85517  12.328  10.100  -0.293 -0.3641  3.3441 -1.7398
  648MOL0     H85518  11.406   9.579  -0.339  0.7811 -2.4506 -0.3056
  648MOL0     H85519  11.240   9.392  -0.317  0.4717 -2.5128  2.7039
  648MOL0     H85520  10.725   9.415  -0.242 -0.0164  0.2703  0.8840
  648MOL0     H85521  10.525   9.283  -0.213 -0.1257  0.6903  1.8891
  648MOL0     H85522   9.386   8.441   0.679  1.0460  1.2305 -0.1034
  648MOL0     H85523   9.285   8.211   0.705 -2.4680 -1.6787  1.0905
  648MOL0     H85524   9.068   7.931   1.024  0.8135  1.7448 -0.1617
  648MOL0     H85525   8.918   7.743   1.089 -1.6902  0.9481  1.7023
  648MOL0     H85526   8.448   7.762   0.948  1.9912  1.8775 -2.2112
  648MOL0     H85527   8.494   7.596   0.995  1.0439 -0.2159 -1.6599
  648MOL0     H85528   8.437   7.650   0.757  0.3680 -3.1981 -0.1086
  648MOL0     H85529   8.594   7.745   0.762  2.4270 -1.1998  2.1516
  648MOL0     H85530   8.546   7.449   0.807  1.6032 -1.7194  0.6368
  648MOL0     H85531   8.712   7.513   0.808  0.1844 -0.0976 -0.8512
  648MOL0     H85532   8.525   7.475   0.585 -0.3130  0.0886  1.5776
  648MOL0     H85533   8.636   7.611   0.571 -0.7436  0.4593 -0.9471
  648MOL0     H85534   8.920   7.301   0.504  0.2031 -2.3827  1.8591
  648MOL0     H85535   8.590   7.959   0.896 -0.7273 -1.3980  1.2297
  648MOL0     H85536   8.740   8.146   0.839  1.5805  1.0504 -0.3796
  649MOL0     O85537   1.221   4.782   3.468 -0.0004 -0.0866  0.1020
  649MOL0     C85538   1.255   4.898   3.482  0.3070 -0.5912  0.4844
  649MOL0     O85539   1.186   4.996   3.548 -1.0961  0.0113 -0.0441
  649MOL0     C85540   1.062   4.961   3.588  0.0708  0.7840  0.2024
  649MOL0     C85541   1.026   5.014   3.718 -0.3082  1.4542 -0.6648
  649MOL0     C85542   0.890   4.999   3.755 -0.4764 -0.5527  1.3290
  649MOL0     C85543   0.789   4.959   3.665 -1.5991  0.9707 -0.3929
  649MOL0     O85544   0.665   4.950   3.723 -0.1763  0.2947  0.1569
  649MOL0     C85545   0.560   4.983   3.637 -1.0265 -0.3885  0.7069
  649MOL0     C85546   0.453   5.070   3.707  0.4936 -0.1880  0.6799
  649MOL0     C85547   0.334   5.106   3.616  0.6620 -0.1269  0.1266
  649MOL0     C85548   0.245   5.214   3.671  0.1563 -0.3277 -0.9468
  649MOL0     C85549   0.109   5.207   3.617  0.1945 -0.1699  0.2119
  649MOL0     C85550   0.021   5.335   3.625  0.5185 -0.2244 -0.9577
  649MOL0     C85551   0.087   5.455   3.552  0.2454  0.1185  0.3808
  649MOL0     C85552  -0.010   5.502   3.448 -0.5254  0.3410  0.5794
  649MOL0     N85553  -0.021   5.406   3.331 -0.3837  0.2671  0.0445
  649MOL0     C85554  -0.141   5.370   3.282 -0.4980 -0.0122  0.4918
  649MOL0     C85555  -0.123   5.320   3.163  0.2237 -0.1766 -0.4299
  649MOL0     C85556  -0.238   5.291   3.068  0.3844 -0.6715 -0.2465
  649MOL0     C85557  -0.215   5.159   2.999 -0.4067  1.0052 -0.4331
  649MOL0     C85558  -0.296   5.118   2.876 -0.1563 -0.0962  0.2771
  649MOL0     C85559  -0.439   5.179   2.859 -0.8995  0.2497  0.2179
  649MOL0     O85560  -0.516   5.175   2.976  0.3481  0.1463 -0.5114
  649MOL0     C85561  -0.649   5.159   2.965  0.5702  0.0899  0.2030
  649MOL0     C85562  -0.731   5.172   2.848  0.5121 -0.7890 -0.2521
  649MOL0     C85563  -0.871   5.170   2.857 -0.8596 -0.4218  0.8603
  649MOL0     C85564  -0.930   5.152   2.984 -0.4254 -0.4763  0.1612
  649MOL0     C85565  -1.074   5.183   3.015  2.1489  1.6444 -0.2526
  649MOL0     O85566  -1.140   5.275   2.936 -0.7091 -0.7519 -0.1017
  649MOL0     C85567  -1.263   5.309   2.985  0.0611  0.5988 -0.2837
  649MOL0     C85568  -1.293   5.442   3.039 -0.0834  0.3611  0.3780
  649MOL0     C85569  -1.417   5.484   3.060  0.2685 -0.6489 -1.2065
  649MOL0     C85570  -1.531   5.403   3.038  0.0241 -0.1568 -0.2999
  649MOL0     O85571  -1.657   5.445   3.074 -0.5981  1.2255  0.4757
  649MOL0     C85572  -1.694   5.576   3.067  0.2297 -0.9027  0.3200
  649MOL0     C85573  -1.843   5.605   3.105 -0.5313 -0.0325 -0.8789
  649MOL0     C85574  -1.935   5.531   3.007 -0.0882  0.0101  1.1245
  649MOL0     C85575  -2.070   5.606   3.002  0.2273 -0.6473 -0.1149
  649MOL0     C85576  -2.193   5.530   2.929 -0.3155  0.3575  0.0809
  649MOL0     C85577  -2.313   5.623   2.909  0.4232  0.4236 -0.2582
  649MOL0     C85578  -2.424   5.549   2.844  0.4155 -0.1343 -0.1543
  649MOL0     C85579  -2.540   5.648   2.834  0.7416  0.6405  0.0658
  649MOL0    Cl85580  -2.637   5.660   2.990  0.3549 -0.0620 -0.2999
  649MOL0     C85581  -1.502   5.275   2.985  0.2554  0.2755 -0.4022
  649MOL0     C85582  -1.369   5.233   2.955 -0.5206  0.1670  0.1042
  649MOL0     O85583  -1.127   5.117   3.104  0.1461  0.5560  0.1584
  649MOL0     C85584  -0.849   5.124   3.093 -0.2766  0.8089 -0.8157
  649MOL0     C85585  -0.710   5.141   3.083 -0.2673  0.8129  1.0942
  649MOL0     N85586   0.004   5.338   3.121 -0.3100  0.2601 -0.1324
  649MOL0     N85587   0.069   5.383   3.228  0.5514  0.7260 -0.1022
  649MOL0     C85588   0.827   4.905   3.538  0.3496  1.1408 -0.2044
  649MOL0     C85589   0.964   4.908   3.500 -0.2576  0.5376  0.4334
  649MOL0     C85590   1.382   4.951   3.419 -0.0366  0.8349 -0.0775
  649MOL0     C85591   1.469   4.861   3.360  0.0704  0.6629 -0.0156
  649MOL0     C85592   1.580   4.894   3.288  0.0753 -1.2252  0.0114
  649MOL0     C85593   1.626   5.029   3.282  0.4038 -0.2288  0.5474
  649MOL0     O85594   1.740   5.050   3.225 -0.2003 -0.4014  0.7325
  649MOL0     C85595   1.815   5.174   3.264 -0.3269  0.1873  0.8778
  649MOL0     C85596   1.968   5.134   3.275  0.3702  0.8306  1.0742
  649MOL0     C85597   2.040   5.251   3.348  0.3337  0.2030  0.0971
  649MOL0     C85598   2.189   5.216   3.366 -0.3630  0.5020  0.1584
  649MOL0     C85599   2.256   5.249   3.236 -0.1095 -0.7405  0.1258
  649MOL0     C85600   2.287   5.260   3.125  0.8082 -0.2052  0.2871
  649MOL0     C85601   1.541   5.125   3.335  0.4795 -0.6587 -0.5232
  649MOL0     C85602   1.425   5.089   3.418 -0.4380 -0.3094 -0.0703
  649MOL0     H85603   1.095   5.053   3.793 -2.0604 -0.9286  2.4520
  649MOL0     H85604   0.861   5.003   3.860 -3.0464 -1.8200  0.7251
  649MOL0     H85605   0.524   4.888   3.595  1.9028 -1.2164 -0.1798
  649MOL0     H85606   0.583   5.040   3.546  2.4558 -1.4471  0.7797
  649MOL0     H85607   0.496   5.159   3.753  1.0994 -0.5660  0.8583
  649MOL0     H85608   0.418   5.006   3.788  0.2150 -1.3002 -0.2834
  649MOL0     H85609   0.274   5.015   3.609  1.5639 -0.8365  1.2399
  649MOL0     H85610   0.367   5.131   3.515 -0.5170 -1.2320 -0.5509
  649MOL0     H85611   0.223   5.203   3.778 -1.5154 -0.0528 -1.2336
  649MOL0     H85612   0.289   5.312   3.651 -0.8583  0.0307 -1.4990
  649MOL0     H85613   0.053   5.128   3.668  2.0474 -1.2325  0.6942
  649MOL0     H85614   0.112   5.179   3.511 -1.4740  2.9999 -0.7902
  649MOL0     H85615   0.022   5.361   3.731  3.0092  0.3738 -1.0661
  649MOL0     H85616  -0.084   5.321   3.598  0.3441 -2.2558  0.4942
  649MOL0     H85617   0.103   5.527   3.633  0.7727 -0.3421  0.6935
  649MOL0     H85618   0.178   5.432   3.496  1.6870  1.0502  2.2366
  649MOL0     H85619   0.036   5.593   3.410 -0.4271  0.5647  1.2225
  649MOL0     H85620  -0.107   5.537   3.484 -2.4381 -0.4008 -3.3005
  649MOL0     H85621  -0.236   5.385   3.331 -1.6587  0.7722 -1.8606
  649MOL0     H85622  -0.237   5.372   2.995 -1.0568 -1.0660 -0.7348
  649MOL0     H85623  -0.331   5.305   3.122  1.6030  2.3658  1.2946
  649MOL0     H85624  -0.239   5.087   3.077 -1.7698  0.6430 -1.1621
  649MOL0     H85625  -0.110   5.139   2.974 -1.1634  0.3533 -3.6126
  649MOL0     H85626  -0.241   5.136   2.783 -2.2331  0.3976 -0.9066
  649MOL0     H85627  -0.299   5.009   2.881  4.2588 -0.4539 -0.6799
  649MOL0     H85628  -0.484   5.119   2.780  1.0917  1.1326 -1.6855
  649MOL0     H85629  -0.442   5.286   2.838 -1.9830  0.6373  2.0907
  649MOL0     H85630  -0.680   5.166   2.753  4.8790 -0.2009  1.7983
  649MOL0     H85631  -0.932   5.188   2.769  1.6624 -0.8950 -1.1279
  649MOL0     H85632  -1.215   5.515   3.057  0.1414  0.7558 -1.9295
  649MOL0     H85633  -1.430   5.587   3.090  2.4743 -0.1951 -1.6100
  649MOL0     H85634  -1.664   5.599   2.964  1.1422 -0.7681  0.6127
  649MOL0     H85635  -1.642   5.632   3.145  2.6744 -2.4145 -0.1206
  649MOL0     H85636  -1.843   5.714   3.094  0.8640  0.2886  1.5944
  649MOL0     H85637  -1.859   5.569   3.207  0.3677 -1.5330 -1.2388
  649MOL0     H85638  -1.957   5.426   3.028 -2.7769  0.1839 -0.4626
  649MOL0     H85639  -1.882   5.535   2.912  2.3583  0.7057  2.4198
  649MOL0     H85640  -2.103   5.649   3.097  1.9115  0.6009 -0.0666
  649MOL0     H85641  -2.048   5.696   2.945  2.4872  1.3153  3.5206
  649MOL0     H85642  -2.219   5.439   2.984  1.4886 -0.3797 -0.2228
  649MOL0     H85643  -2.158   5.501   2.830 -1.4076  0.2832 -0.2989
  649MOL0     H85644  -2.266   5.703   2.851  0.7699  0.0187 -0.5404
  649MOL0     H85645  -2.350   5.648   3.009 -1.4949 -1.9190 -0.3065
  649MOL0     H85646  -2.401   5.517   2.742 -0.1120 -1.7423  0.2139
  649MOL0     H85647  -2.458   5.458   2.894 -0.9370 -0.5457 -1.7197
  649MOL0     H85648  -2.607   5.614   2.755  2.4993 -2.4246 -0.2280
  649MOL0     H85649  -2.501   5.746   2.805  0.2100  1.5255  2.1594
  649MOL0     H85650  -1.593   5.220   2.964 -1.6353  2.1030  2.3472
  649MOL0     H85651  -1.349   5.139   2.905 -0.6979  0.7632 -1.1508
  649MOL0     H85652  -0.884   5.110   3.195  2.9290  1.0260  0.4274
  649MOL0     H85653  -0.650   5.146   3.174  2.1557  1.5413 -0.4281
  649MOL0     H85654   0.747   4.867   3.475 -0.2235 -1.9421  2.1073
  649MOL0     H85655   0.990   4.883   3.398 -1.8991 -0.0324  0.1211
  649MOL0     H85656   1.451   4.754   3.369  1.7484  0.1971 -1.4981
  649MOL0     H85657   1.649   4.826   3.239 -0.6808 -0.6956 -1.8824
  649MOL0     H85658   1.783   5.225   3.356  1.3473  2.8223  0.1314
  649MOL0     H85659   1.800   5.249   3.185  3.5359  0.6807  0.4189
  649MOL0     H85660   1.970   5.039   3.329 -2.1840 -0.2856 -0.6512
  649MOL0     H85661   2.000   5.113   3.173  0.9104 -1.9860  1.7329
  649MOL0     H85662   2.006   5.263   3.452  3.6225 -0.7848  1.4131
  649MOL0     H85663   2.015   5.339   3.288 -2.7866 -0.8022 -0.2392
  649MOL0     H85664   2.240   5.280   3.439  0.7799  0.2724 -0.4090
  649MOL0     H85665   2.188   5.110   3.392 -0.5030  0.2257 -0.9485
  649MOL0     H85666   2.306   5.276   3.021  0.1362 -3.3974 -0.4279
  649MOL0     H85667   1.564   5.229   3.318  0.8803 -0.7888 -0.7873
  649MOL0     H85668   1.375   5.175   3.461  1.2557  1.1249 -0.7946
  650MOL0     O85669   3.064   5.288   6.032  0.7599 -0.7479 -0.0172
  650MOL0     C85670   3.160   5.211   6.035  0.5113  0.3119 -1.1004
  650MOL0     O85671   3.154   5.078   5.998 -0.5327 -1.0590  0.0932
  650MOL0     C85672   3.032   5.017   5.984  0.2589  0.2586  0.6039
  650MOL0     C85673   2.915   5.069   5.925 -0.9394  0.4919 -0.6522
  650MOL0     C85674   2.794   5.003   5.922 -0.1839  0.3159 -0.2494
  650MOL0     C85675   2.781   4.879   5.985  0.7405 -0.9100  0.6505
  650MOL0     O85676   2.660   4.812   5.995  0.4760 -0.4781  0.0010
  650MOL0     C85677   2.537   4.879   5.947 -0.5244  0.0533  0.5403
  650MOL0     C85678   2.417   4.802   6.004  0.2736  0.0009 -0.2755
  650MOL0     C85679   2.425   4.650   5.984 -0.8845  0.0024 -0.0713
  650MOL0     C85680   2.312   4.572   6.046  0.0379  0.0960  0.6368
  650MOL0     C85681   2.255   4.469   5.946 -0.0853  0.3324 -0.1721
  650MOL0     C85682   2.166   4.375   6.029 -0.1800 -0.0978 -0.2710
  650MOL0     C85683   2.024   4.434   6.061  0.0133 -0.3488 -0.3795
  650MOL0     C85684   1.935   4.454   5.939  0.8309  0.3044  0.3561
  650MOL0     N85685   1.800   4.476   5.971  0.4357  0.4884 -0.0965
  650MOL0     C85686   1.732   4.591   5.949  1.3473 -0.3651 -0.1271
  650MOL0     C85687   1.616   4.575   6.018  0.5819  0.4388 -0.7286
  650MOL0     C85688   1.508   4.686   6.034 -0.0613  1.1821 -0.0436
  650MOL0     C85689   1.405   4.680   5.924  1.2932  0.4886  0.2687
  650MOL0     C85690   1.290   4.760   5.966  0.0437  0.2152 -0.0418
  650MOL0     C85691   1.202   4.788   5.851 -0.1447 -0.6896 -0.9235
  650MOL0     O85692   1.087   4.856   5.912  0.5515 -0.4680  0.0217
  650MOL0     C85693   1.070   4.989   5.863  0.0702  0.4264 -0.0185
  650MOL0     C85694   1.036   5.013   5.729  1.0280  0.2728 -0.6130
  650MOL0     C85695   1.031   5.137   5.679  0.7202 -0.7037  0.1771
  650MOL0     C85696   1.062   5.251   5.755 -0.2948 -0.2142 -0.1951
  650MOL0     C85697   1.053   5.390   5.700  1.3153  0.6993  0.0290
  650MOL0     O85698   1.039   5.492   5.796  0.5064 -0.6919  0.3008
  650MOL0     C85699   1.053   5.628   5.769 -0.5638 -0.0013  0.4465
  650MOL0     C85700   0.940   5.697   5.705 -0.0991 -0.4849  0.3146
  650MOL0     C85701   0.955   5.834   5.663 -1.1764  0.6710 -0.0947
  650MOL0     C85702   1.081   5.898   5.675  0.2028  0.1946  0.8278
  650MOL0     O85703   1.116   6.025   5.634  0.2099 -0.3117  0.6939
  650MOL0     C85704   1.021   6.109   5.566 -0.2582 -0.3779 -0.4979
  650MOL0     C85705   1.072   6.250   5.557  0.2397  0.2388 -0.4082
  650MOL0     C85706   1.223   6.273   5.529  0.8945  0.2180 -0.0081
  650MOL0     C85707   1.289   6.308   5.664 -0.4096  0.2439 -0.4849
  650MOL0     C85708   1.248   6.444   5.731 -0.4243  0.1042  0.7629
  650MOL0     C85709   1.343   6.495   5.837  0.1615 -0.3221  0.0190
  650MOL0     C85710   1.396   6.392   5.932 -0.3052  0.1316 -0.5279
  650MOL0     C85711   1.410   6.449   6.076 -0.2739 -0.0820 -0.2457
  650MOL0    Cl85712   1.257   6.444   6.165  0.3960 -0.4346  0.3230
  650MOL0     C85713   1.190   5.828   5.725 -0.4400 -0.2415 -0.3279
  650MOL0     C85714   1.181   5.691   5.771  0.2612 -0.4877  0.1638
  650MOL0     O85715   1.048   5.410   5.576 -0.3713 -0.6544  0.4240
  650MOL0     C85716   1.072   5.237   5.891 -0.6028  0.4335 -0.3682
  650MOL0     C85717   1.083   5.099   5.943  0.2526 -0.3392  0.2611
  650MOL0     N85718   1.603   4.440   6.052 -0.1401 -0.5202  0.3710
  650MOL0     N85719   1.717   4.384   6.026 -0.1935 -0.6988 -0.4619
  650MOL0     C85720   2.892   4.826   6.042  0.6962  0.1349 -0.2691
  650MOL0     C85721   3.012   4.891   6.040  0.2332 -0.4077 -0.3836
  650MOL0     C85722   3.291   5.277   6.054 -0.0150 -0.2632 -0.1841
  650MOL0     C85723   3.314   5.416   6.029 -0.5423  1.0122  0.5937
  650MOL0     C85724   3.435   5.473   6.066  1.0898 -0.5898  0.0707
  650MOL0     C85725   3.534   5.397   6.115 -0.4588 -0.7504 -0.2229
  650MOL0     O85726   3.650   5.464   6.149 -0.0723  0.7304  0.5006
  650MOL0     C85727   3.660   5.509   6.287  0.1259  0.5030  0.0022
  650MOL0     C85728   3.790   5.594   6.315 -0.1486 -0.3290  0.8792
  650MOL0     C85729   3.807   5.693   6.197 -0.5007  0.3210  0.6454
  650MOL0     C85730   3.922   5.791   6.206  0.4211  1.0824 -0.2877
  650MOL0     C85731   4.058   5.739   6.203  0.6505  0.4543  0.1345
  650MOL0     C85732   4.170   5.713   6.225 -0.1023 -0.6977  0.2558
  650MOL0     C85733   3.523   5.259   6.134  0.2515 -0.9420 -0.4717
  650MOL0     C85734   3.397   5.198   6.112  0.1146 -0.9355  0.5260
  650MOL0     H85735   2.918   5.167   5.878 -0.7384  1.7710  1.8338
  650MOL0     H85736   2.723   5.056   5.858  1.3905  3.6962  0.5593
  650MOL0     H85737   2.542   4.871   5.838 -2.1306  1.0683  0.3544
  650MOL0     H85738   2.534   4.980   5.990 -0.9812  0.3911 -0.2705
  650MOL0     H85739   2.326   4.849   5.968  1.4092  1.3891 -1.4599
  650MOL0     H85740   2.421   4.820   6.112  1.4099 -1.6396  0.0018
  650MOL0     H85741   2.518   4.621   6.032 -0.7216 -0.0264 -0.4022
  650MOL0     H85742   2.416   4.619   5.879 -0.1499 -1.1672  0.1926
  650MOL0     H85743   2.349   4.524   6.137  0.6737 -1.5376 -0.4322
  650MOL0     H85744   2.234   4.640   6.080  0.8161  2.8650 -2.6213
  650MOL0     H85745   2.329   4.403   5.898  0.3730  1.5086 -1.1291
  650MOL0     H85746   2.204   4.520   5.864  1.2688 -1.0741 -1.9892
  650MOL0     H85747   2.218   4.346   6.121 -0.9198 -1.2821 -0.2183
  650MOL0     H85748   2.152   4.282   5.973 -2.5094 -1.3096  2.1278
  650MOL0     H85749   1.967   4.368   6.126  0.0631 -0.4263 -0.4134
  650MOL0     H85750   2.040   4.527   6.117 -1.6769  1.2713 -2.4158
  650MOL0     H85751   1.947   4.371   5.868  0.1248 -0.6263  1.2824
  650MOL0     H85752   1.974   4.548   5.901  0.8608 -0.0826 -0.5999
  650MOL0     H85753   1.761   4.687   5.910 -2.1104 -0.0966 -2.4657
  650MOL0     H85754   1.547   4.789   6.034  2.1240  0.4130 -0.9718
  650MOL0     H85755   1.454   4.671   6.128 -1.5018  1.3262 -0.8228
  650MOL0     H85756   1.377   4.577   5.902  1.7731  0.0855  1.4540
  650MOL0     H85757   1.444   4.735   5.837 -1.5058  1.9330 -0.1804
  650MOL0     H85758   1.239   4.696   6.039  3.6704 -3.6135 -0.4991
  650MOL0     H85759   1.325   4.854   6.008 -1.6419  0.7533  0.2337
  650MOL0     H85760   1.168   4.702   5.793 -1.6209  0.0083 -1.1502
  650MOL0     H85761   1.253   4.849   5.775  2.1845  0.0366  1.0883
  650MOL0     H85762   1.019   4.932   5.660 -4.2557  2.2422 -2.1194
  650MOL0     H85763   0.995   5.148   5.577 -3.2075 -0.1270  1.4344
  650MOL0     H85764   0.843   5.651   5.688 -0.2562  0.4739 -1.6659
  650MOL0     H85765   0.873   5.886   5.615 -1.1128  2.7968  1.9421
  650MOL0     H85766   0.929   6.110   5.625 -1.5705 -3.7730 -2.2044
  650MOL0     H85767   0.996   6.076   5.465 -1.1112  1.1865 -0.8337
  650MOL0     H85768   1.037   6.295   5.650 -1.2391 -0.6991 -0.4813
  650MOL0     H85769   1.014   6.296   5.477  2.3935  1.5716 -1.2956
  650MOL0     H85770   1.241   6.356   5.460  2.4159  0.9792  1.2467
  650MOL0     H85771   1.275   6.189   5.483  2.0654  3.1233 -4.6966
  650MOL0     H85772   1.269   6.227   5.735 -2.1906 -0.3368 -1.5751
  650MOL0     H85773   1.397   6.304   5.648  0.0192  0.7803  1.9059
  650MOL0     H85774   1.150   6.437   5.778  0.3041  1.0633  2.5215
  650MOL0     H85775   1.240   6.514   5.647 -1.0652 -0.3036  0.4802
  650MOL0     H85776   1.280   6.568   5.888  1.0414  1.9172 -1.9501
  650MOL0     H85777   1.428   6.546   5.793  1.7886 -3.0141 -0.2141
  650MOL0     H85778   1.330   6.305   5.934 -2.3973  1.6559 -0.5480
  650MOL0     H85779   1.493   6.360   5.893 -1.1501 -0.3722 -2.3424
  650MOL0     H85780   1.456   6.548   6.079  1.7113 -0.9050 -1.6126
  650MOL0     H85781   1.488   6.395   6.129 -1.1470  1.0136  2.2974
  650MOL0     H85782   1.283   5.880   5.745 -0.6332 -0.6114  1.7360
  650MOL0     H85783   1.271   5.647   5.811 -1.6972 -2.2948  2.9324
  650MOL0     H85784   1.067   5.328   5.950  0.8140  1.7603 -2.1931
  650MOL0     H85785   1.085   5.077   6.049 -0.3413 -3.9229 -0.3584
  650MOL0     H85786   2.892   4.741   6.111  2.5784  1.7496  1.8882
  650MOL0     H85787   3.099   4.846   6.087  0.6923  0.1969 -0.6427
  650MOL0     H85788   3.226   5.471   5.996 -0.9043  0.0320 -0.1023
  650MOL0     H85789   3.450   5.580   6.064 -0.5005 -0.3525 -0.2407
  650MOL0     H85790   3.652   5.423   6.354  0.9757 -1.6216 -2.4503
  650MOL0     H85791   3.568   5.565   6.306 -1.5462 -2.4423  1.3929
  650MOL0     H85792   3.765   5.640   6.411 -0.2820 -0.3192  0.8408
  650MOL0     H85793   3.876   5.527   6.310  1.0459  1.2159 -2.5704
  650MOL0     H85794   3.719   5.757   6.191  0.7744  2.1176  0.3919
  650MOL0     H85795   3.816   5.637   6.103  5.3069  2.7893 -0.6605
  650MOL0     H85796   3.924   5.865   6.125 -2.1222 -2.2570 -3.7682
  650MOL0     H85797   3.915   5.837   6.305  0.8989  1.6189 -0.4925
  650MOL0     H85798   4.273   5.689   6.243  0.4560  1.6017  0.4056
  650MOL0     H85799   3.611   5.204   6.165 -1.2288 -1.1935  4.0676
  650MOL0     H85800   3.400   5.089   6.111 -1.9212 -1.0375 -0.0317
  651MOL0     O85801  10.757   9.890   4.398 -0.0772 -0.2348 -0.0571
  651MOL0     C85802  10.694   9.808   4.463 -0.5369 -0.1381  0.5326
  651MOL0     O85803  10.610   9.717   4.417 -0.1871  0.3237 -0.7459
  651MOL0     C85804  10.602   9.684   4.279  1.4717 -0.3386 -0.2151
  651MOL0     C85805  10.553   9.787   4.195  0.1321  1.1314 -0.6731
  651MOL0     C85806  10.539   9.775   4.055 -0.4177 -0.3449 -0.1070
  651MOL0     C85807  10.566   9.649   3.997 -0.1902  0.1043 -0.4519
  651MOL0     O85808  10.541   9.614   3.866  0.0965  0.0923  0.0837
  651MOL0     C85809  10.669   9.607   3.792  0.4820 -0.4252  0.3595
  651MOL0     C85810  10.651   9.572   3.643 -0.2807  0.6019  0.5096
  651MOL0     C85811  10.594   9.428   3.633 -0.1692 -0.1860 -0.0306
  651MOL0     C85812  10.439   9.428   3.660  0.3647 -0.0895  0.5584
  651MOL0     C85813  10.370   9.318   3.584  0.0772  0.2547 -0.3802
  651MOL0     C85814  10.248   9.274   3.654 -0.0862 -0.0928 -0.5813
  651MOL0     C85815  10.194   9.141   3.612 -1.2359 -0.2575  0.3172
  651MOL0     C85816  10.266   9.046   3.703 -0.9422 -0.2069  1.1409
  651MOL0     N85817  10.294   8.920   3.631 -0.3146  0.4403  0.0155
  651MOL0     C85818  10.389   8.907   3.536  0.3136  1.1389 -0.1919
  651MOL0     C85819  10.367   8.775   3.492 -0.3297 -0.6919 -0.4344
  651MOL0     C85820  10.455   8.700   3.396 -0.0247  0.2827  0.6366
  651MOL0     C85821  10.583   8.658   3.467  0.4881 -0.5005  0.7887
  651MOL0     C85822  10.544   8.552   3.573 -0.6222 -0.4236 -0.4065
  651MOL0     C85823  10.680   8.496   3.614  0.1952  1.0997  0.0319
  651MOL0     O85824  10.754   8.583   3.702 -0.9781  0.4480 -1.5957
  651MOL0     C85825  10.864   8.648   3.646 -0.4728  0.5778 -0.6531
  651MOL0     C85826  10.930   8.648   3.520  0.3641  0.1944 -0.3224
  651MOL0     C85827  11.033   8.743   3.492  0.6049  0.4408  0.4791
  651MOL0     C85828  11.068   8.846   3.576  0.1744 -1.1074 -0.2458
  651MOL0     C85829  11.173   8.943   3.553 -0.6237  0.0736 -0.6031
  651MOL0     O85830  11.214   9.014   3.663 -0.6814  0.2446 -0.2852
  651MOL0     C85831  11.302   9.117   3.653  0.1505  0.4038 -0.1226
  651MOL0     C85832  11.363   9.156   3.773  0.0712 -0.6571 -0.2976
  651MOL0     C85833  11.422   9.281   3.779  0.6225  0.4114  0.2126
  651MOL0     C85834  11.439   9.359   3.664  0.9725 -0.3085 -0.2853
  651MOL0     O85835  11.498   9.479   3.664  0.4498 -0.6416 -0.8959
  651MOL0     C85836  11.460   9.565   3.774  0.2243  0.3898 -0.7330
  651MOL0     C85837  11.507   9.701   3.738  0.0654 -0.2949  1.1726
  651MOL0     C85838  11.469   9.817   3.839  0.2599 -1.1155  0.0740
  651MOL0     C85839  11.526   9.947   3.801  0.4734 -0.7437 -0.0976
  651MOL0     C85840  11.466   9.996   3.676  0.0483  0.0887 -0.0500
  651MOL0     C85841  11.497  10.141   3.651  0.6352 -0.6531 -0.1725
  651MOL0     C85842  11.637  10.152   3.599  0.4966  0.2933 -0.2030
  651MOL0     C85843  11.633  10.226   3.471  0.0554  0.1242  0.0365
  651MOL0    Cl85844  11.801  10.262   3.407 -0.0939 -0.3464 -0.3791
  651MOL0     C85845  11.389   9.312   3.544 -0.0187  0.3716  0.1525
  651MOL0     C85846  11.310   9.194   3.536 -0.0254 -0.3456  0.2943
  651MOL0     O85847  11.236   8.932   3.446 -0.3352  0.0538  0.5673
  651MOL0     C85848  10.994   8.853   3.701 -0.2206  0.0022  0.6045
  651MOL0     C85849  10.897   8.753   3.727 -0.1308  0.0253  0.6094
  651MOL0     N85850  10.262   8.722   3.560  0.2872 -0.4291 -0.8034
  651MOL0     N85851  10.231   8.801   3.649 -0.4573 -1.1930 -0.2307
  651MOL0     C85852  10.623   9.550   4.075 -0.3388 -1.0776 -1.0176
  651MOL0     C85853  10.641   9.564   4.210 -1.4076 -0.4633 -0.1498
  651MOL0     C85854  10.717   9.800   4.610  0.5856  0.3651 -1.0920
  651MOL0     C85855  10.673   9.695   4.681  0.4483 -0.1980  0.5556
  651MOL0     C85856  10.693   9.682   4.820  0.0505  0.1003 -0.7173
  651MOL0     C85857  10.779   9.769   4.885 -0.4107  0.0012 -0.2021
  651MOL0     O85858  10.806   9.743   5.024  1.1636 -0.4838 -0.1798
  651MOL0     C85859  10.907   9.809   5.094 -1.2811 -0.8598 -1.5363
  651MOL0     C85860  10.854   9.942   5.156 -0.1023  0.4839 -0.7793
  651MOL0     C85861  10.774   9.905   5.282  0.6881 -0.3098  1.1203
  651MOL0     C85862  10.642   9.835   5.257 -0.8454 -0.9064 -0.8293
  651MOL0     C85863  10.563   9.817   5.381 -0.7466 -0.1761  0.4583
  651MOL0     C85864  10.478   9.782   5.468  0.4658  0.6380  0.2232
  651MOL0     C85865  10.835   9.876   4.818 -0.5210  0.3687 -0.0632
  651MOL0     C85866  10.807   9.878   4.679 -0.9259  0.4923 -0.2738
  651MOL0     H85867  10.521   9.885   4.227 -2.1091  0.0527  0.6534
  651MOL0     H85868  10.513   9.856   3.989 -1.6007  0.8916  1.7766
  651MOL0     H85869  10.740   9.544   3.847 -0.7149 -1.6868  0.5237
  651MOL0     H85870  10.706   9.710   3.793 -0.1646 -0.0580 -2.9124
  651MOL0     H85871  10.747   9.569   3.590 -1.0795 -0.8770 -0.9659
  651MOL0     H85872  10.583   9.642   3.594  1.1362  2.3401  0.9498
  651MOL0     H85873  10.646   9.363   3.703  1.1464  0.7012 -0.1439
  651MOL0     H85874  10.610   9.390   3.531 -0.4278 -1.5626  0.4245
  651MOL0     H85875  10.423   9.408   3.766 -0.2777  0.2101  0.5260
  651MOL0     H85876  10.385   9.520   3.637  0.9465  0.0775 -0.1832
  651MOL0     H85877  10.436   9.231   3.578  0.5627  0.6448 -5.4075
  651MOL0     H85878  10.357   9.341   3.478  0.1812 -2.3191 -1.0226
  651MOL0     H85879  10.178   9.356   3.634  0.3237  0.8665  1.6330
  651MOL0     H85880  10.250   9.279   3.763 -0.6100  0.8762 -0.6013
  651MOL0     H85881  10.086   9.150   3.632 -0.8087  0.3244  2.7731
  651MOL0     H85882  10.213   9.125   3.506 -4.7167  0.3630 -0.5431
  651MOL0     H85883  10.195   9.020   3.782 -2.5586  1.7290  0.4271
  651MOL0     H85884  10.359   9.083   3.746  0.2153  0.0074 -1.3320
  651MOL0     H85885  10.464   8.977   3.501  2.4124  0.1557  2.0643
  651MOL0     H85886  10.475   8.763   3.309 -0.6124 -0.6469 -0.1951
  651MOL0     H85887  10.398   8.612   3.366  0.7731 -0.3264  0.8732
  651MOL0     H85888  10.610   8.747   3.525 -3.8212  0.2082  2.0992
  651MOL0     H85889  10.659   8.620   3.397  0.4953 -1.7344  1.4368
  651MOL0     H85890  10.490   8.600   3.655 -0.4255  1.2390 -1.2183
  651MOL0     H85891  10.480   8.471   3.537 -2.4298  1.1528 -0.9048
  651MOL0     H85892  10.740   8.467   3.528 -1.3959 -0.2260 -0.6704
  651MOL0     H85893  10.642   8.407   3.664  1.9769  0.2190 -0.1004
  651MOL0     H85894  10.896   8.581   3.442 -1.4859 -0.5496  1.0286
  651MOL0     H85895  11.079   8.748   3.394  4.0090  0.8893  1.9379
  651MOL0     H85896  11.368   9.095   3.863 -0.2843  0.6106  0.5949
  651MOL0     H85897  11.466   9.325   3.868  1.6999 -2.0443  0.9538
  651MOL0     H85898  11.502   9.535   3.870 -1.0569 -0.2021 -0.3332
  651MOL0     H85899  11.352   9.565   3.793  0.5902 -0.1715  1.7385
  651MOL0     H85900  11.462   9.718   3.640  1.6192  1.4475  0.7091
  651MOL0     H85901  11.615   9.714   3.735  0.0291 -0.1580 -1.1514
  651MOL0     H85902  11.511   9.777   3.932 -0.8010 -0.7138  0.7404
  651MOL0     H85903  11.360   9.819   3.842  0.2823  0.3328  0.7326
  651MOL0     H85904  11.489  10.015   3.878 -1.5723  0.0373 -1.6767
  651MOL0     H85905  11.635   9.939   3.807  0.3453 -3.5242 -0.0940
  651MOL0     H85906  11.361   9.968   3.672  0.3004 -0.9899  0.3746
  651MOL0     H85907  11.504   9.933   3.595  2.0576 -1.1033  1.6853
  651MOL0     H85908  11.495  10.202   3.742  1.0321  0.0693 -0.6410
  651MOL0     H85909  11.413  10.164   3.584 -0.8814 -3.2543  0.6733
  651MOL0     H85910  11.695  10.211   3.671 -1.9135  1.0698  1.2199
  651MOL0     H85911  11.685  10.054   3.586 -1.7920 -1.2180  1.6514
  651MOL0     H85912  11.581  10.321   3.482  1.1784  0.7673  0.0032
  651MOL0     H85913  11.579  10.171   3.394  0.7286  1.4654 -1.4569
  651MOL0     H85914  11.385   9.367   3.451 -3.2466  0.0387 -0.0403
  651MOL0     H85915  11.266   9.174   3.439  2.2913  4.1016 -1.9795
  651MOL0     H85916  11.020   8.940   3.761  4.0161  0.1602 -1.1370
  651MOL0     H85917  10.853   8.754   3.826 -1.7687  1.9639 -0.0461
  651MOL0     H85918  10.663   9.463   4.022 -0.0865 -0.2304 -2.2629
  651MOL0     H85919  10.677   9.484   4.274  3.8132  0.2283 -1.7067
  651MOL0     H85920  10.609   9.622   4.634 -0.6464  1.7519 -1.1433
  651MOL0     H85921  10.653   9.605   4.885 -1.8011  2.2360  0.8055
  651MOL0     H85922  11.001   9.818   5.039  1.6940 -4.4942  2.2896
  651MOL0     H85923  10.930   9.745   5.179  2.0071  2.1390  0.0561
  651MOL0     H85924  10.934  10.010   5.184 -2.1684  1.8146  2.4308
  651MOL0     H85925  10.799  10.006   5.087  0.9496  0.5969 -1.5319
  651MOL0     H85926  10.776   9.993   5.347 -1.4113  3.2758 -3.1043
  651MOL0     H85927  10.831   9.832   5.339  2.5383  0.3401  0.1772
  651MOL0     H85928  10.584   9.887   5.180 -0.7499  1.8215  0.8082
  651MOL0     H85929  10.675   9.738   5.220 -2.5099 -2.1786  0.8452
  651MOL0     H85930  10.413   9.739   5.542 -0.7930  0.5029 -0.9184
  651MOL0     H85931  10.909   9.937   4.870 -1.4135 -1.4126  3.6354
  651MOL0     H85932  10.860   9.952   4.619  1.2162  2.1733  3.3530
  652MOL0     O85933   9.540  10.917   8.835 -0.3730 -0.0418  0.7304
  652MOL0     C85934   9.604  10.920   8.731  0.7270  0.2734 -0.1416
  652MOL0     O85935   9.650  11.034   8.673  0.4730 -0.1177 -0.2117
  652MOL0     C85936   9.612  11.153   8.719 -0.7991  0.0319 -0.7569
  652MOL0     C85937   9.705  11.256   8.726  0.8959 -0.5884 -0.1566
  652MOL0     C85938   9.674  11.386   8.740  0.7119  0.7821 -0.0624
  652MOL0     C85939   9.536  11.426   8.764 -0.9758  0.0675  0.2761
  652MOL0     O85940   9.503  11.556   8.772  0.3441 -0.3710  0.6613
  652MOL0     C85941   9.401  11.612   8.856  1.1271  0.8210 -0.0057
  652MOL0     C85942   9.297  11.667   8.753  0.7040 -0.7254 -0.0328
  652MOL0     C85943   9.151  11.664   8.804  0.2814  0.0772 -0.8084
  652MOL0     C85944   9.130  11.780   8.899  0.3397 -0.0471 -0.5564
  652MOL0     C85945   8.984  11.770   8.950  0.9654 -0.7804 -0.4963
  652MOL0     C85946   8.958  11.905   9.028 -0.7957 -0.1743  0.2830
  652MOL0     C85947   9.004  11.887   9.167  0.9619 -0.7216  0.0721
  652MOL0     C85948   8.994  12.024   9.239  0.8834 -0.2520  0.6757
  652MOL0     N85949   9.016  12.020   9.380  0.3606 -0.6005 -0.8392
  652MOL0     C85950   8.950  11.937   9.469  0.8864 -0.2483 -0.3400
  652MOL0     C85951   8.980  11.990   9.592 -0.4714  0.1575 -0.0920
  652MOL0     C85952   8.957  11.918   9.723 -0.7095  0.1352  0.0211
  652MOL0     C85953   8.811  11.940   9.762 -0.4388  0.2005 -0.2860
  652MOL0     C85954   8.760  11.855   9.877  0.7598 -0.2265  0.3900
  652MOL0     C85955   8.616  11.874   9.923  1.0687  0.3303  0.1716
  652MOL0     O85956   8.535  11.976   9.862  0.3885  0.0888  0.4533
  652MOL0     C85957   8.420  11.935   9.815  0.8009  0.1463 -0.4349
  652MOL0     C85958   8.307  11.920   9.898 -0.6565 -0.9254  0.5879
  652MOL0     C85959   8.178  11.894   9.850  0.9698 -0.4507  0.4912
  652MOL0     C85960   8.155  11.897   9.716  0.2349  0.3091  0.3569
  652MOL0     C85961   8.020  11.902   9.665  0.3855 -0.3128  0.2753
  652MOL0     O85962   7.924  11.864   9.747  0.1584  0.0936 -0.2810
  652MOL0     C85963   7.796  11.875   9.694  0.3484 -0.3067  0.1072
  652MOL0     C85964   7.723  11.975   9.751  0.7170 -1.2769  0.0671
  652MOL0     C85965   7.577  11.985   9.736 -1.0692  0.5809  0.1423
  652MOL0     C85966   7.520  11.896   9.651 -0.1347 -0.8423  0.0479
  652MOL0     O85967   7.382  11.907   9.636  0.0132  0.1411 -0.2177
  652MOL0     C85968   7.317  12.020   9.595 -0.0077 -0.0340  0.4327
  652MOL0     C85969   7.208  12.009   9.483  0.0422 -0.2439 -0.3591
  652MOL0     C85970   7.088  11.942   9.543 -1.0731 -0.1927 -0.8985
  652MOL0     C85971   6.977  11.951   9.433  0.1284  0.5137 -0.7311
  652MOL0     C85972   6.843  11.882   9.479 -0.0345  0.8675 -0.2599
  652MOL0     C85973   6.791  11.787   9.371 -0.8446 -1.2275 -0.2383
  652MOL0     C85974   6.658  11.723   9.397  0.1677 -0.4930  0.1520
  652MOL0     C85975   6.613  11.658   9.263  0.1116 -1.3694  0.0141
  652MOL0    Cl85976   6.440  11.589   9.284 -0.7021 -0.1349  0.0267
  652MOL0     C85977   7.594  11.791   9.589  0.6489  0.2308 -0.0408
  652MOL0     C85978   7.727  11.780   9.613 -0.1891 -0.2345 -0.3264
  652MOL0     O85979   8.001  11.932   9.550 -0.4903 -0.0302  0.2394
  652MOL0     C85980   8.264  11.900   9.634  0.0499 -0.4681  0.0847
  652MOL0     C85981   8.397  11.920   9.677 -0.8971  0.2307 -1.3576
  652MOL0     N85982   9.061  12.099   9.584 -0.2452  0.1988 -0.2150
  652MOL0     N85983   9.083  12.117   9.455 -0.2230 -0.7930 -0.0055
  652MOL0     C85984   9.432  11.328   8.749  0.5059  0.5180  0.5850
  652MOL0     C85985   9.472  11.192   8.728  0.4037  0.6925  0.0606
  652MOL0     C85986   9.638  10.785   8.667 -0.4076  0.6857  1.0622
  652MOL0     C85987   9.605  10.660   8.725 -0.3288 -1.0639  0.0221
  652MOL0     C85988   9.625  10.538   8.653 -0.1416 -0.0708 -0.1275
  652MOL0     C85989   9.700  10.535   8.536  0.7873 -0.1379  0.0724
  652MOL0     O85990   9.725  10.413   8.483 -0.3934 -0.1826 -0.9313
  652MOL0     C85991   9.797  10.407   8.368 -0.3376  0.3808  0.0444
  652MOL0     C85992   9.854  10.275   8.348  0.0345  0.1382 -0.5058
  652MOL0     C85993   9.948  10.265   8.469  0.6502 -0.4695 -0.0369
  652MOL0     C85994  10.064  10.166   8.442 -0.3788  0.3353  0.3192
  652MOL0     C85995  10.074  10.078   8.560 -1.0677 -1.0271 -1.1015
  652MOL0     C85996  10.112   9.991   8.640  0.4610  0.1951  0.5296
  652MOL0     C85997   9.732  10.660   8.482  0.3628 -0.8218 -0.3427
  652MOL0     C85998   9.709  10.777   8.549  0.1039 -0.8232 -0.3889
  652MOL0     H85999   9.812  11.239   8.713  1.1530 -2.0464  2.8169
  652MOL0     H86000   9.757  11.456   8.737  3.0442 -1.6883  1.3607
  652MOL0     H86001   9.440  11.697   8.913 -0.2741  3.4492 -2.7041
  652MOL0     H86002   9.379  11.538   8.933  4.7025 -2.0310 -1.4394
  652MOL0     H86003   9.284  11.615   8.658 -0.1530  1.8863 -1.4354
  652MOL0     H86004   9.327  11.770   8.735 -0.3912 -0.6695 -1.7742
  652MOL0     H86005   9.137  11.569   8.856  2.2392  0.5780  0.7416
  652MOL0     H86006   9.073  11.691   8.731 -2.5983  0.8821  2.3005
  652MOL0     H86007   9.193  11.772   8.987  0.1744  0.3563 -0.4026
  652MOL0     H86008   9.139  11.875   8.846  0.4685 -0.0778 -0.5893
  652MOL0     H86009   8.955  11.682   9.008 -1.1244  1.3338  1.9574
  652MOL0     H86010   8.919  11.770   8.862 -1.5115 -3.1531  1.1267
  652MOL0     H86011   8.853  11.936   9.032 -1.0608 -0.7606 -1.5850
  652MOL0     H86012   9.012  11.984   8.976 -0.4403 -1.3342 -1.1579
  652MOL0     H86013   8.946  11.810   9.219 -0.7252  1.5281  1.7233
  652MOL0     H86014   9.110  11.860   9.170  1.4662  0.9959 -0.9051
  652MOL0     H86015   8.892  12.057   9.218  0.7122 -0.3021  1.3995
  652MOL0     H86016   9.057  12.096   9.186  0.5366 -1.1084 -0.9616
  652MOL0     H86017   8.886  11.852   9.451 -0.0795  0.4617 -0.3401
  652MOL0     H86018   9.026  11.956   9.799 -1.6705  1.6194  0.2027
  652MOL0     H86019   8.982  11.812   9.711 -4.7137 -0.8200 -1.5203
  652MOL0     H86020   8.749  11.912   9.676  2.4709 -0.0946 -2.4356
  652MOL0     H86021   8.789  12.046   9.778 -3.0984  0.2415 -3.2265
  652MOL0     H86022   8.781  11.748   9.875 -2.9923 -1.1062  0.2738
  652MOL0     H86023   8.823  11.894   9.958  1.3131 -0.5957  0.1399
  652MOL0     H86024   8.628  11.890  10.030 -2.8318 -2.1797  1.2137
  652MOL0     H86025   8.569  11.775   9.920  0.2601  0.6500  1.6325
  652MOL0     H86026   8.327  11.934  10.004 -2.0241 -0.5492  0.8143
  652MOL0     H86027   8.096  11.903   9.921  0.7720  0.2757  0.1797
  652MOL0     H86028   7.769  12.042   9.824 -1.9252  3.3843 -2.0708
  652MOL0     H86029   7.526  12.062   9.793  2.0217  1.9374  1.2959
  652MOL0     H86030   7.391  12.096   9.564 -0.2385 -0.5803 -1.5936
  652MOL0     H86031   7.268  12.070   9.679 -1.4968  1.4863 -1.2441
  652MOL0     H86032   7.241  11.955   9.394  1.7783  0.4404 -0.1720
  652MOL0     H86033   7.167  12.103   9.444 -4.0326 -1.8293 -0.3226
  652MOL0     H86034   7.053  12.007   9.624 -4.0039 -0.5501 -1.7516
  652MOL0     H86035   7.117  11.843   9.578  1.1425  1.2733  1.8252
  652MOL0     H86036   6.951  12.056   9.417 -2.0604  0.6132  2.5322
  652MOL0     H86037   7.016  11.905   9.341  1.1164 -0.4089  0.1219
  652MOL0     H86038   6.765  11.950   9.513 -0.0125 -0.4774  2.8416
  652MOL0     H86039   6.865  11.824   9.569 -2.1656 -0.1564 -0.3494
  652MOL0     H86040   6.864  11.706   9.363  0.5771 -0.1224  0.9937
  652MOL0     H86041   6.786  11.837   9.274 -0.4914 -0.9547 -0.1187
  652MOL0     H86042   6.660  11.645   9.473 -1.3317 -1.0349 -0.3176
  652MOL0     H86043   6.592  11.808   9.419 -0.7459 -1.2638  0.4714
  652MOL0     H86044   6.674  11.574   9.230 -0.9757 -1.6513 -1.3937
  652MOL0     H86045   6.607  11.729   9.180  1.4690  0.5008  1.4294
  652MOL0     H86046   7.542  11.727   9.519  1.6410 -0.8194  0.1542
  652MOL0     H86047   7.780  11.691   9.580 -2.7144 -1.8239 -0.3642
  652MOL0     H86048   8.246  11.906   9.527  0.9669 -2.0869 -0.1892
  652MOL0     H86049   8.473  11.924   9.600 -0.1422 -1.4552 -0.7461
  652MOL0     H86050   9.327  11.354   8.752  0.4643  0.4545 -0.0957
  652MOL0     H86051   9.399  11.117   8.700  0.7193  0.2701  0.3655
  652MOL0     H86052   9.556  10.665   8.822 -4.8076  5.3873 -1.8736
  652MOL0     H86053   9.602  10.447   8.708  0.1011  0.8991  1.6803
  652MOL0     H86054   9.878  10.478   8.353  2.4574 -2.5091  0.3388
  652MOL0     H86055   9.739  10.434   8.280 -0.2564 -1.0709 -0.4754
  652MOL0     H86056   9.783  10.192   8.345  0.2577 -0.3116  2.6266
  652MOL0     H86057   9.914  10.275   8.256  1.9989 -1.1216  0.6893
  652MOL0     H86058   9.893  10.231   8.557  3.2519 -1.1675  1.4071
  652MOL0     H86059   9.988  10.363   8.499 -3.3540  1.4644 -0.2475
  652MOL0     H86060  10.044  10.102   8.356  0.4207 -0.8481  0.9752
  652MOL0     H86061  10.149  10.228   8.414 -0.0588  0.5481  1.6914
  652MOL0     H86062  10.133   9.919   8.716  0.3866  0.2943  0.6453
  652MOL0     H86063   9.785  10.664   8.388  1.0676 -1.5303  0.0083
  652MOL0     H86064   9.739  10.869   8.501  0.2652  0.1279  1.4477
  653MOL0     O86065   1.417   1.206   8.620  0.1737  0.3234  0.3373
  653MOL0     C86066   1.403   1.247   8.731 -1.2126  0.4044 -0.2273
  653MOL0     O86067   1.362   1.179   8.838  0.0387 -0.5354 -0.3041
  653MOL0     C86068   1.357   1.040   8.844  0.9217 -0.8640  0.4306
  653MOL0     C86069   1.248   0.966   8.880 -0.0235  0.0419  0.0470
  653MOL0     C86070   1.264   0.829   8.884 -0.2159  0.1078  0.3439
  653MOL0     C86071   1.382   0.758   8.847  0.7900 -0.1815 -0.1943
  653MOL0     O86072   1.402   0.623   8.838 -0.5834  0.2807 -0.4986
  653MOL0     C86073   1.442   0.564   8.963 -0.7258  0.7292 -0.0445
  653MOL0     C86074   1.488   0.420   8.953 -0.0531 -0.6326  0.1337
  653MOL0     C86075   1.364   0.345   8.906  0.1179 -0.2323  0.8445
  653MOL0     C86076   1.411   0.217   8.820  0.1327 -0.2858  0.1608
  653MOL0     C86077   1.298   0.129   8.753  0.3898 -0.1897 -0.2017
  653MOL0     C86078   1.234   0.048   8.869 -0.2778  0.2122  0.5957
  653MOL0     C86079   1.158  -0.075   8.802  0.9178  0.4172 -0.8810
  653MOL0     C86080   1.180  -0.209   8.872  0.6293  1.1942 -0.0251
  653MOL0     N86081   1.097  -0.319   8.817 -0.6110 -0.4081  0.2343
  653MOL0     C86082   1.090  -0.361   8.686 -0.1798 -0.2417  0.2482
  653MOL0     C86083   0.992  -0.451   8.690  0.2168  0.4366  0.1099
  653MOL0     C86084   0.942  -0.522   8.569 -1.2634  0.1888  0.0153
  653MOL0     C86085   1.038  -0.614   8.488 -0.6555 -1.2355 -0.2599
  653MOL0     C86086   0.985  -0.666   8.351  0.1515  0.0623  1.1018
  653MOL0     C86087   0.860  -0.761   8.368  0.2632  0.3165  0.0745
  653MOL0     O86088   0.842  -0.825   8.242  0.6530 -0.0829 -0.2384
  653MOL0     C86089   0.851  -0.963   8.241 -0.0389  1.0219  0.5595
  653MOL0     C86090   0.741  -1.039   8.193 -0.4750 -0.4417 -0.2332
  653MOL0     C86091   0.727  -1.179   8.204 -0.2428 -0.4445 -0.7250
  653MOL0     C86092   0.833  -1.252   8.262 -0.3640  0.9219  0.1223
  653MOL0     C86093   0.836  -1.396   8.276  0.9874  0.3335  1.7763
  653MOL0     O86094   0.710  -1.450   8.283  0.2304  0.4996  0.0723
  653MOL0     C86095   0.700  -1.588   8.309 -0.2702 -0.7017  0.0760
  653MOL0     C86096   0.692  -1.632   8.436 -0.0674 -0.2556  0.9332
  653MOL0     C86097   0.667  -1.768   8.468 -0.4743  0.5991 -0.0522
  653MOL0     C86098   0.642  -1.861   8.356  0.0048  1.0569 -1.2105
  653MOL0     O86099   0.613  -1.993   8.392 -0.1827  0.4382 -0.0103
  653MOL0     C86100   0.678  -2.100   8.324  0.1279  0.2040 -0.2576
  653MOL0     C86101   0.686  -2.205   8.426 -0.0741  0.7333 -0.7858
  653MOL0     C86102   0.696  -2.348   8.362 -0.2574  0.5757 -0.1750
  653MOL0     C86103   0.690  -2.463   8.473  0.7576 -0.4680 -0.7023
  653MOL0     C86104   0.685  -2.601   8.416 -0.1403  0.7521  0.3434
  653MOL0     C86105   0.795  -2.640   8.312  0.5782  0.1736 -0.9072
  653MOL0     C86106   0.767  -2.787   8.278 -0.3864  0.1291  0.6526
  653MOL0     C86107   0.885  -2.873   8.228 -0.3794  0.4547  0.1204
  653MOL0    Cl86108   1.020  -2.856   8.343 -0.1139 -0.0338 -0.0600
  653MOL0     C86109   0.660  -1.813   8.222 -0.7183 -0.2620  0.1957
  653MOL0     C86110   0.687  -1.677   8.206 -0.4900 -0.2476 -0.0053
  653MOL0     O86111   0.937  -1.454   8.283  0.2264  0.1850  1.3326
  653MOL0     C86112   0.944  -1.177   8.305 -0.5300 -0.0966 -0.4032
  653MOL0     C86113   0.955  -1.037   8.305 -0.8267  0.3425  0.4094
  653MOL0     N86114   0.935  -0.467   8.814  0.3619  0.1075  0.4562
  653MOL0     N86115   1.000  -0.387   8.891 -0.8548  0.0906 -0.3374
  653MOL0     C86116   1.491   0.838   8.819  0.4936 -0.2047 -0.2611
  653MOL0     C86117   1.482   0.984   8.825 -0.2618 -0.5027 -0.3567
  653MOL0     C86118   1.445   1.384   8.762 -0.9276  0.1842 -0.9987
  653MOL0     C86119   1.525   1.460   8.670  0.0439 -0.4431  0.0061
  653MOL0     C86120   1.551   1.598   8.686 -0.2090  0.3649  0.3305
  653MOL0     C86121   1.515   1.660   8.799 -0.3048 -0.4779 -0.0301
  653MOL0     O86122   1.562   1.791   8.813 -0.3814 -0.0504  0.2528
  653MOL0     C86123   1.541   1.853   8.946 -0.3711 -0.9493  0.2093
  653MOL0     C86124   1.626   1.978   8.939 -0.5237 -0.0300  0.5177
  653MOL0     C86125   1.591   2.056   8.814  0.6086  0.6969  0.2634
  653MOL0     C86126   1.664   2.187   8.815  0.9108  0.1608  0.7782
  653MOL0     C86127   1.684   2.234   8.684  0.0939  0.5454  0.2627
  653MOL0     C86128   1.731   2.279   8.578 -0.0240  0.0440 -0.6959
  653MOL0     C86129   1.435   1.588   8.895  0.0798 -1.0252  0.1252
  653MOL0     C86130   1.391   1.459   8.873 -0.0404  0.3310  0.4801
  653MOL0     H86131   1.156   1.007   8.920 -1.4323 -1.1289 -1.8490
  653MOL0     H86132   1.178   0.765   8.901  0.0031 -0.9074 -1.9388
  653MOL0     H86133   1.360   0.571   9.035  0.6330  2.6355  1.4645
  653MOL0     H86134   1.518   0.629   9.009  0.8671 -0.9416 -0.1731
  653MOL0     H86135   1.526   0.385   9.049  0.0382 -1.6801 -0.2771
  653MOL0     H86136   1.569   0.414   8.880 -1.9095 -2.1740 -1.9467
  653MOL0     H86137   1.299   0.410   8.846  1.0092 -0.9218 -0.9333
  653MOL0     H86138   1.308   0.313   8.994  1.7051  2.8768  3.1590
  653MOL0     H86139   1.472   0.234   8.731  0.5514 -2.3978 -0.0126
  653MOL0     H86140   1.470   0.152   8.885  0.1962 -1.3344 -0.9142
  653MOL0     H86141   1.341   0.065   8.675  1.0734 -1.2173  0.9629
  653MOL0     H86142   1.224   0.191   8.702  0.4237 -0.9525 -1.1987
  653MOL0     H86143   1.167   0.103   8.936  2.0628  3.3264  0.6332
  653MOL0     H86144   1.312   0.016   8.939  0.2883  0.8644  0.2765
  653MOL0     H86145   1.050  -0.055   8.802  0.3796 -2.2034 -1.0433
  653MOL0     H86146   1.190  -0.100   8.701  1.5415 -2.4772 -0.0425
  653MOL0     H86147   1.146  -0.191   8.974 -0.8753  0.7389 -0.4238
  653MOL0     H86148   1.285  -0.237   8.886  0.5012  0.3403 -0.7183
  653MOL0     H86149   1.137  -0.315   8.600 -0.4897 -0.3182  0.0351
  653MOL0     H86150   0.894  -0.448   8.504 -1.9137 -0.1293  0.1168
  653MOL0     H86151   0.861  -0.589   8.600 -0.5275 -0.5157  0.4321
  653MOL0     H86152   1.081  -0.693   8.550  2.2807  1.4348  1.3729
  653MOL0     H86153   1.120  -0.545   8.465 -0.9534 -0.4816  0.8834
  653MOL0     H86154   0.959  -0.587   8.280 -0.2078  2.7834  4.0254
  653MOL0     H86155   1.071  -0.721   8.310  0.2461  0.9065  0.1471
  653MOL0     H86156   0.769  -0.709   8.397 -1.0196 -1.1166 -1.2079
  653MOL0     H86157   0.885  -0.838   8.442 -0.2779  1.3486  1.3670
  653MOL0     H86158   0.658  -0.981   8.153  1.6389  2.7378 -0.3595
  653MOL0     H86159   0.635  -1.234   8.184 -1.0866  0.7459 -0.2531
  653MOL0     H86160   0.703  -1.564   8.520 -0.6678 -1.2496  1.8360
  653MOL0     H86161   0.671  -1.795   8.573 -1.7194 -1.8988 -0.5730
  653MOL0     H86162   0.776  -2.069   8.287  0.3048  1.0807  0.8982
  653MOL0     H86163   0.615  -2.149   8.249 -1.3295 -2.0890  2.2792
  653MOL0     H86164   0.599  -2.200   8.493 -2.1938  2.0217 -3.4647
  653MOL0     H86165   0.772  -2.206   8.494 -0.4200 -2.3504 -0.2341
  653MOL0     H86166   0.795  -2.355   8.316 -0.4535 -1.2410 -0.3695
  653MOL0     H86167   0.628  -2.361   8.278  0.5350 -0.5370 -0.6629
  653MOL0     H86168   0.770  -2.448   8.546  2.2142 -3.1842 -1.5902
  653MOL0     H86169   0.597  -2.447   8.529  2.3577  3.6420  1.1576
  653MOL0     H86170   0.589  -2.616   8.367 -0.8372  1.1387  1.5313
  653MOL0     H86171   0.691  -2.676   8.496  0.1722  0.3982 -0.0106
  653MOL0     H86172   0.892  -2.625   8.359 -0.4168 -0.8970  1.6396
  653MOL0     H86173   0.793  -2.582   8.219  1.3866 -2.1924 -2.5010
  653MOL0     H86174   0.727  -2.854   8.355 -0.9697 -1.5760 -1.0347
  653MOL0     H86175   0.683  -2.791   8.208 -1.7203  1.0660  2.1391
  653MOL0     H86176   0.912  -2.849   8.125  3.4050  1.0354  1.1157
  653MOL0     H86177   0.861  -2.980   8.231 -1.2450  0.5434 -2.1162
  653MOL0     H86178   0.663  -1.889   8.145  3.9081 -0.5120  0.3597
  653MOL0     H86179   0.705  -1.648   8.103 -4.7204 -2.2357 -1.5609
  653MOL0     H86180   1.026  -1.227   8.356 -1.7823  1.8985  4.1069
  653MOL0     H86181   1.042  -0.981   8.338 -0.9725  1.8932 -1.6547
  653MOL0     H86182   1.580   0.777   8.809 -0.1408 -1.5545  1.6618
  653MOL0     H86183   1.568   1.045   8.800  0.6932 -1.0568  1.4078
  653MOL0     H86184   1.573   1.422   8.580  4.8030 -0.1810  2.1434
  653MOL0     H86185   1.604   1.631   8.597  1.4607 -3.5674 -0.3630
  653MOL0     H86186   1.572   1.794   9.033  1.8692  0.1129  0.1928
  653MOL0     H86187   1.441   1.893   8.962  1.3243  3.1967  1.7703
  653MOL0     H86188   1.605   2.023   9.037  0.5312 -0.6579  1.0484
  653MOL0     H86189   1.729   1.942   8.938 -0.7352 -0.8219  2.4283
  653MOL0     H86190   1.483   2.067   8.802  0.6498  0.4587 -0.3559
  653MOL0     H86191   1.627   2.004   8.725 -2.1903 -0.7763 -0.1240
  653MOL0     H86192   1.595   2.256   8.866 -3.0657 -3.4595  0.9251
  653MOL0     H86193   1.755   2.178   8.876  0.5951 -1.7991  1.0470
  653MOL0     H86194   1.775   2.344   8.506  0.8142 -0.2164 -0.4221
  653MOL0     H86195   1.390   1.648   8.974  2.3516 -1.7504  2.0784
  653MOL0     H86196   1.325   1.415   8.947  1.0407  1.2268  2.0403
  654MOL0     O86197   2.324   4.433   1.377  0.1003  0.1010 -0.2324
  654MOL0     C86198   2.242   4.507   1.437 -0.1089  0.0097  0.9835
  654MOL0     O86199   2.124   4.467   1.491  0.1620  0.2697 -0.1735
  654MOL0     C86200   2.100   4.332   1.521 -0.4851  0.1065 -0.4512
  654MOL0     C86201   1.980   4.271   1.490 -0.0838  0.2473  0.7627
  654MOL0     C86202   1.948   4.139   1.541  0.1110 -1.1443  0.4518
  654MOL0     C86203   2.044   4.071   1.607 -1.2214  0.2393 -0.5647
  654MOL0     O86204   2.021   3.939   1.644 -0.3922 -0.2798 -0.1163
  654MOL0     C86205   1.935   3.858   1.564 -0.3842  0.2553 -0.5543
  654MOL0     C86206   1.990   3.714   1.556 -0.0118 -0.6012 -0.2726
  654MOL0     C86207   2.136   3.715   1.490  0.4891  0.3552  0.5315
  654MOL0     C86208   2.176   3.569   1.486  0.5038 -0.3354 -0.4705
  654MOL0     C86209   2.099   3.467   1.401  0.1435 -1.1510  1.0899
  654MOL0     C86210   2.118   3.504   1.251 -0.6434 -0.4387  0.2119
  654MOL0     C86211   2.054   3.392   1.174 -0.6593  0.0545 -0.4761
  654MOL0     C86212   2.084   3.397   1.016  0.4468 -0.0899  0.1024
  654MOL0     N86213   2.164   3.512   0.977  0.0103  0.0978 -0.3666
  654MOL0     C86214   2.295   3.520   0.942  0.3792 -0.1524 -0.0448
  654MOL0     C86215   2.314   3.643   0.905 -0.4116 -0.0311 -0.2217
  654MOL0     C86216   2.446   3.707   0.854  0.5825 -0.1991  0.5265
  654MOL0     C86217   2.516   3.789   0.968 -0.1441 -1.2973  0.0220
  654MOL0     C86218   2.578   3.914   0.917 -0.4695  0.5308 -0.0620
  654MOL0     C86219   2.665   3.984   1.025 -0.3815 -0.7559 -0.2916
  654MOL0     O86220   2.717   4.112   0.989  0.0401  0.1695  0.2922
  654MOL0     C86221   2.821   4.173   1.058 -0.0020  0.7394 -0.4405
  654MOL0     C86222   2.928   4.234   0.986  0.2624 -0.1634  0.5463
  654MOL0     C86223   3.042   4.278   1.051  0.3813 -0.0967  0.1339
  654MOL0     C86224   3.049   4.257   1.188 -0.1772 -0.3156 -0.3792
  654MOL0     C86225   3.169   4.319   1.250  0.2947  0.2723  0.0365
  654MOL0     O86226   3.254   4.393   1.155  0.8725 -0.1729  0.2559
  654MOL0     C86227   3.367   4.456   1.196  0.5407  0.4112 -0.0535
  654MOL0     C86228   3.394   4.498   1.323  0.0400  0.5947  0.4902
  654MOL0     C86229   3.512   4.582   1.335  0.2889 -0.0182 -0.2058
  654MOL0     C86230   3.582   4.615   1.220  0.2027 -0.1558 -0.5649
  654MOL0     O86231   3.705   4.678   1.231  0.8356  0.4529 -0.1686
  654MOL0     C86232   3.776   4.675   1.346 -0.7529 -0.1477  0.1003
  654MOL0     C86233   3.922   4.674   1.301  0.0364  0.6340  0.5116
  654MOL0     C86234   4.012   4.690   1.431  0.1395  0.5528  0.3963
  654MOL0     C86235   4.160   4.669   1.381  0.3675  0.0577  0.1962
  654MOL0     C86236   4.265   4.733   1.462  0.0102 -0.9750  0.3321
  654MOL0     C86237   4.256   4.687   1.608  0.4964  0.2082  0.0144
  654MOL0     C86238   4.364   4.729   1.708 -0.4350 -0.2455  0.0810
  654MOL0     C86239   4.488   4.788   1.645  0.5193  0.4368  0.7373
  654MOL0    Cl86240   4.576   4.649   1.564 -0.1341 -0.2466 -0.1359
  654MOL0     C86241   3.549   4.577   1.096 -0.1286  0.7196  0.8465
  654MOL0     C86242   3.432   4.505   1.083 -1.1051  0.7532 -0.5946
  654MOL0     O86243   3.180   4.304   1.367  0.5647 -0.1443 -0.4843
  654MOL0     C86244   2.946   4.200   1.258  0.2893 -0.1627 -0.4064
  654MOL0     C86245   2.829   4.154   1.196  0.2974 -0.4113 -0.3350
  654MOL0     N86246   2.192   3.718   0.905  0.2112  1.0282  0.0652
  654MOL0     N86247   2.104   3.625   0.934  0.7724  0.3739  0.1728
  654MOL0     C86248   2.171   4.121   1.632 -0.2585 -1.0653 -0.3610
  654MOL0     C86249   2.194   4.258   1.597 -0.1288  0.1855  0.8976
  654MOL0     C86250   2.288   4.636   1.464  0.9037  0.1917  0.9964
  654MOL0     C86251   2.421   4.677   1.445 -1.0506  0.0208 -0.3427
  654MOL0     C86252   2.457   4.805   1.479  0.7487 -0.6837 -0.7426
  654MOL0     C86253   2.360   4.900   1.518  0.0851 -0.1839  0.4483
  654MOL0     O86254   2.384   5.038   1.525 -0.1052  0.1312  0.2641
  654MOL0     C86255   2.512   5.098   1.491  0.4756 -0.8949 -1.0276
  654MOL0     C86256   2.616   5.071   1.604 -1.4713  0.4636 -0.0851
  654MOL0     C86257   2.571   5.114   1.746  0.1466  0.2460 -0.3488
  654MOL0     C86258   2.626   5.024   1.863 -0.6167 -0.9612 -0.1909
  654MOL0     C86259   2.771   5.051   1.882 -0.1005 -0.2005  0.7246
  654MOL0     C86260   2.882   5.098   1.889  0.0774  0.1496  0.9051
  654MOL0     C86261   2.229   4.859   1.544  0.1098  0.5412  0.5088
  654MOL0     C86262   2.186   4.731   1.509 -1.1286  0.6842 -0.0018
  654MOL0     H86263   1.910   4.322   1.425  1.1968  0.6477 -0.3555
  654MOL0     H86264   1.846   4.113   1.516 -0.7201  2.7566 -0.9561
  654MOL0     H86265   1.929   3.898   1.462  1.6337 -1.9005 -1.5998
  654MOL0     H86266   1.837   3.854   1.613  0.2389 -2.3692  0.6485
  654MOL0     H86267   1.920   3.649   1.504  1.8149 -0.9534 -2.4678
  654MOL0     H86268   2.009   3.691   1.662 -4.5006  3.6400  1.8771
  654MOL0     H86269   2.198   3.779   1.553  1.0606 -0.5096  0.8710
  654MOL0     H86270   2.142   3.759   1.390  0.2677  0.0010  0.3596
  654MOL0     H86271   2.282   3.553   1.463 -0.6905 -2.9430 -5.3970
  654MOL0     H86272   2.163   3.528   1.586  1.5119  0.2935 -0.0581
  654MOL0     H86273   1.992   3.467   1.424 -0.0227 -0.9211  0.3311
  654MOL0     H86274   2.150   3.371   1.412 -1.6456 -2.2893 -0.0650
  654MOL0     H86275   2.226   3.502   1.234 -0.7318  1.0969 -0.6974
  654MOL0     H86276   2.066   3.595   1.218  1.6512  0.6483 -0.5722
  654MOL0     H86277   2.104   3.296   1.193  0.5976  0.9981  1.3445
  654MOL0     H86278   1.947   3.384   1.193 -0.2954 -1.0451  1.3208
  654MOL0     H86279   1.986   3.395   0.966  0.3725 -4.0166  0.1367
  654MOL0     H86280   2.116   3.297   0.985 -3.0767 -0.9067 -1.4282
  654MOL0     H86281   2.373   3.445   0.959  0.8233  0.9505  3.6610
  654MOL0     H86282   2.421   3.778   0.775 -1.4533  0.6473  1.8742
  654MOL0     H86283   2.502   3.626   0.805  0.3032 -0.0946  0.0298
  654MOL0     H86284   2.595   3.725   1.010  1.8518  0.2135 -1.2603
  654MOL0     H86285   2.442   3.826   1.040  0.0687  0.4970 -0.6519
  654MOL0     H86286   2.644   3.891   0.832 -1.6600  0.6640 -1.0579
  654MOL0     H86287   2.501   3.987   0.891  0.6343  1.5458 -0.6198
  654MOL0     H86288   2.751   3.923   1.058 -0.6846  0.3988  3.0389
  654MOL0     H86289   2.599   3.994   1.111  0.6104  0.0327  0.4079
  654MOL0     H86290   2.921   4.248   0.879  1.5974  0.3588  0.5056
  654MOL0     H86291   3.133   4.308   1.000 -0.2251 -0.2098 -1.0531
  654MOL0     H86292   3.352   4.474   1.420  0.3897 -0.9854  0.2788
  654MOL0     H86293   3.554   4.621   1.427  0.3761  4.2572 -1.8650
  654MOL0     H86294   3.758   4.584   1.404  0.2627 -0.0065  0.6831
  654MOL0     H86295   3.732   4.763   1.395 -2.5842  1.7016 -4.3314
  654MOL0     H86296   3.959   4.762   1.247  0.3069 -0.7642 -1.7135
  654MOL0     H86297   3.947   4.579   1.254 -4.4702  0.5177 -2.1998
  654MOL0     H86298   3.989   4.622   1.514  3.2149 -0.2021  0.7311
  654MOL0     H86299   3.997   4.791   1.468 -0.8721  0.7839 -0.5735
  654MOL0     H86300   4.179   4.562   1.373  2.9273  0.3779  1.1127
  654MOL0     H86301   4.160   4.706   1.277  0.5931 -1.6994 -0.4578
  654MOL0     H86302   4.245   4.841   1.456 -0.1917 -0.8262  2.7574
  654MOL0     H86303   4.363   4.706   1.422  1.2777 -1.4214  3.5187
  654MOL0     H86304   4.258   4.579   1.594  2.2536  0.2675 -0.4349
  654MOL0     H86305   4.162   4.721   1.651  0.2521 -0.5877  0.1142
  654MOL0     H86306   4.323   4.809   1.771  1.5362  0.8653  0.0378
  654MOL0     H86307   4.387   4.653   1.783 -1.6863  1.8010  2.7271
  654MOL0     H86308   4.551   4.822   1.728 -1.8190  1.0170  2.4115
  654MOL0     H86309   4.460   4.869   1.577  0.8084 -0.4422 -0.4599
  654MOL0     H86310   3.619   4.589   1.014 -1.3505 -3.1925 -1.0178
  654MOL0     H86311   3.402   4.466   0.986 -1.9897 -1.0295  0.3576
  654MOL0     H86312   2.950   4.170   1.362  0.2542 -0.0801 -0.3816
  654MOL0     H86313   2.750   4.104   1.251  0.1266 -0.6175 -0.7613
  654MOL0     H86314   2.247   4.071   1.691  1.8588  1.8139 -0.4349
  654MOL0     H86315   2.289   4.305   1.621  2.1119 -2.1887 -2.4579
  654MOL0     H86316   2.505   4.612   1.424  0.1805  0.6918  2.1416
  654MOL0     H86317   2.559   4.826   1.450  0.6448 -1.0800 -1.4072
  654MOL0     H86318   2.495   5.205   1.478 -0.5414 -0.9870 -0.5689
  654MOL0     H86319   2.553   5.059   1.397 -0.4236 -0.3935 -1.6376
  654MOL0     H86320   2.639   4.964   1.600  4.3153  1.3874 -2.8736
  654MOL0     H86321   2.711   5.116   1.574 -1.1615 -0.3079 -0.2770
  654MOL0     H86322   2.462   5.114   1.745  0.1030 -0.9618 -3.0753
  654MOL0     H86323   2.600   5.216   1.774  0.0453  0.9388 -2.5761
  654MOL0     H86324   2.583   5.061   1.957 -0.7102 -0.9479 -0.2385
  654MOL0     H86325   2.598   4.919   1.849  0.8863 -1.5404  0.9217
  654MOL0     H86326   2.980   5.139   1.896 -1.2576  3.5780  1.2921
  654MOL0     H86327   2.154   4.934   1.567 -0.5527  0.2853 -0.7177
  654MOL0     H86328   2.085   4.697   1.525 -1.2629  2.8450  6.2276
  655MOL0     O86329   9.707   9.897   1.428  0.9659 -0.2126  0.1783
  655MOL0     C86330   9.764   9.903   1.317  0.0038 -0.4227 -1.7270
  655MOL0     O86331   9.713   9.858   1.200  0.2889  0.2865  0.4260
  655MOL0     C86332   9.590   9.802   1.185  0.2756  0.7614 -0.0400
  655MOL0     C86333   9.479   9.888   1.196  0.1425  0.5107 -1.0364
  655MOL0     C86334   9.345   9.843   1.190  0.6869 -0.4968  0.2349
  655MOL0     C86335   9.325   9.700   1.161  1.6309 -0.1351  1.2567
  655MOL0     O86336   9.193   9.654   1.130 -0.4200  0.1318  0.5203
  655MOL0     C86337   9.095   9.749   1.108  0.7641 -0.4479 -0.5069
  655MOL0     C86338   8.957   9.684   1.102 -0.3386 -0.1123 -0.2590
  655MOL0     C86339   8.878   9.743   0.983  0.5253  0.6666  0.2317
  655MOL0     C86340   8.741   9.666   0.984  0.1636 -1.0455 -0.2961
  655MOL0     C86341   8.649   9.735   0.882  0.6553 -0.2616 -0.5059
  655MOL0     C86342   8.502   9.692   0.902  0.2709  0.3741 -0.3701
  655MOL0     C86343   8.417   9.760   0.806  0.5036 -0.3678 -0.2238
  655MOL0     C86344   8.276   9.705   0.812 -0.4157  0.0176  0.4421
  655MOL0     N86345   8.249   9.594   0.722  0.5964  0.4606  1.0101
  655MOL0     C86346   8.252   9.463   0.760  0.0899  0.1291  0.2091
  655MOL0     C86347   8.228   9.395   0.646  0.2191 -0.3361  0.1776
  655MOL0     C86348   8.208   9.248   0.651 -0.3802 -0.2760  0.3461
  655MOL0     C86349   8.071   9.186   0.617 -1.2736  0.2359 -0.5410
  655MOL0     C86350   8.029   9.212   0.471  0.0685  0.3295  0.4176
  655MOL0     C86351   7.959   9.094   0.407  0.4390  0.3324  0.7628
  655MOL0     O86352   7.846   9.048   0.485 -0.2885 -0.3445  0.2010
  655MOL0     C86353   7.760   8.957   0.437  0.3247  0.1675 -0.9553
  655MOL0     C86354   7.749   8.906   0.313  0.5981 -0.5324  0.1169
  655MOL0     C86355   7.654   8.811   0.282  0.7030  1.1075  0.4340
  655MOL0     C86356   7.563   8.770   0.380  0.6170  0.2114 -0.5315
  655MOL0     C86357   7.460   8.668   0.355 -0.6853 -0.1691  0.7406
  655MOL0     O86358   7.426   8.639   0.225  0.2934 -0.7629 -0.1954
  655MOL0     C86359   7.335   8.543   0.195  0.8520 -1.0338 -0.0656
  655MOL0     C86360   7.380   8.419   0.141 -0.6971  0.1489  0.7741
  655MOL0     C86361   7.290   8.324   0.079 -0.5076 -1.1571 -0.5649
  655MOL0     C86362   7.152   8.349   0.092 -0.2736 -0.2242  0.4084
  655MOL0     O86363   7.052   8.266   0.041 -0.3624  0.5034 -0.6195
  655MOL0     C86364   7.066   8.211  -0.090  0.6473 -0.0132 -0.5247
  655MOL0     C86365   7.061   8.312  -0.201  0.3951 -0.7367  0.1231
  655MOL0     C86366   6.927   8.350  -0.240 -0.1888 -0.7024  0.0048
  655MOL0     C86367   6.845   8.459  -0.156  1.0658  0.5955 -0.7416
  655MOL0     C86368   6.699   8.477  -0.204  0.5019 -0.5691  0.6260
  655MOL0     C86369   6.614   8.559  -0.115 -0.0184 -0.5914  0.4256
  655MOL0     C86370   6.552   8.492   0.003 -1.8330  0.3329 -0.3913
  655MOL0     C86371   6.444   8.559   0.067  0.0511 -1.1287 -0.0260
  655MOL0    Cl86372   6.298   8.547  -0.033 -0.2476 -0.3080  0.1933
  655MOL0     C86373   7.107   8.464   0.155 -0.2955  0.4986 -0.0172
  655MOL0     C86374   7.193   8.556   0.210 -0.1167 -0.0230  0.1826
  655MOL0     O86375   7.414   8.609   0.453 -0.0283 -0.4967  0.3253
  655MOL0     C86376   7.560   8.830   0.505  0.1458  0.0273  0.5664
  655MOL0     C86377   7.660   8.928   0.528 -1.2201 -0.0079 -0.7274
  655MOL0     N86378   8.208   9.477   0.538 -0.1701  0.2640 -1.6220
  655MOL0     N86379   8.229   9.597   0.585 -0.6749 -0.0142  0.0131
  655MOL0     C86380   9.437   9.614   1.154  0.3764  0.4292 -1.3799
  655MOL0     C86381   9.567   9.667   1.160  0.6332 -0.0161  0.6096
  655MOL0     C86382   9.898   9.966   1.309 -0.7299 -0.2416  0.5586
  655MOL0     C86383   9.964   9.981   1.189  0.2918  0.8245 -0.7266
  655MOL0     C86384  10.075  10.072   1.170 -1.3193  0.3283  0.3289
  655MOL0     C86385  10.136  10.139   1.281 -0.2593  0.5375 -0.9207
  655MOL0     O86386  10.234  10.232   1.260  0.6394  0.3530 -0.2358
  655MOL0     C86387  10.272  10.320   1.368  0.0637 -0.6143  0.1208
  655MOL0     C86388  10.401  10.401   1.345  0.7867 -0.8795  1.3606
  655MOL0     C86389  10.531  10.329   1.322  0.2178 -0.0143 -0.2098
  655MOL0     C86390  10.588  10.367   1.189 -0.1473  0.4682 -1.0240
  655MOL0     C86391  10.519  10.328   1.070  0.5386 -0.4124 -0.0745
  655MOL0     C86392  10.460  10.303   0.966 -0.2917 -0.1393  0.0030
  655MOL0     C86393  10.082  10.103   1.405  0.4026 -0.6833 -0.1863
  655MOL0     C86394   9.970  10.022   1.421 -0.6387  0.1902 -0.5680
  655MOL0     H86395   9.500   9.993   1.218 -0.8410  0.8779 -1.7823
  655MOL0     H86396   9.267   9.903   1.237 -0.8553 -2.7428  0.6911
  655MOL0     H86397   9.112   9.795   1.011  2.4409  0.4285  0.1712
  655MOL0     H86398   9.097   9.801   1.204  1.4272 -1.6248  0.1422
  655MOL0     H86399   8.902   9.702   1.195  2.4607  2.9412  1.0207
  655MOL0     H86400   8.982   9.578   1.097  1.8906  0.3280  0.2591
  655MOL0     H86401   8.928   9.731   0.887  0.5421 -0.2272  0.3437
  655MOL0     H86402   8.876   9.849   1.007  0.8354  0.7752 -0.2097
  655MOL0     H86403   8.759   9.563   0.953  1.1583 -0.7631 -0.6845
  655MOL0     H86404   8.693   9.675   1.082 -0.4034  1.9848 -0.7542
  655MOL0     H86405   8.690   9.717   0.782  1.1158  0.5434 -0.4654
  655MOL0     H86406   8.648   9.844   0.893 -1.4285 -0.2850 -0.0667
  655MOL0     H86407   8.463   9.683   1.004  0.7729 -1.2497 -0.2791
  655MOL0     H86408   8.497   9.586   0.876 -1.7819  0.4712 -0.4756
  655MOL0     H86409   8.412   9.867   0.830 -2.6308 -0.5769  0.5740
  655MOL0     H86410   8.462   9.749   0.707  1.0615  0.4941 -0.0732
  655MOL0     H86411   8.204   9.786   0.797  0.1633  1.5906  4.7259
  655MOL0     H86412   8.249   9.679   0.915 -2.8270  2.3449  0.4903
  655MOL0     H86413   8.258   9.433   0.864  0.2449 -0.9601 -0.0958
  655MOL0     H86414   8.229   9.222   0.755 -0.2313  1.6474  0.8500
  655MOL0     H86415   8.282   9.201   0.585 -2.0978 -1.9101 -0.4923
  655MOL0     H86416   7.989   9.230   0.675 -0.4994  0.3588  0.4865
  655MOL0     H86417   8.075   9.079   0.635 -1.0118  0.3375  0.0325
  655MOL0     H86418   7.979   9.308   0.460  0.4888  0.5971  0.7854
  655MOL0     H86419   8.119   9.221   0.409 -0.5666  1.9232 -0.3221
  655MOL0     H86420   8.031   9.012   0.391  0.5614  0.6223 -0.2442
  655MOL0     H86421   7.919   9.123   0.309  1.1777  0.1958  0.4097
  655MOL0     H86422   7.828   8.939   0.246 -0.6422  3.8279  0.4582
  655MOL0     H86423   7.665   8.773   0.182  0.7099  0.4357  0.6876
  655MOL0     H86424   7.487   8.420   0.127 -0.6955  4.0941 -0.2591
  655MOL0     H86425   7.332   8.248   0.014 -1.2929 -0.9233 -1.3492
  655MOL0     H86426   6.981   8.144  -0.100 -0.1115  0.8877 -0.2192
  655MOL0     H86427   7.147   8.137  -0.095 -0.0663 -0.7296 -2.1394
  655MOL0     H86428   7.097   8.270  -0.295 -0.5021  1.3323 -1.2235
  655MOL0     H86429   7.128   8.397  -0.189 -1.1488  0.8679 -1.7925
  655MOL0     H86430   6.866   8.260  -0.250 -1.0994 -0.0305 -0.6799
  655MOL0     H86431   6.938   8.387  -0.342 -0.8621  1.6348  0.7154
  655MOL0     H86432   6.843   8.433  -0.050  1.7395 -1.0157 -1.0987
  655MOL0     H86433   6.891   8.558  -0.156 -0.5800  1.4721 -3.5462
  655MOL0     H86434   6.655   8.376  -0.199  0.1606 -0.6307 -2.1179
  655MOL0     H86435   6.697   8.519  -0.305 -3.2282  4.2678  2.3053
  655MOL0     H86436   6.542   8.599  -0.187 -0.4991 -1.8760  0.1670
  655MOL0     H86437   6.668   8.648  -0.083 -1.5958  1.0593 -1.2338
  655MOL0     H86438   6.520   8.389  -0.016 -1.8946  0.3123 -0.1808
  655MOL0     H86439   6.630   8.498   0.080 -1.0067 -1.0869 -1.0716
  655MOL0     H86440   6.471   8.665   0.079 -1.2131 -0.6965 -0.8273
  655MOL0     H86441   6.433   8.527   0.171 -0.9963  0.4240  0.3782
  655MOL0     H86442   7.001   8.486   0.149 -0.2958  0.3126 -0.7923
  655MOL0     H86443   7.149   8.643   0.256 -0.3626 -1.1502  2.1811
  655MOL0     H86444   7.496   8.795   0.586  0.7020  1.0625  1.4877
  655MOL0     H86445   7.667   8.972   0.627 -0.0911 -0.1036 -0.7559
  655MOL0     H86446   9.426   9.508   1.135  3.3944 -0.2861  0.2289
  655MOL0     H86447   9.656   9.606   1.158  1.6202  1.3691 -1.1671
  655MOL0     H86448   9.941   9.923   1.100 -1.3923  0.8377 -0.3344
  655MOL0     H86449  10.122  10.096   1.075 -1.9684  4.0411  0.7769
  655MOL0     H86450  10.288  10.261   1.459  2.8875 -1.0408 -0.5749
  655MOL0     H86451  10.185  10.385   1.382  0.8064  0.6218 -0.8059
  655MOL0     H86452  10.385  10.460   1.254 -1.9668 -0.3488  2.0973
  655MOL0     H86453  10.409  10.469   1.430 -0.6137  2.8550 -1.2314
  655MOL0     H86454  10.522  10.220   1.325 -1.3497  0.1157  1.2420
  655MOL0     H86455  10.604  10.360   1.396  1.8261 -1.2092 -1.2053
  655MOL0     H86456  10.599  10.476   1.186 -0.8786  0.6605  1.2616
  655MOL0     H86457  10.681  10.309   1.186 -0.5428 -0.2402  0.0220
  655MOL0     H86458  10.405  10.282   0.877 -0.0148  3.3773 -1.1848
  655MOL0     H86459  10.116  10.154   1.495 -1.2496  0.7475 -0.3268
  655MOL0     H86460   9.928  10.021   1.521 -1.4017  2.4329 -0.8270
  656MOL0     O86461   7.972  11.069   8.157 -0.1832 -0.7421  0.0496
  656MOL0     C86462   8.031  11.084   8.261 -0.0942 -0.4813  0.5640
  656MOL0     O86463   8.105  11.194   8.295  0.8558  0.7466 -0.0261
  656MOL0     C86464   8.079  11.307   8.214  0.5294 -0.2754 -0.8055
  656MOL0     C86465   8.027  11.418   8.278 -0.0679 -0.2878  0.5349
  656MOL0     C86466   8.018  11.533   8.204  0.7977 -0.2424  0.3244
  656MOL0     C86467   8.034  11.539   8.060  0.4089 -0.4549 -1.0868
  656MOL0     O86468   8.038  11.663   7.995  0.7015  0.1824  0.0866
  656MOL0     C86469   8.037  11.789   8.059  0.1996 -0.9741  0.4395
  656MOL0     C86470   8.077  11.889   7.952  0.2328  0.3167  0.9302
  656MOL0     C86471   8.215  11.859   7.903 -1.1184  0.4879  0.1490
  656MOL0     C86472   8.283  11.988   7.841  0.7029 -0.3129 -0.0136
  656MOL0     C86473   8.208  12.048   7.726 -0.4922  0.3360 -0.2118
  656MOL0     C86474   8.222  11.947   7.610  0.2593 -0.2406 -0.6896
  656MOL0     C86475   8.280  12.014   7.478  0.0814 -0.0854 -0.5391
  656MOL0     C86476   8.325  11.916   7.361  0.2099  0.2416  0.5429
  656MOL0     N86477   8.208  11.871   7.280 -0.2159  0.7282 -0.1480
  656MOL0     C86478   8.112  11.777   7.321 -0.0045  0.6778 -0.2681
  656MOL0     C86479   8.013  11.780   7.227  1.0641 -0.6760 -0.1811
  656MOL0     C86480   7.887  11.704   7.252 -0.1945 -0.1481  0.0742
  656MOL0     C86481   7.902  11.551   7.216 -0.2006  1.2949 -0.2545
  656MOL0     C86482   7.786  11.471   7.290 -0.1049 -0.3683  0.1766
  656MOL0     C86483   7.743  11.341   7.215  0.7772  0.6097  0.9707
  656MOL0     O86484   7.843  11.242   7.198 -0.2063 -0.5970 -0.0084
  656MOL0     C86485   7.831  11.116   7.136 -0.4352 -0.4795 -0.2931
  656MOL0     C86486   7.953  11.038   7.134  0.3461 -0.1090 -0.9564
  656MOL0     C86487   7.953  10.902   7.078  0.4745  0.3746 -0.7111
  656MOL0     C86488   7.831  10.843   7.031  0.3772 -1.2374 -0.5488
  656MOL0     C86489   7.835  10.719   6.968  0.0543  0.4666 -0.2683
  656MOL0     O86490   7.958  10.654   6.965  0.5139 -0.2323  0.6134
  656MOL0     C86491   7.973  10.522   6.960 -0.1850  0.0079 -0.5869
  656MOL0     C86492   7.885  10.430   7.008  0.2129 -0.2224 -0.8145
  656MOL0     C86493   7.908  10.292   6.992  1.0003 -0.1005 -0.4500
  656MOL0     C86494   8.032  10.242   6.951 -0.3472  0.5123 -0.2436
  656MOL0     O86495   8.067  10.114   6.933 -0.9617  0.2030 -0.0907
  656MOL0     C86496   7.984  10.008   6.971  0.1465 -0.2910  0.7275
  656MOL0     C86497   8.042   9.876   6.918  0.8389  0.0379  1.0240
  656MOL0     C86498   8.013   9.863   6.768  0.4113 -0.1582 -0.2616
  656MOL0     C86499   8.014   9.715   6.721 -0.0944 -0.0126  0.1883
  656MOL0     C86500   7.998   9.698   6.564  0.5527  0.7431  0.1019
  656MOL0     C86501   7.853   9.715   6.507  0.0774  0.4269 -0.5933
  656MOL0     C86502   7.859   9.719   6.355  0.6069  0.6054  0.6493
  656MOL0     C86503   7.734   9.739   6.278 -0.9840 -0.4871 -0.3433
  656MOL0    Cl86504   7.772   9.714   6.108 -0.0366  0.2266 -0.7122
  656MOL0     C86505   8.136  10.339   6.924  0.1861  0.6880 -0.3584
  656MOL0     C86506   8.103  10.474   6.925  0.9436  0.0891 -1.0492
  656MOL0     O86507   7.729  10.669   6.929 -0.2864 -0.5402  0.2497
  656MOL0     C86508   7.719  10.927   7.042  0.3351  0.4626 -0.7677
  656MOL0     C86509   7.719  11.055   7.094  0.5673 -0.3168  0.6858
  656MOL0     N86510   8.047  11.880   7.137  0.7315  0.3238  0.7260
  656MOL0     N86511   8.160  11.933   7.168 -0.9749 -0.0968  0.2847
  656MOL0     C86512   8.073  11.429   8.002 -0.4389  0.5149  0.6566
  656MOL0     C86513   8.107  11.314   8.072 -0.1861  1.1010 -0.6190
  656MOL0     C86514   8.069  10.951   8.332  1.1036 -0.2129  0.5298
  656MOL0     C86515   8.187  10.940   8.410  0.2044  0.2722  0.2053
  656MOL0     C86516   8.221  10.819   8.476  0.1705  0.4010 -0.4346
  656MOL0     C86517   8.140  10.709   8.466  0.6436  0.0607 -0.7972
  656MOL0     O86518   8.193  10.593   8.520  0.6662 -0.8023 -0.5020
  656MOL0     C86519   8.112  10.472   8.527  0.3600  0.1680 -0.5907
  656MOL0     C86520   8.192  10.361   8.578 -0.0925  0.2891  0.1358
  656MOL0     C86521   8.316  10.336   8.495 -0.6739  0.5780  0.5435
  656MOL0     C86522   8.382  10.195   8.501 -0.3914  0.0185 -0.9481
  656MOL0     C86523   8.301  10.075   8.485 -0.3478 -0.7931 -0.3426
  656MOL0     C86524   8.231   9.973   8.481  0.9838  0.0283  0.6000
  656MOL0     C86525   8.017  10.714   8.400  1.1601 -0.1632  0.5765
  656MOL0     C86526   7.983  10.840   8.338  0.6102 -0.0897 -0.2781
  656MOL0     H86527   7.990  11.415   8.379 -2.5004  0.1090 -0.2834
  656MOL0     H86528   8.014  11.625   8.262  0.6094 -0.5224  0.7651
  656MOL0     H86529   8.123  11.797   8.127  0.1624 -0.4037  0.4256
  656MOL0     H86530   7.944  11.821   8.106 -0.7358 -1.2275 -1.1868
  656MOL0     H86531   8.069  11.986   8.002  0.7607  1.3303 -0.8643
  656MOL0     H86532   8.010  11.886   7.865 -2.0015  0.8130  2.5313
  656MOL0     H86533   8.213  11.774   7.833  0.7143  0.2678  0.3156
  656MOL0     H86534   8.279  11.841   7.990  0.7509  0.1203 -1.2261
  656MOL0     H86535   8.285  12.060   7.923 -1.3359 -0.5407  0.2878
  656MOL0     H86536   8.387  11.967   7.818  1.6340  1.4583  2.1249
  656MOL0     H86537   8.248  12.149   7.711  2.3335 -0.8136 -1.0533
  656MOL0     H86538   8.101  12.063   7.742 -0.5870  0.4853 -0.9461
  656MOL0     H86539   8.122  11.916   7.579 -1.2144  1.2884  2.1984
  656MOL0     H86540   8.292  11.868   7.642  0.1076 -0.8475 -1.8064
  656MOL0     H86541   8.204  12.078   7.433 -0.3703 -2.4326 -3.4561
  656MOL0     H86542   8.362  12.079   7.509 -0.5197 -0.0642  1.1282
  656MOL0     H86543   8.394  11.839   7.398  2.6689  0.8070 -2.4130
  656MOL0     H86544   8.387  11.980   7.297  2.0341  0.3987  2.3337
  656MOL0     H86545   8.119  11.719   7.412  1.0898  4.6695  2.4563
  656MOL0     H86546   7.810  11.753   7.192  0.6869  0.0427 -0.9325
  656MOL0     H86547   7.875  11.711   7.360 -0.8569 -3.4749  0.3212
  656MOL0     H86548   8.002  11.521   7.248  0.2124  2.6832 -0.1659
  656MOL0     H86549   7.891  11.541   7.107 -1.3126 -2.0618  0.0668
  656MOL0     H86550   7.825  11.454   7.390 -0.6918 -0.2006  0.4328
  656MOL0     H86551   7.700  11.538   7.296  0.8386  0.9168 -0.0827
  656MOL0     H86552   7.707  11.368   7.115 -1.4636  0.6857  1.7372
  656MOL0     H86553   7.656  11.301   7.268  0.2087 -1.1476 -1.1615
  656MOL0     H86554   8.045  11.081   7.173 -0.0046  0.2883 -0.5556
  656MOL0     H86555   8.046  10.846   7.081 -0.7307 -1.9581 -2.7129
  656MOL0     H86556   7.785  10.460   7.040  1.1612 -0.3729  2.7810
  656MOL0     H86557   7.832  10.219   7.014 -0.2660  0.1845 -3.4730
  656MOL0     H86558   7.881  10.010   6.936  0.2146  0.6929  0.5651
  656MOL0     H86559   7.987  10.019   7.080 -0.8458  0.7435  0.6616
  656MOL0     H86560   7.997   9.787   6.963 -1.2455  0.5944  0.1360
  656MOL0     H86561   8.148   9.877   6.945  0.6496 -0.1610  1.7960
  656MOL0     H86562   8.084   9.925   6.712  0.3436 -2.2524 -2.8561
  656MOL0     H86563   7.914   9.897   6.739 -0.5246 -1.3942  1.3230
  656MOL0     H86564   8.116   9.686   6.749  0.0236  0.7502  0.5805
  656MOL0     H86565   7.939   9.655   6.773 -0.4022 -3.2320 -3.5190
  656MOL0     H86566   8.044   9.603   6.538  0.0433 -0.1738  2.3067
  656MOL0     H86567   8.069   9.774   6.531  1.5558  0.1547  0.8522
  656MOL0     H86568   7.796   9.801   6.543  0.9719  0.6767  0.2772
  656MOL0     H86569   7.796   9.624   6.528 -0.5841  1.3223  1.8450
  656MOL0     H86570   7.927   9.796   6.319  0.6948 -0.0626 -0.6808
  656MOL0     H86571   7.890   9.619   6.321 -1.7215 -0.3076  1.0365
  656MOL0     H86572   7.696   9.839   6.298  1.7817  0.3086  1.3442
  656MOL0     H86573   7.660   9.664   6.310 -1.7608 -0.8673 -2.7970
  656MOL0     H86574   8.230  10.295   6.893  0.0018 -0.9000  1.1799
  656MOL0     H86575   8.181  10.545   6.898  0.8227  0.7310  0.1997
  656MOL0     H86576   7.628  10.881   7.002 -1.0699  2.0802  0.4310
  656MOL0     H86577   7.623  11.104   7.099  0.0656 -0.9730 -1.4833
  656MOL0     H86578   8.091  11.443   7.896  0.8945  3.2961  1.1495
  656MOL0     H86579   8.135  11.221   8.024  0.2805  1.2546 -0.6508
  656MOL0     H86580   8.258  11.022   8.418 -0.3042  0.6827  0.5334
  656MOL0     H86581   8.301  10.818   8.549 -0.6215 -0.1222  0.4553
  656MOL0     H86582   8.074  10.446   8.427  0.3552  0.5804 -0.6943
  656MOL0     H86583   8.028  10.473   8.596  0.0666 -1.1377 -0.8851
  656MOL0     H86584   8.229  10.383   8.679  2.3879  0.4587 -0.7374
  656MOL0     H86585   8.136  10.267   8.572  0.7924 -0.1470 -2.1700
  656MOL0     H86586   8.397  10.403   8.528  1.5013  0.0521 -3.2003
  656MOL0     H86587   8.292  10.365   8.392 -0.4061  1.0739  0.6145
  656MOL0     H86588   8.452  10.191   8.417 -1.3076  4.3100 -2.1708
  656MOL0     H86589   8.433  10.186   8.597  1.1838  2.0375 -1.5319
  656MOL0     H86590   8.170   9.888   8.507 -0.8486  1.7952  2.4712
  656MOL0     H86591   7.951  10.628   8.397  1.0706 -0.0620 -0.8005
  656MOL0     H86592   7.892  10.852   8.281  1.3501  0.8087 -1.3132
  657MOL0     O86593   9.241  10.570   4.370  0.0010 -0.6670  0.0836
  657MOL0     C86594   9.357  10.572   4.344  0.1369 -0.5196  0.9881
  657MOL0     O86595   9.447  10.490   4.396  0.1929 -0.3948 -0.1015
  657MOL0     C86596   9.402  10.388   4.479 -0.5259 -0.8129  0.0793
  657MOL0     C86597   9.284  10.308   4.463 -0.0254 -0.3382 -0.6181
  657MOL0     C86598   9.240  10.210   4.563 -0.2366 -0.4227 -0.0362
  657MOL0     C86599   9.323  10.183   4.671 -0.3302  0.8211 -0.3112
  657MOL0     O86600   9.295  10.079   4.763  0.4508  0.0249 -0.2719
  657MOL0     C86601   9.160  10.036   4.768  0.3021 -0.6449 -0.0818
  657MOL0     C86602   9.113   9.950   4.891 -0.5824  1.3181  0.3836
  657MOL0     C86603   9.137  10.025   5.021  0.2150  0.1020  0.6227
  657MOL0     C86604   9.109   9.928   5.140  0.2987 -0.1808 -0.3673
  657MOL0     C86605   9.084  10.009   5.276 -0.0550  0.1550  1.1960
  657MOL0     C86606   9.041   9.914   5.388  0.1154 -0.2552 -0.3484
  657MOL0     C86607   9.158   9.846   5.453 -1.4900 -0.1131  0.4289
  657MOL0     C86608   9.196   9.702   5.398  0.6457 -0.8294  0.1157
  657MOL0     N86609   9.083   9.608   5.397  0.6707 -0.2064  0.5411
  657MOL0     C86610   9.029   9.542   5.283 -0.6230  0.5119  0.2162
  657MOL0     C86611   8.940   9.444   5.331 -0.3362 -0.2574 -0.3947
  657MOL0     C86612   8.855   9.341   5.263 -0.0995 -0.6223 -0.4619
  657MOL0     C86613   8.848   9.215   5.349  0.4266  0.3096 -1.4263
  657MOL0     C86614   8.981   9.154   5.402  0.5265 -0.1713 -0.2258
  657MOL0     C86615   8.970   9.006   5.435  0.6778  0.0370  0.3163
  657MOL0     O86616   8.849   8.961   5.506  0.0502  0.0141 -0.1859
  657MOL0     C86617   8.843   8.971   5.640  0.5076  0.0484 -0.0700
  657MOL0     C86618   8.729   8.942   5.700 -0.2868  0.3750  1.2207
  657MOL0     C86619   8.723   8.944   5.839 -0.0921  1.1012  0.0990
  657MOL0     C86620   8.822   8.980   5.928 -0.6375  0.1293 -0.4082
  657MOL0     C86621   8.795   8.990   6.076 -0.3778  1.4354  0.3768
  657MOL0     O86622   8.669   8.998   6.116  0.5258  1.1404  0.0282
  657MOL0     C86623   8.650   9.074   6.228 -0.1661  0.8377  0.1847
  657MOL0     C86624   8.614   9.204   6.194 -0.0191  0.5791 -0.0546
  657MOL0     C86625   8.571   9.281   6.292 -0.0621 -0.7246 -0.7557
  657MOL0     C86626   8.564   9.243   6.425  0.0393 -0.2872  0.1337
  657MOL0     O86627   8.533   9.347   6.509  1.0255  0.2975  0.9349
  657MOL0     C86628   8.528   9.313   6.650  0.7651 -0.1925 -0.7017
  657MOL0     C86629   8.472   9.427   6.746 -0.1937  0.3134  0.4518
  657MOL0     C86630   8.319   9.448   6.758 -1.4073  0.7489 -0.3230
  657MOL0     C86631   8.244   9.320   6.812  0.0521 -0.1050 -0.0025
  657MOL0     C86632   8.301   9.261   6.943  0.5605  0.5172 -1.1188
  657MOL0     C86633   8.274   9.355   7.063 -0.7749 -1.2025  0.4527
  657MOL0     C86634   8.334   9.290   7.193  0.3399  0.3947  0.6612
  657MOL0     C86635   8.273   9.335   7.319  0.6305 -0.1355 -0.0976
  657MOL0    Cl86636   8.103   9.287   7.323  0.4721  0.1773 -0.6834
  657MOL0     C86637   8.609   9.118   6.464  0.0265  0.8156  0.5653
  657MOL0     C86638   8.651   9.025   6.353  0.6154  0.1360 -1.0401
  657MOL0     O86639   8.894   8.975   6.146 -0.0303  0.4995 -0.2237
  657MOL0     C86640   8.935   9.014   5.870 -1.4002  0.5021  0.5313
  657MOL0     C86641   8.955   9.000   5.729 -1.0063 -0.5897  0.1009
  657MOL0     N86642   8.933   9.464   5.470 -0.8583 -0.2326  0.1631
  657MOL0     N86643   9.023   9.550   5.507  0.0067  0.6390 -0.2088
  657MOL0     C86644   9.432  10.268   4.688 -0.2754  0.6158  0.7593
  657MOL0     C86645   9.468  10.368   4.598 -1.6724 -0.0652 -0.1115
  657MOL0     C86646   9.400  10.674   4.248  0.3692  0.0964  0.0928
  657MOL0     C86647   9.311  10.775   4.201 -0.3323  0.1694 -0.6942
  657MOL0     C86648   9.365  10.892   4.137 -0.4820 -0.1404 -1.2224
  657MOL0     C86649   9.505  10.909   4.127  0.1544 -0.2651 -0.8802
  657MOL0     O86650   9.535  11.023   4.065  0.5938 -0.4404  0.2724
  657MOL0     C86651   9.611  11.118   4.140  0.1082  0.3354  0.0667
  657MOL0     C86652   9.665  11.212   4.039  0.1283 -0.0104 -0.0157
  657MOL0     C86653   9.718  11.325   4.123  0.4079  0.2978  0.1860
  657MOL0     C86654   9.760  11.448   4.050 -0.0912  0.7286  0.1358
  657MOL0     C86655   9.873  11.411   3.961  0.3525 -0.0131 -0.2470
  657MOL0     C86656   9.957  11.396   3.876  1.1351  0.3993 -0.1229
  657MOL0     C86657   9.586  10.820   4.183  0.2066  0.3905 -0.4668
  657MOL0     C86658   9.543  10.697   4.239 -0.5529 -0.1336 -1.3733
  657MOL0     H86659   9.220  10.325   4.377  1.2237  0.0433 -1.4989
  657MOL0     H86660   9.149  10.154   4.546  0.5879 -1.1913 -2.2173
  657MOL0     H86661   9.149   9.975   4.678 -0.1163  0.8718 -1.0828
  657MOL0     H86662   9.083  10.113   4.757 -0.5637 -1.3573  0.7900
  657MOL0     H86663   9.177   9.861   4.894  1.6664  2.7353 -1.8282
  657MOL0     H86664   9.013   9.910   4.874  0.7725 -1.1994 -2.4142
  657MOL0     H86665   9.069  10.111   5.017  1.0303  0.6985 -1.3080
  657MOL0     H86666   9.239  10.063   5.030 -0.3621  1.6125  1.2656
  657MOL0     H86667   9.024   9.863   5.115 -0.9627  0.8279  1.1474
  657MOL0     H86668   9.202   9.871   5.144 -0.3206 -1.2770 -0.9187
  657MOL0     H86669   9.003  10.080   5.254 -0.3566 -1.2143 -3.2207
  657MOL0     H86670   9.182  10.054   5.295 -0.3039  0.2892  2.2170
  657MOL0     H86671   8.967   9.844   5.348  1.1736 -0.8811 -1.2638
  657MOL0     H86672   8.993   9.974   5.466  0.0023 -0.1809 -0.4750
  657MOL0     H86673   9.236   9.922   5.445 -1.6324  0.1487  1.4184
  657MOL0     H86674   9.143   9.835   5.561  1.6076 -0.1818  0.9266
  657MOL0     H86675   9.281   9.665   5.455  0.6174 -0.7834  0.1873
  657MOL0     H86676   9.216   9.707   5.290 -1.8733 -3.4452 -0.6095
  657MOL0     H86677   9.055   9.552   5.178  0.1465 -1.6384  0.1557
  657MOL0     H86678   8.915   9.310   5.177 -1.6024 -2.8173 -0.8012
  657MOL0     H86679   8.760   9.382   5.227  0.5947  0.8897 -0.6474
  657MOL0     H86680   8.789   9.148   5.286 -3.5842  0.4583  1.7716
  657MOL0     H86681   8.785   9.247   5.433 -0.2746 -0.7008 -1.5483
  657MOL0     H86682   9.062   9.167   5.329 -0.7165  0.5409 -1.5240
  657MOL0     H86683   9.010   9.209   5.492 -1.0296  1.5842 -0.7282
  657MOL0     H86684   9.060   8.970   5.485  0.1100 -2.2587 -0.1979
  657MOL0     H86685   8.964   8.952   5.340  2.5911  1.4036 -0.6754
  657MOL0     H86686   8.637   8.920   5.647  1.7306 -0.0278 -2.3984
  657MOL0     H86687   8.626   8.924   5.883 -0.8083  4.0754  0.0830
  657MOL0     H86688   8.604   9.236   6.091  0.3269  1.5249  0.1946
  657MOL0     H86689   8.546   9.380   6.255  1.7070 -0.9502 -2.7457
  657MOL0     H86690   8.625   9.277   6.685  1.1447 -0.9957 -2.4692
  657MOL0     H86691   8.463   9.227   6.669 -1.1034  1.4853  1.1204
  657MOL0     H86692   8.503   9.525   6.709 -2.5117  0.6098 -0.9238
  657MOL0     H86693   8.514   9.430   6.847 -3.4146  4.0614  1.9708
  657MOL0     H86694   8.278   9.487   6.665 -0.2754  1.8951 -0.3764
  657MOL0     H86695   8.312   9.529   6.831 -1.3970 -1.0170  1.7360
  657MOL0     H86696   8.142   9.353   6.834 -0.1144 -2.6440  4.4593
  657MOL0     H86697   8.241   9.234   6.745 -2.0161 -1.2092  1.3721
  657MOL0     H86698   8.406   9.231   6.937  0.6739  0.5716  0.2489
  657MOL0     H86699   8.245   9.170   6.967  2.2805  0.0050  1.3737
  657MOL0     H86700   8.168   9.377   7.074 -0.0788  5.9186 -1.8366
  657MOL0     H86701   8.327   9.449   7.044 -0.8552 -1.5160 -1.4504
  657MOL0     H86702   8.303   9.185   7.188 -3.5551  1.4137  0.1212
  657MOL0     H86703   8.437   9.325   7.193 -0.0745  1.8359 -1.4864
  657MOL0     H86704   8.277   9.443   7.303  0.4352 -0.4667 -2.7581
  657MOL0     H86705   8.319   9.295   7.410 -0.6740  2.7075  1.9837
  657MOL0     H86706   8.602   9.086   6.567 -0.0581  0.3768  0.4287
  657MOL0     H86707   8.674   8.923   6.384 -1.6001  0.1212  0.7748
  657MOL0     H86708   9.010   9.056   5.936 -0.2043  1.3361 -1.2711
  657MOL0     H86709   9.055   9.032   5.702 -1.2838 -0.7197 -1.1168
  657MOL0     H86710   9.506  10.267   4.768  2.2838  0.9911 -1.4311
  657MOL0     H86711   9.558  10.425   4.624 -0.3602 -2.0788 -0.0354
  657MOL0     H86712   9.203  10.772   4.209 -0.3300  2.7336  1.5236
  657MOL0     H86713   9.291  10.966   4.110 -1.1134  1.1660  3.1542
  657MOL0     H86714   9.690  11.060   4.189  0.0973  0.3216  0.0670
  657MOL0     H86715   9.532  11.161   4.203 -2.6470 -0.8141 -2.3634
  657MOL0     H86716   9.745  11.166   3.981  1.8088 -1.2549  3.0695
  657MOL0     H86717   9.598  11.255   3.964 -0.6805 -0.8923  0.1831
  657MOL0     H86718   9.810  11.300   4.176  0.3023  1.4302  0.9237
  657MOL0     H86719   9.633  11.351   4.188 -0.0925 -0.3107 -0.2074
  657MOL0     H86720   9.682  11.509   4.003 -3.8352 -1.2092  3.2544
  657MOL0     H86721   9.796  11.515   4.128  0.9157  0.2894  0.0600
  657MOL0     H86722  10.027  11.380   3.796  0.5040 -3.4262 -0.0727
  657MOL0     H86723   9.693  10.837   4.170  0.5547 -1.6735 -0.5374
  657MOL0     H86724   9.596  10.635   4.312 -1.9804  2.2959  1.9758
  658MOL0     O86725   1.134   9.438   6.248  0.2328 -0.1238 -0.2863
  658MOL0     C86726   1.234   9.394   6.193 -0.7428 -0.5116  0.5538
  658MOL0     O86727   1.232   9.352   6.057 -0.0016  0.4688  0.2499
  658MOL0     C86728   1.124   9.389   5.982 -0.6757 -0.2754 -0.0841
  658MOL0     C86729   1.147   9.457   5.864 -0.4900  0.0503  0.4435
  658MOL0     C86730   1.043   9.482   5.783 -0.4043 -0.5495 -0.0327
  658MOL0     C86731   0.908   9.457   5.817  0.9320  0.8503  0.5789
  658MOL0     O86732   0.804   9.497   5.738  0.2122 -0.6116 -0.4015
  658MOL0     C86733   0.686   9.530   5.807 -0.4519 -0.3096 -0.7063
  658MOL0     C86734   0.574   9.573   5.720  0.4144  0.5050 -0.6859
  658MOL0     C86735   0.601   9.692   5.636  0.1474 -0.4354  0.2118
  658MOL0     C86736   0.479   9.767   5.602  0.4286  0.4298 -0.1353
  658MOL0     C86737   0.484   9.895   5.520  0.1924  0.4580 -0.5460
  658MOL0     C86738   0.547  10.007   5.591  0.2003 -0.3357 -0.2039
  658MOL0     C86739   0.662  10.068   5.518 -0.2624  0.0220 -0.6874
  658MOL0     C86740   0.785   9.978   5.515  0.0644  0.3164 -0.5330
  658MOL0     N86741   0.851   9.967   5.640  0.5025  0.1679 -0.7143
  658MOL0     C86742   0.891   9.853   5.703  0.0721  0.2207  0.0730
  658MOL0     C86743   0.928   9.887   5.830 -0.1373  0.7814 -0.1621
  658MOL0     C86744   0.970   9.793   5.940  0.3872  0.9400 -0.7181
  658MOL0     C86745   1.014   9.858   6.075  0.0642 -0.1195  0.1187
  658MOL0     C86746   1.064   9.747   6.172 -1.0605  0.3390 -0.4091
  658MOL0     C86747   1.129   9.814   6.294 -0.3755  0.6920 -0.3943
  658MOL0     O86748   1.036   9.899   6.375 -0.4544  0.6815  0.1703
  658MOL0     C86749   0.947   9.827   6.459 -0.4472 -0.7553  0.5547
  658MOL0     C86750   0.847   9.900   6.521 -0.7127  1.3795 -0.6849
  658MOL0     C86751   0.758   9.847   6.611  0.0686 -0.5791 -0.1806
  658MOL0     C86752   0.749   9.707   6.621  0.5783  0.2424  0.6241
  658MOL0     C86753   0.653   9.652   6.713 -0.1531  0.3704  0.3570
  658MOL0     O86754   0.569   9.736   6.777 -0.1571 -0.1555  0.0256
  658MOL0     C86755   0.506   9.694   6.890  0.4903  0.2468  0.1568
  658MOL0     C86756   0.549   9.716   7.018  0.0195 -1.2703 -0.3816
  658MOL0     C86757   0.454   9.690   7.115 -0.1750  0.0541 -0.4544
  658MOL0     C86758   0.334   9.624   7.089  0.3909 -0.5942  0.2343
  658MOL0     O86759   0.254   9.616   7.204 -0.2269  0.4509 -0.2637
  658MOL0     C86760   0.126   9.670   7.198  0.4000 -0.0490  0.0305
  658MOL0     C86761   0.085   9.712   7.340 -0.1163 -0.5900  0.0259
  658MOL0     C86762  -0.066   9.711   7.368 -0.1979  0.0197  0.5880
  658MOL0     C86763  -0.122   9.564   7.390 -0.0775 -0.9651  0.3625
  658MOL0     C86764  -0.268   9.544   7.353 -0.4375 -0.5327 -0.0852
  658MOL0     C86765  -0.314   9.407   7.401  0.0813  0.2614  0.5827
  658MOL0     C86766  -0.449   9.379   7.330  0.3088 -0.3638 -0.4889
  658MOL0     C86767  -0.567   9.476   7.359 -0.1656 -0.2429  0.1913
  658MOL0    Cl86768  -0.595   9.453   7.534  0.2489  0.2190 -0.0754
  658MOL0     C86769   0.289   9.604   6.963 -0.4453 -0.5651 -0.3044
  658MOL0     C86770   0.380   9.636   6.865 -0.5752 -0.5626  1.0300
  658MOL0     O86771   0.663   9.533   6.738 -0.7545  0.8094  0.3842
  658MOL0     C86772   0.835   9.622   6.540 -0.1887  0.1070 -0.5322
  658MOL0     C86773   0.932   9.684   6.461  0.0342  0.0169  1.0312
  658MOL0     N86774   0.904  10.025   5.850 -0.0748 -0.4499  0.9789
  658MOL0     N86775   0.862  10.064   5.734 -0.3994  0.5247 -0.0788
  658MOL0     C86776   0.895   9.379   5.933 -0.9838  0.3858 -0.1956
  658MOL0     C86777   1.004   9.334   6.010  0.8673  0.4013  1.0178
  658MOL0     C86778   1.358   9.385   6.269  0.7455 -0.2894 -0.3010
  658MOL0     C86779   1.366   9.415   6.413  0.0993  0.5134  0.2330
  658MOL0     C86780   1.486   9.401   6.477  0.3970  0.2853  0.2080
  658MOL0     C86781   1.607   9.370   6.420 -0.0206 -0.5247  0.2859
  658MOL0     O86782   1.724   9.376   6.492  0.6444  0.2482 -0.0643
  658MOL0     C86783   1.762   9.239   6.524 -0.4443 -0.2537 -0.8315
  658MOL0     C86784   1.801   9.244   6.667  0.0320 -0.0157 -0.0684
  658MOL0     C86785   1.919   9.345   6.707 -0.3545  0.8648  0.4167
  658MOL0     C86786   1.911   9.393   6.858 -0.0920  0.1537  0.8604
  658MOL0     C86787   1.828   9.513   6.864  0.0743  0.9044 -0.1187
  658MOL0     C86788   1.766   9.611   6.877  0.0896 -0.3514 -1.0773
  658MOL0     C86789   1.608   9.349   6.280 -0.5700 -0.1557  0.1133
  658MOL0     C86790   1.491   9.360   6.203  0.1970 -1.0438 -1.0762
  658MOL0     H86791   1.246   9.502   5.855  0.8568 -2.4012  1.7957
  658MOL0     H86792   1.083   9.527   5.693  2.1850 -1.8354  0.3653
  658MOL0     H86793   0.713   9.609   5.878 -1.7539  0.0315 -0.5766
  658MOL0     H86794   0.647   9.443   5.860 -1.8155  1.2288  0.9213
  658MOL0     H86795   0.493   9.602   5.787  0.8694 -0.0180  0.1075
  658MOL0     H86796   0.547   9.486   5.660 -0.4894  0.2498  0.0804
  658MOL0     H86797   0.667   9.656   5.557  1.5497 -2.3971  2.1645
  658MOL0     H86798   0.662   9.762   5.694  1.4334 -1.3577  0.0009
  658MOL0     H86799   0.430   9.693   5.538  1.5706 -0.7142  0.2831
  658MOL0     H86800   0.410   9.781   5.686 -1.6673  0.8971 -1.8201
  658MOL0     H86801   0.382   9.915   5.487  0.0572  1.2910  0.3430
  658MOL0     H86802   0.542   9.866   5.431 -0.3792 -0.6734 -0.5621
  658MOL0     H86803   0.574   9.978   5.693 -2.9188  0.9084  1.1095
  658MOL0     H86804   0.462  10.076   5.600  1.2037  1.1068 -1.2673
  658MOL0     H86805   0.641  10.092   5.414  0.7909  0.7135 -0.7632
  658MOL0     H86806   0.688  10.159   5.573  2.1635 -1.7579  1.4033
  658MOL0     H86807   0.858  10.033   5.455  0.5555  2.0963  1.5439
  658MOL0     H86808   0.761   9.878   5.478  0.7237  0.2743 -0.8677
  658MOL0     H86809   0.883   9.754   5.658  0.2072  0.1693  0.1598
  658MOL0     H86810   1.051   9.739   5.890 -0.0246 -0.8495  0.4511
  658MOL0     H86811   0.894   9.720   5.971 -4.0818  5.0452 -0.8364
  658MOL0     H86812   0.929   9.907   6.122  0.4395 -1.0733  1.9032
  658MOL0     H86813   1.092   9.933   6.063 -1.6138  1.4406 -1.6208
  658MOL0     H86814   0.991   9.673   6.204  1.3663 -1.2505  1.8621
  658MOL0     H86815   1.143   9.692   6.121  0.7685  3.3108 -1.0232
  658MOL0     H86816   1.214   9.874   6.261 -2.3280  2.1697 -3.1391
  658MOL0     H86817   1.160   9.727   6.352 -1.3215 -0.1453 -1.1173
  658MOL0     H86818   0.860  10.008   6.515  4.5521  0.9831 -1.6647
  658MOL0     H86819   0.696   9.909   6.675  1.2949 -0.2979  0.7621
  658MOL0     H86820   0.630   9.787   7.028 -0.0028 -0.9074 -2.3746
  658MOL0     H86821   0.475   9.721   7.217 -4.5534  1.9262  0.1025
  658MOL0     H86822   0.049   9.596   7.174  0.9342 -1.6881  2.8512
  658MOL0     H86823   0.111   9.759   7.136 -0.2436  0.4338  0.8450
  658MOL0     H86824   0.120   9.814   7.359 -3.9618  1.3452 -2.1922
  658MOL0     H86825   0.142   9.655   7.414  0.3619  0.3121  0.3676
  658MOL0     H86826  -0.114   9.758   7.282 -1.3099 -3.6954 -1.0218
  658MOL0     H86827  -0.084   9.765   7.461  0.8084 -0.5645  1.1506
  658MOL0     H86828  -0.060   9.506   7.321  0.0626  0.5734 -0.8377
  658MOL0     H86829  -0.105   9.538   7.495  0.7351 -1.0206  0.2192
  658MOL0     H86830  -0.267   9.549   7.244 -1.6166 -0.0304 -0.0793
  658MOL0     H86831  -0.327   9.618   7.408 -0.7798 -1.1515  0.3991
  658MOL0     H86832  -0.330   9.395   7.508  4.3427 -2.7037  1.1496
  658MOL0     H86833  -0.243   9.327   7.377 -2.7680 -3.3570  3.0417
  658MOL0     H86834  -0.424   9.380   7.223 -0.4288  0.4657 -0.6577
  658MOL0     H86835  -0.486   9.279   7.358  0.1210 -0.0273  0.5079
  658MOL0     H86836  -0.659   9.457   7.304  0.8838 -0.4990 -1.5579
  658MOL0     H86837  -0.535   9.577   7.330  2.9317 -2.1327 -4.1326
  658MOL0     H86838   0.191   9.565   6.940 -2.1768  3.4083 -0.4819
  658MOL0     H86839   0.362   9.629   6.758 -0.0336 -4.2878  1.0277
  658MOL0     H86840   0.843   9.514   6.550 -1.5419 -0.0513 -0.9440
  658MOL0     H86841   1.001   9.617   6.412 -0.5121 -1.3630  2.0656
  658MOL0     H86842   0.798   9.344   5.967 -1.3921  2.2606  0.7628
  658MOL0     H86843   0.991   9.272   6.098  0.7103  3.9771  3.7014
  658MOL0     H86844   1.274   9.449   6.460 -0.6042 -0.3856 -0.4561
  658MOL0     H86845   1.479   9.443   6.577  1.6062 -2.8515  1.7379
  658MOL0     H86846   1.845   9.212   6.458  1.8661  2.3848  0.7947
  658MOL0     H86847   1.685   9.163   6.503 -0.0182 -0.7845 -0.5026
  658MOL0     H86848   1.709   9.271   6.720  0.7812 -0.8017  1.7161
  658MOL0     H86849   1.834   9.145   6.700  1.7279 -0.2704 -2.2661
  658MOL0     H86850   1.925   9.431   6.639 -0.9586  0.3086 -0.3533
  658MOL0     H86851   2.015   9.293   6.695  0.1576  2.3611 -3.3757
  658MOL0     H86852   1.874   9.319   6.930  0.1107  1.0343  1.8949
  658MOL0     H86853   2.008   9.425   6.897  0.1004 -0.0158  0.5288
  658MOL0     H86854   1.712   9.704   6.879 -0.4835 -0.5330 -3.8265
  658MOL0     H86855   1.708   9.337   6.238  0.3665  3.6956  0.8186
  658MOL0     H86856   1.496   9.352   6.094 -4.4872  4.4396 -2.1537
  659MOL0     O86857   0.602   1.597   3.391 -0.2176  0.0108 -0.2897
  659MOL0     C86858   0.681   1.619   3.481 -0.3461 -0.8640 -0.2175
  659MOL0     O86859   0.642   1.664   3.610 -0.0785 -0.1337  0.4441
  659MOL0     C86860   0.510   1.699   3.618 -0.0812  0.6165  0.7236
  659MOL0     C86861   0.399   1.610   3.602  0.0429 -0.7852 -0.0410
  659MOL0     C86862   0.270   1.657   3.613  0.5652 -0.6891  0.9517
  659MOL0     C86863   0.240   1.800   3.644  0.1687 -0.5033  0.7383
  659MOL0     O86864   0.112   1.854   3.649 -0.1820  0.7115 -0.1022
  659MOL0     C86865   0.013   1.775   3.588 -0.1208 -0.1282  0.0643
  659MOL0     C86866  -0.116   1.856   3.590 -0.6331  0.1788  0.8031
  659MOL0     C86867  -0.200   1.806   3.468  0.2649 -1.2276 -0.1378
  659MOL0     C86868  -0.326   1.900   3.444  1.1294 -0.4803 -0.6235
  659MOL0     C86869  -0.442   1.840   3.354 -0.9352  0.5177  0.5184
  659MOL0     C86870  -0.539   1.760   3.439  0.0753 -0.8359 -0.1281
  659MOL0     C86871  -0.633   1.864   3.502  0.3120  0.9281 -0.6231
  659MOL0     C86872  -0.715   1.815   3.626  0.1731 -0.7605  0.7020
  659MOL0     N86873  -0.813   1.707   3.590  0.4559 -0.5309 -0.2135
  659MOL0     C86874  -0.766   1.579   3.566  0.9585 -0.0235 -0.9531
  659MOL0     C86875  -0.878   1.507   3.516 -0.4982  0.1298 -0.5586
  659MOL0     C86876  -0.874   1.359   3.467  0.5740  0.8193  0.4382
  659MOL0     C86877  -0.945   1.272   3.569 -1.1118 -0.1387  0.1690
  659MOL0     C86878  -1.086   1.234   3.537 -1.1723  0.4366  0.4376
  659MOL0     C86879  -1.175   1.358   3.528  0.9187 -0.4137  0.0872
  659MOL0     O86880  -1.310   1.317   3.507 -0.7767  0.6271  0.0074
  659MOL0     C86881  -1.382   1.274   3.620 -0.7697  0.1163  0.5125
  659MOL0     C86882  -1.466   1.169   3.587  0.9036  0.1371 -0.4416
  659MOL0     C86883  -1.544   1.108   3.693  0.1561 -0.7187  0.5141
  659MOL0     C86884  -1.554   1.162   3.825 -0.5012 -0.2658 -0.4283
  659MOL0     C86885  -1.662   1.120   3.924 -0.3179  0.2797 -0.3949
  659MOL0     O86886  -1.753   1.023   3.874 -0.4530  0.5458 -0.5252
  659MOL0     C86887  -1.883   1.031   3.904  0.5473 -0.2305 -0.2258
  659MOL0     C86888  -1.933   0.958   4.006 -0.0686 -0.4474  1.1408
  659MOL0     C86889  -2.067   0.965   4.053  0.4718  0.2911  0.1826
  659MOL0     C86890  -2.150   1.047   3.977 -0.4395  0.1676  0.6989
  659MOL0     O86891  -2.283   1.077   3.999  0.2463  0.1414 -0.5826
  659MOL0     C86892  -2.291   1.110   4.135 -0.5761 -0.1254 -0.4620
  659MOL0     C86893  -2.406   1.213   4.145  0.5417 -0.5298  0.1225
  659MOL0     C86894  -2.539   1.150   4.100 -0.3568  0.3818  0.0758
  659MOL0     C86895  -2.644   1.167   4.218  0.6785 -0.9376 -0.0413
  659MOL0     C86896  -2.790   1.149   4.166 -0.4327 -0.0301  0.4486
  659MOL0     C86897  -2.909   1.187   4.267  0.0549  0.1197 -0.5030
  659MOL0     C86898  -2.901   1.082   4.374 -0.3506  0.1001  0.5054
  659MOL0     C86899  -3.021   1.085   4.472 -0.0316 -0.2417 -0.7327
  659MOL0    Cl86900  -3.041   1.249   4.549  0.1802 -0.2003 -0.2529
  659MOL0     C86901  -2.099   1.106   3.856  1.0008 -0.3122 -0.4381
  659MOL0     C86902  -1.971   1.095   3.816 -0.0885 -0.1704 -0.1403
  659MOL0     O86903  -1.675   1.183   4.027  1.3214  0.0390  0.1969
  659MOL0     C86904  -1.467   1.273   3.846  0.3414 -0.0130 -0.0650
  659MOL0     C86905  -1.382   1.334   3.745 -0.0402  0.2379 -0.4288
  659MOL0     N86906  -0.976   1.604   3.510 -0.1442 -0.3373 -0.0651
  659MOL0     N86907  -0.945   1.724   3.550  0.2761 -0.4132 -0.0947
  659MOL0     C86908   0.355   1.883   3.656 -0.7968  0.3999  0.9044
  659MOL0     C86909   0.487   1.837   3.641 -0.5832 -0.1942 -1.2065
  659MOL0     C86910   0.834   1.614   3.456  0.2794  0.2559 -0.3500
  659MOL0     C86911   0.905   1.536   3.363 -0.4394  0.6946 -0.1124
  659MOL0     C86912   1.041   1.548   3.348  0.5879  0.2614 -1.5425
  659MOL0     C86913   1.115   1.632   3.434 -0.4715  0.2509  0.7071
  659MOL0     O86914   1.257   1.616   3.413 -0.5479  0.1648  0.6449
  659MOL0     C86915   1.312   1.744   3.386 -0.7633 -0.0283 -0.1185
  659MOL0     C86916   1.447   1.731   3.327  0.2741  0.7517 -0.3656
  659MOL0     C86917   1.556   1.728   3.433 -0.1289  0.2390 -0.1986
  659MOL0     C86918   1.567   1.581   3.491  1.3147  0.0999 -0.0324
  659MOL0     C86919   1.613   1.479   3.400 -0.8647  0.2767 -0.3299
  659MOL0     C86920   1.659   1.394   3.332  0.2398  0.1351 -0.1918
  659MOL0     C86921   1.047   1.711   3.533 -1.6399  0.7106  0.0195
  659MOL0     C86922   0.908   1.695   3.547  0.2214 -0.1630  0.1646
  659MOL0     H86923   0.426   1.507   3.581  2.6562 -0.7071  2.3912
  659MOL0     H86924   0.186   1.589   3.600 -0.9035  1.1691  0.1290
  659MOL0     H86925  -0.003   1.682   3.643  2.5523 -1.0150 -0.5075
  659MOL0     H86926   0.047   1.767   3.484 -2.5883  3.7534 -1.2951
  659MOL0     H86927  -0.087   1.956   3.555 -0.9483  0.1747  0.5276
  659MOL0     H86928  -0.167   1.854   3.687 -4.0517  2.5376 -0.7536
  659MOL0     H86929  -0.235   1.709   3.502  0.3803 -1.5988 -1.0399
  659MOL0     H86930  -0.152   1.805   3.369 -1.4757  1.1544 -1.1041
  659MOL0     H86931  -0.373   1.934   3.536  2.7646  0.5189 -0.1099
  659MOL0     H86932  -0.297   1.993   3.393 -0.5733 -1.2528 -3.2205
  659MOL0     H86933  -0.398   1.780   3.274  2.2440  1.3377  1.4989
  659MOL0     H86934  -0.492   1.924   3.306  3.1692  2.5836 -0.5523
  659MOL0     H86935  -0.484   1.689   3.501 -0.3512 -1.8484 -0.8760
  659MOL0     H86936  -0.599   1.706   3.365 -0.0342  1.8924 -2.2158
  659MOL0     H86937  -0.584   1.957   3.533 -2.8504  3.3278 -2.2707
  659MOL0     H86938  -0.706   1.904   3.431 -3.0935 -0.2919  1.8959
  659MOL0     H86939  -0.780   1.894   3.665 -0.4019 -2.1198  2.6455
  659MOL0     H86940  -0.647   1.777   3.702  0.3408  1.1516  1.5718
  659MOL0     H86941  -0.664   1.544   3.582  1.5515  1.5897 -0.9953
  659MOL0     H86942  -0.777   1.316   3.439 -0.0197 -0.7307  0.6866
  659MOL0     H86943  -0.931   1.356   3.374  0.7137 -2.4042  0.3414
  659MOL0     H86944  -0.951   1.322   3.666  1.4014 -0.7732  0.7171
  659MOL0     H86945  -0.894   1.176   3.571 -0.4313  0.1067 -2.2982
  659MOL0     H86946  -1.089   1.171   3.448 -1.2091 -0.1125  0.8232
  659MOL0     H86947  -1.130   1.156   3.600 -0.8930  0.5079  0.7293
  659MOL0     H86948  -1.139   1.416   3.442  0.7262 -1.5753 -0.8078
  659MOL0     H86949  -1.164   1.420   3.618  0.3623 -3.5699  2.4932
  659MOL0     H86950  -1.471   1.132   3.485 -3.9360  1.0013 -0.7501
  659MOL0     H86951  -1.617   1.034   3.660 -0.4975 -0.3410  1.0786
  659MOL0     H86952  -1.863   0.890   4.052 -2.3473 -2.3679  2.0022
  659MOL0     H86953  -2.102   0.904   4.136  3.3179 -0.4930  0.9006
  659MOL0     H86954  -2.201   1.165   4.166 -2.7199  1.9342  2.6194
  659MOL0     H86955  -2.316   1.025   4.199 -1.5626  3.1105  3.8970
  659MOL0     H86956  -2.389   1.304   4.087 -3.4403  0.5771  0.4052
  659MOL0     H86957  -2.430   1.249   4.246 -1.7910 -0.9336 -0.2410
  659MOL0     H86958  -2.532   1.045   4.070 -0.1378  0.5915 -0.6289
  659MOL0     H86959  -2.559   1.207   4.009  2.3066  0.6241 -0.4248
  659MOL0     H86960  -2.623   1.092   4.294  1.4313 -2.0331 -1.3021
  659MOL0     H86961  -2.622   1.267   4.257  0.0717 -1.1540  0.8891
  659MOL0     H86962  -2.793   1.042   4.140  2.4760 -0.1339  0.2841
  659MOL0     H86963  -2.793   1.219   4.083  0.8276 -1.4364 -0.8542
  659MOL0     H86964  -3.006   1.190   4.217 -1.2668  1.6579  1.9811
  659MOL0     H86965  -2.898   1.287   4.309 -0.8073  0.1786 -0.4089
  659MOL0     H86966  -2.891   0.985   4.325  3.0894  0.5343  0.1276
  659MOL0     H86967  -2.812   1.090   4.437  1.7321  1.2244 -2.3488
  659MOL0     H86968  -3.004   1.009   4.548  0.8495  2.5611  2.0845
  659MOL0     H86969  -3.115   1.076   4.417 -0.7160  4.6913 -0.8211
  659MOL0     H86970  -2.163   1.171   3.797 -2.0832  0.4021  3.2849
  659MOL0     H86971  -1.928   1.141   3.728 -1.9348  2.4719  0.2284
  659MOL0     H86972  -1.461   1.331   3.937 -0.3392 -2.0267  1.3352
  659MOL0     H86973  -1.326   1.426   3.756 -1.2708  1.1974 -1.8541
  659MOL0     H86974   0.338   1.989   3.670  1.0932  0.6129  1.8707
  659MOL0     H86975   0.571   1.902   3.664  0.0904 -1.4130 -0.0598
  659MOL0     H86976   0.847   1.469   3.300 -1.5291  0.9096  0.6359
  659MOL0     H86977   1.089   1.475   3.284  0.0127 -0.5341 -1.0749
  659MOL0     H86978   1.299   1.809   3.473  0.0543 -1.5240  1.1658
  659MOL0     H86979   1.251   1.791   3.309 -1.4334  1.3727  1.2184
  659MOL0     H86980   1.455   1.647   3.256  1.6661  0.6254 -0.0754
  659MOL0     H86981   1.455   1.828   3.277 -1.4385  1.4990  0.7309
  659MOL0     H86982   1.532   1.797   3.514 -0.8167 -2.7158  2.3458
  659MOL0     H86983   1.656   1.758   3.402 -0.6221 -1.6983 -4.3521
  659MOL0     H86984   1.626   1.599   3.582  0.5454  0.5139  0.4003
  659MOL0     H86985   1.470   1.547   3.529  1.0645  1.0111  0.1903
  659MOL0     H86986   1.691   1.310   3.274  1.1869 -0.7932  1.5703
  659MOL0     H86987   1.120   1.769   3.587  1.1109 -2.9768  0.6538
  659MOL0     H86988   0.853   1.747   3.624 -1.2385 -0.4768 -0.6195
  660MOL0     O86989   3.070   4.607   5.814  0.0266  0.3115  0.4417
  660MOL0     C86990   3.132   4.562   5.906 -0.1078  1.1609 -0.1461
  660MOL0     O86991   3.087   4.451   5.979 -0.6123 -0.5806 -0.8099
  660MOL0     C86992   2.966   4.391   5.950  0.2084  0.1853 -0.9401
  660MOL0     C86993   2.955   4.253   5.951 -0.4344 -0.0745  0.7136
  660MOL0     C86994   2.835   4.183   5.922  0.4892 -0.1560 -0.5557
  660MOL0     C86995   2.711   4.257   5.906  0.8148 -0.4715 -0.3769
  660MOL0     O86996   2.591   4.202   5.880 -0.1118  0.4255 -0.8752
  660MOL0     C86997   2.588   4.063   5.849  0.3744 -0.5229 -0.2405
  660MOL0     C86998   2.546   3.981   5.971  0.8537  0.1534  0.2522
  660MOL0     C86999   2.406   4.026   6.021 -1.3068  0.2223  0.3790
  660MOL0     C87000   2.348   3.936   6.126 -0.2648 -0.4666  0.0559
  660MOL0     C87001   2.216   3.993   6.170  0.0282  0.1189  0.2194
  660MOL0     C87002   2.159   3.926   6.290 -0.5187  0.1115 -0.5374
  660MOL0     C87003   2.047   4.011   6.350 -0.4419  1.0257 -0.2703
  660MOL0     C87004   1.926   4.022   6.263 -0.5744  1.4145  0.5986
  660MOL0     N87005   1.804   4.056   6.338  0.1578 -1.0805  0.0006
  660MOL0     C87006   1.738   4.182   6.314 -0.9147 -0.3677  0.0188
  660MOL0     C87007   1.668   4.197   6.426  0.6292 -0.0399  0.3809
  660MOL0     C87008   1.569   4.311   6.458 -0.1203  1.0166  0.2618
  660MOL0     C87009   1.440   4.292   6.386  0.1607 -0.2353  0.1920
  660MOL0     C87010   1.345   4.409   6.426 -0.0155  0.8384 -0.0478
  660MOL0     C87011   1.211   4.405   6.349  0.2635 -0.3622  0.8970
  660MOL0     O87012   1.234   4.485   6.233 -0.3745  0.5507 -0.0877
  660MOL0     C87013   1.141   4.452   6.146  0.8194  0.7231  0.3925
  660MOL0     C87014   1.165   4.359   6.047 -0.5351 -0.6770 -0.7679
  660MOL0     C87015   1.062   4.321   5.953  0.1510  0.3542  0.1401
  660MOL0     C87016   0.932   4.373   5.960  0.3627  0.2826  0.2607
  660MOL0     C87017   0.814   4.327   5.875  0.0442  0.0903  0.5216
  660MOL0     O87018   0.695   4.388   5.889  0.5079  0.2980  0.3676
  660MOL0     C87019   0.589   4.377   5.806 -0.1875  0.2044 -0.1709
  660MOL0     C87020   0.482   4.459   5.849  0.2515  0.3980 -0.2514
  660MOL0     C87021   0.373   4.478   5.761 -0.6792  0.8803 -0.2650
  660MOL0     C87022   0.367   4.404   5.635 -0.7184 -0.6838 -0.6748
  660MOL0     O87023   0.272   4.415   5.542  0.1127  0.0395  0.6199
  660MOL0     C87024   0.214   4.541   5.510 -0.0340 -0.0215  0.5080
  660MOL0     C87025   0.316   4.635   5.436  0.6203  0.2307  0.2169
  660MOL0     C87026   0.322   4.609   5.285 -0.1051 -0.2229  0.3641
  660MOL0     C87027   0.195   4.622   5.194  0.4636 -0.1624  0.6187
  660MOL0     C87028   0.243   4.602   5.050  0.4959 -0.5911 -1.0273
  660MOL0     C87029   0.135   4.602   4.947  0.7072  0.3640  0.3311
  660MOL0     C87030   0.191   4.550   4.815  0.0089 -1.4251 -0.1786
  660MOL0     C87031   0.086   4.499   4.731  1.0288  0.4064 -0.3600
  660MOL0    Cl87032   0.157   4.443   4.579 -0.1122  0.0410 -0.2005
  660MOL0     C87033   0.478   4.337   5.599 -0.9949  0.4975 -0.1735
  660MOL0     C87034   0.587   4.317   5.681  0.8975  0.9219  0.4206
  660MOL0     O87035   0.833   4.232   5.797  0.1832  0.6069  0.1264
  660MOL0     C87036   0.914   4.482   6.048 -0.1824 -0.1877  0.0978
  660MOL0     C87037   1.012   4.519   6.144  0.6124  1.2412 -0.2377
  660MOL0     N87038   1.680   4.077   6.504 -0.8463 -0.1657  0.1133
  660MOL0     N87039   1.747   3.987   6.442  0.1552 -0.0651  0.2012
  660MOL0     C87040   2.710   4.396   5.921 -0.3357  0.2766  0.5647
  660MOL0     C87041   2.841   4.461   5.932  0.1045 -0.3622 -0.1507
  660MOL0     C87042   3.252   4.626   5.962  0.3961 -0.3969  0.1290
  660MOL0     C87043   3.321   4.582   6.070 -0.1431  0.2270  0.4090
  660MOL0     C87044   3.421   4.654   6.142  0.3654 -0.6850 -0.5040
  660MOL0     C87045   3.465   4.773   6.092 -0.2458 -1.1198  0.6996
  660MOL0     O87046   3.565   4.852   6.149 -0.1787  0.0565 -0.3044
  660MOL0     C87047   3.659   4.924   6.068  0.4004  0.6809  0.0230
  660MOL0     C87048   3.738   4.812   5.994 -0.3279  0.7696 -0.0900
  660MOL0     C87049   3.686   4.781   5.850 -0.7843 -0.0830  0.5656
  660MOL0     C87050   3.640   4.639   5.828  0.1137 -0.5846 -0.2982
  660MOL0     C87051   3.735   4.535   5.845 -0.3084  0.7053  1.1736
  660MOL0     C87052   3.820   4.453   5.860  0.3117 -0.1228  0.5236
  660MOL0     C87053   3.395   4.826   5.975 -0.4764  0.5036 -0.5846
  660MOL0     C87054   3.294   4.756   5.912 -0.2437  0.1408 -0.0982
  660MOL0     H87055   3.043   4.193   5.968 -0.1115 -0.5386 -2.1288
  660MOL0     H87056   2.831   4.074   5.922 -0.6499 -0.1271 -0.7768
  660MOL0     H87057   2.680   4.021   5.809  1.0943  0.1657  0.6608
  660MOL0     H87058   2.517   4.048   5.767  1.7676 -0.3431 -1.5206
  660MOL0     H87059   2.615   3.979   6.056  0.9702 -3.2938  0.2079
  660MOL0     H87060   2.525   3.878   5.939  1.2352  0.6415 -1.6823
  660MOL0     H87061   2.346   4.030   5.930  1.5624  2.6093 -1.5844
  660MOL0     H87062   2.416   4.128   6.061  0.6395  0.0008  0.5303
  660MOL0     H87063   2.327   3.835   6.090  0.6675 -1.4760  2.1639
  660MOL0     H87064   2.421   3.924   6.207 -0.4134  0.1480  0.2873
  660MOL0     H87065   2.139   3.979   6.094  0.2009  0.9033 -0.1126
  660MOL0     H87066   2.231   4.099   6.192  0.9877  0.6311 -2.6025
  660MOL0     H87067   2.238   3.905   6.363 -1.3130  1.4932  0.7682
  660MOL0     H87068   2.129   3.825   6.258  1.9663 -0.6161 -0.7743
  660MOL0     H87069   2.022   3.968   6.448  2.4220  2.2488  1.0995
  660MOL0     H87070   2.075   4.115   6.370 -0.9799  1.1046  0.1047
  660MOL0     H87071   1.898   3.923   6.224  0.9099  1.3127 -0.2870
  660MOL0     H87072   1.939   4.091   6.180  2.1307  0.1558 -0.1648
  660MOL0     H87073   1.745   4.240   6.223 -0.3108  2.0488  1.5052
  660MOL0     H87074   1.612   4.404   6.421  2.2336 -0.6508 -1.4844
  660MOL0     H87075   1.548   4.319   6.565 -2.3125 -0.1236 -0.0157
  660MOL0     H87076   1.402   4.192   6.407  1.9558 -0.9765  0.0948
  660MOL0     H87077   1.465   4.297   6.280 -0.0562 -0.0255  0.1512
  660MOL0     H87078   1.329   4.413   6.534  0.5124  1.5956  0.0123
  660MOL0     H87079   1.395   4.503   6.400  2.5293  0.0916  1.7623
  660MOL0     H87080   1.134   4.455   6.409  0.4908  3.5370 -1.6788
  660MOL0     H87081   1.181   4.307   6.311 -1.0443  0.5315 -0.4958
  660MOL0     H87082   1.267   4.324   6.035 -1.1770 -2.6444 -0.9224
  660MOL0     H87083   1.087   4.240   5.885 -0.8319 -1.1272  1.4761
  660MOL0     H87084   0.475   4.513   5.943  0.4618 -1.1220  0.6767
  660MOL0     H87085   0.282   4.527   5.797 -0.8509 -1.5584  3.1368
  660MOL0     H87086   0.184   4.577   5.609 -6.7270  1.7628 -1.6021
  660MOL0     H87087   0.117   4.541   5.458  0.7619 -1.4301 -1.0359
  660MOL0     H87088   0.418   4.617   5.470  1.0056  1.0595 -0.4388
  660MOL0     H87089   0.285   4.738   5.458 -1.6878 -0.4261  0.3215
  660MOL0     H87090   0.337   4.501   5.277 -0.4184 -0.3563  1.4676
  660MOL0     H87091   0.400   4.668   5.237 -1.3166 -0.3339 -1.8816
  660MOL0     H87092   0.120   4.549   5.224  0.6999  0.1389  1.9912
  660MOL0     H87093   0.142   4.716   5.211  2.1106  0.5535  2.2376
  660MOL0     H87094   0.282   4.499   5.046  0.0925 -0.8951  1.2233
  660MOL0     H87095   0.315   4.681   5.028  0.5848 -0.5493 -0.5916
  660MOL0     H87096   0.102   4.703   4.921  2.2360  0.3338 -2.0420
  660MOL0     H87097   0.050   4.542   4.981  0.9635  0.3383  0.9410
  660MOL0     H87098   0.232   4.631   4.754 -2.0551 -2.4431 -3.1738
  660MOL0     H87099   0.260   4.466   4.828  1.5870  0.0524  1.4926
  660MOL0     H87100   0.000   4.566   4.723 -1.1853 -1.0914  5.4618
  660MOL0     H87101   0.028   4.417   4.774  0.8023  0.6591 -0.1724
  660MOL0     H87102   0.474   4.266   5.517  0.5562  0.5785 -0.3446
  660MOL0     H87103   0.659   4.251   5.633  0.3342  2.0752 -2.1820
  660MOL0     H87104   0.815   4.527   6.052  1.4569  4.5837 -3.2800
  660MOL0     H87105   0.984   4.599   6.212  3.2569  1.9993  0.0551
  660MOL0     H87106   2.619   4.454   5.907 -0.2672  0.0652 -0.9893
  660MOL0     H87107   2.850   4.566   5.954 -2.4922 -0.3632  1.3132
  660MOL0     H87108   3.286   4.490   6.115 -0.1325  0.4409  0.8579
  660MOL0     H87109   3.473   4.630   6.235  1.2809  0.2362 -0.7510
  660MOL0     H87110   3.730   4.985   6.123 -0.5733  2.0512 -0.1868
  660MOL0     H87111   3.606   4.986   5.995 -0.7587 -0.1551  0.1288
  660MOL0     H87112   3.844   4.837   5.984  0.1034 -0.5534  0.8417
  660MOL0     H87113   3.744   4.722   6.056  1.5083  1.0643  0.2172
  660MOL0     H87114   3.767   4.811   5.782 -1.9565  4.2826  0.7625
  660MOL0     H87115   3.610   4.855   5.822  0.5474  0.0635 -3.2251
  660MOL0     H87116   3.545   4.619   5.877  1.4131  0.5082  2.8852
  660MOL0     H87117   3.610   4.635   5.723 -0.5041  0.8098 -0.1851
  660MOL0     H87118   3.903   4.386   5.858 -0.6574 -1.3468  0.4522
  660MOL0     H87119   3.410   4.931   5.950 -0.8497  1.4557  2.7178
  660MOL0     H87120   3.238   4.806   5.834  1.2611  0.0787 -1.2439
  661MOL0     O87121   3.055   5.262   7.681 -0.2630 -0.2575  0.1453
  661MOL0     C87122   3.039   5.263   7.804 -1.1699 -0.9714 -0.5311
  661MOL0     O87123   2.983   5.357   7.881 -0.0932 -0.2518 -0.1844
  661MOL0     C87124   2.918   5.461   7.818 -0.3290  0.3928  0.5987
  661MOL0     C87125   2.948   5.593   7.860 -0.2134  0.5954  0.2162
  661MOL0     C87126   2.893   5.706   7.807 -0.2634  0.0698 -0.0630
  661MOL0     C87127   2.818   5.692   7.691  0.6648  1.1786 -0.0977
  661MOL0     O87128   2.782   5.802   7.634  0.4241  0.1843  0.8234
  661MOL0     C87129   2.651   5.804   7.574 -0.0925 -0.3187 -0.0266
  661MOL0     C87130   2.636   5.949   7.510 -0.4159  0.8763  0.5178
  661MOL0     C87131   2.500   5.970   7.451  0.1269  0.1384  0.6594
  661MOL0     C87132   2.490   6.103   7.381  0.9023 -0.5231 -0.2361
  661MOL0     C87133   2.356   6.115   7.307  1.0989 -0.0682  0.6587
  661MOL0     C87134   2.365   6.211   7.192  0.0707  0.6108 -0.1203
  661MOL0     C87135   2.357   6.363   7.228  1.2754  0.0341 -1.1265
  661MOL0     C87136   2.219   6.426   7.265  0.4787 -0.6031  0.4474
  661MOL0     N87137   2.146   6.458   7.142  0.3328 -0.6628 -0.2832
  661MOL0     C87138   2.110   6.585   7.099  0.5634  0.0372 -0.0410
  661MOL0     C87139   2.042   6.573   6.986 -0.5213 -0.2612 -0.8107
  661MOL0     C87140   1.978   6.694   6.927 -0.2929  0.1147  0.7692
  661MOL0     C87141   2.075   6.783   6.851  0.3826 -0.3896  0.4031
  661MOL0     C87142   2.167   6.703   6.759 -0.3443  0.5928  0.4618
  661MOL0     C87143   2.266   6.795   6.682  0.5194 -0.4726 -0.0609
  661MOL0     O87144   2.187   6.874   6.591 -0.1662 -0.3475 -0.6959
  661MOL0     C87145   2.233   6.884   6.463 -0.8807 -0.7079  1.3333
  661MOL0     C87146   2.152   6.850   6.354 -0.1245  0.2765 -0.6349
  661MOL0     C87147   2.198   6.850   6.218  0.1057 -0.2682 -0.7469
  661MOL0     C87148   2.334   6.875   6.182  0.3687 -0.4126 -0.1043
  661MOL0     C87149   2.379   6.857   6.034  0.2401 -0.3926 -0.3402
  661MOL0     O87150   2.279   6.819   5.945  1.0527  0.1090  0.0787
  661MOL0     C87151   2.292   6.813   5.809 -1.1017 -0.2540  0.6246
  661MOL0     C87152   2.404   6.857   5.733  0.1140  0.1080  0.7775
  661MOL0     C87153   2.425   6.825   5.598  1.3544  0.1947 -1.0853
  661MOL0     C87154   2.334   6.746   5.529  1.0562  0.4672  0.0036
  661MOL0     O87155   2.353   6.736   5.394  0.0159 -0.3987  0.2120
  661MOL0     C87156   2.261   6.676   5.309 -0.1961 -1.2153  0.2136
  661MOL0     C87157   2.256   6.524   5.318  0.2439  0.2827  0.3043
  661MOL0     C87158   2.140   6.452   5.243  0.1735  0.0512 -0.4421
  661MOL0     C87159   1.998   6.493   5.289  0.0097 -0.2534  0.2317
  661MOL0     C87160   1.886   6.401   5.223 -0.2486 -0.7902 -0.0161
  661MOL0     C87161   1.859   6.267   5.280  0.3530  0.7871 -0.1319
  661MOL0     C87162   1.788   6.178   5.178 -0.0608 -0.3766 -0.5247
  661MOL0     C87163   1.786   6.034   5.218  0.2933  1.4798 -0.3884
  661MOL0    Cl87164   1.652   6.016   5.338 -0.0613  0.0010 -0.0230
  661MOL0     C87165   2.213   6.713   5.601 -0.2614 -0.2579 -0.0775
  661MOL0     C87166   2.205   6.731   5.737 -0.7259 -0.4867  0.3940
  661MOL0     O87167   2.497   6.884   6.010 -0.2119 -0.5450 -0.2871
  661MOL0     C87168   2.419   6.912   6.284 -1.1679 -0.1773  0.6600
  661MOL0     C87169   2.368   6.914   6.414 -0.0662 -0.2027 -0.2289
  661MOL0     N87170   2.040   6.442   6.944 -0.6040 -0.3310  0.4099
  661MOL0     N87171   2.092   6.373   7.040 -0.1096  0.1027 -1.3069
  661MOL0     C87172   2.791   5.561   7.637  0.4093 -0.7652 -0.6332
  661MOL0     C87173   2.835   5.449   7.704 -0.5678 -0.0640  0.0159
  661MOL0     C87174   3.104   5.159   7.884 -0.0838  0.0523  0.7676
  661MOL0     C87175   3.184   5.066   7.816 -0.3978  0.7493 -0.5242
  661MOL0     C87176   3.236   4.959   7.894 -0.7021 -0.4303 -0.8423
  661MOL0     C87177   3.205   4.941   8.027 -1.1058  0.3647 -0.4156
  661MOL0     O87178   3.259   4.835   8.097  0.4444  0.2401  0.4525
  661MOL0     C87179   3.251   4.830   8.238 -0.1738 -0.6593  0.0463
  661MOL0     C87180   3.335   4.713   8.285  0.6256  1.2662 -0.5276
  661MOL0     C87181   3.274   4.574   8.228  0.5769  0.7552 -0.7760
  661MOL0     C87182   3.353   4.455   8.279 -0.3627  0.1923 -0.4869
  661MOL0     C87183   3.493   4.443   8.240  0.3495 -0.6481 -0.7510
  661MOL0     C87184   3.608   4.456   8.201 -0.1614 -0.0804  0.4581
  661MOL0     C87185   3.136   5.045   8.099  0.6990  0.3773  0.3872
  661MOL0     C87186   3.098   5.158   8.021  1.1467  0.7022  0.8813
  661MOL0     H87187   3.004   5.598   7.953 -1.5462  1.2392  1.0251
  661MOL0     H87188   2.915   5.806   7.842 -6.6048  1.5086  0.9476
  661MOL0     H87189   2.578   5.805   7.655  0.0359 -3.8068  0.3045
  661MOL0     H87190   2.631   5.725   7.501  0.6542  1.0499 -1.7870
  661MOL0     H87191   2.694   5.958   7.417 -2.3913 -0.6800 -0.9582
  661MOL0     H87192   2.657   6.027   7.583  0.9377 -1.3107  2.6056
  661MOL0     H87193   2.420   5.960   7.526  0.1999 -0.3222  0.6728
  661MOL0     H87194   2.490   5.893   7.375  2.6164  0.5768 -0.1919
  661MOL0     H87195   2.494   6.172   7.466  3.8440 -1.9310  0.8975
  661MOL0     H87196   2.573   6.137   7.319 -0.5396  2.5768 -0.6479
  661MOL0     H87197   2.275   6.137   7.377  1.5110 -0.3658  1.2382
  661MOL0     H87198   2.324   6.017   7.272  1.8840 -0.5181  1.1661
  661MOL0     H87199   2.283   6.189   7.123 -0.6549 -1.1386  1.2393
  661MOL0     H87200   2.454   6.182   7.134  1.1199 -1.6139  2.3971
  661MOL0     H87201   2.419   6.389   7.315 -3.6633 -0.9346  3.1989
  661MOL0     H87202   2.405   6.420   7.148  1.2588  2.5948  0.5596
  661MOL0     H87203   2.227   6.519   7.322  0.9074 -1.7459  2.3630
  661MOL0     H87204   2.161   6.354   7.324 -3.5245  1.4700 -0.6042
  661MOL0     H87205   2.108   6.680   7.151 -1.4686  0.3316 -0.5810
  661MOL0     H87206   1.931   6.743   7.013 -0.5167 -1.1230  1.3701
  661MOL0     H87207   1.893   6.662   6.866  1.2777 -3.3648  0.1742
  661MOL0     H87208   2.133   6.843   6.921 -1.0314  2.0791 -0.4003
  661MOL0     H87209   2.019   6.849   6.783  2.9854  1.1026 -0.4529
  661MOL0     H87210   2.226   6.626   6.810  0.1498  0.4375 -0.3239
  661MOL0     H87211   2.118   6.654   6.675  0.4804  0.3926  0.0901
  661MOL0     H87212   2.343   6.733   6.636  3.0683  0.3892  2.7554
  661MOL0     H87213   2.322   6.847   6.760 -2.9447 -0.3077  2.5776
  661MOL0     H87214   2.048   6.830   6.379  0.9140 -1.0224  3.2975
  661MOL0     H87215   2.123   6.815   6.148  0.7525 -1.2103 -0.9903
  661MOL0     H87216   2.480   6.911   5.788 -0.5166  2.4147 -0.4739
  661MOL0     H87217   2.504   6.879   5.547 -0.3074  2.3523 -1.5447
  661MOL0     H87218   2.289   6.699   5.206  0.6150 -4.0792 -0.2910
  661MOL0     H87219   2.169   6.730   5.335  0.3397  1.0033 -2.0421
  661MOL0     H87220   2.248   6.495   5.423  2.5320  2.3340  1.1473
  661MOL0     H87221   2.346   6.472   5.285 -0.3708 -0.7056  0.1390
  661MOL0     H87222   2.144   6.345   5.262 -2.5928 -0.2364 -0.9712
  661MOL0     H87223   2.143   6.461   5.134 -1.1051  1.5637 -0.3917
  661MOL0     H87224   1.984   6.487   5.397 -1.9193  2.5212  0.2449
  661MOL0     H87225   1.988   6.596   5.252  0.2800  0.2451  1.4856
  661MOL0     H87226   1.920   6.396   5.120  2.1953 -1.7100  0.7702
  661MOL0     H87227   1.790   6.453   5.228 -0.1192 -0.2558 -2.1431
  661MOL0     H87228   1.799   6.269   5.372  1.4172  0.9058  0.5751
  661MOL0     H87229   1.959   6.228   5.299 -0.1457 -0.6777 -0.3465
  661MOL0     H87230   1.684   6.202   5.153  0.5906  0.9837 -2.0732
  661MOL0     H87231   1.835   6.191   5.080  0.2790 -0.9947 -0.4535
  661MOL0     H87232   1.884   6.005   5.257  0.7276 -3.2616 -4.0726
  661MOL0     H87233   1.768   5.961   5.138  0.1760 -0.9922  1.7415
  661MOL0     H87234   2.129   6.662   5.555 -2.2294  3.3591 -0.8553
  661MOL0     H87235   2.122   6.692   5.796 -0.2623 -3.9233 -0.9652
  661MOL0     H87236   2.526   6.930   6.276 -1.5657  1.4691 -2.0307
  661MOL0     H87237   2.432   6.943   6.496 -1.2835  1.2476  0.2559
  661MOL0     H87238   2.725   5.538   7.554  0.8547 -3.9270 -0.2251
  661MOL0     H87239   2.789   5.354   7.679  0.4320 -0.6535  0.3483
  661MOL0     H87240   3.216   5.076   7.713 -0.0325  1.6368 -0.3297
  661MOL0     H87241   3.301   4.887   7.845 -0.0107 -0.3172 -0.1181
  661MOL0     H87242   3.147   4.828   8.272  0.3715  3.1609  2.6296
  661MOL0     H87243   3.296   4.922   8.276 -3.2509  2.7074 -3.6433
  661MOL0     H87244   3.439   4.720   8.253  0.6974 -0.2019 -0.6680
  661MOL0     H87245   3.334   4.705   8.394  1.5858 -0.0950 -0.5988
  661MOL0     H87246   3.283   4.573   8.119  1.1530  3.1333 -0.8092
  661MOL0     H87247   3.171   4.558   8.260  1.3382 -0.7932  1.1251
  661MOL0     H87248   3.345   4.454   8.388 -0.8188  0.1856 -0.5197
  661MOL0     H87249   3.302   4.361   8.255 -2.7302 -0.2535  4.8535
  661MOL0     H87250   3.711   4.457   8.173 -0.6589 -0.3624 -1.5709
  661MOL0     H87251   3.112   5.039   8.205  0.4401  0.1778  0.3190
  661MOL0     H87252   3.046   5.243   8.063  1.6215  2.4284 -1.7354
  662MOL0     O87253   3.791   0.651  10.435  0.3818 -0.5366 -0.0330
  662MOL0     C87254   3.850   0.669  10.543  0.4050 -0.0492 -1.3993
  662MOL0     O87255   3.987   0.661  10.568 -0.2920 -0.0232  0.4019
  662MOL0     C87256   4.070   0.617  10.471 -0.0086 -0.0951 -0.2922
  662MOL0     C87257   4.177   0.699  10.450  0.1187 -1.1968  0.2997
  662MOL0     C87258   4.279   0.664  10.359  0.2912 -0.1424 -1.2485
  662MOL0     C87259   4.272   0.547  10.282  0.0888 -0.4140  0.4580
  662MOL0     O87260   4.352   0.504  10.178  0.3267 -0.5397  0.3580
  662MOL0     C87261   4.457   0.592  10.129  0.0396 -0.4838 -0.1316
  662MOL0     C87262   4.550   0.512  10.033 -0.0168 -0.4939 -0.2537
  662MOL0     C87263   4.694   0.560  10.036  0.0235  0.0096  0.1813
  662MOL0     C87264   4.712   0.662   9.920 -0.6741  0.0778  0.2521
  662MOL0     C87265   4.855   0.733   9.906 -0.7465 -0.4619 -0.6321
  662MOL0     C87266   4.974   0.635   9.878  0.4557 -0.0737  0.6449
  662MOL0     C87267   5.096   0.711   9.835  0.7646  1.9389 -0.1768
  662MOL0     C87268   5.226   0.645   9.819 -0.2934  0.4166 -0.6902
  662MOL0     N87269   5.329   0.724   9.752 -1.1667  0.1804  0.2704
  662MOL0     C87270   5.355   0.845   9.796  0.5239 -0.0573  0.2566
  662MOL0     C87271   5.446   0.888   9.708  0.1581 -0.2329 -0.2832
  662MOL0     C87272   5.518   1.030   9.713  0.5922  0.8721  0.2610
  662MOL0     C87273   5.675   1.006   9.713  0.3089 -0.2649  0.0938
  662MOL0     C87274   5.732   1.134   9.746 -0.6909 -0.2037 -0.3901
  662MOL0     C87275   5.691   1.242   9.642 -0.1952 -0.0541 -0.4627
  662MOL0     O87276   5.742   1.361   9.698  0.2358 -0.0224  0.1167
  662MOL0     C87277   5.844   1.415   9.630 -0.6009  0.4931  1.6066
  662MOL0     C87278   5.825   1.536   9.555 -0.8404  0.2362  0.4910
  662MOL0     C87279   5.927   1.597   9.490  0.1731 -0.4675 -0.7276
  662MOL0     C87280   6.058   1.538   9.491  0.2353 -1.5524 -0.6556
  662MOL0     C87281   6.179   1.582   9.410 -0.2478 -0.5577  0.0309
  662MOL0     O87282   6.152   1.622   9.281 -0.6000 -0.7951  0.2658
  662MOL0     C87283   6.240   1.680   9.197 -0.0317  0.1594 -0.0615
  662MOL0     C87284   6.231   1.821   9.185 -0.0454  0.4192 -0.4970
  662MOL0     C87285   6.305   1.893   9.093 -0.3709  0.6469 -1.3284
  662MOL0     C87286   6.384   1.818   9.007 -0.5592  0.3685 -0.7618
  662MOL0     O87287   6.451   1.884   8.909 -0.0450 -0.1627 -0.1228
  662MOL0     C87288   6.564   1.818   8.850  0.0022 -0.0857  0.7431
  662MOL0     C87289   6.635   1.914   8.743 -0.4751  0.4753  0.5910
  662MOL0     C87290   6.669   2.053   8.790  0.9763 -0.8175 -0.7634
  662MOL0     C87291   6.754   2.144   8.698 -0.1729 -0.1807 -0.5067
  662MOL0     C87292   6.677   2.177   8.575 -0.4027 -1.8589  0.3181
  662MOL0     C87293   6.590   2.310   8.574  0.3850 -0.1414 -0.6026
  662MOL0     C87294   6.548   2.369   8.707 -0.9531 -0.6642  0.6214
  662MOL0     C87295   6.528   2.524   8.717 -0.4080  0.1723  0.4385
  662MOL0    Cl87296   6.362   2.534   8.628  0.4758  0.1715 -0.3024
  662MOL0     C87297   6.376   1.673   9.011 -0.0229 -0.4893  0.3345
  662MOL0     C87298   6.316   1.611   9.120  0.4264  0.1456  1.1197
  662MOL0     O87299   6.289   1.602   9.470  0.4165 -0.0204 -0.1894
  662MOL0     C87300   6.072   1.416   9.565 -0.4938  0.6134 -0.0082
  662MOL0     C87301   5.967   1.354   9.621 -0.9409  0.3560  0.1724
  662MOL0     N87302   5.474   0.790   9.614 -0.1306 -0.3299  0.2503
  662MOL0     N87303   5.393   0.695   9.635 -1.0313  0.4492 -0.5749
  662MOL0     C87304   4.165   0.462  10.310 -0.3678  0.2032 -0.1527
  662MOL0     C87305   4.067   0.495  10.406 -0.1322  0.1023  0.4888
  662MOL0     C87306   3.774   0.713  10.658  0.3960  0.8665 -1.0692
  662MOL0     C87307   3.633   0.717  10.646  0.2478 -0.6930 -0.6966
  662MOL0     C87308   3.564   0.753  10.765  0.4273 -0.1423  0.9181
  662MOL0     C87309   3.624   0.795  10.883 -0.4112  0.0038  1.2022
  662MOL0     O87310   3.565   0.822  11.000 -0.5983 -0.0273 -0.0086
  662MOL0     C87311   3.427   0.856  11.010 -0.5068 -0.5096 -0.0190
  662MOL0     C87312   3.405   0.962  11.115  0.1279 -0.4409 -0.2544
  662MOL0     C87313   3.395   0.902  11.258 -1.0730  1.7855 -0.3780
  662MOL0     C87314   3.371   0.993  11.372 -0.2309 -1.1017 -0.0477
  662MOL0     C87315   3.482   1.094  11.383 -0.0860  0.6416 -0.5961
  662MOL0     C87316   3.570   1.173  11.398 -0.0551 -0.9573  0.1971
  662MOL0     C87317   3.759   0.779  10.889  0.0775 -0.8673 -0.7452
  662MOL0     C87318   3.842   0.738  10.782  0.2857  0.1893  0.0714
  662MOL0     H87319   4.187   0.793  10.502 -0.3846 -1.0404  0.1113
  662MOL0     H87320   4.368   0.726  10.350  0.0734 -0.1076 -4.0163
  662MOL0     H87321   4.515   0.619  10.217 -0.5937  2.3350 -0.4586
  662MOL0     H87322   4.429   0.683  10.073 -0.3370 -0.6684 -0.2514
  662MOL0     H87323   4.513   0.512   9.930  1.1022  0.2956 -0.6694
  662MOL0     H87324   4.535   0.412  10.076 -6.2467 -0.3424 -1.0372
  662MOL0     H87325   4.768   0.482  10.018  0.8565  0.6994  0.5273
  662MOL0     H87326   4.721   0.604  10.133  0.9676  0.8735 -0.4438
  662MOL0     H87327   4.689   0.609   9.827  2.0372 -1.2506  0.2370
  662MOL0     H87328   4.634   0.739   9.922 -0.2511  0.6728 -2.2104
  662MOL0     H87329   4.884   0.771  10.005  1.6829  1.2719 -1.9203
  662MOL0     H87330   4.857   0.820   9.840 -0.3822  0.7655  0.9300
  662MOL0     H87331   4.941   0.565   9.800  4.2651 -0.2678 -1.0448
  662MOL0     H87332   5.001   0.594   9.976  0.3906 -0.5876  0.4552
  662MOL0     H87333   5.066   0.759   9.741  1.8020  0.2586 -1.4154
  662MOL0     H87334   5.103   0.789   9.912 -1.0955  1.1535  0.8538
  662MOL0     H87335   5.209   0.560   9.752  1.3804  0.6254 -1.4174
  662MOL0     H87336   5.260   0.605   9.915  1.4371 -1.2090 -1.8966
  662MOL0     H87337   5.316   0.895   9.884 -4.1231 -0.2775 -1.4057
  662MOL0     H87338   5.483   1.088   9.799  0.1282  1.8169 -0.5449
  662MOL0     H87339   5.490   1.096   9.631  3.8021  1.7814 -0.2253
  662MOL0     H87340   5.714   0.984   9.613 -1.1643  0.2894 -0.6394
  662MOL0     H87341   5.716   0.936   9.786  0.9245  1.7771  1.8000
  662MOL0     H87342   5.699   1.172   9.843 -0.1320  0.4896 -0.4572
  662MOL0     H87343   5.841   1.129   9.745 -0.6362  0.7814 -0.2945
  662MOL0     H87344   5.584   1.260   9.631 -0.0250  1.7735  0.4801
  662MOL0     H87345   5.734   1.200   9.551  4.4656 -2.0061  2.2605
  662MOL0     H87346   5.723   1.571   9.541 -1.1276  0.0618  1.9989
  662MOL0     H87347   5.918   1.692   9.438  3.3021  0.3998  0.0521
  662MOL0     H87348   6.175   1.873   9.262 -0.5837 -0.1339 -0.5077
  662MOL0     H87349   6.306   2.001   9.078 -0.3263  0.9890  0.8441
  662MOL0     H87350   6.523   1.741   8.785 -1.2411  1.2452 -0.1336
  662MOL0     H87351   6.632   1.773   8.922  0.3235  1.3450  1.3768
  662MOL0     H87352   6.561   1.915   8.662  0.0246  2.5763  0.0942
  662MOL0     H87353   6.728   1.871   8.703 -1.6993 -0.5650 -1.2834
  662MOL0     H87354   6.717   2.028   8.885 -1.7964 -1.1960  0.6532
  662MOL0     H87355   6.577   2.103   8.824  2.3644 -0.2253  2.5139
  662MOL0     H87356   6.782   2.231   8.758 -0.3293  1.1628 -2.2675
  662MOL0     H87357   6.843   2.087   8.673 -1.9037 -1.7584 -3.7159
  662MOL0     H87358   6.618   2.088   8.551 -0.8411 -2.0495  1.9706
  662MOL0     H87359   6.749   2.196   8.494 -0.8248 -0.6401  0.2079
  662MOL0     H87360   6.499   2.288   8.517  0.5707 -1.2083 -0.5091
  662MOL0     H87361   6.643   2.390   8.522 -0.5559  0.7102 -0.2834
  662MOL0     H87362   6.451   2.324   8.730 -1.6552  1.2155  1.5849
  662MOL0     H87363   6.619   2.350   8.788  0.9794  1.1602 -0.5219
  662MOL0     H87364   6.604   2.587   8.671 -1.2693  1.9366  1.3538
  662MOL0     H87365   6.519   2.556   8.821  2.3141 -0.9828  1.1489
  662MOL0     H87366   6.418   1.617   8.929  0.2735 -1.2611  0.9962
  662MOL0     H87367   6.339   1.506   9.134  0.7793 -0.2809 -1.9669
  662MOL0     H87368   6.167   1.371   9.590 -2.3154 -3.4129  0.3930
  662MOL0     H87369   5.981   1.265   9.681  1.4848  0.9163  0.5263
  662MOL0     H87370   4.164   0.369  10.254  1.2316 -0.5301  0.9761
  662MOL0     H87371   3.978   0.433  10.415 -0.9740  1.1260 -0.4286
  662MOL0     H87372   3.583   0.681  10.557  0.4997 -0.7450 -0.8167
  662MOL0     H87373   3.458   0.742  10.747  0.5600  2.3496 -2.3033
  662MOL0     H87374   3.373   0.770  11.052 -0.0824  0.8883  3.8883
  662MOL0     H87375   3.394   0.892  10.912 -4.8180  2.9585  2.2966
  662MOL0     H87376   3.484   1.034  11.090  0.2686 -0.2693  0.6310
  662MOL0     H87377   3.309   0.998  11.078 -0.0950 -2.1276 -1.4402
  662MOL0     H87378   3.489   0.851  11.278 -3.6208 -2.1704  3.7452
  662MOL0     H87379   3.323   0.820  11.264 -0.5146  1.2104 -1.3036
  662MOL0     H87380   3.281   1.055  11.361 -0.2296 -0.7239  1.7156
  662MOL0     H87381   3.352   0.928  11.458  0.7749 -1.0589  0.2113
  662MOL0     H87382   3.655   1.229  11.433 -0.3903 -0.2133 -0.1480
  662MOL0     H87383   3.791   0.809  10.988  2.3316  2.3394 -2.2893
  662MOL0     H87384   3.948   0.731  10.802  1.0494 -1.3621 -3.7102
  663MOL0     O87385   9.473   4.249   0.576  0.7659  0.1267  0.8858
  663MOL0     C87386   9.479   4.171   0.477 -1.2098 -0.5165 -0.6268
  663MOL0     O87387   9.392   4.072   0.455  0.0205  0.0104  0.9382
  663MOL0     C87388   9.311   4.047   0.563  0.5540  0.3974  0.0405
  663MOL0     C87389   9.192   4.118   0.591 -0.4819  0.1614 -0.4670
  663MOL0     C87390   9.116   4.096   0.711  0.5072 -1.3012 -0.2980
  663MOL0     C87391   9.150   3.991   0.797 -0.4158 -0.7884  0.7898
  663MOL0     O87392   9.087   3.970   0.917 -0.3851 -0.3552  0.5054
  663MOL0     C87393   8.984   4.049   0.968 -0.8620  0.2362  0.5149
  663MOL0     C87394   8.934   3.987   1.094  0.4590  0.0816  0.4952
  663MOL0     C87395   8.822   4.065   1.172  0.5913 -0.7508  0.3200
  663MOL0     C87396   8.706   4.109   1.083 -0.2898  0.1129  0.7781
  663MOL0     C87397   8.590   4.175   1.161  0.5780 -0.1473 -0.1294
  663MOL0     C87398   8.484   4.227   1.071 -0.4968  0.5887  0.0409
  663MOL0     C87399   8.367   4.267   1.157 -0.2444 -0.0662  0.6497
  663MOL0     C87400   8.270   4.335   1.066 -0.0257  0.6282 -0.1668
  663MOL0     N87401   8.131   4.315   1.114 -0.6021 -0.0157 -0.4952
  663MOL0     C87402   8.031   4.272   1.037 -0.0178  0.3136 -0.0390
  663MOL0     C87403   7.921   4.256   1.123  0.5148  0.5216 -0.0147
  663MOL0     C87404   7.782   4.217   1.086  0.3444  0.0054 -0.4888
  663MOL0     C87405   7.715   4.304   0.975  0.3345 -0.5662  0.4281
  663MOL0     C87406   7.566   4.265   0.937 -0.3356  0.2900 -0.1147
  663MOL0     C87407   7.466   4.306   1.034  1.1950  1.1320  0.4033
  663MOL0     O87408   7.346   4.227   1.018 -0.1355  0.0264  0.3849
  663MOL0     C87409   7.243   4.300   0.974  0.5475 -0.1018 -0.3299
  663MOL0     C87410   7.163   4.380   1.064 -0.4930  0.0980 -0.1086
  663MOL0     C87411   7.042   4.423   1.012  0.9292 -0.2127 -0.2583
  663MOL0     C87412   7.026   4.432   0.881  0.8540  0.4918  0.5281
  663MOL0     C87413   6.924   4.530   0.825 -0.4470  0.1004 -0.3064
  663MOL0     O87414   6.887   4.505   0.693 -0.0688 -0.0039 -0.1585
  663MOL0     C87415   6.774   4.565   0.647 -0.2967  0.3507 -0.1669
  663MOL0     C87416   6.657   4.544   0.718 -0.3841 -0.2853 -0.3986
  663MOL0     C87417   6.532   4.584   0.664 -0.0335  0.1926 -0.6014
  663MOL0     C87418   6.540   4.653   0.541  0.3083 -0.3226  0.6233
  663MOL0     O87419   6.424   4.701   0.483 -0.6657  0.1212 -0.1693
  663MOL0     C87420   6.385   4.633   0.362  1.0954 -0.2126  0.2068
  663MOL0     C87421   6.326   4.501   0.391 -0.2059 -0.4039  0.7656
  663MOL0     C87422   6.194   4.506   0.472  0.0770  0.0094  0.0085
  663MOL0     C87423   6.066   4.564   0.418  0.4905  0.1022  0.4015
  663MOL0     C87424   5.999   4.488   0.302  0.1125 -1.0085  1.3012
  663MOL0     C87425   5.890   4.580   0.232  0.3216  0.1941  0.0226
  663MOL0     C87426   5.829   4.519   0.109 -0.3356  0.1574 -0.5322
  663MOL0     C87427   5.731   4.602   0.036 -0.3921 -0.0076 -0.5320
  663MOL0    Cl87428   5.813   4.734  -0.033 -0.1667 -0.5926 -0.3706
  663MOL0     C87429   6.659   4.673   0.473 -0.7440 -0.1724  1.1402
  663MOL0     C87430   6.782   4.623   0.529  0.1509  0.4044  0.0069
  663MOL0     O87431   6.879   4.620   0.894 -0.6479  0.3271  0.2235
  663MOL0     C87432   7.109   4.367   0.792  0.5416 -0.2822 -0.0165
  663MOL0     C87433   7.212   4.293   0.837  0.2444 -0.2701  0.7221
  663MOL0     N87434   7.961   4.275   1.251 -0.1114  0.3295 -0.5899
  663MOL0     N87435   8.085   4.313   1.239 -0.0165 -0.5506  0.0423
  663MOL0     C87436   9.267   3.914   0.758  0.4252 -0.0451  0.7320
  663MOL0     C87437   9.346   3.942   0.646  0.0383  0.7085  0.4880
  663MOL0     C87438   9.602   4.171   0.390  0.8179  0.1695 -0.8714
  663MOL0     C87439   9.623   4.060   0.318 -0.3065 -0.4373  0.1546
  663MOL0     C87440   9.744   4.049   0.247  0.8986  1.4878  0.1085
  663MOL0     C87441   9.835   4.149   0.239 -1.0002 -0.4859 -0.0225
  663MOL0     O87442   9.945   4.154   0.155 -0.1357  0.0131  0.6340
  663MOL0     C87443   9.982   4.029   0.087  0.7422 -0.3983 -0.2782
  663MOL0     C87444  10.112   4.034   0.011 -0.4627  0.7747  0.4725
  663MOL0     C87445  10.220   4.103   0.084 -0.4261 -0.0337 -0.4995
  663MOL0     C87446  10.359   4.071   0.046 -0.0505 -0.7736 -0.0824
  663MOL0     C87447  10.454   4.139   0.129 -0.7523 -0.3405  0.6885
  663MOL0     C87448  10.521   4.207   0.208  0.0649  0.2618  0.7205
  663MOL0     C87449   9.804   4.268   0.312 -0.0918  0.1530  0.4497
  663MOL0     C87450   9.687   4.278   0.388  1.6746 -0.3647  0.1169
  663MOL0     H87451   9.159   4.193   0.520  2.0593  1.1409 -0.7081
  663MOL0     H87452   9.039   4.169   0.733  1.2201 -0.9635  1.1754
  663MOL0     H87453   8.909   4.062   0.889  1.2276  0.0195 -1.6277
  663MOL0     H87454   9.020   4.149   0.997  0.5153 -0.5678  1.6859
  663MOL0     H87455   9.020   3.973   1.161  0.4155 -4.7882 -0.0700
  663MOL0     H87456   8.900   3.885   1.073  3.8517 -0.8052 -1.5169
  663MOL0     H87457   8.867   4.144   1.232  0.8871 -1.4685  1.0586
  663MOL0     H87458   8.779   3.991   1.240  0.1338 -1.1537 -0.3861
  663MOL0     H87459   8.741   4.180   1.007 -4.3904  1.8087  0.2309
  663MOL0     H87460   8.663   4.021   1.034 -0.4071  0.2814  0.5766
  663MOL0     H87461   8.644   4.256   1.212  4.1357 -1.3962 -1.5571
  663MOL0     H87462   8.552   4.101   1.231 -0.0566  1.9192  1.8381
  663MOL0     H87463   8.451   4.145   1.007 -0.4819  2.0490 -1.9558
  663MOL0     H87464   8.537   4.305   1.014  2.4453  0.3159  2.1629
  663MOL0     H87465   8.319   4.178   1.199 -1.3168  0.4942  0.6465
  663MOL0     H87466   8.396   4.334   1.239 -3.7075  1.9310  0.4237
  663MOL0     H87467   8.266   4.293   0.965  0.9426 -0.4033  0.2002
  663MOL0     H87468   8.309   4.437   1.062  1.8696 -0.1013 -1.9010
  663MOL0     H87469   8.033   4.267   0.928 -0.7397 -2.1200 -0.0095
  663MOL0     H87470   7.719   4.228   1.175  1.3840 -1.0890  0.4127
  663MOL0     H87471   7.775   4.113   1.052  1.1312 -0.4141  0.5703
  663MOL0     H87472   7.774   4.309   0.882  1.5041 -0.2081  1.1657
  663MOL0     H87473   7.706   4.408   1.007 -2.8754 -0.5642 -0.2212
  663MOL0     H87474   7.545   4.319   0.844 -3.6581 -1.8819 -0.7991
  663MOL0     H87475   7.556   4.160   0.907 -5.7836  0.9806 -1.6736
  663MOL0     H87476   7.444   4.413   1.040  1.1287  1.2506 -1.4180
  663MOL0     H87477   7.493   4.275   1.136 -0.5174  1.6500  1.0633
  663MOL0     H87478   7.186   4.403   1.167  0.5412 -0.2168 -0.2562
  663MOL0     H87479   6.968   4.463   1.080 -2.0458  1.0830 -3.9053
  663MOL0     H87480   6.655   4.502   0.818  1.3306 -1.6955 -0.9135
  663MOL0     H87481   6.435   4.560   0.705  0.6566 -4.1401 -0.9763
  663MOL0     H87482   6.473   4.621   0.298  1.0996 -0.5160  0.2666
  663MOL0     H87483   6.307   4.694   0.316  3.4334  2.7624 -0.1069
  663MOL0     H87484   6.404   4.433   0.426  2.1167 -0.4604 -3.8014
  663MOL0     H87485   6.307   4.461   0.291  3.2835  2.3406 -1.1948
  663MOL0     H87486   6.220   4.551   0.569  0.9114  1.0973 -0.7015
  663MOL0     H87487   6.178   4.400   0.492  2.9831 -0.7911 -1.3086
  663MOL0     H87488   5.994   4.570   0.501 -1.3560  0.2382 -1.1319
  663MOL0     H87489   6.081   4.669   0.393 -0.3101  0.0770 -0.2384
  663MOL0     H87490   5.944   4.406   0.347 -1.7316 -0.7096 -0.2648
  663MOL0     H87491   6.065   4.451   0.222 -1.3676  0.9579 -0.9855
  663MOL0     H87492   5.943   4.669   0.196  4.4745 -1.8861  0.3512
  663MOL0     H87493   5.814   4.596   0.309 -0.0461  1.2126 -0.5292
  663MOL0     H87494   5.909   4.492   0.040 -1.1587 -3.5341 -0.2338
  663MOL0     H87495   5.792   4.420   0.138  2.4989 -0.4419  1.4514
  663MOL0     H87496   5.643   4.623   0.097  0.0996 -1.0415  0.5786
  663MOL0     H87497   5.684   4.539  -0.040 -2.3577  1.2923 -0.4705
  663MOL0     H87498   6.661   4.729   0.380 -0.8995 -3.5594 -1.0896
  663MOL0     H87499   6.880   4.624   0.483  0.5413  0.1768  0.8207
  663MOL0     H87500   7.102   4.365   0.684  2.6446 -3.4249 -0.2365
  663MOL0     H87501   7.275   4.240   0.767 -2.5359 -4.0725  0.7808
  663MOL0     H87502   9.315   3.833   0.812  1.3206 -0.2099 -0.2779
  663MOL0     H87503   9.428   3.875   0.623  0.0394  1.5520 -2.3252
  663MOL0     H87504   9.554   3.977   0.308 -1.9677  1.0034 -0.8564
  663MOL0     H87505   9.756   3.957   0.191 -0.7386  1.4297 -0.2117
  663MOL0     H87506   9.900   3.980   0.032 -1.0965  2.5611 -0.3760
  663MOL0     H87507  10.002   3.961   0.170  2.4170 -1.3837 -1.4032
  663MOL0     H87508  10.146   3.935  -0.021  0.6694  1.8566 -1.8654
  663MOL0     H87509  10.079   4.096  -0.073 -0.8528 -1.5367 -1.1850
  663MOL0     H87510  10.199   4.060   0.182  2.5396 -0.0996  0.1716
  663MOL0     H87511  10.206   4.211   0.076  2.4980  0.5542  1.1394
  663MOL0     H87512  10.380   3.964   0.039 -0.0006 -0.6621 -2.5591
  663MOL0     H87513  10.372   4.117  -0.053 -3.1023  0.3910 -0.0448
  663MOL0     H87514  10.595   4.246   0.275  2.5454 -0.3592 -1.5068
  663MOL0     H87515   9.868   4.354   0.296 -0.2340  0.3189  0.7508
  663MOL0     H87516   9.662   4.363   0.450 -0.4564 -1.3151  0.6435
  664MOL0     O87517   9.582   9.147   9.031  0.5412 -0.8496 -0.1456
  664MOL0     C87518   9.649   9.214   9.118  0.9971  0.0963 -0.2720
  664MOL0     O87519   9.783   9.241   9.108 -1.7314  0.8962  0.3204
  664MOL0     C87520   9.850   9.186   9.000 -0.5482 -0.3563  0.5762
  664MOL0     C87521   9.801   9.205   8.867 -0.4447 -0.5591  0.2326
  664MOL0     C87522   9.871   9.154   8.760  0.7428 -0.0654  0.1207
  664MOL0     C87523   9.992   9.087   8.779 -1.1747  0.2332  0.4228
  664MOL0     O87524  10.071   9.026   8.682 -0.1133  0.7252 -0.2606
  664MOL0     C87525  10.015   9.012   8.552 -0.4800 -0.8227  1.3803
  664MOL0     C87526  10.054   9.141   8.483 -0.9509 -0.2373  0.2323
  664MOL0     C87527   9.999   9.151   8.343 -0.0444  0.1486 -0.2850
  664MOL0     C87528  10.034   9.290   8.274  0.4914  0.0701 -0.3845
  664MOL0     C87529   9.952   9.327   8.145 -0.1525 -0.3144  0.1071
  664MOL0     C87530   9.800   9.332   8.178 -0.5918  0.2272  0.3088
  664MOL0     C87531   9.758   9.443   8.282 -0.4784  0.2219 -0.1315
  664MOL0     C87532   9.596   9.448   8.288 -0.0892  1.0789  1.2533
  664MOL0     N87533   9.551   9.361   8.382 -0.3115 -0.5169 -0.6039
  664MOL0     C87534   9.473   9.392   8.493  0.2855 -0.5928  0.2476
  664MOL0     C87535   9.476   9.282   8.569 -0.7160 -0.0010  0.4555
  664MOL0     C87536   9.428   9.276   8.711  0.1448  0.6670 -0.5711
  664MOL0     C87537   9.277   9.241   8.728 -0.2361  1.1845 -0.2937
  664MOL0     C87538   9.262   9.139   8.850 -0.2901  0.0097  0.0814
  664MOL0     C87539   9.127   9.087   8.884 -0.1276  0.5676  0.0627
  664MOL0     O87540   9.047   9.194   8.930  0.6435  0.1539 -1.1389
  664MOL0     C87541   8.939   9.172   9.018  0.1953  0.3637  1.1675
  664MOL0     C87542   8.905   9.275   9.094  0.1075  0.3715  0.0041
  664MOL0     C87543   8.800   9.254   9.184  0.6054 -0.6814  0.4442
  664MOL0     C87544   8.717   9.140   9.184  0.2956  0.0087  1.3078
  664MOL0     C87545   8.590   9.144   9.253  0.5830 -0.0400  0.3666
  664MOL0     O87546   8.583   9.118   9.386 -0.6620 -0.7133 -0.4460
  664MOL0     C87547   8.458   9.100   9.442 -0.6017  0.2026 -0.1557
  664MOL0     C87548   8.356   9.027   9.383  0.5119 -0.0105  0.4642
  664MOL0     C87549   8.232   9.001   9.447  0.0391  0.3302  0.7691
  664MOL0     C87550   8.202   9.062   9.572  0.5517 -0.2030  0.2024
  664MOL0     O87551   8.071   9.052   9.616  0.4692 -0.4439 -0.4428
  664MOL0     C87552   8.041   9.118   9.739  0.0614  0.3595 -0.0298
  664MOL0     C87553   7.907   9.063   9.794  0.1649  0.6469  0.3490
  664MOL0     C87554   7.804   9.023   9.683  0.1786  0.3853  0.4742
  664MOL0     C87555   7.765   9.141   9.594  0.4307 -0.1309  0.6444
  664MOL0     C87556   7.624   9.119   9.518  0.1773  0.7095 -0.5034
  664MOL0     C87557   7.498   9.126   9.608  0.5461 -0.3640  0.5943
  664MOL0     C87558   7.390   9.181   9.514  0.1095  0.3169  0.1427
  664MOL0     C87559   7.391   9.337   9.479 -0.2960 -0.4518  0.4866
  664MOL0    Cl87560   7.351   9.430   9.631 -0.1414  0.2961  0.3449
  664MOL0     C87561   8.306   9.127   9.639 -0.2069  0.3144  0.2533
  664MOL0     C87562   8.433   9.143   9.575  0.3479 -0.0575  0.1774
  664MOL0     O87563   8.487   9.168   9.184  0.4379  0.1077 -0.4762
  664MOL0     C87564   8.773   9.031   9.116 -0.1810  0.6248  0.3868
  664MOL0     C87565   8.874   9.046   9.030  0.3869 -1.0844 -0.2506
  664MOL0     N87566   9.540   9.180   8.500 -0.6936 -0.5231 -1.1235
  664MOL0     N87567   9.589   9.231   8.396 -0.8191  0.2716 -0.2021
  664MOL0     C87568  10.034   9.062   8.912  0.4746  0.1749  0.5379
  664MOL0     C87569   9.964   9.110   9.025 -0.1536 -0.3196  0.5413
  664MOL0     C87570   9.588   9.262   9.243  0.3324  0.3255  0.5654
  664MOL0     C87571   9.466   9.207   9.290 -0.8435 -0.4115  0.1140
  664MOL0     C87572   9.402   9.268   9.401  0.5353 -0.9264 -0.0359
  664MOL0     C87573   9.469   9.376   9.471 -0.5410 -0.3162  1.2117
  664MOL0     O87574   9.421   9.452   9.575 -0.0405 -1.0370 -0.1986
  664MOL0     C87575   9.284   9.425   9.616 -0.9392  0.1042  0.2097
  664MOL0     C87576   9.234   9.530   9.704  0.1346  0.3006  0.5684
  664MOL0     C87577   9.248   9.491   9.849  0.2794 -0.3670  0.5127
  664MOL0     C87578   9.181   9.603   9.933  0.2901 -0.5213  0.5507
  664MOL0     C87579   9.275   9.715   9.955 -0.6848  0.0499 -0.0335
  664MOL0     C87580   9.355   9.805   9.953  0.5796 -0.1457  0.7536
  664MOL0     C87581   9.589   9.424   9.415 -0.6458  0.2162  0.4004
  664MOL0     C87582   9.645   9.368   9.305 -0.2394  0.1813  0.2921
  664MOL0     H87583   9.713   9.266   8.850  0.4267  1.0576  1.3433
  664MOL0     H87584   9.824   9.150   8.662 -1.4051  1.3260  1.0200
  664MOL0     H87585   9.909   8.989   8.569 -0.7611 -0.1319  0.6539
  664MOL0     H87586  10.057   8.928   8.496  1.4640 -0.4155  2.1519
  664MOL0     H87587  10.164   9.147   8.480 -0.7857 -2.1699  0.8024
  664MOL0     H87588  10.021   9.212   8.560  1.1553 -3.0175  4.1092
  664MOL0     H87589   9.892   9.131   8.347 -0.1717  0.8145 -0.2144
  664MOL0     H87590  10.051   9.081   8.277 -0.1402 -0.9881  0.7999
  664MOL0     H87591  10.015   9.373   8.343 -2.4209 -1.1931  0.4878
  664MOL0     H87592  10.138   9.308   8.244  0.0648 -0.4171 -2.2606
  664MOL0     H87593   9.971   9.254   8.067 -0.0915  2.7358 -2.9620
  664MOL0     H87594   9.997   9.423   8.119  0.3183 -0.1341  1.4774
  664MOL0     H87595   9.759   9.237   8.212 -2.8419  1.5425  1.5545
  664MOL0     H87596   9.754   9.349   8.080 -0.7564  0.5780  0.4431
  664MOL0     H87597   9.810   9.431   8.377  1.0085  3.0037 -0.4793
  664MOL0     H87598   9.794   9.540   8.246  0.0862 -0.7831 -2.4587
  664MOL0     H87599   9.561   9.399   8.197 -1.7356  1.0024  1.9038
  664MOL0     H87600   9.560   9.551   8.294  1.3343  1.8863 -2.0546
  664MOL0     H87601   9.449   9.493   8.526 -0.5952 -1.8766  4.0009
  664MOL0     H87602   9.444   9.375   8.757  0.0268  0.2427  0.4118
  664MOL0     H87603   9.498   9.212   8.764 -0.0183  1.0626  0.1485
  664MOL0     H87604   9.238   9.190   8.639  1.2353 -1.7345  0.5796
  664MOL0     H87605   9.221   9.333   8.742 -1.5440  0.6744 -1.9201
  664MOL0     H87606   9.321   9.047   8.836 -0.3981 -0.0397 -0.0467
  664MOL0     H87607   9.307   9.197   8.932 -0.5967 -0.0331  0.2796
  664MOL0     H87608   9.144   9.009   8.958  3.8328  1.0554 -0.1436
  664MOL0     H87609   9.079   9.046   8.794  1.8521 -1.2489 -0.2491
  664MOL0     H87610   8.954   9.372   9.088  3.5116 -1.1076  1.0082
  664MOL0     H87611   8.763   9.339   9.241  3.4957  1.2299 -0.2968
  664MOL0     H87612   8.378   8.968   9.295 -2.5867 -0.4365 -0.1580
  664MOL0     H87613   8.156   8.935   9.406 -0.0777  0.6011  0.5397
  664MOL0     H87614   8.016   9.223   9.723 -4.0714 -0.6975 -2.2033
  664MOL0     H87615   8.121   9.097   9.810  1.1917 -0.4746 -1.4924
  664MOL0     H87616   7.854   9.130   9.863 -1.6839  1.1306 -1.4449
  664MOL0     H87617   7.929   8.972   9.851 -3.3821 -0.6950 -0.1863
  664MOL0     H87618   7.714   8.986   9.734  0.3543 -2.1322 -0.9102
  664MOL0     H87619   7.828   8.943   9.614 -1.7581  1.9912 -2.2676
  664MOL0     H87620   7.758   9.243   9.632  4.0355  0.5105 -0.0836
  664MOL0     H87621   7.845   9.152   9.520  1.4109  3.3338  2.0040
  664MOL0     H87622   7.625   9.024   9.464 -1.7645  2.2263 -3.4833
  664MOL0     H87623   7.612   9.202   9.448 -0.2544  1.8418  0.8722
  664MOL0     H87624   7.518   9.186   9.697  1.7375  0.0754  0.0431
  664MOL0     H87625   7.477   9.025   9.645 -0.3796  0.7442  3.4338
  664MOL0     H87626   7.393   9.122   9.422  1.2730 -0.8137  0.8761
  664MOL0     H87627   7.292   9.158   9.558 -0.0197 -0.3181 -0.4697
  664MOL0     H87628   7.312   9.347   9.404  0.4892 -0.6882 -0.3941
  664MOL0     H87629   7.477   9.381   9.429 -1.1862 -0.3504 -1.0229
  664MOL0     H87630   8.285   9.180   9.731 -0.0212 -0.2575  0.6231
  664MOL0     H87631   8.503   9.214   9.618 -2.3049  1.8019  1.6909
  664MOL0     H87632   8.708   8.945   9.105  0.2713  0.6426 -4.5708
  664MOL0     H87633   8.920   8.978   8.959 -0.1619 -1.5340 -0.1928
  664MOL0     H87634  10.125   9.004   8.923 -0.4638 -1.2956  0.9605
  664MOL0     H87635   9.997   9.098   9.128 -1.1076  1.3183  1.0720
  664MOL0     H87636   9.419   9.127   9.233 -1.0140 -0.7893  0.7831
  664MOL0     H87637   9.303   9.228   9.423  0.3284 -0.7995 -0.7047
  664MOL0     H87638   9.261   9.339   9.679 -1.5953 -1.1466 -1.6778
  664MOL0     H87639   9.214   9.427   9.532 -1.5921 -0.4334  0.7287
  664MOL0     H87640   9.287   9.622   9.680 -0.9334  0.5896 -0.7750
  664MOL0     H87641   9.129   9.553   9.686  0.4585  0.7678 -0.7829
  664MOL0     H87642   9.353   9.470   9.874  0.7363  0.5751 -0.5194
  664MOL0     H87643   9.197   9.397   9.873  0.5398  0.1698  3.5219
  664MOL0     H87644   9.095   9.640   9.876  1.2521  0.6066 -0.2141
  664MOL0     H87645   9.154   9.582  10.037 -0.8121  2.4339  0.9754
  664MOL0     H87646   9.422   9.887   9.940 -1.1036  1.2954  0.7546
  664MOL0     H87647   9.636   9.515   9.452  3.5118 -0.1261 -3.1744
  664MOL0     H87648   9.726   9.421   9.256  0.3573  2.0524  3.0498
  665MOL0     O87649   2.260   2.939   9.031  0.6932  0.0159 -0.0084
  665MOL0     C87650   2.321   2.889   9.129  0.8016 -0.2386  0.2328
  665MOL0     O87651   2.312   2.939   9.251  0.0131  0.3943 -0.2641
  665MOL0     C87652   2.204   3.012   9.291 -0.1824  0.2048 -0.0285
  665MOL0     C87653   2.074   2.969   9.263 -1.1999 -0.7469 -0.3603
  665MOL0     C87654   1.966   3.040   9.306 -0.3659 -0.3172  0.7360
  665MOL0     C87655   1.990   3.173   9.348  0.1984 -0.4670 -0.7453
  665MOL0     O87656   1.875   3.246   9.380 -0.4758  0.6433  0.6406
  665MOL0     C87657   1.853   3.370   9.316 -0.2558 -0.5026  0.5304
  665MOL0     C87658   1.720   3.392   9.255 -0.6347 -0.9902  0.5216
  665MOL0     C87659   1.619   3.445   9.354 -0.1753 -0.1279  0.3733
  665MOL0     C87660   1.507   3.521   9.287 -0.6926 -0.4133  0.7354
  665MOL0     C87661   1.413   3.565   9.403 -0.0482 -0.0132 -0.2703
  665MOL0     C87662   1.319   3.665   9.336 -0.3725 -1.1776  0.2847
  665MOL0     C87663   1.215   3.730   9.433 -0.9450  0.0175 -0.7630
  665MOL0     C87664   1.111   3.621   9.455 -0.0940  0.2156 -0.2188
  665MOL0     N87665   1.005   3.648   9.357  0.3614 -0.9025  0.4622
  665MOL0     C87666   0.901   3.740   9.375  0.2404  0.3102  0.0034
  665MOL0     C87667   0.814   3.710   9.268  0.3403  0.4705  0.3755
  665MOL0     C87668   0.671   3.756   9.245 -0.7112 -0.4113 -0.2241
  665MOL0     C87669   0.596   3.804   9.369 -0.7486 -1.0138  0.0538
  665MOL0     C87670   0.616   3.955   9.405  0.1182  0.6942  0.3484
  665MOL0     C87671   0.563   4.001   9.533  0.1334 -0.1487 -0.1860
  665MOL0     O87672   0.423   3.978   9.549 -0.1372  0.6671 -0.2892
  665MOL0     C87673   0.357   4.043   9.653 -0.1802  0.3130 -0.2081
  665MOL0     C87674   0.215   4.040   9.646 -0.3458  0.6670 -0.3254
  665MOL0     C87675   0.144   4.096   9.753  0.3129  0.7830  0.3652
  665MOL0     C87676   0.206   4.182   9.852 -0.7024  1.1355 -0.3155
  665MOL0     C87677   0.126   4.253   9.950  0.2051 -0.2140  0.5802
  665MOL0     O87678  -0.008   4.262   9.928 -0.0462 -0.2116 -0.2272
  665MOL0     C87679  -0.092   4.343   9.997  0.2186  0.2792 -0.5709
  665MOL0     C87680  -0.057   4.462  10.059 -0.6838 -0.1225  0.3248
  665MOL0     C87681  -0.159   4.545  10.118 -0.2259  0.9779  0.7648
  665MOL0     C87682  -0.292   4.505  10.122  0.0592  0.7039  0.0139
  665MOL0     O87683  -0.382   4.595  10.182 -0.7595  0.3748 -0.0516
  665MOL0     C87684  -0.517   4.549  10.203  0.2974 -0.1171  0.5998
  665MOL0     C87685  -0.600   4.670  10.238 -0.0763 -0.3107 -0.4275
  665MOL0     C87686  -0.747   4.639  10.283 -0.0699  0.2962 -0.5543
  665MOL0     C87687  -0.818   4.774  10.296  0.0566 -0.5036 -0.2811
  665MOL0     C87688  -0.960   4.768  10.345  0.3464  0.1273 -0.4238
  665MOL0     C87689  -1.033   4.907  10.352  0.0866  0.4961 -1.3028
  665MOL0     C87690  -1.172   4.881  10.417 -0.2506 -0.3274 -0.4119
  665MOL0     C87691  -1.247   5.010  10.422  0.2697  1.0911 -0.0825
  665MOL0    Cl87692  -1.417   4.983  10.447 -0.1799  0.3102 -0.1384
  665MOL0     C87693  -0.320   4.383  10.065  0.0588  0.6336  0.3913
  665MOL0     C87694  -0.223   4.300  10.008 -0.6378  0.0629 -0.4090
  665MOL0     O87695   0.196   4.304  10.035  0.6146  0.4947  0.1860
  665MOL0     C87696   0.345   4.188   9.851  0.5369  0.4203 -0.7639
  665MOL0     C87697   0.419   4.114   9.755 -0.2984  0.0178 -0.0715
  665MOL0     N87698   0.878   3.616   9.195 -0.4161 -0.5782  0.8622
  665MOL0     N87699   0.985   3.564   9.250  0.2146 -1.1000 -0.0885
  665MOL0     C87700   2.121   3.220   9.366  0.0428 -0.1475 -0.4720
  665MOL0     C87701   2.230   3.138   9.338  0.2684 -1.1084  0.0994
  665MOL0     C87702   2.423   2.789   9.096  0.1029  0.3658  0.2529
  665MOL0     C87703   2.502   2.727   9.200  0.0355  0.5632  0.6573
  665MOL0     C87704   2.602   2.634   9.174  0.4196 -0.7314 -1.1202
  665MOL0     C87705   2.631   2.603   9.039  0.6551  1.3876 -0.2255
  665MOL0     O87706   2.717   2.499   9.002  0.3932  0.3464  1.1008
  665MOL0     C87707   2.841   2.495   9.060  0.6706  0.3375 -1.0979
  665MOL0     C87708   2.946   2.426   8.975 -0.7214 -0.5282  0.3939
  665MOL0     C87709   2.998   2.520   8.872 -0.4638  0.1634  0.7161
  665MOL0     C87710   3.102   2.455   8.786  0.2157 -0.1639  0.1013
  665MOL0     C87711   3.233   2.505   8.816 -0.8876  0.6457 -0.1480
  665MOL0     C87712   3.347   2.552   8.837  0.9929 -0.1417  0.1159
  665MOL0     C87713   2.553   2.657   8.941  0.2449  0.4872 -0.3518
  665MOL0     C87714   2.441   2.738   8.974 -0.3015 -0.0028  0.8970
  665MOL0     H87715   2.055   2.875   9.212  1.7463 -2.6348  1.7284
  665MOL0     H87716   1.862   3.007   9.307 -0.5735  0.1017  3.9138
  665MOL0     H87717   1.935   3.372   9.243  0.2554 -2.7947  0.9575
  665MOL0     H87718   1.871   3.449   9.390  0.8756  0.0503 -0.2952
  665MOL0     H87719   1.682   3.298   9.214 -1.0777 -1.6971  2.4250
  665MOL0     H87720   1.753   3.469   9.184 -1.9424 -2.0019 -1.2621
  665MOL0     H87721   1.671   3.499   9.433  0.1408 -1.2539  0.9627
  665MOL0     H87722   1.566   3.360   9.398 -1.9702  0.8515  0.1776
  665MOL0     H87723   1.541   3.610   9.233 -3.7971  2.2018  2.7432
  665MOL0     H87724   1.450   3.455   9.220 -1.1196  1.0531 -0.3828
  665MOL0     H87725   1.463   3.611   9.488  0.7796 -1.5026  0.0784
  665MOL0     H87726   1.359   3.472   9.424  1.3418 -1.3225 -2.1131
  665MOL0     H87727   1.257   3.628   9.253 -0.2369  2.7201 -1.7948
  665MOL0     H87728   1.379   3.743   9.289 -0.9318 -2.2095 -2.3120
  665MOL0     H87729   1.273   3.761   9.520 -1.2494 -1.3725 -0.0497
  665MOL0     H87730   1.172   3.823   9.393 -0.0162  1.4953  1.4600
  665MOL0     H87731   1.068   3.626   9.556 -1.0296 -1.1774 -0.5203
  665MOL0     H87732   1.139   3.515   9.458  0.7307  0.4490  0.9637
  665MOL0     H87733   0.887   3.814   9.454  1.6927  1.3942 -0.7065
  665MOL0     H87734   0.615   3.682   9.187 -0.8793 -0.3864 -0.0944
  665MOL0     H87735   0.681   3.846   9.183 -0.9475 -1.4177 -1.7833
  665MOL0     H87736   0.617   3.746   9.459 -0.0961 -1.1947 -0.2085
  665MOL0     H87737   0.493   3.784   9.337  0.7522 -4.9748 -3.3798
  665MOL0     H87738   0.722   3.980   9.418  0.8805 -1.4471 -1.1434
  665MOL0     H87739   0.569   4.005   9.320  1.9351 -1.4163 -2.0587
  665MOL0     H87740   0.578   4.110   9.535 -1.0238  0.0211 -0.2524
  665MOL0     H87741   0.616   3.959   9.619  1.5921  0.9598 -0.4884
  665MOL0     H87742   0.172   3.967   9.577 -1.9835 -1.1265  2.4056
  665MOL0     H87743   0.039   4.069   9.759 -0.0040  1.5473 -1.0791
  665MOL0     H87744   0.041   4.508  10.062 -1.1207  0.7751  1.2842
  665MOL0     H87745  -0.135   4.646  10.151 -1.9544  0.7917  2.7886
  665MOL0     H87746  -0.526   4.476  10.283 -0.8209  0.8513  1.3860
  665MOL0     H87747  -0.562   4.515  10.109 -0.8278  1.3443  0.5908
  665MOL0     H87748  -0.602   4.741  10.154 -1.1165 -0.2799 -0.3903
  665MOL0     H87749  -0.547   4.717  10.321  0.8100  1.3784 -1.8749
  665MOL0     H87750  -0.722   4.584  10.374 -0.1516  1.5665  0.2632
  665MOL0     H87751  -0.797   4.576  10.208 -2.0957  1.4241 -0.2322
  665MOL0     H87752  -0.763   4.848  10.355  0.6235  1.8002 -3.4906
  665MOL0     H87753  -0.823   4.820  10.197  2.4974  0.9990  0.2296
  665MOL0     H87754  -0.951   4.728  10.446 -1.7049  0.4907 -0.0520
  665MOL0     H87755  -1.023   4.708  10.278 -0.3285  0.2495  0.0857
  665MOL0     H87756  -1.042   4.942  10.249  2.8180  0.1225 -1.7543
  665MOL0     H87757  -0.974   4.979  10.410 -1.5015  0.1511  0.8789
  665MOL0     H87758  -1.237   4.803  10.375 -2.2514  0.1680  1.5236
  665MOL0     H87759  -1.140   4.853  10.518  2.6489  1.8432 -0.6185
  665MOL0     H87760  -1.245   5.069  10.329  1.4917 -0.4964 -1.1118
  665MOL0     H87761  -1.207   5.065  10.507 -1.1808  2.9914 -0.5601
  665MOL0     H87762  -0.425   4.358  10.066  0.0609  0.5750 -0.3817
  665MOL0     H87763  -0.257   4.208   9.961 -0.9669 -0.6740  1.2157
  665MOL0     H87764   0.394   4.244   9.930  2.2423 -1.6689 -0.2703
  665MOL0     H87765   0.528   4.112   9.755 -0.2444  1.5206  0.7390
  665MOL0     H87766   2.159   3.302   9.426  0.8496 -0.6256 -0.2983
  665MOL0     H87767   2.330   3.182   9.342  0.3627 -1.2432 -0.6485
  665MOL0     H87768   2.483   2.744   9.306 -1.1751 -0.3959  0.6146
  665MOL0     H87769   2.660   2.592   9.255 -0.8563 -1.3398 -0.5063
  665MOL0     H87770   2.822   2.433   9.147 -1.2059 -1.4736 -2.6915
  665MOL0     H87771   2.877   2.595   9.089  0.8600 -0.3420  1.1932
  665MOL0     H87772   3.029   2.387   9.034 -0.3449 -0.0206  0.2025
  665MOL0     H87773   2.905   2.339   8.922  1.5794 -1.3848 -0.0996
  665MOL0     H87774   3.032   2.606   8.929  0.5976  0.0466  0.2816
  665MOL0     H87775   2.920   2.548   8.799  2.2820 -0.3522 -2.6827
  665MOL0     H87776   3.086   2.350   8.813 -1.9434 -0.2439 -1.2192
  665MOL0     H87777   3.081   2.462   8.678  0.9364 -3.9142 -0.4168
  665MOL0     H87778   3.445   2.576   8.874  2.2649 -1.2481 -2.3123
  665MOL0     H87779   2.570   2.632   8.837  0.3466 -1.6280  0.1409
  665MOL0     H87780   2.386   2.760   8.883  2.4343 -0.9307 -1.1132
  666MOL0     O87781   2.514   4.483   2.139  1.2542  0.3351 -0.1123
  666MOL0     C87782   2.566   4.466   2.030 -0.5126 -0.8919  0.4289
  666MOL0     O87783   2.508   4.475   1.909  0.3734 -0.5973  0.1379
  666MOL0     C87784   2.382   4.540   1.888  0.3259 -0.1411  0.3720
  666MOL0     C87785   2.372   4.681   1.894 -0.7342 -0.1378 -0.1774
  666MOL0     C87786   2.240   4.734   1.894 -0.3649  0.2244  0.1952
  666MOL0     C87787   2.127   4.655   1.867 -0.2380 -0.2361 -0.2479
  666MOL0     O87788   1.999   4.704   1.849 -0.8467  0.2773 -1.3684
  666MOL0     C87789   1.963   4.826   1.915 -0.3899 -0.7545  0.4198
  666MOL0     C87790   1.817   4.822   1.954 -0.1137 -0.3755 -0.0289
  666MOL0     C87791   1.775   4.959   2.017  0.1283 -0.6951  0.4197
  666MOL0     C87792   1.664   4.956   2.119  0.5099  0.5396  0.5071
  666MOL0     C87793   1.652   5.092   2.191 -0.1261  0.1869 -0.8586
  666MOL0     C87794   1.507   5.130   2.225  0.2471  0.2192  0.2260
  666MOL0     C87795   1.511   5.276   2.286 -0.8734 -0.2051  0.3498
  666MOL0     C87796   1.369   5.328   2.305  0.6558 -0.6692 -1.0182
  666MOL0     N87797   1.309   5.281   2.435 -0.6044 -0.7372 -0.5486
  666MOL0     C87798   1.225   5.179   2.448  0.1879 -1.0840  0.0472
  666MOL0     C87799   1.168   5.189   2.567  0.2132 -1.0588  0.3712
  666MOL0     C87800   1.060   5.102   2.627 -0.8402  0.5080  0.5448
  666MOL0     C87801   0.927   5.129   2.559 -0.1112 -0.6797  0.1072
  666MOL0     C87802   0.854   5.265   2.606  0.7815 -0.3441  0.7187
  666MOL0     C87803   0.729   5.289   2.515 -0.2751  0.4374  0.0249
  666MOL0     O87804   0.672   5.415   2.570 -0.2123  0.3611 -0.0289
  666MOL0     C87805   0.551   5.456   2.519  0.2395  0.2176  0.1984
  666MOL0     C87806   0.458   5.370   2.479  1.1169  0.0812  0.2919
  666MOL0     C87807   0.334   5.424   2.427  0.2308 -0.7431  0.6181
  666MOL0     C87808   0.312   5.566   2.415 -1.1224  0.3906  0.8943
  666MOL0     C87809   0.204   5.624   2.333  0.6482  0.2308 -0.0206
  666MOL0     O87810   0.115   5.542   2.276  0.5013  0.3277  0.4335
  666MOL0     C87811   0.017   5.605   2.208  0.5888  1.7714  0.0439
  666MOL0     C87812   0.010   5.618   2.065  0.5595 -0.4364  0.4963
  666MOL0     C87813  -0.097   5.692   2.013 -0.1257 -0.0332 -0.0683
  666MOL0     C87814  -0.183   5.768   2.095  0.5855 -0.3728 -0.1272
  666MOL0     O87815  -0.279   5.846   2.033 -0.6197  0.4025  0.8159
  666MOL0     C87816  -0.390   5.770   1.997 -0.1617  0.7913  0.1957
  666MOL0     C87817  -0.419   5.830   1.855  0.1823  0.0374  1.4060
  666MOL0     C87818  -0.568   5.813   1.801  1.7778 -0.0088 -0.8507
  666MOL0     C87819  -0.605   5.670   1.838 -0.0530 -0.4646  0.4452
  666MOL0     C87820  -0.740   5.631   1.773 -0.0146 -0.0745  0.1336
  666MOL0     C87821  -0.747   5.646   1.616  0.3566 -0.0115  0.5454
  666MOL0     C87822  -0.638   5.589   1.525 -0.2584  0.0184 -0.5487
  666MOL0     C87823  -0.643   5.648   1.385  0.1732 -0.7338  0.2829
  666MOL0    Cl87824  -0.507   5.585   1.287 -0.0154  0.0062 -0.1984
  666MOL0     C87825  -0.185   5.731   2.230 -0.0724  0.4372  0.4359
  666MOL0     C87826  -0.084   5.654   2.286  1.0329 -0.3091 -0.2632
  666MOL0     O87827   0.207   5.744   2.318 -0.7139 -0.7051  0.0774
  666MOL0     C87828   0.413   5.647   2.467  0.8330  0.0527  0.5184
  666MOL0     C87829   0.532   5.596   2.515 -0.3469 -0.1639 -0.0170
  666MOL0     N87830   1.223   5.298   2.627 -1.0417 -0.2076  0.1517
  666MOL0     N87831   1.304   5.361   2.549  0.2565  0.6272 -0.5238
  666MOL0     C87832   2.146   4.520   1.858 -0.2513 -0.0032  0.3871
  666MOL0     C87833   2.275   4.460   1.867 -0.5579  0.2224  0.8912
  666MOL0     C87834   2.702   4.389   2.036  0.2954 -0.6718  0.6663
  666MOL0     C87835   2.769   4.376   1.912  0.3675 -0.4474  0.7975
  666MOL0     C87836   2.894   4.314   1.916  0.5413 -0.3381  0.4665
  666MOL0     C87837   2.957   4.264   2.020  0.0856 -0.3452 -0.5559
  666MOL0     O87838   3.101   4.235   2.018  0.4336 -0.1424 -0.3271
  666MOL0     C87839   3.143   4.185   1.892  0.4241  0.9284  0.2093
  666MOL0     C87840   3.284   4.126   1.912 -0.5834 -0.4859  0.6713
  666MOL0     C87841   3.288   3.997   1.991 -0.0140 -0.8747 -0.4451
  666MOL0     C87842   3.433   3.946   1.993  0.1413  0.8533 -0.1641
  666MOL0     C87843   3.475   3.880   1.869  0.6621 -0.0886  0.9096
  666MOL0     C87844   3.506   3.801   1.776 -0.9683  0.3081  0.6307
  666MOL0     C87845   2.885   4.265   2.142  0.4672  0.1289 -0.1163
  666MOL0     C87846   2.760   4.346   2.152 -0.3399  0.5575 -0.5581
  666MOL0     H87847   2.461   4.740   1.918 -2.3045  1.9883  0.7970
  666MOL0     H87848   2.218   4.839   1.906 -4.2197 -0.3186 -0.9718
  666MOL0     H87849   2.004   4.902   1.848  3.2494 -0.8428  2.2947
  666MOL0     H87850   2.009   4.848   2.012  0.8764 -1.1142 -0.0736
  666MOL0     H87851   1.810   4.748   2.035 -3.1476 -0.5415 -0.3272
  666MOL0     H87852   1.746   4.800   1.874 -1.1907  1.9791  0.2000
  666MOL0     H87853   1.760   5.033   1.938  0.1727 -1.9559 -0.7985
  666MOL0     H87854   1.860   4.995   2.077  1.2147 -2.8473  0.2719
  666MOL0     H87855   1.567   4.947   2.068 -0.0402 -0.3246  1.6646
  666MOL0     H87856   1.672   4.871   2.188  1.0025 -0.0303 -0.2382
  666MOL0     H87857   1.690   5.168   2.123 -0.3779 -1.9446 -3.5452
  666MOL0     H87858   1.714   5.091   2.281 -3.3219  1.2713  1.5564
  666MOL0     H87859   1.460   5.059   2.293  0.5333  0.0386  0.2338
  666MOL0     H87860   1.441   5.129   2.137  2.6669 -1.5147 -1.7133
  666MOL0     H87861   1.566   5.286   2.380  2.5993  1.1933 -1.6552
  666MOL0     H87862   1.562   5.348   2.221 -3.5078  1.8707  0.3929
  666MOL0     H87863   1.300   5.304   2.224 -0.9767 -1.0740  0.4440
  666MOL0     H87864   1.368   5.437   2.305  0.6615 -0.4262  4.2243
  666MOL0     H87865   1.208   5.101   2.375  2.7865 -1.0364 -0.7083
  666MOL0     H87866   1.052   5.127   2.734  0.2342 -1.0955  1.0488
  666MOL0     H87867   1.086   4.996   2.619 -0.9758  0.3852  1.5283
  666MOL0     H87868   0.850   5.054   2.584  0.2286 -0.1066  3.2238
  666MOL0     H87869   0.952   5.143   2.453  1.5401  2.1279  0.7633
  666MOL0     H87870   0.816   5.258   2.708  0.4900  6.9352  1.6509
  666MOL0     H87871   0.918   5.354   2.604 -2.3753  2.1355 -1.9247
  666MOL0     H87872   0.663   5.203   2.526 -0.4748  0.2573 -2.1308
  666MOL0     H87873   0.761   5.288   2.410  0.6421 -0.6608  0.2926
  666MOL0     H87874   0.466   5.263   2.496  1.0369 -0.2632 -1.5748
  666MOL0     H87875   0.271   5.359   2.367  0.6052  0.7485 -1.5108
  666MOL0     H87876   0.092   5.569   2.014 -0.1733 -2.2336  0.9785
  666MOL0     H87877  -0.104   5.705   1.905 -1.9410  0.1664  0.0390
  666MOL0     H87878  -0.478   5.793   2.058  0.7254  0.7996  1.5304
  666MOL0     H87879  -0.386   5.661   1.989  1.1680  0.7729  0.8788
  666MOL0     H87880  -0.368   5.771   1.778  0.2556 -0.4701  1.8356
  666MOL0     H87881  -0.398   5.937   1.845  1.7497 -0.4875 -2.6957
  666MOL0     H87882  -0.573   5.834   1.694  5.0917  1.7545 -0.7889
  666MOL0     H87883  -0.640   5.881   1.848  1.5414 -0.2527 -0.8553
  666MOL0     H87884  -0.533   5.598   1.799 -0.2768 -0.8161  0.6752
  666MOL0     H87885  -0.609   5.660   1.947 -0.7563 -1.2311  0.3646
  666MOL0     H87886  -0.812   5.677   1.842  1.2372 -1.2748  2.3440
  666MOL0     H87887  -0.760   5.526   1.797  2.8206 -0.4361  1.2313
  666MOL0     H87888  -0.750   5.755   1.599  0.7518  0.1642  1.5395
  666MOL0     H87889  -0.843   5.602   1.588 -0.4974  1.5151  0.9578
  666MOL0     H87890  -0.545   5.634   1.560 -0.9671  2.0951 -1.1835
  666MOL0     H87891  -0.626   5.481   1.534  2.7429  0.3825  1.1470
  666MOL0     H87892  -0.632   5.756   1.396 -0.9673 -0.6515  0.6752
  666MOL0     H87893  -0.741   5.631   1.339 -0.2808 -2.3757  1.7311
  666MOL0     H87894  -0.251   5.792   2.291  2.9555  3.6304  0.7964
  666MOL0     H87895  -0.084   5.640   2.394 -0.6000  1.2476 -0.0240
  666MOL0     H87896   0.406   5.753   2.448  0.6736  0.7427  3.7794
  666MOL0     H87897   0.612   5.655   2.559  0.1973 -0.8138 -0.1122
  666MOL0     H87898   2.063   4.460   1.822  1.6857 -1.4246 -2.1136
  666MOL0     H87899   2.294   4.353   1.869  1.0051  0.4578  0.2243
  666MOL0     H87900   2.724   4.412   1.820  1.1955 -1.9895 -0.2499
  666MOL0     H87901   2.944   4.333   1.821  0.0002 -0.6531  0.1126
  666MOL0     H87902   3.143   4.257   1.809 -4.5044  1.3823  0.3015
  666MOL0     H87903   3.073   4.108   1.857 -2.6275  3.5282  0.0953
  666MOL0     H87904   3.319   4.111   1.810 -0.8524  2.9173 -0.0220
  666MOL0     H87905   3.352   4.199   1.956 -0.5205 -1.4131  2.2053
  666MOL0     H87906   3.223   3.918   1.953 -0.6786 -1.7214  2.1819
  666MOL0     H87907   3.252   4.020   2.092  0.6502 -4.6693  0.8042
  666MOL0     H87908   3.504   4.024   2.022 -0.1678  1.1194 -0.1070
  666MOL0     H87909   3.447   3.865   2.065  1.0575 -0.7933 -2.1070
  666MOL0     H87910   3.519   3.732   1.696 -1.4242  0.1628  0.6825
  666MOL0     H87911   2.928   4.215   2.228 -3.0456 -1.2963  1.0052
  666MOL0     H87912   2.724   4.353   2.254 -0.9938  0.1746 -0.7529
  667MOL0     O87913   1.235   5.725   7.339  0.2084  0.3004  0.3888
  667MOL0     C87914   1.341   5.790   7.319  0.3322  0.3253  0.3967
  667MOL0     O87915   1.363   5.930   7.303 -0.1821  0.7080 -0.0049
  667MOL0     C87916   1.251   6.016   7.308 -0.5471  0.6166  0.0807
  667MOL0     C87917   1.173   6.029   7.423 -0.1564 -0.0922  0.2232
  667MOL0     C87918   1.080   6.128   7.432  0.3677  0.9297 -0.0207
  667MOL0     C87919   1.049   6.209   7.321 -0.5769 -0.2594 -0.5018
  667MOL0     O87920   0.951   6.305   7.320  0.2036 -0.3483 -0.5401
  667MOL0     C87921   0.860   6.318   7.439  0.1774  0.1658 -0.2741
  667MOL0     C87922   0.790   6.449   7.417 -0.5992  0.7694  0.4078
  667MOL0     C87923   0.686   6.477   7.529  0.3808 -0.1967 -0.0552
  667MOL0     C87924   0.560   6.544   7.475 -0.6746  0.4418  0.4921
  667MOL0     C87925   0.486   6.614   7.585 -0.3330  0.0549 -0.3145
  667MOL0     C87926   0.339   6.627   7.555  0.3840  0.0111  0.6010
  667MOL0     C87927   0.262   6.669   7.676 -0.0448 -0.6952 -0.1084
  667MOL0     C87928   0.108   6.661   7.677 -0.7257  0.2028 -0.0838
  667MOL0     N87929   0.064   6.744   7.571  0.2085  0.2241 -1.4429
  667MOL0     C87930   0.031   6.694   7.444  0.0092  0.0010 -1.0259
  667MOL0     C87931  -0.060   6.777   7.391  0.5322  0.4823  0.2890
  667MOL0     C87932  -0.119   6.772   7.251 -0.0206  0.0866  0.3543
  667MOL0     C87933  -0.198   6.638   7.248  0.2567 -0.2755 -0.1196
  667MOL0     C87934  -0.283   6.581   7.370 -1.1921 -0.1363  0.1192
  667MOL0     C87935  -0.388   6.683   7.409 -0.4267  0.8266 -0.6633
  667MOL0     O87936  -0.459   6.622   7.512 -0.0886 -0.4244 -0.0687
  667MOL0     C87937  -0.432   6.627   7.651 -0.1320  0.3124  0.1736
  667MOL0     C87938  -0.510   6.539   7.731 -1.2977 -0.6714 -0.1094
  667MOL0     C87939  -0.490   6.531   7.880  0.1022  0.0076 -0.8202
  667MOL0     C87940  -0.392   6.619   7.931  0.8121 -0.3215 -0.0394
  667MOL0     C87941  -0.378   6.623   8.081 -0.4101 -1.2269  0.1225
  667MOL0     O87942  -0.277   6.697   8.131 -0.0604 -0.0632  0.2139
  667MOL0     C87943  -0.244   6.714   8.272 -0.8560  0.2333  0.8589
  667MOL0     C87944  -0.260   6.607   8.366 -1.1405  0.2600  0.4490
  667MOL0     C87945  -0.198   6.611   8.485  0.1592 -0.2437 -0.8602
  667MOL0     C87946  -0.127   6.729   8.520 -0.8416 -0.2768 -0.8804
  667MOL0     O87947  -0.064   6.748   8.647 -0.1377 -0.0847 -0.7862
  667MOL0     C87948  -0.091   6.641   8.748  0.4159 -0.2390  0.3233
  667MOL0     C87949  -0.021   6.672   8.877  0.5157  0.3319 -0.0386
  667MOL0     C87950   0.124   6.644   8.861 -0.2973 -0.3259 -0.4162
  667MOL0     C87951   0.211   6.775   8.850 -1.0639  1.0636 -0.6142
  667MOL0     C87952   0.361   6.739   8.845 -0.9267  0.3733  1.2046
  667MOL0     C87953   0.456   6.861   8.840  0.2319  1.3062 -0.2610
  667MOL0     C87954   0.598   6.807   8.844  0.5279 -0.3267  0.1060
  667MOL0     C87955   0.688   6.926   8.887 -0.9400 -0.8702 -1.1385
  667MOL0    Cl87956   0.656   7.075   8.785 -0.1974  0.0019  0.1454
  667MOL0     C87957  -0.124   6.842   8.437 -0.8587  0.4223  0.0083
  667MOL0     C87958  -0.179   6.829   8.309 -0.6356  0.1806 -0.1945
  667MOL0     O87959  -0.461   6.558   8.143  0.6040  0.0451 -0.0926
  667MOL0     C87960  -0.320   6.702   7.846 -0.3332 -1.4151 -0.1505
  667MOL0     C87961  -0.337   6.714   7.715 -0.1903  0.6086 -0.5641
  667MOL0     N87962  -0.078   6.876   7.482  0.5398  0.1202  0.0330
  667MOL0     N87963  -0.009   6.856   7.588 -1.2470 -0.0851  0.5759
  667MOL0     C87964   1.126   6.196   7.197  0.6904  1.4047 -0.6522
  667MOL0     C87965   1.232   6.099   7.195  0.0881 -0.1643 -0.7523
  667MOL0     C87966   1.464   5.708   7.299  0.8838 -0.5282  0.3452
  667MOL0     C87967   1.580   5.772   7.246  0.6504  0.1721 -0.6322
  667MOL0     C87968   1.702   5.696   7.233 -0.0864 -0.5668 -0.2725
  667MOL0     C87969   1.709   5.568   7.267 -0.7463  1.1954 -0.4861
  667MOL0     O87970   1.837   5.505   7.279  0.2190 -0.4565  0.1519
  667MOL0     C87971   1.895   5.457   7.157  0.6018  0.6827 -0.4133
  667MOL0     C87972   2.038   5.418   7.183 -0.6051  0.2886  0.0727
  667MOL0     C87973   2.079   5.345   7.319 -0.5967  0.1701  0.0885
  667MOL0     C87974   2.062   5.187   7.311  1.3802 -0.0375  0.0720
  667MOL0     C87975   1.911   5.167   7.311  0.0740 -0.7323  0.0167
  667MOL0     C87976   1.793   5.133   7.300 -0.0401  0.1273 -0.9524
  667MOL0     C87977   1.601   5.504   7.320  0.0104  0.6185  0.0385
  667MOL0     C87978   1.476   5.568   7.336 -0.0913 -0.5056  0.4449
  667MOL0     H87979   1.189   5.964   7.509 -1.1495  1.3863  1.5737
  667MOL0     H87980   1.025   6.144   7.524  0.7360  2.1520  0.0008
  667MOL0     H87981   0.904   6.322   7.539  4.6893  0.9376 -2.0706
  667MOL0     H87982   0.796   6.229   7.431  2.2158 -1.3974 -0.0948
  667MOL0     H87983   0.756   6.444   7.313  3.5883 -0.5618 -1.1021
  667MOL0     H87984   0.857   6.535   7.412 -2.8636  2.6006 -0.2873
  667MOL0     H87985   0.732   6.552   7.594 -0.7638  0.2931  0.2117
  667MOL0     H87986   0.660   6.389   7.588  1.2332  0.1354  0.8593
  667MOL0     H87987   0.588   6.617   7.399  1.1318 -0.4314  0.2579
  667MOL0     H87988   0.501   6.461   7.435 -2.0863  1.9386 -0.6552
  667MOL0     H87989   0.526   6.716   7.590 -0.9068  0.2635  0.0913
  667MOL0     H87990   0.506   6.569   7.683  2.3639 -0.5765 -1.0512
  667MOL0     H87991   0.307   6.530   7.515 -0.9128  0.3600  0.7505
  667MOL0     H87992   0.304   6.685   7.469 -2.5035 -0.2184  1.5038
  667MOL0     H87993   0.300   6.614   7.762 -1.1555  1.2688  1.7334
  667MOL0     H87994   0.289   6.772   7.702  0.9663 -0.7008 -1.0284
  667MOL0     H87995   0.069   6.700   7.771  0.8360 -3.2123  2.2287
  667MOL0     H87996   0.070   6.559   7.669 -0.0057 -0.1603  0.9003
  667MOL0     H87997   0.085   6.607   7.410  3.6548  2.1120 -1.1085
  667MOL0     H87998  -0.039   6.768   7.177 -0.9027 -1.0774 -0.5662
  667MOL0     H87999  -0.177   6.860   7.219  0.0124 -0.5860 -1.6457
  667MOL0     H88000  -0.135   6.559   7.207 -2.9241 -2.8539 -0.3631
  667MOL0     H88001  -0.272   6.634   7.167 -0.0324  0.3422  0.1028
  667MOL0     H88002  -0.344   6.496   7.338 -1.1804  0.4890 -1.7048
  667MOL0     H88003  -0.211   6.560   7.449  0.7172  3.1382 -0.5263
  667MOL0     H88004  -0.460   6.696   7.328 -0.1615  1.3058 -0.8263
  667MOL0     H88005  -0.342   6.779   7.435  2.0988  0.1906 -2.4058
  667MOL0     H88006  -0.590   6.501   7.669 -1.9009  2.3147 -1.3765
  667MOL0     H88007  -0.543   6.466   7.949  0.1210 -0.6389 -1.4087
  667MOL0     H88008  -0.296   6.507   8.345  2.9524 -2.3320  4.2356
  667MOL0     H88009  -0.221   6.541   8.565 -2.9239 -1.0900 -2.3415
  667MOL0     H88010  -0.068   6.539   8.716  0.3669 -0.1896  0.1239
  667MOL0     H88011  -0.198   6.642   8.769  0.5915 -0.7330  1.2781
  667MOL0     H88012  -0.055   6.596   8.949 -0.2295 -1.5741 -2.2916
  667MOL0     H88013  -0.052   6.769   8.919 -0.4044 -0.4862  1.2488
  667MOL0     H88014   0.160   6.598   8.769  1.6373  0.5940 -0.1895
  667MOL0     H88015   0.150   6.581   8.947  0.7018 -1.0049 -1.1878
  667MOL0     H88016   0.186   6.844   8.769  1.9579  1.8215 -1.0368
  667MOL0     H88017   0.207   6.830   8.944  1.3694 -1.5273  1.1579
  667MOL0     H88018   0.388   6.671   8.763 -1.2152  0.3334  1.1426
  667MOL0     H88019   0.376   6.677   8.934 -1.7533 -2.4599 -0.5062
  667MOL0     H88020   0.434   6.924   8.927  2.3849  1.9552 -0.1376
  667MOL0     H88021   0.447   6.916   8.746  0.5455 -1.2598 -1.8703
  667MOL0     H88022   0.601   6.731   8.923  2.1856  2.6028  3.1070
  667MOL0     H88023   0.630   6.775   8.745  1.7206  3.2932 -0.8436
  667MOL0     H88024   0.788   6.882   8.887 -1.2434 -1.5823 -1.5469
  667MOL0     H88025   0.672   6.953   8.992  0.5316 -0.9344 -0.8813
  667MOL0     H88026  -0.082   6.933   8.478 -1.6108 -0.3437  2.6292
  667MOL0     H88027  -0.183   6.907   8.234 -0.7881  1.2731  0.9303
  667MOL0     H88028  -0.246   6.766   7.892 -1.2105 -1.4471  1.3833
  667MOL0     H88029  -0.279   6.780   7.652  2.3499 -0.2867  0.6888
  667MOL0     H88030   1.089   6.249   7.109  1.2661 -0.4654 -2.0823
  667MOL0     H88031   1.300   6.086   7.111  2.1724 -1.5883  1.0466
  667MOL0     H88032   1.574   5.874   7.211 -0.9717 -0.7142 -3.3134
  667MOL0     H88033   1.793   5.749   7.206 -0.3499 -0.6800 -1.4617
  667MOL0     H88034   1.892   5.536   7.081 -0.2008 -0.8387 -2.0374
  667MOL0     H88035   1.828   5.375   7.133 -0.9136  0.8354  2.7920
  667MOL0     H88036   2.090   5.375   7.097  1.1060 -0.3843  1.3714
  667MOL0     H88037   2.079   5.519   7.177 -2.2583  0.8806 -3.4022
  667MOL0     H88038   2.029   5.377   7.411  3.5456  1.1074  2.2614
  667MOL0     H88039   2.184   5.375   7.316 -0.8113  1.0646  0.9660
  667MOL0     H88040   2.088   5.142   7.214 -3.4815 -1.1352 -1.0389
  667MOL0     H88041   2.099   5.129   7.396  1.0863 -0.6496 -0.2075
  667MOL0     H88042   1.700   5.083   7.280  0.8845 -3.9897  3.1081
  667MOL0     H88043   1.609   5.403   7.358  0.8530  0.0131 -1.6242
  667MOL0     H88044   1.388   5.506   7.353  0.9439 -1.7692  1.4552
  668MOL0     O88045   7.861   1.646   3.412 -1.2948 -0.4158  0.9136
  668MOL0     C88046   7.825   1.628   3.529 -0.6269  0.1412 -0.3278
  668MOL0     O88047   7.916   1.615   3.640  0.7393  0.7579  0.3479
  668MOL0     C88048   8.049   1.654   3.622  0.2064 -0.3224 -0.7083
  668MOL0     C88049   8.139   1.580   3.699  0.4810 -0.1274 -0.6572
  668MOL0     C88050   8.277   1.613   3.702 -0.2934 -0.5545  0.7042
  668MOL0     C88051   8.332   1.713   3.619 -0.1379  0.3952 -0.5601
  668MOL0     O88052   8.468   1.737   3.629 -0.4665 -0.2786  0.7440
  668MOL0     C88053   8.523   1.834   3.532 -0.3675  0.4073 -0.2858
  668MOL0     C88054   8.676   1.843   3.535  0.0301 -0.2273 -0.9073
  668MOL0     C88055   8.736   1.703   3.533 -0.2897  0.0685  0.0801
  668MOL0     C88056   8.882   1.702   3.502 -0.4961 -0.4167 -0.1030
  668MOL0     C88057   8.970   1.750   3.614 -0.1846  0.1694  0.2834
  668MOL0     C88058   9.115   1.752   3.574 -0.5103  0.2106  0.9879
  668MOL0     C88059   9.198   1.795   3.688  0.0516  0.4976 -0.3894
  668MOL0     C88060   9.340   1.819   3.649 -0.6417 -0.2337  0.0084
  668MOL0     N88061   9.364   1.959   3.602  0.3022 -0.0493  1.0615
  668MOL0     C88062   9.392   2.066   3.686  0.3241 -0.0719  0.2430
  668MOL0     C88063   9.407   2.166   3.588  0.8575  0.3253 -0.0938
  668MOL0     C88064   9.455   2.310   3.614 -0.4731 -0.3528 -0.1559
  668MOL0     C88065   9.609   2.322   3.571 -0.0920 -1.2918  0.0546
  668MOL0     C88066   9.678   2.458   3.601 -0.3797  0.7072  0.0442
  668MOL0     C88067   9.828   2.432   3.592 -0.7197  0.3052  0.8041
  668MOL0     O88068   9.887   2.551   3.627 -0.1018  0.3562 -0.0456
  668MOL0     C88069  10.015   2.575   3.588  1.1097 -0.0720  0.1145
  668MOL0     C88070  10.102   2.489   3.533  0.1095  0.3523  0.5725
  668MOL0     C88071  10.227   2.528   3.481  0.4269  0.8854 -0.0799
  668MOL0     C88072  10.269   2.663   3.495 -0.2733  0.3416 -0.4525
  668MOL0     C88073  10.404   2.709   3.447 -0.8689 -0.0039  0.2442
  668MOL0     O88074  10.437   2.839   3.473  0.1869  0.7770 -0.0909
  668MOL0     C88075  10.564   2.878   3.476 -0.3072 -0.6597 -1.2852
  668MOL0     C88076  10.675   2.797   3.483 -0.0460  0.2118  0.3495
  668MOL0     C88077  10.802   2.853   3.489  0.3003  0.5372  0.4819
  668MOL0     C88078  10.825   2.994   3.482 -1.0073 -0.1751  0.1450
  668MOL0     O88079  10.948   3.050   3.511 -0.1235  0.1487  0.3172
  668MOL0     C88080  10.998   3.161   3.434 -0.4603  0.6759  0.2401
  668MOL0     C88081  11.150   3.158   3.463  0.3825 -0.4333  0.5589
  668MOL0     C88082  11.213   3.241   3.341 -0.9818  0.5239 -0.3203
  668MOL0     C88083  11.369   3.266   3.351  0.7420 -0.0459  0.2098
  668MOL0     C88084  11.457   3.238   3.226 -0.7328 -0.0992 -0.0233
  668MOL0     C88085  11.415   3.299   3.095  0.1803  0.2829 -0.6265
  668MOL0     C88086  11.429   3.455   3.098  0.6603  0.3004 -0.8644
  668MOL0     C88087  11.576   3.498   3.101 -0.3139  0.0388  0.5870
  668MOL0    Cl88088  11.587   3.660   3.034  0.2429  0.0665 -0.1169
  668MOL0     C88089  10.713   3.073   3.457 -0.1961 -0.1867  0.2086
  668MOL0     C88090  10.587   3.020   3.451  0.2096 -0.5172 -0.1828
  668MOL0     O88091  10.461   2.635   3.365 -0.2185 -0.4276  0.9163
  668MOL0     C88092  10.163   2.755   3.523  1.4017 -0.0837 -0.2936
  668MOL0     C88093  10.044   2.710   3.579 -0.6174  0.4187  0.0575
  668MOL0     N88094   9.407   2.112   3.460 -0.2097 -0.5777 -1.1775
  668MOL0     N88095   9.379   1.986   3.467  0.2766  0.1912  0.0125
  668MOL0     C88096   8.236   1.801   3.561  0.1457  0.3158 -0.2600
  668MOL0     C88097   8.096   1.770   3.562 -0.2108  0.7394 -1.0144
  668MOL0     C88098   7.679   1.603   3.550 -0.7220  0.2170  0.7248
  668MOL0     C88099   7.643   1.521   3.662 -0.1484  0.3285 -1.1754
  668MOL0     C88100   7.508   1.509   3.691  0.4465  0.4794  0.3191
  668MOL0     C88101   7.403   1.561   3.604 -0.2375  0.2228  0.1578
  668MOL0     O88102   7.279   1.562   3.659 -0.9630 -0.4651 -0.2229
  668MOL0     C88103   7.167   1.540   3.579 -0.1433  0.0998  0.4040
  668MOL0     C88104   7.139   1.390   3.581 -0.0186  1.1082  0.6582
  668MOL0     C88105   7.033   1.340   3.478  0.3595 -0.2866  0.2541
  668MOL0     C88106   6.892   1.388   3.505 -0.4838  0.3863 -0.0863
  668MOL0     C88107   6.786   1.302   3.441 -0.6482 -0.5278 -0.2025
  668MOL0     C88108   6.697   1.221   3.417  0.3606 -0.0165  0.0083
  668MOL0     C88109   7.435   1.630   3.483 -0.4738 -0.2043 -0.2232
  668MOL0     C88110   7.577   1.659   3.462 -0.1586 -0.6212  0.1437
  668MOL0     H88111   8.114   1.488   3.750 -2.0787  0.0623 -1.4025
  668MOL0     H88112   8.339   1.545   3.760 -0.0756  0.0235  1.1602
  668MOL0     H88113   8.481   1.930   3.563 -3.6136 -0.8618 -0.3570
  668MOL0     H88114   8.499   1.809   3.428  0.0529 -0.5866 -0.1505
  668MOL0     H88115   8.708   1.912   3.613 -0.8422  2.0364 -2.4532
  668MOL0     H88116   8.715   1.889   3.444 -0.6853  0.7923 -0.7120
  668MOL0     H88117   8.671   1.649   3.463 -1.7940 -2.2216  3.0171
  668MOL0     H88118   8.727   1.656   3.631 -1.1412 -1.7019 -0.7807
  668MOL0     H88119   8.929   1.608   3.473  4.6319  2.1578 -1.2366
  668MOL0     H88120   8.897   1.753   3.407  1.4151 -1.3070 -0.3354
  668MOL0     H88121   8.952   1.677   3.693 -3.8708  1.0666  0.4096
  668MOL0     H88122   8.942   1.845   3.659 -1.1767 -0.8257  1.8497
  668MOL0     H88123   9.117   1.817   3.487 -3.3704 -1.6602 -0.6448
  668MOL0     H88124   9.155   1.656   3.539  1.3785  1.5827 -0.7839
  668MOL0     H88125   9.157   1.885   3.735 -0.0470  0.8492 -1.1275
  668MOL0     H88126   9.188   1.716   3.763 -3.1893  2.0375  0.9570
  668MOL0     H88127   9.381   1.745   3.579 -0.8305 -0.6718  0.3615
  668MOL0     H88128   9.398   1.810   3.741 -0.6038  0.5778  0.0718
  668MOL0     H88129   9.403   2.060   3.794  2.7789 -1.1979  0.0121
  668MOL0     H88130   9.447   2.337   3.720 -1.3367 -1.8745  0.1985
  668MOL0     H88131   9.404   2.388   3.557  0.5137  1.7736  1.7052
  668MOL0     H88132   9.601   2.305   3.464 -1.9106 -0.1997 -0.0294
  668MOL0     H88133   9.666   2.242   3.620 -1.3361 -3.1215 -1.3648
  668MOL0     H88134   9.642   2.542   3.541 -0.4096  1.3842  0.9821
  668MOL0     H88135   9.650   2.483   3.704 -3.2226 -1.4408 -0.0920
  668MOL0     H88136   9.863   2.387   3.498  3.2731 -1.0806  2.7597
  668MOL0     H88137   9.857   2.374   3.679 -0.2633  0.3873  0.7060
  668MOL0     H88138  10.078   2.383   3.525 -1.0030  0.6232  0.1920
  668MOL0     H88139  10.297   2.459   3.436 -0.8796  0.5680 -1.7550
  668MOL0     H88140  10.667   2.691   3.504  0.6568  0.1074  0.0908
  668MOL0     H88141  10.889   2.788   3.489 -0.4080 -0.6664 -3.3771
  668MOL0     H88142  10.939   3.248   3.466 -2.0103  0.0581 -0.8296
  668MOL0     H88143  10.978   3.154   3.326  2.1048  3.6245 -0.6175
  668MOL0     H88144  11.181   3.053   3.469  0.6897 -0.3468  0.5011
  668MOL0     H88145  11.176   3.205   3.559 -1.2892  1.5712  0.1118
  668MOL0     H88146  11.166   3.339   3.335 -1.6460  0.1846 -0.7887
  668MOL0     H88147  11.179   3.197   3.246  0.6896 -0.3966 -0.5413
  668MOL0     H88148  11.393   3.368   3.383  6.0765 -0.2465 -2.0399
  668MOL0     H88149  11.400   3.192   3.425 -2.0334  0.3828  1.9714
  668MOL0     H88150  11.456   3.129   3.214 -1.5867 -0.1650  0.5635
  668MOL0     H88151  11.560   3.271   3.246 -0.0885 -1.9459 -0.0666
  668MOL0     H88152  11.318   3.254   3.070  0.7665 -0.5085 -1.5591
  668MOL0     H88153  11.480   3.259   3.016 -1.2957 -1.8327 -0.8486
  668MOL0     H88154  11.390   3.505   3.008  1.1841 -2.8870 -3.0302
  668MOL0     H88155  11.389   3.494   3.192 -1.3579 -1.3941 -0.9389
  668MOL0     H88156  11.642   3.441   3.036  1.5185 -0.4891  2.7619
  668MOL0     H88157  11.626   3.475   3.196 -1.2265 -2.1739  0.5783
  668MOL0     H88158  10.725   3.181   3.456  0.8364 -0.2928 -1.4165
  668MOL0     H88159  10.509   3.091   3.424 -0.3297 -1.0390 -0.0242
  668MOL0     H88160  10.163   2.864   3.524 -0.0065  0.0855 -3.6579
  668MOL0     H88161   9.977   2.788   3.612 -1.9352 -1.1290  1.1673
  668MOL0     H88162   8.261   1.892   3.507  2.9003 -0.5713 -0.6212
  668MOL0     H88163   8.042   1.854   3.519  1.9645  1.7792 -1.8479
  668MOL0     H88164   7.726   1.472   3.713  1.7955  1.5309 -3.0087
  668MOL0     H88165   7.483   1.448   3.778  1.2979  1.0940  1.0163
  668MOL0     H88166   7.165   1.578   3.476  2.0971  0.8350  0.5758
  668MOL0     H88167   7.074   1.581   3.618 -1.7817 -2.4548 -0.5805
  668MOL0     H88168   7.233   1.342   3.551  0.0765  1.6397  0.0968
  668MOL0     H88169   7.104   1.353   3.678 -2.9086  0.2764 -0.5911
  668MOL0     H88170   7.037   1.231   3.467  3.0186 -0.1329 -1.1077
  668MOL0     H88171   7.056   1.366   3.374 -1.8349  1.1635  0.0681
  668MOL0     H88172   6.877   1.386   3.613 -0.9076  1.3598 -0.1207
  668MOL0     H88173   6.877   1.493   3.480  1.7836  1.0611  1.0859
  668MOL0     H88174   6.617   1.156   3.388 -1.2924  1.5482  0.9071
  668MOL0     H88175   7.353   1.665   3.421 -0.5084 -0.3304 -0.2489
  668MOL0     H88176   7.609   1.717   3.377 -0.5225 -0.7024 -0.0470
  669MOL0     O88177   7.632   7.543   2.808  0.3768 -0.2019 -1.1479
  669MOL0     C88178   7.616   7.582   2.694 -0.2645 -0.9213 -0.3481
  669MOL0     O88179   7.508   7.657   2.654  0.1332  0.4426  0.0347
  669MOL0     C88180   7.388   7.674   2.717  0.6382 -0.1197 -0.0364
  669MOL0     C88181   7.347   7.607   2.835 -0.2702  0.0578 -0.5307
  669MOL0     C88182   7.220   7.632   2.888  0.7307 -0.0662  0.6173
  669MOL0     C88183   7.132   7.723   2.827 -0.2147  0.4466  0.1300
  669MOL0     O88184   7.011   7.746   2.891 -0.5231 -0.0851  0.5464
  669MOL0     C88185   6.969   7.881   2.892  0.4460  0.5180  0.7920
  669MOL0     C88186   6.873   7.906   3.002 -0.6753  0.6793  0.2074
  669MOL0     C88187   6.847   8.051   3.014 -0.9039  0.6169  0.3235
  669MOL0     C88188   6.753   8.062   3.136 -0.4689  0.4056  0.4420
  669MOL0     C88189   6.690   8.202   3.143  0.5937  0.5649 -0.3287
  669MOL0     C88190   6.769   8.292   3.230  0.7634  0.7615  0.4435
  669MOL0     C88191   6.723   8.437   3.223  0.4113  0.2411  0.6580
  669MOL0     C88192   6.680   8.485   3.356 -0.3772 -0.0362 -0.2400
  669MOL0     N88193   6.617   8.615   3.337 -1.1031 -0.2369  0.3640
  669MOL0     C88194   6.510   8.656   3.415  0.9810 -0.0711 -0.0496
  669MOL0     C88195   6.482   8.781   3.368  0.8424  1.0932 -1.0110
  669MOL0     C88196   6.381   8.872   3.436  0.0233 -1.4726 -0.6090
  669MOL0     C88197   6.422   8.920   3.574  0.0125 -0.7081  0.2210
  669MOL0     C88198   6.547   9.005   3.592 -0.1408 -0.2904 -0.7301
  669MOL0     C88199   6.678   8.957   3.566 -0.8126  0.1174 -0.7739
  669MOL0     O88200   6.709   8.858   3.675  0.2524 -0.8281  0.4533
  669MOL0     C88201   6.827   8.785   3.658  0.6119  0.6178 -0.0160
  669MOL0     C88202   6.820   8.654   3.704  0.4280 -0.5885  0.2890
  669MOL0     C88203   6.934   8.573   3.713 -0.9856  0.8724 -0.0665
  669MOL0     C88204   7.055   8.625   3.657 -0.1293  1.3067 -0.7688
  669MOL0     C88205   7.166   8.535   3.652 -0.1224 -0.1593 -1.1473
  669MOL0     O88206   7.254   8.558   3.553  0.6337  0.6828 -0.1199
  669MOL0     C88207   7.378   8.512   3.568  0.2758 -0.1059  0.2361
  669MOL0     C88208   7.406   8.381   3.528 -0.5101 -0.1745 -0.1298
  669MOL0     C88209   7.532   8.319   3.535 -1.0867 -0.6974  0.3765
  669MOL0     C88210   7.640   8.393   3.589  1.0352 -0.0882  0.4774
  669MOL0     O88211   7.767   8.351   3.593  0.3320  0.7229 -0.2037
  669MOL0     C88212   7.796   8.212   3.622 -0.0278 -0.0961 -0.9474
  669MOL0     C88213   7.819   8.131   3.493  1.0853  0.8561 -0.8748
  669MOL0     C88214   7.811   7.973   3.518  0.2496 -0.3620 -0.1383
  669MOL0     C88215   7.759   7.893   3.401 -0.7316 -0.1067 -0.7247
  669MOL0     C88216   7.832   7.916   3.268 -0.9662 -0.1076  0.7755
  669MOL0     C88217   7.987   7.896   3.258 -1.0868  0.8424 -0.5525
  669MOL0     C88218   8.030   7.753   3.292 -0.2509  0.6353  0.2942
  669MOL0     C88219   8.016   7.660   3.175  0.3632  0.3390 -0.3404
  669MOL0    Cl88220   7.949   7.503   3.231 -0.0088 -0.4094  0.3935
  669MOL0     C88221   7.620   8.537   3.610 -0.0492 -0.1615 -0.0640
  669MOL0     C88222   7.491   8.594   3.599  0.6690  0.1264  0.0400
  669MOL0     O88223   7.172   8.454   3.749 -0.1866  0.2280  0.0457
  669MOL0     C88224   7.056   8.756   3.619 -0.5761  0.4267 -0.4580
  669MOL0     C88225   6.944   8.836   3.617  0.4092 -0.6525 -0.7754
  669MOL0     N88226   6.574   8.812   3.273  0.2140  0.4645  0.2412
  669MOL0     N88227   6.650   8.713   3.248  0.4899 -0.0385 -0.1721
  669MOL0     C88228   7.161   7.759   2.696  1.2288 -0.2936  0.3479
  669MOL0     C88229   7.295   7.748   2.651 -0.3230  0.4391 -0.2510
  669MOL0     C88230   7.725   7.549   2.599  0.1999 -0.0732  0.2394
  669MOL0     C88231   7.842   7.478   2.643 -0.1702  0.9578 -0.1093
  669MOL0     C88232   7.943   7.449   2.550 -0.9975  0.1114  0.1999
  669MOL0     C88233   7.936   7.483   2.419 -0.1011  0.2799 -0.0997
  669MOL0     O88234   8.038   7.433   2.340  0.0297  0.6535 -0.4980
  669MOL0     C88235   8.065   7.502   2.221 -1.0192 -0.1635  0.5204
  669MOL0     C88236   8.169   7.409   2.139 -0.4501 -1.3100 -0.0763
  669MOL0     C88237   8.079   7.303   2.069  0.4359 -0.6635  0.1562
  669MOL0     C88238   8.140   7.229   1.954 -0.9717  0.3795 -0.5733
  669MOL0     C88239   8.047   7.124   1.898 -0.4904 -0.8227 -1.0545
  669MOL0     C88240   7.975   7.034   1.864  0.0041  0.8053  0.6260
  669MOL0     C88241   7.822   7.558   2.371 -0.1320 -0.5693  0.3117
  669MOL0     C88242   7.720   7.593   2.462  0.0753  0.1755  0.3279
  669MOL0     H88243   7.410   7.543   2.896 -0.2470  0.2994 -0.3021
  669MOL0     H88244   7.179   7.586   2.978  0.3286 -2.1191 -0.5492
  669MOL0     H88245   6.925   7.895   2.793 -0.4561  0.5475  1.1867
  669MOL0     H88246   7.058   7.943   2.909  1.4516 -1.0802  1.6570
  669MOL0     H88247   6.919   7.866   3.093 -0.5161 -2.8853 -1.2839
  669MOL0     H88248   6.783   7.845   2.988  0.8453 -1.9098  0.9230
  669MOL0     H88249   6.803   8.095   2.924  0.6059 -0.6055 -1.0675
  669MOL0     H88250   6.936   8.112   3.030  0.7812 -1.4576 -0.6314
  669MOL0     H88251   6.668   7.998   3.112 -0.7439  0.9438 -0.0591
  669MOL0     H88252   6.787   8.039   3.237 -1.4381  0.0812  0.7056
  669MOL0     H88253   6.589   8.205   3.183 -0.0267 -0.9640 -1.6713
  669MOL0     H88254   6.677   8.239   3.041 -0.2229 -3.7143 -1.9977
  669MOL0     H88255   6.870   8.296   3.189  0.8118 -1.6011  0.2159
  669MOL0     H88256   6.784   8.250   3.330  1.3298  1.5147  0.6907
  669MOL0     H88257   6.808   8.498   3.190  1.2188 -2.2909 -2.4834
  669MOL0     H88258   6.642   8.438   3.150 -0.2142 -1.9970  1.2522
  669MOL0     H88259   6.759   8.484   3.432 -2.5393  1.8819  2.1667
  669MOL0     H88260   6.598   8.418   3.384 -1.0242  0.4647 -0.9136
  669MOL0     H88261   6.466   8.605   3.500  0.3864  3.3173  1.8548
  669MOL0     H88262   6.278   8.834   3.437 -0.1472 -1.0259  0.0588
  669MOL0     H88263   6.373   8.961   3.372 -1.5714 -1.9135 -1.0772
  669MOL0     H88264   6.440   8.836   3.643  0.6817 -0.7193  0.0441
  669MOL0     H88265   6.341   8.989   3.601  1.4027  0.3441  1.9602
  669MOL0     H88266   6.534   9.100   3.539  3.7725  1.4370  0.9937
  669MOL0     H88267   6.540   9.037   3.696 -0.5170 -0.3244 -0.7463
  669MOL0     H88268   6.759   9.032   3.564 -0.1008 -0.6559 -1.8043
  669MOL0     H88269   6.675   8.911   3.467  3.0344 -0.3673 -0.8459
  669MOL0     H88270   6.727   8.602   3.726  1.7734 -2.5187  1.8079
  669MOL0     H88271   6.924   8.472   3.751  2.7909  0.9999  1.6513
  669MOL0     H88272   7.324   8.319   3.494  1.8726 -3.4295 -0.3711
  669MOL0     H88273   7.552   8.219   3.499  1.6744  0.8272 -2.8591
  669MOL0     H88274   7.714   8.160   3.672  0.0642 -1.5627 -2.2742
  669MOL0     H88275   7.889   8.204   3.678 -1.5359  0.6678  1.8731
  669MOL0     H88276   7.913   8.160   3.445  1.9422  0.8338  0.6933
  669MOL0     H88277   7.736   8.153   3.426 -1.3103 -4.8136 -0.3155
  669MOL0     H88278   7.744   7.942   3.599  0.4544 -1.1297 -0.2546
  669MOL0     H88279   7.917   7.957   3.540  0.3214  1.6549  1.2672
  669MOL0     H88280   7.757   7.788   3.428  1.8457  0.3195  1.5518
  669MOL0     H88281   7.656   7.928   3.391 -2.3146 -4.0587  0.1726
  669MOL0     H88282   7.790   8.006   3.222  2.8869  1.5170  0.0372
  669MOL0     H88283   7.794   7.835   3.204 -2.0299  1.6315 -0.9046
  669MOL0     H88284   8.046   7.967   3.317  1.8092 -0.8665 -1.1483
  669MOL0     H88285   8.026   7.907   3.156  2.8790 -4.4508 -0.0330
  669MOL0     H88286   8.137   7.741   3.314 -0.4972 -2.3412  0.1924
  669MOL0     H88287   7.986   7.710   3.382  3.5477  0.7757  2.4490
  669MOL0     H88288   8.119   7.648   3.142  1.1991 -2.0785  2.6792
  669MOL0     H88289   7.956   7.718   3.104 -2.5480  0.7571  2.2118
  669MOL0     H88290   7.709   8.589   3.643  0.6065 -0.4307 -1.3119
  669MOL0     H88291   7.479   8.702   3.606  3.3142  0.5611 -1.0806
  669MOL0     H88292   7.152   8.796   3.589  0.2152  1.1284  2.6517
  669MOL0     H88293   6.964   8.941   3.598  0.9380  0.0004  2.8284
  669MOL0     H88294   7.091   7.823   2.644 -0.4218 -0.7069  1.9412
  669MOL0     H88295   7.317   7.773   2.548 -2.5247 -1.9949 -1.4370
  669MOL0     H88296   7.851   7.452   2.748 -1.0946 -2.7033 -0.7895
  669MOL0     H88297   8.026   7.390   2.589 -1.7544  0.1649  2.0181
  669MOL0     H88298   8.123   7.592   2.244 -2.2920  1.5767 -2.5087
  669MOL0     H88299   7.976   7.534   2.167 -0.2076  0.5260 -0.4368
  669MOL0     H88300   8.219   7.474   2.066  1.9095 -1.5901  1.2025
  669MOL0     H88301   8.242   7.361   2.205  2.2856  1.9952 -0.4012
  669MOL0     H88302   7.976   7.328   2.042  1.2160  1.2612 -1.3159
  669MOL0     H88303   8.064   7.222   2.140  3.6893  0.3007  2.1514
  669MOL0     H88304   8.160   7.296   1.869 -1.1644 -0.3283 -1.1855
  669MOL0     H88305   8.232   7.182   1.990 -1.6388  1.7562  3.3468
  669MOL0     H88306   7.905   6.956   1.842  2.2861 -0.8423 -1.3071
  669MOL0     H88307   7.816   7.606   2.273 -1.9017 -1.9043 -0.2967
  669MOL0     H88308   7.636   7.653   2.432  1.2851  2.4225  1.1819
  670MOL0     O88309   0.153   4.924   6.686 -0.0324 -0.1056 -0.1997
  670MOL0     C88310   0.125   4.802   6.678  0.6108 -0.9120  0.7670
  670MOL0     O88311   0.209   4.699   6.700 -0.4784  0.1991 -1.5529
  670MOL0     C88312   0.341   4.722   6.741  0.5489  0.2465  0.0986
  670MOL0     C88313   0.388   4.638   6.839  0.5555  0.2166 -0.0327
  670MOL0     C88314   0.514   4.657   6.889 -0.2311  0.6576  0.5689
  670MOL0     C88315   0.594   4.756   6.839 -0.3972 -0.8774  0.6705
  670MOL0     O88316   0.718   4.775   6.884  0.3379 -0.9702  0.2272
  670MOL0     C88317   0.736   4.899   6.953 -0.3553 -0.4031 -0.6533
  670MOL0     C88318   0.658   4.898   7.095 -0.8530  0.1824  1.3265
  670MOL0     C88319   0.745   4.961   7.214 -0.8775  0.0624  0.3371
  670MOL0     C88320   0.666   4.926   7.337  0.0606  0.4110  0.7466
  670MOL0     C88321   0.680   5.007   7.459  0.7805  0.1135  0.1394
  670MOL0     C88322   0.600   4.949   7.579  0.6841 -0.2657 -0.0277
  670MOL0     C88323   0.576   5.070   7.674  0.0179  0.4839 -0.0328
  670MOL0     C88324   0.714   5.116   7.738  0.8412  0.6367  0.4834
  670MOL0     N88325   0.690   5.246   7.801 -0.0208  0.1385 -0.6929
  670MOL0     C88326   0.650   5.262   7.934  0.3536 -0.5039 -0.2947
  670MOL0     C88327   0.682   5.391   7.956 -0.2517 -0.3636  0.6143
  670MOL0     C88328   0.651   5.459   8.087  0.7302 -0.0897 -0.0794
  670MOL0     C88329   0.757   5.511   8.180 -0.9729 -1.2385 -0.0537
  670MOL0     C88330   0.845   5.605   8.101  0.6019  0.6271 -0.0613
  670MOL0     C88331   0.788   5.734   8.039  1.6602  0.1295 -0.2197
  670MOL0     O88332   0.706   5.807   8.141 -0.5700 -0.5048  0.4988
  670MOL0     C88333   0.645   5.929   8.106 -0.2664  0.5867 -0.7611
  670MOL0     C88334   0.541   5.970   8.184  0.5596  0.6261  0.0494
  670MOL0     C88335   0.473   6.094   8.164 -0.4795  0.4766 -0.5486
  670MOL0     C88336   0.510   6.169   8.052 -0.0790  0.0349  0.0409
  670MOL0     C88337   0.448   6.304   8.015 -0.3514 -0.0581 -0.4818
  670MOL0     O88338   0.345   6.349   8.104 -0.5774  0.5634 -0.7762
  670MOL0     C88339   0.289   6.480   8.089 -0.0991  1.1280 -0.3519
  670MOL0     C88340   0.159   6.489   8.075  0.2256 -0.4253  0.5306
  670MOL0     C88341   0.102   6.610   8.034  0.1344 -0.2528  0.0811
  670MOL0     C88342   0.182   6.730   8.031 -0.1552 -0.3844 -1.4270
  670MOL0     O88343   0.132   6.847   7.981  0.5887  0.3213 -0.1113
  670MOL0     C88344   0.031   6.911   8.063  0.6281  0.5012  0.6132
  670MOL0     C88345   0.021   7.063   8.030 -0.3452  0.4292 -0.6752
  670MOL0     C88346   0.134   7.150   8.082  0.0458  0.2720  0.4616
  670MOL0     C88347   0.098   7.293   8.054 -0.0529  0.1958  1.0340
  670MOL0     C88348   0.188   7.388   8.130  0.1868  0.3460  0.3812
  670MOL0     C88349   0.184   7.529   8.067  0.8800 -1.2777 -0.2793
  670MOL0     C88350   0.280   7.613   8.147  0.0012  0.0637  0.0046
  670MOL0     C88351   0.263   7.752   8.124  0.3040  0.2476 -0.5678
  670MOL0    Cl88352   0.291   7.783   7.944 -0.1352  0.2536 -0.1940
  670MOL0     C88353   0.320   6.724   8.049  0.0382 -0.2721  0.2268
  670MOL0     C88354   0.376   6.597   8.076  0.5952  0.1813  0.4973
  670MOL0     O88355   0.479   6.364   7.914 -0.0402  0.3137  0.3212
  670MOL0     C88356   0.620   6.125   7.971  0.3680  0.1004 -0.0327
  670MOL0     C88357   0.692   6.009   8.008 -0.7058  0.2004 -0.0230
  670MOL0     N88358   0.730   5.447   7.842  0.3676  0.0136  0.5312
  670MOL0     N88359   0.752   5.356   7.753 -0.3356  0.9496 -0.0946
  670MOL0     C88360   0.545   4.835   6.735 -0.2073  0.8001  0.1333
  670MOL0     C88361   0.421   4.825   6.679 -0.8123  0.1797  0.8614
  670MOL0     C88362  -0.012   4.764   6.661 -0.6343 -0.0573 -0.0827
  670MOL0     C88363  -0.059   4.630   6.679 -0.5215  0.1105 -0.6192
  670MOL0     C88364  -0.191   4.590   6.658 -0.1927  0.9277 -0.0225
  670MOL0     C88365  -0.275   4.676   6.600  0.8664 -0.3239  0.0864
  670MOL0     O88366  -0.403   4.622   6.570 -0.4661 -0.0897 -0.3039
  670MOL0     C88367  -0.520   4.719   6.549  0.1057 -0.1182 -0.4666
  670MOL0     C88368  -0.550   4.769   6.698  1.0230 -0.1326 -0.7417
  670MOL0     C88369  -0.669   4.867   6.701  0.1793 -0.0326  0.8221
  670MOL0     C88370  -0.803   4.807   6.741  0.2532  0.4048  0.2108
  670MOL0     C88371  -0.892   4.897   6.811 -0.2245  0.9563  0.1901
  670MOL0     C88372  -0.980   4.961   6.864 -0.1778  1.0618  0.3373
  670MOL0     C88373  -0.234   4.804   6.566 -0.3718  0.4868 -0.2167
  670MOL0     C88374  -0.106   4.850   6.602 -0.0085  0.1619  0.0700
  670MOL0     H88375   0.332   4.547   6.860  3.1773 -1.6144 -0.5650
  670MOL0     H88376   0.559   4.589   6.961 -1.9752  0.0113  1.0782
  670MOL0     H88377   0.702   4.981   6.889 -1.1450  0.8186  1.2440
  670MOL0     H88378   0.844   4.911   6.961 -0.4211 -1.0886  2.6440
  670MOL0     H88379   0.642   4.794   7.123  1.5091  0.0619  2.5202
  670MOL0     H88380   0.565   4.952   7.076 -1.7587 -1.5078  0.6744
  670MOL0     H88381   0.770   5.066   7.199  2.4455 -1.0683 -4.7173
  670MOL0     H88382   0.849   4.927   7.219 -0.6433  0.2083 -2.3599
  670MOL0     H88383   0.561   4.929   7.307 -0.1144  0.7766  1.3629
  670MOL0     H88384   0.692   4.826   7.373 -1.1420  0.5284  2.0540
  670MOL0     H88385   0.663   5.115   7.453 -2.3736 -0.0871  2.4691
  670MOL0     H88386   0.787   5.003   7.483  0.9484  1.9635 -0.1651
  670MOL0     H88387   0.658   4.871   7.629 -0.1008 -0.8618 -0.0322
  670MOL0     H88388   0.507   4.901   7.548 -0.8597  0.4049  3.1588
  670MOL0     H88389   0.520   5.146   7.619  0.4912  1.2942  0.5893
  670MOL0     H88390   0.515   5.045   7.762  0.2403 -1.2796 -0.3426
  670MOL0     H88391   0.797   5.127   7.667  2.4372  0.5272  2.2363
  670MOL0     H88392   0.753   5.040   7.806  1.5975  1.8582  1.4584
  670MOL0     H88393   0.590   5.202   8.003 -4.6359  2.9651 -1.0614
  670MOL0     H88394   0.593   5.393   8.152  0.4997 -0.5983 -0.7861
  670MOL0     H88395   0.578   5.538   8.066  1.7977  0.8791 -0.2217
  670MOL0     H88396   0.805   5.422   8.223  3.3987 -0.2934 -2.3686
  670MOL0     H88397   0.725   5.571   8.265 -1.1049  0.1966 -1.0888
  670MOL0     H88398   0.918   5.635   8.177  0.3684  5.0267 -1.2903
  670MOL0     H88399   0.890   5.537   8.028  0.7241  1.3742 -0.6925
  670MOL0     H88400   0.724   5.719   7.952  1.7948  1.3790 -0.5664
  670MOL0     H88401   0.869   5.797   8.000 -0.0762  2.8579  0.3238
  670MOL0     H88402   0.510   5.922   8.276 -2.6800 -1.5387 -1.9866
  670MOL0     H88403   0.388   6.124   8.225  0.4221  0.2276  0.8583
  670MOL0     H88404   0.099   6.399   8.080 -2.7719  1.4647  1.3225
  670MOL0     H88405  -0.006   6.611   8.022  0.2409 -2.7517 -1.7058
  670MOL0     H88406   0.043   6.890   8.170 -1.0619 -0.3119  0.6775
  670MOL0     H88407  -0.066   6.875   8.029  1.1200 -1.3026  0.9758
  670MOL0     H88408  -0.073   7.097   8.075 -0.4743 -1.2606  0.4523
  670MOL0     H88409   0.008   7.079   7.923 -2.4636  0.0374 -0.5383
  670MOL0     H88410   0.238   7.125   8.060  0.5461  0.2961  2.5231
  670MOL0     H88411   0.136   7.138   8.191  3.8604 -0.1144  0.4645
  670MOL0     H88412   0.111   7.316   7.948 -0.6667 -2.2599  0.3642
  670MOL0     H88413  -0.009   7.310   8.071 -0.3098 -0.0242 -0.2266
  670MOL0     H88414   0.292   7.353   8.134 -0.1710 -0.6838  0.9761
  670MOL0     H88415   0.134   7.392   8.225 -0.7541  1.6643 -0.1764
  670MOL0     H88416   0.083   7.567   8.089  0.7669 -1.6497 -0.1455
  670MOL0     H88417   0.210   7.531   7.961  2.1911  0.1511  0.0358
  670MOL0     H88418   0.264   7.593   8.254 -1.3875  0.4785 -0.1091
  670MOL0     H88419   0.378   7.586   8.107 -0.8163 -0.0384 -2.0057
  670MOL0     H88420   0.322   7.808   8.197  1.2189 -0.9404 -0.3657
  670MOL0     H88421   0.159   7.780   8.142 -1.3858 -4.4470 -1.6229
  670MOL0     H88422   0.388   6.809   8.053 -1.3623  0.8376  2.5088
  670MOL0     H88423   0.483   6.589   8.097  0.9763  0.1979 -1.2970
  670MOL0     H88424   0.651   6.171   7.878  4.7661 -0.4234  0.9416
  670MOL0     H88425   0.781   5.983   7.951  0.9316  2.7869  1.1496
  670MOL0     H88426   0.605   4.923   6.713  2.5609 -0.8852  0.4404
  670MOL0     H88427   0.379   4.884   6.598 -1.0158  0.2289  1.0017
  670MOL0     H88428  -0.000   4.563   6.740  0.8604 -0.2951 -2.3082
  670MOL0     H88429  -0.208   4.486   6.684  2.3008  0.2568 -0.7346
  670MOL0     H88430  -0.602   4.662   6.504 -0.2339  0.0594 -0.0802
  670MOL0     H88431  -0.495   4.809   6.493  2.8581  0.2873  1.1974
  670MOL0     H88432  -0.580   4.682   6.756 -1.4711 -1.2407 -3.4854
  670MOL0     H88433  -0.465   4.815   6.751  0.5498 -1.8738  1.6921
  670MOL0     H88434  -0.670   4.919   6.605  2.0354  0.7873  1.2236
  670MOL0     H88435  -0.644   4.945   6.773  0.6243  0.4971  0.1098
  670MOL0     H88436  -0.854   4.799   6.645  0.0688  0.3853  0.3102
  670MOL0     H88437  -0.796   4.713   6.796 -5.8838 -0.8984 -0.5521
  670MOL0     H88438  -1.064   5.010   6.909 -1.1475 -1.6516  1.6731
  670MOL0     H88439  -0.302   4.876   6.521 -1.1530 -0.8514 -1.2432
  670MOL0     H88440  -0.087   4.947   6.558 -1.7733  1.5327  2.0985
  671MOL0     O88441   6.902   0.770   0.116  0.2596 -1.1727  0.1656
  671MOL0     C88442   6.870   0.805   0.228  1.0582 -0.7288  0.1966
  671MOL0     O88443   6.773   0.759   0.298  1.0953  0.5597  0.0795
  671MOL0     C88444   6.670   0.686   0.247  0.2700 -0.9063  0.0882
  671MOL0     C88445   6.638   0.667   0.116  0.7625  0.2871  0.0133
  671MOL0     C88446   6.524   0.593   0.088  0.5949 -1.3335  1.0285
  671MOL0     C88447   6.451   0.529   0.184 -0.1275 -0.0206 -1.0367
  671MOL0     O88448   6.345   0.451   0.147 -0.5909 -0.0921 -0.0172
  671MOL0     C88449   6.255   0.490   0.043  1.2545 -0.7282  0.2338
  671MOL0     C88450   6.213   0.636   0.032 -0.4839  0.9132 -0.4746
  671MOL0     C88451   6.097   0.679   0.124 -0.1972  0.6520 -0.2155
  671MOL0     C88452   6.024   0.816   0.083  0.4170 -0.0264  0.1295
  671MOL0     C88453   5.925   0.851   0.196 -1.1762  0.9326  0.3959
  671MOL0     C88454   5.874   0.991   0.180  1.0029 -0.1369 -1.0695
  671MOL0     C88455   5.784   1.007   0.054 -0.4188 -1.2989  0.0216
  671MOL0     C88456   5.663   0.903   0.057 -0.2139 -0.1480  0.3141
  671MOL0     N88457   5.575   0.940   0.170 -0.6234 -0.1939 -0.4841
  671MOL0     C88458   5.466   1.024   0.156 -0.0831  0.0482 -1.1972
  671MOL0     C88459   5.396   1.010   0.273  0.1669 -0.0050  0.1806
  671MOL0     C88460   5.259   1.057   0.304  0.1924 -0.1893 -0.2808
  671MOL0     C88461   5.220   1.204   0.267 -0.3270  0.1109  1.4615
  671MOL0     C88462   5.278   1.296   0.366 -0.1338  0.4019  0.2091
  671MOL0     C88463   5.423   1.336   0.341 -0.7721 -0.1777  0.2294
  671MOL0     O88464   5.464   1.386   0.208  0.3215 -0.0833 -0.0577
  671MOL0     C88465   5.595   1.435   0.173  0.4649 -0.6712  0.5711
  671MOL0     C88466   5.712   1.381   0.219  1.2926 -0.8354 -0.3059
  671MOL0     C88467   5.834   1.430   0.186  0.0359  0.0808 -1.2374
  671MOL0     C88468   5.841   1.532   0.082 -0.2964 -0.8334 -0.0141
  671MOL0     C88469   5.970   1.587   0.035  0.2244 -0.0890 -0.0732
  671MOL0     O88470   6.081   1.546   0.097  0.2399 -0.3673  0.4156
  671MOL0     C88471   6.204   1.598   0.073 -0.4075 -0.2209 -0.5207
  671MOL0     C88472   6.306   1.504   0.062  0.1023  0.0307  0.2605
  671MOL0     C88473   6.437   1.525   0.047  0.5676 -0.7946 -0.8503
  671MOL0     C88474   6.485   1.657   0.053 -0.1651 -0.5945 -0.2878
  671MOL0     O88475   6.621   1.692   0.045 -0.2118 -0.2032  0.1287
  671MOL0     C88476   6.705   1.622  -0.033  0.0269 -0.4122  0.3107
  671MOL0     C88477   6.689   1.658  -0.182 -0.7163  0.6887 -0.4591
  671MOL0     C88478   6.816   1.596  -0.258 -0.5376 -0.1517 -0.5716
  671MOL0     C88479   6.786   1.629  -0.406  0.9122  0.2404 -0.1215
  671MOL0     C88480   6.905   1.583  -0.486  0.0784 -0.0886  0.4615
  671MOL0     C88481   7.020   1.684  -0.479 -0.5903  0.1468 -1.0330
  671MOL0     C88482   7.149   1.625  -0.543 -0.3533  0.1573  0.3989
  671MOL0     C88483   7.222   1.752  -0.589  0.1420  0.6700  0.0631
  671MOL0    Cl88484   7.339   1.791  -0.456  0.5500  0.4858  0.0750
  671MOL0     C88485   6.392   1.756   0.059 -0.1570 -0.3637 -0.6998
  671MOL0     C88486   6.258   1.728   0.078 -0.2273  0.4044  0.3367
  671MOL0     O88487   5.959   1.663  -0.061  0.0875  0.8549 -0.9072
  671MOL0     C88488   5.722   1.575   0.022  0.6502 -0.0135  0.7872
  671MOL0     C88489   5.598   1.525   0.073 -1.2943  0.4746  0.9995
  671MOL0     N88490   5.479   0.942   0.362  0.8226  0.1006  0.7236
  671MOL0     N88491   5.575   0.889   0.294  0.1295 -0.3187 -0.0489
  671MOL0     C88492   6.492   0.537   0.315  0.5087 -0.6875  0.4851
  671MOL0     C88493   6.590   0.628   0.347  0.6858  0.4080 -0.2543
  671MOL0     C88494   6.943   0.906   0.296 -0.9923  0.8901  0.1842
  671MOL0     C88495   7.061   0.959   0.236  0.1621 -0.4322  0.8612
  671MOL0     C88496   7.134   1.059   0.306 -0.4674 -0.1345  0.0089
  671MOL0     C88497   7.102   1.090   0.441 -0.2468  0.2092 -1.5161
  671MOL0     O88498   7.184   1.174   0.512  0.1800 -0.4519 -0.4566
  671MOL0     C88499   7.242   1.126   0.634  0.1402 -0.3997  0.1715
  671MOL0     C88500   7.390   1.171   0.644 -0.6383  1.4456  0.1350
  671MOL0     C88501   7.469   1.150   0.515 -0.1540  0.1046  0.8458
  671MOL0     C88502   7.601   1.222   0.494 -0.6099  0.1710 -0.2509
  671MOL0     C88503   7.725   1.135   0.487 -0.4686  0.6647 -0.4155
  671MOL0     C88504   7.822   1.057   0.491  1.1625 -0.3711  0.3996
  671MOL0     C88505   7.003   1.025   0.514  0.4742 -0.3775  0.9593
  671MOL0     C88506   6.920   0.936   0.440  0.7901 -0.5605 -0.5265
  671MOL0     H88507   6.687   0.710   0.029  1.7718 -0.7444  0.0483
  671MOL0     H88508   6.499   0.599  -0.018  2.1706 -1.8126  0.6020
  671MOL0     H88509   6.162   0.433   0.050  1.1037 -0.3412  2.1967
  671MOL0     H88510   6.295   0.457  -0.053  0.8193  3.7312 -1.7039
  671MOL0     H88511   6.175   0.652  -0.069  1.8044 -0.1283 -1.5693
  671MOL0     H88512   6.300   0.701   0.025  0.6435 -0.4373  0.5461
  671MOL0     H88513   6.146   0.694   0.221  3.3969  0.8063 -1.8964
  671MOL0     H88514   6.019   0.603   0.127  0.6854 -0.2908 -0.6697
  671MOL0     H88515   6.097   0.895   0.066 -0.5009  0.5469 -1.3761
  671MOL0     H88516   5.964   0.803  -0.007 -4.0802  0.6157  2.7277
  671MOL0     H88517   5.989   0.858   0.285 -0.4199  2.1751 -0.2269
  671MOL0     H88518   5.859   0.767   0.221  0.9702 -0.9690  0.1044
  671MOL0     H88519   5.947   1.072   0.176  1.2262 -0.2484  0.3273
  671MOL0     H88520   5.815   1.009   0.271  0.6911  0.1206 -1.3197
  671MOL0     H88521   5.746   1.109   0.045 -1.0446 -1.5590 -0.3362
  671MOL0     H88522   5.839   0.985  -0.038 -1.7556 -1.8227 -0.6892
  671MOL0     H88523   5.696   0.801   0.078  0.9468  0.6359  2.5953
  671MOL0     H88524   5.594   0.900  -0.028 -1.8556 -1.4698  1.6320
  671MOL0     H88525   5.433   1.071   0.064  0.1378  0.8020 -0.8981
  671MOL0     H88526   5.238   1.041   0.411 -1.5964 -0.1372 -0.5807
  671MOL0     H88527   5.191   0.998   0.241  0.3786 -0.8398  0.1118
  671MOL0     H88528   5.111   1.205   0.262 -0.3163  1.6476 -2.8832
  671MOL0     H88529   5.256   1.219   0.165 -1.8251 -4.6014 -0.0268
  671MOL0     H88530   5.216   1.384   0.351  2.1975  2.1567  0.3358
  671MOL0     H88531   5.270   1.264   0.470 -0.3177  1.8066  0.6451
  671MOL0     H88532   5.495   1.256   0.354  0.5275  0.7850 -0.7828
  671MOL0     H88533   5.464   1.406   0.414  3.3241  1.0607 -2.8535
  671MOL0     H88534   5.712   1.297   0.288 -1.8037 -1.5569 -1.0402
  671MOL0     H88535   5.927   1.407   0.237 -1.6358  0.0359  2.1024
  671MOL0     H88536   6.284   1.398   0.071 -0.1074 -0.2902 -2.9341
  671MOL0     H88537   6.500   1.437   0.039 -1.1395 -2.2829  0.9504
  671MOL0     H88538   6.680   1.515  -0.028 -3.5011  0.1973 -0.9956
  671MOL0     H88539   6.810   1.645  -0.013 -0.1099  1.5127 -0.9207
  671MOL0     H88540   6.697   1.766  -0.192 -1.9132  0.8223 -0.1031
  671MOL0     H88541   6.601   1.606  -0.221 -0.0864 -0.3634 -0.5417
  671MOL0     H88542   6.831   1.489  -0.241 -3.5975 -0.5898  0.0092
  671MOL0     H88543   6.902   1.648  -0.216  0.0536 -1.1787 -0.4688
  671MOL0     H88544   6.697   1.575  -0.439  2.4440 -1.2413 -2.0464
  671MOL0     H88545   6.769   1.735  -0.429  1.9839  0.1708 -1.3877
  671MOL0     H88546   6.876   1.566  -0.590 -0.1916  0.5159  0.4327
  671MOL0     H88547   6.942   1.485  -0.457  1.0822 -0.8358 -2.9129
  671MOL0     H88548   7.041   1.710  -0.374  2.1620  2.3512 -1.9948
  671MOL0     H88549   6.981   1.776  -0.525  0.6811  2.3523  1.9026
  671MOL0     H88550   7.195   1.556  -0.471 -0.2109 -0.9636 -0.7290
  671MOL0     H88551   7.124   1.566  -0.631 -0.7836 -2.1776  1.9895
  671MOL0     H88552   7.155   1.836  -0.611  0.7902  0.9653 -0.8258
  671MOL0     H88553   7.279   1.730  -0.680 -1.6060  1.8014 -1.3758
  671MOL0     H88554   6.414   1.863   0.062 -0.5425 -0.2384 -1.7566
  671MOL0     H88555   6.178   1.801   0.081 -0.3866  0.3370 -1.2204
  671MOL0     H88556   5.720   1.647  -0.059  0.5119  0.0563  0.8531
  671MOL0     H88557   5.511   1.573   0.028 -0.5503  0.5289 -0.4391
  671MOL0     H88558   6.428   0.481   0.382 -2.6961 -1.3641 -2.7855
  671MOL0     H88559   6.600   0.644   0.454  1.7943 -0.4896 -0.2069
  671MOL0     H88560   7.084   0.922   0.137 -4.0942 -0.7171 -0.1918
  671MOL0     H88561   7.222   1.100   0.258  0.4225 -4.3460 -2.4364
  671MOL0     H88562   7.249   1.017   0.635  1.8031 -0.3666  2.9096
  671MOL0     H88563   7.181   1.162   0.718  1.4678 -2.2348  2.0444
  671MOL0     H88564   7.387   1.277   0.669 -0.1234  1.1684  1.4829
  671MOL0     H88565   7.448   1.109   0.713  0.0671 -1.3036 -2.6966
  671MOL0     H88566   7.411   1.177   0.427 -0.9683 -1.3154  0.9237
  671MOL0     H88567   7.484   1.042   0.514 -3.7321 -0.5264  0.8066
  671MOL0     H88568   7.600   1.280   0.401 -0.0326 -0.0556 -0.4002
  671MOL0     H88569   7.615   1.286   0.582  1.0635  0.7980 -0.9474
  671MOL0     H88570   7.883   0.969   0.494  1.6915  0.0311  2.6042
  671MOL0     H88571   7.002   1.030   0.623 -0.8574 -0.9628  0.9881
  671MOL0     H88572   6.842   0.886   0.498  1.0637  2.7050  3.1136
  672MOL0     O88573   0.489   7.893   9.560 -0.4008  0.4969 -0.0095
  672MOL0     C88574   0.387   7.837   9.510 -0.6152 -0.0895 -0.0108
  672MOL0     O88575   0.299   7.757   9.575  0.8688  0.1541 -0.2505
  672MOL0     C88576   0.321   7.728   9.708  0.8070  0.4747  0.0316
  672MOL0     C88577   0.437   7.665   9.749 -0.1189  0.2048  0.5773
  672MOL0     C88578   0.449   7.629   9.884  0.1604  0.3580 -0.2280
  672MOL0     C88579   0.355   7.687   9.985 -0.8949 -0.0755  0.0147
  672MOL0     O88580   0.376   7.677  10.122  0.4879 -0.1206 -0.2316
  672MOL0     C88581   0.471   7.586  10.170  0.9772  0.6122 -0.0975
  672MOL0     C88582   0.453   7.593  10.320 -0.1047 -0.1499 -0.0848
  672MOL0     C88583   0.535   7.482  10.381  0.3261  0.4246 -1.1284
  672MOL0     C88584   0.510   7.482  10.530  0.5774  0.1842  0.0031
  672MOL0     C88585   0.609   7.409  10.614  0.2755  0.5385  1.3273
  672MOL0     C88586   0.560   7.401  10.758  0.2488 -0.4614  0.5184
  672MOL0     C88587   0.642   7.307  10.843  0.0046 -0.2818 -0.3315
  672MOL0     C88588   0.623   7.323  10.994  0.3862 -0.5825 -0.1785
  672MOL0     N88589   0.731   7.394  11.059 -0.1774  0.2325 -0.8687
  672MOL0     C88590   0.861   7.348  11.067 -1.2939  0.2611  0.1650
  672MOL0     C88591   0.933   7.448  11.128 -0.2341  0.4683  0.1481
  672MOL0     C88592   1.076   7.417  11.159 -0.4261 -0.7017  0.4758
  672MOL0     C88593   1.085   7.296  11.257 -0.0694 -0.0971 -0.4839
  672MOL0     C88594   1.213   7.288  11.352 -0.4128 -0.1521 -0.5035
  672MOL0     C88595   1.253   7.149  11.370  1.0157  0.3840 -0.2765
  672MOL0     O88596   1.161   7.100  11.468  1.1152  0.5321 -0.1876
  672MOL0     C88597   1.153   6.958  11.492  0.4116  0.3516  0.9450
  672MOL0     C88598   1.053   6.928  11.587 -0.6760  0.0368 -0.0349
  672MOL0     C88599   1.034   6.800  11.624  0.6787  0.8884  0.8320
  672MOL0     C88600   1.082   6.695  11.540  0.2632  1.0515 -0.4236
  672MOL0     C88601   1.044   6.551  11.568 -0.3074 -0.6481  0.1668
  672MOL0     O88602   0.952   6.531  11.669  0.6185 -0.0118  0.1196
  672MOL0     C88603   0.925   6.413  11.733 -0.8023 -0.5854 -0.3593
  672MOL0     C88604   0.970   6.289  11.694  0.4895 -0.3080 -0.0787
  672MOL0     C88605   0.937   6.173  11.767  0.0323  0.0868  0.9158
  672MOL0     C88606   0.874   6.178  11.885  0.8952 -0.1754 -0.5042
  672MOL0     O88607   0.842   6.061  11.954  0.4582  0.1639 -0.1554
  672MOL0     C88608   0.843   6.061  12.097 -0.3862 -0.5448  0.3490
  672MOL0     C88609   0.786   5.928  12.150 -0.3785 -0.0445  0.3342
  672MOL0     C88610   0.789   5.943  12.311 -0.1545  0.5528 -0.2678
  672MOL0     C88611   0.723   5.806  12.373 -0.5325 -0.8984  0.1208
  672MOL0     C88612   0.782   5.668  12.326  0.7792  0.1235  0.5275
  672MOL0     C88613   0.855   5.612  12.444 -0.8403 -0.7264  0.0186
  672MOL0     C88614   0.945   5.490  12.400 -0.2284 -0.5228 -0.4163
  672MOL0     C88615   0.883   5.353  12.405 -0.8014 -0.4132 -0.2718
  672MOL0    Cl88616   0.782   5.340  12.557  0.0437  0.0544  0.0457
  672MOL0     C88617   0.828   6.301  11.923  0.0605  0.2439 -1.2492
  672MOL0     C88618   0.852   6.423  11.851  0.1317 -0.3881 -0.3410
  672MOL0     O88619   1.088   6.458  11.498  0.5211  0.1245 -0.3064
  672MOL0     C88620   1.181   6.727  11.444 -0.9277 -0.5377  0.5463
  672MOL0     C88621   1.224   6.856  11.434 -0.4494 -0.0001 -0.4062
  672MOL0     N88622   0.849   7.552  11.157  0.4422 -0.1408  0.5674
  672MOL0     N88623   0.729   7.515  11.116 -0.2732 -0.1316  0.8011
  672MOL0     C88624   0.235   7.738   9.942 -0.2980 -0.2733  0.1905
  672MOL0     C88625   0.216   7.748   9.798 -0.4158 -0.9447 -0.7081
  672MOL0     C88626   0.372   7.850   9.367  0.8426  0.0078 -0.2261
  672MOL0     C88627   0.310   7.760   9.280  0.6676  0.4287  0.0733
  672MOL0     C88628   0.302   7.781   9.143 -0.2427  0.2701  0.4966
  672MOL0     C88629   0.361   7.892   9.084 -0.1080  0.8250  0.4742
  672MOL0     O88630   0.361   7.927   8.952 -0.7512 -0.8534  0.2204
  672MOL0     C88631   0.322   7.834   8.854 -0.1131  0.6277 -0.9457
  672MOL0     C88632   0.283   7.903   8.725  0.2874  0.0815 -0.3966
  672MOL0     C88633   0.398   7.972   8.656 -0.3153 -0.2555  0.3435
  672MOL0     C88634   0.424   8.124   8.708 -0.4830  0.4633  0.0205
  672MOL0     C88635   0.315   8.207   8.658 -0.4776  1.0124 -0.2010
  672MOL0     C88636   0.223   8.271   8.613  0.9581 -0.7467  0.1264
  672MOL0     C88637   0.423   7.988   9.168 -0.1682  0.0760 -0.5985
  672MOL0     C88638   0.419   7.970   9.309 -0.7904 -0.0715  0.4177
  672MOL0     H88639   0.504   7.630   9.671  1.1783  2.4868  0.5930
  672MOL0     H88640   0.532   7.564   9.909 -0.6033 -1.1659 -1.4997
  672MOL0     H88641   0.575   7.606  10.141  1.5658  1.1429  2.2087
  672MOL0     H88642   0.441   7.482  10.157  4.0163 -1.2976  5.1886
  672MOL0     H88643   0.349   7.593  10.351  0.4204  1.6973  1.9390
  672MOL0     H88644   0.490   7.685  10.365  2.8929 -1.2419 -0.0376
  672MOL0     H88645   0.640   7.488  10.352  2.3082 -5.0929  3.0434
  672MOL0     H88646   0.500   7.384  10.345  0.7129 -0.3397  0.4885
  672MOL0     H88647   0.517   7.589  10.553  0.9547  0.2435 -0.3801
  672MOL0     H88648   0.410   7.442  10.552  1.2112 -0.0135  2.7585
  672MOL0     H88649   0.708   7.456  10.609 -0.9503  3.2264 -2.7144
  672MOL0     H88650   0.609   7.307  10.574 -2.0756  1.3903 -1.2438
  672MOL0     H88651   0.457   7.365  10.760  0.7092 -1.9338 -0.2739
  672MOL0     H88652   0.563   7.504  10.795  1.3481 -0.8744  1.6507
  672MOL0     H88653   0.615   7.205  10.814 -2.8354 -0.0158  1.0543
  672MOL0     H88654   0.747   7.324  10.818 -0.0161  1.8041  0.7654
  672MOL0     H88655   0.619   7.229  11.050 -1.9339  1.5240  3.7029
  672MOL0     H88656   0.526   7.368  11.016  1.3741  0.2600  3.0906
  672MOL0     H88657   0.903   7.259  11.021  2.3064  1.2241  1.2481
  672MOL0     H88658   1.127   7.502  11.206 -1.4445  1.2896 -1.8237
  672MOL0     H88659   1.122   7.401  11.061 -2.7864  1.9403 -1.2042
  672MOL0     H88660   1.080   7.202  11.201 -0.3469 -0.5959  0.3725
  672MOL0     H88661   0.997   7.302  11.321  2.5418 -1.2273  3.5244
  672MOL0     H88662   1.301   7.335  11.308  0.4036 -1.7502 -0.6573
  672MOL0     H88663   1.192   7.349  11.441  0.0897 -1.1510  0.3232
  672MOL0     H88664   1.352   7.131  11.413  1.1895 -1.6397 -1.3796
  672MOL0     H88665   1.261   7.090  11.278 -1.1900 -0.4883  0.0314
  672MOL0     H88666   0.993   7.002  11.640 -1.6720 -0.0461 -1.0049
  672MOL0     H88667   0.957   6.773  11.696  0.1640 -0.3437 -0.1317
  672MOL0     H88668   1.025   6.275  11.601  2.4894 -0.6873  1.1105
  672MOL0     H88669   0.979   6.079  11.733  2.4237  2.0316 -2.0026
  672MOL0     H88670   0.785   6.142  12.143  2.5200  1.2135  1.2566
  672MOL0     H88671   0.943   6.069  12.141 -0.9075 -0.8614  1.6482
  672MOL0     H88672   0.849   5.853  12.101 -0.6892  0.6399 -1.1801
  672MOL0     H88673   0.686   5.910  12.111 -1.1408  0.2942  2.0592
  672MOL0     H88674   0.733   6.032  12.344 -3.9993 -1.6194 -0.3723
  672MOL0     H88675   0.892   5.951  12.348  0.2437 -0.8486 -1.0038
  672MOL0     H88676   0.708   5.817  12.481  0.0124  1.1027  0.0402
  672MOL0     H88677   0.622   5.825  12.335  0.1883 -0.1219 -1.4913
  672MOL0     H88678   0.845   5.677  12.237  1.1831  1.9171  0.9587
  672MOL0     H88679   0.702   5.598  12.302  0.3797 -0.0409  2.2236
  672MOL0     H88680   0.788   5.582  12.525  0.8287 -0.6145  1.5039
  672MOL0     H88681   0.927   5.688  12.475 -1.4124  0.0516 -0.5272
  672MOL0     H88682   0.992   5.517  12.305 -0.7965  0.4174 -0.4345
  672MOL0     H88683   1.028   5.493  12.471 -0.2561 -0.2822 -0.3962
  672MOL0     H88684   0.969   5.287  12.399 -1.8909 -1.8255 -0.9695
  672MOL0     H88685   0.828   5.317  12.318 -0.3616  1.1783 -1.2415
  672MOL0     H88686   0.779   6.310  12.020  1.0846 -2.5516 -0.3902
  672MOL0     H88687   0.819   6.520  11.886  3.1364  0.6205  0.0602
  672MOL0     H88688   1.234   6.656  11.382 -0.7845  0.6216 -0.7158
  672MOL0     H88689   1.301   6.868  11.358 -0.8585  1.0744 -0.6756
  672MOL0     H88690   0.170   7.778  10.019 -1.9525 -1.4885 -0.5044
  672MOL0     H88691   0.130   7.809   9.774  1.6596  2.9225  0.7751
  672MOL0     H88692   0.265   7.664   9.301 -2.5479  1.4097 -1.6903
  672MOL0     H88693   0.256   7.707   9.079  1.1845 -0.9202  0.7852
  672MOL0     H88694   0.241   7.768   8.887  0.2713  1.3623  1.6471
  672MOL0     H88695   0.406   7.764   8.842 -1.3005 -0.4932 -3.6798
  672MOL0     H88696   0.233   7.833   8.658 -1.1045  2.5394 -2.0820
  672MOL0     H88697   0.211   7.980   8.755 -0.0549 -0.7999  1.1751
  672MOL0     H88698   0.384   7.968   8.548  1.3758 -0.0549  0.0926
  672MOL0     H88699   0.490   7.913   8.665 -0.4968 -0.8983 -1.6864
  672MOL0     H88700   0.440   8.131   8.816  2.0645 -1.6411 -0.1102
  672MOL0     H88701   0.519   8.145   8.659  1.6302  1.0246  3.9388
  672MOL0     H88702   0.148   8.341   8.582 -0.7624 -2.0377  1.2246
  672MOL0     H88703   0.467   8.076   9.123 -2.4259  0.6136 -1.9337
  672MOL0     H88704   0.474   8.037   9.375  0.9737 -0.8747 -0.1779
  673MOL0     O88705   7.826   1.497   4.272 -0.4033  0.0003  0.1912
  673MOL0     C88706   7.850   1.579   4.185 -0.4408  0.1673 -0.0836
  673MOL0     O88707   7.761   1.633   4.103  0.2894  0.0676 -0.7910
  673MOL0     C88708   7.626   1.620   4.125 -0.0975  0.6619  0.9162
  673MOL0     C88709   7.546   1.727   4.158  0.1148  0.0725  0.1718
  673MOL0     C88710   7.408   1.720   4.185  0.8083  0.1186  1.0585
  673MOL0     C88711   7.345   1.596   4.155  0.9603  0.2025 -0.0507
  673MOL0     O88712   7.208   1.575   4.168  0.1017 -0.1898 -0.1958
  673MOL0     C88713   7.132   1.603   4.055  0.3922  0.1814 -0.4383
  673MOL0     C88714   7.001   1.530   4.064  0.0614  0.1134 -0.5691
  673MOL0     C88715   6.913   1.556   3.946  0.8615 -1.2183  0.4087
  673MOL0     C88716   6.770   1.514   3.981 -0.3538 -0.1421 -0.3228
  673MOL0     C88717   6.663   1.574   3.895 -1.7808  0.9079 -0.7815
  673MOL0     C88718   6.674   1.550   3.738  0.0248  0.0392  0.7618
  673MOL0     C88719   6.555   1.613   3.666 -0.9001  0.2112  0.2724
  673MOL0     C88720   6.557   1.611   3.514  0.1507 -0.0995  0.4281
  673MOL0     N88721   6.424   1.583   3.444  0.1078 -0.1154  0.1386
  673MOL0     C88722   6.391   1.457   3.407 -0.6894 -0.3632 -0.3512
  673MOL0     C88723   6.264   1.467   3.351  0.5004 -1.0120  0.0081
  673MOL0     C88724   6.166   1.358   3.304 -0.5813 -0.1963 -0.4747
  673MOL0     C88725   6.118   1.260   3.406  0.2246  0.5042  0.7422
  673MOL0     C88726   6.034   1.324   3.517  0.8817 -0.1225 -1.2988
  673MOL0     C88727   5.916   1.407   3.464  0.2705 -0.4805  0.2464
  673MOL0     O88728   5.880   1.491   3.577  0.4417 -0.0678 -0.4143
  673MOL0     C88729   5.806   1.453   3.681 -0.3680 -0.0905 -0.1430
  673MOL0     C88730   5.823   1.528   3.799  0.0211  0.3867  0.8152
  673MOL0     C88731   5.744   1.517   3.915 -1.3570  0.7655  0.1969
  673MOL0     C88732   5.654   1.412   3.919  0.5953 -0.0624  0.1414
  673MOL0     C88733   5.555   1.408   4.028  0.9856  0.9520  0.2315
  673MOL0     O88734   5.488   1.299   4.037 -0.0283  0.3349 -0.1957
  673MOL0     C88735   5.406   1.277   4.146 -0.1854 -1.3507 -0.2175
  673MOL0     C88736   5.304   1.362   4.183  0.2769 -0.7594  0.2014
  673MOL0     C88737   5.212   1.330   4.280 -0.1397 -0.6188  0.4080
  673MOL0     C88738   5.213   1.209   4.341  0.2672  1.1548 -0.0364
  673MOL0     O88739   5.121   1.196   4.445 -0.6307 -0.3772 -0.0801
  673MOL0     C88740   5.164   1.123   4.555  0.7744  1.3124 -0.4883
  673MOL0     C88741   5.280   1.186   4.633  0.1116 -0.3213  0.0356
  673MOL0     C88742   5.350   1.079   4.726 -0.3211 -0.3284 -0.3366
  673MOL0     C88743   5.451   0.999   4.646 -0.1000  0.5006 -0.4402
  673MOL0     C88744   5.547   0.909   4.729  0.0104 -0.0085 -0.9382
  673MOL0     C88745   5.610   0.798   4.641 -0.0175 -1.5139 -0.5305
  673MOL0     C88746   5.691   0.702   4.729  0.2258  0.5139 -0.9823
  673MOL0     C88747   5.793   0.608   4.656 -0.2499 -0.5007 -0.9469
  673MOL0    Cl88748   5.891   0.715   4.556  0.4276  0.4205 -0.0281
  673MOL0     C88749   5.305   1.109   4.293  0.0584  0.8126 -0.0110
  673MOL0     C88750   5.398   1.144   4.190  0.8659 -0.0980  0.4819
  673MOL0     O88751   5.549   1.497   4.112 -0.7823  1.0257  0.0836
  673MOL0     C88752   5.629   1.342   3.798 -0.4277 -0.1205 -0.3157
  673MOL0     C88753   5.709   1.362   3.678 -0.1989 -0.3982 -0.1887
  673MOL0     N88754   6.237   1.608   3.338  0.6518 -0.0267  0.5067
  673MOL0     N88755   6.335   1.675   3.399  0.3291  0.0131  0.8774
  673MOL0     C88756   7.417   1.486   4.100 -0.3957  0.6282  0.0187
  673MOL0     C88757   7.554   1.503   4.076  0.3559  0.3397 -1.1073
  673MOL0     C88758   7.986   1.607   4.163 -0.0491 -0.3973  0.6538
  673MOL0     C88759   8.091   1.548   4.230  0.1900  0.3135  0.4620
  673MOL0     C88760   8.221   1.572   4.208 -0.1873 -0.6611 -0.1344
  673MOL0     C88761   8.256   1.659   4.100  0.3523 -0.3034 -0.4241
  673MOL0     O88762   8.390   1.691   4.077  0.1918  0.0204  0.1398
  673MOL0     C88763   8.473   1.592   4.038 -0.1068  0.0328  0.4041
  673MOL0     C88764   8.599   1.598   4.120 -0.6246  0.5688 -0.2275
  673MOL0     C88765   8.691   1.722   4.110  0.3886  0.5100 -0.0735
  673MOL0     C88766   8.770   1.741   3.975  0.3614 -0.4711 -0.0032
  673MOL0     C88767   8.861   1.631   3.938  0.0025  0.1060 -0.0755
  673MOL0     C88768   8.958   1.566   3.925 -0.8418 -0.0776  0.7390
  673MOL0     C88769   8.159   1.737   4.041  0.5684  0.1887  1.1776
  673MOL0     C88770   8.022   1.704   4.069 -0.1890 -0.3611  0.3453
  673MOL0     H88771   7.596   1.821   4.179  0.6116 -0.8148  3.7377
  673MOL0     H88772   7.340   1.798   4.218  1.8070  0.6081  2.0383
  673MOL0     H88773   7.192   1.569   3.970  0.3009 -2.1269  0.3299
  673MOL0     H88774   7.123   1.712   4.058 -0.6271  0.1702  3.9804
  673MOL0     H88775   6.956   1.571   4.155  1.0924  0.1954 -0.0826
  673MOL0     H88776   7.017   1.424   4.084 -3.4162 -0.4189  0.0089
  673MOL0     H88777   6.944   1.511   3.851  0.2542 -1.4592  0.3241
  673MOL0     H88778   6.907   1.665   3.936  0.2963 -1.2293  0.6267
  673MOL0     H88779   6.756   1.406   3.988 -2.8322  0.1792  0.4998
  673MOL0     H88780   6.737   1.543   4.081 -1.0718 -0.5730 -0.4347
  673MOL0     H88781   6.641   1.678   3.921 -0.5083  0.6646  1.5598
  673MOL0     H88782   6.575   1.520   3.931 -1.7658  0.7971 -0.9079
  673MOL0     H88783   6.665   1.441   3.729 -0.0097 -0.1907  3.0552
  673MOL0     H88784   6.767   1.589   3.697 -0.9915  1.5842 -0.1780
  673MOL0     H88785   6.466   1.564   3.706 -0.7904  2.6761  4.0098
  673MOL0     H88786   6.549   1.720   3.685  0.9165  0.4597 -0.4156
  673MOL0     H88787   6.639   1.544   3.484  2.2643  2.9792 -1.2567
  673MOL0     H88788   6.586   1.709   3.474 -1.0000  0.6832  1.4309
  673MOL0     H88789   6.443   1.365   3.433 -5.0613 -2.8415  0.5456
  673MOL0     H88790   6.215   1.296   3.228 -0.4855 -0.5205 -0.1511
  673MOL0     H88791   6.071   1.398   3.268 -2.2050  1.2711  4.5468
  673MOL0     H88792   6.198   1.204   3.455  0.9120  2.5364  2.0734
  673MOL0     H88793   6.064   1.186   3.346  1.3229  2.1320 -2.4947
  673MOL0     H88794   5.988   1.250   3.584 -0.1680  0.7119 -1.0667
  673MOL0     H88795   6.096   1.397   3.570 -1.5616  1.0235  0.2058
  673MOL0     H88796   5.835   1.340   3.434 -1.2692  1.7409 -0.8071
  673MOL0     H88797   5.934   1.465   3.373  0.6509 -2.6996 -1.1812
  673MOL0     H88798   5.901   1.601   3.781  1.7305 -1.3379  0.8630
  673MOL0     H88799   5.752   1.573   4.008  0.2666 -1.1219  1.2968
  673MOL0     H88800   5.299   1.455   4.126 -0.0765 -0.6959  0.3343
  673MOL0     H88801   5.139   1.406   4.308 -2.2270 -2.5404  0.5070
  673MOL0     H88802   5.193   1.020   4.533  1.0442  0.4997  3.1482
  673MOL0     H88803   5.081   1.119   4.626  1.4112 -0.9348  0.2112
  673MOL0     H88804   5.239   1.269   4.691  0.5661 -0.3549  0.4128
  673MOL0     H88805   5.364   1.219   4.572  1.5216 -2.0897  0.9353
  673MOL0     H88806   5.267   1.015   4.756 -0.9245 -0.0120 -1.2900
  673MOL0     H88807   5.391   1.127   4.815  1.5119  1.6687 -2.1381
  673MOL0     H88808   5.392   0.936   4.579 -0.4585 -1.9800  2.0398
  673MOL0     H88809   5.512   1.073   4.593  1.1653 -0.3605 -0.2242
  673MOL0     H88810   5.484   0.863   4.805  1.8523 -3.3824 -1.2376
  673MOL0     H88811   5.625   0.977   4.765  0.6906  1.2421 -4.3815
  673MOL0     H88812   5.683   0.845   4.575 -0.6969  2.0541  1.0302
  673MOL0     H88813   5.526   0.752   4.588 -1.3289 -2.8544  2.4888
  673MOL0     H88814   5.759   0.765   4.786  0.9423 -1.4665  0.4675
  673MOL0     H88815   5.623   0.645   4.792  1.5337 -4.1500 -3.2706
  673MOL0     H88816   5.730   0.536   4.603 -1.8886  1.1368 -1.3241
  673MOL0     H88817   5.854   0.554   4.729 -0.7379 -2.5040 -1.9402
  673MOL0     H88818   5.307   1.012   4.343 -1.2890  0.5559 -0.4218
  673MOL0     H88819   5.478   1.085   4.146  0.4223  0.1095 -0.6313
  673MOL0     H88820   5.556   1.262   3.797 -0.5005 -0.0647  0.4816
  673MOL0     H88821   5.697   1.306   3.586 -1.7620  0.7833 -0.7546
  673MOL0     H88822   7.362   1.400   4.061  0.1896  0.6032 -0.7826
  673MOL0     H88823   7.591   1.409   4.036 -1.6438 -1.3349  0.7240
  673MOL0     H88824   8.070   1.481   4.313 -0.6099 -0.4710 -0.3470
  673MOL0     H88825   8.307   1.515   4.243  1.9465  2.1634 -0.4272
  673MOL0     H88826   8.485   1.606   3.930 -2.1242  1.6892  0.3429
  673MOL0     H88827   8.445   1.486   4.043  1.0196 -0.2388  1.4691
  673MOL0     H88828   8.579   1.579   4.225  2.8140  4.6258  1.4267
  673MOL0     H88829   8.665   1.512   4.102  2.0612  2.1334  1.4937
  673MOL0     H88830   8.764   1.724   4.191  0.6897  3.1061 -0.3068
  673MOL0     H88831   8.627   1.804   4.144 -1.1374 -1.0517  0.9238
  673MOL0     H88832   8.694   1.766   3.900 -1.1468 -1.3261  1.1773
  673MOL0     H88833   8.834   1.825   4.003 -2.6389  0.7667  3.9970
  673MOL0     H88834   9.033   1.493   3.903  0.5426  1.5280 -0.0934
  673MOL0     H88835   8.171   1.817   3.968 -5.7463  0.5174 -0.0488
  673MOL0     H88836   7.941   1.759   4.023 -1.0184 -1.7974  0.0269
  674MOL0     O88837   9.341   5.851   0.114  0.0570 -0.1899  0.5067
  674MOL0     C88838   9.308   5.750   0.058  0.6475  0.3023 -0.0170
  674MOL0     O88839   9.322   5.620   0.103 -0.0222 -0.3722 -0.2548
  674MOL0     C88840   9.391   5.607   0.222 -0.6669 -0.6240 -0.3283
  674MOL0     C88841   9.499   5.515   0.219  0.0017  0.3236 -1.0255
  674MOL0     C88842   9.567   5.486   0.342 -0.3083  0.3894 -0.2033
  674MOL0     C88843   9.538   5.554   0.453 -0.4036 -0.8570 -1.0121
  674MOL0     O88844   9.614   5.530   0.558 -0.3138 -0.3506 -0.0356
  674MOL0     C88845   9.678   5.649   0.614 -0.5442 -0.5811  0.0414
  674MOL0     C88846   9.817   5.643   0.547  0.2667 -0.1224 -0.1973
  674MOL0     C88847   9.906   5.749   0.609  0.7338 -0.1674 -0.3444
  674MOL0     C88848  10.048   5.728   0.581 -0.0346 -0.1653 -0.3480
  674MOL0     C88849  10.128   5.852   0.621 -0.0659 -0.5629 -0.0792
  674MOL0     C88850  10.271   5.842   0.567  0.7218  0.3833 -0.2082
  674MOL0     C88851  10.350   5.972   0.582  0.4888 -0.2354 -0.4123
  674MOL0     C88852  10.494   5.961   0.540 -0.0114  0.5315  0.5283
  674MOL0     N88853  10.581   5.890   0.644 -0.0482  0.0331 -0.1027
  674MOL0     C88854  10.607   5.937   0.771  0.0666  0.1414 -0.2004
  674MOL0     C88855  10.649   5.832   0.842  0.5605  0.4455 -0.0650
  674MOL0     C88856  10.674   5.827   0.989 -0.0402 -1.0863 -0.3766
  674MOL0     C88857  10.573   5.923   1.067 -0.7332  0.4457 -0.4503
  674MOL0     C88858  10.589   5.901   1.218  0.5694 -1.4597 -0.8112
  674MOL0     C88859  10.472   5.971   1.297  0.2104 -0.9042  0.9817
  674MOL0     O88860  10.466   5.913   1.426  0.3874  0.3518  1.1009
  674MOL0     C88861  10.503   5.990   1.537 -0.2231  0.4823 -1.2276
  674MOL0     C88862  10.480   5.938   1.655  0.2960 -0.6585 -0.4062
  674MOL0     C88863  10.503   5.994   1.781  0.0546  0.2474 -0.4124
  674MOL0     C88864  10.565   6.120   1.780 -0.4649  0.3837  1.0083
  674MOL0     C88865  10.587   6.188   1.907 -0.0652  0.9130  0.0871
  674MOL0     O88866  10.556   6.119   2.023 -0.1517  0.0259 -0.1293
  674MOL0     C88867  10.573   6.176   2.149 -1.1276  0.0399 -0.4042
  674MOL0     C88868  10.489   6.130   2.253 -0.2773 -0.1163 -0.5858
  674MOL0     C88869  10.516   6.160   2.387  0.0795  0.1234 -0.0307
  674MOL0     C88870  10.628   6.236   2.424 -0.1235 -0.2152 -0.3988
  674MOL0     O88871  10.653   6.278   2.553 -0.3328  0.1920 -0.1987
  674MOL0     C88872  10.560   6.242   2.664  0.3365 -0.3488 -0.7339
  674MOL0     C88873  10.607   6.269   2.807 -0.9887  0.5832  0.3388
  674MOL0     C88874  10.501   6.222   2.907 -0.2391 -1.0469  0.7682
  674MOL0     C88875  10.509   6.065   2.932  0.5447 -0.5826  0.0018
  674MOL0     C88876  10.397   6.008   3.010 -0.2072 -0.3883 -0.1417
  674MOL0     C88877  10.422   5.856   3.050  0.9639  0.3569  0.8931
  674MOL0     C88878  10.314   5.785   3.128 -0.1509 -0.1017  0.1230
  674MOL0     C88879  10.171   5.814   3.092 -1.3439  0.0223  0.6386
  674MOL0    Cl88880  10.153   5.789   2.907  0.1800  0.7497 -0.1661
  674MOL0     C88881  10.703   6.289   2.324  1.3829  0.1785  0.8254
  674MOL0     C88882  10.676   6.258   2.187  0.0169  0.3801  0.1220
  674MOL0     O88883  10.629   6.300   1.903 -0.4754 -0.5535 -0.2842
  674MOL0     C88884  10.601   6.185   1.654 -0.4042  0.5198 -0.2552
  674MOL0     C88885  10.563   6.119   1.535 -0.4269 -0.0083  0.9714
  674MOL0     N88886  10.644   5.719   0.759 -0.0555  0.0457 -0.0952
  674MOL0     N88887  10.602   5.753   0.642  0.1042  0.1831 -0.4543
  674MOL0     C88888   9.421   5.636   0.457  0.1060 -0.3168 -0.9744
  674MOL0     C88889   9.347   5.668   0.345  0.2214 -0.3727 -0.4071
  674MOL0     C88890   9.259   5.767  -0.084  0.3610 -0.4343 -0.3087
  674MOL0     C88891   9.283   5.684  -0.186 -0.3655  0.7092 -0.7382
  674MOL0     C88892   9.233   5.707  -0.315 -0.6788 -0.2406 -0.8697
  674MOL0     C88893   9.140   5.811  -0.337  0.0825  0.1445  0.0177
  674MOL0     O88894   9.083   5.834  -0.459  0.4399  0.4122  0.0557
  674MOL0     C88895   9.043   5.976  -0.506  0.3079 -0.1366 -0.5687
  674MOL0     C88896   9.152   6.081  -0.486 -0.4010  0.1358  0.0294
  674MOL0     C88897   9.287   6.031  -0.540  0.2478 -0.5870 -0.6495
  674MOL0     C88898   9.311   6.070  -0.686 -0.5784  0.6991  0.2351
  674MOL0     C88899   9.445   6.026  -0.729  0.6246  0.7675 -0.9911
  674MOL0     C88900   9.552   5.990  -0.768  0.4606  0.5994 -0.1122
  674MOL0     C88901   9.102   5.895  -0.235 -0.2984  0.4278 -0.0283
  674MOL0     C88902   9.163   5.866  -0.112  0.1864 -0.6724 -0.5623
  674MOL0     H88903   9.534   5.477   0.123 -0.7821 -0.7171 -0.9219
  674MOL0     H88904   9.636   5.402   0.345 -2.1854 -1.2458  3.3380
  674MOL0     H88905   9.696   5.638   0.721 -0.7926  0.4294  0.1987
  674MOL0     H88906   9.634   5.745   0.587  1.5043  1.1418  2.3536
  674MOL0     H88907   9.800   5.662   0.441  1.7612 -4.0280 -1.3031
  674MOL0     H88908   9.864   5.546   0.565  1.7153  0.4628 -0.7329
  674MOL0     H88909   9.887   5.741   0.716 -0.8336  3.2705 -0.2145
  674MOL0     H88910   9.863   5.844   0.576  0.3906 -1.0363 -2.5561
  674MOL0     H88911  10.086   5.648   0.644 -0.3859  0.4688  0.7024
  674MOL0     H88912  10.061   5.694   0.477  0.9127 -1.3584  0.1407
  674MOL0     H88913  10.133   5.859   0.730 -1.2623 -2.5214  0.1614
  674MOL0     H88914  10.083   5.940   0.573  2.0081  1.0902  0.8770
  674MOL0     H88915  10.271   5.823   0.460  1.8016  0.4101 -0.2265
  674MOL0     H88916  10.318   5.763   0.628 -2.2744  0.7413  2.8872
  674MOL0     H88917  10.305   6.045   0.515 -2.5196 -0.3611  1.3049
  674MOL0     H88918  10.348   5.987   0.691 -0.3084 -2.7268 -0.0178
  674MOL0     H88919  10.539   6.061   0.536 -0.9121  0.9647  0.9414
  674MOL0     H88920  10.493   5.907   0.445  1.4113 -1.2945  1.4746
  674MOL0     H88921  10.577   6.033   0.812 -3.8653 -1.1397  0.3639
  674MOL0     H88922  10.780   5.857   0.994  0.2282 -0.9053 -4.1460
  674MOL0     H88923  10.666   5.725   1.026 -1.2514 -1.6575 -2.0691
  674MOL0     H88924  10.468   5.903   1.046 -1.0364  1.8538 -0.3797
  674MOL0     H88925  10.585   6.024   1.026 -1.6055  0.4267 -0.7546
  674MOL0     H88926  10.570   5.800   1.256  0.3174 -1.4393 -0.8807
  674MOL0     H88927  10.685   5.938   1.257 -1.2741 -1.7238  4.9787
  674MOL0     H88928  10.375   5.956   1.248  0.2800 -1.2707  0.9513
  674MOL0     H88929  10.492   6.078   1.295  0.9474 -1.0126  1.8852
  674MOL0     H88930  10.442   5.836   1.653 -2.7285  0.2360  2.2161
  674MOL0     H88931  10.477   5.938   1.871  1.7840 -1.0748 -0.6843
  674MOL0     H88932  10.405   6.065   2.229 -2.0803  1.7829  0.2566
  674MOL0     H88933  10.445   6.118   2.457 -2.3917  0.9030 -1.9076
  674MOL0     H88934  10.521   6.141   2.652 -0.9572 -0.0031  0.3061
  674MOL0     H88935  10.475   6.310   2.648 -0.3546 -0.7013  1.2097
  674MOL0     H88936  10.643   6.372   2.817  3.5388 -0.8784  1.5937
  674MOL0     H88937  10.696   6.209   2.826 -0.3102  0.9942 -1.3273
  674MOL0     H88938  10.406   6.260   2.868  0.0881  0.6332  1.5137
  674MOL0     H88939  10.508   6.274   3.003 -0.1567  1.2873 -0.4452
  674MOL0     H88940  10.499   6.021   2.832  0.6486  2.0939 -1.2796
  674MOL0     H88941  10.609   6.035   2.966  0.7339  0.2367  0.1907
  674MOL0     H88942  10.307   6.015   2.948 -0.6468 -2.1695  0.2464
  674MOL0     H88943  10.383   6.068   3.100 -1.2650  2.5137 -2.0912
  674MOL0     H88944  10.506   5.838   3.118  1.4154  0.0103  0.2581
  674MOL0     H88945  10.436   5.789   2.964 -0.0601 -3.0613  3.1638
  674MOL0     H88946  10.334   5.678   3.119  2.6421  0.5280 -3.9276
  674MOL0     H88947  10.334   5.795   3.235  0.2654 -2.8299  0.3722
  674MOL0     H88948  10.144   5.916   3.119  0.4342  0.3267  1.3850
  674MOL0     H88949  10.105   5.750   3.152 -0.1134 -0.8575  1.0827
  674MOL0     H88950  10.787   6.350   2.359  1.5045  1.0596 -0.9267
  674MOL0     H88951  10.755   6.282   2.117 -1.8819 -0.2629 -2.3406
  674MOL0     H88952  10.665   6.272   1.657 -0.2072  0.3660  1.6713
  674MOL0     H88953  10.583   6.163   1.438 -2.6402  2.2287  1.4450
  674MOL0     H88954   9.404   5.677   0.556  2.4902  1.3172 -1.1427
  674MOL0     H88955   9.263   5.736   0.338  0.9198  0.7138  1.2219
  674MOL0     H88956   9.358   5.608  -0.167  0.6080  1.9294  0.5096
  674MOL0     H88957   9.266   5.653  -0.404  0.6086  0.5313 -0.8851
  674MOL0     H88958   8.955   6.010  -0.451  0.9898 -0.5392  0.8312
  674MOL0     H88959   9.025   5.983  -0.614  1.4528  4.2000 -0.6632
  674MOL0     H88960   9.134   6.173  -0.543 -2.1961 -0.9539 -1.2874
  674MOL0     H88961   9.163   6.107  -0.381  1.2878  2.5948 -0.6697
  674MOL0     H88962   9.285   5.921  -0.542  2.5136 -0.6779 -0.2202
  674MOL0     H88963   9.379   6.054  -0.486  1.7725 -2.2186 -2.3838
  674MOL0     H88964   9.236   6.032  -0.756  0.4739  2.1903 -1.8126
  674MOL0     H88965   9.318   6.178  -0.704  0.4095  0.3163 -1.9499
  674MOL0     H88966   9.640   5.945  -0.810  1.6481  0.6200  2.1823
  674MOL0     H88967   9.025   5.970  -0.256  0.2915  1.0986  0.1460
  674MOL0     H88968   9.144   5.929  -0.026 -0.3339  0.0392 -1.1877
  675MOL0     O88969   5.567   5.346   5.614  0.2199  0.4869  0.1212
  675MOL0     C88970   5.640   5.346   5.512  0.2109 -0.1840  0.5713
  675MOL0     O88971   5.594   5.316   5.390 -0.1968  0.0494  0.7221
  675MOL0     C88972   5.460   5.281   5.369  0.3682 -1.4578 -0.4493
  675MOL0     C88973   5.415   5.178   5.283  0.4968  0.8845  1.3388
  675MOL0     C88974   5.274   5.158   5.259 -0.2265 -0.2845 -0.6199
  675MOL0     C88975   5.177   5.232   5.329 -1.1853  0.6493  0.6728
  675MOL0     O88976   5.046   5.213   5.292 -0.5555  0.6903 -0.1278
  675MOL0     C88977   4.991   5.293   5.186 -0.1950 -0.3531 -0.5405
  675MOL0     C88978   4.882   5.207   5.124  0.8773  0.4826 -0.1713
  675MOL0     C88979   4.751   5.199   5.218  0.0277 -0.1525  0.3380
  675MOL0     C88980   4.779   5.143   5.365 -0.4047  1.1576  0.4066
  675MOL0     C88981   4.659   5.140   5.456 -0.2245 -0.0182  0.4003
  675MOL0     C88982   4.662   5.035   5.571 -0.4180  0.5403 -0.0360
  675MOL0     C88983   4.645   4.895   5.515  0.5610 -0.7089  0.1876
  675MOL0     C88984   4.612   4.783   5.612  0.3099  1.0235 -0.6948
  675MOL0     N88985   4.708   4.756   5.725  0.2343 -0.5178  0.0083
  675MOL0     C88986   4.836   4.706   5.718  0.1676  0.1705  0.0816
  675MOL0     C88987   4.863   4.667   5.845  0.0132  0.2000 -0.7548
  675MOL0     C88988   5.005   4.616   5.879  0.5469  0.8119  0.6102
  675MOL0     C88989   5.096   4.724   5.917  0.0775  0.8040 -0.6309
  675MOL0     C88990   5.168   4.774   5.793  0.8041  0.1693 -0.0561
  675MOL0     C88991   5.249   4.906   5.814 -0.5353 -0.0347 -0.8673
  675MOL0     O88992   5.312   4.910   5.950 -0.1218  0.9172  0.1732
  675MOL0     C88993   5.434   4.973   5.960  0.4855  0.0219  0.4926
  675MOL0     C88994   5.465   5.093   5.894  0.0099  0.4394  0.9115
  675MOL0     C88995   5.585   5.160   5.905 -0.4074 -0.3611  0.3298
  675MOL0     C88996   5.677   5.116   5.992 -0.5575  0.9601 -0.9689
  675MOL0     C88997   5.815   5.186   6.008  0.7739  0.8181  0.2752
  675MOL0     O88998   5.891   5.119   6.097 -0.6432  0.3490  0.4044
  675MOL0     C88999   6.025   5.148   6.092  0.4332  0.3449 -0.5223
  675MOL0     C89000   6.086   5.187   6.221 -0.1329 -0.2318  1.2338
  675MOL0     C89001   6.214   5.240   6.226 -0.7109 -0.2404  0.3578
  675MOL0     C89002   6.287   5.242   6.100  0.0417  0.5485 -0.8599
  675MOL0     O89003   6.422   5.288   6.113  0.1049  0.6559 -0.2687
  675MOL0     C89004   6.469   5.360   6.005  0.3110 -0.5033 -0.0055
  675MOL0     C89005   6.544   5.482   6.062  0.4604 -0.4713  0.1233
  675MOL0     C89006   6.640   5.539   5.959  0.2969  0.8043 -0.2595
  675MOL0     C89007   6.727   5.649   6.022 -0.6610 -0.4564  0.2891
  675MOL0     C89008   6.647   5.777   6.042  0.1279  0.3311 -0.2249
  675MOL0     C89009   6.733   5.898   6.040  0.6776 -0.1039 -0.6644
  675MOL0     C89010   6.709   5.976   6.165  0.0366  0.0556  0.3554
  675MOL0     C89011   6.570   6.043   6.173 -0.2838 -0.5835 -0.2291
  675MOL0    Cl89012   6.565   6.147   6.321 -0.2650 -0.0654 -0.6870
  675MOL0     C89013   6.226   5.201   5.983 -0.7339  0.8108 -0.1552
  675MOL0     C89014   6.104   5.155   5.981 -0.6817  1.0511  0.2836
  675MOL0     O89015   5.845   5.291   5.951  0.2877 -0.9922 -0.0753
  675MOL0     C89016   5.654   4.990   6.054  1.7392 -0.2212 -0.0596
  675MOL0     C89017   5.528   4.919   6.046 -0.8354 -0.4493  0.9603
  675MOL0     N89018   4.761   4.699   5.928 -0.3807  0.0473  0.1557
  675MOL0     N89019   4.667   4.751   5.857  0.3223  0.9635  0.2899
  675MOL0     C89020   5.220   5.335   5.412  0.2682 -0.0080  0.5188
  675MOL0     C89021   5.356   5.360   5.428 -0.3391 -0.2661  0.6200
  675MOL0     C89022   5.776   5.405   5.534  0.2913 -0.8141 -0.2462
  675MOL0     C89023   5.825   5.503   5.440 -0.6253  0.2636  0.6332
  675MOL0     C89024   5.933   5.584   5.471 -0.0372 -0.0026  0.7199
  675MOL0     C89025   6.001   5.577   5.592 -0.0627 -0.4984 -0.1406
  675MOL0     O89026   6.085   5.682   5.600 -0.4273  0.2100  0.5817
  675MOL0     C89027   6.145   5.697   5.725 -1.3223  0.6678  0.5745
  675MOL0     C89028   6.234   5.821   5.703  0.4139  0.4276 -0.8689
  675MOL0     C89029   6.328   5.837   5.831  0.6359 -0.1851  0.1027
  675MOL0     C89030   6.248   5.856   5.969 -0.3354 -0.3044  0.9532
  675MOL0     C89031   6.208   5.728   6.025 -0.6969 -0.4907 -0.5984
  675MOL0     C89032   6.182   5.622   6.084  0.2625  0.6286  0.5219
  675MOL0     C89033   5.959   5.491   5.688 -0.3610 -0.6704 -0.3784
  675MOL0     C89034   5.846   5.405   5.660  0.8815  0.7093  1.0181
  675MOL0     H89035   5.488   5.116   5.232  0.2195  0.4678  1.4503
  675MOL0     H89036   5.257   5.066   5.204 -1.3672  0.7088 -1.9933
  675MOL0     H89037   5.063   5.325   5.110  1.6170  2.6363  2.1757
  675MOL0     H89038   4.957   5.381   5.242  1.2682  0.1501 -0.4046
  675MOL0     H89039   4.920   5.107   5.099  3.6430  1.2242  0.7445
  675MOL0     H89040   4.852   5.257   5.032 -2.9385  0.1583  0.6846
  675MOL0     H89041   4.679   5.143   5.157 -1.7691  1.6626  0.6825
  675MOL0     H89042   4.715   5.301   5.235  0.2794  0.0196 -0.1586
  675MOL0     H89043   4.835   5.049   5.357  0.5693  1.7186  0.5515
  675MOL0     H89044   4.851   5.215   5.406 -0.8759  2.0918 -0.3754
  675MOL0     H89045   4.571   5.135   5.392 -0.3066  0.8866  0.4229
  675MOL0     H89046   4.639   5.241   5.493  0.2615  1.3643 -2.7639
  675MOL0     H89047   4.581   5.056   5.642 -1.9231 -0.9258 -1.2542
  675MOL0     H89048   4.752   5.040   5.633  0.1111 -0.8404 -0.6627
  675MOL0     H89049   4.559   4.898   5.447  0.8094  4.5235 -0.2755
  675MOL0     H89050   4.737   4.868   5.463  0.2012 -1.9558  0.1631
  675MOL0     H89051   4.618   4.690   5.554 -3.2376 -1.0124  1.8353
  675MOL0     H89052   4.510   4.793   5.650  0.0189 -2.1642 -0.3979
  675MOL0     H89053   4.901   4.684   5.634  0.9868 -0.2339  0.8061
  675MOL0     H89054   5.039   4.562   5.790  3.9263 -1.6106  3.0884
  675MOL0     H89055   4.996   4.541   5.959  0.9349 -2.3029 -2.0738
  675MOL0     H89056   5.179   4.687   5.978 -0.1230 -3.4698 -2.6018
  675MOL0     H89057   5.045   4.800   5.978 -0.2769 -2.3191  3.3814
  675MOL0     H89058   5.235   4.700   5.749  1.7727  2.2054 -2.2268
  675MOL0     H89059   5.097   4.812   5.720  3.7947  2.5807 -1.9506
  675MOL0     H89060   5.194   5.000   5.804 -4.7546 -2.2766 -1.2671
  675MOL0     H89061   5.327   4.904   5.737  0.9423 -0.9961  0.5924
  675MOL0     H89062   5.388   5.144   5.838 -3.4800 -0.8171  4.1178
  675MOL0     H89063   5.595   5.252   5.849 -0.6930  0.7667  2.0424
  675MOL0     H89064   6.035   5.165   6.314  0.9805  1.2690  2.2434
  675MOL0     H89065   6.273   5.263   6.314 -1.4524 -1.5920  1.2450
  675MOL0     H89066   6.393   5.394   5.934  0.7043 -0.2230 -0.2965
  675MOL0     H89067   6.536   5.288   5.958 -2.8898 -2.1814 -2.3644
  675MOL0     H89068   6.594   5.448   6.153 -1.1064 -1.5820  0.6095
  675MOL0     H89069   6.474   5.556   6.103  0.6241  0.1298 -0.6697
  675MOL0     H89070   6.576   5.585   5.883  0.9755  2.7406  0.2789
  675MOL0     H89071   6.709   5.465   5.918  2.0690  0.0874  3.6131
  675MOL0     H89072   6.780   5.618   6.113  0.9818 -0.9103 -0.7894
  675MOL0     H89073   6.800   5.671   5.944 -0.0369 -0.6936  0.7949
  675MOL0     H89074   6.589   5.779   6.135  0.5260  1.7382  0.0271
  675MOL0     H89075   6.568   5.788   5.968 -1.1626 -2.1218  0.6851
  675MOL0     H89076   6.707   5.959   5.953  1.8008  1.6767  0.1930
  675MOL0     H89077   6.839   5.873   6.025  0.6492 -0.7472  0.1634
  675MOL0     H89078   6.726   5.902   6.244  1.3232 -1.9173 -1.6540
  675MOL0     H89079   6.785   6.054   6.174 -0.1353  0.8358 -3.4136
  675MOL0     H89080   6.495   5.964   6.183  1.0859 -1.7003  2.0290
  675MOL0     H89081   6.552   6.108   6.087  2.2146  0.9924  0.3392
  675MOL0     H89082   6.271   5.191   5.885 -2.5012 -1.7566 -0.8208
  675MOL0     H89083   6.063   5.123   5.886  1.7614 -1.8868  0.0382
  675MOL0     H89084   5.725   4.960   6.131  2.5093 -0.4121 -0.8392
  675MOL0     H89085   5.516   4.821   6.093 -1.1000  0.6339  3.2736
  675MOL0     H89086   5.144   5.399   5.455  1.3711  1.8640 -0.2171
  675MOL0     H89087   5.391   5.436   5.498  2.3484 -0.6296 -0.2067
  675MOL0     H89088   5.784   5.516   5.340 -0.2222 -3.6650 -0.2133
  675MOL0     H89089   5.972   5.662   5.406  4.1167 -2.2092  0.2461
  675MOL0     H89090   6.206   5.610   5.752  1.4618  1.7877 -1.5263
  675MOL0     H89091   6.067   5.715   5.799 -1.6774 -0.4762  0.4905
  675MOL0     H89092   6.280   5.816   5.604  0.7381  0.5177 -0.7248
  675MOL0     H89093   6.168   5.907   5.689  0.4848  0.5251 -0.6132
  675MOL0     H89094   6.403   5.916   5.821  0.6672 -0.2590 -0.2877
  675MOL0     H89095   6.385   5.744   5.838  0.1663 -0.5804 -1.0136
  675MOL0     H89096   6.310   5.919   6.034  1.1669 -1.3953  0.6388
  675MOL0     H89097   6.164   5.922   5.948  0.5972  1.0063  1.1551
  675MOL0     H89098   6.172   5.519   6.109  1.2893 -0.7180 -3.7760
  675MOL0     H89099   5.994   5.507   5.790 -0.8127 -2.1849  0.0384
  675MOL0     H89100   5.810   5.337   5.736 -1.2419  2.1701  1.4175
  676MOL0     O89101   9.312   6.592   8.565  0.2126 -0.9512 -0.6519
  676MOL0     C89102   9.196   6.570   8.578 -1.0606 -0.4766 -0.1348
  676MOL0     O89103   9.100   6.596   8.484  0.5571  0.3747  0.5745
  676MOL0     C89104   9.158   6.644   8.366 -0.0634 -0.7618 -0.2405
  676MOL0     C89105   9.229   6.564   8.269 -0.0563  0.3723 -0.0321
  676MOL0     C89106   9.289   6.614   8.167 -0.1832 -0.1708  0.2114
  676MOL0     C89107   9.281   6.753   8.137  0.0868 -0.6250 -0.6878
  676MOL0     O89108   9.337   6.799   8.026 -0.1449  0.4826  0.0392
  676MOL0     C89109   9.278   6.918   7.973  0.3249  0.1268 -0.0869
  676MOL0     C89110   9.345   6.944   7.839  0.2176  0.8338  0.5507
  676MOL0     C89111   9.409   6.828   7.764  0.7024  0.0939  0.3295
  676MOL0     C89112   9.307   6.713   7.718  0.5835 -0.6807  0.6926
  676MOL0     C89113   9.361   6.560   7.723  0.4275 -0.2081  0.6351
  676MOL0     C89114   9.515   6.526   7.688 -0.5936 -0.4045 -0.2612
  676MOL0     C89115   9.543   6.373   7.675 -0.1565 -0.0602 -0.3440
  676MOL0     C89116   9.695   6.336   7.675  0.0921 -0.7730 -0.0364
  676MOL0     N89117   9.727   6.238   7.580  0.8001 -0.0562  0.4102
  676MOL0     C89118   9.699   6.254   7.445 -0.0813  0.8981  0.5388
  676MOL0     C89119   9.764   6.143   7.385  0.3275 -0.8768 -0.4226
  676MOL0     C89120   9.751   6.099   7.242 -0.5633 -0.1608  0.2883
  676MOL0     C89121   9.818   6.205   7.148  0.1019 -0.1047 -0.4481
  676MOL0     C89122   9.957   6.254   7.182  0.6085  1.1174 -0.7300
  676MOL0     C89123  10.070   6.153   7.182  0.8117 -0.3501  0.7524
  676MOL0     O89124  10.197   6.214   7.206  0.3158 -0.1989 -0.0233
  676MOL0     C89125  10.227   6.268   7.328  0.4117 -0.0287 -0.2707
  676MOL0     C89126  10.162   6.245   7.447  1.1737  0.0927  0.3088
  676MOL0     C89127  10.212   6.296   7.569  0.2500 -0.2660 -0.3024
  676MOL0     C89128  10.329   6.369   7.571 -0.0903 -0.1872 -0.1268
  676MOL0     C89129  10.387   6.411   7.701  0.9122 -0.1576  0.5946
  676MOL0     O89130  10.327   6.377   7.811 -0.4184 -0.0741  0.3723
  676MOL0     C89131  10.380   6.425   7.926  0.5214 -0.5880 -0.6093
  676MOL0     C89132  10.507   6.395   7.986 -0.0231  0.2294 -0.0228
  676MOL0     C89133  10.530   6.432   8.119 -0.2585  0.0089 -1.1550
  676MOL0     C89134  10.447   6.516   8.189 -0.0183 -0.3518 -1.1902
  676MOL0     O89135  10.495   6.576   8.303 -0.0471  0.1181 -0.2791
  676MOL0     C89136  10.420   6.664   8.382 -0.5463 -0.3968  0.4318
  676MOL0     C89137  10.316   6.587   8.456 -0.1986 -0.1116  0.1729
  676MOL0     C89138  10.254   6.671   8.576  0.1322  0.1059 -1.4468
  676MOL0     C89139  10.116   6.725   8.538 -0.9367 -0.0754 -0.2909
  676MOL0     C89140  10.085   6.852   8.626  0.5515  0.5088  0.1165
  676MOL0     C89141  10.173   6.972   8.589 -0.3521 -0.4663  0.5946
  676MOL0     C89142  10.164   7.104   8.665 -0.3383 -0.0563 -0.6828
  676MOL0     C89143  10.134   7.088   8.815 -0.5572 -0.9410  0.3486
  676MOL0    Cl89144  10.270   6.995   8.893 -0.2761  0.7694 -0.3124
  676MOL0     C89145  10.326   6.556   8.131  0.0465  1.0620 -0.6104
  676MOL0     C89146  10.287   6.501   8.004  0.4362  0.3188 -0.4648
  676MOL0     O89147  10.486   6.487   7.697  0.2453  0.4731  0.8272
  676MOL0     C89148  10.378   6.418   7.447 -0.0410  0.9084 -0.4900
  676MOL0     C89149  10.326   6.370   7.324 -0.1771 -0.3817 -0.2285
  676MOL0     N89150   9.844   6.084   7.485  0.8585 -0.1472  0.0499
  676MOL0     N89151   9.823   6.145   7.596 -0.3574  0.0073  0.1543
  676MOL0     C89152   9.213   6.838   8.233 -0.0730  0.4264  0.1334
  676MOL0     C89153   9.148   6.781   8.348 -0.3912 -1.1715  0.8988
  676MOL0     C89154   9.154   6.507   8.702 -0.9462 -0.2548  0.0886
  676MOL0     C89155   9.245   6.426   8.772 -1.0627 -0.9694  0.0636
  676MOL0     C89156   9.221   6.378   8.900 -0.5099  0.2892 -0.6515
  676MOL0     C89157   9.094   6.372   8.945 -0.2755 -0.4097  0.5048
  676MOL0     O89158   9.070   6.317   9.065 -0.8309 -0.4397 -0.4793
  676MOL0     C89159   8.981   6.204   9.068  0.9719 -0.0871  0.2829
  676MOL0     C89160   9.063   6.072   9.091  0.4809 -0.8070 -0.9822
  676MOL0     C89161   9.095   6.055   9.240  0.6148  0.5196 -0.4154
  676MOL0     C89162   8.979   6.001   9.330 -0.9349  0.8031 -0.1565
  676MOL0     C89163   8.944   5.866   9.306 -0.2185  0.9728 -0.2576
  676MOL0     C89164   8.911   5.753   9.288  0.7917 -0.5478  0.7041
  676MOL0     C89165   8.994   6.443   8.874 -0.2390  0.5747  0.2930
  676MOL0     C89166   9.020   6.510   8.751 -0.1957  0.3055  0.6799
  676MOL0     H89167   9.215   6.459   8.292  1.5220  0.5979  2.3737
  676MOL0     H89168   9.357   6.554   8.108 -0.5854 -0.9253  0.5113
  676MOL0     H89169   9.298   7.001   8.041  1.1907 -0.9779  1.0633
  676MOL0     H89170   9.169   6.915   7.964  0.3329  0.4711 -0.3119
  676MOL0     H89171   9.416   7.023   7.863 -1.0758  1.8211  1.2279
  676MOL0     H89172   9.254   6.975   7.786 -1.4078 -3.2809  0.5545
  676MOL0     H89173   9.491   6.777   7.815  0.3248 -0.7942  0.0767
  676MOL0     H89174   9.442   6.865   7.666 -0.1487 -0.9101 -0.3650
  676MOL0     H89175   9.220   6.706   7.784 -0.2507  1.8721 -0.0473
  676MOL0     H89176   9.279   6.740   7.616 -1.0435 -0.4860  1.1585
  676MOL0     H89177   9.291   6.500   7.665  1.0338  0.5884 -0.9682
  676MOL0     H89178   9.351   6.541   7.831 -0.9047 -1.4535  0.3241
  676MOL0     H89179   9.583   6.565   7.766 -2.3498 -0.0203  1.1508
  676MOL0     H89180   9.538   6.576   7.594  0.7793  0.0522  0.2735
  676MOL0     H89181   9.482   6.327   7.753 -1.4980  0.7443 -0.8915
  676MOL0     H89182   9.494   6.331   7.587  0.5762 -5.4031  1.4622
  676MOL0     H89183   9.720   6.284   7.768 -0.3366  3.6766  2.8764
  676MOL0     H89184   9.756   6.424   7.652 -1.9320  0.3447 -1.4957
  676MOL0     H89185   9.639   6.333   7.400  1.5521  1.9514  0.1346
  676MOL0     H89186   9.643   6.095   7.225 -0.3291  1.0831 -1.9949
  676MOL0     H89187   9.783   5.995   7.230 -0.7440  0.0159 -2.1517
  676MOL0     H89188   9.745   6.286   7.140 -0.1978  0.0580  2.7823
  676MOL0     H89189   9.821   6.155   7.050 -1.0759 -3.2839  0.9975
  676MOL0     H89190   9.981   6.329   7.107  0.4664  0.5948 -1.3057
  676MOL0     H89191   9.956   6.301   7.281  1.2862 -2.1106  0.9480
  676MOL0     H89192  10.071   6.114   7.080  2.5771  2.0847 -0.2514
  676MOL0     H89193  10.060   6.066   7.247  2.5850  0.0132  1.5751
  676MOL0     H89194  10.087   6.166   7.457 -0.8532  1.8471 -0.2403
  676MOL0     H89195  10.170   6.274   7.667  0.5689 -0.3237 -0.1771
  676MOL0     H89196  10.580   6.334   7.934  1.0263  2.8177 -1.8380
  676MOL0     H89197  10.618   6.401   8.174 -1.8096 -1.2829  0.7090
  676MOL0     H89198  10.374   6.742   8.320 -1.7721 -1.0107  0.5329
  676MOL0     H89199  10.501   6.710   8.439  1.3219 -1.6767 -1.0513
  676MOL0     H89200  10.357   6.493   8.494 -0.8598 -0.4989 -0.0456
  676MOL0     H89201  10.235   6.566   8.386  0.3725  1.1844 -0.9274
  676MOL0     H89202  10.330   6.748   8.595  0.3834 -0.3718 -0.4876
  676MOL0     H89203  10.238   6.610   8.665 -2.7993 -1.2806 -2.7752
  676MOL0     H89204  10.116   6.761   8.435  1.9651 -0.9792 -0.6939
  676MOL0     H89205  10.037   6.650   8.542 -3.3404  2.3773  2.2113
  676MOL0     H89206  10.087   6.834   8.734  1.7001  2.1042  0.3875
  676MOL0     H89207   9.980   6.867   8.599  0.7907  1.6303 -0.2331
  676MOL0     H89208  10.160   6.992   8.482  1.8714 -1.9621 -0.0314
  676MOL0     H89209  10.273   6.931   8.607 -0.9934 -2.9158 -0.7942
  676MOL0     H89210  10.252   7.169   8.661 -0.8427  0.7744  0.8900
  676MOL0     H89211  10.081   7.158   8.617  1.6662  1.5731 -2.5207
  676MOL0     H89212  10.033   7.048   8.830 -1.4652  1.3738  0.9187
  676MOL0     H89213  10.139   7.182   8.871 -2.1104 -0.7841  0.2728
  676MOL0     H89214  10.263   6.630   8.179  1.1893 -0.2621  3.2960
  676MOL0     H89215  10.193   6.529   7.957 -0.1690  2.4387  1.8177
  676MOL0     H89216  10.461   6.487   7.443  0.7781 -0.0087  0.1467
  676MOL0     H89217  10.362   6.400   7.226 -1.6906 -2.1903 -1.4077
  676MOL0     H89218   9.198   6.943   8.211 -3.1078 -0.1993 -1.3933
  676MOL0     H89219   9.104   6.853   8.416  0.2577  0.3132 -0.1935
  676MOL0     H89220   9.342   6.401   8.732 -2.7721 -1.6838 -4.2347
  676MOL0     H89221   9.299   6.339   8.965 -0.4633  1.1292 -0.1964
  676MOL0     H89222   8.921   6.205   8.977 -2.5163  1.5243  2.4048
  676MOL0     H89223   8.911   6.221   9.149  1.7077 -0.0644  0.9288
  676MOL0     H89224   8.999   5.987   9.065 -0.9993 -0.5855  1.5977
  676MOL0     H89225   9.151   6.082   9.027  0.6018  0.2276 -0.6598
  676MOL0     H89226   9.113   6.148   9.293  1.0211  0.0792  0.2294
  676MOL0     H89227   9.185   5.993   9.246  0.8023  0.9194  1.3377
  676MOL0     H89228   9.011   6.018   9.433  0.7140 -2.8007  0.0445
  676MOL0     H89229   8.893   6.061   9.297  0.4204  2.0522 -1.6314
  676MOL0     H89230   8.885   5.652   9.264 -1.2479  0.0403  0.2183
  676MOL0     H89231   8.898   6.451   8.924 -1.1552  3.5243 -1.7030
  676MOL0     H89232   8.954   6.565   8.685  1.5524  0.3033 -1.1543
  677MOL0     O89233   7.768   8.074   5.824  0.0855  0.2678  0.4623
  677MOL0     C89234   7.718   8.167   5.885 -0.4256 -0.2404 -0.2114
  677MOL0     O89235   7.774   8.243   5.987  0.4440 -0.0228  0.3199
  677MOL0     C89236   7.900   8.212   6.027 -0.4741 -1.1560  0.4097
  677MOL0     C89237   8.000   8.287   5.967 -0.2691  0.2077 -0.4663
  677MOL0     C89238   8.132   8.291   6.024  0.2547  0.7355 -0.2212
  677MOL0     C89239   8.152   8.218   6.148 -0.9523 -0.4432  0.0668
  677MOL0     O89240   8.269   8.235   6.224 -0.6381 -0.7445  0.9880
  677MOL0     C89241   8.302   8.130   6.309  0.2660 -0.5430 -0.3737
  677MOL0     C89242   8.455   8.139   6.332 -0.4182  0.5229 -0.5334
  677MOL0     C89243   8.529   8.116   6.192  0.3856  0.5679  0.0899
  677MOL0     C89244   8.671   8.068   6.213 -0.0209 -0.7229  0.1012
  677MOL0     C89245   8.746   8.104   6.081  0.6805 -0.1706  0.0205
  677MOL0     C89246   8.892   8.066   6.103 -0.1097  0.1365 -0.3454
  677MOL0     C89247   8.991   8.115   5.991  0.3427 -0.3514 -0.1831
  677MOL0     C89248   9.135   8.066   5.991  0.1650  0.2154 -0.0737
  677MOL0     N89249   9.208   8.101   6.116 -0.3856  0.3553 -0.9679
  677MOL0     C89250   9.184   8.051   6.236  0.1279  0.8440 -0.3090
  677MOL0     C89251   9.252   8.133   6.319 -0.1911 -0.8895 -0.2811
  677MOL0     C89252   9.233   8.139   6.472 -0.8859 -0.3200 -0.3698
  677MOL0     C89253   9.171   8.282   6.509  0.0592  0.1821 -1.4361
  677MOL0     C89254   9.027   8.297   6.479  0.0627 -0.6555  0.8848
  677MOL0     C89255   8.933   8.200   6.541  1.0532  0.1234  0.4924
  677MOL0     O89256   8.934   8.074   6.479 -0.0246  0.0362  0.6695
  677MOL0     C89257   8.864   7.976   6.537  0.2671  0.2857  0.1340
  677MOL0     C89258   8.804   7.977   6.666  0.2377  0.5929 -0.6934
  677MOL0     C89259   8.716   7.869   6.707 -0.7485  0.0482 -0.2024
  677MOL0     C89260   8.696   7.760   6.620  1.3020  1.7767  0.1217
  677MOL0     C89261   8.592   7.663   6.660  0.2731  1.0768  1.7281
  677MOL0     O89262   8.573   7.639   6.788 -0.3030  0.0160  0.0659
  677MOL0     C89263   8.462   7.586   6.849 -0.7153 -0.1809 -0.8761
  677MOL0     C89264   8.350   7.546   6.790  1.3429 -0.1052 -0.3930
  677MOL0     C89265   8.243   7.490   6.866 -0.1452 -0.2544  0.4087
  677MOL0     C89266   8.245   7.492   7.004  1.8276 -0.3932  0.1510
  677MOL0     O89267   8.140   7.448   7.085 -0.1808  0.5920  0.4673
  677MOL0     C89268   8.005   7.479   7.046  0.1860  0.0456 -0.7820
  677MOL0     C89269   7.951   7.600   7.129 -0.3814  0.3412 -0.2669
  677MOL0     C89270   7.798   7.618   7.117 -0.3997  0.4850  0.2490
  677MOL0     C89271   7.750   7.761   7.169 -0.7849  0.5005  0.5060
  677MOL0     C89272   7.606   7.791   7.162  0.6776 -0.1507 -1.0953
  677MOL0     C89273   7.498   7.686   7.222  0.9821  0.5880 -0.0865
  677MOL0     C89274   7.354   7.738   7.224 -0.2173  1.4342 -0.6847
  677MOL0     C89275   7.254   7.623   7.201  0.4172  1.3170 -0.2068
  677MOL0    Cl89276   7.279   7.546   7.031 -0.3395  0.1331 -0.1497
  677MOL0     C89277   8.367   7.527   7.062  0.3072  0.2798  0.1619
  677MOL0     C89278   8.467   7.572   6.982 -0.1705 -0.1185 -0.6761
  677MOL0     O89279   8.526   7.618   6.565 -0.0109 -0.3863  0.5604
  677MOL0     C89280   8.759   7.761   6.495  0.6173 -0.9310 -0.6027
  677MOL0     C89281   8.843   7.868   6.450  0.3618 -0.5907 -0.6698
  677MOL0     N89282   9.338   8.223   6.247 -0.0141 -0.6198 -0.2193
  677MOL0     N89283   9.302   8.200   6.126  0.4738 -0.2480  0.6207
  677MOL0     C89284   8.051   8.143   6.196 -0.0150  0.7300  0.2402
  677MOL0     C89285   7.920   8.131   6.137  0.1968 -0.6633 -1.5103
  677MOL0     C89286   7.580   8.182   5.858  0.4476 -0.1695  0.0072
  677MOL0     C89287   7.508   8.080   5.783 -0.3450 -0.3299 -0.0827
  677MOL0     C89288   7.374   8.097   5.747 -0.9771  0.3858 -0.5072
  677MOL0     C89289   7.295   8.202   5.802  0.2424 -0.3055 -0.0707
  677MOL0     O89290   7.165   8.233   5.779  0.2916  0.0454 -0.3294
  677MOL0     C89291   7.099   8.161   5.673 -0.3357  0.2869 -0.4849
  677MOL0     C89292   6.959   8.218   5.631 -0.3964 -1.0763  0.7349
  677MOL0     C89293   6.959   8.364   5.599 -0.4010 -0.6534  0.5829
  677MOL0     C89294   6.839   8.421   5.531 -0.6079 -1.0433 -0.5270
  677MOL0     C89295   6.712   8.382   5.586 -0.2137  0.5161  0.0316
  677MOL0     C89296   6.609   8.361   5.631  0.6916  0.2998 -0.2469
  677MOL0     C89297   7.359   8.292   5.895 -0.7393 -0.7192 -0.3643
  677MOL0     C89298   7.496   8.280   5.920 -0.2923 -0.1080  1.2159
  677MOL0     H89299   7.978   8.347   5.879  0.9334  0.5517 -0.5514
  677MOL0     H89300   8.222   8.344   5.995  0.6607  1.0085  1.4330
  677MOL0     H89301   8.286   8.027   6.279  1.9805 -0.9379 -0.0437
  677MOL0     H89302   8.248   8.153   6.401  0.3950  3.7739 -1.1349
  677MOL0     H89303   8.480   8.060   6.403  3.9012  2.3716  0.3057
  677MOL0     H89304   8.487   8.229   6.386 -1.1903 -0.6681  2.0376
  677MOL0     H89305   8.505   8.201   6.128  0.4796  1.2245  0.9037
  677MOL0     H89306   8.491   8.031   6.135  0.0052  1.8563 -1.6630
  677MOL0     H89307   8.725   8.122   6.291  3.7062  0.6031 -3.0343
  677MOL0     H89308   8.671   7.962   6.237  1.1002 -1.6356 -3.3032
  677MOL0     H89309   8.732   8.209   6.052  1.3452 -0.3331 -0.8982
  677MOL0     H89310   8.729   8.037   5.996  0.0447  0.0270 -0.0164
  677MOL0     H89311   8.900   7.958   6.122 -3.3779  0.1011  1.5592
  677MOL0     H89312   8.930   8.109   6.196  0.2992 -2.1372  0.6126
  677MOL0     H89313   8.934   8.081   5.904 -2.2679 -0.8763  1.6167
  677MOL0     H89314   8.996   8.224   5.984 -1.3591 -0.1676  0.8826
  677MOL0     H89315   9.193   8.110   5.910 -0.3174  1.5966  0.2967
  677MOL0     H89316   9.141   7.958   5.973  1.7024  0.7868 -4.0414
  677MOL0     H89317   9.103   7.984   6.264 -0.8888  2.0820 -0.1956
  677MOL0     H89318   9.338   8.134   6.503 -0.4623  5.7693  0.2756
  677MOL0     H89319   9.177   8.051   6.506  0.3423 -1.1592 -0.4326
  677MOL0     H89320   9.218   8.361   6.450 -0.6518  2.5063  0.8870
  677MOL0     H89321   9.203   8.321   6.606 -2.1781 -2.4906  0.5709
  677MOL0     H89322   8.985   8.392   6.513 -1.0189 -1.1327  0.9453
  677MOL0     H89323   9.009   8.289   6.371 -1.1857  0.2782  1.0022
  677MOL0     H89324   8.834   8.247   6.543  2.8571  4.4208  2.1453
  677MOL0     H89325   8.951   8.193   6.649 -0.6567 -1.4877  0.7255
  677MOL0     H89326   8.818   8.063   6.730 -0.3533  1.7938 -2.1085
  677MOL0     H89327   8.679   7.885   6.808  2.9880  0.9638  1.1824
  677MOL0     H89328   8.342   7.545   6.682 -3.3526 -1.4151 -0.2528
  677MOL0     H89329   8.165   7.451   6.802  1.5388 -1.9468 -0.7354
  677MOL0     H89330   7.935   7.397   7.065 -1.1535  1.9519  3.9301
  677MOL0     H89331   7.997   7.504   6.940  2.6458  0.4312 -0.9444
  677MOL0     H89332   7.992   7.691   7.086 -1.7713  0.6768 -0.9592
  677MOL0     H89333   7.980   7.595   7.234  1.2339 -0.6183 -0.7188
  677MOL0     H89334   7.753   7.532   7.167  2.6032 -2.6742 -2.0517
  677MOL0     H89335   7.765   7.617   7.012 -0.7868 -2.4990  0.3083
  677MOL0     H89336   7.781   7.760   7.274  1.2800 -2.8938  0.0331
  677MOL0     H89337   7.806   7.834   7.111 -0.2377 -0.9989 -0.9313
  677MOL0     H89338   7.575   7.805   7.059  1.9525 -3.1754 -2.0107
  677MOL0     H89339   7.594   7.888   7.211 -0.0085 -0.4969 -0.5440
  677MOL0     H89340   7.529   7.652   7.322  1.5620 -1.5271 -0.9307
  677MOL0     H89341   7.510   7.604   7.150  0.5195  1.4503 -1.1696
  677MOL0     H89342   7.324   7.783   7.319 -0.1590  0.4702 -0.1994
  677MOL0     H89343   7.339   7.808   7.142  1.0685  1.7503 -0.6667
  677MOL0     H89344   7.152   7.659   7.182 -0.7014 -1.5380 -0.1622
  677MOL0     H89345   7.260   7.552   7.284  0.0618  1.2454 -0.2388
  677MOL0     H89346   8.384   7.519   7.169  1.5610 -1.7280 -0.1268
  677MOL0     H89347   8.571   7.588   7.009  0.0702  1.1667 -2.1927
  677MOL0     H89348   8.750   7.677   6.427  2.4864 -0.5242 -1.4243
  677MOL0     H89349   8.875   7.868   6.347  0.6674 -3.3778 -0.6488
  677MOL0     H89350   8.057   8.102   6.296 -1.2585 -3.1041 -1.0933
  677MOL0     H89351   7.838   8.082   6.188  2.3596  0.4010  3.5792
  677MOL0     H89352   7.555   7.995   5.734 -1.7761 -2.0104  1.3289
  677MOL0     H89353   7.323   8.030   5.678 -5.7210  3.9811 -1.0820
  677MOL0     H89354   7.094   8.057   5.705  0.7502  0.2548 -0.3847
  677MOL0     H89355   7.162   8.164   5.583  1.6021 -1.2886  0.7376
  677MOL0     H89356   6.916   8.160   5.549 -2.3825 -1.7601  2.1895
  677MOL0     H89357   6.883   8.199   5.707 -1.6545 -1.1974 -0.5198
  677MOL0     H89358   7.053   8.392   5.551 -0.6615  0.6043  0.7543
  677MOL0     H89359   6.959   8.416   5.695  0.2693 -0.4200  0.4562
  677MOL0     H89360   6.838   8.530   5.542 -4.8709 -1.1088  1.6646
  677MOL0     H89361   6.847   8.397   5.425  0.3736 -2.7202 -0.1041
  677MOL0     H89362   6.514   8.339   5.675 -0.7823  6.6362  0.6053
  677MOL0     H89363   7.312   8.370   5.953  1.3430 -0.4609  1.0990
  677MOL0     H89364   7.550   8.353   5.981  3.5536 -0.6234 -1.2310
  678MOL0     O89365   9.363   4.393   3.629  0.8303  0.0947  0.2155
  678MOL0     C89366   9.486   4.376   3.618 -0.6470 -0.2643 -0.0347
  678MOL0     O89367   9.556   4.259   3.649 -0.0438  0.7960 -0.1058
  678MOL0     C89368   9.493   4.155   3.700  0.0811  0.2091  0.1019
  678MOL0     C89369   9.470   4.036   3.622 -0.4829 -0.2711  0.3681
  678MOL0     C89370   9.424   3.919   3.680  0.0400 -0.4420 -0.4695
  678MOL0     C89371   9.381   3.916   3.812  0.1465  0.0684  0.4081
  678MOL0     O89372   9.337   3.793   3.863  0.0821 -0.5156 -0.1597
  678MOL0     C89373   9.306   3.789   4.002  0.8478 -0.0772  0.4577
  678MOL0     C89374   9.243   3.654   4.040  0.0412  0.3893 -0.4113
  678MOL0     C89375   9.344   3.540   4.030  0.7073 -0.5845 -0.6489
  678MOL0     C89376   9.292   3.416   4.107  0.4419 -0.2358 -0.2734
  678MOL0     C89377   9.193   3.334   4.020 -0.7967 -0.0530 -0.3476
  678MOL0     C89378   9.184   3.196   4.070  0.0836 -0.1242  0.0128
  678MOL0     C89379   9.118   3.097   3.983  1.1747  0.4042  0.8854
  678MOL0     C89380   8.966   3.140   3.967  0.4404  0.1251 -0.5141
  678MOL0     N89381   8.874   3.106   4.069  0.9590  0.4745  0.8120
  678MOL0     C89382   8.800   2.991   4.064  0.4189  0.2766 -0.3221
  678MOL0     C89383   8.676   3.016   4.108  0.3610  0.7652 -0.4898
  678MOL0     C89384   8.570   2.903   4.110 -0.1554  1.0328 -0.0432
  678MOL0     C89385   8.511   2.902   4.256  0.4669  1.1824 -0.7494
  678MOL0     C89386   8.408   3.006   4.308  0.3519  0.4117  0.1522
  678MOL0     C89387   8.308   2.942   4.407 -0.1644 -0.4973  0.2137
  678MOL0     O89388   8.244   3.057   4.457 -0.1329 -0.9920  0.1150
  678MOL0     C89389   8.108   3.067   4.454  0.6660  1.4142  0.5352
  678MOL0     C89390   8.051   3.023   4.569 -0.7903  0.0034 -0.8696
  678MOL0     C89391   7.911   3.027   4.590 -0.4451 -0.1533 -0.1697
  678MOL0     C89392   7.822   3.060   4.487 -0.6207  0.1552 -0.8742
  678MOL0     C89393   7.681   3.070   4.518  0.9745  0.0327  0.4659
  678MOL0     O89394   7.635   3.055   4.642  0.5256 -0.3636 -0.3198
  678MOL0     C89395   7.504   3.037   4.678  0.8049  1.1177 -0.2222
  678MOL0     C89396   7.485   2.948   4.787 -0.3050 -0.5318  0.0095
  678MOL0     C89397   7.356   2.927   4.829  0.6657 -0.8449  0.0272
  678MOL0     C89398   7.255   3.005   4.777 -0.2198  0.4717 -0.3302
  678MOL0     O89399   7.131   3.010   4.823 -0.6154 -0.3198  0.7286
  678MOL0     C89400   7.082   2.903   4.909  0.5549 -0.2999  0.1891
  678MOL0     C89401   6.934   2.903   4.879  0.1642 -0.4051  1.0658
  678MOL0     C89402   6.861   3.023   4.944 -0.2403 -0.5007  0.3074
  678MOL0     C89403   6.716   3.040   4.885 -0.8556  0.4343 -0.2398
  678MOL0     C89404   6.629   3.132   4.970  0.3125 -0.4618 -0.8299
  678MOL0     C89405   6.487   3.154   4.944  0.1236 -0.2956 -0.4259
  678MOL0     C89406   6.412   3.027   4.940 -0.2777 -0.4102 -0.7686
  678MOL0     C89407   6.261   3.049   4.935  0.5717  0.2331 -0.0745
  678MOL0    Cl89408   6.202   3.133   4.798  0.2987  0.6825 -0.1440
  678MOL0     C89409   7.271   3.085   4.668  0.0069 -0.2669  0.1748
  678MOL0     C89410   7.400   3.110   4.618  0.4582 -0.1874  0.0581
  678MOL0     O89411   7.615   3.095   4.416 -0.1416  0.3278 -0.0271
  678MOL0     C89412   7.883   3.084   4.363 -0.2294 -0.3532  0.2698
  678MOL0     C89413   8.023   3.087   4.350 -0.2793 -0.0015 -0.3723
  678MOL0     N89414   8.667   3.148   4.144  1.0093 -0.6765  0.2602
  678MOL0     N89415   8.783   3.204   4.116  0.1560 -0.4599  0.2523
  678MOL0     C89416   9.385   4.040   3.888 -0.6444 -1.3333  0.1589
  678MOL0     C89417   9.433   4.162   3.828  0.5564 -0.3487  1.0885
  678MOL0     C89418   9.568   4.470   3.541 -1.0858  0.7743  0.8526
  678MOL0     C89419   9.713   4.467   3.539  0.2642  0.0525  0.9228
  678MOL0     C89420   9.782   4.568   3.487  0.5650  0.4298 -0.0955
  678MOL0     C89421   9.727   4.675   3.430  1.0016  0.4659  0.0929
  678MOL0     O89422   9.811   4.774   3.385  0.0078  1.0739  0.0051
  678MOL0     C89423   9.758   4.891   3.315  0.5164 -0.0777 -0.7946
  678MOL0     C89424   9.872   4.973   3.269  0.8752 -0.9599  1.2119
  678MOL0     C89425   9.930   5.059   3.386 -0.1918  0.0803 -0.1707
  678MOL0     C89426  10.058   5.125   3.347  0.9972 -0.5299 -0.2650
  678MOL0     C89427  10.106   5.193   3.464 -0.4530 -1.0501 -0.2930
  678MOL0     C89428  10.167   5.261   3.551 -0.1103  0.3871 -0.1258
  678MOL0     C89429   9.582   4.682   3.425 -0.5749 -0.3297  0.0385
  678MOL0     C89430   9.504   4.586   3.482  0.8458  0.4197  0.8096
  678MOL0     H89431   9.519   4.044   3.525  0.0764  1.9222  0.7839
  678MOL0     H89432   9.433   3.819   3.638 -2.0761 -0.6222 -0.6313
  678MOL0     H89433   9.223   3.857   4.025 -0.0425 -1.6901  2.4317
  678MOL0     H89434   9.386   3.808   4.074  0.9770 -1.3715  0.6867
  678MOL0     H89435   9.152   3.639   3.981  0.6678  2.4907 -2.0481
  678MOL0     H89436   9.219   3.653   4.147  2.8020 -0.8801  0.3042
  678MOL0     H89437   9.441   3.571   4.071 -0.4155  3.0104 -0.3634
  678MOL0     H89438   9.368   3.523   3.925 -3.0021 -1.8897 -1.4291
  678MOL0     H89439   9.377   3.350   4.126 -1.4198 -2.5782  0.3415
  678MOL0     H89440   9.244   3.436   4.203  0.0179  2.0217 -0.8918
  678MOL0     H89441   9.228   3.337   3.916  0.7069  1.6810  0.1584
  678MOL0     H89442   9.099   3.389   4.026  0.1574  1.5828  0.1899
  678MOL0     H89443   9.135   3.200   4.168  3.8081 -1.8292  2.1736
  678MOL0     H89444   9.284   3.157   4.089  0.3622 -1.1880 -3.1155
  678MOL0     H89445   9.169   3.094   3.887 -0.5749 -0.3681 -0.0618
  678MOL0     H89446   9.115   2.994   4.020 -1.5709  0.1938  0.2639
  678MOL0     H89447   8.928   3.103   3.872  0.1814 -0.5922 -0.1457
  678MOL0     H89448   8.947   3.247   3.956 -1.4494 -0.2011 -0.6330
  678MOL0     H89449   8.821   2.887   4.043  0.9105 -0.5329  3.4869
  678MOL0     H89450   8.618   2.807   4.090  1.3550  1.3894  1.6068
  678MOL0     H89451   8.488   2.938   4.047 -1.1350  0.9102  1.1290
  678MOL0     H89452   8.599   2.906   4.321 -2.1277  2.5694  2.9758
  678MOL0     H89453   8.461   2.806   4.271 -3.7361  2.5808 -3.9025
  678MOL0     H89454   8.466   3.093   4.341  0.5071  0.2176  0.3934
  678MOL0     H89455   8.349   3.034   4.220  3.2202  2.1722 -1.4045
  678MOL0     H89456   8.371   2.895   4.483 -0.4024  0.8838  1.3017
  678MOL0     H89457   8.241   2.870   4.357  1.6553 -1.3470 -1.1153
  678MOL0     H89458   8.109   2.986   4.653 -4.6336  0.8327  2.4490
  678MOL0     H89459   7.869   3.025   4.690  0.3891  1.3289  0.2485
  678MOL0     H89460   7.571   2.908   4.841  1.1302  3.5694  1.1312
  678MOL0     H89461   7.337   2.852   4.905 -1.6971  1.9009  2.3853
  678MOL0     H89462   7.104   2.929   5.013  0.5332  1.4132 -0.2008
  678MOL0     H89463   7.120   2.802   4.892  1.0168 -0.0323 -0.4054
  678MOL0     H89464   6.879   2.809   4.891  1.6132 -1.7645 -1.9811
  678MOL0     H89465   6.928   2.907   4.770  2.5248  2.8574  0.9156
  678MOL0     H89466   6.927   3.109   4.928  1.4548 -1.6540  0.9442
  678MOL0     H89467   6.843   3.004   5.050 -3.8143 -0.6690 -0.1940
  678MOL0     H89468   6.738   3.071   4.782  4.5940 -1.5962 -0.0274
  678MOL0     H89469   6.663   2.944   4.888 -1.5015  0.8141  1.3979
  678MOL0     H89470   6.674   3.231   4.969  0.4667 -0.2857  3.5671
  678MOL0     H89471   6.632   3.098   5.074  0.0876 -1.8058 -1.2461
  678MOL0     H89472   6.484   3.199   4.844 -0.1141  0.7745  0.0419
  678MOL0     H89473   6.455   3.229   5.018  3.0757  1.1642 -0.4938
  678MOL0     H89474   6.444   2.979   4.847 -2.1051  0.3579 -1.8475
  678MOL0     H89475   6.430   2.959   5.024 -2.6344 -1.9263 -1.3868
  678MOL0     H89476   6.222   3.078   5.033  1.5685 -5.0629  2.2288
  678MOL0     H89477   6.226   2.949   4.907 -1.2023  1.1151 -1.2444
  678MOL0     H89478   7.194   3.140   4.615  0.7742  0.7750  0.1049
  678MOL0     H89479   7.420   3.200   4.559 -1.6289  1.1753  1.2769
  678MOL0     H89480   7.830   3.094   4.269  1.7121 -3.1034 -1.2669
  678MOL0     H89481   8.057   3.106   4.249 -0.1978  0.9001 -0.1840
  678MOL0     H89482   9.351   4.042   3.991 -1.2545 -1.7923 -0.0300
  678MOL0     H89483   9.447   4.243   3.899 -0.4530 -0.0652  0.9808
  678MOL0     H89484   9.768   4.384   3.583 -2.3544 -1.1279  2.2741
  678MOL0     H89485   9.888   4.545   3.482  0.7137  0.8792  0.8580
  678MOL0     H89486   9.692   4.937   3.390 -0.6285  2.9820 -3.4515
  678MOL0     H89487   9.699   4.878   3.224  1.7452  2.2569 -2.0349
  678MOL0     H89488   9.958   4.928   3.219  3.0516  0.4825  3.4002
  678MOL0     H89489   9.826   5.038   3.195  0.9870  0.6522  2.4876
  678MOL0     H89490   9.969   4.992   3.463 -1.1853  0.4112  0.6463
  678MOL0     H89491   9.861   5.137   3.419 -2.6575 -1.6188 -1.0576
  678MOL0     H89492  10.124   5.055   3.294 -2.7556 -2.2595 -3.1636
  678MOL0     H89493  10.027   5.207   3.282 -2.3797 -1.0851  0.4580
  678MOL0     H89494  10.217   5.308   3.633 -1.9696  4.4225 -1.0808
  678MOL0     H89495   9.526   4.766   3.385  2.3353  0.5578 -2.6749
  678MOL0     H89496   9.398   4.607   3.488 -0.0175 -2.5832 -1.5099
  679MOL0     O89497   3.488   8.892   0.320 -0.8403  0.5971 -0.0305
  679MOL0     C89498   3.482   9.003   0.375  0.1157  1.1071  0.0154
  679MOL0     O89499   3.395   9.037   0.475 -0.3587 -0.4231  0.0683
  679MOL0     C89500   3.306   8.942   0.504  0.4226 -0.3215  0.0802
  679MOL0     C89501   3.344   8.821   0.561  0.2125  0.6476  0.2546
  679MOL0     C89502   3.251   8.723   0.547  0.4493  0.2725  1.4511
  679MOL0     C89503   3.126   8.733   0.485  0.1633  0.2230  0.1920
  679MOL0     O89504   3.043   8.618   0.467 -0.3236 -0.0562 -0.1726
  679MOL0     C89505   2.910   8.634   0.435  0.4226  0.3479 -1.2971
  679MOL0     C89506   2.838   8.490   0.414  0.1847  0.5981  0.3598
  679MOL0     C89507   2.687   8.501   0.398 -0.4070  0.2222  0.2744
  679MOL0     C89508   2.623   8.358   0.375 -0.7955 -0.3067 -0.3564
  679MOL0     C89509   2.471   8.355   0.334  0.6177 -0.3507  0.4257
  679MOL0     C89510   2.422   8.472   0.250  0.1240  0.1350 -0.1542
  679MOL0     C89511   2.303   8.440   0.161 -0.6932 -0.3455  0.2385
  679MOL0     C89512   2.267   8.561   0.082  0.3786 -0.1532  0.7488
  679MOL0     N89513   2.149   8.540   0.004  0.8519  0.0835  0.3618
  679MOL0     C89514   2.150   8.482  -0.115 -0.2076 -1.1259  0.9328
  679MOL0     C89515   2.019   8.474  -0.158 -0.1419 -0.3013 -0.4696
  679MOL0     C89516   1.984   8.420  -0.302 -0.1490 -0.5009 -0.6273
  679MOL0     C89517   1.971   8.267  -0.283 -0.2298  0.5287 -0.7007
  679MOL0     C89518   2.045   8.197  -0.399  0.4968 -0.5644 -0.9177
  679MOL0     C89519   2.198   8.232  -0.416 -0.2630  0.2931  0.4017
  679MOL0     O89520   2.268   8.191  -0.291  0.4857  0.6134  0.2905
  679MOL0     C89521   2.402   8.217  -0.268  0.6336  0.5557 -0.5386
  679MOL0     C89522   2.453   8.195  -0.140 -0.5029  0.2084  0.2994
  679MOL0     C89523   2.585   8.224  -0.107  0.0278 -0.9509 -0.3422
  679MOL0     C89524   2.676   8.269  -0.205 -0.2820 -0.2800 -0.7088
  679MOL0     C89525   2.820   8.300  -0.164  0.0931 -0.1897  0.1598
  679MOL0     O89526   2.844   8.287  -0.026  0.3228 -0.2838  0.5148
  679MOL0     C89527   2.975   8.267   0.008  0.1242  0.1808  0.0642
  679MOL0     C89528   3.041   8.144  -0.015 -0.7611 -0.4461  0.7210
  679MOL0     C89529   3.185   8.132   0.013  0.7560 -0.1831 -0.2105
  679MOL0     C89530   3.247   8.244   0.075 -0.1587  0.0821  0.1810
  679MOL0     O89531   3.388   8.249   0.097 -0.8030 -0.5334  0.6741
  679MOL0     C89532   3.449   8.125   0.144 -0.3656 -0.0273  0.0595
  679MOL0     C89533   3.596   8.153   0.181 -0.6453 -0.8855  0.4549
  679MOL0     C89534   3.617   8.224   0.311  0.0967 -0.1703 -0.3849
  679MOL0     C89535   3.529   8.168   0.425  0.8735  0.7753 -0.3894
  679MOL0     C89536   3.405   8.262   0.436 -0.4705 -1.0943  0.4738
  679MOL0     C89537   3.291   8.199   0.519  0.8085  0.2418 -0.0984
  679MOL0     C89538   3.158   8.283   0.527  1.3046 -0.2389 -0.3888
  679MOL0     C89539   3.047   8.240   0.619  0.8198 -0.1110  1.1158
  679MOL0    Cl89540   2.928   8.142   0.526 -0.4257 -0.1324 -0.5027
  679MOL0     C89541   3.176   8.359   0.092  0.7929  0.0685 -0.4177
  679MOL0     C89542   3.048   8.377   0.051  0.1020 -0.0275  0.1421
  679MOL0     O89543   2.888   8.347  -0.247 -0.2919 -0.4071  1.0004
  679MOL0     C89544   2.627   8.296  -0.332 -0.4092  0.5526 -1.2533
  679MOL0     C89545   2.486   8.279  -0.356 -0.9478 -0.8900  0.5889
  679MOL0     N89546   1.937   8.502  -0.048  0.0487  0.0930 -0.2498
  679MOL0     N89547   2.021   8.538   0.047 -0.2887 -0.5898  0.0142
  679MOL0     C89548   3.083   8.859   0.446 -0.1499  0.4978 -0.4604
  679MOL0     C89549   3.181   8.963   0.444 -0.0999 -0.3627 -1.3574
  679MOL0     C89550   3.571   9.110   0.326 -0.4199  0.2304  0.6640
  679MOL0     C89551   3.544   9.238   0.373  0.2443  0.1167 -0.1409
  679MOL0     C89552   3.617   9.348   0.318 -0.3578  0.0675  0.6597
  679MOL0     C89553   3.697   9.325   0.198 -0.9119 -0.1680  0.5103
  679MOL0     O89554   3.759   9.424   0.119 -0.8147  0.7642 -0.6393
  679MOL0     C89555   3.750   9.561   0.151  0.7219  0.3036 -0.3585
  679MOL0     C89556   3.807   9.653   0.042  0.6113 -0.3915 -0.0621
  679MOL0     C89557   3.755   9.636  -0.102 -0.2417  0.4790  0.1779
  679MOL0     C89558   3.803   9.757  -0.182 -0.2405  0.1834  0.5522
  679MOL0     C89559   3.748   9.889  -0.145 -0.1306  0.6321 -0.7153
  679MOL0     C89560   3.700   9.985  -0.090 -0.2688  0.0883  0.2853
  679MOL0     C89561   3.728   9.192   0.151  0.5611 -1.2913 -0.3111
  679MOL0     C89562   3.660   9.083   0.221 -0.0428  0.1346  0.3492
  679MOL0     H89563   3.432   8.803   0.623  1.2298 -1.3154 -1.6440
  679MOL0     H89564   3.273   8.633   0.604  3.1536 -0.5380 -0.6555
  679MOL0     H89565   2.895   8.692   0.343  1.5709 -3.2470 -3.9508
  679MOL0     H89566   2.863   8.681   0.522 -1.3154 -2.7662 -0.4223
  679MOL0     H89567   2.860   8.413   0.489 -3.4541 -0.5239  0.4950
  679MOL0     H89568   2.876   8.460   0.316  1.1911 -2.3237  1.5161
  679MOL0     H89569   2.655   8.562   0.313 -0.8275 -2.7162 -1.8349
  679MOL0     H89570   2.653   8.551   0.490  1.4253 -1.5185  1.9987
  679MOL0     H89571   2.687   8.308   0.301  1.9029 -0.0583  1.6574
  679MOL0     H89572   2.632   8.301   0.468  1.1635  0.3628 -0.0822
  679MOL0     H89573   2.415   8.360   0.428  1.8731  4.1240  1.1701
  679MOL0     H89574   2.440   8.264   0.283  0.8357  0.2430 -0.7895
  679MOL0     H89575   2.509   8.515   0.200  0.3551 -0.5794 -0.3774
  679MOL0     H89576   2.383   8.550   0.316  1.7548 -0.3075  1.4260
  679MOL0     H89577   2.326   8.355   0.097  0.1245 -1.4120  1.8886
  679MOL0     H89578   2.212   8.419   0.219 -2.3629 -0.2662 -2.2009
  679MOL0     H89579   2.352   8.570   0.014 -0.0532  0.0175  0.2160
  679MOL0     H89580   2.265   8.646   0.151  2.8342  0.8679 -0.3160
  679MOL0     H89581   2.236   8.460  -0.178 -0.0890 -0.3844  0.8251
  679MOL0     H89582   2.065   8.460  -0.363 -0.1285  2.0194  0.9311
  679MOL0     H89583   1.892   8.473  -0.327  0.6430  1.7323  0.9613
  679MOL0     H89584   1.864   8.249  -0.288 -0.3548  1.2108 -0.4972
  679MOL0     H89585   1.993   8.227  -0.184  1.2514  3.0567  0.0877
  679MOL0     H89586   2.032   8.092  -0.373 -1.7692  0.3147  2.0783
  679MOL0     H89587   1.991   8.222  -0.491 -0.8735 -3.4110 -0.9959
  679MOL0     H89588   2.212   8.338  -0.441  0.0516  0.7172  2.2225
  679MOL0     H89589   2.229   8.178  -0.506 -1.5756  0.4444 -0.1742
  679MOL0     H89590   2.384   8.149  -0.069  0.8174 -1.4217  0.5966
  679MOL0     H89591   2.621   8.206  -0.006  0.4708  1.8076  0.0638
  679MOL0     H89592   2.971   8.070  -0.053 -0.4790  0.9705 -3.0515
  679MOL0     H89593   3.241   8.040  -0.003  1.6308  0.5988 -1.8959
  679MOL0     H89594   3.444   8.060   0.056 -0.4203  1.1941 -0.8659
  679MOL0     H89595   3.398   8.076   0.226  1.4676 -0.1732  1.1624
  679MOL0     H89596   3.630   8.223   0.104 -4.9540  0.5903 -0.4016
  679MOL0     H89597   3.657   8.063   0.192 -2.6324 -2.4113 -0.4563
  679MOL0     H89598   3.587   8.329   0.307 -0.6242 -0.3614 -0.2285
  679MOL0     H89599   3.719   8.210   0.346 -0.1018  0.2211  0.3629
  679MOL0     H89600   3.501   8.065   0.406  0.4275  1.0539 -1.2962
  679MOL0     H89601   3.589   8.163   0.517  0.7869 -5.0001 -0.3076
  679MOL0     H89602   3.361   8.281   0.338  3.5498 -0.1628 -1.3465
  679MOL0     H89603   3.437   8.360   0.472  1.2995 -1.1803 -0.7811
  679MOL0     H89604   3.323   8.180   0.621  2.3832  1.7153 -0.2847
  679MOL0     H89605   3.272   8.098   0.480 -0.7752 -1.3070  4.1312
  679MOL0     H89606   3.175   8.381   0.572 -1.2933 -0.2579  0.8005
  679MOL0     H89607   3.115   8.281   0.426 -0.2600 -1.5920  0.2672
  679MOL0     H89608   3.008   8.334   0.658  1.7629  1.6335 -1.8543
  679MOL0     H89609   3.089   8.178   0.700 -1.0647  0.4949  2.6238
  679MOL0     H89610   3.223   8.434   0.155 -0.2474  0.1293  0.3097
  679MOL0     H89611   3.010   8.477   0.068 -1.9524 -1.1819  3.3096
  679MOL0     H89612   2.692   8.349  -0.400 -2.3524 -0.6271 -4.2192
  679MOL0     H89613   2.452   8.303  -0.457 -2.4193  3.2653  1.8476
  679MOL0     H89614   2.990   8.881   0.394  0.3377  0.1820 -1.4978
  679MOL0     H89615   3.148   9.053   0.392 -0.7777 -0.5587 -1.2799
  679MOL0     H89616   3.460   9.266   0.436 -1.4943  0.1633 -2.3527
  679MOL0     H89617   3.604   9.449   0.356  3.6232  1.8795 -2.0697
  679MOL0     H89618   3.797   9.582   0.247 -0.5558 -0.6008  0.4965
  679MOL0     H89619   3.644   9.587   0.154  0.2158 -1.6720  0.0141
  679MOL0     H89620   3.790   9.753   0.082  3.7747 -0.2450  1.1706
  679MOL0     H89621   3.914   9.632   0.046  0.3290 -1.7840  3.0989
  679MOL0     H89622   3.646   9.630  -0.107 -0.1245 -2.0166 -3.5233
  679MOL0     H89623   3.783   9.540  -0.145  3.3394  2.9054 -3.5570
  679MOL0     H89624   3.908   9.781  -0.159 -0.2778 -0.8038  1.9082
  679MOL0     H89625   3.785   9.743  -0.289  0.0002  1.2967  0.3584
  679MOL0     H89626   3.670  10.065  -0.025  4.3136 -0.4840  3.5205
  679MOL0     H89627   3.804   9.158   0.082  1.5977  1.5400 -0.7024
  679MOL0     H89628   3.687   8.982   0.191  0.4919 -0.0491  1.4062
  680MOL0     O89629   9.282   7.908   0.862  0.1646 -0.1117 -0.5492
  680MOL0     C89630   9.403   7.905   0.851 -0.5919  0.4942 -0.3658
  680MOL0     O89631   9.494   7.888   0.946 -0.2767  0.2151  0.1147
  680MOL0     C89632   9.454   7.862   1.071  1.1216 -0.6578 -0.0855
  680MOL0     C89633   9.376   7.955   1.146 -0.7362 -0.3493 -0.7604
  680MOL0     C89634   9.341   7.916   1.283  0.2256  0.2362  0.3300
  680MOL0     C89635   9.369   7.787   1.332 -0.3962 -0.3372  0.2380
  680MOL0     O89636   9.319   7.758   1.452  0.8140 -0.0666 -0.1150
  680MOL0     C89637   9.384   7.662   1.532 -0.0939 -0.1478 -0.4447
  680MOL0     C89638   9.321   7.663   1.667  0.6924  0.5458 -0.2269
  680MOL0     C89639   9.224   7.547   1.675  1.2049  0.8525  0.0818
  680MOL0     C89640   9.131   7.556   1.794  0.2699  0.0220 -0.3331
  680MOL0     C89641   9.220   7.535   1.924  0.5585 -0.0465 -0.2264
  680MOL0     C89642   9.127   7.528   2.048 -0.2979  0.2049 -0.2834
  680MOL0     C89643   9.213   7.489   2.173 -0.2902  0.2896  0.8194
  680MOL0     C89644   9.145   7.432   2.293  0.2003 -0.7300 -0.0782
  680MOL0     N89645   9.090   7.299   2.257  0.5824 -0.2443  0.1167
  680MOL0     C89646   8.957   7.272   2.220  0.6299 -1.0780 -0.7379
  680MOL0     C89647   8.952   7.139   2.207 -0.6541 -0.4865  0.0208
  680MOL0     C89648   8.841   7.060   2.166  0.0826  0.0064  1.2857
  680MOL0     C89649   8.812   7.065   2.012 -0.0665 -0.0992  0.4609
  680MOL0     C89650   8.927   7.020   1.924 -0.3967 -0.4648  0.7019
  680MOL0     C89651   8.939   6.869   1.894 -0.2090  0.5067  0.1446
  680MOL0     O89652   8.844   6.820   1.800 -0.5831 -0.1732 -0.3734
  680MOL0     C89653   8.886   6.804   1.670  0.6157  0.1921 -0.3499
  680MOL0     C89654   8.829   6.699   1.594  0.0439 -0.5638 -0.1674
  680MOL0     C89655   8.853   6.694   1.454  0.4437  0.4621  0.7316
  680MOL0     C89656   8.947   6.779   1.389  0.3160  0.1959 -0.1485
  680MOL0     C89657   8.961   6.775   1.246  0.0144 -0.9910 -0.8436
  680MOL0     O89658   9.035   6.877   1.183  0.3233  0.0279  0.9056
  680MOL0     C89659   9.050   6.866   1.048 -0.1646  0.0659  0.3281
  680MOL0     C89660   9.037   6.984   0.978  0.3086 -1.3571 -0.4208
  680MOL0     C89661   9.026   6.981   0.843  0.3866 -0.0988  0.6258
  680MOL0     C89662   9.054   6.869   0.766 -0.0426  0.2825  0.6281
  680MOL0     O89663   9.076   6.856   0.630  0.4280 -0.2775  0.1295
  680MOL0     C89664   9.016   6.948   0.542  0.5578  0.2444  0.6369
  680MOL0     C89665   9.011   6.884   0.406  0.3745  0.0660  0.2835
  680MOL0     C89666   8.909   6.766   0.387 -0.7159 -0.3321  0.0600
  680MOL0     C89667   8.891   6.712   0.242 -0.4017 -0.5623 -0.2029
  680MOL0     C89668   8.832   6.823   0.156  0.4191 -1.0858 -0.7907
  680MOL0     C89669   8.796   6.769   0.014 -0.2311 -0.0197 -0.8540
  680MOL0     C89670   8.783   6.882  -0.084  0.2896  1.1083  0.5661
  680MOL0     C89671   8.824   6.851  -0.226 -0.2525  0.4015  0.8577
  680MOL0    Cl89672   8.731   6.722  -0.305  0.2332 -0.2566  0.0598
  680MOL0     C89673   9.089   6.745   0.836  0.1656  0.6557 -0.0775
  680MOL0     C89674   9.094   6.751   0.977  0.4032 -0.1275  1.1969
  680MOL0     O89675   8.909   6.681   1.186  0.6410  0.4405 -0.5682
  680MOL0     C89676   9.012   6.872   1.468 -0.1236  0.2219  0.3981
  680MOL0     C89677   8.973   6.891   1.602  0.4814 -0.7736  0.7716
  680MOL0     N89678   9.080   7.088   2.239 -0.2092 -0.9086  0.0410
  680MOL0     N89679   9.167   7.186   2.254  0.1171  0.1249 -0.7607
  680MOL0     C89680   9.452   7.703   1.257 -0.2148  0.2620 -0.3266
  680MOL0     C89681   9.494   7.742   1.129 -0.7472 -0.0635  0.3023
  680MOL0     C89682   9.468   7.916   0.721  1.0070  1.2236  1.3129
  680MOL0     C89683   9.605   7.878   0.698  0.1019  0.2273  0.6030
  680MOL0     C89684   9.655   7.873   0.565  0.0201 -0.5358  0.0786
  680MOL0     C89685   9.578   7.926   0.464 -0.1497 -0.0033 -0.2696
  680MOL0     O89686   9.621   7.934   0.332 -0.3423  0.0656 -0.7647
  680MOL0     C89687   9.718   7.844   0.281  0.3936 -0.9448  0.0474
  680MOL0     C89688   9.698   7.814   0.136 -0.0298  0.9202  0.2732
  680MOL0     C89689   9.562   7.745   0.098 -0.8526 -0.4996  0.4977
  680MOL0     C89690   9.521   7.620   0.178 -0.4615 -0.0759  0.4078
  680MOL0     C89691   9.423   7.653   0.285 -0.7415  0.3121  0.7709
  680MOL0     C89692   9.349   7.695   0.369 -0.2588 -0.4731 -0.3094
  680MOL0     C89693   9.444   7.973   0.483  0.0559  0.3652 -0.1863
  680MOL0     C89694   9.392   7.964   0.615  0.0678  0.0216 -0.8962
  680MOL0     H89695   9.342   8.052   1.109  2.2999  0.9971 -0.3372
  680MOL0     H89696   9.282   7.985   1.343 -1.2118 -1.0695  0.4679
  680MOL0     H89697   9.490   7.684   1.549 -0.8261  2.5050  1.3621
  680MOL0     H89698   9.376   7.561   1.493 -0.8884 -0.2464 -0.0482
  680MOL0     H89699   9.285   7.766   1.674  1.5358  0.9851 -1.8798
  680MOL0     H89700   9.398   7.673   1.744 -0.4805 -2.7305  1.5433
  680MOL0     H89701   9.276   7.451   1.674 -2.6755 -1.5008 -3.0837
  680MOL0     H89702   9.163   7.558   1.585  2.6180 -1.7083 -1.2963
  680MOL0     H89703   9.080   7.653   1.802  1.0340  0.3511  0.8301
  680MOL0     H89704   9.054   7.482   1.774  0.7908  0.0797 -2.9590
  680MOL0     H89705   9.294   7.613   1.944  2.5847 -1.8291 -0.4191
  680MOL0     H89706   9.268   7.436   1.918 -0.5875 -1.0817  4.2058
  680MOL0     H89707   9.069   7.437   2.028  0.2837 -1.2740  3.6957
  680MOL0     H89708   9.066   7.618   2.060 -0.8392  0.3002 -3.1222
  680MOL0     H89709   9.285   7.416   2.135 -0.1285  1.9479 -2.4043
  680MOL0     H89710   9.280   7.572   2.198  1.9166  0.8882 -5.3259
  680MOL0     H89711   9.060   7.498   2.313  2.1686  1.3918  1.8436
  680MOL0     H89712   9.213   7.425   2.378 -0.1121  0.6795  0.3291
  680MOL0     H89713   8.874   7.341   2.205  2.7149  0.9408 -4.5724
  680MOL0     H89714   8.751   7.092   2.219 -1.3688 -3.3544  1.0611
  680MOL0     H89715   8.860   6.958   2.201 -0.0358  0.0824  1.5698
  680MOL0     H89716   8.810   7.173   2.001  1.4030  0.2132  2.5622
  680MOL0     H89717   8.715   7.027   1.979  1.2609 -1.1827 -2.5131
  680MOL0     H89718   8.921   7.063   1.823 -1.3004 -1.0028  0.5162
  680MOL0     H89719   9.025   7.052   1.959  0.9816 -2.8628 -0.7654
  680MOL0     H89720   8.929   6.811   1.986  0.0921 -2.3370 -1.4911
  680MOL0     H89721   9.042   6.849   1.863  0.2605 -0.3230  2.0844
  680MOL0     H89722   8.755   6.631   1.636 -1.0901 -1.4447 -3.2509
  680MOL0     H89723   8.798   6.616   1.402 -0.9520  1.5385  0.5518
  680MOL0     H89724   9.032   7.083   1.022 -0.1608 -1.1561 -0.9200
  680MOL0     H89725   9.007   7.075   0.792  0.3416  0.5164  1.7540
  680MOL0     H89726   9.092   7.026   0.551  1.9641 -1.1224  0.8663
  680MOL0     H89727   8.918   6.982   0.578  0.3293 -0.2209  0.4681
  680MOL0     H89728   9.108   6.840   0.381 -0.5409 -1.7666 -0.2125
  680MOL0     H89729   8.984   6.955   0.327  0.2089 -1.1544 -0.7956
  680MOL0     H89730   8.809   6.794   0.421 -1.7149 -1.9465 -1.3867
  680MOL0     H89731   8.944   6.683   0.450 -4.0613 -2.9262 -1.2000
  680MOL0     H89732   8.984   6.678   0.195 -0.9029  0.0003 -1.6561
  680MOL0     H89733   8.819   6.630   0.236 -0.1306 -0.6668 -3.3371
  680MOL0     H89734   8.910   6.900   0.155  2.1380 -2.7474 -1.2961
  680MOL0     H89735   8.744   6.872   0.199  0.2962 -1.0893 -1.0372
  680MOL0     H89736   8.702   6.714   0.006 -0.4118  0.4898 -2.6176
  680MOL0     H89737   8.880   6.706  -0.017  0.0959 -1.2485  2.2044
  680MOL0     H89738   8.678   6.913  -0.070 -0.3116 -1.0619  1.3984
  680MOL0     H89739   8.855   6.960  -0.058 -1.1296  2.3881  0.8281
  680MOL0     H89740   8.926   6.812  -0.223 -1.5372 -3.3155  2.1706
  680MOL0     H89741   8.827   6.946  -0.281  3.6421  1.8697  3.1641
  680MOL0     H89742   9.127   6.659   0.782  1.0541  1.2710 -0.4582
  680MOL0     H89743   9.125   6.660   1.027 -0.0777  0.0510  1.8374
  680MOL0     H89744   9.090   6.936   1.428  1.4027  0.2151  3.1381
  680MOL0     H89745   9.023   6.968   1.660  0.6700  0.4107 -0.8988
  680MOL0     H89746   9.487   7.607   1.291  0.8694  1.3342  1.7857
  680MOL0     H89747   9.546   7.666   1.072  1.7041  0.7360  1.3345
  680MOL0     H89748   9.662   7.835   0.780  0.8120  0.7580  0.3949
  680MOL0     H89749   9.754   7.830   0.562 -0.1534 -1.0480  1.0748
  680MOL0     H89750   9.720   7.749   0.333  0.9139 -1.8912 -1.6261
  680MOL0     H89751   9.813   7.894   0.303 -1.9226  2.8762  2.5113
  680MOL0     H89752   9.700   7.907   0.077 -1.9244  0.9795  0.2373
  680MOL0     H89753   9.776   7.742   0.109  1.8060  2.1952  1.8681
  680MOL0     H89754   9.555   7.733  -0.011  2.1585  0.1926  0.1417
  680MOL0     H89755   9.478   7.814   0.111 -2.0191 -1.8535  0.3869
  680MOL0     H89756   9.472   7.548   0.111 -0.6855  0.0481  0.4391
  680MOL0     H89757   9.611   7.574   0.220 -0.2784  1.0325  1.2511
  680MOL0     H89758   9.263   7.729   0.423 -0.6653 -0.5731 -0.8783
  680MOL0     H89759   9.390   7.995   0.392  4.3516  3.6787 -2.3343
  680MOL0     H89760   9.289   7.982   0.645  0.2840 -3.9359  3.5209
  681MOL0     O89761   1.526   1.648   5.354 -0.3957 -0.8217  0.0431
  681MOL0     C89762   1.557   1.768   5.380 -0.1681 -0.3623 -0.3702
  681MOL0     O89763   1.683   1.807   5.431 -0.2223  0.6037  0.5117
  681MOL0     C89764   1.767   1.701   5.466  0.2949  0.0842  0.1265
  681MOL0     C89765   1.775   1.640   5.587  0.5702 -0.1711 -0.1749
  681MOL0     C89766   1.869   1.533   5.611 -0.2197 -0.0270 -0.9268
  681MOL0     C89767   1.956   1.482   5.513 -0.2555  0.5170  0.7928
  681MOL0     O89768   2.049   1.378   5.517  0.4620 -0.3299  0.2504
  681MOL0     C89769   2.048   1.305   5.642  0.3087  0.5532  0.1813
  681MOL0     C89770   2.123   1.397   5.750  0.9086  0.3292  0.8840
  681MOL0     C89771   2.145   1.339   5.888  0.6082 -0.0448  0.3044
  681MOL0     C89772   2.016   1.336   5.962 -0.5939 -0.1608 -0.1020
  681MOL0     C89773   2.031   1.259   6.087  0.3287 -0.0738 -0.0947
  681MOL0     C89774   1.912   1.286   6.173  0.6271 -0.1892  0.5330
  681MOL0     C89775   1.907   1.229   6.317  0.3348 -0.6277 -0.1080
  681MOL0     C89776   1.913   1.072   6.341  0.8856  0.1363  0.8376
  681MOL0     N89777   2.027   1.049   6.429 -0.5924  0.9225 -0.1045
  681MOL0     C89778   2.162   1.064   6.393  0.4502  0.0383 -0.7348
  681MOL0     C89779   2.233   1.046   6.507  0.9336 -0.0617  0.8495
  681MOL0     C89780   2.390   1.046   6.515 -0.0889  0.0862 -0.3832
  681MOL0     C89781   2.440   1.055   6.665  0.7212 -0.6825  0.7328
  681MOL0     C89782   2.590   1.032   6.665 -0.3350  1.1394 -1.3994
  681MOL0     C89783   2.673   1.120   6.569 -0.2186  0.2382  1.8029
  681MOL0     O89784   2.636   1.256   6.608  0.1247  0.0902  0.7094
  681MOL0     C89785   2.682   1.369   6.549  0.1651  0.5846  0.7893
  681MOL0     C89786   2.757   1.372   6.426 -0.6632 -0.0949 -0.1087
  681MOL0     C89787   2.781   1.489   6.352 -1.0772  0.8049  0.7073
  681MOL0     C89788   2.745   1.613   6.408 -0.7524 -0.1702 -0.9095
  681MOL0     C89789   2.742   1.732   6.317  0.0869 -0.5636 -0.1415
  681MOL0     O89790   2.672   1.841   6.358 -0.7022 -0.4920  0.5547
  681MOL0     C89791   2.702   1.974   6.314  0.6938  0.1672  0.1709
  681MOL0     C89792   2.825   2.016   6.271  0.5172 -0.6128  0.1437
  681MOL0     C89793   2.846   2.140   6.225  0.0891 -0.4033  0.0976
  681MOL0     C89794   2.744   2.226   6.216  0.8357 -0.3814  1.3359
  681MOL0     O89795   2.754   2.360   6.171  0.1839  0.2560  0.0909
  681MOL0     C89796   2.855   2.396   6.076 -0.6869  0.0415 -0.6448
  681MOL0     C89797   2.827   2.532   6.021  0.0393  0.3060  0.1792
  681MOL0     C89798   2.701   2.529   5.935 -0.5903  0.1806 -0.3119
  681MOL0     C89799   2.683   2.670   5.880 -0.1076  0.3707  0.6242
  681MOL0     C89800   2.558   2.691   5.800 -0.2009  0.6791 -0.8617
  681MOL0     C89801   2.531   2.835   5.769  0.8383 -0.7458  0.6880
  681MOL0     C89802   2.400   2.840   5.694 -0.1516 -1.3533  0.9960
  681MOL0     C89803   2.295   2.912   5.769  0.2041 -0.1512 -0.5448
  681MOL0    Cl89804   2.364   3.077   5.796 -0.0496 -0.1288  0.2206
  681MOL0     C89805   2.612   2.195   6.267 -0.2533 -0.1366  0.7634
  681MOL0     C89806   2.593   2.063   6.320 -1.1159 -0.1580  0.8828
  681MOL0     O89807   2.810   1.727   6.211 -0.0978  0.2144 -1.0268
  681MOL0     C89808   2.672   1.621   6.529  0.1266  0.2459  0.2953
  681MOL0     C89809   2.637   1.500   6.592 -1.0330  0.5228 -0.2109
  681MOL0     N89810   2.146   1.018   6.607 -0.4269  0.0635 -0.6061
  681MOL0     N89811   2.022   1.023   6.564 -0.7679 -0.5565  0.4156
  681MOL0     C89812   1.948   1.545   5.397 -0.8699 -0.2526  0.3356
  681MOL0     C89813   1.855   1.651   5.366  0.2817  0.7016 -0.3684
  681MOL0     C89814   1.473   1.882   5.349  0.4103  0.3177  0.8738
  681MOL0     C89815   1.383   1.874   5.237 -0.0821 -0.6847 -1.2138
  681MOL0     C89816   1.314   1.996   5.215  0.3117 -0.2389 -0.2492
  681MOL0     C89817   1.332   2.115   5.297  0.5172  0.1799 -0.1071
  681MOL0     O89818   1.241   2.219   5.292 -0.0566  0.6449 -0.3874
  681MOL0     C89819   1.149   2.228   5.187  0.7910  0.2137  0.3400
  681MOL0     C89820   1.010   2.169   5.229 -0.7200  0.4585  0.7549
  681MOL0     C89821   0.916   2.155   5.106 -0.4521 -0.8808 -0.6805
  681MOL0     C89822   0.788   2.083   5.151 -1.0976 -0.7980 -0.3591
  681MOL0     C89823   0.810   1.943   5.171  0.7936  1.1274 -0.2050
  681MOL0     C89824   0.823   1.836   5.226 -0.9164  0.1266 -0.3670
  681MOL0     C89825   1.420   2.119   5.400 -0.8366 -1.0752  0.4864
  681MOL0     C89826   1.494   2.006   5.424 -0.7738  0.0889  0.8635
  681MOL0     H89827   1.690   1.661   5.651  2.2008 -1.8863  2.7928
  681MOL0     H89828   1.860   1.483   5.707  0.2386 -0.6242 -1.1855
  681MOL0     H89829   2.105   1.213   5.626  1.2681  0.5794  2.8676
  681MOL0     H89830   1.953   1.273   5.685 -0.8199  0.7114 -2.0355
  681MOL0     H89831   2.064   1.488   5.765  2.6076  2.0427 -1.9846
  681MOL0     H89832   2.214   1.436   5.706  0.7468 -2.3550 -2.2342
  681MOL0     H89833   2.214   1.403   5.943  0.9319 -0.2558  0.1490
  681MOL0     H89834   2.198   1.245   5.869  1.7456  0.9982 -2.1460
  681MOL0     H89835   2.001   1.442   5.982  0.5787  0.1228 -0.6795
  681MOL0     H89836   1.934   1.303   5.898 -2.4622 -0.7894  2.4131
  681MOL0     H89837   2.122   1.297   6.134  0.1516 -1.6093  1.6247
  681MOL0     H89838   2.051   1.154   6.062  0.5108 -0.0624 -0.0015
  681MOL0     H89839   1.825   1.255   6.114  0.6314  3.2808 -1.6054
  681MOL0     H89840   1.896   1.394   6.180  1.4889  0.0605 -0.8398
  681MOL0     H89841   1.991   1.267   6.377  1.5824 -4.6413  0.9783
  681MOL0     H89842   1.816   1.267   6.366  2.3666  3.6528  0.8264
  681MOL0     H89843   1.922   1.031   6.240 -1.5407  3.8917 -1.1672
  681MOL0     H89844   1.812   1.049   6.376  1.6748 -3.0391  1.3422
  681MOL0     H89845   2.207   1.089   6.297  1.8595 -5.4603 -1.9099
  681MOL0     H89846   2.423   1.134   6.458 -1.9311  0.0037 -1.6787
  681MOL0     H89847   2.434   0.957   6.471  1.2050 -0.3612  1.7118
  681MOL0     H89848   2.380   0.989   6.729  0.6438  0.4404  1.8359
  681MOL0     H89849   2.415   1.159   6.688 -0.2017 -0.0161 -2.6520
  681MOL0     H89850   2.623   1.029   6.769 -2.4000  0.8512 -0.7011
  681MOL0     H89851   2.610   0.928   6.640 -2.4665  0.1044  0.8283
  681MOL0     H89852   2.649   1.098   6.464  1.3965  3.1271  0.7309
  681MOL0     H89853   2.781   1.107   6.579 -0.1390  0.0826  0.8236
  681MOL0     H89854   2.779   1.278   6.375 -0.0276 -1.5002  2.5473
  681MOL0     H89855   2.829   1.479   6.255  3.1837 -0.2321  2.6814
  681MOL0     H89856   2.909   1.952   6.294 -0.9296 -1.8174  2.3859
  681MOL0     H89857   2.950   2.156   6.198  0.9556 -2.3397  2.0375
  681MOL0     H89858   2.840   2.326   5.993 -0.5901 -0.7774  0.0229
  681MOL0     H89859   2.959   2.393   6.111 -1.0150 -1.3252  0.2654
  681MOL0     H89860   2.913   2.569   5.964  0.7706 -1.4246  0.0813
  681MOL0     H89861   2.813   2.606   6.100  0.8579 -0.7799  1.3881
  681MOL0     H89862   2.617   2.505   6.000 -1.1214  1.5854 -0.4422
  681MOL0     H89863   2.711   2.449   5.861 -1.8109  0.4300 -0.7662
  681MOL0     H89864   2.673   2.743   5.960  0.4634  2.2591 -0.9499
  681MOL0     H89865   2.767   2.696   5.815 -1.1355  0.4604 -0.7087
  681MOL0     H89866   2.475   2.656   5.863 -2.8011  1.6501 -3.5202
  681MOL0     H89867   2.569   2.629   5.710  2.5277  1.1133 -0.9088
  681MOL0     H89868   2.620   2.864   5.713  1.0574 -0.8690  0.9675
  681MOL0     H89869   2.530   2.889   5.865  0.8965  0.8018 -0.1575
  681MOL0     H89870   2.423   2.887   5.598  4.2645 -2.2241  1.3935
  681MOL0     H89871   2.368   2.738   5.670  1.0924 -1.6070  0.3246
  681MOL0     H89872   2.281   2.864   5.866 -1.4805 -1.4401 -1.3738
  681MOL0     H89873   2.199   2.927   5.720  1.6591  0.6318 -3.3999
  681MOL0     H89874   2.549   2.280   6.244  1.9869  1.2409 -0.7690
  681MOL0     H89875   2.500   2.015   6.350 -0.2013 -2.4337  0.2127
  681MOL0     H89876   2.615   1.707   6.565  0.1616 -0.2675  1.6315
  681MOL0     H89877   2.587   1.497   6.688  0.1742 -0.1891  0.4337
  681MOL0     H89878   2.011   1.520   5.313 -3.1384 -0.2002 -1.4698
  681MOL0     H89879   1.852   1.698   5.268  1.0888 -0.4553 -0.9826
  681MOL0     H89880   1.352   1.777   5.200 -0.7252 -1.2664  0.6944
  681MOL0     H89881   1.232   1.976   5.145  1.4547 -1.6995 -1.2319
  681MOL0     H89882   1.179   2.181   5.092  2.0524 -0.1317  0.8916
  681MOL0     H89883   1.134   2.334   5.165 -1.9832 -0.7524 -3.5670
  681MOL0     H89884   1.030   2.068   5.265 -0.8118  0.3123  0.3949
  681MOL0     H89885   0.961   2.232   5.305 -1.7467 -1.9034  2.1652
  681MOL0     H89886   0.960   2.094   5.026 -2.6817  0.2407 -2.8940
  681MOL0     H89887   0.904   2.256   5.065  0.4657 -0.5008 -0.0510
  681MOL0     H89888   0.746   2.144   5.232  2.2615  2.4132 -0.7816
  681MOL0     H89889   0.733   2.092   5.058 -1.6732  2.0700  0.1645
  681MOL0     H89890   0.838   1.745   5.280 -2.1622  0.7806  1.1575
  681MOL0     H89891   1.429   2.207   5.463  1.1276 -2.2414  1.9322
  681MOL0     H89892   1.560   1.998   5.509 -0.9614  1.2719  1.1433
  682MOL0     O89893  10.125   3.950   2.545 -0.5164  0.3454 -0.1603
  682MOL0     C89894  10.141   4.030   2.641 -0.7903 -0.0277  1.1891
  682MOL0     O89895  10.206   4.010   2.760  0.5168  0.0060 -0.3063
  682MOL0     C89896  10.251   3.898   2.810  0.7730 -0.3170 -0.0281
  682MOL0     C89897  10.318   3.792   2.738  1.3899 -0.3402  0.0391
  682MOL0     C89898  10.365   3.680   2.801 -0.2099  0.7179 -0.6035
  682MOL0     C89899  10.350   3.652   2.942  0.5437 -0.1839  0.7167
  682MOL0     O89900  10.407   3.542   2.999  0.3821  0.1684  0.5483
  682MOL0     C89901  10.379   3.413   2.940  0.5420  0.8665  0.5024
  682MOL0     C89902  10.498   3.324   2.976  0.7878  0.5926 -0.2047
  682MOL0     C89903  10.450   3.186   2.946  0.8801  1.2932  0.6393
  682MOL0     C89904  10.564   3.088   2.963 -0.5626 -1.4829  0.5137
  682MOL0     C89905  10.550   2.950   2.896 -1.0132  1.0162  0.3442
  682MOL0     C89906  10.576   2.962   2.743  0.0203  0.8887  0.2550
  682MOL0     C89907  10.565   2.817   2.676 -0.2802  0.9646 -0.1854
  682MOL0     C89908  10.417   2.761   2.668  0.0642 -0.9430 -0.1672
  682MOL0     N89909  10.321   2.854   2.608 -0.8999 -0.7687  0.3377
  682MOL0     C89910  10.240   2.950   2.669 -0.0426  0.4218  0.7400
  682MOL0     C89911  10.179   3.011   2.567  1.3519 -0.0473 -0.5554
  682MOL0     C89912  10.093   3.134   2.590 -0.3538  0.4046 -0.2677
  682MOL0     C89913   9.978   3.140   2.492  0.0884  0.1407  0.4858
  682MOL0     C89914   9.869   3.044   2.541  0.6381 -0.1610  0.1031
  682MOL0     C89915   9.745   3.079   2.463 -0.3295  0.4659 -0.6316
  682MOL0     O89916   9.665   3.157   2.542  0.3313 -0.2520 -0.5467
  682MOL0     C89917   9.535   3.176   2.512  0.3886  0.3269  0.0634
  682MOL0     C89918   9.447   3.219   2.614 -0.9891 -0.5710  0.2890
  682MOL0     C89919   9.317   3.234   2.583  0.0137 -0.3858 -0.3857
  682MOL0     C89920   9.268   3.230   2.454  0.1150  0.0031  0.7314
  682MOL0     C89921   9.118   3.231   2.417  0.0642  0.0710 -0.5242
  682MOL0     O89922   9.098   3.212   2.290 -0.3321 -0.1446 -0.5814
  682MOL0     C89923   8.969   3.202   2.255 -0.4982 -0.0309 -0.2920
  682MOL0     C89924   8.929   3.309   2.176  0.4504  0.1720 -0.2960
  682MOL0     C89925   8.795   3.304   2.122 -0.8143 -0.0627 -0.2067
  682MOL0     C89926   8.709   3.191   2.149 -0.2766  0.1920 -0.6009
  682MOL0     O89927   8.585   3.180   2.100  0.3322  0.1009  0.0571
  682MOL0     C89928   8.486   3.092   2.161  0.1013  1.5855 -0.8616
  682MOL0     C89929   8.344   3.124   2.111 -1.0193 -0.0587  0.2501
  682MOL0     C89930   8.343   3.172   1.962  0.3999  0.7750  0.9932
  682MOL0     C89931   8.196   3.166   1.913  0.7241  0.3714 -0.4454
  682MOL0     C89932   8.190   3.218   1.770 -0.2937 -0.0032  0.0605
  682MOL0     C89933   8.226   3.369   1.745 -0.4701  0.0473  0.0116
  682MOL0     C89934   8.204   3.384   1.594  0.0475  0.8623  0.2526
  682MOL0     C89935   8.184   3.528   1.553  0.5188  0.3395  0.1514
  682MOL0    Cl89936   8.179   3.531   1.367  0.2293  0.2084 -0.6689
  682MOL0     C89937   8.752   3.088   2.240  0.2522  0.0604  0.3023
  682MOL0     C89938   8.885   3.096   2.288  1.0195 -0.7269  0.9122
  682MOL0     O89939   9.040   3.236   2.509 -0.4834  0.0176 -0.2680
  682MOL0     C89940   9.361   3.208   2.355  0.5040 -0.5216  1.1220
  682MOL0     C89941   9.490   3.168   2.379  0.6717 -0.0044 -0.0593
  682MOL0     N89942  10.216   2.950   2.450  0.2573 -0.0803 -0.1088
  682MOL0     N89943  10.302   2.861   2.473 -1.0692  0.6954  0.4114
  682MOL0     C89944  10.284   3.758   3.009  0.3819 -0.4484  0.8663
  682MOL0     C89945  10.238   3.872   2.956  0.4181 -0.4145 -0.2876
  682MOL0     C89946  10.094   4.164   2.613  0.3039 -0.9262 -1.6833
  682MOL0     C89947  10.020   4.193   2.496  0.8380  0.1113 -0.0367
  682MOL0     C89948   9.946   4.317   2.499 -0.7559 -0.0562 -0.2034
  682MOL0     C89949   9.958   4.425   2.594 -0.1341 -0.7037 -0.2915
  682MOL0     O89950   9.893   4.546   2.570  0.0539  0.0657 -0.6587
  682MOL0     C89951   9.913   4.648   2.665  0.3467 -1.3311  0.5169
  682MOL0     C89952   9.839   4.774   2.616  0.6384 -0.0265  0.2454
  682MOL0     C89953   9.685   4.748   2.627 -0.3539 -0.4201  0.4441
  682MOL0     C89954   9.615   4.884   2.607 -0.2901  0.1308 -0.2652
  682MOL0     C89955   9.474   4.856   2.582 -0.4200  0.4382 -0.3705
  682MOL0     C89956   9.356   4.841   2.570  0.2749  0.1288  0.2069
  682MOL0     C89957  10.046   4.389   2.701  0.2221  0.4676  0.1786
  682MOL0     C89958  10.124   4.269   2.703  0.5221 -0.3730 -0.1675
  682MOL0     H89959  10.319   3.792   2.630 -0.2736  0.6458 -0.0018
  682MOL0     H89960  10.412   3.605   2.738 -0.3317  1.4714 -1.6147
  682MOL0     H89961  10.361   3.413   2.832  0.5519 -1.6510  0.4238
  682MOL0     H89962  10.293   3.368   2.990 -0.4776  2.4581  0.2540
  682MOL0     H89963  10.526   3.321   3.082 -1.3212 -3.4578  0.4298
  682MOL0     H89964  10.586   3.350   2.916  2.1044 -1.7505  0.5836
  682MOL0     H89965  10.416   3.177   2.843  1.4052  1.6629  0.4305
  682MOL0     H89966  10.361   3.157   3.003 -1.9871  1.7743 -3.2057
  682MOL0     H89967  10.659   3.128   2.927 -0.5697 -2.6610 -0.8618
  682MOL0     H89968  10.589   3.075   3.069 -1.7614  0.5134  1.1107
  682MOL0     H89969  10.450   2.916   2.926 -1.0975  0.6593 -0.3288
  682MOL0     H89970  10.622   2.885   2.947 -0.9862  1.9578  1.5622
  682MOL0     H89971  10.679   2.999   2.740  0.1466  0.4678 -1.3191
  682MOL0     H89972  10.506   3.038   2.708  0.6738  1.2230 -0.3711
  682MOL0     H89973  10.605   2.815   2.575 -0.5654 -0.9446 -0.3051
  682MOL0     H89974  10.621   2.747   2.740  0.9328  3.4854  1.6855
  682MOL0     H89975  10.368   2.734   2.762  2.8895  3.1663  2.8802
  682MOL0     H89976  10.423   2.671   2.607  1.0940 -0.7820 -0.3265
  682MOL0     H89977  10.220   2.953   2.776  0.5017 -1.6425  0.9253
  682MOL0     H89978  10.158   3.219   2.571  0.3033  0.2121  0.9470
  682MOL0     H89979  10.057   3.136   2.694 -5.2609 -1.8501 -1.6131
  682MOL0     H89980  10.016   3.121   2.391 -1.2418 -1.6190  0.2709
  682MOL0     H89981   9.947   3.245   2.496  3.1473  1.2798 -1.4191
  682MOL0     H89982   9.900   2.945   2.506  1.3966  1.1758 -3.4651
  682MOL0     H89983   9.855   3.049   2.649 -1.6597  2.6500 -0.2128
  682MOL0     H89984   9.684   2.989   2.451  0.5818 -0.3969  0.8387
  682MOL0     H89985   9.770   3.121   2.365 -1.2946 -1.2507 -1.6717
  682MOL0     H89986   9.486   3.239   2.713  1.0659  1.3879 -0.8125
  682MOL0     H89987   9.239   3.253   2.657  0.0551 -1.5087 -0.0362
  682MOL0     H89988   8.993   3.392   2.151  1.5261 -1.0645 -1.8670
  682MOL0     H89989   8.756   3.390   2.068  0.2438  0.5437 -0.0336
  682MOL0     H89990   8.486   3.108   2.269  3.4155  0.9304 -0.6604
  682MOL0     H89991   8.523   2.993   2.133 -1.1355  0.5976  0.8096
  682MOL0     H89992   8.300   3.206   2.168  1.0442  1.2678  0.0348
  682MOL0     H89993   8.284   3.032   2.107 -2.7932  1.0017  1.4266
  682MOL0     H89994   8.405   3.113   1.895 -0.7050  1.3449 -0.5930
  682MOL0     H89995   8.387   3.272   1.959  1.2477  0.3955  0.4700
  682MOL0     H89996   8.163   3.062   1.900 -0.6661  1.1257 -4.4517
  682MOL0     H89997   8.130   3.223   1.979  1.6845  0.0467  0.8343
  682MOL0     H89998   8.091   3.212   1.724 -0.1980  1.1178 -0.3339
  682MOL0     H89999   8.260   3.163   1.705  1.6124  1.6572  0.5852
  682MOL0     H90000   8.331   3.390   1.766 -1.3056  4.9198  0.5539
  682MOL0     H90001   8.163   3.438   1.803  0.6154 -0.0895  1.4175
  682MOL0     H90002   8.290   3.344   1.539 -0.7959  1.2732 -1.4579
  682MOL0     H90003   8.112   3.332   1.565  0.9358 -2.5719  2.8479
  682MOL0     H90004   8.262   3.593   1.592  0.8212 -0.0833  0.2610
  682MOL0     H90005   8.087   3.558   1.595 -1.4849 -2.1114 -2.3024
  682MOL0     H90006   8.694   2.997   2.253 -2.7062  1.9784  1.6559
  682MOL0     H90007   8.935   3.023   2.351  1.8078  0.3365  1.5507
  682MOL0     H90008   9.339   3.200   2.249  0.8517 -2.0032  1.1465
  682MOL0     H90009   9.547   3.143   2.290 -2.9990 -1.7012 -2.1665
  682MOL0     H90010  10.279   3.750   3.117  0.4746  0.4865  0.9493
  682MOL0     H90011  10.187   3.933   3.030 -1.3758 -2.6302  0.4315
  682MOL0     H90012  10.017   4.123   2.413 -1.8705  2.3327 -2.0241
  682MOL0     H90013   9.896   4.338   2.405 -0.0941  1.0035 -0.3328
  682MOL0     H90014  10.019   4.676   2.660 -0.1120  0.7302  1.3031
  682MOL0     H90015   9.886   4.618   2.766  1.2721 -2.6539  0.3944
  682MOL0     H90016   9.865   4.847   2.694  0.6558  0.1874  0.0421
  682MOL0     H90017   9.880   4.807   2.520  2.7153 -0.0746  1.0699
  682MOL0     H90018   9.652   4.706   2.722  1.2717 -1.1291  0.7391
  682MOL0     H90019   9.655   4.684   2.543 -0.4604 -0.4663  0.5173
  682MOL0     H90020   9.638   4.962   2.680 -3.4717 -0.7856  1.9362
  682MOL0     H90021   9.665   4.926   2.520  1.4215  1.2318  1.1628
  682MOL0     H90022   9.252   4.816   2.576 -0.0014  0.8139 -1.2717
  682MOL0     H90023  10.069   4.467   2.773 -0.0079  0.1068  0.6524
  682MOL0     H90024  10.201   4.245   2.775  1.2226 -1.9277 -1.3657
  683MOL0     O90025  10.007   7.332   3.012 -0.2041 -0.3449 -0.2935
  683MOL0     C90026  10.105   7.354   3.085  0.0924 -0.8331  0.9224
  683MOL0     O90027  10.120   7.440   3.190 -0.5640 -0.6684 -1.3536
  683MOL0     C90028  10.022   7.532   3.208 -0.3066  0.1962  0.3270
  683MOL0     C90029   9.983   7.552   3.339 -0.0925 -0.0057 -0.6486
  683MOL0     C90030   9.878   7.637   3.368  0.4612  0.6342 -0.0774
  683MOL0     C90031   9.794   7.697   3.271  0.8048  0.5068 -0.7910
  683MOL0     O90032   9.700   7.786   3.314 -0.4363 -0.0325  0.5312
  683MOL0     C90033   9.634   7.874   3.216 -0.5326  0.2496 -0.0451
  683MOL0     C90034   9.515   7.957   3.267  0.3940  0.3653  0.1099
  683MOL0     C90035   9.396   7.858   3.261  0.1973 -0.0703 -0.4631
  683MOL0     C90036   9.351   7.827   3.116 -0.8481 -0.5721  0.4591
  683MOL0     C90037   9.372   7.937   3.007 -0.3595 -0.6556 -0.0500
  683MOL0     C90038   9.284   7.897   2.892  0.0181 -0.1582 -0.4236
  683MOL0     C90039   9.272   7.994   2.774 -0.3785  1.0395 -0.4015
  683MOL0     C90040   9.398   8.017   2.686  0.1136 -0.0187  0.6135
  683MOL0     N90041   9.385   8.143   2.603 -0.5822  0.4381  0.3608
  683MOL0     C90042   9.271   8.203   2.547 -0.5114 -0.1608  0.3975
  683MOL0     C90043   9.303   8.332   2.521 -0.3340  0.5565 -0.6303
  683MOL0     C90044   9.224   8.440   2.457  0.3041 -0.7445  0.3946
  683MOL0     C90045   9.112   8.387   2.366 -0.2089 -0.5723  0.2066
  683MOL0     C90046   9.045   8.491   2.283  0.5554 -0.6026  0.0109
  683MOL0     C90047   8.938   8.419   2.201  0.0288 -0.0689 -1.1189
  683MOL0     O90048   8.843   8.511   2.134  0.2218  0.2820 -0.6341
  683MOL0     C90049   8.741   8.454   2.071 -0.6049 -0.3905 -0.1715
  683MOL0     C90050   8.626   8.430   2.147  0.3650 -0.7130 -0.8728
  683MOL0     C90051   8.515   8.368   2.092  0.4002  0.4970 -0.1510
  683MOL0     C90052   8.510   8.315   1.963 -0.3572 -0.2925 -0.6274
  683MOL0     C90053   8.392   8.243   1.922  0.0609 -0.7306  0.2436
  683MOL0     O90054   8.404   8.192   1.789  0.5487  0.1220  0.1508
  683MOL0     C90055   8.297   8.128   1.729 -0.2065 -0.3158 -0.9522
  683MOL0     C90056   8.322   8.037   1.627 -0.2229  0.3449  0.0768
  683MOL0     C90057   8.210   8.000   1.552  0.1415  0.1934  0.0585
  683MOL0     C90058   8.085   8.049   1.559  0.5540  0.5542 -0.2072
  683MOL0     O90059   7.979   8.024   1.474 -0.3673  0.2064 -0.3439
  683MOL0     C90060   8.029   8.018   1.341  0.2806  0.2352  1.3950
  683MOL0     C90061   7.919   8.055   1.251  0.5869 -0.5996 -0.3560
  683MOL0     C90062   7.826   7.951   1.199  0.3996 -0.3553  1.0452
  683MOL0     C90063   7.747   7.877   1.305  0.1270 -0.1942  0.6758
  683MOL0     C90064   7.625   7.795   1.248  1.0605  0.4791 -0.4690
  683MOL0     C90065   7.514   7.754   1.349  0.4621  0.4858 -0.7801
  683MOL0     C90066   7.428   7.636   1.286  0.6306 -0.3821 -0.1773
  683MOL0     C90067   7.370   7.668   1.146 -0.4951  0.0054 -0.5805
  683MOL0    Cl90068   7.295   7.832   1.130  0.1830 -0.2184 -0.2949
  683MOL0     C90069   8.059   8.131   1.661  0.7901  0.2391  0.4717
  683MOL0     C90070   8.167   8.178   1.741 -0.4127 -0.0337  0.5538
  683MOL0     O90071   8.306   8.219   2.005 -0.2440  0.1645  0.2311
  683MOL0     C90072   8.624   8.340   1.887  0.0947  0.1710 -0.2106
  683MOL0     C90073   8.738   8.404   1.938 -0.1635 -0.1418  0.5178
  683MOL0     N90074   9.433   8.349   2.561  0.3796  0.4242  1.3143
  683MOL0     N90075   9.476   8.241   2.619  0.2110  0.8650  0.2806
  683MOL0     C90076   9.833   7.672   3.134 -0.1626 -0.3307 -0.2843
  683MOL0     C90077   9.947   7.596   3.109 -1.0844 -0.6058 -0.4522
  683MOL0     C90078  10.232   7.289   3.047 -0.1130  0.0169  0.5631
  683MOL0     C90079  10.351   7.359   3.035  0.5071 -1.0255 -0.4540
  683MOL0     C90080  10.477   7.299   3.000  0.4022  0.2213 -0.1553
  683MOL0     C90081  10.484   7.156   2.988  0.7715  0.2677  0.4721
  683MOL0     O90082  10.592   7.075   2.957 -0.1459  0.2588  0.3284
  683MOL0     C90083  10.724   7.136   2.947 -0.4023  1.4436  0.1787
  683MOL0     C90084  10.828   7.016   2.991 -0.8177 -0.2183  0.6987
  683MOL0     C90085  10.832   6.999   3.138  1.0656  0.4871  1.2642
  683MOL0     C90086  10.973   6.960   3.193  0.0829 -1.0388  0.3216
  683MOL0     C90087  11.077   7.055   3.153  0.3841 -0.5037  0.4110
  683MOL0     C90088  11.166   7.136   3.129 -0.3091  0.0184 -0.2693
  683MOL0     C90089  10.358   7.093   2.994 -0.5275 -0.7728  0.3112
  683MOL0     C90090  10.236   7.156   3.019 -0.4649 -0.4427 -0.1345
  683MOL0     H90091  10.050   7.507   3.412 -0.2438 -1.6614 -1.4914
  683MOL0     H90092   9.873   7.648   3.475  3.9811  0.6161  0.1852
  683MOL0     H90093   9.601   7.807   3.136 -1.6119 -0.1714  0.7280
  683MOL0     H90094   9.709   7.948   3.187 -0.3252  1.0455  2.3221
  683MOL0     H90095   9.494   8.046   3.207 -2.4433  0.0725  0.5386
  683MOL0     H90096   9.544   7.987   3.368  1.1127  2.8225 -0.7673
  683MOL0     H90097   9.318   7.892   3.329  0.4791  1.0246 -0.6581
  683MOL0     H90098   9.433   7.761   3.293  0.5756 -0.0412 -0.8028
  683MOL0     H90099   9.406   7.737   3.088 -2.7844 -2.0496  1.1429
  683MOL0     H90100   9.245   7.800   3.109 -1.0072 -0.3029  1.5833
  683MOL0     H90101   9.473   7.949   2.966 -0.8573 -2.2214 -1.8956
  683MOL0     H90102   9.337   8.034   3.041 -1.6088 -1.2720  0.4977
  683MOL0     H90103   9.180   7.878   2.922 -0.0555 -2.4470 -1.8619
  683MOL0     H90104   9.316   7.796   2.864 -1.6120 -1.0899  0.8372
  683MOL0     H90105   9.186   7.949   2.722 -0.9506  0.5615  0.8967
  683MOL0     H90106   9.248   8.087   2.825  0.7061  1.8106 -1.2536
  683MOL0     H90107   9.406   7.923   2.631  0.4854 -0.5533  1.5653
  683MOL0     H90108   9.491   8.036   2.741  0.2915  2.2185 -0.3259
  683MOL0     H90109   9.180   8.146   2.530  1.1232 -2.3034 -1.9995
  683MOL0     H90110   9.281   8.513   2.399 -3.3045  1.3236 -0.8693
  683MOL0     H90111   9.176   8.503   2.532  1.3046  0.8491 -0.2624
  683MOL0     H90112   9.046   8.332   2.434  0.0120  0.4342  1.2533
  683MOL0     H90113   9.154   8.316   2.294  2.0453 -1.6309  2.4274
  683MOL0     H90114   8.987   8.553   2.352  3.0646  1.5507  0.3455
  683MOL0     H90115   9.115   8.554   2.228 -1.7539  4.5191  2.2314
  683MOL0     H90116   8.874   8.355   2.262 -0.8036  0.5789 -1.2971
  683MOL0     H90117   8.986   8.349   2.131 -1.2030 -3.0909  0.8622
  683MOL0     H90118   8.624   8.440   2.255  3.2770  0.3683 -0.8342
  683MOL0     H90119   8.432   8.345   2.157 -0.4132  2.6872 -0.3443
  683MOL0     H90120   8.421   8.000   1.600 -0.5310  0.0862 -0.7511
  683MOL0     H90121   8.228   7.937   1.465  2.5414  3.9892 -2.5103
  683MOL0     H90122   8.063   7.915   1.324  1.5703  0.6131  1.5751
  683MOL0     H90123   8.121   8.076   1.325  0.5667 -0.6820 -0.6311
  683MOL0     H90124   7.960   8.098   1.159 -1.6146 -0.5289 -1.3565
  683MOL0     H90125   7.862   8.141   1.288 -0.7024 -0.1747 -3.0996
  683MOL0     H90126   7.877   7.869   1.149  1.4504 -0.7351  2.6617
  683MOL0     H90127   7.761   8.003   1.127  1.7725 -0.0984 -0.0399
  683MOL0     H90128   7.816   7.801   1.343  2.3635  1.4774  0.2344
  683MOL0     H90129   7.712   7.946   1.382 -4.4238 -1.2091 -0.1908
  683MOL0     H90130   7.669   7.701   1.214  0.4616 -0.0548  0.2113
  683MOL0     H90131   7.587   7.843   1.158 -1.3573 -0.9119 -0.2666
  683MOL0     H90132   7.448   7.837   1.374 -0.1171  0.2336 -1.4383
  683MOL0     H90133   7.557   7.721   1.444  0.0952  2.1605  0.0133
  683MOL0     H90134   7.485   7.543   1.283 -2.1299 -2.1477 -1.4483
  683MOL0     H90135   7.350   7.618   1.361  0.4004 -0.0454 -0.3318
  683MOL0     H90136   7.298   7.595   1.107 -1.0033  0.3236 -0.2563
  683MOL0     H90137   7.452   7.644   1.077  1.5112 -1.0746  2.0252
  683MOL0     H90138   7.956   8.156   1.682  1.5244  3.5145  0.8147
  683MOL0     H90139   8.143   8.262   1.806 -0.7059  0.0746  0.3085
  683MOL0     H90140   8.641   8.308   1.785  2.3743 -0.8378  0.4113
  683MOL0     H90141   8.828   8.422   1.880 -0.3570 -2.0656 -0.4528
  683MOL0     H90142   9.790   7.735   3.057  1.3553 -0.4471 -1.2864
  683MOL0     H90143   9.972   7.588   3.004  0.9909 -2.7899  0.1213
  683MOL0     H90144  10.351   7.460   3.075  1.3692 -0.5453 -1.5888
  683MOL0     H90145  10.566   7.362   3.003 -0.8087  1.9854  0.5982
  683MOL0     H90146  10.737   7.226   3.008 -3.1354  1.8250  0.3081
  683MOL0     H90147  10.739   7.164   2.842  1.1051  2.0782  0.5406
  683MOL0     H90148  10.794   6.926   2.940 -0.4059  0.0135  0.0078
  683MOL0     H90149  10.925   7.036   2.944 -0.7582  3.0472  1.9259
  683MOL0     H90150  10.755   6.927   3.168 -1.4905  3.3007  2.0573
  683MOL0     H90151  10.818   7.099   3.180 -1.3876  1.4080 -1.3862
  683MOL0     H90152  10.964   6.949   3.302  2.8451  3.9753  1.4040
  683MOL0     H90153  11.005   6.866   3.148  1.7055 -0.9074  1.0854
  683MOL0     H90154  11.247   7.204   3.114  1.1354 -1.8813 -1.5730
  683MOL0     H90155  10.359   6.985   2.977  1.5589 -0.7147 -0.2818
  683MOL0     H90156  10.150   7.090   3.025 -1.4565  0.8432  0.2595
  684MOL0     O90157   9.423   1.927   1.475 -0.4383  0.7993  0.4267
  684MOL0     C90158   9.375   1.855   1.384 -1.4089  0.2787 -0.9454
  684MOL0     O90159   9.445   1.756   1.321 -0.3495  0.2187 -0.4480
  684MOL0     C90160   9.570   1.734   1.378 -0.2195  0.5478  0.6494
  684MOL0     C90161   9.676   1.819   1.354 -0.1745  0.2240 -0.3548
  684MOL0     C90162   9.800   1.796   1.414 -0.0926  0.1042 -0.7601
  684MOL0     C90163   9.825   1.676   1.488 -0.5941 -0.8492  0.6627
  684MOL0     O90164   9.950   1.671   1.551 -0.7911  0.2067 -0.1503
  684MOL0     C90165   9.994   1.540   1.569 -0.2168  0.5648 -0.1240
  684MOL0     C90166   9.981   1.515   1.723 -0.0844  0.1000  0.1955
  684MOL0     C90167  10.108   1.555   1.793  0.6370 -0.2921 -1.4332
  684MOL0     C90168  10.120   1.512   1.942 -0.1644  0.7149 -0.5138
  684MOL0     C90169  10.264   1.530   1.998 -0.5104 -0.0408  0.3935
  684MOL0     C90170  10.276   1.537   2.143  0.2893  0.2324  0.0236
  684MOL0     C90171  10.419   1.587   2.179 -0.7367 -0.0526 -0.8888
  684MOL0     C90172  10.517   1.473   2.155 -0.5320  0.6157 -0.0826
  684MOL0     N90173  10.656   1.520   2.140  0.1745  0.2408 -0.8506
  684MOL0     C90174  10.713   1.536   2.022 -0.2564  0.1294  0.4381
  684MOL0     C90175  10.827   1.604   2.051  0.8700 -0.5379 -0.4714
  684MOL0     C90176  10.915   1.676   1.954 -0.2764 -0.1290  0.7614
  684MOL0     C90177  10.855   1.802   1.883  0.2968 -1.5089  0.2000
  684MOL0     C90178  10.796   1.896   1.981  0.5094 -0.0234 -0.4137
  684MOL0     C90179  10.734   2.012   1.914  0.9644 -0.5476  0.2714
  684MOL0     O90180  10.683   2.111   2.003  0.8712 -0.2759 -0.0442
  684MOL0     C90181  10.556   2.111   2.059  0.2665  0.1213  0.1226
  684MOL0     C90182  10.514   2.212   2.150 -0.3362  0.3545  0.3229
  684MOL0     C90183  10.381   2.208   2.197 -0.2545  0.4330  0.6724
  684MOL0     C90184  10.290   2.098   2.170  0.4029 -0.8337  0.8730
  684MOL0     C90185  10.139   2.092   2.217 -0.1459  0.1743 -0.3134
  684MOL0     O90186  10.097   2.179   2.313 -0.0769  0.6164  0.3297
  684MOL0     C90187   9.970   2.172   2.356  0.1793  0.4293 -0.0965
  684MOL0     C90188   9.863   2.201   2.270  0.4567 -0.7278  0.0672
  684MOL0     C90189   9.729   2.187   2.315  0.5965  0.8389 -0.5687
  684MOL0     C90190   9.706   2.174   2.452 -0.9805 -0.1991 -0.7499
  684MOL0     O90191   9.582   2.190   2.524 -0.0174 -0.0708 -0.2081
  684MOL0     C90192   9.460   2.163   2.462 -0.2892 -0.3436  0.6221
  684MOL0     C90193   9.413   2.021   2.465  0.2749 -0.1318  0.0979
  684MOL0     C90194   9.516   1.926   2.404  0.8054  0.1560 -1.0416
  684MOL0     C90195   9.469   1.786   2.420  0.7627  0.6029 -0.5943
  684MOL0     C90196   9.595   1.693   2.407 -0.3411 -0.3357  0.5139
  684MOL0     C90197   9.556   1.552   2.366 -0.5643  0.0570 -0.6369
  684MOL0     C90198   9.657   1.449   2.381 -1.0453  0.4526 -0.1137
  684MOL0     C90199   9.746   1.449   2.259 -0.1311 -0.2808 -0.5966
  684MOL0    Cl90200   9.873   1.568   2.275  0.0352 -0.2844 -0.2301
  684MOL0     C90201   9.815   2.151   2.537 -0.2959 -0.5548 -0.5193
  684MOL0     C90202   9.948   2.141   2.497  0.9478 -0.0169  0.3479
  684MOL0     O90203  10.082   1.997   2.175 -0.0505 -0.7602 -0.2348
  684MOL0     C90204  10.341   1.987   2.094 -0.1053 -0.4333  0.1102
  684MOL0     C90205  10.469   2.004   2.040 -0.0656  0.1379  0.3028
  684MOL0     N90206  10.847   1.607   2.185 -0.1579  0.6942  1.0225
  684MOL0     N90207  10.739   1.569   2.243  0.4590  0.3979 -0.4299
  684MOL0     C90208   9.724   1.585   1.504  0.5902  0.9924  0.1788
  684MOL0     C90209   9.592   1.611   1.447 -0.0148  0.1993  0.7492
  684MOL0     C90210   9.244   1.883   1.328  0.2449 -0.4286  0.0322
  684MOL0     C90211   9.167   1.795   1.247 -0.0697 -1.1127 -0.2691
  684MOL0     C90212   9.046   1.834   1.203 -0.7891  0.5570 -0.0622
  684MOL0     C90213   8.989   1.959   1.233 -0.7940  0.2417 -0.3171
  684MOL0     O90214   8.874   1.992   1.165  0.1448  0.3162 -0.1584
  684MOL0     C90215   8.855   2.130   1.130  0.4575  1.3084 -1.1131
  684MOL0     C90216   8.743   2.133   1.024  0.7303  0.2812  0.2560
  684MOL0     C90217   8.605   2.113   1.071  0.1720 -0.2943 -0.2679
  684MOL0     C90218   8.579   1.971   1.132 -0.2748  0.2607 -0.1612
  684MOL0     C90219   8.433   1.923   1.153  0.6213  0.0012  0.3452
  684MOL0     C90220   8.317   1.875   1.158  0.4629  0.8138 -0.6799
  684MOL0     C90221   9.064   2.060   1.303 -0.0050  0.2447  1.1891
  684MOL0     C90222   9.192   2.012   1.351 -0.2511  0.8986 -0.3664
  684MOL0     H90223   9.671   1.902   1.284  0.4345  1.5651  1.1163
  684MOL0     H90224   9.883   1.866   1.399 -0.2435  0.8238  1.4090
  684MOL0     H90225  10.100   1.528   1.547 -0.4721 -1.1244 -0.5598
  684MOL0     H90226   9.936   1.475   1.503 -2.3613  3.1015 -0.9560
  684MOL0     H90227   9.963   1.408   1.739 -3.3054  0.6378  0.9050
  684MOL0     H90228   9.887   1.552   1.764 -0.9621 -2.4532  0.7265
  684MOL0     H90229  10.137   1.661   1.796  3.7092 -1.0603 -0.7709
  684MOL0     H90230  10.185   1.498   1.740  1.3073 -1.4395  0.6356
  684MOL0     H90231  10.055   1.579   1.999 -2.0795 -1.3431 -0.1554
  684MOL0     H90232  10.081   1.411   1.957 -3.2607  1.6703 -1.5257
  684MOL0     H90233  10.298   1.621   1.949  1.5854 -0.7006  0.5046
  684MOL0     H90234  10.330   1.451   1.959  1.8125  2.0903 -0.3082
  684MOL0     H90235  10.245   1.440   2.181 -0.6315  0.2707 -0.5903
  684MOL0     H90236  10.216   1.620   2.182  2.2099  1.2069  1.0523
  684MOL0     H90237  10.447   1.681   2.130 -2.9619  0.7943 -0.6591
  684MOL0     H90238  10.413   1.616   2.284 -2.6017  0.2747 -1.0540
  684MOL0     H90239  10.492   1.405   2.073 -1.3076 -0.0099  0.6599
  684MOL0     H90240  10.524   1.408   2.242  2.1321  0.2222 -0.5148
  684MOL0     H90241  10.673   1.519   1.922  1.4194  0.3087 -0.2925
  684MOL0     H90242  10.938   1.613   1.867  0.5298 -0.5680  1.2825
  684MOL0     H90243  11.004   1.708   2.008 -0.9516  2.9844  0.2016
  684MOL0     H90244  10.777   1.769   1.815 -1.0277 -1.3070  1.5546
  684MOL0     H90245  10.927   1.851   1.818  0.6370 -1.2055  0.7930
  684MOL0     H90246  10.718   1.838   2.031  1.1935 -0.2184  0.4524
  684MOL0     H90247  10.874   1.921   2.054 -0.2582  0.2062  0.3482
  684MOL0     H90248  10.656   1.979   1.845  4.4829 -2.4959 -3.1531
  684MOL0     H90249  10.813   2.064   1.861  2.9930 -0.9400  2.7153
  684MOL0     H90250  10.588   2.289   2.169  2.9606 -2.2512 -0.9215
  684MOL0     H90251  10.345   2.295   2.252 -2.0144  1.1946 -1.5323
  684MOL0     H90252   9.882   2.240   2.171 -0.0942  0.7107  0.5021
  684MOL0     H90253   9.645   2.208   2.250  0.3827  2.1990  0.1026
  684MOL0     H90254   9.469   2.192   2.357  1.4418  0.3920  0.9455
  684MOL0     H90255   9.379   2.227   2.498 -2.0284 -1.5250 -0.9766
  684MOL0     H90256   9.312   2.005   2.427 -1.1345 -2.4743  4.0858
  684MOL0     H90257   9.405   1.987   2.569 -2.0465 -6.3752 -1.6204
  684MOL0     H90258   9.608   1.942   2.460 -0.5389  1.2472  0.9474
  684MOL0     H90259   9.514   1.955   2.298 -2.4810  3.2477 -0.3153
  684MOL0     H90260   9.415   1.765   2.513  0.2877 -1.3649 -1.2698
  684MOL0     H90261   9.404   1.768   2.334 -0.4481  2.9490 -0.2483
  684MOL0     H90262   9.643   1.686   2.505 -0.0269 -0.1391  0.3770
  684MOL0     H90263   9.674   1.736   2.345  1.3935 -0.9709  2.1785
  684MOL0     H90264   9.503   1.561   2.270 -0.1118  4.0580 -0.7155
  684MOL0     H90265   9.480   1.529   2.441 -1.2666 -1.3416 -1.7405
  684MOL0     H90266   9.723   1.459   2.468  1.3400 -2.9691 -1.3126
  684MOL0     H90267   9.614   1.349   2.385 -1.0191  0.4130 -0.7142
  684MOL0     H90268   9.683   1.469   2.172  0.6399 -1.8616 -1.5673
  684MOL0     H90269   9.803   1.355   2.262  1.8786  0.9062  2.0474
  684MOL0     H90270   9.782   2.152   2.640 -1.9256  0.4030 -1.0133
  684MOL0     H90271  10.026   2.124   2.571  0.0165 -3.7566  0.6586
  684MOL0     H90272  10.294   1.891   2.074  0.7883 -1.0932  1.0867
  684MOL0     H90273  10.517   1.928   1.979  2.7709  2.3892 -0.4582
  684MOL0     H90274   9.742   1.502   1.572 -0.2459  2.9991  3.0288
  684MOL0     H90275   9.502   1.553   1.461 -0.5598  1.6219  4.0999
  684MOL0     H90276   9.198   1.698   1.210 -0.2068 -0.7528 -1.3537
  684MOL0     H90277   9.003   1.781   1.119 -1.9250  0.0510  0.8041
  684MOL0     H90278   8.950   2.174   1.098  1.4024  1.3985  1.5820
  684MOL0     H90279   8.824   2.188   1.218  4.3085  4.5763 -1.5992
  684MOL0     H90280   8.745   2.233   0.980  0.6236 -0.0843 -0.5879
  684MOL0     H90281   8.758   2.064   0.940 -5.1959  0.7369 -1.6417
  684MOL0     H90282   8.544   2.108   0.981 -0.1710 -3.1151  0.0448
  684MOL0     H90283   8.575   2.199   1.131  0.8247  0.2310 -0.6803
  684MOL0     H90284   8.630   1.903   1.063  1.3455 -0.7253  1.9040
  684MOL0     H90285   8.627   1.980   1.230 -1.5372 -2.2568  0.7751
  684MOL0     H90286   8.216   1.841   1.158  0.2301  1.2325 -3.7851
  684MOL0     H90287   9.021   2.159   1.312  2.7285  1.8292 -1.3652
  684MOL0     H90288   9.255   2.081   1.407  2.2554 -1.1806 -0.3945
  685MOL0     O90289   5.282   5.398   9.608  0.4587 -0.4060 -0.3337
  685MOL0     C90290   5.267   5.455   9.714 -0.0184 -0.1425 -1.2847
  685MOL0     O90291   5.365   5.522   9.782  0.1336  0.3989 -0.5495
  685MOL0     C90292   5.489   5.545   9.731  0.0256  1.0353  1.6610
  685MOL0     C90293   5.524   5.551   9.592  1.0237  0.7474 -1.8441
  685MOL0     C90294   5.655   5.576   9.560  0.5477  0.1877 -0.0881
  685MOL0     C90295   5.752   5.600   9.658  0.2226  0.5382 -0.4914
  685MOL0     O90296   5.875   5.626   9.606 -0.4691 -0.0059 -0.4765
  685MOL0     C90297   5.992   5.614   9.692  0.1143 -0.8846  0.7505
  685MOL0     C90298   6.112   5.637   9.594 -0.3427 -0.2879 -0.5262
  685MOL0     C90299   6.243   5.648   9.670  0.1386  0.2361  0.9143
  685MOL0     C90300   6.360   5.660   9.563  0.2968  0.5702  0.2180
  685MOL0     C90301   6.483   5.719   9.624 -0.8471  0.9308 -0.2724
  685MOL0     C90302   6.609   5.697   9.541 -0.1221 -0.6913  0.1293
  685MOL0     C90303   6.607   5.749   9.394  0.6869 -0.0493  0.2698
  685MOL0     C90304   6.605   5.905   9.381 -0.3358  0.3936 -0.7914
  685MOL0     N90305   6.463   5.946   9.367  0.9208  0.1072  0.2424
  685MOL0     C90306   6.382   5.912   9.253 -1.1963 -0.2630  0.0514
  685MOL0     C90307   6.257   5.944   9.279  0.0963  0.2707 -0.7551
  685MOL0     C90308   6.137   5.904   9.209 -0.0244  0.7221  0.9179
  685MOL0     C90309   6.014   5.946   9.282 -0.0097 -0.0995 -0.1532
  685MOL0     C90310   5.891   5.874   9.235 -0.5725 -0.3002 -0.4601
  685MOL0     C90311   5.772   5.922   9.315 -0.5715  0.7127 -0.1226
  685MOL0     O90312   5.656   5.846   9.289 -0.2871  0.7975 -0.2575
  685MOL0     C90313   5.535   5.858   9.362  0.0332  0.0622  0.2841
  685MOL0     C90314   5.542   5.905   9.490 -0.4014 -0.2979  0.1153
  685MOL0     C90315   5.443   5.890   9.584  1.1422  0.3524 -0.0460
  685MOL0     C90316   5.315   5.847   9.549 -0.4206  1.3670  0.7398
  685MOL0     C90317   5.207   5.844   9.650 -1.4703  1.5627  0.8092
  685MOL0     O90318   5.217   5.926   9.761  0.3812  0.5920  0.0644
  685MOL0     C90319   5.104   5.941   9.837 -0.9184 -0.6989 -0.9931
  685MOL0     C90320   5.108   5.885   9.974  0.2361  0.1885 -0.0344
  685MOL0     C90321   4.999   5.912  10.059 -0.3211  0.8261  0.0882
  685MOL0     C90322   4.886   5.972  10.006  0.7304 -0.5058 -0.3793
  685MOL0     O90323   4.787   5.988  10.099 -0.9288 -0.1654  0.0243
  685MOL0     C90324   4.654   6.001  10.045  0.1588 -0.4956 -0.3137
  685MOL0     C90325   4.559   5.945  10.159 -0.1394 -1.0428  0.4687
  685MOL0     C90326   4.513   6.052  10.252  0.4351 -0.0374  0.0118
  685MOL0     C90327   4.479   5.990  10.388  0.6508  0.2572  0.2687
  685MOL0     C90328   4.415   6.084  10.492 -0.5374  0.3894 -0.2965
  685MOL0     C90329   4.268   6.083  10.463  0.0315 -0.0302 -0.4886
  685MOL0     C90330   4.185   6.171  10.553  0.2187 -0.0591 -0.2304
  685MOL0     C90331   4.055   6.211  10.485  1.0839  0.6238 -0.4053
  685MOL0    Cl90332   3.952   6.306  10.604  0.3358  0.0203  0.6093
  685MOL0     C90333   4.883   6.025   9.875 -0.2465  0.5126 -0.4826
  685MOL0     C90334   4.997   6.009   9.791  0.4311  0.9955 -0.4034
  685MOL0     O90335   5.109   5.776   9.624 -0.5846  0.0907 -0.0064
  685MOL0     C90336   5.305   5.783   9.423  0.5020 -0.0090 -0.9739
  685MOL0     C90337   5.409   5.798   9.328 -0.3063 -0.2441  0.7595
  685MOL0     N90338   6.256   6.004   9.401  0.0285 -0.4022 -0.2824
  685MOL0     N90339   6.377   6.002   9.455  0.6397 -0.1614  0.5863
  685MOL0     C90340   5.723   5.584   9.794 -0.8438  0.0148  1.4316
  685MOL0     C90341   5.585   5.563   9.832 -0.6193 -0.3844 -0.3090
  685MOL0     C90342   5.133   5.440   9.779 -0.8503 -0.5522 -0.0623
  685MOL0     C90343   5.043   5.342   9.730 -0.1931 -1.3697  0.4577
  685MOL0     C90344   4.920   5.311   9.790 -1.5267 -0.1943  0.5789
  685MOL0     C90345   4.891   5.370   9.913  0.2538 -0.4588  0.4939
  685MOL0     O90346   4.785   5.334   9.985  0.7218  0.1508 -0.3189
  685MOL0     C90347   4.665   5.407   9.964 -0.0755  0.2117 -0.0932
  685MOL0     C90348   4.646   5.527  10.071  0.6047  0.7547  0.0973
  685MOL0     C90349   4.629   5.460  10.208  0.2459 -0.0501 -0.4224
  685MOL0     C90350   4.643   5.574  10.307  0.8550  1.2353  0.0945
  685MOL0     C90351   4.782   5.630  10.332  0.7464  1.0029 -0.3317
  685MOL0     C90352   4.898   5.649  10.352  0.3357  0.0172 -0.1221
  685MOL0     C90353   4.980   5.454   9.977 -1.0026 -0.4083 -0.0978
  685MOL0     C90354   5.106   5.492   9.913  0.5342 -1.1625  0.5503
  685MOL0     H90355   5.449   5.553   9.513  1.4753  0.2956 -2.2985
  685MOL0     H90356   5.676   5.596   9.455 -3.0463 -0.1185 -1.0165
  685MOL0     H90357   5.987   5.521   9.749 -0.7148 -0.2026  1.8369
  685MOL0     H90358   5.973   5.701   9.756 -2.1833 -0.5151 -0.3214
  685MOL0     H90359   6.098   5.729   9.537 -3.2301 -1.2237 -1.5066
  685MOL0     H90360   6.125   5.562   9.515  0.8645  0.6363 -1.2393
  685MOL0     H90361   6.270   5.566   9.738  0.6573  1.0142  1.6575
  685MOL0     H90362   6.240   5.738   9.731 -1.9874 -0.1906  1.5125
  685MOL0     H90363   6.364   5.563   9.513 -0.2514  0.8783 -0.4431
  685MOL0     H90364   6.337   5.716   9.472 -0.8398 -0.9320 -0.4638
  685MOL0     H90365   6.509   5.679   9.722  2.5035  2.5337 -0.3202
  685MOL0     H90366   6.469   5.828   9.630 -1.1183  1.0697 -2.5488
  685MOL0     H90367   6.639   5.592   9.540  3.6523  0.2421 -1.6039
  685MOL0     H90368   6.686   5.750   9.597 -1.1270  0.8171  0.1413
  685MOL0     H90369   6.708   5.727   9.356  0.2126  2.2698 -2.7775
  685MOL0     H90370   6.537   5.696   9.329  4.2831 -3.0402 -1.5315
  685MOL0     H90371   6.651   5.940   9.289 -2.1456  1.9532 -1.1553
  685MOL0     H90372   6.650   5.940   9.474  0.9379  1.4067 -1.7702
  685MOL0     H90373   6.424   5.847   9.177  2.9025 -3.2099  4.2043
  685MOL0     H90374   6.139   5.795   9.201  1.5091  0.5982  2.3856
  685MOL0     H90375   6.133   5.947   9.109 -0.1210 -2.7944 -0.7433
  685MOL0     H90376   5.995   6.054   9.279  1.3415  0.1403 -1.0063
  685MOL0     H90377   6.019   5.926   9.389 -0.6101 -0.4874 -0.1899
  685MOL0     H90378   5.872   5.911   9.134 -0.7549  2.9816  0.6746
  685MOL0     H90379   5.906   5.766   9.239 -1.4438 -0.4359 -0.6238
  685MOL0     H90380   5.759   6.031   9.310  1.5079  1.4359  4.6367
  685MOL0     H90381   5.796   5.900   9.420  2.4634 -4.8662 -1.5923
  685MOL0     H90382   5.634   5.943   9.534  0.9118 -3.1380  0.0574
  685MOL0     H90383   5.451   5.928   9.685 -0.0199  0.2941  0.0803
  685MOL0     H90384   5.199   5.841  10.013  1.2330  0.9229 -1.4330
  685MOL0     H90385   4.988   5.876  10.161  1.1317  1.3423  0.4437
  685MOL0     H90386   4.633   5.939   9.957 -2.9072 -2.9175  1.8601
  685MOL0     H90387   4.623   6.102  10.017 -1.6366 -1.2379 -1.2020
  685MOL0     H90388   4.603   5.867  10.221  0.8084 -0.0258  1.1110
  685MOL0     H90389   4.489   5.880  10.104  4.9680 -5.2014 -2.0557
  685MOL0     H90390   4.429   6.108  10.209 -0.5447 -0.3178  1.5100
  685MOL0     H90391   4.595   6.124  10.261  1.2221 -1.0516  1.1449
  685MOL0     H90392   4.404   5.913  10.368  2.1809 -0.9056 -1.2466
  685MOL0     H90393   4.561   5.941  10.440  2.7550  3.5439  0.3558
  685MOL0     H90394   4.464   6.182  10.489  2.0709 -0.8537 -1.6902
  685MOL0     H90395   4.427   6.040  10.591 -1.2049 -2.0934 -1.2345
  685MOL0     H90396   4.226   5.982  10.474  1.1361 -0.4520  0.0886
  685MOL0     H90397   4.260   6.117  10.360 -1.8845  1.3055  0.0384
  685MOL0     H90398   4.159   6.119  10.646 -0.4100  1.7354  0.6612
  685MOL0     H90399   4.242   6.258  10.589  0.5304  0.5084 -1.9970
  685MOL0     H90400   4.005   6.115  10.465  1.2431  0.4778 -0.1039
  685MOL0     H90401   4.082   6.264  10.394  0.5370  2.6147  0.5350
  685MOL0     H90402   4.805   6.086   9.830 -1.6959  0.5906  1.9777
  685MOL0     H90403   4.999   6.062   9.696  2.0214  4.3133  1.3111
  685MOL0     H90404   5.215   5.729   9.397 -1.4977  2.5982  0.1473
  685MOL0     H90405   5.405   5.750   9.230 -0.4574 -1.7518  1.4708
  685MOL0     H90406   5.802   5.582   9.868  1.8662 -2.0865 -1.2479
  685MOL0     H90407   5.550   5.575   9.934 -1.2013 -0.8381 -0.4523
  685MOL0     H90408   5.071   5.294   9.636  1.1551  0.6623 -0.2328
  685MOL0     H90409   4.847   5.244   9.743  1.9365 -3.5845 -0.4893
  685MOL0     H90410   4.579   5.339   9.963  0.4886 -0.5793  1.8403
  685MOL0     H90411   4.666   5.462   9.869 -0.0067 -1.3210 -1.0286
  685MOL0     H90412   4.740   5.582  10.073 -0.0071  1.8741 -0.8015
  685MOL0     H90413   4.563   5.595  10.048 -1.3867 -1.6967 -0.4081
  685MOL0     H90414   4.704   5.383  10.232 -0.1017 -0.2480  0.0412
  685MOL0     H90415   4.529   5.419  10.226  0.9364 -1.6057  0.0642
  685MOL0     H90416   4.563   5.646  10.288  0.4961  0.9777  0.6054
  685MOL0     H90417   4.610   5.533  10.403 -2.6589  1.9141 -0.7060
  685MOL0     H90418   5.004   5.660  10.360  0.1230  0.7428  2.9254
  685MOL0     H90419   4.962   5.498  10.075  0.4706 -0.1062  0.0663
  685MOL0     H90420   5.178   5.562   9.956 -0.3329  1.2074 -1.6254
  686MOL0     O90421   1.744   3.817   4.653 -0.5462 -0.3852  0.4231
  686MOL0     C90422   1.762   3.718   4.728  0.6284  0.0401  0.1652
  686MOL0     O90423   1.668   3.626   4.759  0.3380  0.1188 -0.0996
  686MOL0     C90424   1.579   3.597   4.663  0.5684 -0.6353  0.4172
  686MOL0     C90425   1.468   3.679   4.628 -0.5456  0.1790  0.2023
  686MOL0     C90426   1.373   3.622   4.537 -0.2834  0.4993 -0.4871
  686MOL0     C90427   1.402   3.502   4.471 -0.0725  0.2686  0.2993
  686MOL0     O90428   1.322   3.468   4.360 -0.0785  0.1952 -0.0022
  686MOL0     C90429   1.389   3.419   4.238  0.5293  0.4379 -0.3281
  686MOL0     C90430   1.327   3.487   4.105 -0.6532  0.0029  0.9057
  686MOL0     C90431   1.178   3.447   4.098 -0.4049 -0.1582 -0.3525
  686MOL0     C90432   1.106   3.486   3.970 -0.3810  0.4950 -0.4400
  686MOL0     C90433   0.955   3.484   3.988  0.1906 -0.1242 -0.5705
  686MOL0     C90434   0.892   3.355   4.042 -0.3423 -0.2394  0.2497
  686MOL0     C90435   0.744   3.373   4.028 -0.2555  0.1384  0.4211
  686MOL0     C90436   0.697   3.356   3.887  0.0473 -0.0123 -0.5664
  686MOL0     N90437   0.641   3.219   3.863  0.3377  0.3959 -0.5350
  686MOL0     C90438   0.722   3.104   3.873 -0.2212  0.5689  0.3373
  686MOL0     C90439   0.636   2.999   3.896 -0.1042 -0.9202  0.6306
  686MOL0     C90440   0.666   2.860   3.925 -0.8477  0.2459  0.7556
  686MOL0     C90441   0.805   2.843   3.996 -0.0239  1.0445 -0.9704
  686MOL0     C90442   0.830   2.695   4.038 -0.5272  0.0348 -0.4106
  686MOL0     C90443   0.874   2.675   4.179  0.0299  0.6070 -0.5153
  686MOL0     O90444   0.988   2.759   4.215 -0.0915 -0.1443  0.3882
  686MOL0     C90445   1.115   2.715   4.185 -0.8472  0.0098 -0.4476
  686MOL0     C90446   1.207   2.817   4.216  0.0602  0.1958 -0.2429
  686MOL0     C90447   1.342   2.793   4.192  0.6835  0.2205 -0.1705
  686MOL0     C90448   1.388   2.679   4.126 -0.7850 -0.8705 -1.1334
  686MOL0     C90449   1.529   2.653   4.104  1.1150  0.7565 -0.3288
  686MOL0     O90450   1.616   2.695   4.191  0.0316 -0.9512 -0.3565
  686MOL0     C90451   1.748   2.666   4.185 -0.3482  0.1303 -1.1357
  686MOL0     C90452   1.848   2.766   4.177 -0.3324 -0.5580  0.4975
  686MOL0     C90453   1.978   2.725   4.201 -0.4311 -0.7460  0.1941
  686MOL0     C90454   2.028   2.593   4.229  0.7512 -0.6489  0.1548
  686MOL0     O90455   2.160   2.579   4.254 -0.0000  0.5211  0.5732
  686MOL0     C90456   2.226   2.463   4.213 -0.4133 -0.2185 -0.0730
  686MOL0     C90457   2.377   2.470   4.253  0.1965  0.1433  0.3832
  686MOL0     C90458   2.399   2.491   4.407 -0.8343 -0.1972  0.1044
  686MOL0     C90459   2.343   2.615   4.474  0.0545  0.4365  2.2918
  686MOL0     C90460   2.404   2.664   4.607  0.3649  0.0196  0.1498
  686MOL0     C90461   2.327   2.792   4.641  0.7426  0.0241  0.2821
  686MOL0     C90462   2.272   2.807   4.781  0.1361 -0.1990  1.0738
  686MOL0     C90463   2.372   2.872   4.875 -0.3944  0.9738  0.2166
  686MOL0    Cl90464   2.445   2.729   4.960 -0.1403  0.6232  0.2694
  686MOL0     C90465   1.924   2.497   4.254 -0.2108  0.0431  0.2322
  686MOL0     C90466   1.786   2.533   4.224  0.7828 -1.3819 -0.3304
  686MOL0     O90467   1.554   2.580   4.011  0.4108 -0.2271  0.1428
  686MOL0     C90468   1.304   2.584   4.083 -0.4183  0.3901 -0.2289
  686MOL0     C90469   1.166   2.595   4.121 -0.3866  0.1220 -0.3474
  686MOL0     N90470   0.506   3.051   3.892  0.1560  0.8832 -0.7365
  686MOL0     N90471   0.508   3.182   3.879 -1.0942  0.2908  0.3066
  686MOL0     C90472   1.503   3.422   4.514 -0.1193 -0.0919  0.6846
  686MOL0     C90473   1.588   3.467   4.615 -0.7510  0.9870 -1.4343
  686MOL0     C90474   1.900   3.702   4.785  0.4940  2.1550  0.4621
  686MOL0     C90475   1.984   3.807   4.790 -0.7356  0.0930 -0.0346
  686MOL0     C90476   2.116   3.778   4.817  0.1379 -0.3377  0.5109
  686MOL0     C90477   2.156   3.641   4.829  0.7286 -0.2947  0.6364
  686MOL0     O90478   2.286   3.634   4.858 -0.4341  0.0408 -0.6339
  686MOL0     C90479   2.360   3.514   4.856  0.0509  0.0888  0.8184
  686MOL0     C90480   2.510   3.544   4.834 -0.4691  0.7037  0.0998
  686MOL0     C90481   2.542   3.599   4.682  0.1553  0.2964 -0.4593
  686MOL0     C90482   2.698   3.595   4.650  0.7178  0.3774 -0.4582
  686MOL0     C90483   2.756   3.465   4.669 -0.2681 -0.3340  1.0489
  686MOL0     C90484   2.816   3.367   4.685  0.0072  0.1015 -0.6246
  686MOL0     C90485   2.064   3.536   4.829 -0.2131  1.8557 -0.5163
  686MOL0     C90486   1.932   3.568   4.809  0.7138  0.3496  0.1331
  686MOL0     H90487   1.469   3.783   4.660 -0.0359  0.6362 -1.2215
  686MOL0     H90488   1.283   3.677   4.511 -2.1442 -1.6472  1.0679
  686MOL0     H90489   1.374   3.313   4.215  1.8048 -0.1275  1.2480
  686MOL0     H90490   1.496   3.441   4.249  0.3339  0.8143  0.9383
  686MOL0     H90491   1.379   3.444   4.019  0.8798  2.0794  0.7207
  686MOL0     H90492   1.345   3.594   4.094  2.2754 -0.5073 -0.2766
  686MOL0     H90493   1.127   3.478   4.190 -0.3589  0.9513 -0.6790
  686MOL0     H90494   1.169   3.338   4.104  1.4508 -0.3580 -0.5287
  686MOL0     H90495   1.146   3.581   3.933  2.8137  0.5745  2.6369
  686MOL0     H90496   1.141   3.408   3.902  0.6422 -0.6282  1.2716
  686MOL0     H90497   0.919   3.504   3.887  2.8013 -0.4074 -1.6388
  686MOL0     H90498   0.921   3.565   4.053  2.5846 -0.7966  1.6960
  686MOL0     H90499   0.912   3.346   4.149  0.2708  0.3207  0.1873
  686MOL0     H90500   0.932   3.267   3.991  1.8603  1.5428 -1.2833
  686MOL0     H90501   0.687   3.306   4.092  3.9057 -1.3279  3.0323
  686MOL0     H90502   0.720   3.477   4.053 -2.2047  0.0366 -0.8140
  686MOL0     H90503   0.776   3.381   3.816  1.7917  1.6420  1.7985
  686MOL0     H90504   0.603   3.413   3.879  0.1608  0.8586  2.7382
  686MOL0     H90505   0.830   3.102   3.859 -0.4509  0.8397 -1.7037
  686MOL0     H90506   0.667   2.801   3.833  0.5542  0.8259  0.3748
  686MOL0     H90507   0.583   2.831   3.990 -2.9505  2.7759 -0.5981
  686MOL0     H90508   0.802   2.903   4.087  2.0627  2.3430 -1.6794
  686MOL0     H90509   0.885   2.882   3.932  1.4439 -0.3096 -0.0346
  686MOL0     H90510   0.736   2.640   4.028 -0.0150 -0.8370 -0.4466
  686MOL0     H90511   0.910   2.649   3.979  4.2640  0.1721  5.0846
  686MOL0     H90512   0.895   2.569   4.191  0.2166  0.6228 -0.6875
  686MOL0     H90513   0.801   2.687   4.259  0.1017 -3.9185  0.4634
  686MOL0     H90514   1.181   2.906   4.272  1.3294  0.3129  0.1795
  686MOL0     H90515   1.412   2.876   4.206  0.0125  0.4535  2.2496
  686MOL0     H90516   1.818   2.867   4.150 -1.2939 -0.7664  0.7387
  686MOL0     H90517   2.048   2.808   4.204 -0.8173 -0.4440  2.7633
  686MOL0     H90518   2.206   2.445   4.107  0.4705 -3.8163  0.2622
  686MOL0     H90519   2.187   2.377   4.267 -0.0347 -0.0927  0.4090
  686MOL0     H90520   2.409   2.552   4.188 -3.0103 -2.0258 -4.5753
  686MOL0     H90521   2.430   2.378   4.228  1.3478  0.6629  0.8135
  686MOL0     H90522   2.507   2.501   4.425 -1.5380  1.3299  4.7527
  686MOL0     H90523   2.361   2.406   4.464 -1.6282 -0.3688 -0.6658
  686MOL0     H90524   2.354   2.700   4.407 -1.2218 -2.5019 -2.0419
  686MOL0     H90525   2.236   2.597   4.488 -0.9880 -2.2329 -4.9632
  686MOL0     H90526   2.511   2.684   4.596  0.1257  0.4265 -1.6411
  686MOL0     H90527   2.398   2.583   4.680  1.6751 -2.6500 -2.5070
  686MOL0     H90528   2.235   2.779   4.584  1.0161  1.5853 -0.5717
  686MOL0     H90529   2.387   2.878   4.609 -1.6566  0.8556 -2.4634
  686MOL0     H90530   2.186   2.873   4.770  0.8114  0.5894  0.3068
  686MOL0     H90531   2.230   2.718   4.828 -3.0609  0.1480 -0.8251
  686MOL0     H90532   2.321   2.929   4.954 -0.1970 -0.4632  1.4341
  686MOL0     H90533   2.451   2.934   4.831 -1.3819 -0.4043 -3.8929
  686MOL0     H90534   1.941   2.394   4.284 -0.8877  0.1330  0.9664
  686MOL0     H90535   1.712   2.458   4.249 -0.2388  0.0203  1.0261
  686MOL0     H90536   1.336   2.495   4.030  0.7240  0.7002 -0.0928
  686MOL0     H90537   1.089   2.521   4.104  0.2348 -0.4218 -0.8308
  686MOL0     H90538   1.516   3.325   4.466 -1.2759 -0.2894  0.7404
  686MOL0     H90539   1.660   3.396   4.653 -1.6878  0.8783  0.2135
  686MOL0     H90540   1.950   3.908   4.768 -0.4277 -0.1535 -1.7735
  686MOL0     H90541   2.189   3.859   4.812 -0.5060  0.2494  0.4019
  686MOL0     H90542   2.322   3.435   4.790 -0.7359 -1.2415  2.7734
  686MOL0     H90543   2.352   3.479   4.959 -0.4481 -1.8333  0.1782
  686MOL0     H90544   2.528   3.619   4.912 -2.9392  0.0821  1.3812
  686MOL0     H90545   2.563   3.450   4.852  1.0162  1.5592  0.4498
  686MOL0     H90546   2.507   3.699   4.657 -2.4908 -0.4879 -0.2329
  686MOL0     H90547   2.470   3.540   4.624 -2.4805  0.8010  2.0419
  686MOL0     H90548   2.727   3.636   4.552  2.5376  0.5192  0.0987
  686MOL0     H90549   2.746   3.653   4.729 -1.5604 -0.2598  1.5103
  686MOL0     H90550   2.874   3.278   4.669 -1.6513 -0.7341 -2.4856
  686MOL0     H90551   2.089   3.433   4.851  0.5793  1.5327 -2.6693
  686MOL0     H90552   1.862   3.487   4.796 -0.3254  1.2796 -0.1785
  687MOL0     O90553   7.350   6.233   6.239  0.0123  0.4800  0.1223
  687MOL0     C90554   7.245   6.284   6.291 -0.2021 -0.4933  0.6298
  687MOL0     O90555   7.235   6.340   6.421  0.4059 -0.1011 -0.2158
  687MOL0     C90556   7.340   6.347   6.505 -1.1594  0.5170  0.2362
  687MOL0     C90557   7.301   6.336   6.644  0.1700  0.3613  0.9326
  687MOL0     C90558   7.400   6.346   6.746 -0.7886 -0.9365  0.4326
  687MOL0     C90559   7.532   6.377   6.707  1.1016  0.7625 -0.2359
  687MOL0     O90560   7.646   6.378   6.783 -0.4055  0.3181  0.7051
  687MOL0     C90561   7.645   6.411   6.919  1.0203 -1.0722 -0.2398
  687MOL0     C90562   7.785   6.391   6.997  0.3928 -0.6443  0.9405
  687MOL0     C90563   7.816   6.242   7.000 -0.1280 -0.0969 -0.3901
  687MOL0     C90564   7.938   6.216   7.101  0.9428  0.2952 -0.8116
  687MOL0     C90565   8.026   6.097   7.070 -0.3673  0.3345 -0.3918
  687MOL0     C90566   8.114   6.113   6.931 -0.3259  0.1096  0.2703
  687MOL0     C90567   8.199   5.983   6.911  0.7242  1.2219  0.5333
  687MOL0     C90568   8.337   6.010   6.964  0.4073  0.7451  0.5768
  687MOL0     N90569   8.427   5.908   6.911 -0.2610  0.5142  0.3199
  687MOL0     C90570   8.558   5.938   6.869 -0.7520  0.0574  0.0512
  687MOL0     C90571   8.615   5.821   6.827  0.1961 -0.6097 -0.6095
  687MOL0     C90572   8.746   5.786   6.765  0.5056  0.1320 -0.4816
  687MOL0     C90573   8.743   5.665   6.668 -0.0637  0.2702 -0.1509
  687MOL0     C90574   8.823   5.694   6.540  0.2291  0.4880  2.0988
  687MOL0     C90575   8.820   5.573   6.432 -1.0060 -0.3198 -0.4716
  687MOL0     O90576   8.891   5.456   6.480 -0.4707 -0.0154  1.0306
  687MOL0     C90577   9.026   5.447   6.459  0.5609  0.3591 -0.4731
  687MOL0     C90578   9.103   5.565   6.437  0.3394  0.3766 -0.6322
  687MOL0     C90579   9.239   5.551   6.411 -0.0884 -0.6272  0.7231
  687MOL0     C90580   9.297   5.426   6.401 -0.1611  0.3654  0.5391
  687MOL0     C90581   9.437   5.425   6.355 -0.7534 -0.3334  0.4657
  687MOL0     O90582   9.494   5.298   6.339  0.4285 -0.5755 -0.0825
  687MOL0     C90583   9.609   5.295   6.277 -0.0672  0.0035  0.3003
  687MOL0     C90584   9.624   5.261   6.142  1.0488  0.5358  0.7881
  687MOL0     C90585   9.753   5.246   6.085  0.3586 -0.4910 -0.0418
  687MOL0     C90586   9.862   5.268   6.166  0.5589 -1.4972  0.2930
  687MOL0     O90587   9.982   5.262   6.105 -0.4868  0.3311  0.3455
  687MOL0     C90588  10.054   5.389   6.116 -0.7451  0.4176 -0.0931
  687MOL0     C90589  10.194   5.358   6.161 -0.6688  0.7548 -0.4744
  687MOL0     C90590  10.281   5.489   6.161 -1.3927  0.1687 -0.3835
  687MOL0     C90591  10.430   5.473   6.209  0.6600 -1.3163 -0.9566
  687MOL0     C90592  10.502   5.605   6.219 -0.1070 -0.2616  0.6858
  687MOL0     C90593  10.651   5.570   6.263  0.0408 -0.3423  0.0166
  687MOL0     C90594  10.751   5.688   6.276  0.0350  0.2338 -0.1905
  687MOL0     C90595  10.729   5.777   6.393  1.3436  0.2363 -0.6423
  687MOL0    Cl90596  10.844   5.917   6.398 -0.3702 -0.1197  0.2958
  687MOL0     C90597   9.851   5.300   6.305 -0.4115 -0.4251  0.7804
  687MOL0     C90598   9.722   5.324   6.357  0.3142  0.1150  0.2623
  687MOL0     O90599   9.492   5.535   6.328  0.1002  0.4565 -0.1233
  687MOL0     C90600   9.222   5.311   6.421 -0.0675  0.2429  0.2912
  687MOL0     C90601   9.084   5.321   6.451  1.0253 -0.4082  0.1125
  687MOL0     N90602   8.509   5.724   6.850  0.8500  0.1516 -0.0386
  687MOL0     N90603   8.400   5.771   6.901  0.4716 -0.1954  0.1050
  687MOL0     C90604   7.569   6.386   6.576  0.1834  0.2077  1.0634
  687MOL0     C90605   7.478   6.366   6.473  0.7340  0.0545  0.5402
  687MOL0     C90606   7.120   6.308   6.213  0.0784  0.0828 -0.0951
  687MOL0     C90607   7.133   6.320   6.072 -0.3312  0.1914 -0.4854
  687MOL0     C90608   7.015   6.343   5.998  0.4460 -0.0581  0.2934
  687MOL0     C90609   6.886   6.340   6.060 -0.8734 -0.0307  0.0793
  687MOL0     O90610   6.766   6.355   6.009  0.6190 -0.6993 -0.4699
  687MOL0     C90611   6.756   6.325   5.864  0.1139 -0.6518 -0.4283
  687MOL0     C90612   6.609   6.358   5.811  0.5789 -0.3541 -0.7778
  687MOL0     C90613   6.579   6.505   5.782 -0.6725 -0.0290  0.0534
  687MOL0     C90614   6.434   6.524   5.737  0.1691  0.3121  0.3498
  687MOL0     C90615   6.399   6.671   5.744  0.6068 -0.0011  0.4382
  687MOL0     C90616   6.402   6.789   5.747  0.3413  0.1557  0.6727
  687MOL0     C90617   6.886   6.314   6.199  0.3873  0.1450  0.0792
  687MOL0     C90618   6.994   6.299   6.280  0.3503 -0.2887  0.9033
  687MOL0     H90619   7.197   6.322   6.673  0.8019 -3.0694  2.0469
  687MOL0     H90620   7.389   6.330   6.852  3.6322 -1.2380  1.0432
  687MOL0     H90621   7.560   6.361   6.968 -3.2525  2.6125 -3.1083
  687MOL0     H90622   7.629   6.519   6.921 -1.2324 -1.3076 -2.0443
  687MOL0     H90623   7.770   6.410   7.104  3.6498  3.2261  0.9767
  687MOL0     H90624   7.868   6.445   6.951  0.6871 -3.4433 -2.1548
  687MOL0     H90625   7.845   6.223   6.896 -0.6784  2.5252 -1.1086
  687MOL0     H90626   7.724   6.194   7.034 -2.0680  3.3464 -0.2859
  687MOL0     H90627   7.996   6.309   7.111  0.9288  0.2308 -0.0866
  687MOL0     H90628   7.885   6.186   7.191  2.1449  0.8233  0.1068
  687MOL0     H90629   7.959   6.013   7.050 -2.0262  2.3350 -4.4032
  687MOL0     H90630   8.092   6.073   7.153 -0.8583  1.2165  0.2697
  687MOL0     H90631   8.183   6.197   6.940 -0.4121 -0.0228  3.3237
  687MOL0     H90632   8.039   6.125   6.852 -2.0278  0.5900  1.8833
  687MOL0     H90633   8.155   5.886   6.936  1.9260 -0.5801 -3.5668
  687MOL0     H90634   8.223   5.974   6.804  4.0712  0.4456  1.2475
  687MOL0     H90635   8.363   6.014   7.070 -0.5218 -1.8781  0.9650
  687MOL0     H90636   8.367   6.112   6.939 -2.3157  1.3507 -0.4737
  687MOL0     H90637   8.617   6.029   6.860  1.0928 -0.9288  1.5019
  687MOL0     H90638   8.815   5.769   6.847  2.2324  2.6803 -1.2744
  687MOL0     H90639   8.806   5.867   6.722  2.5809  0.3865  2.5695
  687MOL0     H90640   8.641   5.646   6.633 -0.5197 -0.6184  1.5475
  687MOL0     H90641   8.779   5.581   6.727  0.2953  1.1089  0.8512
  687MOL0     H90642   8.770   5.769   6.481  1.2637 -3.3881 -4.7846
  687MOL0     H90643   8.925   5.731   6.557  0.4987  0.1197  1.3169
  687MOL0     H90644   8.862   5.607   6.337  0.8194  2.6880  1.2438
  687MOL0     H90645   8.717   5.537   6.421 -1.2938  0.8520 -1.8774
  687MOL0     H90646   9.065   5.667   6.437  0.4785  0.4484  0.8462
  687MOL0     H90647   9.299   5.639   6.395 -1.4953 -0.1717 -3.1221
  687MOL0     H90648   9.536   5.252   6.079  2.2073 -0.2340 -0.7939
  687MOL0     H90649   9.760   5.228   5.978  0.3961  2.3412 -0.5939
  687MOL0     H90650  10.016   5.467   6.183 -1.5864  1.3800 -1.6275
  687MOL0     H90651  10.036   5.449   6.026  1.1320  0.8732 -0.2063
  687MOL0     H90652  10.231   5.278   6.095  2.1766  2.1675 -0.7591
  687MOL0     H90653  10.187   5.313   6.261  0.3206 -0.0193 -0.7312
  687MOL0     H90654  10.234   5.556   6.234 -1.7423  1.0211 -1.3692
  687MOL0     H90655  10.286   5.544   6.066  1.3660 -3.6558 -2.7261
  687MOL0     H90656  10.419   5.434   6.311 -1.6262  1.7541  0.1153
  687MOL0     H90657  10.473   5.393   6.148  0.4407 -1.2089 -1.2572
  687MOL0     H90658  10.447   5.665   6.292 -0.5913  3.0468 -2.1573
  687MOL0     H90659  10.496   5.653   6.121 -0.6288 -1.0693  0.3116
  687MOL0     H90660  10.687   5.487   6.201 -0.9340 -1.5678  1.0512
  687MOL0     H90661  10.644   5.521   6.361  0.2162 -0.8056 -0.1974
  687MOL0     H90662  10.855   5.659   6.290 -0.1618 -0.4384 -0.0995
  687MOL0     H90663  10.739   5.745   6.183 -3.9583 -2.0952 -1.3654
  687MOL0     H90664  10.754   5.728   6.487 -3.1676  1.5844  1.5181
  687MOL0     H90665  10.628   5.818   6.402  1.8897  1.2057  1.8969
  687MOL0     H90666   9.936   5.312   6.371  0.4209  1.4788 -0.5420
  687MOL0     H90667   9.705   5.331   6.464  3.3958 -1.8038  1.0082
  687MOL0     H90668   9.269   5.213   6.416  0.8430  0.5130  2.4402
  687MOL0     H90669   9.025   5.230   6.447  3.1556 -1.8833  0.5622
  687MOL0     H90670   7.675   6.400   6.558  0.2544 -0.0439  1.2793
  687MOL0     H90671   7.511   6.368   6.370 -4.5782  2.1112 -1.4505
  687MOL0     H90672   7.237   6.317   6.041  1.0171 -0.9276  3.4771
  687MOL0     H90673   7.021   6.373   5.894  1.4954 -0.6121  0.1693
  687MOL0     H90674   6.772   6.217   5.856 -2.9447 -1.2706  0.3932
  687MOL0     H90675   6.834   6.381   5.813 -0.8497  0.2494 -0.9570
  687MOL0     H90676   6.598   6.302   5.718  1.7740 -2.3058  0.1944
  687MOL0     H90677   6.530   6.325   5.879  0.6734  0.6913 -0.1255
  687MOL0     H90678   6.646   6.534   5.701  0.4056  2.5196  1.7163
  687MOL0     H90679   6.606   6.558   5.874 -2.1157 -0.2260  0.6108
  687MOL0     H90680   6.435   6.490   5.633  3.2043 -1.3740  0.8217
  687MOL0     H90681   6.362   6.460   5.790 -2.3359  2.0654 -0.7593
  687MOL0     H90682   6.419   6.894   5.735  1.3579 -0.1576 -0.9528
  687MOL0     H90683   6.788   6.309   6.246  0.0541  3.6609 -0.0213
  687MOL0     H90684   6.990   6.281   6.387  1.2064  2.3180  1.4464
  688MOL0     O90685   3.034   9.969   3.563 -0.7113  0.4462  0.3558
  688MOL0     C90686   3.010   9.847   3.553  0.2950  0.0939 -0.3569
  688MOL0     O90687   3.070   9.757   3.464 -0.2423 -0.0889 -0.5237
  688MOL0     C90688   3.176   9.803   3.391 -0.8430 -0.6324  0.3023
  688MOL0     C90689   3.304   9.794   3.447 -0.1716 -0.2772  0.3189
  688MOL0     C90690   3.423   9.842   3.376 -0.3988  0.1918 -0.4435
  688MOL0     C90691   3.406   9.893   3.244 -0.1241 -1.1322  0.0081
  688MOL0     O90692   3.503   9.960   3.177  0.2767 -1.0215  0.2604
  688MOL0     C90693   3.512  10.102   3.186 -1.2307 -0.0748  0.2693
  688MOL0     C90694   3.595  10.133   3.310 -0.0022  0.0424  0.2827
  688MOL0     C90695   3.651  10.277   3.310 -0.0757  0.6714  0.7718
  688MOL0     C90696   3.770  10.282   3.405  2.1817 -0.6480 -1.2206
  688MOL0     C90697   3.898  10.229   3.357 -0.4068 -0.0129 -0.4840
  688MOL0     C90698   3.999  10.225   3.479 -0.4767  0.9131 -0.5932
  688MOL0     C90699   4.146  10.156   3.462 -0.0067  0.2623 -0.5892
  688MOL0     C90700   4.222  10.189   3.597 -1.3981  0.2942 -0.0203
  688MOL0     N90701   4.365  10.155   3.604  0.2237  0.8297 -0.3492
  688MOL0     C90702   4.424  10.027   3.618 -0.2258 -0.3704  0.0544
  688MOL0     C90703   4.550  10.052   3.661 -0.3104 -1.0339 -0.0879
  688MOL0     C90704   4.656   9.966   3.713 -0.9120  0.5697  0.7390
  688MOL0     C90705   4.756   9.912   3.602 -0.3524 -0.2136  0.2052
  688MOL0     C90706   4.808   9.778   3.625  0.5196 -0.1460  1.1206
  688MOL0     C90707   4.901   9.772   3.749 -0.0896 -0.3214  0.1293
  688MOL0     O90708   4.940   9.641   3.791  0.0610  0.6361 -0.4887
  688MOL0     C90709   5.027   9.570   3.714 -0.6651 -0.5371  0.4289
  688MOL0     C90710   5.109   9.621   3.603 -0.8453  0.1740 -0.4959
  688MOL0     C90711   5.197   9.536   3.537 -1.3525  0.1661  0.0444
  688MOL0     C90712   5.217   9.408   3.576 -0.1849  1.0299  1.4038
  688MOL0     C90713   5.303   9.319   3.491  0.1738  0.6447 -0.6541
  688MOL0     O90714   5.298   9.191   3.533  0.0657  0.0086 -0.6936
  688MOL0     C90715   5.371   9.102   3.463  0.2658  0.0704 -0.0782
  688MOL0     C90716   5.304   8.991   3.407 -0.5355  1.0009 -0.3575
  688MOL0     C90717   5.383   8.891   3.352 -0.4365 -1.1895 -0.2634
  688MOL0     C90718   5.529   8.902   3.353 -0.4108  0.8388 -0.1866
  688MOL0     O90719   5.610   8.810   3.292  0.1668 -0.1559  0.7463
  688MOL0     C90720   5.562   8.671   3.277 -0.1792  0.2331 -0.7050
  688MOL0     C90721   5.587   8.611   3.139 -0.0620 -0.2214  0.0234
  688MOL0     C90722   5.732   8.575   3.133 -0.2589 -0.1111  0.5589
  688MOL0     C90723   5.773   8.448   3.050 -0.2870 -1.1088 -0.5742
  688MOL0     C90724   5.921   8.452   3.020 -1.2521  0.4755  0.5283
  688MOL0     C90725   5.965   8.349   2.895  0.3093 -1.0192 -0.0190
  688MOL0     C90726   6.114   8.371   2.857 -0.7223  0.6481  0.0745
  688MOL0     C90727   6.161   8.513   2.820 -0.1653  0.1143  0.2008
  688MOL0    Cl90728   6.073   8.573   2.673  0.5288  0.0839  0.0536
  688MOL0     C90729   5.589   9.018   3.386 -0.0838  0.8864 -2.3940
  688MOL0     C90730   5.509   9.114   3.455  0.4352  0.7858 -0.2057
  688MOL0     O90731   5.358   9.364   3.390 -0.6222  0.0820 -0.1340
  688MOL0     C90732   5.131   9.354   3.676  0.6879  0.2303  0.7422
  688MOL0     C90733   5.039   9.433   3.743  0.4550 -0.0137  0.6705
  688MOL0     N90734   4.564  10.191   3.651 -0.5552 -0.4630  0.0165
  688MOL0     N90735   4.458  10.251   3.621  0.7175 -0.2285 -0.1548
  688MOL0     C90736   3.270   9.906   3.197 -0.0594  0.4399  0.3959
  688MOL0     C90737   3.158   9.855   3.263 -0.1948  0.2433  0.0981
  688MOL0     C90738   2.894   9.793   3.633 -0.2389  0.5734 -0.4960
  688MOL0     C90739   2.876   9.658   3.634  0.4846 -0.4909  0.6046
  688MOL0     C90740   2.771   9.605   3.707  0.2010  0.8192  0.0561
  688MOL0     C90741   2.685   9.686   3.784  0.6900  0.2700  1.1148
  688MOL0     O90742   2.574   9.629   3.851  0.4249 -0.0770  0.3904
  688MOL0     C90743   2.499   9.710   3.948 -0.0768  0.0292 -0.0211
  688MOL0     C90744   2.382   9.626   4.009 -0.1608 -0.1856  0.8536
  688MOL0     C90745   2.253   9.656   3.926  0.3604 -0.1446 -0.1242
  688MOL0     C90746   2.137   9.545   3.946 -0.1738  0.6463 -0.2204
  688MOL0     C90747   2.103   9.537   4.092 -0.2512 -0.6981 -0.0495
  688MOL0     C90748   2.077   9.531   4.209  0.3320  1.1971 -0.2162
  688MOL0     C90749   2.706   9.826   3.782  0.8750 -0.3312 -0.6236
  688MOL0     C90750   2.810   9.877   3.710 -0.0424  0.0821  0.5048
  688MOL0     H90751   3.304   9.741   3.541  2.5295 -0.9035  0.0454
  688MOL0     H90752   3.521   9.827   3.419 -0.2506  0.3071 -0.7374
  688MOL0     H90753   3.410  10.144   3.186 -1.6875 -1.1516 -0.3469
  688MOL0     H90754   3.551  10.141   3.092 -0.2993 -1.8400 -0.1263
  688MOL0     H90755   3.680  10.064   3.314  0.2565 -0.1135 -3.5520
  688MOL0     H90756   3.528  10.124   3.396 -1.7836  1.2877 -0.8892
  688MOL0     H90757   3.572  10.346   3.341 -0.3417  0.3357  0.8591
  688MOL0     H90758   3.691  10.321   3.218  2.5429  1.1854  2.0905
  688MOL0     H90759   3.773  10.384   3.446 -1.6463  0.5585 -3.3721
  688MOL0     H90760   3.734  10.219   3.487  2.3316  1.0439  0.2058
  688MOL0     H90761   3.932  10.301   3.283  0.6842  0.2114  0.2057
  688MOL0     H90762   3.897  10.131   3.308 -1.0383 -1.8710  2.9158
  688MOL0     H90763   3.951  10.175   3.564 -0.9142  1.2274 -0.6544
  688MOL0     H90764   4.006  10.329   3.512 -1.7016  0.5738  0.8932
  688MOL0     H90765   4.146  10.049   3.440  0.3915  0.0925  0.1935
  688MOL0     H90766   4.188  10.211   3.377 -0.7520  2.8024  0.5694
  688MOL0     H90767   4.184  10.140   3.687  0.9380 -0.9124  0.3788
  688MOL0     H90768   4.223  10.293   3.633  0.8244  0.2174  0.2851
  688MOL0     H90769   4.368   9.935   3.602 -0.6855 -0.5607  2.3556
  688MOL0     H90770   4.609   9.878   3.759  2.5414 -2.1171 -0.4699
  688MOL0     H90771   4.716  10.020   3.787 -0.6162 -1.3972  2.0077
  688MOL0     H90772   4.838   9.984   3.600  0.6020 -1.2721  0.6361
  688MOL0     H90773   4.707   9.919   3.504 -1.1417  1.8691  0.6879
  688MOL0     H90774   4.721   9.712   3.627  0.4442 -0.0590  3.4714
  688MOL0     H90775   4.870   9.740   3.543 -2.1892 -0.4278 -0.9092
  688MOL0     H90776   4.833   9.806   3.828 -0.2853 -0.3461 -0.0296
  688MOL0     H90777   4.996   9.825   3.738  0.5299 -1.5118 -0.5258
  688MOL0     H90778   5.099   9.725   3.572 -0.2913 -0.2197 -2.1091
  688MOL0     H90779   5.258   9.574   3.455 -1.8926 -3.9874 -2.6325
  688MOL0     H90780   5.196   8.989   3.421 -0.6503 -0.4675 -1.2961
  688MOL0     H90781   5.323   8.812   3.308 -1.6796  0.1440 -1.0321
  688MOL0     H90782   5.461   8.643   3.308  0.6037 -3.6464 -1.0211
  688MOL0     H90783   5.619   8.610   3.348  1.2493  1.6584 -0.5894
  688MOL0     H90784   5.546   8.671   3.058  1.5577 -0.2738 -0.8893
  688MOL0     H90785   5.526   8.520   3.135 -0.2169 -0.2446  1.8756
  688MOL0     H90786   5.775   8.574   3.234 -3.4466  2.0950  2.1151
  688MOL0     H90787   5.774   8.657   3.074 -1.9194 -0.9027 -1.8737
  688MOL0     H90788   5.758   8.356   3.107  2.1745 -0.8148  0.6719
  688MOL0     H90789   5.711   8.428   2.962 -0.5247 -0.9796 -0.4366
  688MOL0     H90790   5.969   8.424   3.113 -2.6329 -1.0860  0.8140
  688MOL0     H90791   5.957   8.552   2.993  1.3426  0.1847  2.4799
  688MOL0     H90792   5.904   8.380   2.810 -0.8389 -2.5742  0.1925
  688MOL0     H90793   5.938   8.246   2.919 -1.4622  0.1807  3.9561
  688MOL0     H90794   6.178   8.340   2.940  3.0742  0.9040 -2.4710
  688MOL0     H90795   6.142   8.323   2.762  1.5674  0.8914  0.5625
  688MOL0     H90796   6.268   8.515   2.796 -0.0206  3.1630  0.7219
  688MOL0     H90797   6.145   8.584   2.902 -1.1564 -1.6719  1.6278
  688MOL0     H90798   5.697   9.013   3.395 -0.2501 -0.2348 -0.2830
  688MOL0     H90799   5.562   9.185   3.516 -0.1991  1.7622 -0.7651
  688MOL0     H90800   5.129   9.248   3.698 -1.6950 -0.6345 -2.7521
  688MOL0     H90801   4.974   9.391   3.819  0.1076 -2.2350 -0.7667
  688MOL0     H90802   3.247   9.934   3.095 -0.0899  1.7306  0.7381
  688MOL0     H90803   3.065   9.853   3.207  0.0017  0.3812 -0.2401
  688MOL0     H90804   2.943   9.588   3.584 -1.6142 -3.2155  1.4030
  688MOL0     H90805   2.761   9.497   3.704  0.0643  0.8445 -2.8096
  688MOL0     H90806   2.459   9.795   3.892 -1.5742  0.6461  1.8494
  688MOL0     H90807   2.557   9.748   4.033 -1.8089  2.4874  0.1764
  688MOL0     H90808   2.409   9.520   4.002  1.5673  0.3268 -1.8694
  688MOL0     H90809   2.362   9.651   4.113  0.0452  0.0774  0.8306
  688MOL0     H90810   2.272   9.644   3.818  0.1037  1.7708 -0.4129
  688MOL0     H90811   2.214   9.757   3.935  0.7392  0.0839 -0.9139
  688MOL0     H90812   2.043   9.567   3.895  0.1875  0.2977 -1.0425
  688MOL0     H90813   2.177   9.447   3.919 -1.0006  0.1786  0.2178
  688MOL0     H90814   2.036   9.526   4.308 -0.2028 -1.5849 -0.5057
  688MOL0     H90815   2.647   9.891   3.846 -2.6836 -2.9973 -0.8943
  688MOL0     H90816   2.832   9.983   3.722  1.3069  0.1675 -2.0383
  689MOL0     O90817   2.030   5.956   2.835 -0.2380  0.3456  0.5944
  689MOL0     C90818   2.055   5.907   2.723  0.5718 -0.2336 -0.3216
  689MOL0     O90819   2.022   5.967   2.603 -0.4759  0.7937  0.0247
  689MOL0     C90820   1.939   6.071   2.602  0.3313 -0.8830  0.4912
  689MOL0     C90821   1.967   6.177   2.521  0.3194  0.3708 -0.2850
  689MOL0     C90822   1.905   6.303   2.532  0.2277  0.0865  0.1830
  689MOL0     C90823   1.796   6.311   2.621 -0.2778 -0.2615  1.2538
  689MOL0     O90824   1.735   6.425   2.660 -0.9011 -0.1705 -1.2016
  689MOL0     C90825   1.796   6.554   2.661 -0.4735 -0.4369  0.8921
  689MOL0     C90826   1.716   6.655   2.734 -0.5359 -0.3828 -0.4525
  689MOL0     C90827   1.773   6.798   2.738 -0.2979  0.1462 -0.9061
  689MOL0     C90828   1.686   6.898   2.818  0.2592  0.8203  0.4613
  689MOL0     C90829   1.746   7.038   2.812 -0.7377 -0.7038  0.2131
  689MOL0     C90830   1.744   7.109   2.668  0.2423  0.0728  0.6155
  689MOL0     C90831   1.602   7.167   2.637  0.6836  0.4821  0.4902
  689MOL0     C90832   1.574   7.257   2.515 -0.8927 -0.0227  0.3251
  689MOL0     N90833   1.435   7.291   2.497  0.1204  0.4384  0.2918
  689MOL0     C90834   1.398   7.397   2.421 -0.2688 -0.1553  0.5567
  689MOL0     C90835   1.271   7.419   2.448  0.1176  0.4155  0.7582
  689MOL0     C90836   1.195   7.547   2.405 -0.6543  0.2925  0.7448
  689MOL0     C90837   1.108   7.611   2.519  0.3224 -0.0737 -0.4621
  689MOL0     C90838   1.033   7.736   2.479 -0.5892 -0.3326  0.4283
  689MOL0     C90839   0.962   7.801   2.595  1.3050 -0.1204  0.0331
  689MOL0     O90840   0.865   7.714   2.654  0.7999  0.0051 -0.2255
  689MOL0     C90841   0.741   7.753   2.606 -0.5915  0.2620 -0.0033
  689MOL0     C90842   0.672   7.680   2.514 -0.1321  0.6742 -0.3154
  689MOL0     C90843   0.550   7.711   2.463  1.0597 -0.6150 -0.9078
  689MOL0     C90844   0.489   7.826   2.513 -0.5557 -0.7043 -0.2732
  689MOL0     C90845   0.356   7.869   2.469  0.0576 -0.3821  0.5524
  689MOL0     O90846   0.283   7.970   2.528  0.4776 -0.4874 -0.8185
  689MOL0     C90847   0.163   8.004   2.481  0.3785 -0.1930  0.4626
  689MOL0     C90848   0.149   8.145   2.459  0.0087  0.1430  0.1081
  689MOL0     C90849   0.030   8.196   2.411 -0.4605  0.4242  1.1798
  689MOL0     C90850  -0.074   8.104   2.373 -0.4960 -0.1437  1.0017
  689MOL0     O90851  -0.200   8.136   2.332  0.0430 -1.0727  0.1192
  689MOL0     C90852  -0.232   8.214   2.222 -0.1839 -0.1992  0.3947
  689MOL0     C90853  -0.380   8.188   2.190 -0.6909  0.0570 -0.2953
  689MOL0     C90854  -0.417   8.202   2.047  0.2291 -0.0282 -0.1886
  689MOL0     C90855  -0.533   8.121   1.992  0.2697  0.4795 -0.8019
  689MOL0     C90856  -0.592   8.158   1.859  0.8399 -0.0532  0.0213
  689MOL0     C90857  -0.738   8.102   1.843 -0.1235  0.5296 -0.2673
  689MOL0     C90858  -0.752   7.963   1.807 -0.4636 -0.5588  0.6625
  689MOL0     C90859  -0.894   7.911   1.780 -0.0738 -0.4399  1.1223
  689MOL0    Cl90860  -0.866   7.738   1.722 -0.1181 -0.0618 -0.5142
  689MOL0     C90861  -0.055   7.969   2.386 -0.2193  0.0438  0.6969
  689MOL0     C90862   0.064   7.920   2.449 -0.1823 -0.0172  0.2966
  689MOL0     O90863   0.311   7.796   2.377  0.0003 -0.2046  0.1389
  689MOL0     C90864   0.559   7.904   2.612  0.8746 -0.5527  0.2197
  689MOL0     C90865   0.683   7.868   2.657  0.2974 -0.0193  0.6752
  689MOL0     N90866   1.209   7.304   2.500  0.5460 -0.2308 -0.5199
  689MOL0     N90867   1.319   7.239   2.534  0.7525  0.7691 -0.3249
  689MOL0     C90868   1.755   6.195   2.693  0.5402 -0.2964 -0.5444
  689MOL0     C90869   1.824   6.079   2.686 -0.1651  0.1617 -0.1331
  689MOL0     C90870   2.108   5.770   2.714 -0.0566 -0.7561  0.7333
  689MOL0     C90871   2.153   5.707   2.593 -0.3966 -0.0061  0.6729
  689MOL0     C90872   2.221   5.586   2.588  0.1098  0.0004  0.1152
  689MOL0     C90873   2.225   5.516   2.710  0.3202  0.5221  0.4255
  689MOL0     O90874   2.303   5.412   2.750 -0.2746 -0.2044  0.0809
  689MOL0     C90875   2.397   5.354   2.661 -0.3213 -0.9715  0.0673
  689MOL0     C90876   2.379   5.204   2.684 -0.0806 -0.4960  0.9137
  689MOL0     C90877   2.473   5.111   2.588 -0.3655 -1.1559  0.2765
  689MOL0     C90878   2.630   5.141   2.586 -0.0240 -0.2996 -0.0486
  689MOL0     C90879   2.667   5.138   2.730 -0.6113  0.1398 -0.3693
  689MOL0     C90880   2.714   5.123   2.839 -0.2758 -0.9298  0.9855
  689MOL0     C90881   2.162   5.563   2.822  0.5849 -0.7012 -0.1947
  689MOL0     C90882   2.098   5.689   2.823 -0.1248  0.5594 -1.0904
  689MOL0     H90883   2.062   6.166   2.470 -0.1089  1.2639 -1.2959
  689MOL0     H90884   1.941   6.376   2.461  2.6380 -1.8934 -0.7853
  689MOL0     H90885   1.810   6.592   2.560 -1.3440  0.6735  1.1708
  689MOL0     H90886   1.898   6.548   2.700  0.1250 -0.1905 -0.5670
  689MOL0     H90887   1.700   6.624   2.838  0.9553  0.8780  0.1829
  689MOL0     H90888   1.619   6.648   2.683  0.6827 -1.6246 -2.7576
  689MOL0     H90889   1.785   6.828   2.634  1.4666 -0.9983 -1.0762
  689MOL0     H90890   1.869   6.781   2.788 -2.0266 -4.1888  1.5286
  689MOL0     H90891   1.589   6.906   2.768  1.0686  3.0445 -0.9330
  689MOL0     H90892   1.666   6.866   2.920 -1.7609 -1.6502 -0.6061
  689MOL0     H90893   1.849   7.026   2.846  0.5611  1.9563 -2.3890
  689MOL0     H90894   1.695   7.112   2.874 -1.4121 -1.5291  0.6770
  689MOL0     H90895   1.772   7.042   2.586 -0.5072  0.1658  0.2747
  689MOL0     H90896   1.809   7.196   2.659 -0.3193  0.2729 -3.4333
  689MOL0     H90897   1.533   7.083   2.629 -0.3508  1.5068 -3.4418
  689MOL0     H90898   1.573   7.217   2.730 -1.1047 -1.6592  1.1624
  689MOL0     H90899   1.598   7.210   2.419 -0.7181  1.7544 -0.5464
  689MOL0     H90900   1.636   7.347   2.516 -1.6295  0.4953  0.3322
  689MOL0     H90901   1.465   7.470   2.376 -2.0924  1.9841  1.0957
  689MOL0     H90902   1.113   7.525   2.336 -0.6049  0.2997  0.6846
  689MOL0     H90903   1.265   7.605   2.345  0.4362  0.9570  2.5745
  689MOL0     H90904   1.171   7.643   2.602 -1.4995  1.4446  0.4062
  689MOL0     H90905   1.037   7.536   2.555  1.2859  0.4936  2.9107
  689MOL0     H90906   1.109   7.808   2.449 -1.5858 -0.3995 -2.5903
  689MOL0     H90907   0.958   7.726   2.400 -0.5924  1.4697  0.1610
  689MOL0     H90908   0.918   7.897   2.565 -0.7088 -0.2148  2.3500
  689MOL0     H90909   1.030   7.827   2.676 -0.1508  1.9866  0.6635
  689MOL0     H90910   0.715   7.586   2.482 -1.4112  0.0019 -0.1307
  689MOL0     H90911   0.508   7.635   2.398 -0.2811 -2.1746  1.5726
  689MOL0     H90912   0.228   8.217   2.478 -0.1989 -0.4457  4.0138
  689MOL0     H90913   0.029   8.304   2.396 -1.0941 -0.0005 -2.8198
  689MOL0     H90914  -0.191   8.172   2.129 -1.4088  0.1580 -0.3279
  689MOL0     H90915  -0.216   8.322   2.231 -1.1784  0.1311 -1.4125
  689MOL0     H90916  -0.452   8.242   2.252 -3.7043 -1.5718 -2.0904
  689MOL0     H90917  -0.382   8.082   2.219  0.4771  0.5592  1.7871
  689MOL0     H90918  -0.328   8.170   1.992  0.7187 -0.8980  1.0508
  689MOL0     H90919  -0.446   8.306   2.032  2.4491  0.9914  1.8842
  689MOL0     H90920  -0.493   8.020   1.982  2.2217  1.2913 -1.7330
  689MOL0     H90921  -0.616   8.111   2.062  0.6670  0.9634 -0.2510
  689MOL0     H90922  -0.530   8.124   1.776 -1.4836 -1.8879 -1.1039
  689MOL0     H90923  -0.602   8.266   1.853 -0.0027 -0.0668  0.8682
  689MOL0     H90924  -0.784   8.168   1.768 -1.4551 -1.8865 -1.6963
  689MOL0     H90925  -0.793   8.116   1.936 -1.3069 -2.0696 -0.5077
  689MOL0     H90926  -0.688   7.940   1.721 -1.4053 -2.2888  0.3743
  689MOL0     H90927  -0.732   7.905   1.897 -4.2897  0.0233  2.0777
  689MOL0     H90928  -0.949   7.974   1.708 -1.9196  1.0883  3.7016
  689MOL0     H90929  -0.943   7.906   1.878  1.4624 -3.4617  1.8274
  689MOL0     H90930  -0.142   7.912   2.356 -1.6870  2.4640  0.1437
  689MOL0     H90931   0.087   7.814   2.459  2.7039  0.5149  0.2876
  689MOL0     H90932   0.502   7.984   2.659 -0.5063 -1.0936 -0.4779
  689MOL0     H90933   0.731   7.928   2.734 -1.6019 -0.3940  2.2186
  689MOL0     H90934   1.681   6.212   2.770  3.2544  1.8403  1.8057
  689MOL0     H90935   1.793   6.004   2.758  1.0797 -1.0856 -0.8502
  689MOL0     H90936   2.166   5.770   2.505 -0.8975  1.6495  1.7218
  689MOL0     H90937   2.266   5.547   2.497 -1.5102 -2.7844  0.4003
  689MOL0     H90938   2.503   5.376   2.675  0.4495 -3.2684 -1.5557
  689MOL0     H90939   2.369   5.379   2.558 -0.7781  0.3233  0.4817
  689MOL0     H90940   2.402   5.195   2.790  2.3804 -1.7592  0.3693
  689MOL0     H90941   2.280   5.164   2.665 -0.2049  0.7137 -1.3400
  689MOL0     H90942   2.438   5.121   2.485  2.1273  1.2022 -0.4480
  689MOL0     H90943   2.453   5.009   2.623 -2.3407 -0.0887  2.5481
  689MOL0     H90944   2.696   5.070   2.534  2.9023  1.4436  1.0181
  689MOL0     H90945   2.654   5.237   2.539  0.3087 -0.2443  0.2345
  689MOL0     H90946   2.743   5.123   2.942  2.8806  0.4135  0.2032
  689MOL0     H90947   2.177   5.519   2.920  1.4200 -1.9069 -0.8386
  689MOL0     H90948   2.036   5.713   2.909 -3.5770 -0.7406 -3.0045
  690MOL0     O90949   1.218   0.259  10.216  0.4923  0.2637 -0.1048
  690MOL0     C90950   1.207   0.188  10.113  0.6838 -0.7809 -0.2885
  690MOL0     O90951   1.299   0.193  10.006  0.0297 -0.2412  0.0984
  690MOL0     C90952   1.404   0.284   9.996 -0.2375  0.3340  0.0290
  690MOL0     C90953   1.399   0.417  10.050 -0.6476 -0.5321  0.1999
  690MOL0     C90954   1.502   0.502  10.012 -0.8228 -1.3892  0.2751
  690MOL0     C90955   1.610   0.468   9.933 -0.2040  0.6504 -0.7874
  690MOL0     O90956   1.701   0.570   9.920  0.5995  0.3971  0.2863
  690MOL0     C90957   1.833   0.536   9.873 -0.0523  0.8590  0.4008
  690MOL0     C90958   1.904   0.665   9.887  0.7569  0.2132 -0.4767
  690MOL0     C90959   1.879   0.748  10.021 -0.5178 -0.2160  0.3301
  690MOL0     C90960   1.990   0.860  10.046  0.1471  0.6299 -0.0724
  690MOL0     C90961   2.005   0.974   9.930 -0.1264 -0.3179 -0.5638
  690MOL0     C90962   2.057   1.108   9.991 -0.5622  0.5195  0.1725
  690MOL0     C90963   2.189   1.097  10.068  0.4851  0.2019  0.1572
  690MOL0     C90964   2.311   1.058   9.983 -0.3212 -0.4179  0.0318
  690MOL0     N90965   2.348   0.916   9.996  0.3575 -0.5359  0.6120
  690MOL0     C90966   2.344   0.822   9.902  0.8344 -0.4123 -0.0211
  690MOL0     C90967   2.376   0.706   9.959  0.4209 -0.3187  0.5456
  690MOL0     C90968   2.377   0.576   9.886 -1.1528 -0.6347 -0.4798
  690MOL0     C90969   2.507   0.556   9.815 -0.9744  0.2565  0.3251
  690MOL0     C90970   2.500   0.457   9.697  0.1954 -0.1398 -0.4969
  690MOL0     C90971   2.635   0.425   9.629  0.2942  0.0387 -0.0213
  690MOL0     O90972   2.617   0.322   9.531  0.3978 -0.3663 -0.4964
  690MOL0     C90973   2.726   0.281   9.454 -0.4107  0.5363 -0.6129
  690MOL0     C90974   2.850   0.323   9.481  0.1463  0.3593 -0.3414
  690MOL0     C90975   2.955   0.294   9.389  0.8952 -0.0855  0.0567
  690MOL0     C90976   2.938   0.204   9.279 -0.2742 -0.4136 -0.0310
  690MOL0     C90977   3.061   0.155   9.194 -0.1275  0.7586 -0.0726
  690MOL0     O90978   3.182   0.223   9.219  0.6631 -0.9645 -0.4647
  690MOL0     C90979   3.301   0.192   9.149  0.2919 -0.5218  0.0218
  690MOL0     C90980   3.304   0.202   9.010  0.2305  0.6483 -0.0196
  690MOL0     C90981   3.426   0.177   8.940  0.6707  0.4516 -0.0127
  690MOL0     C90982   3.541   0.135   8.998  0.1360 -0.4641  0.5561
  690MOL0     O90983   3.653   0.134   8.914 -0.1379 -0.0736 -0.6767
  690MOL0     C90984   3.746   0.033   8.944  0.6850  0.0759 -1.1309
  690MOL0     C90985   3.851   0.033   8.832 -0.3595  0.8365 -0.5274
  690MOL0     C90986   3.966  -0.074   8.855 -0.8154 -0.0731  0.6108
  690MOL0     C90987   4.089  -0.080   8.751 -0.6430 -0.3503 -0.3705
  690MOL0     C90988   4.203  -0.171   8.802 -0.2889  0.4806 -0.0790
  690MOL0     C90989   4.341  -0.132   8.769 -0.2779 -0.1190  0.7912
  690MOL0     C90990   4.358  -0.077   8.620 -1.1087 -0.6605  0.0611
  690MOL0     C90991   4.505  -0.081   8.573  0.3820 -0.1759  0.2507
  690MOL0    Cl90992   4.530  -0.235   8.490  0.3287  0.3576 -0.1866
  690MOL0     C90993   3.537   0.120   9.136  0.3769 -0.6199 -0.3093
  690MOL0     C90994   3.419   0.158   9.212 -0.2871  0.5094 -0.0698
  690MOL0     O90995   3.037   0.080   9.095  0.6345  0.0571 -0.1913
  690MOL0     C90996   2.805   0.164   9.254  0.9470  0.3457  0.4799
  690MOL0     C90997   2.704   0.200   9.348  0.1890  0.1972  0.1422
  690MOL0     N90998   2.423   0.731  10.087  0.1756 -0.9180 -0.4035
  690MOL0     N90999   2.408   0.859  10.103  0.3440  0.9372  0.4828
  690MOL0     C91000   1.615   0.338   9.872  0.2536 -0.3533  0.6467
  690MOL0     C91001   1.511   0.249   9.910 -0.2988 -0.9563 -0.3519
  690MOL0     C91002   1.081   0.114  10.087 -0.9389 -0.4604  0.0454
  690MOL0     C91003   0.980   0.126  10.180  0.1560 -0.4836  0.5600
  690MOL0     C91004   0.856   0.066  10.169 -0.1527  0.0390  0.4199
  690MOL0     C91005   0.832  -0.025  10.064  0.1777 -0.0359 -0.1759
  690MOL0     O91006   0.705  -0.081  10.057 -0.1479  0.1299  0.6324
  690MOL0     C91007   0.666  -0.156   9.942 -0.6250  0.1400 -0.2570
  690MOL0     C91008   0.713  -0.299   9.948  0.9069 -0.1131 -0.0608
  690MOL0     C91009   0.652  -0.393   9.849 -0.0661 -0.0168 -0.0839
  690MOL0     C91010   0.530  -0.476   9.897 -0.4936 -0.2321  0.0758
  690MOL0     C91011   0.398  -0.404   9.909  0.2626 -1.0533 -0.2394
  690MOL0     C91012   0.297  -0.340   9.912 -0.0736  0.2085 -0.3551
  690MOL0     C91013   0.936  -0.045   9.968  0.3382  0.2887 -0.7455
  690MOL0     C91014   1.058   0.023   9.979 -0.6596  0.0951 -0.0062
  690MOL0     H91015   1.319   0.477  10.091 -0.2308  1.3694 -1.6215
  690MOL0     H91016   1.500   0.602  10.055 -1.4589 -1.0619 -0.4823
  690MOL0     H91017   1.840   0.491   9.774  1.7301 -0.2991  1.0068
  690MOL0     H91018   1.882   0.465   9.941  0.3815  2.6402  2.0504
  690MOL0     H91019   1.894   0.734   9.803  2.5875  0.8562 -0.2289
  690MOL0     H91020   2.011   0.638   9.886  0.2727 -1.9093 -0.9051
  690MOL0     H91021   1.885   0.679  10.106 -0.7983 -2.9317 -1.7389
  690MOL0     H91022   1.780   0.793  10.033 -0.3925  0.8115 -2.0297
  690MOL0     H91023   1.961   0.903  10.143 -0.7386 -2.7761  1.3312
  690MOL0     H91024   2.089   0.815  10.055  1.8039  4.1222  0.6594
  690MOL0     H91025   1.905   0.996   9.891 -0.3719 -0.2729  0.0767
  690MOL0     H91026   2.070   0.933   9.852 -1.3859  0.7852 -2.2596
  690MOL0     H91027   1.982   1.128  10.068  0.8290 -0.2949  1.7973
  690MOL0     H91028   2.056   1.180   9.909  2.4184  1.9018  1.2128
  690MOL0     H91029   2.224   1.192  10.111 -2.3105  0.7547  1.4367
  690MOL0     H91030   2.169   1.025  10.147  1.9369 -3.5816 -2.6359
  690MOL0     H91031   2.405   1.105  10.014  0.2894  0.0420 -2.3692
  690MOL0     H91032   2.285   1.072   9.878  2.4462 -1.5723 -0.9132
  690MOL0     H91033   2.300   0.834   9.804 -1.1866 -0.2563  0.8546
  690MOL0     H91034   2.296   0.570   9.812 -3.3609  2.8605  1.3355
  690MOL0     H91035   2.377   0.488   9.951  1.3121 -1.8317 -1.9435
  690MOL0     H91036   2.592   0.528   9.877 -0.0398  2.0677 -0.0564
  690MOL0     H91037   2.544   0.649   9.770 -2.2385  1.4251  1.6053
  690MOL0     H91038   2.452   0.364   9.728 -1.9925  0.3964 -2.0417
  690MOL0     H91039   2.439   0.506   9.621 -0.0051  1.5244  0.6661
  690MOL0     H91040   2.706   0.388   9.704  0.3123 -0.7802 -0.4254
  690MOL0     H91041   2.686   0.516   9.598 -1.8982  0.8898 -1.3394
  690MOL0     H91042   2.878   0.389   9.562  0.2641  1.9640 -1.6224
  690MOL0     H91043   3.053   0.335   9.414  0.4514 -0.2603  2.2755
  690MOL0     H91044   3.211   0.221   8.958 -0.3541  0.0527  0.7733
  690MOL0     H91045   3.416   0.180   8.832  1.4724 -1.2040 -0.1530
  690MOL0     H91046   3.692  -0.062   8.951  3.3289 -1.4010  1.8402
  690MOL0     H91047   3.786   0.054   9.044 -0.0561  0.3543 -0.8890
  690MOL0     H91048   3.899   0.131   8.825 -2.0177  1.7499  0.4323
  690MOL0     H91049   3.801   0.007   8.738 -3.4621  1.6677  0.7921
  690MOL0     H91050   3.912  -0.169   8.849  1.9394 -1.7680  1.2944
  690MOL0     H91051   4.009  -0.069   8.956 -0.8937  0.6240  0.6178
  690MOL0     H91052   4.059  -0.114   8.651 -1.8947 -3.2878  0.8901
  690MOL0     H91053   4.118   0.025   8.741 -3.1844  0.8533  2.9534
  690MOL0     H91054   4.173  -0.265   8.755  0.2217  0.8229 -1.1068
  690MOL0     H91055   4.190  -0.176   8.911 -0.6410 -0.2291 -0.1475
  690MOL0     H91056   4.401  -0.223   8.782 -0.1504 -0.0530  0.6655
  690MOL0     H91057   4.360  -0.059   8.849 -0.2397 -0.6730  1.2913
  690MOL0     H91058   4.307  -0.158   8.567 -0.2333 -0.8038 -0.5895
  690MOL0     H91059   4.319   0.024   8.603 -0.9412 -0.9374 -2.2635
  690MOL0     H91060   4.581  -0.078   8.651  0.2889 -2.0055  0.4419
  690MOL0     H91061   4.523   0.005   8.507  1.8375  0.9686  2.0228
  690MOL0     H91062   3.629   0.101   9.190  1.2895 -1.1072 -1.9712
  690MOL0     H91063   3.421   0.181   9.318 -0.5174 -1.3931  0.3758
  690MOL0     H91064   2.790   0.092   9.174  2.0395  1.5702 -0.8777
  690MOL0     H91065   2.612   0.146   9.331 -1.0028  2.3412 -0.4658
  690MOL0     H91066   1.682   0.318   9.789  0.2237 -1.6767  0.9068
  690MOL0     H91067   1.507   0.153   9.860 -0.2583 -0.1734 -1.9043
  690MOL0     H91068   0.991   0.183  10.271 -2.3027  1.2117 -0.1044
  690MOL0     H91069   0.773   0.086  10.236 -0.5505  0.6505 -0.2347
  690MOL0     H91070   0.696  -0.111   9.847  0.4304  1.2746  0.5773
  690MOL0     H91071   0.557  -0.160   9.938 -0.5630 -3.5090 -3.6003
  690MOL0     H91072   0.821  -0.299   9.926  0.8283 -1.4043 -0.5195
  690MOL0     H91073   0.699  -0.349  10.044 -2.4346 -2.4630 -1.5906
  690MOL0     H91074   0.727  -0.462   9.809  1.1462 -0.2333  2.4130
  690MOL0     H91075   0.629  -0.336   9.759 -0.5276  0.8532  0.5741
  690MOL0     H91076   0.507  -0.552   9.821  0.9793  0.1764 -0.8123
  690MOL0     H91077   0.555  -0.526   9.992 -1.6153 -0.5530  0.2172
  690MOL0     H91078   0.206  -0.285   9.901 -0.9590 -1.4361 -1.6005
  690MOL0     H91079   0.917  -0.112   9.885 -4.3826  2.4951 -1.7509
  690MOL0     H91080   1.132   0.007   9.901  1.4336  3.0812  1.2064
  691MOL0     O91081   3.764   2.218   5.639  0.3254 -0.2686 -0.2051
  691MOL0     C91082   3.813   2.192   5.532  1.2151 -0.8738 -0.3254
  691MOL0     O91083   3.940   2.208   5.497 -0.5288 -0.1801  0.2090
  691MOL0     C91084   4.033   2.246   5.591  0.5351 -0.0743 -0.1646
  691MOL0     C91085   4.160   2.259   5.532  0.0628 -0.2132 -0.8180
  691MOL0     C91086   4.272   2.274   5.607 -0.4219  0.0222 -0.3505
  691MOL0     C91087   4.269   2.275   5.747 -0.2350 -0.3854 -1.3797
  691MOL0     O91088   4.380   2.284   5.828 -0.3564  0.4900 -0.2183
  691MOL0     C91089   4.506   2.239   5.768 -0.5230 -0.2578 -0.7471
  691MOL0     C91090   4.609   2.264   5.869 -0.0762 -0.4645 -1.3876
  691MOL0     C91091   4.727   2.167   5.840 -0.1226  0.0611 -0.4154
  691MOL0     C91092   4.805   2.210   5.707  0.0386  0.5351  0.2430
  691MOL0     C91093   4.957   2.228   5.726  0.3893 -0.0238 -0.0314
  691MOL0     C91094   5.017   2.091   5.722 -0.1809 -0.7411 -0.6987
  691MOL0     C91095   5.162   2.067   5.745  0.3287  0.2366  0.2529
  691MOL0     C91096   5.262   2.131   5.653 -0.1150  0.1121  0.3689
  691MOL0     N91097   5.400   2.135   5.705  0.1678  0.1387 -0.1246
  691MOL0     C91098   5.480   2.025   5.715  0.2873 -0.4448  0.7296
  691MOL0     C91099   5.591   2.066   5.765  0.3091  0.5420  0.9570
  691MOL0     C91100   5.712   1.984   5.787  0.9070  0.1922  0.0041
  691MOL0     C91101   5.701   1.875   5.884  0.8993  0.7281 -0.9024
  691MOL0     C91102   5.835   1.820   5.938 -0.0454 -0.0589  0.0147
  691MOL0     C91103   5.924   1.754   5.832  0.7439  0.2302 -0.2049
  691MOL0     O91104   6.042   1.713   5.900 -0.6645 -0.0737  0.4814
  691MOL0     C91105   6.057   1.597   5.985  0.9022  0.4741  0.0339
  691MOL0     C91106   5.960   1.494   5.986 -0.3719 -0.4407 -0.4674
  691MOL0     C91107   5.972   1.387   6.073  0.2392  1.1383  0.0151
  691MOL0     C91108   6.075   1.388   6.163  0.6060 -1.5073 -0.9267
  691MOL0     C91109   6.100   1.268   6.251  0.4580  0.2713  0.4684
  691MOL0     O91110   6.209   1.265   6.343  0.0600  0.0173  0.0053
  691MOL0     C91111   6.237   1.146   6.397  0.8571 -0.2498 -1.1015
  691MOL0     C91112   6.265   1.031   6.320  0.8259 -0.3117  0.8580
  691MOL0     C91113   6.284   0.912   6.383  0.8678 -0.3523  0.2038
  691MOL0     C91114   6.261   0.902   6.518  0.3708  1.5354  0.2454
  691MOL0     O91115   6.275   0.783   6.579  0.5449 -0.5304 -0.2251
  691MOL0     C91116   6.219   0.673   6.516  0.9029  0.2546  0.6681
  691MOL0     C91117   6.215   0.569   6.628  0.7219  0.1925 -0.2959
  691MOL0     C91118   6.080   0.588   6.711  0.5212  1.1362  0.0974
  691MOL0     C91119   6.075   0.703   6.808  0.5960 -0.0664 -0.3348
  691MOL0     C91120   6.190   0.709   6.914 -0.4722  0.1826 -0.4688
  691MOL0     C91121   6.174   0.583   7.004 -0.3345  0.0888 -0.1802
  691MOL0     C91122   6.264   0.599   7.132  0.0430  1.3154  1.4170
  691MOL0     C91123   6.238   0.493   7.237 -0.4704 -0.0590 -1.2909
  691MOL0    Cl91124   6.274   0.327   7.168  0.2560  0.0181 -0.2432
  691MOL0     C91125   6.247   1.016   6.594  1.2137 -0.8285  0.0962
  691MOL0     C91126   6.228   1.142   6.541 -0.5347  0.6825  0.0205
  691MOL0     O91127   6.023   1.174   6.233  0.3366 -0.2618 -0.0664
  691MOL0     C91128   6.168   1.488   6.170 -0.1141 -0.6675 -0.6728
  691MOL0     C91129   6.152   1.591   6.079 -0.2074 -0.0447  0.1039
  691MOL0     N91130   5.575   2.196   5.804  0.3284  0.6122  0.2928
  691MOL0     N91131   5.464   2.242   5.751 -0.0428 -0.1237  0.3625
  691MOL0     C91132   4.145   2.257   5.807 -0.0366  0.8583 -1.1673
  691MOL0     C91133   4.029   2.235   5.736 -0.3359  0.6112 -0.8058
  691MOL0     C91134   3.718   2.153   5.425 -1.0031 -0.9890 -0.8667
  691MOL0     C91135   3.767   2.095   5.301 -0.1792 -0.0295  0.3303
  691MOL0     C91136   3.685   2.083   5.190  0.1695 -0.1465  0.5883
  691MOL0     C91137   3.548   2.111   5.195 -0.0621  0.2084 -0.1483
  691MOL0     O91138   3.464   2.079   5.090  0.5293  0.0895  0.1211
  691MOL0     C91139   3.363   1.979   5.116 -0.1467  1.1370 -0.5534
  691MOL0     C91140   3.278   1.957   4.997  0.9510  0.3760  1.6409
  691MOL0     C91141   3.188   2.074   4.950  0.9096  0.4502  0.4652
  691MOL0     C91142   3.128   2.045   4.806  0.8860 -0.4708 -0.5127
  691MOL0     C91143   3.003   1.971   4.801  0.5678  0.8566  0.7130
  691MOL0     C91144   2.905   1.904   4.787  0.9642  0.2557  0.6900
  691MOL0     C91145   3.504   2.171   5.313 -0.6060  0.7687 -0.6526
  691MOL0     C91146   3.584   2.202   5.424 -0.6624  0.4962  0.1979
  691MOL0     H91147   4.156   2.251   5.424 -1.7930  0.6525 -0.8477
  691MOL0     H91148   4.368   2.295   5.562 -0.5790  0.4117 -0.5139
  691MOL0     H91149   4.524   2.292   5.674  0.5650  1.5151  0.3990
  691MOL0     H91150   4.496   2.133   5.742 -1.9798  0.6561 -4.6547
  691MOL0     H91151   4.570   2.251   5.970 -1.6322 -0.5916 -1.9787
  691MOL0     H91152   4.635   2.370   5.863 -1.6625  0.2255  1.6454
  691MOL0     H91153   4.685   2.067   5.825  0.4025 -0.2680  0.2664
  691MOL0     H91154   4.793   2.162   5.927 -2.1185 -3.2928  1.0944
  691MOL0     H91155   4.775   2.140   5.628 -2.0387  1.1610  0.4170
  691MOL0     H91156   4.767   2.310   5.685 -5.0000 -0.7371  1.8463
  691MOL0     H91157   4.975   2.286   5.817  4.4310  1.4759 -1.5621
  691MOL0     H91158   5.013   2.274   5.644  1.9080  1.3869  1.6828
  691MOL0     H91159   4.988   2.044   5.628 -0.9615  1.0506 -1.3971
  691MOL0     H91160   4.969   2.031   5.800  0.8396 -0.9518 -0.2178
  691MOL0     H91161   5.185   2.103   5.846  1.0437  2.1431 -0.5605
  691MOL0     H91162   5.179   1.958   5.745 -0.8873 -0.0418  3.0105
  691MOL0     H91163   5.229   2.234   5.637  3.2121  1.0830 -1.0629
  691MOL0     H91164   5.281   2.063   5.569  3.5481 -0.4006  1.4586
  691MOL0     H91165   5.448   1.925   5.685 -0.5541 -0.0842  0.3860
  691MOL0     H91166   5.786   2.054   5.825  2.6683 -0.4767 -1.9619
  691MOL0     H91167   5.742   1.936   5.693 -0.1404  0.4714 -0.4822
  691MOL0     H91168   5.651   1.784   5.850  1.2168  1.7573 -4.5624
  691MOL0     H91169   5.637   1.918   5.962 -1.0107  0.9517 -2.5269
  691MOL0     H91170   5.892   1.900   5.986 -0.1668  0.5839 -0.8918
  691MOL0     H91171   5.820   1.742   6.014  0.9765 -2.1663 -1.8146
  691MOL0     H91172   5.941   1.827   5.753 -2.0989  2.7785  1.3131
  691MOL0     H91173   5.865   1.672   5.789 -0.0976 -0.1178  1.5168
  691MOL0     H91174   5.875   1.488   5.919 -0.6409 -0.6548 -0.1071
  691MOL0     H91175   5.903   1.305   6.064  1.1095  0.1627  1.8001
  691MOL0     H91176   6.273   1.034   6.212 -0.0991  1.4272  0.8009
  691MOL0     H91177   6.310   0.823   6.325  0.0164  0.3174 -1.2555
  691MOL0     H91178   6.283   0.638   6.434  0.2309  1.1887 -0.2865
  691MOL0     H91179   6.126   0.700   6.466  1.4561  3.0059  0.9492
  691MOL0     H91180   6.298   0.569   6.700  0.1606  3.1680  0.4717
  691MOL0     H91181   6.203   0.473   6.577 -1.2406  0.6426 -0.7747
  691MOL0     H91182   6.072   0.504   6.780 -0.2930 -0.0355 -1.3553
  691MOL0     H91183   5.987   0.582   6.654  0.5125 -2.6841  0.2603
  691MOL0     H91184   6.071   0.795   6.750 -2.4042 -0.1864 -0.4798
  691MOL0     H91185   5.980   0.695   6.863  0.9407 -1.6475  0.0892
  691MOL0     H91186   6.177   0.791   6.985 -0.2741 -2.6043  3.1137
  691MOL0     H91187   6.290   0.715   6.872 -0.2847  2.3886  0.1685
  691MOL0     H91188   6.211   0.491   6.958 -2.6574 -2.0436  1.9215
  691MOL0     H91189   6.071   0.568   7.037 -0.0073 -0.4033  0.6528
  691MOL0     H91190   6.370   0.603   7.105 -0.1433 -1.4639 -0.0791
  691MOL0     H91191   6.228   0.688   7.185  0.2461  2.3604 -0.1286
  691MOL0     H91192   6.137   0.485   7.276 -0.0992  0.4976 -0.1939
  691MOL0     H91193   6.299   0.517   7.325  0.5014  2.5689 -2.5943
  691MOL0     H91194   6.241   1.002   6.701  0.0105  4.0966  0.9145
  691MOL0     H91195   6.197   1.229   6.599 -2.6797  0.1827 -0.2617
  691MOL0     H91196   6.255   1.497   6.235  1.9875  2.7384 -3.5634
  691MOL0     H91197   6.231   1.664   6.084  2.1300 -2.4790  1.1768
  691MOL0     H91198   4.151   2.256   5.915 -1.1548 -1.7036 -1.0648
  691MOL0     H91199   3.940   2.205   5.791  1.4284 -2.3137  0.6834
  691MOL0     H91200   3.870   2.065   5.285 -0.4220 -0.0975 -1.2172
  691MOL0     H91201   3.726   2.035   5.102 -1.8090  2.1640 -1.7834
  691MOL0     H91202   3.293   2.005   5.197 -1.1376  0.0290 -1.0119
  691MOL0     H91203   3.416   1.891   5.154  2.5211  3.0338  0.3899
  691MOL0     H91204   3.335   1.921   4.912  0.7254  0.1871  1.5688
  691MOL0     H91205   3.217   1.871   5.025  0.8503  0.2703  1.0872
  691MOL0     H91206   3.252   2.162   4.942  1.0921  0.2295 -0.6408
  691MOL0     H91207   3.109   2.090   5.024  1.0820  1.0332  0.5278
  691MOL0     H91208   3.108   2.146   4.768 -0.6312 -0.7662 -0.5364
  691MOL0     H91209   3.213   2.022   4.740  1.8409  6.2845 -2.4704
  691MOL0     H91210   2.821   1.838   4.786  0.3504  0.9881 -1.2865
  691MOL0     H91211   3.406   2.217   5.312 -0.2465  1.6547  0.9959
  691MOL0     H91212   3.551   2.267   5.504  0.6477  3.1390 -1.2817
  692MOL0     O91213   4.087   2.069   9.739 -0.9057  0.0702  1.1038
  692MOL0     C91214   4.014   2.170   9.756 -0.8489 -0.4387 -0.1023
  692MOL0     O91215   3.894   2.200   9.691  0.1401 -0.6650  0.2046
  692MOL0     C91216   3.832   2.125   9.598 -0.0866  0.6417 -0.7117
  692MOL0     C91217   3.887   2.042   9.510 -0.7158  1.2318 -0.9151
  692MOL0     C91218   3.819   1.958   9.420  0.4023  0.1955 -0.0851
  692MOL0     C91219   3.678   1.969   9.415 -0.4351 -0.1209  0.0419
  692MOL0     O91220   3.606   1.905   9.317 -0.2851  0.2438 -0.3024
  692MOL0     C91221   3.634   1.760   9.310  0.2072  0.6286 -0.0649
  692MOL0     C91222   3.521   1.677   9.252 -0.0350 -0.1446  0.7318
  692MOL0     C91223   3.387   1.710   9.315  0.3678 -0.4145 -0.3402
  692MOL0     C91224   3.376   1.712   9.470 -0.4761 -0.4936 -0.3017
  692MOL0     C91225   3.233   1.699   9.521  1.2650  0.0368  0.2676
  692MOL0     C91226   3.155   1.577   9.466  0.9015 -0.4227 -0.2732
  692MOL0     C91227   3.148   1.466   9.578 -0.0300  0.2046  0.5466
  692MOL0     C91228   3.277   1.392   9.576 -0.7352 -0.2725  0.6159
  692MOL0     N91229   3.245   1.254   9.587 -0.0808  0.1336 -0.2319
  692MOL0     C91230   3.244   1.170   9.483 -0.0249  0.6322  0.0886
  692MOL0     C91231   3.249   1.042   9.538 -0.8431 -0.3939  0.2931
  692MOL0     C91232   3.277   0.913   9.477 -0.3126  0.3385  1.1526
  692MOL0     C91233   3.429   0.888   9.474 -0.6155  0.7617  1.0599
  692MOL0     C91234   3.472   0.752   9.413  0.2958  0.1047 -0.0163
  692MOL0     C91235   3.629   0.742   9.398  0.3216  0.2155 -0.0920
  692MOL0     O91236   3.670   0.608   9.405  0.4380 -0.5543 -0.2507
  692MOL0     C91237   3.760   0.557   9.313  0.0841  0.2687 -0.1482
  692MOL0     C91238   3.720   0.448   9.234 -0.2359 -0.3703 -0.2796
  692MOL0     C91239   3.802   0.396   9.139  0.3905 -0.5866  0.9708
  692MOL0     C91240   3.937   0.439   9.140 -0.4131  0.3489  0.0375
  692MOL0     C91241   4.052   0.361   9.071 -1.0784  0.3529 -0.5097
  692MOL0     O91242   4.167   0.428   9.062  0.2768 -0.4833 -0.0507
  692MOL0     C91243   4.269   0.410   8.968 -0.3184  0.7224 -0.5749
  692MOL0     C91244   4.327   0.285   8.942  0.6314 -0.1389 -0.7567
  692MOL0     C91245   4.443   0.283   8.857  0.6969 -0.1209  0.2064
  692MOL0     C91246   4.507   0.404   8.818  0.1469  0.0887  0.0093
  692MOL0     O91247   4.618   0.410   8.732 -0.4388  0.0832  0.0785
  692MOL0     C91248   4.680   0.288   8.697 -0.1567  0.0785 -0.7433
  692MOL0     C91249   4.820   0.318   8.643  0.5674  0.1572 -0.0614
  692MOL0     C91250   4.858   0.232   8.525  0.8142  0.8705  0.4023
  692MOL0     C91251   5.005   0.252   8.480 -0.4710 -0.2412  0.1175
  692MOL0     C91252   5.039   0.155   8.369  0.2776  0.7116 -0.0671
  692MOL0     C91253   4.972   0.173   8.237  0.7870 -0.8981  0.0501
  692MOL0     C91254   5.014   0.092   8.109 -0.2639  0.5424  0.3142
  692MOL0     C91255   5.004  -0.061   8.128  0.0677 -0.1809 -0.2608
  692MOL0    Cl91256   5.145  -0.124   8.213  0.4388 -0.1239  0.1646
  692MOL0     C91257   4.453   0.528   8.847 -0.1332 -0.3784 -0.2417
  692MOL0     C91258   4.333   0.527   8.929 -0.9954  0.9736  0.7184
  692MOL0     O91259   4.029   0.254   9.019 -0.6228  0.0908  0.5536
  692MOL0     C91260   3.979   0.547   9.219  0.5777  0.2786  0.6687
  692MOL0     C91261   3.892   0.615   9.297 -0.0876  0.9990 -0.0406
  692MOL0     N91262   3.252   1.056   9.672 -0.5783  0.3685  0.6708
  692MOL0     N91263   3.255   1.184   9.699  0.0759 -0.1448  0.0628
  692MOL0     C91264   3.625   2.060   9.501  0.5850  0.0756 -0.2984
  692MOL0     C91265   3.701   2.132   9.589 -1.0277  0.5614 -0.2855
  692MOL0     C91266   4.055   2.276   9.850 -0.1622 -0.3733 -0.0268
  692MOL0     C91267   3.955   2.340   9.930 -0.6105 -0.0804  0.2463
  692MOL0     C91268   3.993   2.453  10.004  0.5310  0.8742 -0.0876
  692MOL0     C91269   4.122   2.482  10.025 -0.1368 -0.4847 -0.3533
  692MOL0     O91270   4.158   2.578  10.111 -1.0049  0.1047 -0.5327
  692MOL0     C91271   4.201   2.705  10.052  0.4175  0.5906 -0.5824
  692MOL0     C91272   4.300   2.778  10.140 -0.3278 -0.2464  0.2098
  692MOL0     C91273   4.424   2.694  10.204 -0.2226 -0.4538  1.0392
  692MOL0     C91274   4.390   2.605  10.324  1.4734 -0.0422  0.4618
  692MOL0     C91275   4.496   2.558  10.414 -0.0618  0.0022  0.5661
  692MOL0     C91276   4.583   2.535  10.503  0.6356  0.4169 -0.5596
  692MOL0     C91277   4.226   2.414   9.957  0.5740 -0.7679  0.7189
  692MOL0     C91278   4.189   2.312   9.869  0.0605 -0.4526 -0.1446
  692MOL0     H91279   3.995   2.028   9.510 -0.6958  1.3688 -0.0982
  692MOL0     H91280   3.875   1.893   9.352  0.5842  0.3039 -0.0381
  692MOL0     H91281   3.636   1.712   9.408  3.1221 -0.1544 -0.4217
  692MOL0     H91282   3.734   1.745   9.269  2.5622  2.5825  4.3046
  692MOL0     H91283   3.533   1.569   9.259  1.3095 -0.0409  0.2877
  692MOL0     H91284   3.523   1.707   9.147  0.3663  2.4230  1.3987
  692MOL0     H91285   3.318   1.632   9.282  1.3242 -1.7218  0.6048
  692MOL0     H91286   3.362   1.811   9.282  1.0728 -0.1372 -0.0520
  692MOL0     H91287   3.430   1.636   9.528  4.0802  3.2120  0.9351
  692MOL0     H91288   3.438   1.792   9.511 -1.6255 -0.2573  1.0383
  692MOL0     H91289   3.179   1.791   9.497 -1.4335 -1.6651 -0.7115
  692MOL0     H91290   3.239   1.701   9.630  2.0888  1.2184  0.2140
  692MOL0     H91291   3.186   1.542   9.367  1.9956  4.5647 -1.9358
  692MOL0     H91292   3.052   1.604   9.443  0.3994 -2.0893 -0.1455
  692MOL0     H91293   3.122   1.500   9.678  3.7750 -0.0397  1.7550
  692MOL0     H91294   3.062   1.407   9.543 -0.2239  2.3704 -3.2826
  692MOL0     H91295   3.345   1.421   9.656 -0.6145 -1.3705  0.9255
  692MOL0     H91296   3.328   1.401   9.480 -0.3197 -0.6637  0.7986
  692MOL0     H91297   3.260   1.190   9.378  0.1679  0.0604  0.0052
  692MOL0     H91298   3.234   0.918   9.377 -1.1678 -2.1538  1.3203
  692MOL0     H91299   3.231   0.825   9.522 -0.2193 -1.4870 -2.0079
  692MOL0     H91300   3.463   0.899   9.577  1.5954  1.2198  0.3254
  692MOL0     H91301   3.475   0.971   9.420 -1.3101 -1.2176 -2.9844
  692MOL0     H91302   3.433   0.678   9.484 -1.3657 -2.4518 -3.3390
  692MOL0     H91303   3.439   0.734   9.311 -0.6381  1.9868 -0.0785
  692MOL0     H91304   3.672   0.807   9.475  0.8563 -0.7320  0.4208
  692MOL0     H91305   3.671   0.794   9.311  1.0293 -0.4096 -0.1345
  692MOL0     H91306   3.625   0.394   9.239  1.5660 -3.8868 -0.8227
  692MOL0     H91307   3.790   0.305   9.081  2.6757  0.1890 -0.8481
  692MOL0     H91308   4.282   0.193   8.978 -0.6810  0.9203  0.4276
  692MOL0     H91309   4.474   0.181   8.836 -3.6018 -2.1803  2.4356
  692MOL0     H91310   4.616   0.231   8.629  0.5666 -0.4795 -0.9747
  692MOL0     H91311   4.700   0.222   8.782  1.6370  0.4447 -0.8525
  692MOL0     H91312   4.889   0.309   8.727  0.1875  0.3862  0.2805
  692MOL0     H91313   4.822   0.422   8.609  2.4753  0.1092 -0.2141
  692MOL0     H91314   4.780   0.249   8.450 -1.1331 -0.6792  1.9468
  692MOL0     H91315   4.864   0.127   8.555 -3.2177 -0.0341 -1.3486
  692MOL0     H91316   5.016   0.353   8.438 -4.4145  0.3581  0.1017
  692MOL0     H91317   5.072   0.246   8.565  2.6696 -3.4328 -2.2715
  692MOL0     H91318   5.027   0.055   8.412  1.1698  0.6479  0.0541
  692MOL0     H91319   5.146   0.164   8.348  1.6642 -2.6524  4.1220
  692MOL0     H91320   4.976   0.280   8.215 -0.9358 -0.9422 -0.6436
  692MOL0     H91321   4.867   0.152   8.256  0.4625  1.1352  0.7354
  692MOL0     H91322   4.948   0.118   8.026 -0.1015 -1.9046 -0.6809
  692MOL0     H91323   5.116   0.110   8.074 -1.6514  1.2786 -3.9907
  692MOL0     H91324   5.012  -0.108   8.030  0.0893  1.3022 -1.0027
  692MOL0     H91325   4.908  -0.092   8.169 -0.4468 -0.3984 -1.5731
  692MOL0     H91326   4.505   0.621   8.826 -0.3136  0.0002  0.9027
  692MOL0     H91327   4.296   0.622   8.967  2.2566  3.3763 -1.6478
  692MOL0     H91328   4.084   0.573   9.230  0.3490  0.8609  1.5360
  692MOL0     H91329   3.919   0.705   9.352 -1.3718  0.5517  1.3836
  692MOL0     H91330   3.516   2.061   9.507  0.6324  2.7433  2.7503
  692MOL0     H91331   3.644   2.203   9.648  0.4711  3.8627 -2.5191
  692MOL0     H91332   3.850   2.312   9.935 -0.9193  1.1800  1.3666
  692MOL0     H91333   3.923   2.525  10.045  0.0741  1.9772 -2.6522
  692MOL0     H91334   4.109   2.761  10.065  0.8236  0.9920  0.6898
  692MOL0     H91335   4.234   2.696   9.948  0.3999 -1.4874 -0.4499
  692MOL0     H91336   4.331   2.865  10.082 -0.6302  1.5251  2.5442
  692MOL0     H91337   4.252   2.819  10.229  0.9295 -1.2385  1.4047
  692MOL0     H91338   4.497   2.767  10.241  3.2009 -2.2780 -1.4862
  692MOL0     H91339   4.466   2.636  10.121 -0.1399  4.8851 -3.2287
  692MOL0     H91340   4.320   2.654  10.393  0.1601 -0.4347 -0.5542
  692MOL0     H91341   4.330   2.523  10.284  1.5182 -0.3271  0.9727
  692MOL0     H91342   4.642   2.505  10.588  2.8335 -0.7854 -2.4038
  692MOL0     H91343   4.324   2.457   9.977  1.4453 -1.7592 -1.1596
  692MOL0     H91344   4.269   2.245   9.838  0.8430 -1.6669  3.8254
  693MOL0     O91345  10.152   9.336   9.102 -0.6996 -0.4527 -0.1821
  693MOL0     C91346  10.177   9.452   9.146 -0.4027 -0.4282  0.9596
  693MOL0     O91347  10.231   9.558   9.072 -0.3855  0.6318  0.5112
  693MOL0     C91348  10.256   9.540   8.934  0.7663  0.1086  0.1078
  693MOL0     C91349  10.161   9.483   8.843 -0.6046 -0.6162 -1.2799
  693MOL0     C91350  10.197   9.482   8.706 -0.0934 -1.5267 -0.0396
  693MOL0     C91351  10.327   9.535   8.661  0.5886 -0.3229 -0.1544
  693MOL0     O91352  10.376   9.511   8.532 -0.1811  0.3833 -0.3021
  693MOL0     C91353  10.393   9.381   8.497 -0.0661  1.4361  0.9297
  693MOL0     C91354  10.410   9.372   8.349  0.3810  0.4632  0.0056
  693MOL0     C91355  10.544   9.423   8.290 -0.2421 -0.5520 -0.2142
  693MOL0     C91356  10.546   9.423   8.143 -0.3779  0.0201 -0.1701
  693MOL0     C91357  10.693   9.404   8.105  0.0503 -0.2912  0.1842
  693MOL0     C91358  10.715   9.355   7.960 -0.0035 -0.9231 -0.2872
  693MOL0     C91359  10.679   9.482   7.877  0.1450  0.5894 -0.2226
  693MOL0     C91360  10.595   9.434   7.755 -1.2897 -0.1369  0.3571
  693MOL0     N91361  10.453   9.434   7.796 -0.1146  0.6587  0.3578
  693MOL0     C91362  10.364   9.546   7.799 -0.2931  0.6972  0.1805
  693MOL0     C91363  10.243   9.494   7.835 -0.0699 -1.4911  0.3604
  693MOL0     C91364  10.119   9.584   7.857  0.4307  0.1734 -0.0381
  693MOL0     C91365  10.131   9.670   7.985  0.2438  0.9900 -0.3550
  693MOL0     C91366   9.995   9.731   8.042 -1.3098  0.4382  0.1116
  693MOL0     C91367  10.032   9.836   8.150  0.9917  0.0324  0.1271
  693MOL0     O91368   9.898   9.877   8.162  0.1289 -0.8161  0.6628
  693MOL0     C91369   9.850   9.995   8.116  0.7752  0.0914  0.4029
  693MOL0     C91370   9.940  10.089   8.054  0.9970 -0.4949  0.4739
  693MOL0     C91371   9.885  10.204   8.005 -0.2396 -0.0136  0.6857
  693MOL0     C91372   9.750  10.231   8.021  0.4672  0.2945  0.1200
  693MOL0     C91373   9.690  10.364   7.988 -0.4553  0.2322 -0.0582
  693MOL0     O91374   9.574  10.399   8.047  0.7409 -0.7783 -0.0711
  693MOL0     C91375   9.527  10.530   8.045  0.4516 -0.2118 -0.3511
  693MOL0     C91376   9.413  10.551   7.970  0.0922  0.2421 -0.3926
  693MOL0     C91377   9.351  10.675   7.974  0.3959 -0.5236 -0.1742
  693MOL0     C91378   9.409  10.778   8.045  0.4186 -0.9552 -0.5129
  693MOL0     O91379   9.363  10.914   8.056 -0.5948 -0.4043 -0.2042
  693MOL0     C91380   9.228  10.915   8.083 -0.1789  0.4066 -0.1324
  693MOL0     C91381   9.214  11.060   8.107 -0.7607  0.5137  0.0755
  693MOL0     C91382   9.080  11.114   8.173  0.6010 -0.5480  0.4236
  693MOL0     C91383   8.971  11.150   8.070  1.1414  0.0883 -0.8637
  693MOL0     C91384   8.839  11.176   8.157  0.3651 -0.6391  0.1545
  693MOL0     C91385   8.722  11.228   8.056  0.7739  0.0319 -0.6840
  693MOL0     C91386   8.601  11.276   8.141 -0.5614  0.4988  0.2704
  693MOL0     C91387   8.486  11.340   8.065 -0.7739  0.4770 -0.4282
  693MOL0    Cl91388   8.419  11.233   7.940  0.0297  0.1507 -0.8480
  693MOL0     C91389   9.536  10.760   8.092  0.2427 -0.4976  0.3456
  693MOL0     C91390   9.595  10.631   8.111  0.9520 -0.3661 -0.2748
  693MOL0     O91391   9.756  10.440   7.917  0.1719 -0.7167 -0.3407
  693MOL0     C91392   9.662  10.140   8.089 -0.0301 -0.3561  0.0197
  693MOL0     C91393   9.713  10.019   8.132  0.5680  0.3631 -0.5885
  693MOL0     N91394  10.259   9.364   7.869  1.5029  1.3421 -1.4714
  693MOL0     N91395  10.382   9.330   7.836  0.5350  0.5914 -0.7237
  693MOL0     C91396  10.399   9.615   8.749 -0.3777 -0.2327  0.4215
  693MOL0     C91397  10.367   9.603   8.889 -1.0023  0.8549 -0.0530
  693MOL0     C91398  10.119   9.490   9.277  0.3777  0.5297 -0.9440
  693MOL0     C91399  10.002   9.421   9.334  0.2996 -0.7636 -0.0380
  693MOL0     C91400   9.972   9.462   9.468  0.8958 -0.0756 -0.3631
  693MOL0     C91401  10.036   9.563   9.541  0.7582 -0.3716 -0.1255
  693MOL0     O91402   9.982   9.576   9.671  0.6276 -0.0491  0.2899
  693MOL0     C91403   9.968   9.712   9.719 -0.1337 -0.3705 -0.5502
  693MOL0     C91404   9.893   9.703   9.855 -0.0237  0.1624 -0.2709
  693MOL0     C91405   9.763   9.611   9.861  0.6852  0.3418 -0.4717
  693MOL0     C91406   9.666   9.630   9.745  0.2470 -0.1519  0.2242
  693MOL0     C91407   9.602   9.758   9.733 -0.4276  0.0783 -0.2015
  693MOL0     C91408   9.556   9.866   9.716  0.1969 -0.1892 -0.4828
  693MOL0     C91409  10.147   9.629   9.479 -0.5584 -0.0383  0.1851
  693MOL0     C91410  10.187   9.597   9.351  0.6423  1.0739 -0.3594
  693MOL0     H91411  10.074   9.425   8.872  0.5885 -0.6097  2.8589
  693MOL0     H91412  10.129   9.430   8.639  0.1180 -5.3984  2.4464
  693MOL0     H91413  10.308   9.323   8.535 -2.0843  3.2393 -0.6351
  693MOL0     H91414  10.485   9.338   8.537  0.4251 -0.3178 -1.8173
  693MOL0     H91415  10.343   9.447   8.307  0.2913  1.1951  1.3974
  693MOL0     H91416  10.390   9.271   8.313 -4.0391  1.8558 -2.1631
  693MOL0     H91417  10.623   9.357   8.326  1.9840  0.0200 -3.5469
  693MOL0     H91418  10.568   9.524   8.324 -0.6291 -0.1485 -1.1020
  693MOL0     H91419  10.498   9.336   8.098  2.4843 -0.9159 -1.7150
  693MOL0     H91420  10.501   9.503   8.084 -3.6773 -1.0055  0.7259
  693MOL0     H91421  10.736   9.320   8.161  2.8477  0.6469 -0.3862
  693MOL0     H91422  10.755   9.490   8.132 -0.2819 -0.9780  3.6235
  693MOL0     H91423  10.647   9.274   7.932 -2.2998  0.7838  0.0721
  693MOL0     H91424  10.820   9.328   7.949 -0.4068 -3.2648  1.1008
  693MOL0     H91425  10.628   9.564   7.929 -1.0819  0.9471 -1.8949
  693MOL0     H91426  10.775   9.522   7.842  1.5183 -0.9497  1.5914
  693MOL0     H91427  10.630   9.333   7.730 -3.2376 -0.1743 -2.8204
  693MOL0     H91428  10.612   9.505   7.673  0.2529  1.2736  1.8266
  693MOL0     H91429  10.388   9.648   7.771 -1.4117  1.4821  1.9394
  693MOL0     H91430  10.033   9.519   7.874  0.1980  0.3061 -0.7200
  693MOL0     H91431  10.108   9.652   7.773 -0.0844  0.0949 -0.0361
  693MOL0     H91432  10.200   9.750   7.957  2.7634 -0.7982  0.2955
  693MOL0     H91433  10.181   9.607   8.060  0.3650  2.0595  0.4894
  693MOL0     H91434   9.941   9.781   7.961 -4.5037 -1.3869  0.9591
  693MOL0     H91435   9.934   9.647   8.076 -0.5879  0.3566  1.2432
  693MOL0     H91436  10.103   9.914   8.121 -0.8018  3.6773  4.4656
  693MOL0     H91437  10.065   9.787   8.242 -1.0431 -2.5890 -0.4212
  693MOL0     H91438  10.047  10.077   8.040  0.8024 -1.4500 -0.2687
  693MOL0     H91439   9.950  10.280   7.962 -3.4467  3.2194  1.0257
  693MOL0     H91440   9.364  10.476   7.908  0.3840  1.0406 -1.6206
  693MOL0     H91441   9.269  10.681   7.904  0.9588 -0.7847 -0.8702
  693MOL0     H91442   9.209  10.858   8.174  1.0391 -1.9715 -1.3004
  693MOL0     H91443   9.162  10.887   8.000 -3.1095  0.0382  2.1748
  693MOL0     H91444   9.234  11.126   8.022 -1.1163  1.3005  0.5765
  693MOL0     H91445   9.293  11.075   8.182  0.3207 -3.2791 -0.1471
  693MOL0     H91446   9.097  11.204   8.233 -0.5788 -0.0914  0.0904
  693MOL0     H91447   9.052  11.033   8.241 -0.3896 -2.7637 -2.4326
  693MOL0     H91448   8.997  11.247   8.026  4.0274  0.2600  0.9752
  693MOL0     H91449   8.963  11.067   7.999 -0.1788  0.6118 -1.3622
  693MOL0     H91450   8.847  11.249   8.238  0.7681 -0.6980  0.1660
  693MOL0     H91451   8.808  11.079   8.196  1.3877 -0.8677  0.4212
  693MOL0     H91452   8.692  11.149   7.987  1.3465 -0.6457 -0.1684
  693MOL0     H91453   8.761  11.312   7.998  0.5534 -0.2668 -1.2665
  693MOL0     H91454   8.555  11.197   8.202  0.0537  0.3335  0.5272
  693MOL0     H91455   8.644  11.343   8.216 -0.2525 -0.4328  0.9583
  693MOL0     H91456   8.512  11.433   8.014  0.2846  1.8679  2.4492
  693MOL0     H91457   8.403  11.368   8.131 -0.7587  0.0127 -0.2072
  693MOL0     H91458   9.603  10.833   8.135  2.4031 -1.7016 -0.7851
  693MOL0     H91459   9.688  10.610   8.163  0.1733  2.4579  2.5939
  693MOL0     H91460   9.561  10.176   8.108  1.0557  1.7142  2.6026
  693MOL0     H91461   9.649   9.954   8.190  1.2954  0.9141  0.8733
  693MOL0     H91462  10.487   9.671   8.719  0.1719 -0.3758  1.6910
  693MOL0     H91463  10.438   9.644   8.960 -1.4979 -1.7933  2.1565
  693MOL0     H91464   9.959   9.334   9.287  1.8088 -0.9763 -1.0848
  693MOL0     H91465   9.899   9.394   9.510  0.1749 -0.6154 -2.3819
  693MOL0     H91466   9.904   9.766   9.649 -0.7585 -0.8544 -0.3513
  693MOL0     H91467  10.057   9.771   9.744 -0.2117 -1.0028  1.4069
  693MOL0     H91468   9.965   9.656   9.923 -0.3724  2.4857  1.8368
  693MOL0     H91469   9.878   9.804   9.895 -0.1567 -0.0486  0.2134
  693MOL0     H91470   9.724   9.607   9.963  1.9460 -0.0843  0.0223
  693MOL0     H91471   9.806   9.510   9.855 -2.2213 -1.0873  0.7363
  693MOL0     H91472   9.722   9.614   9.652  1.1810 -2.1336  1.0946
  693MOL0     H91473   9.585   9.558   9.758  2.2011 -2.7353 -1.0356
  693MOL0     H91474   9.509   9.962   9.702  1.9284  1.1238  1.9953
  693MOL0     H91475  10.199   9.700   9.543 -1.7572  0.8765  0.1791
  693MOL0     H91476  10.263   9.661   9.308  1.3786 -0.1433 -0.9251
  694MOL0     O91477  11.132   9.423  10.285 -0.2208  0.5331 -0.4300
  694MOL0     C91478  11.204   9.422  10.187 -1.1173  0.4434 -0.4500
  694MOL0     O91479  11.280   9.308  10.153 -0.2495  0.5992  0.1880
  694MOL0     C91480  11.393   9.313  10.072 -0.1586  0.0464 -0.5919
  694MOL0     C91481  11.404   9.200   9.996 -1.2017  0.0465  0.0170
  694MOL0     C91482  11.525   9.175   9.915  0.4719 -0.2886  0.2221
  694MOL0     C91483  11.631   9.269   9.919 -0.2604  0.8865 -0.2705
  694MOL0     O91484  11.742   9.254   9.841  0.2541 -0.3028  1.4699
  694MOL0     C91485  11.781   9.124   9.774 -0.0098  0.3299  0.2250
  694MOL0     C91486  11.804   9.007   9.871  0.5574  0.3509  0.3465
  694MOL0     C91487  11.858   8.881   9.796 -0.2084 -0.9978 -0.1881
  694MOL0     C91488  11.905   8.775   9.886 -1.3841 -0.0366 -0.4587
  694MOL0     C91489  11.955   8.642   9.809  0.1340 -0.5877 -0.2619
  694MOL0     C91490  12.047   8.555   9.895  0.5844 -0.1942  0.0060
  694MOL0     C91491  11.976   8.459  10.000  0.2592 -0.3194  0.2330
  694MOL0     C91492  12.082   8.365  10.052 -0.2088 -0.1910 -0.0208
  694MOL0     N91493  12.181   8.444  10.134  0.1180  0.3970  0.8364
  694MOL0     C91494  12.309   8.458  10.090  0.2454 -0.1085 -0.1233
  694MOL0     C91495  12.373   8.502  10.206 -0.1156  0.5132  0.7975
  694MOL0     C91496  12.515   8.534  10.209  0.3967 -0.8586 -0.6917
  694MOL0     C91497  12.614   8.452  10.124  0.6125  0.2648  0.5924
  694MOL0     C91498  12.763   8.495  10.136 -0.2500  0.4627  0.2526
  694MOL0     C91499  12.841   8.421  10.247 -0.6627  0.7554  0.2965
  694MOL0     O91500  12.967   8.468  10.230  0.3024  0.1270 -0.1308
  694MOL0     C91501  13.055   8.430  10.323 -0.0879 -1.1891  0.4791
  694MOL0     C91502  13.065   8.306  10.385 -0.1043  1.0123  0.0481
  694MOL0     C91503  13.172   8.289  10.474 -0.4943  0.3802  0.2921
  694MOL0     C91504  13.269   8.385  10.501 -0.0399  0.0425 -1.3265
  694MOL0     C91505  13.393   8.348  10.578  0.0849  0.1929 -0.1303
  694MOL0     O91506  13.436   8.221  10.575  0.5947 -0.3188  0.5523
  694MOL0     C91507  13.551   8.174  10.623  0.9304 -0.3657  0.2818
  694MOL0     C91508  13.554   8.038  10.647 -0.0716 -0.0990  0.3939
  694MOL0     C91509  13.674   7.979  10.692  0.5940  0.0204 -1.3471
  694MOL0     C91510  13.784   8.053  10.724  0.1208  0.4144  0.1571
  694MOL0     O91511  13.891   7.986  10.767  0.3255  0.4487 -0.1437
  694MOL0     C91512  13.877   7.893  10.876 -0.4340 -0.0120  0.3333
  694MOL0     C91513  14.002   7.889  10.964  0.7904  0.9220  0.0842
  694MOL0     C91514  13.996   7.809  11.095  0.4081  0.8924  0.6800
  694MOL0     C91515  14.126   7.810  11.163 -0.1123  0.6754  0.2732
  694MOL0     C91516  14.125   7.755  11.306 -0.3180 -0.3998 -1.0174
  694MOL0     C91517  14.080   7.854  11.409  0.0898 -0.3067  0.6488
  694MOL0     C91518  14.102   7.797  11.550 -0.1203  0.9029  0.0112
  694MOL0     C91519  14.101   7.912  11.650 -0.1916  0.5947 -0.6418
  694MOL0    Cl91520  13.946   8.006  11.661  0.0919  0.6950 -0.0938
  694MOL0     C91521  13.783   8.187  10.688  0.0609 -0.1458  0.3370
  694MOL0     C91522  13.672   8.254  10.638  0.0091  0.6771 -0.0042
  694MOL0     O91523  13.438   8.441  10.649 -0.7175  0.5450 -0.0279
  694MOL0     C91524  13.258   8.503  10.429 -0.8585  0.7572 -0.2948
  694MOL0     C91525  13.156   8.524  10.338  0.1682  0.3483  0.4567
  694MOL0     N91526  12.286   8.523  10.300  0.4138 -0.1975 -0.1840
  694MOL0     N91527  12.168   8.476  10.261  0.2986  0.1194  0.5100
  694MOL0     C91528  11.604   9.390   9.985  0.2500  0.5601 -0.6856
  694MOL0     C91529  11.493   9.414  10.073  0.4277  0.3562  0.1374
  694MOL0     C91530  11.193   9.542  10.105  0.1375  0.3005 -0.4244
  694MOL0     C91531  11.203   9.553   9.970  0.0184 -0.1857  0.5498
  694MOL0     C91532  11.205   9.676   9.898 -0.1560 -0.2446  0.7893
  694MOL0     C91533  11.185   9.798   9.967  0.7973 -1.0191 -0.3035
  694MOL0     O91534  11.158   9.909   9.892  0.5741  0.3926  0.0646
  694MOL0     C91535  11.237  10.024   9.936  0.7320 -0.3082  0.2728
  694MOL0     C91536  11.364  10.050   9.845 -0.1878  0.8143 -0.0317
  694MOL0     C91537  11.339  10.066   9.692  1.4034  0.6130  0.0324
  694MOL0     C91538  11.252  10.185   9.645  0.3757  0.2184  0.4165
  694MOL0     C91539  11.111  10.191   9.686 -1.4142 -0.8364  0.2072
  694MOL0     C91540  10.996  10.201   9.712 -0.4858  0.5333  0.3440
  694MOL0     C91541  11.158   9.787  10.103  0.4815  0.0531  0.7859
  694MOL0     C91542  11.165   9.666  10.167 -0.3305 -0.2685 -0.1999
  694MOL0     H91543  11.327   9.126  10.016 -0.2769 -0.1067  3.7867
  694MOL0     H91544  11.529   9.084   9.856 -0.4874 -0.7639  0.8781
  694MOL0     H91545  11.876   9.137   9.722  0.1959 -2.1701 -0.1660
  694MOL0     H91546  11.712   9.094   9.694  3.4056 -0.3591 -2.7649
  694MOL0     H91547  11.713   8.977   9.922 -0.5150  1.1059 -1.0463
  694MOL0     H91548  11.882   9.038   9.941 -0.5833  0.3665  1.6510
  694MOL0     H91549  11.937   8.905   9.724 -1.6920 -2.6714 -2.5504
  694MOL0     H91550  11.785   8.857   9.718 -0.3501  2.9804 -1.5348
  694MOL0     H91551  11.988   8.813   9.945  0.0543 -0.7140 -1.9731
  694MOL0     H91552  11.820   8.744   9.948  0.4309 -1.3311  1.5078
  694MOL0     H91553  11.998   8.664   9.711 -0.2348 -0.3642 -0.3755
  694MOL0     H91554  11.868   8.578   9.789  0.1936 -1.3961  1.8278
  694MOL0     H91555  12.127   8.616   9.938  0.5342  0.4004 -0.7172
  694MOL0     H91556  12.088   8.489   9.819 -3.2529 -0.1480 -2.3665
  694MOL0     H91557  11.931   8.518  10.080  1.6065 -1.1501  1.6494
  694MOL0     H91558  11.893   8.408   9.951  0.0272  0.3921 -0.1399
  694MOL0     H91559  12.138   8.308   9.977  0.3677 -1.9329  1.6617
  694MOL0     H91560  12.019   8.291  10.102 -0.7750  0.6282  0.4990
  694MOL0     H91561  12.351   8.438   9.991 -1.3202  0.8021 -1.0173
  694MOL0     H91562  12.551   8.536  10.313 -0.6504 -0.9868 -0.3094
  694MOL0     H91563  12.527   8.639  10.182 -0.6227 -0.9371 -1.5287
  694MOL0     H91564  12.586   8.445  10.019  2.0652 -2.2385  0.2925
  694MOL0     H91565  12.602   8.353  10.168 -2.3507 -0.4271 -1.5488
  694MOL0     H91566  12.820   8.472  10.045 -0.3837 -1.5356  0.6229
  694MOL0     H91567  12.780   8.601  10.155 -0.6145  0.3347  1.3506
  694MOL0     H91568  12.847   8.313  10.230 -1.5073  0.9219 -1.2434
  694MOL0     H91569  12.797   8.433  10.346 -2.7245 -2.3307 -0.0831
  694MOL0     H91570  13.005   8.219  10.361 -0.1622  0.8154  0.8692
  694MOL0     H91571  13.182   8.189  10.516 -3.0422  1.1296  3.0434
  694MOL0     H91572  13.466   7.978  10.626  0.5753 -1.2769  0.9303
  694MOL0     H91573  13.680   7.872  10.711  1.2207  0.0528 -1.3306
  694MOL0     H91574  13.857   7.793  10.836  1.9780 -1.1985  1.8324
  694MOL0     H91575  13.800   7.931  10.944  0.0381 -0.0120  0.8728
  694MOL0     H91576  14.022   7.994  10.987 -1.7323  1.8027 -1.2875
  694MOL0     H91577  14.089   7.860  10.904 -0.4085  1.3356 -1.9406
  694MOL0     H91578  13.965   7.706  11.074 -1.9868  1.5386  0.7546
  694MOL0     H91579  13.913   7.839  11.159  1.1512 -1.0656  2.6973
  694MOL0     H91580  14.197   7.748  11.108 -0.1703  0.4361  0.4699
  694MOL0     H91581  14.173   7.909  11.158  2.0635 -0.2928 -5.1570
  694MOL0     H91582  14.230   7.729  11.322  0.4383  1.0229 -3.1859
  694MOL0     H91583  14.056   7.672  11.322 -2.0101  1.1603  0.2714
  694MOL0     H91584  13.976   7.874  11.383  0.0588 -2.0735 -0.7939
  694MOL0     H91585  14.135   7.947  11.399 -2.6651  1.4868  1.1005
  694MOL0     H91586  14.028   7.718  11.568  0.0071 -0.1271 -3.3395
  694MOL0     H91587  14.197   7.742  11.552 -0.6884 -0.1295 -0.3049
  694MOL0     H91588  14.181   7.983  11.628 -1.4286  0.9913 -4.6864
  694MOL0     H91589  14.120   7.868  11.749  0.7055 -0.4705 -1.2472
  694MOL0     H91590  13.877   8.239  10.708 -0.8869  0.2560  4.6577
  694MOL0     H91591  13.664   8.363  10.635 -2.9711  0.9068  4.8200
  694MOL0     H91592  13.336   8.578  10.434 -2.7978  2.8906 -0.2069
  694MOL0     H91593  13.155   8.607  10.268  0.2230 -1.1111 -1.3508
  694MOL0     H91594  11.682   9.465   9.995 -2.9956  4.0280  1.5555
  694MOL0     H91595  11.475   9.500  10.137 -1.2749  0.1773 -0.0607
  694MOL0     H91596  11.193   9.467   9.904 -0.7136  0.3637 -0.0685
  694MOL0     H91597  11.187   9.672   9.791 -0.4306 -0.9600  0.8572
  694MOL0     H91598  11.276  10.014  10.038 -2.3832 -1.7098  1.4601
  694MOL0     H91599  11.170  10.109   9.955  0.5657 -0.6174  1.1375
  694MOL0     H91600  11.405  10.145   9.881  1.0439  0.8254 -1.3455
  694MOL0     H91601  11.440   9.974   9.862  0.7815  1.7992  0.1890
  694MOL0     H91602  11.295   9.975   9.649 -0.2783  1.5478 -0.3304
  694MOL0     H91603  11.433  10.086   9.641  1.4431 -0.9573 -0.5824
  694MOL0     H91604  11.296  10.274   9.691  0.9117 -0.5564  1.4293
  694MOL0     H91605  11.254  10.185   9.535  0.3969  0.5462  0.4153
  694MOL0     H91606  10.891  10.200   9.737 -0.3966  2.3011  0.9886
  694MOL0     H91607  11.135   9.877  10.159 -2.4694 -0.2055  0.1339
  694MOL0     H91608  11.151   9.667  10.275 -0.2571 -1.0184 -0.1801
  695MOL0     O91609   8.877   6.239  10.470  0.7726  0.4151 -0.2895
  695MOL0     C91610   8.977   6.165  10.446  0.0105 -0.0889  0.9719
  695MOL0     O91611   8.972   6.021  10.446 -0.5901 -0.4050 -0.3511
  695MOL0     C91612   8.859   5.949  10.442  1.0967  0.5758 -0.4758
  695MOL0     C91613   8.861   5.818  10.496  0.3175 -0.4761  0.0244
  695MOL0     C91614   8.746   5.732  10.505 -0.1526 -0.3126  0.1332
  695MOL0     C91615   8.626   5.783  10.453  0.1993 -0.5388 -0.5389
  695MOL0     O91616   8.514   5.707  10.451  0.5146 -0.5567  0.5626
  695MOL0     C91617   8.450   5.703  10.575  0.9010 -0.0534 -0.2386
  695MOL0     C91618   8.310   5.638  10.553  0.0641  0.5284 -0.7711
  695MOL0     C91619   8.251   5.629  10.697 -0.2692 -0.3336 -0.3303
  695MOL0     C91620   8.102   5.589  10.707 -1.1995 -0.1171 -0.3166
  695MOL0     C91621   8.061   5.577  10.852 -0.5373  0.2722  0.1076
  695MOL0     C91622   7.908   5.558  10.876 -0.1681  0.8390 -0.3842
  695MOL0     C91623   7.844   5.429  10.826  0.3399  1.9012 -0.5824
  695MOL0     C91624   7.851   5.301  10.919  0.4867 -0.3885  0.6571
  695MOL0     N91625   7.987   5.252  10.930 -0.3658  0.1999 -0.2305
  695MOL0     C91626   8.049   5.168  10.840  0.0007 -0.0902  0.3862
  695MOL0     C91627   8.178   5.158  10.875 -0.0430  0.4181 -1.2643
  695MOL0     C91628   8.267   5.049  10.825  0.9602 -0.4582 -0.6231
  695MOL0     C91629   8.350   5.096  10.709 -0.5406  1.2330 -0.2339
  695MOL0     C91630   8.265   5.089  10.581 -0.1545 -0.7170  0.2800
  695MOL0     C91631   8.349   5.116  10.460  0.2587 -0.2116  0.4200
  695MOL0     O91632   8.388   5.252  10.459 -0.1840  0.1616 -0.0295
  695MOL0     C91633   8.525   5.256  10.469  0.3035 -0.1001  0.1051
  695MOL0     C91634   8.583   5.339  10.565  0.0484 -0.4424  0.0279
  695MOL0     C91635   8.726   5.348  10.575  1.3458 -0.5297  0.5874
  695MOL0     C91636   8.810   5.274  10.495  0.1144  0.9788 -0.5475
  695MOL0     C91637   8.957   5.292  10.521 -0.0268  0.2048 -0.1304
  695MOL0     O91638   8.998   5.348  10.640 -0.1440 -0.1381  0.6112
  695MOL0     C91639   9.130   5.358  10.662 -0.0498 -0.5656 -0.3182
  695MOL0     C91640   9.201   5.458  10.595 -1.0649 -0.1810 -0.1192
  695MOL0     C91641   9.340   5.467  10.603  0.4938 -1.7440 -0.4407
  695MOL0     C91642   9.410   5.373  10.681  0.4496 -0.4093  0.1880
  695MOL0     O91643   9.540   5.404  10.698  0.5242 -1.0118 -0.3657
  695MOL0     C91644   9.636   5.307  10.758  0.7218 -0.2780 -0.1939
  695MOL0     C91645   9.785   5.358  10.744  0.6547  1.0014  0.2859
  695MOL0     C91646   9.881   5.246  10.798  0.5713 -0.1072 -0.6407
  695MOL0     C91647  10.029   5.274  10.773  0.1152  0.5654 -0.3020
  695MOL0     C91648  10.119   5.191  10.876 -0.1874  0.0592 -0.4185
  695MOL0     C91649  10.260   5.184  10.830  0.2567  1.0568  1.0210
  695MOL0     C91650  10.361   5.090  10.896  0.2048  0.2083  0.1010
  695MOL0     C91651  10.374   5.104  11.048 -0.3391 -0.8933 -0.1738
  695MOL0    Cl91652  10.227   5.052  11.132  0.4137 -0.2450 -0.1027
  695MOL0     C91653   9.333   5.277  10.761  0.1536 -0.6226 -0.1928
  695MOL0     C91654   9.187   5.279  10.752 -0.4485 -0.1309  0.0575
  695MOL0     O91655   9.030   5.236  10.437  0.6942 -0.5718 -0.0804
  695MOL0     C91656   8.754   5.201  10.392 -0.1993  0.8544  0.5477
  695MOL0     C91657   8.611   5.190  10.377 -0.6414 -0.3375  0.5777
  695MOL0     N91658   8.187   5.226  10.995  0.4942  0.3051 -0.5116
  695MOL0     N91659   8.077   5.280  11.032 -0.2698 -0.0263 -0.0401
  695MOL0     C91660   8.630   5.913  10.397  0.1219  0.5409  0.7157
  695MOL0     C91661   8.732   5.999  10.392 -0.2203  0.0402  0.9309
  695MOL0     C91662   9.105   6.234  10.432  1.1556 -0.1762 -0.1834
  695MOL0     C91663   9.129   6.374  10.462 -0.4565  0.3582 -0.1060
  695MOL0     C91664   9.258   6.432  10.449  0.9685  0.4811 -0.2147
  695MOL0     C91665   9.356   6.346  10.393  0.3562 -0.5359 -0.3843
  695MOL0     O91666   9.480   6.409  10.380 -0.2535  0.0592 -0.7930
  695MOL0     C91667   9.593   6.336  10.315 -0.4461 -0.2956 -0.6587
  695MOL0     C91668   9.685   6.244  10.402  0.3265 -0.0651 -0.2046
  695MOL0     C91669   9.794   6.188  10.315  0.1099  0.3810 -0.1658
  695MOL0     C91670   9.871   6.077  10.394  0.0987  0.5657  0.0704
  695MOL0     C91671   9.995   6.034  10.324  0.1227  0.0239  0.3585
  695MOL0     C91672  10.092   5.987  10.272 -0.2740  0.5831  0.3661
  695MOL0     C91673   9.344   6.213  10.381  1.2737  0.9493 -0.2295
  695MOL0     C91674   9.222   6.164  10.401  1.0442  0.3671  0.9587
  695MOL0     H91675   8.958   5.791  10.537 -0.9326  0.0202  3.6473
  695MOL0     H91676   8.778   5.635  10.543 -1.5357 -0.4355  1.0891
  695MOL0     H91677   8.443   5.808  10.605 -0.6167 -0.4704  1.0074
  695MOL0     H91678   8.501   5.660  10.662 -0.1539 -0.2383  0.3097
  695MOL0     H91679   8.318   5.540  10.505  0.8868  0.9310 -1.4895
  695MOL0     H91680   8.249   5.700  10.487 -1.4014 -1.1515 -1.0588
  695MOL0     H91681   8.246   5.729  10.741 -1.5874 -1.4939  2.3178
  695MOL0     H91682   8.305   5.546  10.743  0.1838 -0.7785 -1.6036
  695MOL0     H91683   8.046   5.670  10.659  0.8098 -0.4020 -3.4624
  695MOL0     H91684   8.068   5.500  10.653 -0.2081 -0.6200 -0.1474
  695MOL0     H91685   8.091   5.664  10.911 -3.9638 -0.2000  2.8642
  695MOL0     H91686   8.107   5.493  10.905  2.4101 -0.1210 -2.7918
  695MOL0     H91687   7.857   5.644  10.831  0.7907  2.8746  2.1575
  695MOL0     H91688   7.871   5.564  10.978 -3.1646 -2.4251 -1.0964
  695MOL0     H91689   7.737   5.453  10.821  0.2356  1.2923 -1.5444
  695MOL0     H91690   7.872   5.394  10.726 -0.3456 -0.8983  0.1234
  695MOL0     H91691   7.783   5.229  10.872 -1.1444 -1.0577  3.8032
  695MOL0     H91692   7.801   5.318  11.014 -2.0150  1.2542 -0.8392
  695MOL0     H91693   8.007   5.118  10.754 -0.6960 -0.7616  1.1090
  695MOL0     H91694   8.200   4.968  10.793  1.2730 -1.7067  1.6779
  695MOL0     H91695   8.332   5.011  10.904  0.0314 -1.3721 -0.2697
  695MOL0     H91696   8.437   5.030  10.699 -1.7980 -0.3033 -1.6375
  695MOL0     H91697   8.392   5.196  10.726 -1.7574  2.2656 -2.7564
  695MOL0     H91698   8.226   4.987  10.573  1.4320 -1.3764  0.5600
  695MOL0     H91699   8.187   5.163  10.596 -0.1470  0.0079 -2.5951
  695MOL0     H91700   8.288   5.101  10.371 -1.1936 -0.9881  1.5132
  695MOL0     H91701   8.424   5.037  10.461 -0.4842 -1.2158 -3.7286
  695MOL0     H91702   8.508   5.387  10.626 -1.2078 -1.4901 -0.6441
  695MOL0     H91703   8.751   5.414  10.657  1.1860  1.1076 -0.6206
  695MOL0     H91704   9.138   5.519  10.531 -3.1053 -0.4609  1.5397
  695MOL0     H91705   9.400   5.536  10.546 -0.1435  0.1411  1.0418
  695MOL0     H91706   9.625   5.219  10.694 -2.7560 -2.0382  2.4807
  695MOL0     H91707   9.613   5.298  10.864 -1.6867 -2.7486 -0.8117
  695MOL0     H91708   9.785   5.455  10.795 -1.8116  0.1990  2.0297
  695MOL0     H91709   9.812   5.348  10.639 -0.8467 -5.1976  0.0595
  695MOL0     H91710   9.848   5.152  10.752 -1.3107 -0.5437  1.4216
  695MOL0     H91711   9.874   5.229  10.906 -0.1466  0.8680 -0.5251
  695MOL0     H91712  10.063   5.262  10.670  1.2818  1.4051 -0.0318
  695MOL0     H91713  10.049   5.381  10.783  0.6873  0.8296 -3.3141
  695MOL0     H91714  10.075   5.091  10.873 -0.1319  0.0495 -1.0166
  695MOL0     H91715  10.104   5.230  10.977 -2.6868 -0.5847 -0.4646
  695MOL0     H91716  10.306   5.283  10.841  0.3054  1.0774  0.6284
  695MOL0     H91717  10.267   5.156  10.725  0.3084  1.6565  0.8643
  695MOL0     H91718  10.331   4.986  10.879 -2.3214  0.6911  1.1024
  695MOL0     H91719  10.457   5.112  10.849 -0.2574  3.7120  0.4771
  695MOL0     H91720  10.386   5.210  11.075 -0.6526 -0.9593  0.2458
  695MOL0     H91721  10.458   5.044  11.082 -0.3734 -1.7542 -1.5583
  695MOL0     H91722   9.378   5.201  10.823  0.2863 -0.5801 -0.2350
  695MOL0     H91723   9.126   5.216  10.816 -0.1227 -1.7932 -1.1989
  695MOL0     H91724   8.797   5.133  10.319 -0.5725  2.5718 -1.3650
  695MOL0     H91725   8.575   5.129  10.295 -2.0906  0.7903  0.3267
  695MOL0     H91726   8.542   5.951  10.347  0.3168 -0.2833 -0.2896
  695MOL0     H91727   8.723   6.098  10.348  1.3594 -0.7330 -1.3704
  695MOL0     H91728   9.068   6.454  10.503  1.5036  1.7387  0.2311
  695MOL0     H91729   9.267   6.537  10.475  1.4982  0.2855  0.4343
  695MOL0     H91730   9.657   6.418  10.281 -0.1591 -0.4999 -0.6152
  695MOL0     H91731   9.557   6.280  10.228  1.4590  0.0835 -1.7353
  695MOL0     H91732   9.723   6.304  10.484 -2.9835  0.1794  1.3191
  695MOL0     H91733   9.614   6.171  10.443 -1.4283  1.2892 -0.7079
  695MOL0     H91734   9.861   6.274  10.301 -1.0217  1.8694  2.7728
  695MOL0     H91735   9.750   6.162  10.219 -0.7807  0.4808  0.2118
  695MOL0     H91736   9.906   6.113  10.491  0.1418 -2.3687  1.2337
  695MOL0     H91737   9.811   5.986  10.402  0.3165  0.5217  1.4874
  695MOL0     H91738  10.182   5.948  10.229 -0.1486  0.1371  1.0292
  695MOL0     H91739   9.429   6.150  10.357  1.3403  0.0175  2.1994
  695MOL0     H91740   9.227   6.055  10.395  0.2930  0.1860  2.9238
  696MOL0     O91741   2.099   2.784  10.663  0.0589 -0.3199  0.7454
  696MOL0     C91742   1.986   2.773  10.705  0.6897  0.7692  0.1303
  696MOL0     O91743   1.897   2.674  10.678  0.2743 -0.8891  0.2546
  696MOL0     C91744   1.923   2.557  10.603 -0.2726 -0.9895  0.4695
  696MOL0     C91745   2.046   2.488  10.616  0.0109  0.5701 -0.2696
  696MOL0     C91746   2.076   2.387  10.523 -0.7261 -0.2804  0.0008
  696MOL0     C91747   2.000   2.361  10.416 -0.0109  0.2223 -0.0313
  696MOL0     O91748   2.034   2.268  10.319 -0.3720  0.1354 -0.4169
  696MOL0     C91749   2.040   2.316  10.184 -0.3124 -0.3342  0.7851
  696MOL0     C91750   2.112   2.227  10.082  0.2934  0.4962 -0.9548
  696MOL0     C91751   2.258   2.195  10.115 -0.2529  0.3343 -0.7779
  696MOL0     C91752   2.315   2.098  10.010 -0.1634  0.1601  0.7325
  696MOL0     C91753   2.458   2.102   9.996 -0.7788 -0.6078 -0.9539
  696MOL0     C91754   2.519   2.004   9.892 -0.5367 -0.4961 -0.5456
  696MOL0     C91755   2.674   2.018   9.890  0.1979 -0.5503  0.3828
  696MOL0     C91756   2.745   1.898   9.833 -0.5779 -0.8272  0.1753
  696MOL0     N91757   2.726   1.765   9.902  0.4926 -0.3842  0.0557
  696MOL0     C91758   2.623   1.678   9.899 -0.4913 -0.5738 -0.0706
  696MOL0     C91759   2.649   1.573   9.986 -0.3786  0.0063 -0.4441
  696MOL0     C91760   2.555   1.464  10.028 -0.2454 -0.1043  0.2273
  696MOL0     C91761   2.633   1.327  10.018 -0.6319  0.3700  0.4029
  696MOL0     C91762   2.633   1.271   9.879 -0.5996  0.0325  0.2730
  696MOL0     C91763   2.681   1.126   9.859 -0.0556 -0.5138 -0.1772
  696MOL0     O91764   2.817   1.100   9.879 -0.2759  0.0152  0.2557
  696MOL0     C91765   2.863   0.977   9.863 -0.5358 -0.2537  0.2194
  696MOL0     C91766   2.794   0.863   9.897 -0.3671 -0.5090 -0.0299
  696MOL0     C91767   2.856   0.740   9.883  0.3465 -0.2052  0.8447
  696MOL0     C91768   2.988   0.731   9.830  0.0567 -0.3923 -0.4806
  696MOL0     C91769   3.052   0.604   9.802 -0.1848 -0.3700 -0.2329
  696MOL0     O91770   3.189   0.611   9.805 -0.2006  0.0924 -0.2314
  696MOL0     C91771   3.253   0.506   9.749  0.2163 -0.8776  0.3112
  696MOL0     C91772   3.320   0.422   9.830 -0.3436  0.3934  0.5058
  696MOL0     C91773   3.409   0.323   9.767  0.0174  0.0555 -0.1254
  696MOL0     C91774   3.413   0.303   9.628 -0.4064  0.2741  0.6281
  696MOL0     O91775   3.506   0.222   9.571  0.2460 -0.1656 -0.1148
  696MOL0     C91776   3.644   0.235   9.611  0.5216  0.5642  0.4927
  696MOL0     C91777   3.734   0.140   9.529  0.4158  0.7480 -0.3952
  696MOL0     C91778   3.885   0.144   9.570  0.8912 -0.0191  0.1847
  696MOL0     C91779   3.967   0.273   9.529  0.2644  0.1998  0.4201
  696MOL0     C91780   4.118   0.254   9.547  0.2569 -1.2512  0.2697
  696MOL0     C91781   4.147   0.206   9.691  0.3726  0.3343 -0.6438
  696MOL0     C91782   4.296   0.163   9.710 -0.2859 -0.7725 -0.1370
  696MOL0     C91783   4.385   0.275   9.759 -0.2019  0.6023  0.7564
  696MOL0    Cl91784   4.562   0.259   9.739 -0.0052  0.0695  0.1501
  696MOL0     C91785   3.330   0.384   9.542 -0.2023  0.0425 -0.7032
  696MOL0     C91786   3.260   0.487   9.608  0.2313 -0.0939 -0.7625
  696MOL0     O91787   2.979   0.504   9.793 -0.2500  0.2391 -0.4119
  696MOL0     C91788   3.062   0.848   9.811  0.2381 -0.7579 -0.0581
  696MOL0     C91789   2.999   0.971   9.832  0.1482  0.4980  0.2500
  696MOL0     N91790   2.773   1.600  10.042 -0.4529 -0.0994  0.3471
  696MOL0     N91791   2.815   1.721   9.990  0.0049 -0.1404 -0.0524
  696MOL0     C91792   1.871   2.413  10.412 -0.1270 -0.8783 -0.5563
  696MOL0     C91793   1.832   2.507  10.512 -0.1699  0.1299  0.0711
  696MOL0     C91794   1.938   2.898  10.766 -0.2419  0.5833 -0.1492
  696MOL0     C91795   1.989   3.031  10.744  0.0216  0.6054 -1.0236
  696MOL0     C91796   1.947   3.149  10.819 -0.2827  0.2592  0.6306
  696MOL0     C91797   1.845   3.134  10.917  0.4144 -0.3450  0.0595
  696MOL0     O91798   1.803   3.218  11.002 -0.3359  0.2022  0.0608
  696MOL0     C91799   1.822   3.361  10.977  0.5010 -0.6199 -0.1149
  696MOL0     C91800   1.830   3.428  11.111 -0.3498 -0.3566  0.2319
  696MOL0     C91801   1.942   3.377  11.198 -0.3556  0.4148  0.1064
  696MOL0     C91802   2.074   3.407  11.124  0.0641 -0.4023 -0.3250
  696MOL0     C91803   2.183   3.354  11.216  0.1285 -0.1492  0.0720
  696MOL0     C91804   2.272   3.293  11.275  0.2296 -0.4091  0.2753
  696MOL0     C91805   1.786   3.007  10.927  0.2079 -1.3021 -0.6705
  696MOL0     C91806   1.832   2.895  10.851  0.8573  0.0405 -0.3843
  696MOL0     H91807   2.120   2.509  10.693 -1.6863  0.1920  1.5345
  696MOL0     H91808   2.167   2.334  10.549  1.6244  3.2534 -0.2341
  696MOL0     H91809   2.079   2.418  10.182  2.4266 -1.2513 -2.8572
  696MOL0     H91810   1.938   2.327  10.145  0.5384  1.2221 -1.1230
  696MOL0     H91811   2.102   2.271   9.982 -4.6790  1.8139 -0.2027
  696MOL0     H91812   2.056   2.133  10.080  0.9810  0.0742 -0.4096
  696MOL0     H91813   2.263   2.152  10.215 -0.1882 -1.4108 -1.4981
  696MOL0     H91814   2.320   2.285  10.110 -2.9033  2.3671  0.6977
  696MOL0     H91815   2.292   1.992  10.030 -0.3344 -0.1705 -1.0515
  696MOL0     H91816   2.261   2.125   9.919 -1.4363  2.1213  2.0135
  696MOL0     H91817   2.510   2.089  10.092 -1.0596 -0.6920 -0.8106
  696MOL0     H91818   2.480   2.200   9.953 -1.5349 -0.9781 -2.2212
  696MOL0     H91819   2.479   2.017   9.791  1.7019  2.3292 -1.2058
  696MOL0     H91820   2.498   1.903   9.927  2.4147 -1.0455 -0.0995
  696MOL0     H91821   2.708   2.103   9.830  1.3597 -1.9216 -0.9812
  696MOL0     H91822   2.712   2.029   9.992  1.5897  0.6166 -0.2241
  696MOL0     H91823   2.851   1.924   9.827 -0.8936  0.6928  0.6121
  696MOL0     H91824   2.708   1.885   9.731 -0.5297  1.5216 -0.2149
  696MOL0     H91825   2.531   1.688   9.842 -0.3811  0.4084 -0.1015
  696MOL0     H91826   2.462   1.465   9.970 -0.2775 -2.5334  0.1416
  696MOL0     H91827   2.524   1.472  10.132  1.4856 -0.7357  0.8301
  696MOL0     H91828   2.586   1.255  10.087 -0.4458 -1.6338 -1.4321
  696MOL0     H91829   2.738   1.342  10.042 -1.2515  1.6852  2.5651
  696MOL0     H91830   2.530   1.283   9.846 -0.0750 -0.7846 -1.8007
  696MOL0     H91831   2.692   1.334   9.812  1.1164  0.0792  1.7541
  696MOL0     H91832   2.669   1.111   9.751 -0.5688 -1.1123 -0.0387
  696MOL0     H91833   2.616   1.059   9.915 -2.7563  1.3768 -0.8243
  696MOL0     H91834   2.693   0.866   9.936 -0.1898  2.6278  0.4268
  696MOL0     H91835   2.795   0.657   9.917 -1.6440 -0.2572 -2.4704
  696MOL0     H91836   3.302   0.428   9.937 -0.9449  2.1387  0.3445
  696MOL0     H91837   3.477   0.267   9.831  0.0921 -0.0160 -0.2670
  696MOL0     H91838   3.660   0.209   9.717  3.3878 -0.6982 -0.1621
  696MOL0     H91839   3.666   0.341   9.598  1.5374  0.2461 -0.5666
  696MOL0     H91840   3.729   0.169   9.423  1.2043 -2.0742 -1.2957
  696MOL0     H91841   3.693   0.040   9.547 -1.2942  1.5954  0.6600
  696MOL0     H91842   3.947   0.064   9.529  1.2327  0.4693 -0.2746
  696MOL0     H91843   3.883   0.144   9.679  0.2544  0.8466  0.1869
  696MOL0     H91844   3.969   0.286   9.421  1.9181  0.3950  0.4482
  696MOL0     H91845   3.938   0.369   9.573 -0.1762  0.3733 -0.2270
  696MOL0     H91846   4.174   0.346   9.528 -1.8794  0.3765  1.3498
  696MOL0     H91847   4.154   0.195   9.463  1.2351  0.6572 -0.7367
  696MOL0     H91848   4.091   0.115   9.717  2.1955 -0.1433  2.1773
  696MOL0     H91849   4.122   0.281   9.766  0.8276  1.0561 -1.2053
  696MOL0     H91850   4.307   0.092   9.793 -1.6619  0.8944  1.5736
  696MOL0     H91851   4.332   0.126   9.614 -2.8532 -0.5347 -1.2709
  696MOL0     H91852   4.368   0.296   9.865  2.2541  2.1383  0.9228
  696MOL0     H91853   4.356   0.363   9.701  1.8363  1.4409  0.9448
  696MOL0     H91854   3.323   0.372   9.434  0.5027  1.2025 -0.9011
  696MOL0     H91855   3.198   0.544   9.541 -0.5956 -1.2830 -1.0428
  696MOL0     H91856   3.167   0.854   9.786  0.1306  3.4554 -0.1034
  696MOL0     H91857   3.054   1.064   9.826  0.0592  0.7285  2.3624
  696MOL0     H91858   1.800   2.397  10.332 -2.5113  1.6509  0.8934
  696MOL0     H91859   1.734   2.553  10.501 -0.5174 -0.2918  1.2446
  696MOL0     H91860   2.069   3.049  10.672  1.1597 -0.2824 -0.0189
  696MOL0     H91861   2.009   3.235  10.795  2.4334 -2.1132 -1.6890
  696MOL0     H91862   1.726   3.387  10.932  0.9449  0.8739 -0.2421
  696MOL0     H91863   1.896   3.388  10.901  1.1892  0.8766  1.0369
  696MOL0     H91864   1.832   3.537  11.106  1.6130 -0.2997  1.3136
  696MOL0     H91865   1.728   3.413  11.149 -1.3401  2.4008 -1.1172
  696MOL0     H91866   1.938   3.269  11.211 -4.2290  0.6834  3.2684
  696MOL0     H91867   1.935   3.427  11.295 -2.3768  0.4495  0.0018
  696MOL0     H91868   2.084   3.351  11.031  4.0701 -0.3243 -0.0929
  696MOL0     H91869   2.093   3.513  11.107  1.9219 -0.7268 -0.4877
  696MOL0     H91870   2.356   3.237  11.311  0.3926 -1.8947 -2.1879
  696MOL0     H91871   1.714   2.976  11.002  2.6635 -2.6209  1.3150
  696MOL0     H91872   1.786   2.799  10.871 -1.6657  1.1974 -0.2660
  697MOL0     O91873  11.180   4.120  10.848  0.0588  0.3138 -0.8093
  697MOL0     C91874  11.282   4.191  10.817  0.5057 -0.0289 -0.4230
  697MOL0     O91875  11.309   4.300  10.891  0.8825 -0.5585  0.7643
  697MOL0     C91876  11.224   4.337  10.989  0.0380  0.1275 -0.3725
  697MOL0     C91877  11.120   4.430  10.956  0.6777 -0.8236  0.0159
  697MOL0     C91878  11.032   4.453  11.061  0.3566  0.5760  0.7613
  697MOL0     C91879  11.021   4.377  11.186  0.1716 -0.7016 -0.1706
  697MOL0     O91880  10.916   4.395  11.272  0.7404  0.3861 -0.0658
  697MOL0     C91881  10.831   4.280  11.305  0.4787 -0.7632  0.4066
  697MOL0     C91882  10.680   4.299  11.259  0.5036  0.0142  0.2757
  697MOL0     C91883  10.621   4.440  11.283 -0.2259  0.4305 -0.2849
  697MOL0     C91884  10.473   4.457  11.304  0.4316 -0.2754 -0.3891
  697MOL0     C91885  10.431   4.601  11.342  0.0615 -1.1576 -0.2442
  697MOL0     C91886  10.277   4.627  11.355 -0.0215 -0.2531 -0.9912
  697MOL0     C91887  10.234   4.712  11.477  0.0853  0.4370  0.7634
  697MOL0     C91888  10.255   4.857  11.448 -0.0140 -0.4695  0.5307
  697MOL0     N91889  10.266   4.928  11.581  0.4521  0.2422  0.4128
  697MOL0     C91890  10.167   5.015  11.623  0.3949  0.2737  0.8087
  697MOL0     C91891  10.231   5.098  11.707 -0.1340  0.8812 -0.3466
  697MOL0     C91892  10.159   5.221  11.768  0.2345 -0.5505 -0.4077
  697MOL0     C91893  10.121   5.315  11.655  0.4213  0.1434  0.0097
  697MOL0     C91894  10.034   5.428  11.715 -0.4431 -0.3053 -0.4822
  697MOL0     C91895  10.001   5.524  11.604 -0.5339  0.5489  0.7747
  697MOL0     O91896   9.894   5.610  11.649 -0.4936 -0.2974 -0.3856
  697MOL0     C91897   9.860   5.716  11.575 -0.0599 -1.4136 -0.6314
  697MOL0     C91898   9.723   5.753  11.593 -0.8241 -0.4235  0.3754
  697MOL0     C91899   9.669   5.857  11.510  0.5682 -0.1544 -0.8091
  697MOL0     C91900   9.753   5.936  11.433 -0.2588 -0.4776 -0.5347
  697MOL0     C91901   9.696   6.061  11.365  0.5085 -0.1521  0.9723
  697MOL0     O91902   9.568   6.054  11.327  0.5356  0.2636 -0.2896
  697MOL0     C91903   9.517   6.146  11.249  0.1220  0.3939 -0.9264
  697MOL0     C91904   9.381   6.148  11.253 -0.3710  0.1113  1.1463
  697MOL0     C91905   9.311   6.247  11.178  0.1097 -0.2494 -0.2103
  697MOL0     C91906   9.378   6.340  11.104  0.2467 -0.0343  0.3993
  697MOL0     O91907   9.313   6.455  11.053 -0.4724  0.4058 -1.2614
  697MOL0     C91908   9.370   6.516  10.929 -0.7037 -0.3499 -0.1762
  697MOL0     C91909   9.262   6.614  10.873 -0.2933 -0.2609 -0.4990
  697MOL0     C91910   9.133   6.559  10.818 -0.1917 -0.5419 -0.2321
  697MOL0     C91911   9.052   6.475  10.924  0.3755 -0.7854  0.5080
  697MOL0     C91912   8.918   6.440  10.845  0.0288  0.4672 -1.1264
  697MOL0     C91913   8.841   6.339  10.926 -0.0615  0.1702  0.2910
  697MOL0     C91914   8.718   6.273  10.857 -0.0601  0.5486 -0.5290
  697MOL0     C91915   8.608   6.369  10.806 -0.3458  0.3988  0.2676
  697MOL0    Cl91916   8.538   6.443  10.948  0.6097  0.4028 -0.1793
  697MOL0     C91917   9.517   6.340  11.098  0.1248  0.0653  0.0404
  697MOL0     C91918   9.585   6.237  11.166  0.2521 -1.0416  0.0012
  697MOL0     O91919   9.776   6.151  11.350 -0.5552  0.7811  0.6192
  697MOL0     C91920   9.886   5.901  11.411 -0.6513  0.4135 -0.2185
  697MOL0     C91921   9.944   5.794  11.486  0.1547 -0.0256  0.4890
  697MOL0     N91922  10.351   5.032  11.733  0.3114 -0.5844  0.2500
  697MOL0     N91923  10.373   4.941  11.653 -0.6924  0.2109  0.1652
  697MOL0     C91924  11.129   4.287  11.211 -0.2194  0.5795 -0.2640
  697MOL0     C91925  11.229   4.269  11.115 -0.1067 -1.0778  0.3089
  697MOL0     C91926  11.376   4.147  10.707  0.3166 -0.0635  0.1837
  697MOL0     C91927  11.406   4.009  10.701 -0.1462 -0.2885  0.4227
  697MOL0     C91928  11.478   3.968  10.586  0.5699  0.1358 -0.0103
  697MOL0     C91929  11.513   4.061  10.486 -0.6221 -0.2708  0.7073
  697MOL0     O91930  11.571   4.013  10.365  0.5404  0.3038  0.3850
  697MOL0     C91931  11.595   3.875  10.346 -0.1946  0.7847  0.9009
  697MOL0     C91932  11.655   3.841  10.208  0.8448  0.2279  0.5805
  697MOL0     C91933  11.663   3.684  10.207  0.6567 -0.4407 -0.8597
  697MOL0     C91934  11.552   3.592  10.155  0.1021  0.6556 -0.3489
  697MOL0     C91935  11.526   3.609  10.014 -0.4326 -0.5983  0.0914
  697MOL0     C91936  11.513   3.641   9.900 -0.1651  0.4008 -0.2576
  697MOL0     C91937  11.482   4.193  10.495  0.3050  0.1510  0.3285
  697MOL0     C91938  11.413   4.234  10.606  0.1059  0.4926  0.3963
  697MOL0     H91939  11.102   4.465  10.855 -2.0664 -0.5092  0.5227
  697MOL0     H91940  10.942   4.514  11.054 -1.5172 -1.9012  1.7061
  697MOL0     H91941  10.827   4.276  11.415  2.3519 -1.4150  0.4774
  697MOL0     H91942  10.879   4.193  11.260  2.2730 -0.0829  0.9139
  697MOL0     H91943  10.621   4.221  11.309  2.1251 -0.4844  1.4766
  697MOL0     H91944  10.650   4.275  11.157  0.0143 -0.5412  0.5433
  697MOL0     H91945  10.653   4.500  11.198  0.6255  1.6908  0.8882
  697MOL0     H91946  10.665   4.478  11.375  0.1838 -0.1414 -0.2420
  697MOL0     H91947  10.416   4.437  11.213 -3.5164 -0.1440  1.8196
  697MOL0     H91948  10.439   4.392  11.385 -0.0651  1.1028  0.5405
  697MOL0     H91949  10.473   4.671  11.269 -2.5877  0.7905 -0.0336
  697MOL0     H91950  10.473   4.631  11.438  2.1792 -1.8316 -0.8978
  697MOL0     H91951  10.223   4.532  11.347  1.5756 -1.5737  2.0496
  697MOL0     H91952  10.232   4.678  11.270 -3.8970 -0.4375  0.7617
  697MOL0     H91953  10.132   4.698  11.513  0.5082 -2.6420  0.9971
  697MOL0     H91954  10.293   4.680  11.564 -0.5831 -0.5899  0.8617
  697MOL0     H91955  10.179   4.904  11.384  1.0493 -0.6006 -0.8862
  697MOL0     H91956  10.350   4.875  11.397  0.7260 -0.0317  2.0093
  697MOL0     H91957  10.067   5.028  11.582 -0.6056 -1.8275  2.3395
  697MOL0     H91958  10.223   5.271  11.842  0.3136  0.2933 -1.0331
  697MOL0     H91959  10.061   5.203  11.813 -0.1524  0.0989 -0.9809
  697MOL0     H91960  10.067   5.250  11.586 -1.7162  0.6391  1.1464
  697MOL0     H91961  10.211   5.360  11.611  1.9601 -0.9863  1.8431
  697MOL0     H91962   9.942   5.379  11.749 -1.2186  1.1115 -0.4841
  697MOL0     H91963  10.070   5.495  11.793 -1.5982  0.8242 -0.8830
  697MOL0     H91964   9.974   5.466  11.516  4.2284 -1.0639  0.0875
  697MOL0     H91965  10.097   5.570  11.577 -0.2372  0.2618  1.3180
  697MOL0     H91966   9.669   5.687  11.659 -2.3817 -1.3315 -1.6984
  697MOL0     H91967   9.564   5.885  11.515  0.2155 -1.4334 -0.5152
  697MOL0     H91968   9.330   6.065  11.302 -2.5790 -0.3220 -1.6418
  697MOL0     H91969   9.203   6.258  11.177  0.0929 -0.2148 -2.1792
  697MOL0     H91970   9.404   6.444  10.854  3.2598  1.3273 -0.2035
  697MOL0     H91971   9.465   6.566  10.949 -0.3505 -1.2194  0.3607
  697MOL0     H91972   9.299   6.662  10.781 -0.8255 -1.2991 -1.2715
  697MOL0     H91973   9.230   6.683  10.951  0.4021 -0.6561  0.1361
  697MOL0     H91974   9.159   6.495  10.734  1.5275 -0.5390  0.2738
  697MOL0     H91975   9.068   6.642  10.788 -0.0844 -0.0013  0.9464
  697MOL0     H91976   9.116   6.386  10.922  1.3353 -0.1135 -1.2520
  697MOL0     H91977   9.031   6.527  11.018 -3.3113 -2.7806  0.9669
  697MOL0     H91978   8.920   6.398  10.744 -2.0463  0.2092 -1.1074
  697MOL0     H91979   8.861   6.533  10.833 -0.5505  0.0446 -1.7245
  697MOL0     H91980   8.798   6.398  11.008 -0.8776  0.2993 -0.2117
  697MOL0     H91981   8.903   6.259  10.965  0.0658  0.6776  1.1443
  697MOL0     H91982   8.749   6.216  10.769 -1.8322 -0.4650 -0.5359
  697MOL0     H91983   8.651   6.217  10.923 -0.6645  0.3782 -1.2726
  697MOL0     H91984   8.533   6.318  10.746 -0.4562  1.0627 -0.1661
  697MOL0     H91985   8.661   6.443  10.746  1.8719  0.9284  2.6783
  697MOL0     H91986   9.574   6.407  11.034 -0.3031 -1.2554 -1.7931
  697MOL0     H91987   9.694   6.241  11.166  0.4629  2.6398 -4.8263
  697MOL0     H91988   9.940   5.974  11.352 -2.1746  2.2757  0.5675
  697MOL0     H91989  10.049   5.769  11.478 -0.3633 -3.8128  2.7980
  697MOL0     H91990  11.140   4.228  11.301  0.7609 -0.9690 -1.3480
  697MOL0     H91991  11.298   4.185  11.120 -0.2944 -1.3227 -0.9289
  697MOL0     H91992  11.374   3.946  10.783 -1.8054  0.4005  0.3396
  697MOL0     H91993  11.506   3.863  10.581 -2.1771 -0.9752  3.5768
  697MOL0     H91994  11.505   3.818  10.367  1.0354 -1.1471  1.1477
  697MOL0     H91995  11.671   3.841  10.417 -1.0319  0.7161  1.7679
  697MOL0     H91996  11.611   3.886  10.118  1.0184  2.2680  1.4787
  697MOL0     H91997  11.751   3.893  10.200 -0.0856  1.9791  0.3698
  697MOL0     H91998  11.681   3.667  10.314  1.8226  0.7964 -0.8303
  697MOL0     H91999  11.757   3.663  10.154  1.0256 -1.6960  0.2235
  697MOL0     H92000  11.574   3.487  10.173  0.1669  0.5328 -1.1171
  697MOL0     H92001  11.464   3.611  10.217  1.7842  1.1967  2.0230
  697MOL0     H92002  11.515   3.654   9.794  0.8622  0.0523 -0.2892
  697MOL0     H92003  11.513   4.258  10.414  1.6422 -1.3666 -0.4267
  697MOL0     H92004  11.372   4.334  10.610 -3.9575 -0.9697 -0.4842
  698MOL0     O92005   8.580   9.009  11.050 -1.1858 -0.2085  0.7280
  698MOL0     C92006   8.497   8.973  11.126  0.5698  0.1451  0.9571
  698MOL0     O92007   8.513   8.965  11.260  0.4104  0.1629  0.2088
  698MOL0     C92008   8.631   9.020  11.304  0.1190  0.0077 -0.7373
  698MOL0     C92009   8.726   8.957  11.388 -1.1021  0.3727  0.1217
  698MOL0     C92010   8.835   9.033  11.443  0.3703 -0.3590 -0.2863
  698MOL0     C92011   8.840   9.169  11.430  0.7015  0.6477  0.4776
  698MOL0     O92012   8.946   9.229  11.480  0.8324 -0.0276 -0.0126
  698MOL0     C92013   8.994   9.343  11.409  0.5559 -0.2231  0.6505
  698MOL0     C92014   9.118   9.385  11.475 -0.5689 -0.1110 -0.3505
  698MOL0     C92015   9.183   9.513  11.411  0.1364  0.2008 -0.1022
  698MOL0     C92016   9.244   9.487  11.273 -0.3360  0.4081 -0.5516
  698MOL0     C92017   9.336   9.606  11.253 -1.2617 -0.5128 -0.2337
  698MOL0     C92018   9.490   9.578  11.295  0.3895 -0.5599 -0.2808
  698MOL0     C92019   9.575   9.701  11.238 -0.4759 -0.8063  0.5649
  698MOL0     C92020   9.725   9.713  11.273 -0.7703  0.0635 -0.0310
  698MOL0     N92021   9.800   9.622  11.186 -0.9083 -0.8342 -0.5466
  698MOL0     C92022   9.842   9.495  11.220  0.4213  0.2591  0.3070
  698MOL0     C92023   9.922   9.464  11.114 -0.3893  0.1681 -0.5241
  698MOL0     C92024  10.010   9.349  11.114  0.0911  0.2157 -0.0852
  698MOL0     C92025  10.125   9.341  11.015 -0.1094 -0.1038  0.3686
  698MOL0     C92026  10.157   9.201  10.964  0.1031  0.0060  0.7946
  698MOL0     C92027  10.074   9.163  10.839  0.3157  0.7397 -0.2093
  698MOL0     O92028  10.080   9.027  10.788 -0.2142 -0.7519 -1.3191
  698MOL0     C92029  10.014   8.929  10.867 -0.9154  0.2253 -0.8685
  698MOL0     C92030   9.922   8.951  10.967  0.1738  1.2035  0.3313
  698MOL0     C92031   9.876   8.830  11.030 -0.2601  0.7197  0.6656
  698MOL0     C92032   9.907   8.700  10.980  0.9647 -0.5780 -0.4534
  698MOL0     C92033   9.861   8.580  11.053  0.1259  0.2067  0.2335
  698MOL0     O92034   9.942   8.464  11.040 -0.1691 -1.0027 -0.3002
  698MOL0     C92035   9.881   8.347  11.083 -0.1165  0.5870  0.9335
  698MOL0     C92036   9.853   8.311  11.215 -0.0218  0.1779  0.4257
  698MOL0     C92037   9.774   8.200  11.258  0.5391  1.9454  0.1743
  698MOL0     C92038   9.702   8.127  11.161  0.1625  0.1935  0.3928
  698MOL0     O92039   9.604   8.038  11.203  0.6303 -0.7119  0.7193
  698MOL0     C92040   9.546   7.960  11.099 -0.3609 -0.4948 -0.5496
  698MOL0     C92041   9.421   7.877  11.141 -0.9121  0.1660 -0.3962
  698MOL0     C92042   9.305   7.976  11.189  0.3552  0.3978  0.2115
  698MOL0     C92043   9.175   7.899  11.226  0.0010  0.5695  0.6688
  698MOL0     C92044   9.155   7.835  11.366 -0.3063 -1.2758 -0.5106
  698MOL0     C92045   9.007   7.819  11.395 -0.3033 -0.8899  1.0191
  698MOL0     C92046   8.976   7.681  11.458  0.8301 -0.7431 -0.7538
  698MOL0     C92047   8.935   7.687  11.602 -0.5439  0.8182 -0.1581
  698MOL0    Cl92048   8.807   7.804  11.626  0.3017 -0.5551 -0.0261
  698MOL0     C92049   9.737   8.155  11.027 -0.1876  0.0393 -0.2334
  698MOL0     C92050   9.827   8.262  10.983  0.8684 -0.5696 -0.6070
  698MOL0     O92051   9.759   8.595  11.126 -0.5624  0.1145 -0.4955
  698MOL0     C92052   9.992   8.689  10.871 -0.6509 -0.0879 -0.5751
  698MOL0     C92053  10.043   8.807  10.814  0.1091  1.1531 -0.1397
  698MOL0     N92054   9.933   9.577  11.024 -0.0192 -0.1568 -0.3767
  698MOL0     N92055   9.861   9.672  11.066 -0.5826  0.6074 -0.4868
  698MOL0     C92056   8.737   9.229  11.370 -0.2662 -0.2465  0.9380
  698MOL0     C92057   8.631   9.156  11.310  0.5927 -1.2250 -1.0164
  698MOL0     C92058   8.377   8.906  11.068 -0.6788  0.0360 -0.7695
  698MOL0     C92059   8.361   8.877  10.935  0.1271 -0.4408 -0.4076
  698MOL0     C92060   8.239   8.831  10.886 -0.3172  0.0665  0.3214
  698MOL0     C92061   8.127   8.829  10.964 -0.7306  0.6267 -0.0389
  698MOL0     O92062   8.015   8.796  10.895  0.3537  0.7185  0.1161
  698MOL0     C92063   7.887   8.783  10.962 -0.5257 -0.2348 -0.5000
  698MOL0     C92064   7.766   8.782  10.869 -0.7217 -0.2846 -0.5620
  698MOL0     C92065   7.766   8.660  10.780 -0.3138 -0.4275  0.2424
  698MOL0     C92066   7.838   8.526  10.812  0.4998  0.6265  0.3508
  698MOL0     C92067   7.757   8.448  10.913 -0.3492 -0.5046 -0.1823
  698MOL0     C92068   7.711   8.384  11.003 -0.0933 -0.0061  0.7842
  698MOL0     C92069   8.141   8.868  11.095 -0.3510 -0.9704  0.1536
  698MOL0     C92070   8.265   8.907  11.146 -0.5811 -0.2787 -0.2296
  698MOL0     H92071   8.709   8.854  11.419  1.0229  0.1283  0.6562
  698MOL0     H92072   8.917   8.980  11.492  1.3315  0.0482 -1.4255
  698MOL0     H92073   8.924   9.427  11.405  0.2945 -0.3159  2.6576
  698MOL0     H92074   9.018   9.316  11.305 -3.0750  0.1334 -0.4269
  698MOL0     H92075   9.195   9.309  11.491  1.3323  2.3253  3.7852
  698MOL0     H92076   9.100   9.411  11.580  1.8316 -0.5573  0.2352
  698MOL0     H92077   9.252   9.545  11.489 -1.7349 -2.9950  3.1826
  698MOL0     H92078   9.104   9.586  11.388 -1.6433 -2.4938 -3.5197
  698MOL0     H92079   9.285   9.385  11.273 -4.7578 -1.7201 -3.7327
  698MOL0     H92080   9.172   9.484  11.190  0.7012 -1.6213 -1.4574
  698MOL0     H92081   9.300   9.694  11.307  2.9149  1.3970 -0.1085
  698MOL0     H92082   9.345   9.638  11.149  1.6090 -0.9790 -0.2146
  698MOL0     H92083   9.530   9.481  11.264  2.9394  0.1653  0.5519
  698MOL0     H92084   9.493   9.586  11.404  0.5494  0.2404 -0.3406
  698MOL0     H92085   9.576   9.705  11.129 -0.6300  0.7892  0.6058
  698MOL0     H92086   9.524   9.788  11.280 -3.5063 -0.7723 -2.7068
  698MOL0     H92087   9.743   9.695  11.379 -1.9771  2.3035  0.6210
  698MOL0     H92088   9.765   9.813  11.256  1.5145 -0.5427  1.3516
  698MOL0     H92089   9.823   9.439  11.311  2.2501 -0.9258  0.0068
  698MOL0     H92090   9.951   9.260  11.094 -1.1661  1.4630 -2.3956
  698MOL0     H92091  10.047   9.343  11.217  0.5156  1.7402 -0.1265
  698MOL0     H92092  10.208   9.387  11.070 -2.4897  1.8483  2.5860
  698MOL0     H92093  10.103   9.400  10.926 -1.4690 -3.9115 -2.0655
  698MOL0     H92094  10.260   9.189  10.931 -0.2863  0.9211 -0.9018
  698MOL0     H92095  10.137   9.125  11.040  0.4669 -1.2761 -0.3363
  698MOL0     H92096  10.099   9.223  10.751  3.4996 -0.3026 -0.1649
  698MOL0     H92097   9.966   9.176  10.853  0.0408  0.7534 -2.0417
  698MOL0     H92098   9.891   9.046  11.009 -2.0053  0.1652  1.1975
  698MOL0     H92099   9.826   8.850  11.124  2.1494  0.3787  2.0886
  698MOL0     H92100   9.888   8.375  11.294  0.6263 -1.4484  1.5165
  698MOL0     H92101   9.756   8.179  11.362 -0.8739 -0.5523 -0.4879
  698MOL0     H92102   9.635   7.904  11.069  1.2067  1.4085  0.3728
  698MOL0     H92103   9.516   8.027  11.018  4.5486  2.8917  0.0029
  698MOL0     H92104   9.451   7.806  11.218 -0.5384 -1.2766 -1.8255
  698MOL0     H92105   9.392   7.817  11.054 -1.7917 -0.2957  0.2028
  698MOL0     H92106   9.283   8.045  11.106 -1.0941  0.1734  0.3869
  698MOL0     H92107   9.328   8.017  11.288 -0.9180 -0.3832  0.8659
  698MOL0     H92108   9.097   7.976  11.221  1.7075  2.3274 -0.1608
  698MOL0     H92109   9.159   7.824  11.148  0.8182  2.8760 -1.8752
  698MOL0     H92110   9.200   7.903  11.438  1.4377 -1.0603 -1.7503
  698MOL0     H92111   9.207   7.739  11.373  0.2273 -0.8311  3.9632
  698MOL0     H92112   8.954   7.847  11.304  5.0397  3.2088 -1.3841
  698MOL0     H92113   8.981   7.896  11.468 -0.0067  1.4279 -1.2022
  698MOL0     H92114   8.896   7.629  11.406  0.8994 -0.3195 -1.2887
  698MOL0     H92115   9.058   7.608  11.456 -3.3728 -6.2134  0.5138
  698MOL0     H92116   9.016   7.713  11.671 -2.2255 -0.1109  2.2764
  698MOL0     H92117   8.897   7.589  11.631 -1.6062  0.8074 -1.4754
  698MOL0     H92118   9.705   8.083  10.952  0.4450 -0.3849 -0.1040
  698MOL0     H92119   9.837   8.282  10.876 -0.5792  0.6742 -0.5585
  698MOL0     H92120  10.002   8.597  10.815 -2.9085  2.2761 -5.4933
  698MOL0     H92121  10.119   8.792  10.738  0.1997 -1.5603  0.3626
  698MOL0     H92122   8.724   9.335  11.354 -3.6790 -0.9197 -1.9803
  698MOL0     H92123   8.550   9.212  11.264  1.8986  1.3871 -0.3504
  698MOL0     H92124   8.447   8.896  10.872 -1.9353  5.0528 -2.2347
  698MOL0     H92125   8.237   8.805  10.781  3.5255 -4.5449  1.0461
  698MOL0     H92126   7.883   8.874  11.023  1.2599  0.3243 -1.1483
  698MOL0     H92127   7.890   8.695  11.027  0.3103 -0.5627 -0.9606
  698MOL0     H92128   7.678   8.778  10.935 -0.6632 -0.3450 -0.4881
  698MOL0     H92129   7.749   8.880  10.824 -0.0785  1.0028  1.8110
  698MOL0     H92130   7.799   8.685  10.679 -1.9787 -0.6896 -0.4023
  698MOL0     H92131   7.659   8.644  10.762 -0.4940  0.4040  0.5314
  698MOL0     H92132   7.855   8.456  10.729  0.1224 -0.9156  1.5276
  698MOL0     H92133   7.933   8.551  10.860  0.8573  2.1686 -1.0453
  698MOL0     H92134   7.672   8.325  11.084  2.7422 -1.3908  1.2695
  698MOL0     H92135   8.062   8.887  11.167  2.2810 -1.6346  3.4734
  698MOL0     H92136   8.273   8.927  11.253 -0.0122  0.4848 -0.4068
  699MOL0     O92137   5.417   7.815   9.832 -0.1736 -0.2191  0.2846
  699MOL0     C92138   5.450   7.709   9.886 -0.4865 -0.5500 -0.0217
  699MOL0     O92139   5.579   7.660   9.909  0.3045  0.6747 -0.3705
  699MOL0     C92140   5.681   7.743   9.877 -0.2829 -0.5369  0.0712
  699MOL0     C92141   5.797   7.733   9.957 -0.0023  0.3167 -0.0760
  699MOL0     C92142   5.919   7.807   9.918  0.3253  0.4767  0.3030
  699MOL0     C92143   5.918   7.904   9.820 -0.6668 -0.8019  0.3708
  699MOL0     O92144   6.040   7.964   9.795  0.0518 -0.6563 -0.0299
  699MOL0     C92145   6.084   7.962   9.654  0.5221  0.0081  1.4029
  699MOL0     C92146   6.235   7.907   9.650  0.3197 -0.0663  0.4319
  699MOL0     C92147   6.266   7.801   9.755 -0.1818 -0.4757  0.3051
  699MOL0     C92148   6.207   7.661   9.726  1.6565 -0.3871 -0.3762
  699MOL0     C92149   6.256   7.585   9.834 -0.5402  0.2119 -0.6459
  699MOL0     C92150   6.182   7.452   9.862  0.1216  0.5681  0.0203
  699MOL0     C92151   6.061   7.445   9.961  0.2343 -1.0491 -0.3051
  699MOL0     C92152   6.106   7.449  10.107 -0.5986  0.4375 -0.5032
  699MOL0     N92153   6.017   7.536  10.185 -0.2683 -0.7019 -0.6423
  699MOL0     C92154   5.909   7.496  10.251 -0.0558 -0.1564  0.2450
  699MOL0     C92155   5.859   7.614  10.301  0.9305  0.1846 -1.0338
  699MOL0     C92156   5.733   7.643  10.378  0.7449 -0.6807 -0.1100
  699MOL0     C92157   5.619   7.711  10.305  0.5251  0.0574 -0.3098
  699MOL0     C92158   5.475   7.663  10.314  0.1057  0.5425  0.6764
  699MOL0     C92159   5.428   7.708  10.452 -0.7674 -0.2893 -0.7048
  699MOL0     O92160   5.319   7.632  10.516  0.5219 -0.6088  0.2561
  699MOL0     C92161   5.326   7.497  10.518  0.1745  1.6274 -0.8440
  699MOL0     C92162   5.425   7.433  10.592  1.0890 -0.9350 -0.3604
  699MOL0     C92163   5.444   7.297  10.593  0.3751 -1.0955 -1.0272
  699MOL0     C92164   5.347   7.217  10.530 -0.2141 -0.6061  0.9904
  699MOL0     C92165   5.373   7.074  10.509  1.1150 -0.0642  0.1902
  699MOL0     O92166   5.454   7.009  10.603  0.0268  0.2019  0.5639
  699MOL0     C92167   5.476   6.877  10.566 -0.0032 -0.4597 -0.8088
  699MOL0     C92168   5.574   6.848  10.473 -0.6369 -0.2570 -1.3083
  699MOL0     C92169   5.623   6.718  10.448 -0.0077 -1.5580  0.9648
  699MOL0     C92170   5.559   6.605  10.504  0.1418 -0.0291  0.6791
  699MOL0     O92171   5.595   6.466  10.492  0.4851 -0.3421  0.6638
  699MOL0     C92172   5.683   6.442  10.388 -0.2706  0.0747  0.6549
  699MOL0     C92173   5.699   6.292  10.340 -0.0793 -0.6057  0.1585
  699MOL0     C92174   5.784   6.277  10.204  0.2437  0.1898 -0.9632
  699MOL0     C92175   5.886   6.155  10.217  0.5253  0.0042  0.1845
  699MOL0     C92176   5.873   6.057  10.107  0.5715 -0.7291 -0.3466
  699MOL0     C92177   5.879   6.101   9.964  0.4264  0.6194  0.0209
  699MOL0     C92178   5.848   5.975   9.868  0.1250 -0.5987 -0.2500
  699MOL0     C92179   5.889   6.011   9.715  0.1055  0.7030  0.0053
  699MOL0    Cl92180   6.063   6.019   9.693 -0.1963  0.3027  0.1255
  699MOL0     C92181   5.460   6.635  10.599 -0.2250  0.2020 -0.3761
  699MOL0     C92182   5.417   6.765  10.634 -0.2084  0.1868 -0.0132
  699MOL0     O92183   5.320   7.022  10.416 -0.5857  0.6216 -0.0059
  699MOL0     C92184   5.258   7.283  10.451 -1.2528 -0.1408 -0.3855
  699MOL0     C92185   5.253   7.424  10.434  0.6727 -0.5158 -0.8140
  699MOL0     N92186   5.941   7.721  10.270 -0.1369 -0.3468 -0.0869
  699MOL0     N92187   6.039   7.663  10.207 -0.8067 -0.4571 -0.1030
  699MOL0     C92188   5.809   7.911   9.740 -0.3956 -0.0410 -0.0854
  699MOL0     C92189   5.692   7.834   9.763 -0.2143  0.0197 -0.7337
  699MOL0     C92190   5.344   7.608   9.928 -0.5109  0.7468  0.0053
  699MOL0     C92191   5.211   7.645   9.964  0.3042  0.5964 -0.6791
  699MOL0     C92192   5.120   7.540   9.999  0.2165 -0.3436 -0.5614
  699MOL0     C92193   5.160   7.409   9.997 -0.3207  0.2328 -0.8986
  699MOL0     O92194   5.058   7.317  10.024 -0.6323 -0.3762 -0.3914
  699MOL0     C92195   5.089   7.185  10.077  0.4110  0.1654 -0.8583
  699MOL0     C92196   4.991   7.185  10.193  0.2780 -0.0352 -0.3767
  699MOL0     C92197   4.978   7.062  10.270 -0.9735  0.6355  0.1509
  699MOL0     C92198   4.881   6.965  10.216  1.3184 -0.1393  0.4344
  699MOL0     C92199   4.854   6.838  10.289 -0.4884 -0.2030  1.2611
  699MOL0     C92200   4.814   6.744  10.346 -0.2285 -0.2363 -0.2914
  699MOL0     C92201   5.290   7.375   9.959  0.3343  0.0467  0.1964
  699MOL0     C92202   5.385   7.482   9.925  1.2446  0.7578 -1.3509
  699MOL0     H92203   5.804   7.661  10.038  2.0585  1.8539  1.2034
  699MOL0     H92204   6.010   7.783   9.972  0.6237  0.2991 -0.2659
  699MOL0     H92205   6.099   8.062   9.615 -1.3121  0.3220  1.4061
  699MOL0     H92206   6.011   7.908   9.593  0.9523 -0.3135  1.1632
  699MOL0     H92207   6.290   7.998   9.676  1.2896 -1.0888  2.0817
  699MOL0     H92208   6.269   7.872   9.552 -0.5938 -1.6125  0.6353
  699MOL0     H92209   6.240   7.838   9.855  2.0211 -0.3493  0.8904
  699MOL0     H92210   6.375   7.797   9.756  0.1905  4.2644  0.6135
  699MOL0     H92211   6.099   7.674   9.730  1.6829 -0.0443 -0.7896
  699MOL0     H92212   6.226   7.620   9.627 -1.2520 -0.4666 -0.9690
  699MOL0     H92213   6.250   7.636   9.930 -2.2578 -0.7916 -0.1708
  699MOL0     H92214   6.359   7.556   9.813 -1.4264 -2.8139 -1.4028
  699MOL0     H92215   6.258   7.380   9.892  1.5209  1.0889 -2.0814
  699MOL0     H92216   6.146   7.425   9.762  0.1364  2.0442 -0.4096
  699MOL0     H92217   5.984   7.521   9.945  0.6158 -0.4471  0.6272
  699MOL0     H92218   6.006   7.352   9.945 -4.4522  1.5437 -1.1465
  699MOL0     H92219   6.211   7.480  10.116 -0.0172 -1.9900  3.7862
  699MOL0     H92220   6.105   7.348  10.150 -0.1384  0.6926  0.1213
  699MOL0     H92221   5.868   7.396  10.260 -2.8171  0.9366  0.9110
  699MOL0     H92222   5.764   7.697  10.468  2.4957 -1.4865 -0.1909
  699MOL0     H92223   5.680   7.556  10.416 -3.0181  0.7234 -1.6381
  699MOL0     H92224   5.631   7.703  10.197 -0.3833  0.2087 -0.4349
  699MOL0     H92225   5.613   7.817  10.331  2.9384  0.5541 -1.5324
  699MOL0     H92226   5.414   7.724  10.247  0.4236  1.2206  0.9873
  699MOL0     H92227   5.458   7.555  10.304 -0.3712  0.5560  1.2500
  699MOL0     H92228   5.393   7.811  10.449 -2.1265 -0.7343 -0.8116
  699MOL0     H92229   5.517   7.702  10.516 -1.5651 -1.1545  0.3617
  699MOL0     H92230   5.495   7.509  10.626 -1.0717  0.7317  0.6342
  699MOL0     H92231   5.534   7.261  10.641  2.4707 -0.4810 -4.1395
  699MOL0     H92232   5.624   6.931  10.423  0.0170  0.9444  1.1544
  699MOL0     H92233   5.702   6.704  10.375  2.5561  1.7072  2.8175
  699MOL0     H92234   5.784   6.464  10.424  1.0892 -2.2779 -1.4286
  699MOL0     H92235   5.661   6.503  10.300 -2.2003 -2.9992 -1.1410
  699MOL0     H92236   5.606   6.235  10.335 -0.4828 -0.5911  4.2209
  699MOL0     H92237   5.738   6.235  10.425 -0.3553 -1.5344 -0.3238
  699MOL0     H92238   5.826   6.373  10.174  0.2074  0.4705 -0.1302
  699MOL0     H92239   5.715   6.240  10.128  1.0742 -1.5471 -0.9147
  699MOL0     H92240   5.989   6.190  10.210  0.2883  1.6867  3.2350
  699MOL0     H92241   5.868   6.107  10.313  1.8261  1.1313  1.0450
  699MOL0     H92242   5.773   6.014  10.119  1.5246 -2.2687  3.4643
  699MOL0     H92243   5.955   5.988  10.127 -0.2715 -2.6670 -3.0517
  699MOL0     H92244   5.973   6.152   9.939  0.3344  0.8207  0.0819
  699MOL0     H92245   5.800   6.176   9.949  0.5524  1.5039  3.1914
  699MOL0     H92246   5.911   5.886   9.879  0.1940 -0.5419 -0.1858
  699MOL0     H92247   5.748   5.935   9.884 -1.0410  1.6961 -1.2874
  699MOL0     H92248   5.855   6.114   9.697  1.4651  1.2607  0.4454
  699MOL0     H92249   5.850   5.941   9.641  2.2603 -0.6351  0.0565
  699MOL0     H92250   5.411   6.557  10.657  1.1529  1.0879  2.1724
  699MOL0     H92251   5.338   6.776  10.708 -1.9667 -2.4889 -1.3279
  699MOL0     H92252   5.185   7.220  10.400  1.3348 -1.8948 -2.1689
  699MOL0     H92253   5.193   7.471  10.357 -1.7547 -0.4748  0.9607
  699MOL0     H92254   5.811   7.973   9.651 -0.7451 -1.4016 -1.0791
  699MOL0     H92255   5.609   7.834   9.693  0.5469 -0.1142 -1.6446
  699MOL0     H92256   5.173   7.746   9.978 -1.1170 -0.1358  1.2409
  699MOL0     H92257   5.018   7.559  10.029  0.8412 -1.6467  2.9426
  699MOL0     H92258   5.186   7.166  10.122  0.3676 -0.1732 -0.9047
  699MOL0     H92259   5.055   7.111  10.003 -0.8095 -1.4730  1.2065
  699MOL0     H92260   5.031   7.254  10.268  2.3699 -2.8371  1.2825
  699MOL0     H92261   4.894   7.224  10.160 -0.1774  0.7925  1.7318
  699MOL0     H92262   4.958   7.079  10.376  2.3472 -2.1776  1.4102
  699MOL0     H92263   5.065   6.995  10.268 -2.5803 -1.5592 -0.3204
  699MOL0     H92264   4.784   7.016  10.219  1.3821  0.0213 -0.2379
  699MOL0     H92265   4.910   6.922  10.120 -1.0814 -1.4477  0.2276
  699MOL0     H92266   4.781   6.659  10.401 -1.4609  2.0646  2.8100
  699MOL0     H92267   5.310   7.271   9.935 -0.4278 -0.3353  1.1913
  699MOL0     H92268   5.486   7.446   9.909  1.0486 -0.0178 -0.9335
  700MOL0     O92269  10.397   2.792   1.455 -1.7780  0.3432 -0.3881
  700MOL0     C92270  10.423   2.770   1.335 -0.2872  0.5837  1.2012
  700MOL0     O92271  10.418   2.867   1.234 -0.7064 -0.0660  0.0631
  700MOL0     C92272  10.368   2.988   1.269  0.7935 -0.1666 -0.0945
  700MOL0     C92273  10.258   3.036   1.192  0.2376  0.1518 -0.3065
  700MOL0     C92274  10.194   3.158   1.217 -0.0636 -0.6345  0.5843
  700MOL0     C92275  10.247   3.244   1.311 -0.1375 -1.0170  1.5649
  700MOL0     O92276  10.172   3.353   1.335  0.1816 -1.4249 -0.0440
  700MOL0     C92277  10.223   3.473   1.390 -0.3576  0.4723  0.0270
  700MOL0     C92278  10.252   3.567   1.270 -0.1134  0.1482  0.2857
  700MOL0     C92279  10.131   3.595   1.187  0.4671 -0.5427  0.8964
  700MOL0     C92280  10.030   3.683   1.255 -0.5703 -0.0414  0.2831
  700MOL0     C92281   9.957   3.765   1.146 -0.0104 -0.7839 -0.2418
  700MOL0     C92282   9.881   3.884   1.219  0.7347 -0.2119 -0.4488
  700MOL0     C92283   9.757   3.959   1.159 -0.4552  0.3743  0.0262
  700MOL0     C92284   9.688   4.034   1.272 -0.8958  0.2590 -0.3327
  700MOL0     N92285   9.552   4.088   1.243 -0.9302  0.0424 -0.6743
  700MOL0     C92286   9.522   4.170   1.143 -0.2043  1.2545 -0.2499
  700MOL0     C92287   9.395   4.179   1.157  0.5053 -0.4607  0.2986
  700MOL0     C92288   9.305   4.226   1.049  0.5992  0.9339  0.2234
  700MOL0     C92289   9.242   4.367   1.074  0.7237 -0.3855  0.7044
  700MOL0     C92290   9.112   4.402   0.996 -0.6714  0.1787  0.4069
  700MOL0     C92291   9.097   4.554   0.978  0.1564  0.6605  0.8875
  700MOL0     O92292   8.979   4.575   0.908  0.2741  0.9571 -0.2584
  700MOL0     C92293   8.877   4.643   0.976 -0.8336 -0.4435 -0.0587
  700MOL0     C92294   8.849   4.630   1.110  1.1991 -0.0339  0.1632
  700MOL0     C92295   8.742   4.714   1.160  0.4292 -0.6090 -0.1597
  700MOL0     C92296   8.667   4.811   1.087 -0.1597 -0.3572 -0.5112
  700MOL0     C92297   8.560   4.901   1.142  0.0427 -0.2164 -0.9574
  700MOL0     O92298   8.475   4.949   1.054  0.8704  0.0236 -0.8918
  700MOL0     C92299   8.360   4.991   1.114 -0.6687 -0.5339 -0.6651
  700MOL0     C92300   8.264   4.901   1.143 -0.2329 -0.5812 -0.4183
  700MOL0     C92301   8.137   4.945   1.176  0.5044  1.0903  0.2569
  700MOL0     C92302   8.106   5.079   1.196  0.3775 -0.3650  0.5271
  700MOL0     O92303   7.984   5.124   1.227 -0.1687  0.2127  0.1733
  700MOL0     C92304   7.875   5.029   1.205  0.4108  0.6406  0.2370
  700MOL0     C92305   7.746   5.097   1.213  0.1661 -1.1704 -0.0803
  700MOL0     C92306   7.651   5.009   1.285  0.0789 -0.1438  0.3574
  700MOL0     C92307   7.521   5.087   1.312  0.3499 -0.1830  0.2721
  700MOL0     C92308   7.435   5.002   1.416  0.8548 -0.9377 -0.0050
  700MOL0     C92309   7.293   5.071   1.444 -0.5558  0.0599  0.8351
  700MOL0     C92310   7.206   4.992   1.547  0.5301  0.0278 -0.0723
  700MOL0     C92311   7.118   5.092   1.629 -0.0446  0.4744 -0.4248
  700MOL0    Cl92312   6.985   4.987   1.691 -0.0973  0.1248 -0.1707
  700MOL0     C92313   8.215   5.170   1.179  0.1587  0.2439 -0.3514
  700MOL0     C92314   8.337   5.129   1.128 -0.4999 -0.3148  1.0418
  700MOL0     O92315   8.547   4.907   1.266  0.0704  0.1797 -0.0815
  700MOL0     C92316   8.691   4.820   0.951 -0.3742  1.6591 -0.0261
  700MOL0     C92317   8.796   4.735   0.897 -0.6310  0.7355 -0.3936
  700MOL0     N92318   9.361   4.136   1.282 -0.9341 -0.0733  0.0793
  700MOL0     N92319   9.465   4.078   1.340  0.9929 -0.3961 -0.0871
  700MOL0     C92320  10.370   3.206   1.383  0.0770 -0.4565 -0.0001
  700MOL0     C92321  10.431   3.068   1.359  0.4338 -1.4053 -0.8558
  700MOL0     C92322  10.462   2.628   1.298  0.2034 -0.5885 -0.9557
  700MOL0     C92323  10.524   2.550   1.395  0.7238  0.8057  0.6379
  700MOL0     C92324  10.574   2.428   1.363 -0.3704  0.5610 -0.5778
  700MOL0     C92325  10.561   2.369   1.228 -0.3358 -0.3747  0.2675
  700MOL0     O92326  10.607   2.249   1.183 -0.7222 -0.5692  0.1193
  700MOL0     C92327  10.676   2.158   1.277  0.5052  0.1266  0.2381
  700MOL0     C92328  10.818   2.183   1.315 -0.0036 -0.1274  0.3139
  700MOL0     C92329  10.913   2.205   1.197 -0.2293 -0.4230  0.2858
  700MOL0     C92330  11.048   2.266   1.241 -0.2017  0.4668 -0.2736
  700MOL0     C92331  11.149   2.281   1.134 -1.0332  0.3633  0.0237
  700MOL0     C92332  11.212   2.307   1.034  0.5725  0.3101 -0.2364
  700MOL0     C92333  10.476   2.444   1.142 -0.0604 -0.7394 -0.2582
  700MOL0     C92334  10.432   2.573   1.178 -0.3378 -1.0359 -0.7058
  700MOL0     H92335  10.221   2.963   1.120 -0.9654  1.5684 -1.1764
  700MOL0     H92336  10.111   3.181   1.151  2.0790  1.8415 -1.4591
  700MOL0     H92337  10.316   3.460   1.446 -0.5079 -3.2516 -0.3103
  700MOL0     H92338  10.145   3.510   1.457 -0.6122 -2.1092  1.2831
  700MOL0     H92339  10.326   3.516   1.208  1.5527  0.7596  1.7007
  700MOL0     H92340  10.296   3.664   1.297 -1.0107  0.7654 -0.3889
  700MOL0     H92341  10.077   3.504   1.161  0.1386 -0.1218  0.0589
  700MOL0     H92342  10.158   3.642   1.092 -0.5105  0.6097  1.1542
  700MOL0     H92343   9.965   3.616   1.311 -1.5052 -2.3555 -3.2035
  700MOL0     H92344  10.077   3.747   1.330  0.9366 -1.4265  0.5894
  700MOL0     H92345   9.887   3.705   1.087 -2.0237  1.4017 -0.1962
  700MOL0     H92346  10.030   3.800   1.072 -0.0824  0.8951  0.4396
  700MOL0     H92347   9.958   3.959   1.243 -0.1448 -0.1206  2.6146
  700MOL0     H92348   9.843   3.846   1.315 -0.0455  1.5026 -0.0462
  700MOL0     H92349   9.772   4.031   1.077 -0.5501  3.5113  2.5658
  700MOL0     H92350   9.682   3.894   1.114 -0.5711  1.0917 -0.8588
  700MOL0     H92351   9.747   4.118   1.307 -0.1389 -0.9901  1.5550
  700MOL0     H92352   9.676   3.973   1.362 -0.5146 -0.0285 -0.4761
  700MOL0     H92353   9.582   4.191   1.055 -1.8178 -1.9377 -2.3041
  700MOL0     H92354   9.230   4.147   1.045  1.9720 -0.3977 -0.8691
  700MOL0     H92355   9.355   4.222   0.951 -1.9363  0.5300 -1.1396
  700MOL0     H92356   9.328   4.434   1.061  0.5306  0.2441  2.3892
  700MOL0     H92357   9.207   4.365   1.178 -3.3987  3.1813 -0.3177
  700MOL0     H92358   9.114   4.359   0.895  2.5555 -0.6532  0.7448
  700MOL0     H92359   9.025   4.370   1.054  0.6516 -0.9891  1.7989
  700MOL0     H92360   9.179   4.587   0.914  0.4579 -1.5067  0.0540
  700MOL0     H92361   9.090   4.613   1.070 -3.5223 -0.3246  1.3941
  700MOL0     H92362   8.903   4.560   1.173  0.9515  1.8775  2.6427
  700MOL0     H92363   8.718   4.696   1.265 -1.0493  1.8335 -0.0034
  700MOL0     H92364   8.289   4.796   1.133 -1.0570 -1.0270  1.6132
  700MOL0     H92365   8.066   4.866   1.198  2.1151 -0.4475  0.1949
  700MOL0     H92366   7.882   4.955   1.285 -0.1269 -0.9332 -1.1280
  700MOL0     H92367   7.889   4.998   1.101 -4.2244  1.5943 -0.8948
  700MOL0     H92368   7.705   5.108   1.112  0.1440  2.2112  0.1638
  700MOL0     H92369   7.756   5.196   1.259  1.1964 -1.2971 -0.0074
  700MOL0     H92370   7.698   4.995   1.382  0.5776  1.1149  0.3158
  700MOL0     H92371   7.612   4.924   1.229 -2.6121  1.9780 -1.2849
  700MOL0     H92372   7.537   5.185   1.357  0.0860  1.3291 -2.6988
  700MOL0     H92373   7.474   5.103   1.215 -2.0284  2.2118  1.6776
  700MOL0     H92374   7.491   4.992   1.510 -2.9263 -1.5233  2.4474
  700MOL0     H92375   7.419   4.906   1.367 -2.6535 -1.1534  1.2816
  700MOL0     H92376   7.241   5.083   1.348 -0.0885 -0.6799  0.4856
  700MOL0     H92377   7.313   5.172   1.482  0.9072 -0.2131  0.8250
  700MOL0     H92378   7.139   4.912   1.515  1.6044 -1.5940  1.4851
  700MOL0     H92379   7.273   4.941   1.618  0.2795 -2.3626 -1.4447
  700MOL0     H92380   7.073   5.167   1.563  0.3094  0.9116 -0.1784
  700MOL0     H92381   7.198   5.133   1.692  2.2719  1.0640 -3.5114
  700MOL0     H92382   8.210   5.272   1.215  1.0558 -0.3829  1.6675
  700MOL0     H92383   8.414   5.205   1.113 -1.3630  0.1514 -1.6801
  700MOL0     H92384   8.623   4.882   0.894  2.7710  3.9304 -1.6221
  700MOL0     H92385   8.814   4.745   0.790 -1.1969  0.4598 -0.5213
  700MOL0     H92386  10.391   3.278   1.462 -0.4098 -1.4811  1.0942
  700MOL0     H92387  10.515   3.038   1.421  0.8744 -0.3835 -0.9436
  700MOL0     H92388  10.529   2.591   1.495  2.4015  0.2595  0.8024
  700MOL0     H92389  10.632   2.377   1.439  1.2830  2.6844 -0.3164
  700MOL0     H92390  10.669   2.054   1.242  1.1343  0.5660 -1.2576
  700MOL0     H92391  10.613   2.165   1.366 -1.9224 -0.4256 -1.3483
  700MOL0     H92392  10.833   2.267   1.383 -0.8587 -1.7936  2.6908
  700MOL0     H92393  10.852   2.099   1.375  0.8338  0.9894  1.4398
  700MOL0     H92394  10.871   2.269   1.118 -1.2369 -1.2281  0.1533
  700MOL0     H92395  10.922   2.102   1.163 -3.9540 -0.4329 -1.1938
  700MOL0     H92396  11.023   2.361   1.290 -2.0791  0.8913 -1.9458
  700MOL0     H92397  11.096   2.211   1.323  0.0185  1.4081  0.2479
  700MOL0     H92398  11.280   2.311   0.951  0.4546 -2.4298 -0.5517
  700MOL0     H92399  10.452   2.403   1.045 -1.4035  1.0746 -0.7411
  700MOL0     H92400  10.378   2.626   1.100 -0.2790 -0.1269 -0.1406
  701MOL0     O92401   4.590   2.277   7.494 -0.4980  0.2032  0.2043
  701MOL0     C92402   4.489   2.336   7.461 -0.8530  0.0525  0.4405
  701MOL0     O92403   4.367   2.280   7.426  0.1596 -0.0011  0.3647
  701MOL0     C92404   4.347   2.150   7.434 -0.0203  0.8365 -0.0168
  701MOL0     C92405   4.299   2.102   7.553 -0.3475  0.3761 -0.7877
  701MOL0     C92406   4.241   1.976   7.561  0.2794 -0.4236 -0.3561
  701MOL0     C92407   4.240   1.892   7.455 -0.2240  0.3254  0.1390
  701MOL0     O92408   4.192   1.768   7.463 -0.4149 -0.0523  0.4335
  701MOL0     C92409   4.250   1.666   7.377  1.0590 -0.1020  0.2980
  701MOL0     C92410   4.245   1.521   7.437 -0.6095 -0.0805 -0.0932
  701MOL0     C92411   4.374   1.493   7.523  0.4468 -0.3494 -0.0881
  701MOL0     C92412   4.374   1.579   7.652  0.0215 -0.2623 -0.3175
  701MOL0     C92413   4.272   1.528   7.755  0.1867  0.2817  0.0641
  701MOL0     C92414   4.259   1.594   7.888  0.9587  0.8655 -0.2439
  701MOL0     C92415   4.205   1.738   7.887 -0.0418  0.0448  0.5356
  701MOL0     C92416   4.128   1.766   8.014  0.3110  0.1284  0.8171
  701MOL0     N92417   4.213   1.771   8.128 -1.1174  0.3489  0.2215
  701MOL0     C92418   4.215   1.673   8.226 -0.2133 -0.0015 -0.6882
  701MOL0     C92419   4.336   1.707   8.294  0.4592  0.1800  0.5632
  701MOL0     C92420   4.404   1.625   8.394  0.7883  0.4233  0.0988
  701MOL0     C92421   4.553   1.651   8.417  0.1795  0.0372  1.3640
  701MOL0     C92422   4.640   1.625   8.293 -0.6687 -0.2593  0.6578
  701MOL0     C92423   4.722   1.746   8.242 -0.1244 -0.0550 -0.7900
  701MOL0     O92424   4.849   1.755   8.308  0.0517 -0.2580  0.8725
  701MOL0     C92425   4.921   1.861   8.268  0.2452  0.3835  1.1603
  701MOL0     C92426   4.885   1.970   8.182 -0.5463 -0.2113 -0.4232
  701MOL0     C92427   4.973   2.074   8.155 -0.4432  0.3031 -0.2940
  701MOL0     C92428   5.101   2.059   8.202  0.6383 -0.1034 -0.1701
  701MOL0     C92429   5.204   2.153   8.141  0.3608  0.0134 -0.1988
  701MOL0     O92430   5.159   2.255   8.062 -0.6689  0.2264 -0.0334
  701MOL0     C92431   5.247   2.354   8.036  1.1171  1.0834  0.3251
  701MOL0     C92432   5.303   2.376   7.911  0.4377 -0.5654  0.4909
  701MOL0     C92433   5.402   2.474   7.887 -0.4893  0.1745 -0.3379
  701MOL0     C92434   5.438   2.558   7.994 -0.5049 -0.0482  0.6358
  701MOL0     O92435   5.523   2.665   7.974  0.2306 -0.8317  0.5030
  701MOL0     C92436   5.633   2.652   7.882 -0.7498  0.8665  0.6193
  701MOL0     C92437   5.737   2.539   7.903  0.3014 -0.4110 -0.5415
  701MOL0     C92438   5.810   2.542   8.047  1.0692 -0.1889  0.2391
  701MOL0     C92439   5.910   2.654   8.049 -0.6729  0.3424  0.4069
  701MOL0     C92440   5.966   2.666   8.193  1.1160 -0.4857  0.3236
  701MOL0     C92441   6.054   2.788   8.220 -1.1454  0.6556  0.4119
  701MOL0     C92442   6.113   2.794   8.365 -0.0045 -0.6119  0.4102
  701MOL0     C92443   6.231   2.892   8.352  0.3077 -0.5961 -0.6778
  701MOL0    Cl92444   6.272   2.970   8.507 -0.4443  0.2389  0.3507
  701MOL0     C92445   5.376   2.544   8.117  0.2619 -0.6840 -0.1288
  701MOL0     C92446   5.288   2.442   8.140 -0.2896  1.0626  0.3288
  701MOL0     O92447   5.323   2.121   8.161  0.2046  0.0867 -0.3681
  701MOL0     C92448   5.132   1.969   8.301  0.1106  0.5163  0.9355
  701MOL0     C92449   5.036   1.874   8.333  0.5108  0.5669 -0.7595
  701MOL0     N92450   4.385   1.833   8.242  0.3923 -0.3146  0.2587
  701MOL0     N92451   4.307   1.866   8.145 -0.4036  0.3172 -0.6177
  701MOL0     C92452   4.288   1.941   7.329  0.0768  0.5743 -0.2124
  701MOL0     C92453   4.344   2.068   7.326 -0.2189 -0.1469  0.0408
  701MOL0     C92454   4.485   2.487   7.481 -0.7713  0.9685  0.5336
  701MOL0     C92455   4.372   2.568   7.467  0.1755 -0.2265  0.5304
  701MOL0     C92456   4.368   2.705   7.498 -0.3419  0.6064 -0.3684
  701MOL0     C92457   4.487   2.768   7.523  1.0280 -0.5479  0.1921
  701MOL0     O92458   4.481   2.906   7.534 -0.0638 -0.0941  0.3672
  701MOL0     C92459   4.577   2.969   7.453 -0.3140  0.3617  0.5508
  701MOL0     C92460   4.522   3.094   7.389  0.4812 -0.4260  0.5131
  701MOL0     C92461   4.634   3.201   7.332 -0.4220  0.1529  0.4035
  701MOL0     C92462   4.588   3.327   7.254  0.1793  0.4552  0.0173
  701MOL0     C92463   4.520   3.299   7.128  0.8099  0.0211 -0.4029
  701MOL0     C92464   4.468   3.278   7.018 -0.7728  0.3732  0.6094
  701MOL0     C92465   4.601   2.692   7.543  0.1082 -0.5240 -0.6960
  701MOL0     C92466   4.599   2.557   7.515 -0.2361  0.2291 -0.5731
  701MOL0     H92467   4.296   2.176   7.633  1.5382 -0.2174 -0.1008
  701MOL0     H92468   4.195   1.953   7.657  0.3723  1.0264  0.0757
  701MOL0     H92469   4.354   1.683   7.350  0.8566 -0.2976 -0.6443
  701MOL0     H92470   4.194   1.668   7.283  1.5743  0.0823 -0.0083
  701MOL0     H92471   4.234   1.448   7.356  1.1440  1.4550 -1.8525
  701MOL0     H92472   4.155   1.509   7.497  0.7744 -2.0168  1.7142
  701MOL0     H92473   4.455   1.532   7.461  0.9542  0.3495  0.9748
  701MOL0     H92474   4.364   1.386   7.542  0.6093 -0.3929 -0.2507
  701MOL0     H92475   4.463   1.559   7.712 -0.3432  3.1285  1.6300
  701MOL0     H92476   4.355   1.686   7.643  1.8030  0.0149 -1.3708
  701MOL0     H92477   4.301   1.423   7.768  0.8382  0.4605  0.0870
  701MOL0     H92478   4.171   1.529   7.713 -0.1213  2.7316  0.7224
  701MOL0     H92479   4.361   1.586   7.927  1.5991 -1.4161 -2.1621
  701MOL0     H92480   4.197   1.524   7.944  2.5210  0.3886  0.9687
  701MOL0     H92481   4.286   1.809   7.871 -0.4048 -0.0033 -1.9401
  701MOL0     H92482   4.148   1.746   7.794  2.6376  0.3900 -1.1743
  701MOL0     H92483   4.037   1.704   8.014 -1.6948  2.5935 -3.7628
  701MOL0     H92484   4.076   1.861   8.005 -1.6706 -0.9222  0.5044
  701MOL0     H92485   4.165   1.577   8.220  4.0846 -2.6166  0.9369
  701MOL0     H92486   4.392   1.522   8.358 -2.0797  0.9659 -0.7384
  701MOL0     H92487   4.335   1.631   8.478  1.6887 -0.7893  0.9645
  701MOL0     H92488   4.589   1.571   8.483  2.3534 -1.1875 -1.0873
  701MOL0     H92489   4.572   1.752   8.454 -2.1550  0.3280  1.9298
  701MOL0     H92490   4.713   1.547   8.318  2.4129  2.8576  2.1929
  701MOL0     H92491   4.578   1.600   8.206 -1.8522 -1.0348  1.6835
  701MOL0     H92492   4.671   1.842   8.257  1.5049  1.1351 -2.3016
  701MOL0     H92493   4.737   1.746   8.133  0.0950  3.8969 -0.9231
  701MOL0     H92494   4.790   1.984   8.132 -0.0808  3.0185 -0.6569
  701MOL0     H92495   4.942   2.156   8.091 -0.7674  0.9107  0.6293
  701MOL0     H92496   5.268   2.307   7.834 -2.3707 -0.3873  1.4923
  701MOL0     H92497   5.445   2.484   7.787 -0.6148 -1.5817 -0.6060
  701MOL0     H92498   5.679   2.751   7.879  0.8098  0.1567 -0.7384
  701MOL0     H92499   5.599   2.640   7.778  1.6621 -1.1982 -0.0507
  701MOL0     H92500   5.810   2.542   7.822 -0.8216  0.8724 -1.5573
  701MOL0     H92501   5.678   2.447   7.901  0.3203 -0.4835  0.9896
  701MOL0     H92502   5.857   2.445   8.066  1.6351  0.6504  3.8322
  701MOL0     H92503   5.732   2.557   8.122 -0.2394  1.4264 -1.3398
  701MOL0     H92504   5.995   2.639   7.982 -0.0258  1.2375  1.0220
  701MOL0     H92505   5.867   2.746   8.009  0.6441  0.1727 -1.5101
  701MOL0     H92506   6.030   2.578   8.206 -0.7120 -1.4350  4.3876
  701MOL0     H92507   5.892   2.662   8.273  2.8505  4.8964  2.6826
  701MOL0     H92508   6.008   2.885   8.198 -0.2177  0.7494 -1.2719
  701MOL0     H92509   6.134   2.781   8.146 -3.1016  1.0133 -1.8882
  701MOL0     H92510   6.034   2.842   8.424 -2.2149 -1.2813 -1.8406
  701MOL0     H92511   6.133   2.697   8.411 -1.1154 -0.2762  1.6851
  701MOL0     H92512   6.193   2.974   8.291  0.2178  0.1993  0.4200
  701MOL0     H92513   6.326   2.855   8.312  0.0105 -0.9218 -1.0823
  701MOL0     H92514   5.415   2.604   8.199 -3.2193  1.5894  0.0534
  701MOL0     H92515   5.251   2.431   8.241  3.1304  3.0396  1.9803
  701MOL0     H92516   5.226   1.979   8.355  1.8422 -2.3154 -1.2904
  701MOL0     H92517   5.062   1.820   8.423 -0.6414 -1.3473 -1.5254
  701MOL0     H92518   4.271   1.894   7.233  1.7483 -2.2134  0.7109
  701MOL0     H92519   4.374   2.118   7.234 -1.9776  0.9406  0.0052
  701MOL0     H92520   4.278   2.515   7.452  1.6390 -3.7382  2.6408
  701MOL0     H92521   4.273   2.755   7.481 -0.4477 -0.0290 -1.7113
  701MOL0     H92522   4.615   2.910   7.370  0.0807  0.4650  0.6571
  701MOL0     H92523   4.665   2.996   7.511  0.2961  0.2872 -0.3258
  701MOL0     H92524   4.454   3.068   7.307 -2.4629 -0.7387  2.8983
  701MOL0     H92525   4.454   3.146   7.457 -0.7133 -1.7997  0.4067
  701MOL0     H92526   4.714   3.146   7.282 -0.1796 -1.4314  2.3829
  701MOL0     H92527   4.684   3.241   7.421  0.4391  0.3940 -0.1855
  701MOL0     H92528   4.532   3.396   7.316  1.6461  0.3463  1.5361
  701MOL0     H92529   4.679   3.379   7.222 -1.1653  1.3643 -2.6673
  701MOL0     H92530   4.455   3.258   6.914  0.3782  1.0987  0.3034
  701MOL0     H92531   4.699   2.731   7.567 -0.4297  1.5931 -1.7123
  701MOL0     H92532   4.692   2.501   7.512  1.2191  2.5531 -1.3491
  702MOL0     O92533   8.192   8.952   4.905  0.3747 -0.0485 -0.3541
  702MOL0     C92534   8.162   8.907   5.016 -1.1508  0.1063 -0.9259
  702MOL0     O92535   8.056   8.943   5.095  0.5227 -0.6530  0.3023
  702MOL0     C92536   7.965   9.047   5.054 -0.3323 -0.5088  0.0050
  702MOL0     C92537   7.832   9.015   5.048 -0.0081 -0.2066  0.2989
  702MOL0     C92538   7.730   9.107   5.005  0.0403  0.2741  0.1305
  702MOL0     C92539   7.781   9.232   4.968 -0.7698 -0.1826  0.4041
  702MOL0     O92540   7.699   9.329   4.933  1.2623 -0.2527  0.0538
  702MOL0     C92541   7.746   9.456   4.876 -0.2383  0.7033  0.7257
  702MOL0     C92542   7.630   9.540   4.823  0.2623  0.4186 -0.4150
  702MOL0     C92543   7.679   9.660   4.749 -1.0628 -0.5087 -0.4332
  702MOL0     C92544   7.572   9.763   4.742 -0.1050  1.2160 -0.0829
  702MOL0     C92545   7.597   9.881   4.643 -0.0251 -0.6190 -0.9476
  702MOL0     C92546   7.734   9.939   4.655 -0.1667 -0.2934 -0.0028
  702MOL0     C92547   7.729  10.079   4.582 -0.5225 -0.3595  0.0415
  702MOL0     C92548   7.867  10.151   4.565  1.1173  0.4112 -0.6439
  702MOL0     N92549   7.836  10.285   4.518 -0.1782 -0.8124  0.4574
  702MOL0     C92550   7.814  10.323   4.387  0.2503  0.6587 -0.0670
  702MOL0     C92551   7.770  10.452   4.397 -0.0637  1.4207  0.1623
  702MOL0     C92552   7.731  10.531   4.274  1.1799 -1.1560  0.2744
  702MOL0     C92553   7.863  10.561   4.195  0.2468 -0.5053 -1.5331
  702MOL0     C92554   7.808  10.640   4.073  0.1422  0.3929 -0.1448
  702MOL0     C92555   7.925  10.671   3.977  0.1293 -0.5239 -0.2286
  702MOL0     O92556   8.001  10.768   4.044 -0.3824  0.1996 -0.1169
  702MOL0     C92557   8.099  10.828   3.978  0.0973  0.2038  0.0447
  702MOL0     C92558   8.119  10.958   4.009 -0.2923 -0.1586 -0.1389
  702MOL0     C92559   8.219  11.039   3.945 -0.7703 -0.5223 -0.3596
  702MOL0     C92560   8.306  10.986   3.858 -0.5448  0.0757  1.0181
  702MOL0     C92561   8.425  11.059   3.815 -0.6301  0.8592 -0.7291
  702MOL0     O92562   8.433  11.199   3.821  0.3253 -0.6573  0.5831
  702MOL0     C92563   8.537  11.259   3.755  0.2872 -0.1131 -1.0298
  702MOL0     C92564   8.628  11.343   3.822  0.0803  0.2148 -0.3308
  702MOL0     C92565   8.724  11.407   3.748 -0.8093  0.6920  0.9902
  702MOL0     C92566   8.735  11.395   3.602 -0.1370  0.4668 -0.5488
  702MOL0     O92567   8.842  11.461   3.536  0.3905  0.6005  0.3099
  702MOL0     C92568   8.879  11.396   3.417 -0.6185  0.1006 -0.7893
  702MOL0     C92569   9.014  11.467   3.398  0.3788  0.0765  0.0480
  702MOL0     C92570   9.017  11.619   3.413  0.4846  0.0351 -0.2633
  702MOL0     C92571   9.153  11.686   3.402 -0.0870  0.0412  0.3308
  702MOL0     C92572   9.162  11.831   3.344  0.3226  0.9537  0.4373
  702MOL0     C92573   9.309  11.866   3.350 -0.1989  0.1742 -0.2401
  702MOL0     C92574   9.321  12.004   3.296 -0.7926  0.4572  0.0361
  702MOL0     C92575   9.440  12.089   3.345  0.1779  0.4960 -1.4239
  702MOL0    Cl92576   9.431  12.257   3.280 -0.5098 -0.3652  0.2110
  702MOL0     C92577   8.632  11.326   3.541  0.1229 -0.5942  0.6036
  702MOL0     C92578   8.538  11.254   3.615 -0.3358 -1.0833 -0.3964
  702MOL0     O92579   8.516  10.985   3.780 -0.9809  0.6384  0.1382
  702MOL0     C92580   8.293  10.850   3.827 -0.2928  0.2050  0.3623
  702MOL0     C92581   8.185  10.772   3.885 -0.2263 -0.5716 -0.0349
  702MOL0     N92582   7.764  10.491   4.527  0.3268  0.4278  0.4649
  702MOL0     N92583   7.805  10.391   4.596 -0.0256  0.9005  0.0718
  702MOL0     C92584   7.922   9.262   4.971 -0.6348  0.8919  0.9228
  702MOL0     C92585   8.014   9.172   5.009 -0.5022 -0.1588  0.5875
  702MOL0     C92586   8.223   8.776   5.064  0.3181 -0.2558 -0.5645
  702MOL0     C92587   8.352   8.743   5.015  0.0886  0.6558  0.0863
  702MOL0     C92588   8.414   8.616   5.044 -0.0473  0.9548 -0.1066
  702MOL0     C92589   8.343   8.531   5.129  0.4792 -0.2556  0.2075
  702MOL0     O92590   8.384   8.399   5.140 -0.6101  0.7864  0.0994
  702MOL0     C92591   8.497   8.359   5.054  1.0794 -0.4884  0.0577
  702MOL0     C92592   8.504   8.198   5.063 -0.7386 -0.2456 -0.0025
  702MOL0     C92593   8.381   8.117   5.030 -0.3543  0.1375 -0.6021
  702MOL0     C92594   8.395   7.972   5.013 -0.7652  0.2849  0.3879
  702MOL0     C92595   8.437   7.903   5.140  0.6912  0.0899  1.5416
  702MOL0     C92596   8.461   7.842   5.237  0.5204  0.6910 -0.0146
  702MOL0     C92597   8.219   8.567   5.185  1.0442  0.0890 -0.1369
  702MOL0     C92598   8.155   8.684   5.149 -0.3737  0.7493 -0.2476
  702MOL0     H92599   7.799   8.918   5.082 -1.8859  0.3282  0.1131
  702MOL0     H92600   7.624   9.087   4.992  0.0152 -0.9448  1.8654
  702MOL0     H92601   7.814   9.425   4.796 -2.1481  2.1731 -1.6176
  702MOL0     H92602   7.804   9.518   4.945  0.0254  1.3435 -0.0557
  702MOL0     H92603   7.581   9.576   4.914 -0.6718 -0.2185 -0.6559
  702MOL0     H92604   7.565   9.479   4.760  0.4810  1.3527 -1.5661
  702MOL0     H92605   7.705   9.635   4.645  0.0501 -4.1886  0.5891
  702MOL0     H92606   7.762   9.705   4.805 -2.0209  1.4380 -0.4902
  702MOL0     H92607   7.479   9.712   4.716  0.4284  0.8331 -1.3321
  702MOL0     H92608   7.566   9.812   4.840 -1.0081 -1.7452  1.4727
  702MOL0     H92609   7.530   9.964   4.668  1.0265 -0.7324  2.8105
  702MOL0     H92610   7.581   9.857   4.537  2.7006 -0.7795 -1.3726
  702MOL0     H92611   7.795   9.870   4.595  0.7889 -0.4074  1.0417
  702MOL0     H92612   7.769   9.931   4.759  1.1585  0.4310 -0.3632
  702MOL0     H92613   7.691  10.066   4.480  0.6472 -3.2951 -0.1168
  702MOL0     H92614   7.666  10.149   4.637 -0.3875  1.0779 -1.5074
  702MOL0     H92615   7.925  10.093   4.493 -1.1922 -1.9007 -0.7950
  702MOL0     H92616   7.914  10.152   4.664  1.8378 -0.0390 -0.9789
  702MOL0     H92617   7.835  10.254   4.306  0.8624 -1.4805  1.8188
  702MOL0     H92618   7.687  10.625   4.308 -0.7428 -2.3976  1.4021
  702MOL0     H92619   7.652  10.477   4.220 -2.6535  3.6437  0.3458
  702MOL0     H92620   7.906  10.472   4.148 -2.0694 -1.6322 -1.6621
  702MOL0     H92621   7.928  10.628   4.252  0.1951 -1.5290 -0.2108
  702MOL0     H92622   7.727  10.587   4.022 -1.0403  0.0943  1.9381
  702MOL0     H92623   7.763  10.732   4.112  0.8889  1.0772 -0.8634
  702MOL0     H92624   7.884  10.721   3.888  1.7011  2.6275  0.6801
  702MOL0     H92625   7.976  10.581   3.941  1.1298 -0.5222  1.1277
  702MOL0     H92626   8.053  11.002   4.084 -0.5513  1.4621 -1.2596
  702MOL0     H92627   8.224  11.140   3.984 -1.5309 -1.6141  2.9063
  702MOL0     H92628   8.620  11.361   3.929 -0.0902 -1.1471 -0.0867
  702MOL0     H92629   8.789  11.475   3.802 -0.4328 -1.9191  4.1446
  702MOL0     H92630   8.814  11.418   3.332 -1.9501  2.6518  0.7614
  702MOL0     H92631   8.909  11.293   3.436 -0.1058  0.3407 -0.2590
  702MOL0     H92632   9.065  11.443   3.304  0.0895  1.3139 -0.4464
  702MOL0     H92633   9.078  11.433   3.480  1.1260  0.0075 -0.5459
  702MOL0     H92634   8.983  11.651   3.513 -0.2872  1.1361 -0.8511
  702MOL0     H92635   8.938  11.658   3.348  1.3145  0.3089 -1.1316
  702MOL0     H92636   9.192  11.682   3.505 -0.6105 -2.4834  0.5074
  702MOL0     H92637   9.209  11.613   3.342  0.8766  0.6213  0.5019
  702MOL0     H92638   9.098  11.907   3.391  0.1690  0.0834  1.7014
  702MOL0     H92639   9.134  11.833   3.238 -2.6905 -1.3699  1.0376
  702MOL0     H92640   9.357  11.787   3.291 -2.7943  0.8279 -3.4847
  702MOL0     H92641   9.343  11.850   3.453 -0.3181 -1.9872 -0.4906
  702MOL0     H92642   9.330  11.998   3.187 -2.0474 -2.0222  0.0202
  702MOL0     H92643   9.231  12.065   3.309 -2.9356 -2.6094  0.5185
  702MOL0     H92644   9.528  12.031   3.314  0.5644 -0.0476  0.5419
  702MOL0     H92645   9.436  12.095   3.455 -0.4859 -1.1558 -1.3314
  702MOL0     H92646   8.610  11.332   3.435  2.4628  1.5663  0.1361
  702MOL0     H92647   8.458  11.205   3.560 -2.3638  1.4120  0.1716
  702MOL0     H92648   8.347  10.801   3.746 -1.5158 -1.5051  0.5291
  702MOL0     H92649   8.156  10.675   3.846  0.4670 -0.2872 -1.2923
  702MOL0     H92650   7.967   9.353   4.933  5.2340 -1.6111  0.8880
  702MOL0     H92651   8.120   9.197   5.008 -0.9822  2.0381  0.1569
  702MOL0     H92652   8.406   8.808   4.947 -0.8152  1.3688  0.0277
  702MOL0     H92653   8.510   8.601   4.997 -1.2802  1.5710 -3.0052
  702MOL0     H92654   8.591   8.399   5.093  1.5170  0.0202 -1.4795
  702MOL0     H92655   8.488   8.398   4.953  2.3733 -2.8299 -1.0376
  702MOL0     H92656   8.584   8.168   4.995 -1.0440  0.0532 -0.4999
  702MOL0     H92657   8.550   8.183   5.162  5.0892  2.4774 -1.8241
  702MOL0     H92658   8.328   8.161   4.945 -2.5299 -0.3838  0.4149
  702MOL0     H92659   8.302   8.119   5.107  0.4172  1.5052  0.1911
  702MOL0     H92660   8.304   7.928   4.972 -1.0540  1.2107 -0.0021
  702MOL0     H92661   8.465   7.961   4.930 -2.2604  3.3507 -1.4655
  702MOL0     H92662   8.491   7.778   5.317  1.8802  0.1219 -0.9545
  702MOL0     H92663   8.149   8.510   5.245 -0.6876  1.1942 -1.0448
  702MOL0     H92664   8.055   8.704   5.184 -2.1318 -2.0554 -3.0534
  703MOL0     O92665   5.595   9.570   6.642  0.0457 -0.3926 -0.7650
  703MOL0     C92666   5.615   9.671   6.720 -0.9306  0.2578  0.5272
  703MOL0     O92667   5.518   9.741   6.785 -0.0915 -0.0696  0.5881
  703MOL0     C92668   5.386   9.715   6.753  1.5047  0.7253 -0.3375
  703MOL0     C92669   5.302   9.711   6.863 -0.4687 -1.2742 -0.5650
  703MOL0     C92670   5.161   9.698   6.851  0.0434  0.2851 -0.6762
  703MOL0     C92671   5.099   9.694   6.728  0.4660  0.1559  0.6379
  703MOL0     O92672   4.960   9.674   6.723 -0.3486 -0.0234  0.3050
  703MOL0     C92673   4.885   9.755   6.643  0.0820 -0.2654 -0.1444
  703MOL0     C92674   4.744   9.788   6.704  0.6479  1.3672 -0.8664
  703MOL0     C92675   4.746   9.843   6.847  0.2059 -0.1700 -0.0468
  703MOL0     C92676   4.609   9.891   6.882  0.1421  0.1165 -0.6385
  703MOL0     C92677   4.581   9.954   7.023 -0.8480  0.6963  0.0022
  703MOL0     C92678   4.433   9.982   7.034  0.5015 -0.9677 -0.1689
  703MOL0     C92679   4.404  10.048   7.172  0.8198  0.1351  0.2384
  703MOL0     C92680   4.254  10.091   7.191  0.0413 -0.1935  0.0281
  703MOL0     N92681   4.241  10.170   7.322 -0.5279  0.1396  1.4099
  703MOL0     C92682   4.260  10.113   7.449  0.4012 -0.9523  0.5771
  703MOL0     C92683   4.218  10.210   7.531 -0.2240 -0.0493 -0.1192
  703MOL0     C92684   4.210  10.191   7.680 -0.4048  0.1169 -0.3577
  703MOL0     C92685   4.072  10.146   7.733 -0.4274 -0.1720 -0.1020
  703MOL0     C92686   3.960  10.239   7.696 -0.6694  0.5273 -0.4374
  703MOL0     C92687   3.821  10.217   7.766  0.1366 -0.6503  0.2365
  703MOL0     O92688   3.754  10.107   7.709  0.8633  0.3462  0.3985
  703MOL0     C92689   3.627  10.089   7.751  0.2698 -0.8241 -0.0426
  703MOL0     C92690   3.534  10.026   7.666 -0.5916  0.1041 -0.0368
  703MOL0     C92691   3.405   9.996   7.699  0.7090 -1.4348  0.1662
  703MOL0     C92692   3.361  10.016   7.827 -0.2260 -0.3139 -0.2189
  703MOL0     C92693   3.222   9.969   7.866  0.3582 -0.8175 -0.2581
  703MOL0     O92694   3.160   9.874   7.780 -0.1320  0.0182 -0.5773
  703MOL0     C92695   3.021   9.843   7.791 -0.4816 -0.0583 -0.1706
  703MOL0     C92696   2.971   9.754   7.884 -0.2092  0.6493  0.3450
  703MOL0     C92697   2.830   9.725   7.892  0.5422  0.4024 -0.4456
  703MOL0     C92698   2.744   9.774   7.794  0.8993  1.1700  0.4537
  703MOL0     O92699   2.610   9.744   7.800 -0.6967 -0.0473  0.6626
  703MOL0     C92700   2.554   9.671   7.910  0.4406  0.0278 -0.6589
  703MOL0     C92701   2.535   9.757   8.044  0.1418  0.1706 -0.4466
  703MOL0     C92702   2.404   9.719   8.104 -0.4886 -0.7596 -0.5319
  703MOL0     C92703   2.379   9.785   8.232 -0.1736 -0.5657  0.8967
  703MOL0     C92704   2.237   9.752   8.281  0.5456  0.0307 -0.1549
  703MOL0     C92705   2.203   9.850   8.396 -0.5927  0.1115  0.0980
  703MOL0     C92706   2.053   9.842   8.435  0.1661  0.1052  0.1623
  703MOL0     C92707   2.009   9.958   8.515 -0.3396 -0.5850 -0.0506
  703MOL0    Cl92708   1.970  10.094   8.399 -0.3811 -0.3177  0.2671
  703MOL0     C92709   2.801   9.838   7.680  0.9443  0.1730  0.2125
  703MOL0     C92710   2.933   9.877   7.688  0.8848  0.4777  0.1460
  703MOL0     O92711   3.190   9.995   7.978 -0.6049 -0.7302  0.4363
  703MOL0     C92712   3.436  10.097   7.912 -0.0694  0.5807  0.1764
  703MOL0     C92713   3.567  10.124   7.874 -0.5000 -0.0007  0.1832
  703MOL0     N92714   4.181  10.326   7.468  0.0402  0.6733 -0.3044
  703MOL0     N92715   4.185  10.294   7.342 -0.2353  0.0117  0.5721
  703MOL0     C92716   5.185   9.715   6.612  0.5466  1.0654 -1.0515
  703MOL0     C92717   5.323   9.713   6.628 -0.4284 -0.1174 -0.8186
  703MOL0     C92718   5.762   9.700   6.750 -0.6787  0.2597  0.3230
  703MOL0     C92719   5.801   9.802   6.839  0.8171 -0.0743 -1.1714
  703MOL0     C92720   5.930   9.827   6.864  0.5393 -0.7649 -0.2104
  703MOL0     C92721   6.027   9.750   6.801  0.4684  0.4225 -0.4161
  703MOL0     O92722   6.166   9.757   6.827 -0.3465 -0.6525 -0.1579
  703MOL0     C92723   6.197   9.809   6.961  0.1468 -0.0001 -0.2099
  703MOL0     C92724   6.331   9.755   7.011  0.4443  0.0840 -0.4407
  703MOL0     C92725   6.388   9.802   7.142  1.0180 -0.5606 -0.5430
  703MOL0     C92726   6.523   9.752   7.179 -0.6272 -0.5520  0.5945
  703MOL0     C92727   6.548   9.788   7.318  0.2169 -0.1591 -0.0791
  703MOL0     C92728   6.569   9.815   7.432 -0.3877  0.2105 -0.8899
  703MOL0     C92729   5.997   9.645   6.714 -1.0043  0.1926 -0.3459
  703MOL0     C92730   5.866   9.622   6.689  1.5043 -0.0066 -0.4083
  703MOL0     H92731   5.351   9.728   6.959 -1.3845  0.6342 -0.3863
  703MOL0     H92732   5.104   9.694   6.944 -1.2517 -4.1635 -1.4106
  703MOL0     H92733   4.874   9.709   6.544  0.5974 -3.0313  0.9825
  703MOL0     H92734   4.936   9.851   6.638  3.3965 -1.8311  0.5006
  703MOL0     H92735   4.670   9.708   6.706 -0.7443  2.5546  2.4775
  703MOL0     H92736   4.693   9.854   6.633  0.5882  0.9199 -1.2425
  703MOL0     H92737   4.824   9.920   6.850 -0.1142  0.1453  0.3637
  703MOL0     H92738   4.771   9.764   6.918  1.3835 -0.0398 -0.3007
  703MOL0     H92739   4.569   9.960   6.808  0.1388  0.2557 -0.5068
  703MOL0     H92740   4.547   9.800   6.878  0.7810 -0.3920  0.5352
  703MOL0     H92741   4.636  10.048   7.023 -1.4509  1.1220 -2.7747
  703MOL0     H92742   4.617   9.888   7.103 -0.4877  0.5050 -0.3120
  703MOL0     H92743   4.373   9.892   7.020  0.2055 -1.1419  1.8919
  703MOL0     H92744   4.395  10.049   6.957 -2.6319 -0.8809  1.2609
  703MOL0     H92745   4.430   9.976   7.250 -1.1056 -0.9791 -0.0614
  703MOL0     H92746   4.461  10.141   7.174 -4.8028  4.2539 -2.6330
  703MOL0     H92747   4.196  10.000   7.206  2.0215 -1.3935  0.8091
  703MOL0     H92748   4.227  10.152   7.104  1.7995  0.9707  0.2446
  703MOL0     H92749   4.293  10.015   7.484 -1.9096 -1.7748  0.6570
  703MOL0     H92750   4.229  10.287   7.730 -3.7502  1.2434 -0.9999
  703MOL0     H92751   4.288  10.122   7.714 -0.8320 -0.6948 -1.0071
  703MOL0     H92752   4.082  10.148   7.842  1.7553  4.4659 -0.1462
  703MOL0     H92753   4.059  10.042   7.700  2.8647 -1.1719  1.4046
  703MOL0     H92754   4.000  10.341   7.699 -2.5424  1.3093  2.8122
  703MOL0     H92755   3.936  10.220   7.591  0.8925 -1.0175 -0.5482
  703MOL0     H92756   3.764  10.307   7.739 -0.3581 -1.2404 -0.7284
  703MOL0     H92757   3.835  10.194   7.872  2.3878  0.4643  0.2331
  703MOL0     H92758   3.576   9.997   7.570 -2.0924 -1.2719 -0.3128
  703MOL0     H92759   3.340   9.968   7.616  0.1294 -1.0738  0.4885
  703MOL0     H92760   3.036   9.708   7.958  1.1870  1.6230 -0.2273
  703MOL0     H92761   2.794   9.689   7.988 -0.9352  1.3069 -0.6291
  703MOL0     H92762   2.610   9.581   7.936  0.0719  0.7191  3.1068
  703MOL0     H92763   2.457   9.630   7.882  0.8098 -0.2244 -1.6161
  703MOL0     H92764   2.543   9.865   8.029  0.3105 -0.0951 -2.5337
  703MOL0     H92765   2.613   9.721   8.112  0.7428  2.7970  0.3694
  703MOL0     H92766   2.424   9.612   8.114  1.5312 -0.6905 -2.8192
  703MOL0     H92767   2.319   9.730   8.037  0.7236 -1.1652 -2.2251
  703MOL0     H92768   2.448   9.766   8.315 -3.1374  0.4801  3.8193
  703MOL0     H92769   2.380   9.891   8.207 -3.1222 -0.8632 -0.9660
  703MOL0     H92770   2.247   9.647   8.309  0.7159  0.1366  0.1872
  703MOL0     H92771   2.160   9.757   8.204 -0.6776  0.5926  1.0684
  703MOL0     H92772   2.232   9.951   8.363  1.3588  0.1413  1.7100
  703MOL0     H92773   2.259   9.822   8.485 -0.3104 -0.1695 -0.1636
  703MOL0     H92774   1.987   9.843   8.347  3.0206  1.4095 -2.1394
  703MOL0     H92775   2.029   9.750   8.488 -0.8130 -0.2814 -0.9200
  703MOL0     H92776   2.089   9.980   8.586 -0.8147  1.3663 -0.0701
  703MOL0     H92777   1.913   9.943   8.565  0.6872 -1.6563  1.6865
  703MOL0     H92778   2.739   9.883   7.603  2.1665  0.8986 -0.3874
  703MOL0     H92779   2.973   9.944   7.613  1.5086  0.6399  0.6163
  703MOL0     H92780   3.401  10.126   8.010 -1.8768  0.6647 -0.4610
  703MOL0     H92781   3.628  10.171   7.951  1.3517 -0.0567 -1.1926
  703MOL0     H92782   5.142   9.722   6.512 -0.4521  0.1378 -0.7163
  703MOL0     H92783   5.382   9.734   6.540  0.9739  0.3138  0.1851
  703MOL0     H92784   5.727   9.860   6.893 -0.1496 -2.0650 -0.2468
  703MOL0     H92785   5.962   9.901   6.937 -0.5540 -1.6321  1.2134
  703MOL0     H92786   6.117   9.770   7.026 -1.4078  1.0569 -1.4240
  703MOL0     H92787   6.205   9.917   6.975  1.4473 -0.1297  0.2037
  703MOL0     H92788   6.333   9.645   7.014 -1.6432  0.0030 -0.7250
  703MOL0     H92789   6.405   9.789   6.938  1.8344  0.6220  1.1489
  703MOL0     H92790   6.314   9.785   7.222  3.5025  0.0066  2.0547
  703MOL0     H92791   6.401   9.911   7.145  0.7106 -0.5323 -0.0460
  703MOL0     H92792   6.524   9.642   7.180  1.6992 -0.5756  1.1129
  703MOL0     H92793   6.591   9.798   7.107 -1.8874 -0.4419 -0.5731
  703MOL0     H92794   6.574   9.836   7.537  2.2361  1.0814 -1.1190
  703MOL0     H92795   6.071   9.583   6.664  0.3226  0.8480  0.7507
  703MOL0     H92796   5.835   9.535   6.631 -0.9632  0.4902  0.0212
  704MOL0     O92797   5.085   1.471   7.601  0.1135 -0.3177 -0.2385
  704MOL0     C92798   5.141   1.538   7.685  0.2615 -0.3278 -0.1897
  704MOL0     O92799   5.224   1.496   7.777  0.7104  0.7600  0.2057
  704MOL0     C92800   5.214   1.365   7.807 -1.2910  0.4883  0.5511
  704MOL0     C92801   5.097   1.297   7.849 -0.3635  0.3057 -0.0127
  704MOL0     C92802   5.100   1.162   7.870 -0.3889  0.6603 -0.2869
  704MOL0     C92803   5.218   1.091   7.853  0.0736  0.4163  1.0207
  704MOL0     O92804   5.203   0.956   7.879 -0.0599 -0.0990 -0.1402
  704MOL0     C92805   5.289   0.900   7.971  0.5621 -0.5280 -0.0757
  704MOL0     C92806   5.414   0.832   7.905 -0.3168  0.4738 -1.1719
  704MOL0     C92807   5.509   0.783   8.020 -0.6462  0.1405 -0.5394
  704MOL0     C92808   5.641   0.739   7.953  0.3447 -0.3150  0.0396
  704MOL0     C92809   5.755   0.706   8.057 -1.0198  0.0703 -0.0454
  704MOL0     C92810   5.889   0.662   7.990  0.6827  0.1528 -0.3683
  704MOL0     C92811   5.878   0.577   7.857 -0.1411 -0.1382  0.3222
  704MOL0     C92812   5.806   0.434   7.871 -0.5541 -0.0631  0.3339
  704MOL0     N92813   5.880   0.330   7.948 -0.5456 -0.0575  0.4538
  704MOL0     C92814   5.880   0.321   8.082 -0.9928 -0.1048  0.2433
  704MOL0     C92815   5.988   0.230   8.111 -0.6077  0.2132  0.8588
  704MOL0     C92816   6.047   0.196   8.245 -0.4501  0.0175  0.1043
  704MOL0     C92817   5.997   0.073   8.320 -0.4879  1.1222 -0.0735
  704MOL0     C92818   5.854   0.047   8.296 -0.0947 -0.1703  0.6204
  704MOL0     C92819   5.796  -0.045   8.402  0.4467  0.5490 -0.3862
  704MOL0     O92820   5.660  -0.086   8.361  0.3014 -0.1463  0.2023
  704MOL0     C92821   5.567  -0.107   8.456 -0.4801 -0.1303  0.1042
  704MOL0     C92822   5.438  -0.105   8.412  0.7133 -0.8009  0.4226
  704MOL0     C92823   5.337  -0.112   8.511  1.0284  0.1214 -0.2800
  704MOL0     C92824   5.362  -0.112   8.646 -0.0072 -0.7792  0.0149
  704MOL0     C92825   5.252  -0.119   8.743 -0.9746  0.3270 -1.2024
  704MOL0     O92826   5.128  -0.098   8.706 -0.1812  1.2126 -0.3573
  704MOL0     C92827   5.030  -0.069   8.797  0.1050  0.1019 -0.0629
  704MOL0     C92828   5.039   0.048   8.870 -0.1573 -1.1795 -0.2464
  704MOL0     C92829   4.932   0.088   8.959  0.3382 -0.0465 -0.4269
  704MOL0     C92830   4.817   0.007   8.969 -0.6367  0.5552  1.0511
  704MOL0     O92831   4.698   0.044   9.029 -0.1786 -0.5969  0.5314
  704MOL0     C92832   4.694   0.027   9.167 -0.4616  0.5835 -0.8440
  704MOL0     C92833   4.616   0.138   9.243 -0.4617 -0.6282  0.1758
  704MOL0     C92834   4.670   0.271   9.198  0.4328 -0.1787  0.5793
  704MOL0     C92835   4.603   0.381   9.290 -0.3006  0.2665  0.2046
  704MOL0     C92836   4.626   0.519   9.226 -0.0853  0.0934 -0.0150
  704MOL0     C92837   4.767   0.564   9.237 -0.8385  0.3526  0.5892
  704MOL0     C92838   4.796   0.697   9.163  0.2510 -0.0258 -0.5632
  704MOL0     C92839   4.801   0.700   9.010 -0.0010 -0.7480  0.1382
  704MOL0    Cl92840   4.887   0.571   8.924 -0.0422  0.4534  0.0669
  704MOL0     C92841   4.814  -0.119   8.896 -0.8874 -0.3370 -0.2832
  704MOL0     C92842   4.920  -0.155   8.812 -0.1872 -0.4691  0.1973
  704MOL0     O92843   5.289  -0.155   8.852  0.1725  0.3598  0.3971
  704MOL0     C92844   5.499  -0.112   8.689  1.7190  0.4066 -0.4111
  704MOL0     C92845   5.592  -0.116   8.594 -0.0664  0.1982  0.5717
  704MOL0     N92846   6.054   0.200   7.989 -0.2031  0.5049 -0.1074
  704MOL0     N92847   5.987   0.261   7.900  0.3022 -0.2032  0.0895
  704MOL0     C92848   5.337   1.154   7.827  0.8361  0.3487 -0.3683
  704MOL0     C92849   5.338   1.286   7.798  0.3769 -0.4552 -0.5668
  704MOL0     C92850   5.123   1.688   7.692  0.0511 -0.5599  0.1248
  704MOL0     C92851   5.177   1.768   7.790 -0.6417 -0.4415 -0.7431
  704MOL0     C92852   5.171   1.908   7.779 -0.1835  0.2405 -0.4905
  704MOL0     C92853   5.092   1.971   7.681 -0.4359  0.5961 -0.6414
  704MOL0     O92854   5.097   2.109   7.689  0.2717  0.4030  0.2311
  704MOL0     C92855   5.034   2.185   7.589 -0.1418  0.1292 -0.1380
  704MOL0     C92856   5.139   2.226   7.486 -0.3951 -0.2333  0.0895
  704MOL0     C92857   5.235   2.344   7.535 -0.2164  0.4196  0.1823
  704MOL0     C92858   5.330   2.397   7.427  0.4591  0.7655  0.0117
  704MOL0     C92859   5.397   2.285   7.361 -0.6306 -1.4447  0.0700
  704MOL0     C92860   5.478   2.214   7.292  0.1961 -0.1203 -0.0183
  704MOL0     C92861   5.030   1.886   7.586  0.3261  0.0725 -1.1571
  704MOL0     C92862   5.044   1.750   7.594 -1.1659 -0.6235  0.7511
  704MOL0     H92863   5.009   1.355   7.874 -0.2306  0.3536  0.3473
  704MOL0     H92864   5.015   1.112   7.915  3.2126 -1.8305  4.7544
  704MOL0     H92865   5.226   0.828   8.024  0.0668  0.1738  0.3118
  704MOL0     H92866   5.325   0.972   8.045  0.0822  0.7284 -1.0313
  704MOL0     H92867   5.480   0.892   7.842  4.2759 -0.2714  2.3257
  704MOL0     H92868   5.388   0.749   7.840 -1.3881  0.0384 -0.2245
  704MOL0     H92869   5.464   0.699   8.074 -1.0892 -1.2965 -2.9674
  704MOL0     H92870   5.524   0.870   8.085  2.2340  1.6799 -3.0113
  704MOL0     H92871   5.623   0.649   7.893  1.5902  0.3470 -1.3871
  704MOL0     H92872   5.683   0.826   7.902  0.6238  0.3771  1.3938
  704MOL0     H92873   5.719   0.631   8.128 -0.6652  1.2377  1.4327
  704MOL0     H92874   5.777   0.795   8.118  0.0230  1.7212 -2.6664
  704MOL0     H92875   5.937   0.594   8.060  2.6617 -1.6035 -3.2187
  704MOL0     H92876   5.955   0.748   7.976  1.1206  0.0432  0.9167
  704MOL0     H92877   5.823   0.636   7.783 -0.1683  0.7168  1.0099
  704MOL0     H92878   5.982   0.560   7.827 -0.1193  1.1935 -0.4338
  704MOL0     H92879   5.793   0.398   7.768 -0.9139 -2.3688  1.1217
  704MOL0     H92880   5.709   0.449   7.918 -1.6061  0.4200 -1.8578
  704MOL0     H92881   5.821   0.378   8.152  1.1741  0.0373  2.1031
  704MOL0     H92882   6.025   0.280   8.312 -0.8137 -0.6748  0.8682
  704MOL0     H92883   6.156   0.199   8.235 -0.4153  1.9506  0.6541
  704MOL0     H92884   6.025   0.077   8.426 -3.7383 -1.9575  1.1151
  704MOL0     H92885   6.051  -0.014   8.283 -1.0037 -1.3487  4.1976
  704MOL0     H92886   5.793   0.138   8.300  0.7537  0.4387  0.0080
  704MOL0     H92887   5.838  -0.004   8.200 -0.3757  0.1340  0.5030
  704MOL0     H92888   5.797   0.016   8.492  2.4872 -1.3912  1.0048
  704MOL0     H92889   5.855  -0.133   8.427 -3.1168 -1.3274  2.4909
  704MOL0     H92890   5.422  -0.087   8.306  0.5885 -0.1863  0.5444
  704MOL0     H92891   5.235  -0.119   8.476  1.2242  0.6249 -0.9784
  704MOL0     H92892   5.128   0.104   8.842 -0.8728  1.6196  2.5846
  704MOL0     H92893   4.936   0.185   9.008 -1.2842 -1.0534  1.9026
  704MOL0     H92894   4.793   0.021   9.213 -0.8688 -0.7666 -0.0875
  704MOL0     H92895   4.652  -0.072   9.187 -0.4325  0.9094  1.0530
  704MOL0     H92896   4.632   0.110   9.348  0.9290 -3.0595 -0.5879
  704MOL0     H92897   4.509   0.128   9.222  0.2066 -2.5960 -2.9918
  704MOL0     H92898   4.651   0.298   9.093  1.9417  1.1549  0.6180
  704MOL0     H92899   4.779   0.265   9.189  0.3549 -2.3080  0.4932
  704MOL0     H92900   4.495   0.373   9.276 -0.4795  0.6303  1.2389
  704MOL0     H92901   4.625   0.366   9.396  0.3853  0.7770  0.1444
  704MOL0     H92902   4.563   0.596   9.269  0.3226  0.3993  0.0445
  704MOL0     H92903   4.595   0.514   9.121 -2.8607  0.3614  0.7228
  704MOL0     H92904   4.824   0.483   9.190 -1.1713  0.9379 -0.9043
  704MOL0     H92905   4.790   0.570   9.344  0.4227 -1.5055  0.4734
  704MOL0     H92906   4.714   0.761   9.198  0.0900 -0.4961 -0.0775
  704MOL0     H92907   4.899   0.720   9.193  1.0152 -3.9477  0.3924
  704MOL0     H92908   4.829   0.798   8.970  1.2990 -2.2984 -3.0279
  704MOL0     H92909   4.705   0.686   8.959 -0.2272  0.9506  0.0279
  704MOL0     H92910   4.727  -0.183   8.908 -1.8116  0.8019 -0.7435
  704MOL0     H92911   4.920  -0.247   8.754 -1.5366 -0.5864  0.3388
  704MOL0     H92912   5.535  -0.118   8.791  3.1329 -0.0533 -0.9034
  704MOL0     H92913   5.696  -0.134   8.617  0.0720  1.8687  1.3869
  704MOL0     H92914   5.430   1.101   7.845  1.7743  2.6068  2.1422
  704MOL0     H92915   5.432   1.336   7.778 -0.5384  0.5638 -2.6630
  704MOL0     H92916   5.230   1.706   7.861 -0.1610  1.2145  0.3764
  704MOL0     H92917   5.231   1.969   7.846 -0.9330 -0.3620  0.7631
  704MOL0     H92918   4.994   2.274   7.637 -0.5831 -1.7978  3.3559
  704MOL0     H92919   4.963   2.133   7.524  0.3692 -0.0854 -0.5405
  704MOL0     H92920   5.191   2.137   7.450  2.7402  1.5608 -0.2080
  704MOL0     H92921   5.084   2.263   7.399 -0.1448  1.8764  0.7559
  704MOL0     H92922   5.296   2.307   7.618  0.0068  2.2018  0.8628
  704MOL0     H92923   5.178   2.423   7.586  0.3785  1.4144 -0.6361
  704MOL0     H92924   5.272   2.464   7.363  1.0179  0.3870 -0.9104
  704MOL0     H92925   5.401   2.458   7.483  2.4576  0.2921 -1.8716
  704MOL0     H92926   5.530   2.155   7.220 -1.0585 -0.6992 -0.4635
  704MOL0     H92927   4.962   1.926   7.511 -1.4355  1.6308  1.1029
  704MOL0     H92928   4.999   1.684   7.519  1.3420 -2.9537  1.1336
  705MOL0     O92929   8.418   0.664   2.773 -0.6396  0.2977  0.7653
  705MOL0     C92930   8.515   0.598   2.813 -0.3099 -0.0838  0.9651
  705MOL0     O92931   8.522   0.527   2.927 -0.6479 -0.0952  0.1785
  705MOL0     C92932   8.408   0.541   2.997 -0.1616  0.3678  0.1135
  705MOL0     C92933   8.303   0.450   2.973 -0.1267  0.3956 -0.3338
  705MOL0     C92934   8.182   0.471   3.039  0.4196  0.9169  0.5649
  705MOL0     C92935   8.164   0.583   3.132 -0.2100  0.8675 -0.5872
  705MOL0     O92936   8.042   0.596   3.196 -0.9701  0.3556 -0.7743
  705MOL0     C92937   7.996   0.733   3.226 -0.1182 -0.2969  0.0317
  705MOL0     C92938   8.008   0.758   3.377 -0.6302 -0.5485  0.2139
  705MOL0     C92939   7.920   0.671   3.459  0.0033 -0.3481  0.7110
  705MOL0     C92940   7.915   0.722   3.604 -0.1554 -0.4654  0.7624
  705MOL0     C92941   7.877   0.619   3.705 -0.1514 -0.0280 -0.0652
  705MOL0     C92942   7.736   0.569   3.681 -0.3663  0.0361  0.7591
  705MOL0     C92943   7.675   0.492   3.795 -0.7300  0.5682  0.5463
  705MOL0     C92944   7.727   0.347   3.810 -0.2481 -0.6988  0.0348
  705MOL0     N92945   7.635   0.253   3.855  0.0842  0.3432  0.3385
  705MOL0     C92946   7.540   0.279   3.956 -0.4462  0.2285  1.3555
  705MOL0     C92947   7.465   0.166   3.959  0.3968 -0.3840 -0.4046
  705MOL0     C92948   7.351   0.139   4.047  0.3807  0.5801  0.7323
  705MOL0     C92949   7.344  -0.001   4.099 -0.2837  0.3017  0.2736
  705MOL0     C92950   7.244  -0.012   4.210  0.0407  0.3245 -0.5098
  705MOL0     C92951   7.218  -0.156   4.255 -0.8884 -0.3496 -1.1197
  705MOL0     O92952   7.085  -0.159   4.313 -0.5414 -0.8461 -0.9465
  705MOL0     C92953   7.023  -0.281   4.332  0.4035 -0.4945 -0.4039
  705MOL0     C92954   7.088  -0.406   4.334 -0.2699  0.3246 -0.0338
  705MOL0     C92955   7.010  -0.530   4.350 -0.2331 -1.4224 -1.2400
  705MOL0     C92956   6.872  -0.522   4.374 -1.0508  0.2078  0.1278
  705MOL0     C92957   6.788  -0.643   4.388  0.3707 -0.0390  0.3078
  705MOL0     O92958   6.651  -0.630   4.389  0.6001 -0.0538 -1.0737
  705MOL0     C92959   6.566  -0.722   4.451 -0.5231  0.5417  0.2519
  705MOL0     C92960   6.430  -0.725   4.417  0.3617  0.3515 -0.9491
  705MOL0     C92961   6.341  -0.817   4.471 -0.7331  0.0793 -0.2815
  705MOL0     C92962   6.390  -0.912   4.564 -0.4235  0.1630 -0.0165
  705MOL0     O92963   6.304  -0.997   4.637 -0.3844 -1.0629  0.1743
  705MOL0     C92964   6.174  -0.996   4.582  0.1782  0.3780  1.0067
  705MOL0     C92965   6.066  -1.075   4.661 -1.1630 -0.2975  0.2243
  705MOL0     C92966   6.126  -1.209   4.723  0.5554  0.1028 -0.5261
  705MOL0     C92967   6.006  -1.294   4.758  0.6802  0.6100 -0.0285
  705MOL0     C92968   6.036  -1.431   4.805  0.0548  0.6890 -0.1944
  705MOL0     C92969   5.915  -1.528   4.791 -0.5898 -0.0203 -0.8735
  705MOL0     C92970   5.945  -1.669   4.851 -0.4975 -0.1864  0.0248
  705MOL0     C92971   5.851  -1.785   4.804 -0.4081  0.5828  0.4060
  705MOL0    Cl92972   5.886  -1.934   4.899  0.1962 -0.0289  0.3002
  705MOL0     C92973   6.518  -0.892   4.616 -0.5320  0.8752  0.0949
  705MOL0     C92974   6.612  -0.810   4.558  0.3543 -0.1242  0.7097
  705MOL0     O92975   6.857  -0.747   4.415  0.2078 -0.7822  0.9462
  705MOL0     C92976   6.815  -0.394   4.375 -0.8754 -0.6436  0.6788
  705MOL0     C92977   6.883  -0.279   4.349 -0.4591  0.2180  0.9702
  705MOL0     N92978   7.504   0.076   3.862  0.4194 -0.0043 -0.3784
  705MOL0     N92979   7.605   0.127   3.805 -0.4380 -0.2218  0.3265
  705MOL0     C92980   8.273   0.669   3.148  0.0048  0.4265  0.5917
  705MOL0     C92981   8.395   0.651   3.083 -0.7451 -0.1421 -0.9512
  705MOL0     C92982   8.647   0.637   2.750  0.4605 -0.0284  0.1658
  705MOL0     C92983   8.756   0.558   2.787 -0.4893 -0.2104  0.5967
  705MOL0     C92984   8.883   0.605   2.756 -1.0129  0.1301 -0.3606
  705MOL0     C92985   8.913   0.713   2.668 -0.2958 -0.4794 -0.8308
  705MOL0     O92986   9.034   0.751   2.613  0.4910  1.2361 -0.1532
  705MOL0     C92987   9.160   0.723   2.681 -0.1622  0.5898  0.4743
  705MOL0     C92988   9.262   0.775   2.567 -0.5199  0.5535 -0.0524
  705MOL0     C92989   9.410   0.712   2.575  0.1115  0.2135  0.2711
  705MOL0     C92990   9.465   0.653   2.709  0.3910 -0.3899  0.7233
  705MOL0     C92991   9.459   0.741   2.826 -0.4616  0.9996  0.6556
  705MOL0     C92992   9.473   0.817   2.917 -0.4597  1.3470 -0.5032
  705MOL0     C92993   8.804   0.788   2.623  0.4771 -0.0292 -0.2394
  705MOL0     C92994   8.671   0.753   2.673 -0.6263  0.4971 -0.1460
  705MOL0     H92995   8.323   0.368   2.905  1.9044 -1.4712  2.2551
  705MOL0     H92996   8.111   0.392   3.016 -0.0772  1.2885  0.8070
  705MOL0     H92997   7.894   0.733   3.187  0.1925 -1.0012 -0.8007
  705MOL0     H92998   8.052   0.811   3.174  3.7009 -0.0520  3.9188
  705MOL0     H92999   7.987   0.864   3.394 -1.0240 -0.4230 -0.9800
  705MOL0     H93000   8.113   0.745   3.404 -1.0986  0.2351  2.6953
  705MOL0     H93001   7.960   0.570   3.446 -0.7710 -0.8855  2.1995
  705MOL0     H93002   7.821   0.680   3.414 -1.6361 -0.7425  3.9188
  705MOL0     H93003   8.018   0.752   3.624 -0.1612 -0.1218  0.2957
  705MOL0     H93004   7.853   0.813   3.610 -0.9128 -0.8218 -0.9382
  705MOL0     H93005   7.881   0.651   3.809 -0.8066 -1.4384  0.4180
  705MOL0     H93006   7.940   0.531   3.691  2.4029  1.8668 -1.3585
  705MOL0     H93007   7.738   0.512   3.587  1.3083  1.7745 -0.3155
  705MOL0     H93008   7.672   0.653   3.650  0.6275 -0.4394 -3.2204
  705MOL0     H93009   7.688   0.551   3.886  1.7516 -1.2182  1.4642
  705MOL0     H93010   7.567   0.479   3.779 -0.9245  0.5554  1.7827
  705MOL0     H93011   7.804   0.350   3.888 -2.2742  1.4725  2.1567
  705MOL0     H93012   7.773   0.309   3.718  0.6570  2.4367 -0.9478
  705MOL0     H93013   7.533   0.368   4.017 -0.3456 -0.5247  2.4886
  705MOL0     H93014   7.260   0.170   3.995  1.1938  2.9920  0.6326
  705MOL0     H93015   7.351   0.202   4.136 -1.7447  0.1543  1.0844
  705MOL0     H93016   7.440  -0.024   4.146 -0.5900 -2.1737 -0.1742
  705MOL0     H93017   7.314  -0.071   4.020 -0.6554  0.4215  0.3031
  705MOL0     H93018   7.298   0.040   4.289 -0.7265  0.1969  0.1068
  705MOL0     H93019   7.148   0.038   4.195 -0.7603 -0.2008  2.3297
  705MOL0     H93020   7.285  -0.202   4.328 -2.0976  0.5393  0.6191
  705MOL0     H93021   7.226  -0.221   4.167 -2.9091 -1.6624 -0.4247
  705MOL0     H93022   7.195  -0.411   4.316 -0.3135  3.1623 -1.7252
  705MOL0     H93023   7.063  -0.624   4.364  2.1575  0.1365  1.4035
  705MOL0     H93024   6.419  -0.658   4.333  1.4850  1.9848  0.1421
  705MOL0     H93025   6.241  -0.795   4.435 -0.4676  1.5935 -0.1819
  705MOL0     H93026   6.171  -1.033   4.479  2.7969  1.5836  0.4162
  705MOL0     H93027   6.139  -0.893   4.571  0.6407  0.4730  0.3943
  705MOL0     H93028   5.980  -1.080   4.594 -2.5625  3.5610  1.4720
  705MOL0     H93029   6.038  -1.019   4.751 -0.1529  1.6177 -0.5892
  705MOL0     H93030   6.188  -1.183   4.810  0.3197  4.9990 -1.4957
  705MOL0     H93031   6.183  -1.255   4.643  1.2360  1.8125 -1.0822
  705MOL0     H93032   5.953  -1.245   4.840  2.5074  0.7128  1.1662
  705MOL0     H93033   5.939  -1.299   4.672 -1.2754  2.1752  1.3157
  705MOL0     H93034   6.067  -1.427   4.910  0.4464 -1.5259 -0.1710
  705MOL0     H93035   6.124  -1.472   4.754 -1.1076 -1.3005 -0.7112
  705MOL0     H93036   5.894  -1.536   4.684  2.4750  4.5885 -2.0846
  705MOL0     H93037   5.829  -1.485   4.843  1.2756  2.9029  0.0508
  705MOL0     H93038   6.047  -1.706   4.836 -0.6879 -1.1592  1.0023
  705MOL0     H93039   5.938  -1.648   4.958  0.8101 -1.2415  0.3435
  705MOL0     H93040   5.856  -1.796   4.695  1.5454 -0.5162  0.5584
  705MOL0     H93041   5.746  -1.758   4.822 -0.6700  0.2690 -0.5832
  705MOL0     H93042   6.537  -0.952   4.705 -2.6810 -0.9921 -0.5995
  705MOL0     H93043   6.708  -0.786   4.603  0.0383  4.7653 -0.6691
  705MOL0     H93044   6.712  -0.394   4.408  0.3110 -0.0535  5.0211
  705MOL0     H93045   6.824  -0.188   4.352 -2.0304 -0.7735  1.3409
  705MOL0     H93046   8.255   0.763   3.199 -3.0134  1.3441 -1.8563
  705MOL0     H93047   8.468   0.731   3.089 -2.1656  1.1617 -0.1685
  705MOL0     H93048   8.754   0.462   2.837 -3.6692  0.3815  1.8603
  705MOL0     H93049   8.975   0.555   2.786  0.5359  3.5491  1.0496
  705MOL0     H93050   9.168   0.614   2.688  2.2464  0.6979  0.0890
  705MOL0     H93051   9.172   0.777   2.775  0.9418  1.3976 -0.1128
  705MOL0     H93052   9.222   0.740   2.471 -0.5865 -2.3760  0.9345
  705MOL0     H93053   9.281   0.883   2.570  2.9836  0.0455  1.6606
  705MOL0     H93054   9.467   0.802   2.548 -0.4910  0.0399 -1.6951
  705MOL0     H93055   9.395   0.637   2.498  0.5600  0.6540 -0.2581
  705MOL0     H93056   9.409   0.559   2.724  3.2033 -3.0442 -3.3358
  705MOL0     H93057   9.568   0.631   2.681 -0.3096 -0.4244 -2.1863
  705MOL0     H93058   9.476   0.894   2.991  0.2542  1.0609 -0.2243
  705MOL0     H93059   8.821   0.874   2.558  2.5353  0.5308  0.9406
  705MOL0     H93060   8.582   0.808   2.642 -1.2444 -0.9626 -1.0896
  706MOL0     O93061  11.295   7.943  11.374  0.6065  0.8169  0.1046
  706MOL0     C93062  11.229   7.849  11.338 -0.8018  0.5534 -0.3420
  706MOL0     O93063  11.278   7.724  11.324 -0.2288  0.1977 -0.1748
  706MOL0     C93064  11.401   7.690  11.361  0.1479  0.4706 -0.3763
  706MOL0     C93065  11.422   7.605  11.469  0.0692 -0.7720 -0.1214
  706MOL0     C93066  11.553   7.557  11.505  0.3645 -0.4053  0.5287
  706MOL0     C93067  11.666   7.592  11.432 -0.1993 -0.2028  1.3448
  706MOL0     O93068  11.788   7.563  11.486  0.7438  0.8775 -0.2454
  706MOL0     C93069  11.900   7.553  11.402  0.2994  0.6983  0.3098
  706MOL0     C93070  12.016   7.494  11.474 -0.4825  0.3513  0.1235
  706MOL0     C93071  12.009   7.345  11.501  0.1344 -0.8960 -1.0971
  706MOL0     C93072  12.030   7.252  11.387 -0.4264 -0.0190 -0.0011
  706MOL0     C93073  12.028   7.108  11.441  0.1742  0.1426  0.4265
  706MOL0     C93074  12.047   6.990  11.344 -0.3147 -0.1724 -0.0615
  706MOL0     C93075  12.199   6.967  11.315  0.6771 -0.1444 -0.4948
  706MOL0     C93076  12.224   6.875  11.196  0.1302 -0.4567  0.3414
  706MOL0     N93077  12.185   6.926  11.066  0.5442 -0.1862  0.0105
  706MOL0     C93078  12.116   6.851  10.975  0.4092 -0.2456 -0.4951
  706MOL0     C93079  12.140   6.913  10.856 -0.9832 -0.0602  0.9004
  706MOL0     C93080  12.103   6.860  10.719  0.3481  0.6756 -0.1950
  706MOL0     C93081  12.017   6.961  10.639 -0.3424  0.2305  0.0724
  706MOL0     C93082  11.866   6.958  10.667 -0.0516 -1.0152  0.9675
  706MOL0     C93083  11.793   7.059  10.577  0.0101 -0.5722  0.1965
  706MOL0     O93084  11.652   7.060  10.598 -0.1244  0.1224 -0.3994
  706MOL0     C93085  11.585   7.169  10.547  0.1490 -0.6621 -0.2294
  706MOL0     C93086  11.453   7.182  10.578 -0.4974  0.1073  0.5747
  706MOL0     C93087  11.373   7.281  10.512  0.6821  0.1409 -2.0178
  706MOL0     C93088  11.421   7.378  10.425  1.3522 -0.0756 -0.4375
  706MOL0     C93089  11.349   7.494  10.360  0.6761  1.7715  0.4908
  706MOL0     O93090  11.424   7.595  10.318  0.4151 -0.0468 -0.1618
  706MOL0     C93091  11.368   7.709  10.277 -0.4933 -0.2419 -0.2637
  706MOL0     C93092  11.301   7.709  10.154  0.1261  0.0218 -0.2942
  706MOL0     C93093  11.258   7.831  10.100 -0.0424 -0.1284 -0.7744
  706MOL0     C93094  11.258   7.947  10.175  0.8704  0.3478  0.7217
  706MOL0     O93095  11.211   8.058  10.105 -0.0190  0.4866 -0.3980
  706MOL0     C93096  11.132   8.146  10.190 -0.5973 -0.2927  0.1127
  706MOL0     C93097  11.031   8.223  10.105  0.0736  0.7104 -0.1760
  706MOL0     C93098  10.939   8.135  10.030  0.1777  0.3980  1.1436
  706MOL0     C93099  10.841   8.218   9.946 -0.0421 -0.3474 -0.5243
  706MOL0     C93100  10.736   8.136   9.858 -0.0230  0.1837 -0.0938
  706MOL0     C93101  10.615   8.215   9.806  1.0042 -0.4787 -0.6130
  706MOL0     C93102  10.651   8.308   9.692 -0.1371  0.7026 -0.3454
  706MOL0     C93103  10.527   8.398   9.656 -1.1239  0.8041  0.1297
  706MOL0    Cl93104  10.588   8.531   9.551  0.5344  0.1848  0.2206
  706MOL0     C93105  11.318   7.946  10.295 -0.4397  0.2917 -0.4823
  706MOL0     C93106  11.379   7.830  10.348 -0.5626 -1.0022 -0.5274
  706MOL0     O93107  11.232   7.494  10.376  0.3334  0.5879  0.9550
  706MOL0     C93108  11.554   7.356  10.379 -0.2397  0.1200 -0.0179
  706MOL0     C93109  11.631   7.265  10.448  0.3421  0.8671 -0.4651
  706MOL0     N93110  12.212   7.037  10.880 -0.6893  0.2570  0.5671
  706MOL0     N93111  12.238   7.030  11.002 -0.1987  0.6382 -0.1134
  706MOL0     C93112  11.642   7.690  11.328 -0.3954 -0.9742  0.0026
  706MOL0     C93113  11.511   7.737  11.302  0.0446 -0.3140  0.9786
  706MOL0     C93114  11.081   7.860  11.323  0.2330  0.1361  0.1565
  706MOL0     C93115  11.028   7.989  11.308 -1.0279  0.4879  0.0202
  706MOL0     C93116  10.892   8.006  11.308  0.2193 -0.7934  0.7002
  706MOL0     C93117  10.803   7.904  11.311 -0.7099  0.4393  1.0621
  706MOL0     O93118  10.669   7.913  11.281 -0.0149  0.2553 -0.6254
  706MOL0     C93119  10.632   8.022  11.195  0.0533 -0.8907 -0.2028
  706MOL0     C93120  10.482   8.028  11.157 -0.0961  0.4174 -0.4329
  706MOL0     C93121  10.456   8.165  11.088  0.3212  0.2990  0.0532
  706MOL0     C93122  10.326   8.148  11.019 -0.0226  0.4868  0.2020
  706MOL0     C93123  10.267   8.275  10.982 -0.4013 -0.7889 -0.0657
  706MOL0     C93124  10.208   8.371  10.944  0.5089  0.2271  0.6950
  706MOL0     C93125  10.856   7.779  11.318  0.8107  0.9757  0.4926
  706MOL0     C93126  10.991   7.750  11.315  0.3151 -0.2443 -0.2963
  706MOL0     H93127  11.333   7.568  11.519 -1.2837 -3.2651 -3.9250
  706MOL0     H93128  11.554   7.499  11.597 -0.0506  0.1962  0.9213
  706MOL0     H93129  11.933   7.657  11.386 -1.1403  1.4253  1.7911
  706MOL0     H93130  11.883   7.500  11.308 -0.4785  2.2039 -0.4426
  706MOL0     H93131  12.021   7.538  11.574  1.1629 -3.3144  1.8584
  706MOL0     H93132  12.114   7.513  11.429  0.0617 -3.5543 -0.7200
  706MOL0     H93133  11.913   7.326  11.550 -0.0661  2.0044 -0.1532
  706MOL0     H93134  12.088   7.326  11.574  1.0329  0.1773 -1.7554
  706MOL0     H93135  11.962   7.253  11.301  1.7387  2.6858 -1.8636
  706MOL0     H93136  12.131   7.259  11.346 -1.2962 -2.1873 -2.8087
  706MOL0     H93137  11.932   7.092  11.492 -0.7636  4.2644  0.3376
  706MOL0     H93138  12.105   7.093  11.517  0.9122 -3.5796 -0.8263
  706MOL0     H93139  11.999   7.021  11.251  0.7350  1.8665  0.0419
  706MOL0     H93140  12.017   6.894  11.388  0.7889  0.4394  2.1702
  706MOL0     H93141  12.251   7.062  11.296  1.3798 -0.3828  0.1534
  706MOL0     H93142  12.246   6.923  11.404  0.3351  0.1008 -0.1887
  706MOL0     H93143  12.187   6.773  11.209  0.8689 -1.0271 -1.5854
  706MOL0     H93144  12.332   6.858  11.188  0.4081  1.0179  0.6274
  706MOL0     H93145  12.082   6.750  10.996 -1.9546  0.7467  0.7602
  706MOL0     H93146  12.049   6.769  10.744  0.6076  0.2131 -1.2679
  706MOL0     H93147  12.194   6.836  10.662 -0.6013 -1.1399 -1.0119
  706MOL0     H93148  12.021   6.938  10.532  1.3191 -0.0651  0.1666
  706MOL0     H93149  12.059   7.061  10.650 -3.7670  1.9216 -1.0862
  706MOL0     H93150  11.829   6.857  10.646 -0.1362 -1.1607  1.7776
  706MOL0     H93151  11.846   6.978  10.773 -0.1806 -1.4287  1.0223
  706MOL0     H93152  11.816   7.032  10.473 -2.0184 -3.0604  0.2832
  706MOL0     H93153  11.823   7.163  10.589  0.8646 -0.5124 -1.9957
  706MOL0     H93154  11.411   7.103  10.638 -1.3699 -2.6699 -3.2892
  706MOL0     H93155  11.269   7.293  10.542  1.6205 -1.9601  3.1203
  706MOL0     H93156  11.298   7.622  10.089 -1.6575 -0.1575 -0.0375
  706MOL0     H93157  11.216   7.833  10.000  0.9282 -2.3265 -1.2882
  706MOL0     H93158  11.196   8.227  10.228 -2.7717  1.6057 -0.0556
  706MOL0     H93159  11.073   8.108  10.273  0.3962 -0.4099  0.7862
  706MOL0     H93160  11.082   8.295  10.039  0.4004  0.1150 -0.5889
  706MOL0     H93161  10.965   8.278  10.172  0.0924  0.5012  0.0175
  706MOL0     H93162  10.887   8.062  10.092  1.1207 -1.3228 -0.0022
  706MOL0     H93163  11.000   8.080   9.958 -1.5660  0.2223 -0.2564
  706MOL0     H93164  10.776   8.274  10.014 -0.4964 -1.8912  0.3725
  706MOL0     H93165  10.885   8.289   9.876 -0.6749  0.3280 -0.2465
  706MOL0     H93166  10.698   8.051   9.915  0.6247  0.2758  0.4732
  706MOL0     H93167  10.793   8.095   9.774 -0.1970  0.1385 -0.1902
  706MOL0     H93168  10.586   8.275   9.893 -1.1072 -1.4105 -0.5991
  706MOL0     H93169  10.529   8.150   9.785  1.8820 -1.4917 -1.1500
  706MOL0     H93170  10.738   8.369   9.717  0.7621  0.0162 -1.6966
  706MOL0     H93171  10.681   8.257   9.600 -0.8478  0.5264 -0.4887
  706MOL0     H93172  10.480   8.423   9.751 -6.0564 -1.5309 -1.3232
  706MOL0     H93173  10.450   8.352   9.594 -0.7779  0.2506  0.1048
  706MOL0     H93174  11.333   8.036  10.354  1.1319 -0.9317  1.1324
  706MOL0     H93175  11.434   7.833  10.442  2.1257 -2.7691 -1.9004
  706MOL0     H93176  11.613   7.415  10.309  2.7163 -1.5071  0.9441
  706MOL0     H93177  11.729   7.247  10.406  0.1307 -1.2331 -0.1484
  706MOL0     H93178  11.723   7.735  11.272  0.9267  2.3145  4.0327
  706MOL0     H93179  11.500   7.808  11.221  1.7320  1.7502  2.4481
  706MOL0     H93180  11.097   8.071  11.292  1.6936 -1.9652 -1.8720
  706MOL0     H93181  10.871   8.111  11.297  2.7983 -0.1182  1.4117
  706MOL0     H93182  10.682   8.011  11.099 -0.5874  0.5003 -0.7232
  706MOL0     H93183  10.662   8.114  11.245  0.2918 -0.5972 -0.8698
  706MOL0     H93184  10.459   7.941  11.095 -2.9564  0.8416 -0.1031
  706MOL0     H93185  10.424   8.017  11.248  0.5959  0.7498  0.0599
  706MOL0     H93186  10.523   8.175  11.002 -1.3397 -1.1396 -1.4668
  706MOL0     H93187  10.472   8.245  11.161 -2.3106 -0.2323  1.3323
  706MOL0     H93188  10.340   8.075  10.939 -2.5689 -2.3444  2.1314
  706MOL0     H93189  10.257   8.101  11.089  2.1219 -2.2634  0.6666
  706MOL0     H93190  10.153   8.444  10.888  2.0209  0.4072 -0.6329
  706MOL0     H93191  10.786   7.698  11.304  0.3447  1.5231 -0.4728
  706MOL0     H93192  11.034   7.651  11.310  4.1227  1.0775  1.9263
  707MOL0     O93193   9.283   6.957   1.716 -0.5649 -0.0053 -0.4118
  707MOL0     C93194   9.343   6.985   1.815  0.7862  0.1681 -0.4210
  707MOL0     O93195   9.433   7.074   1.830 -0.0456  0.3559 -0.6751
  707MOL0     C93196   9.487   7.137   1.721 -0.3672  0.2126 -0.3743
  707MOL0     C93197   9.503   7.274   1.719 -0.3197  0.2699 -0.5650
  707MOL0     C93198   9.563   7.337   1.612 -1.0639 -0.3201 -0.6022
  707MOL0     C93199   9.601   7.261   1.501 -0.9697  0.0362 -0.3316
  707MOL0     O93200   9.649   7.316   1.384  0.5904  0.6011 -0.3895
  707MOL0     C93201   9.777   7.375   1.379  0.2314 -0.6102  0.1054
  707MOL0     C93202   9.891   7.284   1.333 -0.1785 -0.6083  0.2987
  707MOL0     C93203   9.858   7.188   1.225  1.1585  0.3526  0.1013
  707MOL0     C93204   9.825   7.254   1.092  0.5877 -0.6319 -0.0804
  707MOL0     C93205   9.933   7.341   1.024  0.0475 -0.4087 -0.0399
  707MOL0     C93206   9.892   7.405   0.885 -0.6102  0.4395 -1.0186
  707MOL0     C93207  10.003   7.424   0.775  0.8706 -0.2261 -0.3835
  707MOL0     C93208   9.976   7.531   0.666  0.1089  0.3443 -0.1417
  707MOL0     N93209   9.884   7.490   0.554 -0.0159 -0.0966  0.3748
  707MOL0     C93210   9.882   7.368   0.494 -0.4307  0.0252  0.5688
  707MOL0     C93211   9.757   7.364   0.433  0.0199  0.5260 -0.0409
  707MOL0     C93212   9.698   7.239   0.366  0.5951 -1.0532 -0.2931
  707MOL0     C93213   9.627   7.137   0.450  0.9483  0.0664 -0.6968
  707MOL0     C93214   9.536   7.206   0.557 -0.4099  0.6432 -0.0576
  707MOL0     C93215   9.408   7.269   0.502  0.4226  0.6631  1.0407
  707MOL0     O93216   9.337   7.168   0.414 -0.6171  0.6025 -1.0242
  707MOL0     C93217   9.286   7.193   0.294 -0.1445 -0.6693 -0.0913
  707MOL0     C93218   9.233   7.093   0.228 -0.6014  0.5890 -0.5669
  707MOL0     C93219   9.183   7.099   0.100  0.4091  0.2743 -0.0044
  707MOL0     C93220   9.194   7.218   0.031  0.2830 -0.4697  0.2517
  707MOL0     C93221   9.131   7.228  -0.109 -0.0518 -0.2980 -0.2757
  707MOL0     O93222   9.119   7.105  -0.169  0.4488 -0.3775 -0.3780
  707MOL0     C93223   9.089   7.088  -0.302  0.2755  0.4367  1.0779
  707MOL0     C93224   9.161   6.982  -0.369 -0.6060 -0.0390  0.5311
  707MOL0     C93225   9.145   6.976  -0.504  0.2215  0.1941 -0.2675
  707MOL0     C93226   9.053   7.053  -0.577 -0.3244  0.0076  0.6917
  707MOL0     O93227   9.033   7.043  -0.718  0.1021  0.2586  0.4210
  707MOL0     C93228   9.023   6.909  -0.779 -0.6425  0.6372  0.9461
  707MOL0     C93229   8.895   6.849  -0.715 -1.0576 -0.0398 -0.2272
  707MOL0     C93230   8.847   6.724  -0.797 -0.2854  0.1272  0.6870
  707MOL0     C93231   8.810   6.734  -0.953  0.0441 -0.3992  0.1499
  707MOL0     C93232   8.717   6.858  -0.994  0.7633 -0.3509  0.9765
  707MOL0     C93233   8.687   6.860  -1.142 -0.2241  0.1377  0.0665
  707MOL0     C93234   8.620   6.986  -1.186  0.8771  0.2639  0.1751
  707MOL0     C93235   8.590   7.009  -1.330  0.4110  0.0261 -0.2089
  707MOL0    Cl93236   8.730   6.999  -1.435  0.4300 -0.4313 -0.1840
  707MOL0     C93237   8.985   7.152  -0.509  0.0392  1.2520 -0.2329
  707MOL0     C93238   9.003   7.175  -0.373 -0.2937  0.0760  0.6940
  707MOL0     O93239   9.093   7.336  -0.157  0.6045  0.0905 -0.4975
  707MOL0     C93240   9.259   7.327   0.091  0.4516 -0.4361  0.2207
  707MOL0     C93241   9.315   7.309   0.225  0.1156 -0.5429 -0.6305
  707MOL0     N93242   9.690   7.477   0.466  0.1441 -0.9908 -0.7493
  707MOL0     N93243   9.760   7.545   0.541 -0.5598  1.3747  0.1624
  707MOL0     C93244   9.585   7.125   1.499  0.7685  0.2636 -0.3977
  707MOL0     C93245   9.524   7.056   1.607 -0.2719 -0.1537 -0.2119
  707MOL0     C93246   9.301   6.896   1.929 -0.6622  0.4187 -0.2833
  707MOL0     C93247   9.271   6.764   1.897  0.3576  0.5008 -0.6009
  707MOL0     C93248   9.266   6.660   1.995 -0.1877 -0.2837 -0.1858
  707MOL0     C93249   9.281   6.696   2.132 -0.4295  0.2239 -0.5946
  707MOL0     O93250   9.269   6.593   2.229 -1.2336 -0.2850 -0.2373
  707MOL0     C93251   9.321   6.606   2.362 -0.0917 -0.1981  0.3176
  707MOL0     C93252   9.216   6.669   2.464 -0.6291  0.4641  0.4923
  707MOL0     C93253   9.296   6.682   2.601 -0.3543  0.3089 -0.2016
  707MOL0     C93254   9.225   6.776   2.698 -0.3451 -0.6928 -0.6026
  707MOL0     C93255   9.213   6.910   2.649 -0.8426 -0.7916  0.4632
  707MOL0     C93256   9.164   7.009   2.600  0.9708  0.2208  0.1355
  707MOL0     C93257   9.316   6.834   2.160  0.1688  0.0412 -0.5032
  707MOL0     C93258   9.325   6.928   2.064  0.2045 -0.2274  0.6795
  707MOL0     H93259   9.471   7.328   1.808  1.1682 -1.2981  1.0159
  707MOL0     H93260   9.592   7.441   1.601  1.4425 -1.0825 -1.8296
  707MOL0     H93261   9.806   7.425   1.473 -0.1032  1.6216 -0.9264
  707MOL0     H93262   9.768   7.459   1.309 -1.9833 -1.8969 -1.2573
  707MOL0     H93263   9.914   7.212   1.412 -2.2874 -1.6089  0.0571
  707MOL0     H93264   9.984   7.340   1.317  1.2326 -2.1224  2.6393
  707MOL0     H93265   9.773   7.121   1.242  1.5266 -1.0687 -2.9710
  707MOL0     H93266   9.944   7.123   1.210  0.2253 -1.2138  1.2252
  707MOL0     H93267   9.788   7.172   1.029 -1.0284 -0.0495  0.0575
  707MOL0     H93268   9.742   7.323   1.107 -0.1088 -1.9548  2.9424
  707MOL0     H93269  10.020   7.274   1.026 -0.4803 -1.1324  1.9279
  707MOL0     H93270   9.969   7.424   1.085  0.4635  0.2656 -1.1736
  707MOL0     H93271   9.852   7.502   0.915 -1.8331 -0.7999  1.6587
  707MOL0     H93272   9.807   7.351   0.843 -1.0176  1.3931 -1.4618
  707MOL0     H93273  10.081   7.467   0.839 -2.2946  0.9344  3.0739
  707MOL0     H93274  10.042   7.331   0.731  1.9762  1.0537 -2.2506
  707MOL0     H93275  10.075   7.554   0.625  0.2793  1.6307  0.9145
  707MOL0     H93276   9.939   7.622   0.714 -1.3203 -0.0215 -0.5170
  707MOL0     H93277   9.956   7.291   0.512 -0.8212 -0.1101  1.6480
  707MOL0     H93278   9.778   7.194   0.308  3.9244  2.7033  0.8910
  707MOL0     H93279   9.634   7.286   0.290 -0.6713  2.0062  2.3963
  707MOL0     H93280   9.688   7.068   0.509  2.3718  4.4701  3.6221
  707MOL0     H93281   9.567   7.080   0.377  0.9129 -0.8083  0.0017
  707MOL0     H93282   9.516   7.131   0.634  1.6685 -0.5949 -0.6298
  707MOL0     H93283   9.589   7.286   0.609  0.8035  1.3789 -2.2927
  707MOL0     H93284   9.432   7.362   0.449  1.2224  1.7634  3.1921
  707MOL0     H93285   9.342   7.296   0.584  0.9482 -2.0018  2.4475
  707MOL0     H93286   9.235   6.998   0.281 -1.5973 -0.4102 -2.2109
  707MOL0     H93287   9.137   7.013   0.053  0.1057  0.7432 -0.5760
  707MOL0     H93288   9.234   6.926  -0.311  2.0663  1.5690 -1.0315
  707MOL0     H93289   9.197   6.898  -0.558  0.8702 -0.5609  1.3682
  707MOL0     H93290   9.102   6.839  -0.751 -0.3773  1.0832  1.3304
  707MOL0     H93291   9.012   6.922  -0.887 -0.0626 -1.1136  0.6484
  707MOL0     H93292   8.816   6.925  -0.716 -0.2496  0.8592 -2.3106
  707MOL0     H93293   8.929   6.818  -0.616  0.0270 -2.5510 -1.2936
  707MOL0     H93294   8.749   6.703  -0.752 -0.5497  1.8030  0.9596
  707MOL0     H93295   8.921   6.643  -0.789 -1.0609 -0.4746  2.1634
  707MOL0     H93296   8.903   6.749  -1.010 -1.0347  2.6573 -1.0187
  707MOL0     H93297   8.754   6.648  -0.990  2.6200 -2.4351  0.6627
  707MOL0     H93298   8.769   6.948  -0.961  1.8778  0.0468 -1.6332
  707MOL0     H93299   8.620   6.858  -0.943  0.3064  0.7972  0.1635
  707MOL0     H93300   8.614   6.784  -1.172 -0.8546  1.1260 -0.9707
  707MOL0     H93301   8.783   6.852  -1.192  0.1646 -1.7644  1.0134
  707MOL0     H93302   8.532   7.003  -1.122  1.6851  2.4881  0.8133
  707MOL0     H93303   8.695   7.062  -1.161  1.8459 -0.6685  0.1681
  707MOL0     H93304   8.541   7.106  -1.344  2.0034  0.4494 -3.9193
  707MOL0     H93305   8.520   6.931  -1.363 -2.8617  2.9025 -0.6624
  707MOL0     H93306   8.930   7.224  -0.569  1.1496  0.5502 -2.1684
  707MOL0     H93307   8.966   7.261  -0.318 -3.3583 -0.6189 -0.1122
  707MOL0     H93308   9.275   7.424   0.044  2.4546 -0.5816  0.5399
  707MOL0     H93309   9.383   7.382   0.266 -0.2146 -0.9955  0.7734
  707MOL0     H93310   9.614   7.069   1.411  0.0996 -1.1797  0.2603
  707MOL0     H93311   9.511   6.949   1.598  1.9098 -0.6483  1.7590
  707MOL0     H93312   9.274   6.728   1.795  2.1710 -0.9072 -0.1101
  707MOL0     H93313   9.260   6.555   1.971  1.3027  0.2493 -3.3155
  707MOL0     H93314   9.419   6.651   2.344  0.0411 -1.4344 -2.6710
  707MOL0     H93315   9.352   6.505   2.393  1.1370 -0.8628 -2.7085
  707MOL0     H93316   9.195   6.766   2.417 -0.9360 -1.2621 -3.2767
  707MOL0     H93317   9.124   6.610   2.476 -1.5273  1.8450  0.6342
  707MOL0     H93318   9.396   6.717   2.574 -0.4941  0.9943  0.1656
  707MOL0     H93319   9.319   6.592   2.658  1.7505  2.4483  2.5901
  707MOL0     H93320   9.123   6.741   2.718 -1.4538  2.4098 -0.3815
  707MOL0     H93321   9.286   6.780   2.789  0.6822 -1.7656 -1.2177
  707MOL0     H93322   9.109   7.092   2.561  2.7673  1.4987  0.1825
  707MOL0     H93323   9.324   6.854   2.266  1.6178  1.8823 -0.9070
  707MOL0     H93324   9.350   7.033   2.073  0.4536 -0.0250 -1.6522
  708MOL0     O93325   2.329   1.787   9.652  0.4628  0.3798  0.0428
  708MOL0     C93326   2.263   1.871   9.587 -0.4888 -0.4459 -0.5788
  708MOL0     O93327   2.293   1.914   9.456 -0.3568 -0.0415 -1.0718
  708MOL0     C93328   2.412   1.868   9.398  0.4967  0.1091 -0.4236
  708MOL0     C93329   2.395   1.836   9.263 -0.2892  0.1330  0.1473
  708MOL0     C93330   2.505   1.774   9.195  0.4705  0.9744 -0.0009
  708MOL0     C93331   2.628   1.767   9.257  0.8526 -0.2696 -0.7501
  708MOL0     O93332   2.738   1.704   9.208 -0.4536 -0.2627  0.2026
  708MOL0     C93333   2.717   1.593   9.115  0.1846  0.0810 -0.1106
  708MOL0     C93334   2.828   1.482   9.114  1.5295 -0.1714  0.2983
  708MOL0     C93335   2.949   1.541   9.042 -0.2434  0.2719 -0.2614
  708MOL0     C93336   3.073   1.442   9.055  0.8395 -0.1396 -0.3694
  708MOL0     C93337   3.191   1.516   8.991  0.6876 -0.6915 -0.0755
  708MOL0     C93338   3.330   1.464   9.018  0.4012  0.6578 -0.4790
  708MOL0     C93339   3.345   1.312   9.021 -0.5001 -0.9702  0.3065
  708MOL0     C93340   3.296   1.246   8.885  0.2429 -1.5578 -0.4686
  708MOL0     N93341   3.317   1.092   8.887  0.1095 -0.5980 -0.5942
  708MOL0     C93342   3.287   0.994   8.976  0.2789 -0.3102  0.2650
  708MOL0     C93343   3.324   0.874   8.926 -0.6438  0.5411 -0.1824
  708MOL0     C93344   3.314   0.736   8.982  0.8249  0.0720 -0.2226
  708MOL0     C93345   3.183   0.721   9.049 -0.1404 -0.0071  1.1565
  708MOL0     C93346   3.181   0.576   9.096  0.0972 -0.2046  0.0091
  708MOL0     C93347   3.046   0.546   9.163 -0.6474 -0.1329 -0.9320
  708MOL0     O93348   3.029   0.621   9.288 -0.4513  0.4174  0.2677
  708MOL0     C93349   2.902   0.660   9.330 -1.2441  0.3133 -0.9079
  708MOL0     C93350   2.904   0.760   9.428  0.4134 -0.6858 -0.1112
  708MOL0     C93351   2.789   0.823   9.477 -0.3243  0.0851  0.6011
  708MOL0     C93352   2.663   0.771   9.433 -0.1158  0.2051 -0.1959
  708MOL0     C93353   2.539   0.831   9.493 -0.0001  0.1206 -0.1557
  708MOL0     O93354   2.423   0.803   9.431 -0.0833  0.8236 -0.1740
  708MOL0     C93355   2.300   0.853   9.476 -0.6849  0.5722  0.5439
  708MOL0     C93356   2.291   0.982   9.515 -0.1993 -0.6190 -0.7021
  708MOL0     C93357   2.178   1.036   9.567  0.2286 -0.2984 -0.6295
  708MOL0     C93358   2.063   0.959   9.561  0.8118 -1.4053  0.2892
  708MOL0     O93359   1.938   1.024   9.601 -0.8267  0.7960  0.2449
  708MOL0     C93360   1.863   1.062   9.488  0.7350 -0.2370 -1.5052
  708MOL0     C93361   1.730   0.991   9.500  0.3888  0.0838 -0.0274
  708MOL0     C93362   1.673   1.021   9.637 -0.3425 -0.2546 -0.3054
  708MOL0     C93363   1.542   0.951   9.661 -0.1423 -0.4210  0.5592
  708MOL0     C93364   1.506   0.959   9.817 -1.0457  0.2250 -0.5405
  708MOL0     C93365   1.386   0.880   9.838  0.3833 -0.7392  0.1424
  708MOL0     C93366   1.260   0.925   9.753 -0.9658  0.9735 -0.0006
  708MOL0     C93367   1.225   1.071   9.761 -0.5247  0.2371 -1.1992
  708MOL0    Cl93368   1.208   1.106   9.930 -0.2481  0.0790 -0.4691
  708MOL0     C93369   2.061   0.821   9.520  1.2189  0.2685 -0.2917
  708MOL0     C93370   2.191   0.773   9.484 -0.2724  0.0371  0.0707
  708MOL0     O93371   2.548   0.874   9.616  0.1865 -0.5333 -0.7486
  708MOL0     C93372   2.662   0.668   9.345  0.4368  0.2531 -0.6019
  708MOL0     C93373   2.775   0.620   9.281 -0.5010 -0.5205  0.2173
  708MOL0     N93374   3.373   0.903   8.801 -0.1764 -0.6048  0.3012
  708MOL0     N93375   3.367   1.033   8.779 -0.3069 -0.0196  0.2028
  708MOL0     C93376   2.642   1.825   9.387  0.0997 -0.6519  1.5009
  708MOL0     C93377   2.532   1.874   9.455  0.3582 -0.1334  0.1102
  708MOL0     C93378   2.154   1.933   9.661  0.1102 -1.1806  1.1131
  708MOL0     C93379   2.059   2.021   9.595  0.6261  0.6476 -0.3043
  708MOL0     C93380   1.955   2.085   9.671  0.2324  0.9531  0.1299
  708MOL0     C93381   1.941   2.048   9.808  0.3816 -0.0294 -0.3438
  708MOL0     O93382   1.847   2.102   9.898 -0.3115 -0.1720 -0.2540
  708MOL0     C93383   1.746   2.190   9.851 -0.5630 -0.4160 -0.3596
  708MOL0     C93384   1.628   2.208   9.948  0.0044 -0.0650  0.0969
  708MOL0     C93385   1.674   2.233  10.086 -0.2453  0.0669 -0.8070
  708MOL0     C93386   1.559   2.215  10.184  0.6864  0.7993 -0.5336
  708MOL0     C93387   1.458   2.316  10.160 -0.6171  0.2916 -1.0130
  708MOL0     C93388   1.372   2.402  10.147  0.6600 -0.8755  0.1055
  708MOL0     C93389   2.032   1.963   9.868  0.4253 -0.3645  0.5088
  708MOL0     C93390   2.133   1.903   9.795 -0.4544  0.0693  0.0652
  708MOL0     H93391   2.299   1.839   9.213 -0.7489 -1.1231  0.8988
  708MOL0     H93392   2.484   1.727   9.100  0.1647 -1.5709  1.2539
  708MOL0     H93393   2.707   1.632   9.013 -1.4737  0.2820  0.0959
  708MOL0     H93394   2.626   1.536   9.140  1.3309 -0.7788  2.4864
  708MOL0     H93395   2.793   1.393   9.061  3.9315 -0.8620 -0.2604
  708MOL0     H93396   2.851   1.455   9.217  2.1560 -0.9506 -0.0295
  708MOL0     H93397   2.984   1.625   9.102  1.8323 -0.5870 -0.1731
  708MOL0     H93398   2.916   1.570   8.942 -2.2827  0.6411  0.4762
  708MOL0     H93399   3.101   1.437   9.161  0.8816  0.1181 -0.3683
  708MOL0     H93400   3.058   1.340   9.017 -1.1065 -0.1079  0.2333
  708MOL0     H93401   3.188   1.625   8.989 -0.7687 -0.7107 -1.7391
  708MOL0     H93402   3.184   1.508   8.882 -2.3997 -1.1184  0.0692
  708MOL0     H93403   3.350   1.507   9.117  1.3516 -0.3122 -0.2352
  708MOL0     H93404   3.409   1.514   8.962  0.1604  3.6981  1.6220
  708MOL0     H93405   3.454   1.311   9.016 -0.3218  1.1800  2.0842
  708MOL0     H93406   3.308   1.257   9.109  2.8982  0.2060  2.6967
  708MOL0     H93407   3.359   1.295   8.811  2.0410  1.4002  2.7077
  708MOL0     H93408   3.194   1.273   8.856  1.1227  0.0281 -2.2363
  708MOL0     H93409   3.245   1.014   9.074 -2.5695  0.8530 -1.0728
  708MOL0     H93410   3.399   0.724   9.050  0.4491 -0.5668  0.1416
  708MOL0     H93411   3.325   0.661   8.904  1.8517 -1.4178  1.2743
  708MOL0     H93412   3.100   0.729   8.978  1.5788 -1.9244 -1.2770
  708MOL0     H93413   3.166   0.787   9.134  1.9296  1.3365  0.6104
  708MOL0     H93414   3.201   0.505   9.015  1.9996  2.3619 -1.8981
  708MOL0     H93415   3.256   0.563   9.175 -0.1720 -0.2793  0.2593
  708MOL0     H93416   3.038   0.442   9.194  0.0104  0.8993  3.4043
  708MOL0     H93417   2.964   0.568   9.094 -3.1149 -2.3414  1.0993
  708MOL0     H93418   2.998   0.807   9.458  0.2677 -0.9137  0.7304
  708MOL0     H93419   2.811   0.909   9.540  3.2160 -0.0352 -0.2738
  708MOL0     H93420   2.375   1.051   9.515  0.0347 -0.8957 -1.9604
  708MOL0     H93421   2.173   1.135   9.611 -2.1576  0.5094 -2.4640
  708MOL0     H93422   1.904   1.029   9.392 -1.0150 -2.6148 -1.5194
  708MOL0     H93423   1.852   1.171   9.492  1.1662 -0.2141 -0.0343
  708MOL0     H93424   1.729   0.887   9.465 -3.4262 -0.7027  1.8698
  708MOL0     H93425   1.662   1.029   9.424 -0.3183 -0.2696  0.4154
  708MOL0     H93426   1.659   1.130   9.645  0.8102 -0.1599  0.6747
  708MOL0     H93427   1.741   0.985   9.715 -3.1225 -3.3011  0.9501
  708MOL0     H93428   1.471   0.996   9.592  0.2972 -1.2815 -0.5022
  708MOL0     H93429   1.540   0.847   9.626 -0.2592 -1.0938  2.4452
  708MOL0     H93430   1.495   1.063   9.850 -3.0237  0.5244 -1.9566
  708MOL0     H93431   1.591   0.923   9.876 -0.5674  2.7670  0.4768
  708MOL0     H93432   1.370   0.882   9.946 -0.6813  0.5491 -0.0172
  708MOL0     H93433   1.414   0.780   9.804 -0.8914 -0.1588 -2.9666
  708MOL0     H93434   1.270   0.889   9.650  0.5097  0.3761  0.3120
  708MOL0     H93435   1.172   0.871   9.788 -1.3015  0.6249 -1.3216
  708MOL0     H93436   1.140   1.093   9.696 -1.0076  3.8155  0.4552
  708MOL0     H93437   1.305   1.125   9.709 -2.2558  3.4971 -0.7182
  708MOL0     H93438   1.969   0.765   9.528  1.6637 -0.2184  3.9548
  708MOL0     H93439   2.193   0.669   9.455  0.3959 -0.4981  1.9231
  708MOL0     H93440   2.569   0.627   9.306  2.4080 -3.6013 -1.7537
  708MOL0     H93441   2.766   0.532   9.218  2.6345 -2.1249  1.7623
  708MOL0     H93442   2.742   1.821   9.430  0.7558 -0.4227  0.0812
  708MOL0     H93443   2.541   1.912   9.557  0.0123 -1.6790  0.7459
  708MOL0     H93444   2.074   2.031   9.488  1.4988 -3.8345 -0.8186
  708MOL0     H93445   1.896   2.158   9.617 -2.7596  0.2555  2.1876
  708MOL0     H93446   1.717   2.162   9.749 -0.1867 -1.1855 -0.2630
  708MOL0     H93447   1.802   2.284   9.846  3.6441 -2.7032 -1.1598
  708MOL0     H93448   1.571   2.292   9.906  1.5249 -0.2912 -2.6781
  708MOL0     H93449   1.571   2.115   9.954  0.4399 -0.2398  1.8266
  708MOL0     H93450   1.735   2.325  10.090  2.0224 -1.3710  2.0765
  708MOL0     H93451   1.747   2.155  10.109 -0.4428  0.5084  1.6077
  708MOL0     H93452   1.504   2.124  10.162  3.4355 -0.7209 -1.6142
  708MOL0     H93453   1.586   2.215  10.290 -0.6501  1.9011 -0.1637
  708MOL0     H93454   1.295   2.474  10.132  1.3899 -0.1444 -0.2180
  708MOL0     H93455   2.000   1.942   9.969 -2.4518 -0.2674 -0.2869
  708MOL0     H93456   2.190   1.831   9.854  0.2319  1.5005  1.2024
  709MOL0     O93457   7.542   9.672   3.640  0.6560 -0.3664 -0.7484
  709MOL0     C93458   7.647   9.739   3.627 -0.0420 -0.5055 -0.2599
  709MOL0     O93459   7.781   9.701   3.661  0.6928  0.3187  0.2021
  709MOL0     C93460   7.791   9.571   3.693  0.5556 -0.2633 -0.3608
  709MOL0     C93461   7.825   9.466   3.612 -0.0406  0.2621  0.2461
  709MOL0     C93462   7.853   9.341   3.664 -0.5260  0.8011 -0.5099
  709MOL0     C93463   7.805   9.311   3.794 -0.6165 -0.5098  0.7549
  709MOL0     O93464   7.804   9.187   3.850  0.0747 -0.2108 -0.2697
  709MOL0     C93465   7.823   9.075   3.755  0.7732 -0.6125 -0.2431
  709MOL0     C93466   7.839   8.937   3.814 -0.1813  0.4620 -0.3059
  709MOL0     C93467   7.699   8.892   3.862  0.0134 -0.9370 -0.3442
  709MOL0     C93468   7.707   8.762   3.937 -1.3351 -0.0609 -0.5209
  709MOL0     C93469   7.567   8.690   3.946 -0.0951 -0.6052  1.0775
  709MOL0     C93470   7.553   8.574   4.043 -0.3886 -0.6753 -0.0636
  709MOL0     C93471   7.671   8.477   4.048 -0.4149  0.3125  0.6515
  709MOL0     C93472   7.669   8.387   3.917 -0.8925 -0.7533  0.8763
  709MOL0     N93473   7.583   8.270   3.931  0.1575 -0.2784 -0.2702
  709MOL0     C93474   7.476   8.233   3.855 -0.6640 -0.5688  0.0580
  709MOL0     C93475   7.450   8.104   3.893  0.1699 -0.1745 -0.3828
  709MOL0     C93476   7.349   8.010   3.826 -0.5182  0.6619 -0.2987
  709MOL0     C93477   7.220   7.999   3.900 -0.0228  0.8854 -0.8728
  709MOL0     C93478   7.120   7.914   3.816 -0.0562  0.6127 -0.0665
  709MOL0     C93479   6.970   7.942   3.842 -0.1007 -0.0537  0.5951
  709MOL0     O93480   6.936   7.868   3.961 -0.4543 -0.2412  0.2969
  709MOL0     C93481   6.806   7.879   4.017 -0.7166 -1.3298  0.5318
  709MOL0     C93482   6.773   7.784   4.114 -0.3394 -0.6875  0.0988
  709MOL0     C93483   6.642   7.777   4.164 -1.0013 -0.0024  0.0391
  709MOL0     C93484   6.543   7.858   4.114  0.2339 -0.5356 -0.6416
  709MOL0     C93485   6.404   7.863   4.175 -0.3936 -0.5144 -0.3079
  709MOL0     O93486   6.305   7.925   4.105 -0.5600 -0.0125 -0.2646
  709MOL0     C93487   6.189   7.957   4.157 -0.2289 -0.2831 -0.5954
  709MOL0     C93488   6.158   8.082   4.203 -0.1156 -0.4533 -0.0500
  709MOL0     C93489   6.028   8.120   4.228 -0.1978 -0.7065  0.0553
  709MOL0     C93490   5.920   8.032   4.207  0.3608 -0.1094 -0.6895
  709MOL0     O93491   5.794   8.083   4.243 -0.2189  0.1764 -0.0647
  709MOL0     C93492   5.682   8.006   4.202 -0.4419  0.4630  0.3684
  709MOL0     C93493   5.551   8.075   4.263  0.4703 -0.8716 -0.0167
  709MOL0     C93494   5.425   8.032   4.190  0.4404 -1.0341 -1.2937
  709MOL0     C93495   5.300   8.047   4.280 -0.1079 -0.5958  1.0310
  709MOL0     C93496   5.168   8.009   4.198  0.2870 -0.0714 -0.9089
  709MOL0     C93497   5.048   7.988   4.285 -0.6776 -1.7863 -0.0182
  709MOL0     C93498   4.935   7.932   4.196 -0.8975  1.0592 -0.2164
  709MOL0     C93499   4.799   7.918   4.264  0.1767  0.0832  0.2446
  709MOL0    Cl93500   4.706   8.067   4.214  0.7517 -0.3529 -0.0568
  709MOL0     C93501   5.945   7.901   4.171 -0.7896 -0.0154 -0.2765
  709MOL0     C93502   6.076   7.868   4.141 -0.9391  0.8871  0.3361
  709MOL0     O93503   6.386   7.800   4.280 -0.0834 -0.2183  0.2528
  709MOL0     C93504   6.575   7.962   4.028 -0.3594  1.1435  0.8133
  709MOL0     C93505   6.706   7.966   3.977  0.2341 -0.4267 -0.8497
  709MOL0     N93506   7.540   8.061   3.991  0.1514 -0.8013 -0.0818
  709MOL0     N93507   7.617   8.163   4.011  0.2011  0.5433 -0.4962
  709MOL0     C93508   7.771   9.415   3.880 -0.1519 -0.6585  0.2192
  709MOL0     C93509   7.764   9.543   3.827 -0.3352 -0.7598  0.4924
  709MOL0     C93510   7.640   9.879   3.582 -0.5344  0.1400  0.2706
  709MOL0     C93511   7.519   9.939   3.556  0.4477  0.0438  0.5899
  709MOL0     C93512   7.508  10.073   3.510  0.8543 -0.1920 -0.3568
  709MOL0     C93513   7.619  10.163   3.513  0.3755  0.0676  1.1922
  709MOL0     O93514   7.617  10.299   3.484  0.8644  0.4114 -0.6322
  709MOL0     C93515   7.566  10.321   3.353  0.2723 -0.4492  0.7521
  709MOL0     C93516   7.667  10.279   3.253  0.8817  0.1171  0.0240
  709MOL0     C93517   7.638  10.325   3.112 -0.2534 -0.0998  0.5039
  709MOL0     C93518   7.650  10.476   3.091  0.0434  0.3780 -0.0580
  709MOL0     C93519   7.751  10.513   2.993 -0.0100 -0.3237  1.6639
  709MOL0     C93520   7.830  10.559   2.912 -0.4886  0.3328  0.8341
  709MOL0     C93521   7.742  10.104   3.542 -0.4847  0.5092  0.4055
  709MOL0     C93522   7.750   9.964   3.582 -0.0241  0.7093 -0.5724
  709MOL0     H93523   7.844   9.490   3.508  0.3801 -1.7390 -0.1819
  709MOL0     H93524   7.902   9.266   3.602  0.0032  1.5697 -1.0425
  709MOL0     H93525   7.924   9.090   3.716  1.2019  4.0576  1.9161
  709MOL0     H93526   7.746   9.074   3.678  0.5947  2.1876 -0.2062
  709MOL0     H93527   7.909   8.952   3.896 -0.7955 -0.6340  0.4439
  709MOL0     H93528   7.875   8.855   3.751 -1.4499 -0.6608  0.3771
  709MOL0     H93529   7.621   8.894   3.785  0.7232  0.4110 -1.0487
  709MOL0     H93530   7.655   8.964   3.930  1.7669  1.1678 -1.3113
  709MOL0     H93531   7.781   8.691   3.896 -1.9650 -1.6363  0.9579
  709MOL0     H93532   7.743   8.787   4.037  0.6940  2.7498 -1.8212
  709MOL0     H93533   7.544   8.652   3.846 -2.2094  0.5269  1.0748
  709MOL0     H93534   7.492   8.767   3.966 -0.3596 -0.8690  1.1001
  709MOL0     H93535   7.460   8.520   4.024  1.5774 -3.1162 -3.9622
  709MOL0     H93536   7.551   8.620   4.142  2.6028 -0.6125  0.0561
  709MOL0     H93537   7.768   8.529   4.056  0.4112 -1.4530  3.1573
  709MOL0     H93538   7.663   8.413   4.136 -2.9718  2.3804  2.0668
  709MOL0     H93539   7.770   8.354   3.893 -1.9632 -1.5705 -3.4689
  709MOL0     H93540   7.638   8.448   3.831  0.1773 -0.6265  0.5699
  709MOL0     H93541   7.406   8.294   3.800  1.7214  1.7302 -0.5740
  709MOL0     H93542   7.398   7.913   3.821 -1.2402  0.3317 -1.0336
  709MOL0     H93543   7.318   8.046   3.727 -3.4424 -0.0126  0.2666
  709MOL0     H93544   7.171   8.094   3.923 -1.4620  0.6369 -2.6906
  709MOL0     H93545   7.234   7.948   3.996 -1.6343  0.4733 -0.8195
  709MOL0     H93546   7.122   7.936   3.709 -0.3921  2.7178  0.3112
  709MOL0     H93547   7.142   7.808   3.829  0.7424  0.4972 -2.0008
  709MOL0     H93548   6.909   7.912   3.756 -1.8472  1.9312  1.0502
  709MOL0     H93549   6.959   8.050   3.856 -1.6912 -0.5056  3.6602
  709MOL0     H93550   6.856   7.729   4.156 -1.2009 -0.1300  2.7141
  709MOL0     H93551   6.620   7.708   4.244  0.6911 -0.0351  0.5154
  709MOL0     H93552   6.238   8.156   4.209 -0.7129  0.0918  4.0359
  709MOL0     H93553   5.996   8.221   4.250 -3.7692 -1.5096 -0.8663
  709MOL0     H93554   5.693   7.905   4.243  0.9004  0.0966 -0.8146
  709MOL0     H93555   5.692   8.012   4.093  0.1404  1.5794  0.4716
  709MOL0     H93556   5.553   8.184   4.258  2.4732 -0.8941 -0.9988
  709MOL0     H93557   5.552   8.047   4.369 -1.7418 -0.1620  0.2292
  709MOL0     H93558   5.439   7.927   4.160 -2.6881 -2.0281  0.3477
  709MOL0     H93559   5.404   8.087   4.098 -1.0700  1.1469  0.2666
  709MOL0     H93560   5.306   7.979   4.366  0.4142 -4.1393 -1.5921
  709MOL0     H93561   5.294   8.153   4.308 -0.2291  1.0813 -4.3038
  709MOL0     H93562   5.180   7.917   4.140 -1.9786 -1.2750  0.4160
  709MOL0     H93563   5.155   8.083   4.119 -1.0764 -1.0553 -1.6387
  709MOL0     H93564   5.010   8.085   4.318 -0.4537 -0.3340 -3.5637
  709MOL0     H93565   5.068   7.933   4.377  1.9939 -0.2978  0.4179
  709MOL0     H93566   4.927   7.987   4.103 -3.5614 -0.7147 -1.1669
  709MOL0     H93567   4.974   7.833   4.170 -2.3228  0.3044  0.3996
  709MOL0     H93568   4.805   7.896   4.371  0.5491 -2.6611 -0.2628
  709MOL0     H93569   4.751   7.826   4.230  2.4663 -0.9129 -0.5008
  709MOL0     H93570   5.869   7.826   4.151 -0.4093 -1.2152  2.3826
  709MOL0     H93571   6.093   7.783   4.075 -1.8032  1.7037 -0.9587
  709MOL0     H93572   6.515   8.044   3.992 -0.0793  2.1341  2.4874
  709MOL0     H93573   6.736   8.051   3.917  0.4814 -0.4268 -0.7282
  709MOL0     H93574   7.752   9.397   3.985  1.4998 -0.1361  0.6322
  709MOL0     H93575   7.747   9.634   3.883 -1.8595 -0.4711 -0.3624
  709MOL0     H93576   7.428   9.881   3.563  0.8116 -0.4345  1.3909
  709MOL0     H93577   7.416  10.109   3.466  1.4343 -1.6511 -2.9525
  709MOL0     H93578   7.547  10.428   3.343  3.3614  0.0687 -0.8576
  709MOL0     H93579   7.466  10.278   3.340  0.6128 -1.3725  1.1196
  709MOL0     H93580   7.764  10.319   3.285  0.6140  0.9836 -0.2075
  709MOL0     H93581   7.657  10.171   3.246  1.2457  0.1160 -0.5237
  709MOL0     H93582   7.536  10.292   3.088  0.4531 -1.1044 -1.3388
  709MOL0     H93583   7.710  10.281   3.043  1.0120  2.8803 -0.2179
  709MOL0     H93584   7.552  10.512   3.060 -0.0916  0.6653  0.6882
  709MOL0     H93585   7.675  10.517   3.189 -2.0427  2.3482 -0.2738
  709MOL0     H93586   7.910  10.582   2.843  0.4068 -2.5537  0.7836
  709MOL0     H93587   7.823  10.176   3.530  0.8154 -0.8922  0.5790
  709MOL0     H93588   7.848   9.918   3.599 -0.7717 -0.6374  0.3315
  710MOL0     O93589   2.908  10.519   9.409 -0.1760  0.1903  0.4836
  710MOL0     C93590   2.844  10.562   9.308 -0.3187 -0.0425  0.1635
  710MOL0     O93591   2.718  10.525   9.278  0.4998 -0.5285  0.2264
  710MOL0     C93592   2.631  10.480   9.382  0.9690 -0.2232 -0.7011
  710MOL0     C93593   2.635  10.518   9.515 -0.1563  0.7505  0.1888
  710MOL0     C93594   2.545  10.462   9.611 -0.1486 -0.1702 -0.1519
  710MOL0     C93595   2.444  10.373   9.571  0.9486  0.6014  1.0116
  710MOL0     O93596   2.356  10.331   9.665  0.4205 -0.7559 -0.9151
  710MOL0     C93597   2.223  10.285   9.627 -0.4401  0.3053 -0.4684
  710MOL0     C93598   2.120  10.289   9.738 -0.4607 -0.7651 -0.0572
  710MOL0     C93599   2.174  10.238   9.868  0.8593  0.3519  0.4466
  710MOL0     C93600   2.054  10.203   9.967 -0.3406  0.2409 -0.6132
  710MOL0     C93601   1.996  10.332  10.026  0.4226 -0.4953 -0.3164
  710MOL0     C93602   1.894  10.304  10.135  0.6174 -0.5606 -0.7240
  710MOL0     C93603   1.752  10.305  10.077 -0.1320 -1.5190 -0.0291
  710MOL0     C93604   1.635  10.251  10.166 -0.2610  0.4727  0.0752
  710MOL0     N93605   1.626  10.309  10.297  0.1587 -0.2605  0.2305
  710MOL0     C93606   1.559  10.426  10.334  0.6465  0.7931 -0.3962
  710MOL0     C93607   1.569  10.421  10.470  0.7070 -0.2319 -0.1731
  710MOL0     C93608   1.508  10.511  10.576  0.6875 -0.2427 -0.0194
  710MOL0     C93609   1.441  10.630  10.521 -0.1894  0.2616  0.5657
  710MOL0     C93610   1.542  10.724  10.462  0.1531 -0.6733  0.0376
  710MOL0     C93611   1.502  10.868  10.456 -0.9764  0.0786  0.4556
  710MOL0     O93612   1.598  10.944  10.531 -0.1946  0.0540 -0.0386
  710MOL0     C93613   1.584  10.946  10.668 -1.0981 -0.6043 -0.7553
  710MOL0     C93614   1.465  10.923  10.747  0.5867 -0.4544  0.5009
  710MOL0     C93615   1.469  10.936  10.885 -0.0080  0.1380 -0.0218
  710MOL0     C93616   1.595  10.967  10.948 -0.2981  0.4546  0.4548
  710MOL0     C93617   1.600  10.979  11.096  0.1132 -0.0199  0.3017
  710MOL0     O93618   1.486  10.984  11.163 -0.4079  0.5624  0.0687
  710MOL0     C93619   1.471  11.008  11.297 -0.1656 -0.7137  0.3943
  710MOL0     C93620   1.414  11.131  11.339 -0.2061  0.0675  0.1277
  710MOL0     C93621   1.372  11.148  11.474  0.1965 -0.1833  0.3800
  710MOL0     C93622   1.410  11.047  11.569 -0.1385 -0.3812 -0.1116
  710MOL0     O93623   1.369  11.043  11.696  0.5308  0.0737 -0.9401
  710MOL0     C93624   1.310  11.157  11.758 -0.1178 -0.1906  0.2150
  710MOL0     C93625   1.341  11.150  11.914  0.5950 -0.2498  1.3187
  710MOL0     C93626   1.244  11.043  11.982 -0.2970  0.0978 -0.5162
  710MOL0     C93627   1.096  11.074  11.982 -0.5272 -0.0979  0.0198
  710MOL0     C93628   1.018  11.007  12.093  1.2086 -0.1091  0.8583
  710MOL0     C93629   0.858  11.013  12.082 -0.6900  0.1725  0.5699
  710MOL0     C93630   0.819  10.933  11.955  0.0347  0.2467 -0.2282
  710MOL0     C93631   0.680  10.965  11.920 -0.3100  0.6662  0.3204
  710MOL0    Cl93632   0.552  10.933  12.047 -0.0783  0.5610  0.1687
  710MOL0     C93633   1.488  10.937  11.530 -0.6997  0.0264  0.6287
  710MOL0     C93634   1.526  10.929  11.395  0.3739 -0.5139 -0.3562
  710MOL0     O93635   1.710  10.983  11.154 -0.7904 -0.5569 -0.7063
  710MOL0     C93636   1.706  10.988  10.863  0.2712  1.0167  1.1133
  710MOL0     C93637   1.699  10.970  10.729  1.2982  0.4585 -0.4100
  710MOL0     N93638   1.640  10.309  10.505 -0.0336 -0.9716  0.0990
  710MOL0     N93639   1.676  10.246  10.402 -0.5189 -0.7405  0.2706
  710MOL0     C93640   2.429  10.341   9.433  0.1418 -0.7877 -0.0092
  710MOL0     C93641   2.522  10.399   9.336  0.0186 -0.1978 -1.3600
  710MOL0     C93642   2.911  10.655   9.204 -0.6818 -0.4103 -0.3844
  710MOL0     C93643   2.842  10.693   9.080  0.6238 -0.4374  0.0245
  710MOL0     C93644   2.916  10.778   8.999 -0.1632  0.6417  0.5444
  710MOL0     C93645   3.035  10.838   9.036 -0.0581  0.8132 -0.0884
  710MOL0     O93646   3.096  10.929   8.956  0.4613  0.7141 -0.3092
  710MOL0     C93647   3.039  10.971   8.827 -0.2219  0.6094 -0.3653
  710MOL0     C93648   3.150  11.060   8.773 -1.1873 -0.0566 -0.4037
  710MOL0     C93649   3.165  11.190   8.853  0.2788  0.4019  0.5536
  710MOL0     C93650   3.265  11.288   8.784 -0.9880  0.3543 -0.9901
  710MOL0     C93651   3.403  11.223   8.770  1.1673 -0.0118  0.2957
  710MOL0     C93652   3.519  11.178   8.780 -0.0045  0.1863  0.2709
  710MOL0     C93653   3.102  10.791   9.152 -0.0648  0.5051 -0.0491
  710MOL0     C93654   3.041  10.701   9.241  0.0510  0.6077  0.2070
  710MOL0     H93655   2.707  10.598   9.530  0.1886  0.1210  2.1575
  710MOL0     H93656   2.546  10.505   9.710  0.7327 -3.3267  1.3398
  710MOL0     H93657   2.231  10.182   9.589 -0.1383  1.2638 -3.2780
  710MOL0     H93658   2.177  10.343   9.546 -0.9843  2.0909  1.0563
  710MOL0     H93659   2.036  10.231   9.698 -0.9881  0.0361 -0.1282
  710MOL0     H93660   2.093  10.393   9.758  0.3727 -0.6618  0.5881
  710MOL0     H93661   2.246  10.309   9.909  3.1907 -1.1267 -0.9147
  710MOL0     H93662   2.220  10.144   9.838  0.5414  0.7196 -1.3005
  710MOL0     H93663   1.977  10.154   9.906 -0.4431  2.7536 -2.6830
  710MOL0     H93664   2.083  10.130  10.043  0.4122  0.6997 -0.4456
  710MOL0     H93665   1.969  10.409   9.954  2.3028  0.1913 -0.3450
  710MOL0     H93666   2.077  10.387  10.075 -0.7721  1.5102 -0.5077
  710MOL0     H93667   1.896  10.376  10.217  1.7844 -4.7719  3.3662
  710MOL0     H93668   1.922  10.211  10.186  0.5953  0.8705  2.0330
  710MOL0     H93669   1.739  10.413  10.070 -2.5065 -1.6823  0.8273
  710MOL0     H93670   1.747  10.254   9.980 -1.2197  1.9141 -1.9483
  710MOL0     H93671   1.660  10.144  10.170  1.0879  0.7354 -0.7857
  710MOL0     H93672   1.541  10.268  10.112  0.1544 -3.5068 -2.2817
  710MOL0     H93673   1.500  10.497  10.277 -1.6202 -0.5737  0.1348
  710MOL0     H93674   1.574  10.537  10.659 -0.5417 -0.0102  0.9138
  710MOL0     H93675   1.425  10.456  10.621 -0.1375  2.8908  2.7320
  710MOL0     H93676   1.378  10.675  10.599 -1.1280 -0.3753  0.2020
  710MOL0     H93677   1.365  10.595  10.451  3.4068 -5.0360 -1.2799
  710MOL0     H93678   1.624  10.718  10.534 -0.5404  2.1583  1.2148
  710MOL0     H93679   1.583  10.689  10.367 -0.0248 -1.1762  0.1445
  710MOL0     H93680   1.400  10.874  10.494 -2.0665 -4.5506 -1.0921
  710MOL0     H93681   1.503  10.911  10.356 -1.0162 -0.2733  0.3009
  710MOL0     H93682   1.366  10.913  10.704  0.8818  1.7213 -0.7793
  710MOL0     H93683   1.377  10.938  10.942  0.1825  0.2521  0.2846
  710MOL0     H93684   1.381  11.196  11.259 -0.9282 -2.6842 -1.9924
  710MOL0     H93685   1.312  11.235  11.501 -1.7183 -1.3950  0.1893
  710MOL0     H93686   1.202  11.160  11.748 -1.1704 -4.6772  5.4638
  710MOL0     H93687   1.364  11.250  11.736  0.7870  0.0082  2.8785
  710MOL0     H93688   1.323  11.246  11.964  1.4293  1.2033 -1.0201
  710MOL0     H93689   1.448  11.129  11.925  0.2620 -3.0557  0.0384
  710MOL0     H93690   1.262  11.032  12.090 -1.2704 -0.6613 -0.4200
  710MOL0     H93691   1.257  10.946  11.934 -4.4869  0.2577 -2.4102
  710MOL0     H93692   1.090  11.182  12.002 -1.5454 -0.4498  1.7985
  710MOL0     H93693   1.055  11.070  11.881 -0.1978  0.5675 -0.1511
  710MOL0     H93694   1.047  11.037  12.194 -1.6915  2.7772  1.0385
  710MOL0     H93695   1.038  10.900  12.094 -0.2392 -0.4346 -0.6928
  710MOL0     H93696   0.817  11.114  12.087 -1.7034 -0.2881  2.4049
  710MOL0     H93697   0.830  10.960  12.173 -0.6360 -0.0126  0.4794
  710MOL0     H93698   0.879  10.973  11.873  2.5182  1.2235  1.9323
  710MOL0     H93699   0.831  10.825  11.973 -2.2027  0.4768  3.9100
  710MOL0     H93700   0.658  10.920  11.822  2.2301  0.5635 -0.2664
  710MOL0     H93701   0.664  11.070  11.896 -1.0606  0.6440  0.7061
  710MOL0     H93702   1.519  10.860  11.600  0.3361 -1.0334 -0.9414
  710MOL0     H93703   1.591  10.850  11.357  1.4758  0.8070 -1.3388
  710MOL0     H93704   1.793  11.022  10.919 -1.0060  0.6268  3.4857
  710MOL0     H93705   1.787  10.967  10.666  1.4187  0.7573 -0.2533
  710MOL0     H93706   2.351  10.278   9.389  0.8496 -1.3378 -0.5052
  710MOL0     H93707   2.508  10.362   9.235 -2.1080 -3.1634 -0.1231
  710MOL0     H93708   2.739  10.672   9.053  0.4251  0.9345 -0.3566
  710MOL0     H93709   2.871  10.809   8.906  1.8845 -2.0748 -1.5190
  710MOL0     H93710   2.948  11.026   8.850 -1.4906 -0.5339 -2.3073
  710MOL0     H93711   3.004  10.886   8.767 -1.8109 -1.1893  2.8392
  710MOL0     H93712   3.244  11.005   8.782 -1.1894 -0.6636 -3.2734
  710MOL0     H93713   3.136  11.082   8.667  0.3730 -1.6685 -0.9959
  710MOL0     H93714   3.193  11.181   8.959  1.4890 -0.6529  0.1728
  710MOL0     H93715   3.071  11.245   8.850  0.9454  1.5368 -0.4780
  710MOL0     H93716   3.226  11.315   8.685 -2.0899 -1.3705 -1.0690
  710MOL0     H93717   3.271  11.379   8.844 -3.3427  0.8758 -1.4336
  710MOL0     H93718   3.620  11.144   8.769  0.7119  2.4372 -0.5799
  710MOL0     H93719   3.208  10.814   9.159 -0.1215  0.5007  0.9457
  710MOL0     H93720   3.097  10.670   9.328 -0.6725  1.0251  0.8344
  711MOL0     O93721   2.324   0.471   9.071 -0.7614  0.4238  0.6511
  711MOL0     C93722   2.385   0.413   9.161  0.3619 -1.2142  0.4543
  711MOL0     O93723   2.512   0.377   9.161  0.3828 -0.0025 -0.1079
  711MOL0     C93724   2.579   0.396   9.041 -0.3190 -0.5160  0.8882
  711MOL0     C93725   2.606   0.520   8.989 -0.6707 -0.3229  0.7686
  711MOL0     C93726   2.674   0.533   8.868  0.0802 -0.0248  0.7763
  711MOL0     C93727   2.690   0.420   8.786  1.2820  0.6937  0.0136
  711MOL0     O93728   2.723   0.441   8.656 -0.5038 -0.1655  0.1397
  711MOL0     C93729   2.770   0.341   8.570  0.3469 -0.2127  0.2260
  711MOL0     C93730   2.736   0.402   8.435 -0.3766 -0.1657  0.7045
  711MOL0     C93731   2.784   0.301   8.327 -0.0323 -0.0569 -0.3301
  711MOL0     C93732   2.926   0.270   8.321 -0.2127 -0.8388 -0.2171
  711MOL0     C93733   2.946   0.220   8.172 -0.8587  0.1217  0.2238
  711MOL0     C93734   3.000   0.336   8.078  0.0733  0.6316  0.2213
  711MOL0     C93735   3.069   0.278   7.950  1.0193 -0.8593 -0.0733
  711MOL0     C93736   3.046   0.367   7.831  0.2493 -0.0105 -0.2220
  711MOL0     N93737   2.910   0.360   7.772  0.4251  0.0361 -0.7964
  711MOL0     C93738   2.850   0.244   7.739  0.9257  0.6174 -0.7957
  711MOL0     C93739   2.723   0.281   7.710  0.1521  0.2067  0.1222
  711MOL0     C93740   2.611   0.195   7.678  0.2569 -1.0416 -0.2552
  711MOL0     C93741   2.640   0.142   7.540 -0.8434 -1.1469  0.0482
  711MOL0     C93742   2.518   0.108   7.465 -0.4053  0.9723 -0.2478
  711MOL0     C93743   2.530   0.069   7.316 -0.2195  0.2087 -0.0455
  711MOL0     O93744   2.653   0.026   7.267  0.2698 -0.0203  0.1344
  711MOL0     C93745   2.705  -0.097   7.302 -0.5559 -0.5543 -0.1736
  711MOL0     C93746   2.623  -0.215   7.314  0.1499  0.1561 -0.2909
  711MOL0     C93747   2.692  -0.342   7.324 -0.1646 -0.1003  0.7166
  711MOL0     C93748   2.835  -0.354   7.328  0.0874  0.2597  0.6978
  711MOL0     C93749   2.895  -0.486   7.353  0.5181 -1.0464 -0.3721
  711MOL0     O93750   2.815  -0.593   7.359  0.6287 -0.8147 -0.2081
  711MOL0     C93751   2.857  -0.716   7.347  0.4013  0.5160  0.5338
  711MOL0     C93752   2.764  -0.811   7.390  0.2099  0.7703 -0.4615
  711MOL0     C93753   2.799  -0.944   7.400  0.1875 -0.7577 -0.2685
  711MOL0     C93754   2.936  -0.991   7.385  0.1051 -0.3708  0.0197
  711MOL0     O93755   2.963  -1.125   7.402  0.0350  0.3318  0.4347
  711MOL0     C93756   2.858  -1.212   7.445 -0.2942 -0.2479 -0.7037
  711MOL0     C93757   2.822  -1.192   7.603 -0.2905 -0.1171 -0.4258
  711MOL0     C93758   2.943  -1.181   7.699  0.1664  0.2882 -0.5654
  711MOL0     C93759   2.901  -1.150   7.847  0.2137 -0.3079 -0.2878
  711MOL0     C93760   2.856  -1.261   7.947  0.2917 -0.0276  0.3798
  711MOL0     C93761   2.809  -1.199   8.079 -0.5475  0.2509 -0.0073
  711MOL0     C93762   2.753  -1.319   8.157  0.6250 -0.2221 -0.2872
  711MOL0     C93763   2.675  -1.279   8.281 -0.1267  0.0469  0.0953
  711MOL0    Cl93764   2.639  -1.423   8.379  0.1967  0.0279 -0.6598
  711MOL0     C93765   3.033  -0.894   7.335  0.4247  0.2565 -0.7821
  711MOL0     C93766   2.987  -0.765   7.314 -0.3018 -0.8162 -0.5179
  711MOL0     O93767   3.016  -0.485   7.368 -0.5636  0.0166  0.2201
  711MOL0     C93768   2.911  -0.239   7.299  0.4666  0.5687 -0.3739
  711MOL0     C93769   2.842  -0.119   7.287 -0.3733  0.1214 -0.4396
  711MOL0     N93770   2.712   0.422   7.732  0.5675  0.3955  0.0279
  711MOL0     N93771   2.825   0.468   7.759 -0.6338 -0.1786  0.5665
  711MOL0     C93772   2.675   0.295   8.842  0.0175  0.1195 -0.6456
  711MOL0     C93773   2.621   0.282   8.970 -0.1422  0.2307 -0.5907
  711MOL0     C93774   2.304   0.392   9.284 -0.4399 -0.1095  0.1549
  711MOL0     C93775   2.184   0.456   9.309  0.5958  0.0569  0.0474
  711MOL0     C93776   2.117   0.436   9.435 -0.3242  0.3907  0.3809
  711MOL0     C93777   2.176   0.360   9.531  0.1969  0.2023 -0.4777
  711MOL0     O93778   2.106   0.341   9.651  0.2464 -0.3094  0.5830
  711MOL0     C93779   2.134   0.223   9.725 -0.5099 -0.4238  0.0862
  711MOL0     C93780   2.010   0.173   9.800 -0.6714 -0.1034  0.2051
  711MOL0     C93781   1.889   0.129   9.717  1.0686 -0.3393 -0.3837
  711MOL0     C93782   1.894  -0.003   9.634 -0.9588  0.0782  0.2209
  711MOL0     C93783   1.812  -0.000   9.517  0.1479 -0.9842  1.1239
  711MOL0     C93784   1.736  -0.020   9.423  0.6210 -0.5468 -0.3927
  711MOL0     C93785   2.294   0.286   9.500  0.9050  0.1400  0.2653
  711MOL0     C93786   2.359   0.307   9.384  0.3124 -0.3122 -0.8701
  711MOL0     H93787   2.572   0.610   9.041  1.8374  2.0129 -1.3188
  711MOL0     H93788   2.698   0.635   8.838  0.6184 -0.9677 -2.4819
  711MOL0     H93789   2.717   0.247   8.584 -0.4760  0.0906 -0.7322
  711MOL0     H93790   2.878   0.332   8.582  0.1941 -1.2366  1.0498
  711MOL0     H93791   2.782   0.501   8.421  1.4322 -1.3056 -2.3063
  711MOL0     H93792   2.630   0.410   8.407  0.0046 -1.2537 -1.1396
  711MOL0     H93793   2.753   0.342   8.231  0.0741 -0.7328 -0.6518
  711MOL0     H93794   2.720   0.214   8.343  1.1433 -0.7006  1.1585
  711MOL0     H93795   2.992   0.356   8.330  0.1069 -0.9274 -1.5438
  711MOL0     H93796   2.949   0.202   8.404 -1.9248 -0.1934  0.8501
  711MOL0     H93797   2.854   0.180   8.129 -0.4336 -0.5869 -0.0507
  711MOL0     H93798   3.025   0.145   8.167  0.2458  1.1754  1.1120
  711MOL0     H93799   3.069   0.410   8.120  1.2637  1.3504 -2.7939
  711MOL0     H93800   2.919   0.399   8.039 -1.7752 -2.9196 -2.1140
  711MOL0     H93801   3.177   0.273   7.960  1.1396  3.4579  3.3328
  711MOL0     H93802   3.027   0.179   7.929 -1.1909 -0.0065  0.0572
  711MOL0     H93803   3.120   0.332   7.759  2.7020  1.0870  1.6401
  711MOL0     H93804   3.074   0.467   7.864  2.1219 -0.9087  1.0211
  711MOL0     H93805   2.890   0.144   7.728  0.8166  0.7688 -3.2459
  711MOL0     H93806   2.520   0.255   7.691  0.9899 -0.0897  0.6360
  711MOL0     H93807   2.603   0.107   7.743  1.0816  1.5190  3.6926
  711MOL0     H93808   2.702   0.052   7.543  1.0876  0.1039 -0.7619
  711MOL0     H93809   2.697   0.220   7.489 -0.2470  1.6682  4.5053
  711MOL0     H93810   2.466   0.025   7.513  1.5282  1.5226  3.1100
  711MOL0     H93811   2.450   0.194   7.465 -2.2453 -0.3954  0.7617
  711MOL0     H93812   2.510   0.156   7.254 -1.0191  0.0467 -0.0267
  711MOL0     H93813   2.446   0.001   7.295 -0.4323  0.7687 -1.0618
  711MOL0     H93814   2.515  -0.211   7.320  0.2858  2.7242  2.1929
  711MOL0     H93815   2.621  -0.422   7.342 -0.0442 -0.5315 -0.6331
  711MOL0     H93816   2.665  -0.769   7.406  0.2379 -0.3609  3.8473
  711MOL0     H93817   2.715  -1.010   7.419  0.2834 -1.7553 -2.8231
  711MOL0     H93818   2.897  -1.313   7.426 -0.1547 -0.6073  1.2402
  711MOL0     H93819   2.778  -1.200   7.373 -0.1671 -1.3756 -1.0462
  711MOL0     H93820   2.774  -1.285   7.636  0.9235 -0.4183  0.5795
  711MOL0     H93821   2.766  -1.099   7.614  1.7740  1.0620  0.6727
  711MOL0     H93822   2.997  -1.091   7.666  1.1420  0.5302  1.5759
  711MOL0     H93823   3.008  -1.269   7.701  1.7918  1.4383 -0.1091
  711MOL0     H93824   2.979  -1.096   7.903 -0.9390 -0.4342  1.5172
  711MOL0     H93825   2.820  -1.076   7.845  1.9083  1.6807 -0.0103
  711MOL0     H93826   2.933  -1.338   7.948  2.5537  1.9315 -2.6089
  711MOL0     H93827   2.779  -1.325   7.904  2.2939 -2.4541  0.2097
  711MOL0     H93828   2.737  -1.118   8.072  1.8075  2.3851 -1.4113
  711MOL0     H93829   2.903  -1.158   8.118  0.2099 -1.0528 -0.4100
  711MOL0     H93830   2.682  -1.385   8.106  1.2903 -1.4093  0.3020
  711MOL0     H93831   2.840  -1.384   8.166  2.3582  1.6601 -2.1935
  711MOL0     H93832   2.578  -1.240   8.248 -0.0800  0.5277  0.5085
  711MOL0     H93833   2.728  -1.197   8.330  0.3501 -1.3049  1.9379
  711MOL0     H93834   3.140  -0.910   7.341  0.6561  1.5144 -1.1565
  711MOL0     H93835   3.062  -0.697   7.274  1.3933 -1.2518  1.7024
  711MOL0     H93836   3.017  -0.252   7.278  0.3276  1.2884 -1.6025
  711MOL0     H93837   2.896  -0.028   7.263  1.2961 -1.1687 -1.7407
  711MOL0     H93838   2.703   0.203   8.793 -3.8677 -2.2855  1.2120
  711MOL0     H93839   2.603   0.187   9.019 -1.6919  1.0658  0.5427
  711MOL0     H93840   2.142   0.522   9.234 -1.0156  0.2570  1.0699
  711MOL0     H93841   2.024   0.487   9.457 -0.7766 -0.4510  0.4591
  711MOL0     H93842   2.217   0.251   9.790  0.2831  0.4901 -1.2635
  711MOL0     H93843   2.165   0.139   9.661 -3.8609 -0.6104 -1.4782
  711MOL0     H93844   2.046   0.092   9.864 -3.2772 -1.1824  0.4634
  711MOL0     H93845   1.984   0.258   9.863 -0.6507  0.1815 -0.1661
  711MOL0     H93846   1.866   0.216   9.656 -0.7283 -0.3768  0.1951
  711MOL0     H93847   1.809   0.109   9.789 -0.7955  2.8480 -1.3899
  711MOL0     H93848   1.999  -0.022   9.609 -1.3426 -0.6485 -0.9337
  711MOL0     H93849   1.846  -0.072   9.703  1.1592 -0.0384  1.6838
  711MOL0     H93850   1.675  -0.038   9.337 -0.5628 -0.2610  0.3526
  711MOL0     H93851   2.337   0.222   9.576  0.3850  0.6978  1.0393
  711MOL0     H93852   2.440   0.241   9.355 -2.6879 -4.9332  0.1962
  712MOL0     O93853   2.337   9.569   5.848  0.5915 -0.1321  0.2872
  712MOL0     C93854   2.329   9.678   5.797  0.5352  0.5458 -0.4673
  712MOL0     O93855   2.250   9.775   5.841 -0.0504 -0.6264 -0.6693
  712MOL0     C93856   2.121   9.749   5.881  0.0678 -0.0533  0.3689
  712MOL0     C93857   2.035   9.639   5.842  0.5179  0.5341  0.0602
  712MOL0     C93858   1.907   9.615   5.895  0.2062  0.8690 -0.2190
  712MOL0     C93859   1.861   9.718   5.981  0.2090  0.5040 -0.4528
  712MOL0     O93860   1.739   9.703   6.044 -0.7238  0.6582 -0.4565
  712MOL0     C93861   1.636   9.608   6.003 -0.5947 -0.0209  0.4957
  712MOL0     C93862   1.494   9.643   6.058  0.9393  0.7298  0.1283
  712MOL0     C93863   1.462   9.794   6.019 -0.2511  0.2699  0.5226
  712MOL0     C93864   1.420   9.811   5.862  0.6632 -0.0201  0.2290
  712MOL0     C93865   1.348   9.946   5.851 -0.2724  0.8552  0.5681
  712MOL0     C93866   1.325   9.992   5.700  0.4243 -0.2206  0.2077
  712MOL0     C93867   1.230  10.113   5.708 -0.5265 -0.4019  1.3314
  712MOL0     C93868   1.148  10.130   5.578  0.0170 -0.1927 -0.8974
  712MOL0     N93869   1.245  10.139   5.467  0.5606  0.3991 -0.2934
  712MOL0     C93870   1.325  10.247   5.435 -0.7099  0.6474 -0.2726
  712MOL0     C93871   1.372  10.213   5.314 -0.3308  0.1539 -0.4224
  712MOL0     C93872   1.421  10.307   5.203 -0.5361  0.9170  0.4669
  712MOL0     C93873   1.324  10.401   5.137  0.0881 -0.0313  0.3718
  712MOL0     C93874   1.209  10.327   5.073 -1.3236 -0.5793 -1.1609
  712MOL0     C93875   1.167  10.375   4.935  1.1198 -0.0045  0.0527
  712MOL0     O93876   1.088  10.270   4.874  0.7197  0.5245  0.0775
  712MOL0     C93877   1.042  10.280   4.744  0.9574 -0.7258  0.3535
  712MOL0     C93878   0.962  10.173   4.703 -0.4129 -0.4053  0.2726
  712MOL0     C93879   0.901  10.188   4.581  1.2579 -1.7719  0.0952
  712MOL0     C93880   0.917  10.301   4.493 -0.0793  0.1698  0.7428
  712MOL0     C93881   0.862  10.296   4.354  0.5177  0.8026  0.8031
  712MOL0     O93882   0.919  10.366   4.257  0.0426  0.1777  0.0027
  712MOL0     C93883   0.864  10.354   4.129 -0.4097 -0.2041  0.2873
  712MOL0     C93884   0.939  10.293   4.022  0.1612 -0.8360 -0.5081
  712MOL0     C93885   0.895  10.293   3.897 -0.2857  0.5213  0.2415
  712MOL0     C93886   0.774  10.356   3.861  0.1734  0.3842 -0.7038
  712MOL0     O93887   0.742  10.366   3.730 -0.5986  0.6163  0.0779
  712MOL0     C93888   0.630  10.297   3.688 -0.5712 -0.4394  0.7525
  712MOL0     C93889   0.654  10.141   3.684  0.7875 -0.2532 -0.5078
  712MOL0     C93890   0.775  10.104   3.602  0.3789  0.3757  0.2406
  712MOL0     C93891   0.745  10.126   3.447 -0.1248 -0.6302 -0.6618
  712MOL0     C93892   0.849  10.057   3.351 -0.3309  1.0023 -0.3216
  712MOL0     C93893   0.829   9.899   3.358  0.1259 -0.7510 -0.5307
  712MOL0     C93894   0.925   9.828   3.267 -0.6670  0.1417 -0.4907
  712MOL0     C93895   1.075   9.868   3.286  0.6838  1.1781 -0.3067
  712MOL0    Cl93896   1.123  10.007   3.177  0.4208 -0.0122  0.0958
  712MOL0     C93897   0.706  10.428   3.964 -0.3321  0.1337 -0.5379
  712MOL0     C93898   0.748  10.424   4.093  0.2756  0.6997  0.0100
  712MOL0     O93899   0.772  10.211   4.338 -0.1081 -0.2507  0.8655
  712MOL0     C93900   0.995  10.408   4.532 -0.3562 -0.4261 -0.3340
  712MOL0     C93901   1.059  10.396   4.657  0.9286 -0.7176  0.1285
  712MOL0     N93902   1.338  10.077   5.291  0.3138 -0.3457  0.1863
  712MOL0     N93903   1.256  10.035   5.378 -0.3177 -0.3693 -0.4005
  712MOL0     C93904   1.938   9.836   6.014 -0.5384 -0.0622  0.6863
  712MOL0     C93905   2.067   9.850   5.959 -0.8022  0.0620 -0.9330
  712MOL0     C93906   2.412   9.697   5.683  0.4340  0.9607  1.1539
  712MOL0     C93907   2.498   9.598   5.635  0.0516 -0.2729 -0.4190
  712MOL0     C93908   2.573   9.621   5.514 -0.3722 -0.0142 -0.2230
  712MOL0     C93909   2.560   9.739   5.444  0.1666 -0.7039 -0.1654
  712MOL0     O93910   2.605   9.771   5.318 -1.1313  0.1732 -0.4798
  712MOL0     C93911   2.743   9.723   5.280  0.2347  0.4494 -0.9660
  712MOL0     C93912   2.795   9.807   5.166  0.4818  0.0387  0.3847
  712MOL0     C93913   2.932   9.755   5.121 -0.7249  0.9563  0.4707
  712MOL0     C93914   3.053   9.853   5.128  0.3044 -1.0097  0.2996
  712MOL0     C93915   3.106   9.870   5.263  1.1073  0.6154 -0.1947
  712MOL0     C93916   3.143   9.885   5.379  0.4745  0.6542 -0.7488
  712MOL0     C93917   2.478   9.842   5.500  0.0520  0.1359 -0.8790
  712MOL0     C93918   2.409   9.819   5.617  0.7282  0.9419  0.1047
  712MOL0     H93919   2.066   9.564   5.769  3.7833  1.4368  0.3598
  712MOL0     H93920   1.850   9.525   5.871 -0.7813  1.5544 -0.4965
  712MOL0     H93921   1.668   9.509   6.039  2.7113  0.8649  0.3110
  712MOL0     H93922   1.621   9.602   5.895 -0.9557 -0.1539  0.5505
  712MOL0     H93923   1.485   9.625   6.166 -0.0701 -0.4282 -0.1379
  712MOL0     H93924   1.415   9.579   6.019  2.7362 -0.9119 -1.0072
  712MOL0     H93925   1.549   9.859   6.024  0.2756 -0.4854  1.4046
  712MOL0     H93926   1.385   9.832   6.087 -1.1916  0.6369 -0.7080
  712MOL0     H93927   1.506   9.807   5.796 -0.3641  0.6201 -1.1933
  712MOL0     H93928   1.342   9.738   5.835 -1.1411  2.0819 -0.5330
  712MOL0     H93929   1.410  10.020   5.903  0.4831 -0.8073  2.1773
  712MOL0     H93930   1.251   9.940   5.901 -1.8136  1.0893 -2.2371
  712MOL0     H93931   1.294   9.906   5.641  1.2965 -0.3457 -0.0947
  712MOL0     H93932   1.418  10.014   5.646 -0.8059 -1.8821 -2.7576
  712MOL0     H93933   1.161  10.107   5.793  2.2678 -0.2739  3.7886
  712MOL0     H93934   1.299  10.194   5.735  2.3726 -3.4435  4.1253
  712MOL0     H93935   1.080  10.216   5.586  1.8532  1.2271  0.3823
  712MOL0     H93936   1.089  10.039   5.568  1.3223 -1.1250 -0.2926
  712MOL0     H93937   1.339  10.347   5.475 -1.9073  1.9294 -2.8157
  712MOL0     H93938   1.470  10.253   5.122  2.2914  0.9323  2.0607
  712MOL0     H93939   1.503  10.357   5.255  0.0753 -2.7890  3.5818
  712MOL0     H93940   1.381  10.469   5.074 -0.5064  0.4254  0.3192
  712MOL0     H93941   1.285  10.475   5.207 -0.2534 -0.2430  0.4090
  712MOL0     H93942   1.235  10.221   5.074 -0.1212 -0.3534  1.8358
  712MOL0     H93943   1.130  10.327   5.148 -1.6546 -0.6715 -1.5035
  712MOL0     H93944   1.259  10.379   4.875  3.0094  0.4456  2.8265
  712MOL0     H93945   1.113  10.470   4.937  1.4932  0.2088  0.0234
  712MOL0     H93946   0.944  10.088   4.768 -0.4792 -1.2803 -0.8445
  712MOL0     H93947   0.849  10.098   4.548  1.0734 -1.9283  0.8047
  712MOL0     H93948   1.036  10.249   4.045  0.5353 -0.1647 -0.7613
  712MOL0     H93949   0.950  10.248   3.815  1.8272  0.0105  1.8570
  712MOL0     H93950   0.605  10.336   3.589 -0.2483 -0.4587  0.6620
  712MOL0     H93951   0.551  10.323   3.760  0.1204  0.2783  1.2669
  712MOL0     H93952   0.558  10.105   3.645  1.1289 -0.9427 -0.7226
  712MOL0     H93953   0.675  10.131   3.791  2.9900  0.8217 -0.7888
  712MOL0     H93954   0.808  10.000   3.617 -0.2771 -0.3428 -2.6812
  712MOL0     H93955   0.857  10.160   3.647 -1.2437  1.6970  1.6592
  712MOL0     H93956   0.644  10.089   3.429 -0.0366 -1.7816  0.9711
  712MOL0     H93957   0.742  10.234   3.426  0.3110 -0.9475 -2.5841
  712MOL0     H93958   0.948  10.080   3.392 -1.9961  0.0741  4.9412
  712MOL0     H93959   0.836  10.095   3.249  2.0988  0.2994 -0.9608
  712MOL0     H93960   0.729   9.875   3.318 -0.6969  0.0838  0.9388
  712MOL0     H93961   0.837   9.861   3.460 -1.4200 -1.1230 -0.5214
  712MOL0     H93962   0.924   9.721   3.291 -0.6038  0.3291  0.3715
  712MOL0     H93963   0.894   9.849   3.164 -1.2324  0.8726 -0.1824
  712MOL0     H93964   1.137   9.784   3.253  0.6638  1.5569 -1.3496
  712MOL0     H93965   1.093   9.886   3.392  2.4672 -2.7212  0.2015
  712MOL0     H93966   0.617  10.489   3.958 -0.7343 -0.4357 -0.4477
  712MOL0     H93967   0.693  10.482   4.166 -0.6920 -0.4781  0.2329
  712MOL0     H93968   0.995  10.488   4.458 -1.7970 -0.3363 -0.2721
  712MOL0     H93969   1.111  10.484   4.695  0.1374 -0.9919  1.9986
  712MOL0     H93970   1.902   9.910   6.083  0.5258 -0.7410  2.0165
  712MOL0     H93971   2.123   9.942   5.972  0.9612 -0.7832 -2.0434
  712MOL0     H93972   2.520   9.502   5.682  2.0671  0.2904 -0.1267
  712MOL0     H93973   2.648   9.545   5.494  0.2774  0.6995 -0.5466
  712MOL0     H93974   2.747   9.616   5.262  4.2321  0.3231 -0.2573
  712MOL0     H93975   2.792   9.743   5.376 -0.8401 -1.6804  0.0919
  712MOL0     H93976   2.719   9.788   5.089  0.1075 -0.0615  0.7753
  712MOL0     H93977   2.798   9.914   5.191 -0.9409 -0.3730  2.5570
  712MOL0     H93978   2.923   9.721   5.017  1.0125  0.0026  0.5962
  712MOL0     H93979   2.961   9.666   5.177  2.1891 -0.0411 -2.2844
  712MOL0     H93980   3.142   9.819   5.074 -0.3055  1.3480 -2.4062
  712MOL0     H93981   3.030   9.955   5.094  0.8954 -2.1398 -4.0431
  712MOL0     H93982   3.171   9.898   5.482  0.3396 -0.9924 -0.4830
  712MOL0     H93983   2.470   9.936   5.447 -0.0260  0.5467 -0.1457
  712MOL0     H93984   2.349   9.904   5.649  0.2216  0.1042  1.4800
  713MOL0     O93985   2.794   3.427   6.314 -0.1300  0.5330  0.3544
  713MOL0     C93986   2.888   3.493   6.357 -1.5449 -0.7230 -0.8416
  713MOL0     O93987   3.000   3.514   6.279  0.3354  0.0046 -0.1353
  713MOL0     C93988   2.999   3.464   6.155 -0.8584 -0.1376  0.6452
  713MOL0     C93989   2.967   3.561   6.047  0.4959  0.3370  0.6697
  713MOL0     C93990   2.974   3.528   5.910  0.2048 -0.1830  0.1387
  713MOL0     C93991   2.980   3.392   5.874 -0.2322  0.3427  0.0290
  713MOL0     O93992   2.993   3.361   5.743 -0.1525 -0.0861 -1.0238
  713MOL0     C93993   2.969   3.447   5.630  0.1458  0.2149 -0.2724
  713MOL0     C93994   3.012   3.365   5.503 -0.2919 -0.1361 -1.1390
  713MOL0     C93995   2.978   3.435   5.373  0.1690 -1.2386  0.4023
  713MOL0     C93996   3.087   3.537   5.341 -0.8232 -0.3059 -0.5213
  713MOL0     C93997   3.056   3.605   5.204 -0.5385  0.1722 -0.5273
  713MOL0     C93998   3.165   3.713   5.160 -0.4627  0.3707 -0.3900
  713MOL0     C93999   3.142   3.771   5.018  0.3711  0.4491 -0.1335
  713MOL0     C94000   3.261   3.850   4.952  0.6200  0.5838  0.5549
  713MOL0     N94001   3.307   3.965   5.031  0.6223 -0.6631  0.3643
  713MOL0     C94002   3.422   3.977   5.103 -0.0333  0.5499  0.2069
  713MOL0     C94003   3.411   4.095   5.161 -0.0604 -0.1898 -0.3623
  713MOL0     C94004   3.511   4.176   5.239 -0.1065  0.1459 -0.4688
  713MOL0     C94005   3.587   4.266   5.135 -1.4620  0.0024  0.3910
  713MOL0     C94006   3.719   4.319   5.197 -0.0198 -0.4584  0.6469
  713MOL0     C94007   3.818   4.202   5.190 -0.3771  0.0622  0.5647
  713MOL0     O94008   3.937   4.258   5.261 -0.1022  0.1805 -0.1230
  713MOL0     C94009   4.058   4.199   5.252 -0.0319  0.6332 -0.2371
  713MOL0     C94010   4.156   4.283   5.308 -0.4487 -0.0334 -0.2569
  713MOL0     C94011   4.296   4.251   5.308 -0.9924  0.1911 -0.7047
  713MOL0     C94012   4.337   4.136   5.251  0.8545 -0.1089 -0.0300
  713MOL0     C94013   4.484   4.101   5.261 -0.0316  0.2010 -0.1831
  713MOL0     O94014   4.575   4.196   5.284 -0.4765  0.3220 -0.4752
  713MOL0     C94015   4.702   4.142   5.287 -0.4005  0.2736  0.1619
  713MOL0     C94016   4.779   4.120   5.399 -0.9493  0.1258  0.1582
  713MOL0     C94017   4.916   4.066   5.385  0.1597 -0.9995  0.8604
  713MOL0     C94018   4.968   4.033   5.263  0.1420 -0.8697 -0.0150
  713MOL0     O94019   5.097   4.004   5.251  0.2158  0.5161  0.2903
  713MOL0     C94020   5.160   4.015   5.124 -0.0179  0.4693 -1.0168
  713MOL0     C94021   5.314   4.039   5.134  0.2313 -0.4859 -0.4214
  713MOL0     C94022   5.409   3.916   5.151 -1.2072  0.0940  0.3693
  713MOL0     C94023   5.556   3.947   5.104  0.5758  0.2650 -0.5195
  713MOL0     C94024   5.665   3.878   5.183  0.0884 -0.0586  0.3500
  713MOL0     C94025   5.804   3.948   5.183  0.4792  0.4873  0.1942
  713MOL0     C94026   5.865   4.022   5.064  0.3796  0.5520 -0.3202
  713MOL0     C94027   5.874   3.923   4.941  0.7172  0.2469 -0.3577
  713MOL0    Cl94028   6.012   3.810   4.968  0.6277  0.7016  0.1510
  713MOL0     C94029   4.886   4.061   5.147 -0.2497  0.1460 -0.2336
  713MOL0     C94030   4.762   4.111   5.163  1.5772  0.5442  0.6053
  713MOL0     O94031   4.499   3.982   5.240  0.4622  0.2210 -0.3751
  713MOL0     C94032   4.239   4.052   5.197 -0.0078  0.0929 -0.0036
  713MOL0     C94033   4.101   4.076   5.205 -0.0445  0.3813  0.0021
  713MOL0     N94034   3.304   4.157   5.110  0.3214  0.1581  0.2301
  713MOL0     N94035   3.245   4.084   5.030  1.3305  0.4467  0.1560
  713MOL0     C94036   2.984   3.298   5.979 -0.0398  0.3055  0.3094
  713MOL0     C94037   3.007   3.325   6.117 -0.7709  0.1084 -0.6487
  713MOL0     C94038   2.912   3.526   6.508 -0.0751 -0.3278  0.4938
  713MOL0     C94039   2.820   3.481   6.603  0.6312  0.1830 -0.2514
  713MOL0     C94040   2.846   3.493   6.735  0.1589 -0.0882 -0.5140
  713MOL0     C94041   2.956   3.569   6.778  0.1213  0.6280  0.5725
  713MOL0     O94042   2.966   3.579   6.912 -0.1722  0.4405  0.3015
  713MOL0     C94043   3.047   3.687   6.972 -0.2503 -0.2593 -0.2354
  713MOL0     C94044   2.983   3.824   6.946 -0.2088  0.7955 -0.2036
  713MOL0     C94045   3.072   3.933   7.023  0.2109  1.3347  0.4834
  713MOL0     C94046   3.043   4.081   6.970  0.1712  0.9277 -0.1468
  713MOL0     C94047   3.045   4.098   6.827 -0.7895 -0.6959 -0.6525
  713MOL0     C94048   3.038   4.116   6.710  0.0018 -0.2673  0.1207
  713MOL0     C94049   3.056   3.603   6.685  0.0336 -0.3814 -0.5202
  713MOL0     C94050   3.033   3.583   6.550  0.5054 -0.1343  0.7340
  713MOL0     H94051   2.957   3.667   6.067  4.5534  0.9799  0.1424
  713MOL0     H94052   2.973   3.609   5.838 -2.7444 -0.2948 -0.0764
  713MOL0     H94053   3.025   3.540   5.627  0.0493  0.2582 -2.2213
  713MOL0     H94054   2.865   3.480   5.618 -0.1862 -1.7140 -4.9745
  713MOL0     H94055   2.960   3.270   5.518 -0.2638  0.0985  0.5959
  713MOL0     H94056   3.119   3.340   5.502  0.0173  0.9888  0.7493
  713MOL0     H94057   2.878   3.476   5.359  0.2345 -1.6123 -1.4839
  713MOL0     H94058   2.986   3.355   5.299 -3.3825  0.3247 -1.9474
  713MOL0     H94059   3.086   3.614   5.419 -4.0384 -0.1798 -0.5606
  713MOL0     H94060   3.188   3.495   5.332 -1.3115 -2.2435  2.0076
  713MOL0     H94061   2.961   3.659   5.208 -0.4777  0.2616 -0.2518
  713MOL0     H94062   3.042   3.526   5.129 -1.3117 -1.8397  1.5983
  713MOL0     H94063   3.259   3.658   5.158 -2.0424 -2.4902 -2.4389
  713MOL0     H94064   3.173   3.799   5.227  0.8935  0.2970 -0.4360
  713MOL0     H94065   3.124   3.686   4.951  2.6921  0.5003 -0.9110
  713MOL0     H94066   3.053   3.834   5.021 -0.7878 -1.1381  0.3807
  713MOL0     H94067   3.230   3.892   4.856  2.2620 -0.4477 -0.4763
  713MOL0     H94068   3.344   3.780   4.935 -1.6885 -1.7988 -2.0144
  713MOL0     H94069   3.500   3.902   5.113 -0.2748  0.4537  1.7588
  713MOL0     H94070   3.571   4.108   5.299  1.2343  0.6431 -1.1860
  713MOL0     H94071   3.469   4.244   5.314  1.1985  2.4849 -1.7508
  713MOL0     H94072   3.521   4.349   5.111  1.0827  2.1080  0.2094
  713MOL0     H94073   3.606   4.218   5.038 -0.2149  1.8522 -0.3222
  713MOL0     H94074   3.763   4.397   5.134  2.7176 -2.2268  0.1324
  713MOL0     H94075   3.712   4.373   5.291  0.5940  1.1899 -0.2082
  713MOL0     H94076   3.842   4.187   5.084  0.1176 -0.6328  0.7710
  713MOL0     H94077   3.786   4.104   5.226 -1.1484 -0.2419 -0.8746
  713MOL0     H94078   4.127   4.373   5.360 -1.6409 -0.9940  0.7813
  713MOL0     H94079   4.369   4.324   5.342  1.2405 -1.2740 -2.0962
  713MOL0     H94080   4.739   4.146   5.496  1.5740 -0.5124  1.4502
  713MOL0     H94081   4.983   4.049   5.470  0.3455 -1.5964  0.5993
  713MOL0     H94082   5.114   4.086   5.056  1.2860  0.4722 -1.9352
  713MOL0     H94083   5.148   3.919   5.071  1.7863 -2.0671  2.6951
  713MOL0     H94084   5.333   4.110   5.215 -1.0862  0.6811 -1.0921
  713MOL0     H94085   5.331   4.084   5.035 -0.7220  1.2523  0.1713
  713MOL0     H94086   5.364   3.834   5.095  1.5145 -1.8865  0.8837
  713MOL0     H94087   5.399   3.896   5.258 -4.6907  1.9442  0.5356
  713MOL0     H94088   5.567   3.920   4.998  1.0693 -0.7673 -0.2226
  713MOL0     H94089   5.572   4.055   5.108 -0.7760  0.5297 -1.5693
  713MOL0     H94090   5.674   3.780   5.135  1.5275  1.0254 -1.7392
  713MOL0     H94091   5.628   3.875   5.286 -1.6665  0.9961 -0.2072
  713MOL0     H94092   5.874   3.874   5.224  0.5986 -0.7883 -2.0981
  713MOL0     H94093   5.801   4.035   5.248 -0.7157  1.9170 -1.6707
  713MOL0     H94094   5.810   4.114   5.042 -0.6289  0.3077  1.0343
  713MOL0     H94095   5.963   4.057   5.097  0.9552 -0.6440 -0.7013
  713MOL0     H94096   5.880   3.966   4.841  1.0857 -2.4999 -1.6201
  713MOL0     H94097   5.778   3.869   4.944  1.3084 -0.7935  0.9004
  713MOL0     H94098   4.919   4.025   5.050 -2.7254  2.0251 -1.8694
  713MOL0     H94099   4.715   4.135   5.068  1.8297  2.1528  0.8572
  713MOL0     H94100   4.270   3.967   5.138 -2.2800  1.8453 -4.1398
  713MOL0     H94101   4.027   4.010   5.161 -0.8488 -1.8990  4.2108
  713MOL0     H94102   2.980   3.194   5.946  0.5649  0.2209  0.4893
  713MOL0     H94103   3.026   3.259   6.201  2.9507 -0.1709 -1.5300
  713MOL0     H94104   2.735   3.424   6.567  2.4827 -4.0631  1.4389
  713MOL0     H94105   2.782   3.442   6.806 -0.1811  0.0668 -0.7085
  713MOL0     H94106   3.149   3.691   6.933 -0.5904  3.9394 -1.1661
  713MOL0     H94107   3.056   3.672   7.080  0.1822 -0.0131 -0.2331
  713MOL0     H94108   2.978   3.829   6.837  1.2487  0.1036 -0.3264
  713MOL0     H94109   2.883   3.818   6.990 -0.3982  0.5721 -0.6583
  713MOL0     H94110   3.178   3.921   7.001  0.6559  0.5986  2.7496
  713MOL0     H94111   3.056   3.914   7.130 -1.0069 -0.2353  0.0462
  713MOL0     H94112   2.941   4.104   7.002  1.0350  2.3516  1.7948
  713MOL0     H94113   3.121   4.140   7.018  0.9950  0.3744 -0.7753
  713MOL0     H94114   3.023   4.147   6.609  0.8291  3.1030  0.8950
  713MOL0     H94115   3.147   3.651   6.719 -0.3639 -0.2094  0.3226
  713MOL0     H94116   3.106   3.624   6.482  0.1463  0.2197  0.5603
  714MOL0     O94117   7.887   4.094   0.766 -0.4424  0.3747  0.5968
  714MOL0     C94118   7.931   3.998   0.702 -1.3375 -0.5345 -0.9477
  714MOL0     O94119   7.937   3.865   0.747  0.6707 -0.2539 -0.0683
  714MOL0     C94120   7.863   3.825   0.854 -1.0497 -0.3958 -0.5712
  714MOL0     C94121   7.743   3.882   0.889  0.4606 -0.0229 -0.3603
  714MOL0     C94122   7.677   3.852   1.006 -0.3182  0.6409  0.1452
  714MOL0     C94123   7.726   3.752   1.088 -0.4315  0.3736 -0.0223
  714MOL0     O94124   7.664   3.731   1.215  0.0000  0.0390 -0.3306
  714MOL0     C94125   7.734   3.648   1.305 -0.8312  0.4565  0.8343
  714MOL0     C94126   7.675   3.640   1.444  0.0839  0.2904 -0.8348
  714MOL0     C94127   7.541   3.574   1.445  0.5687  0.2349 -1.1378
  714MOL0     C94128   7.516   3.530   1.593 -0.8429  0.1166  0.1377
  714MOL0     C94129   7.376   3.495   1.610  0.1949  0.1743 -0.4705
  714MOL0     C94130   7.361   3.428   1.750  0.2503 -0.0065 -0.7485
  714MOL0     C94131   7.214   3.370   1.787 -0.0286 -0.8119 -0.0565
  714MOL0     C94132   7.165   3.241   1.721 -0.7910  0.2088  0.5868
  714MOL0     N94133   7.258   3.131   1.747 -1.0067  0.3108  0.3426
  714MOL0     C94134   7.368   3.109   1.671 -0.0344 -0.5865 -0.2411
  714MOL0     C94135   7.416   2.984   1.712 -0.1275 -1.1703 -0.0724
  714MOL0     C94136   7.550   2.923   1.672 -0.3279 -0.3678  0.2037
  714MOL0     C94137   7.631   2.889   1.805 -0.1591 -0.1784 -0.5918
  714MOL0     C94138   7.672   3.033   1.860  0.3716  0.3685 -0.9913
  714MOL0     C94139   7.738   3.131   1.760 -0.1656  0.0863 -0.3785
  714MOL0     O94140   7.853   3.064   1.698 -0.5607 -0.1914 -0.8149
  714MOL0     C94141   7.896   3.111   1.578  0.4100  0.6621  0.2555
  714MOL0     C94142   7.840   3.226   1.515 -0.2605 -0.5880 -0.2714
  714MOL0     C94143   7.893   3.263   1.385 -0.0464 -0.1932 -0.9617
  714MOL0     C94144   7.992   3.185   1.317 -0.3506 -0.3005 -0.5851
  714MOL0     C94145   8.035   3.209   1.173  0.3484 -0.1675  0.0273
  714MOL0     O94146   7.987   3.324   1.119 -0.1746 -0.8384  0.5381
  714MOL0     C94147   8.020   3.354   0.985  0.0036 -0.5175 -0.0988
  714MOL0     C94148   7.932   3.308   0.887  0.3086 -0.2977 -0.9936
  714MOL0     C94149   7.936   3.352   0.754  0.0126  1.2649 -0.4403
  714MOL0     C94150   8.049   3.425   0.711  0.1910  0.5504  0.9018
  714MOL0     O94151   8.072   3.433   0.577 -0.2135  0.2550  0.2011
  714MOL0     C94152   8.178   3.522   0.534  0.3772 -0.6594  0.6183
  714MOL0     C94153   8.191   3.513   0.379  0.4652  1.2409 -0.0092
  714MOL0     C94154   8.302   3.614   0.340 -0.1716  0.1192  0.0969
  714MOL0     C94155   8.295   3.635   0.192  0.6087 -0.2411  0.1435
  714MOL0     C94156   8.423   3.700   0.145  0.6236 -0.5247  0.0469
  714MOL0     C94157   8.415   3.758   0.005  0.0803  0.1887  0.0111
  714MOL0     C94158   8.552   3.811  -0.049  0.1701  0.5278  0.1034
  714MOL0     C94159   8.530   3.875  -0.178 -0.9334 -1.1449  0.2170
  714MOL0    Cl94160   8.404   4.018  -0.161  0.3996  0.0770  0.1871
  714MOL0     C94161   8.145   3.458   0.814  0.0026  1.1573 -0.2734
  714MOL0     C94162   8.131   3.426   0.946 -0.3165 -0.1971  0.3612
  714MOL0     O94163   8.108   3.122   1.123  0.8343  0.6712  0.0398
  714MOL0     C94164   8.039   3.068   1.387 -0.5789  0.0889  0.3540
  714MOL0     C94165   7.995   3.034   1.517 -0.4358 -0.6765 -0.2473
  714MOL0     N94166   7.325   2.934   1.803  0.0398 -0.2686  0.0119
  714MOL0     N94167   7.236   3.022   1.827  0.7005 -0.6701  0.6021
  714MOL0     C94168   7.840   3.679   1.049  0.0276  0.0363  1.4094
  714MOL0     C94169   7.910   3.715   0.937  0.1784  0.4494 -0.3634
  714MOL0     C94170   8.001   4.034   0.584  0.2107 -1.3484  0.3845
  714MOL0     C94171   8.033   3.933   0.498 -0.4530 -0.1079  0.2284
  714MOL0     C94172   8.117   3.961   0.388 -0.8667  0.0595 -0.1901
  714MOL0     C94173   8.176   4.093   0.372  0.1196 -0.6054  0.3098
  714MOL0     O94174   8.277   4.097   0.275  0.3649  0.4040 -0.8310
  714MOL0     C94175   8.375   4.207   0.288  0.0024 -0.4979  0.2003
  714MOL0     C94176   8.455   4.198   0.159 -0.5411 -0.5998  0.2734
  714MOL0     C94177   8.550   4.318   0.155 -0.6529  0.3833 -0.5754
  714MOL0     C94178   8.697   4.286   0.136 -0.7720  0.0018  0.8951
  714MOL0     C94179   8.712   4.207   0.004  0.4373 -0.0119  0.0025
  714MOL0     C94180   8.720   4.138  -0.098  0.6696  0.0239  0.3123
  714MOL0     C94181   8.129   4.194   0.454  0.5347  0.3317 -0.1254
  714MOL0     C94182   8.051   4.166   0.560  0.5944  1.3104  0.4022
  714MOL0     H94183   7.693   3.940   0.812 -0.7136  0.0567  0.4417
  714MOL0     H94184   7.593   3.915   1.035 -0.4092  0.3558  0.5103
  714MOL0     H94185   7.836   3.687   1.317 -0.1033 -0.8536 -0.7175
  714MOL0     H94186   7.740   3.543   1.274 -0.8037  0.1682  1.8030
  714MOL0     H94187   7.658   3.742   1.479  1.7382  1.7162 -3.7710
  714MOL0     H94188   7.742   3.595   1.518 -0.8740 -1.6330 -1.0730
  714MOL0     H94189   7.536   3.492   1.373 -0.3583 -0.2046 -0.6041
  714MOL0     H94190   7.463   3.640   1.404 -0.6644 -1.4843 -1.6536
  714MOL0     H94191   7.588   3.448   1.604  0.8810  1.2452 -1.8527
  714MOL0     H94192   7.544   3.614   1.658 -4.6452  1.1613  0.6388
  714MOL0     H94193   7.345   3.425   1.532 -0.5744  0.8001 -0.7303
  714MOL0     H94194   7.318   3.587   1.604 -0.1952  0.0986  1.3998
  714MOL0     H94195   7.395   3.507   1.818  0.1044 -0.2243 -0.4213
  714MOL0     H94196   7.438   3.351   1.761  1.9556  1.9662  2.6440
  714MOL0     H94197   7.205   3.376   1.895  1.0028 -2.1768  0.1311
  714MOL0     H94198   7.154   3.455   1.752  1.2596  0.3830  0.5512
  714MOL0     H94199   7.163   3.248   1.612 -0.1499 -3.4993  0.1906
  714MOL0     H94200   7.065   3.225   1.762 -0.6105  1.3538  1.5200
  714MOL0     H94201   7.412   3.170   1.593 -0.8185  1.3662  0.7764
  714MOL0     H94202   7.598   2.974   1.588 -3.2240 -0.6396 -1.7569
  714MOL0     H94203   7.532   2.826   1.625  2.5621 -0.7111 -0.3364
  714MOL0     H94204   7.706   2.814   1.781  0.2687 -0.0086  0.1637
  714MOL0     H94205   7.560   2.841   1.873 -2.4254  1.2982 -1.7789
  714MOL0     H94206   7.587   3.078   1.913 -0.8442 -3.5881  0.8566
  714MOL0     H94207   7.753   3.016   1.931  1.6624 -0.1051 -2.5138
  714MOL0     H94208   7.761   3.226   1.811 -3.7666  1.3303 -0.8073
  714MOL0     H94209   7.665   3.166   1.686  0.7448 -0.7395 -1.7100
  714MOL0     H94210   7.774   3.298   1.561  1.4216 -0.0940  1.4799
  714MOL0     H94211   7.835   3.343   1.340  1.9715  1.6626 -0.4100
  714MOL0     H94212   7.849   3.247   0.923  1.0570 -1.1600 -0.6930
  714MOL0     H94213   7.867   3.317   0.678 -0.6644 -0.9282  1.0841
  714MOL0     H94214   8.278   3.505   0.575  1.0220  0.1221 -0.5952
  714MOL0     H94215   8.140   3.622   0.553 -3.0089 -1.4856 -1.0316
  714MOL0     H94216   8.101   3.561   0.339 -0.8261 -1.6835 -0.8313
  714MOL0     H94217   8.209   3.411   0.345  5.4381  1.6741  0.5388
  714MOL0     H94218   8.395   3.560   0.359 -1.3739 -3.0692 -2.1063
  714MOL0     H94219   8.295   3.712   0.387 -0.8212 -0.6243  1.5984
  714MOL0     H94220   8.285   3.542   0.134 -1.1364  1.1115 -1.9039
  714MOL0     H94221   8.211   3.702   0.169 -1.3054 -1.4203  3.0643
  714MOL0     H94222   8.493   3.616   0.136  0.7384 -0.2498 -2.0141
  714MOL0     H94223   8.459   3.778   0.213  1.5651  0.1001 -1.1316
  714MOL0     H94224   8.334   3.832   0.006 -0.0483  0.0754 -1.1682
  714MOL0     H94225   8.388   3.677  -0.062 -2.9108 -0.0684  1.3674
  714MOL0     H94226   8.596   3.884   0.020 -1.0414  0.8944  0.4973
  714MOL0     H94227   8.617   3.723  -0.057 -1.4791 -0.6985 -0.3703
  714MOL0     H94228   8.492   3.806  -0.253  3.9640 -0.3620 -3.5394
  714MOL0     H94229   8.635   3.895  -0.204 -0.4305 -2.1037  1.3930
  714MOL0     H94230   8.237   3.506   0.783 -0.0622  1.9942  0.7781
  714MOL0     H94231   8.203   3.470   1.015  0.1680  0.6917 -0.6855
  714MOL0     H94232   8.102   3.003   1.327  0.8884  2.8533 -1.2970
  714MOL0     H94233   8.027   2.938   1.556  0.5160 -1.1568 -2.1265
  714MOL0     H94234   7.878   3.596   1.107 -3.4036 -2.8171 -0.0636
  714MOL0     H94235   8.004   3.673   0.903  1.4004  3.2028 -0.6516
  714MOL0     H94236   8.009   3.829   0.512  0.8949 -0.3927  0.5853
  714MOL0     H94237   8.145   3.888   0.313 -1.7009  1.2648 -1.7479
  714MOL0     H94238   8.434   4.210   0.380 -0.6698  0.9622  0.6067
  714MOL0     H94239   8.314   4.298   0.288  0.0246 -0.4395  2.2975
  714MOL0     H94240   8.507   4.103   0.145 -0.4446 -0.5381  0.2057
  714MOL0     H94241   8.385   4.211   0.076 -0.6028  0.8539  0.5237
  714MOL0     H94242   8.548   4.371   0.251 -2.1355 -1.0591  0.2453
  714MOL0     H94243   8.497   4.389   0.092 -1.0030  0.2951 -0.3837
  714MOL0     H94244   8.751   4.381   0.144 -2.4294  0.9470  1.3867
  714MOL0     H94245   8.729   4.218   0.216 -1.1140 -2.8200 -1.2169
  714MOL0     H94246   8.723   4.082  -0.189  1.0507 -1.3618  1.1390
  714MOL0     H94247   8.168   4.294   0.435  0.4745  0.0770 -1.7148
  714MOL0     H94248   8.017   4.245   0.626  0.4266  1.4805  0.1125
  715MOL0     O94249  10.292   5.118   2.104 -0.3581  0.5544  0.0410
  715MOL0     C94250  10.263   5.028   2.021 -0.1451  0.4777  0.7816
  715MOL0     O94251  10.335   4.912   2.003 -0.7878 -0.5485  0.9542
  715MOL0     C94252  10.445   4.875   2.079  0.2617 -0.7069 -0.6671
  715MOL0     C94253  10.453   4.885   2.218 -1.1667  0.4787 -0.0857
  715MOL0     C94254  10.559   4.832   2.295  0.5188  0.4162 -0.3834
  715MOL0     C94255  10.668   4.775   2.220 -0.1546 -0.4288 -0.4268
  715MOL0     O94256  10.776   4.727   2.285 -0.6823  0.1481  0.2719
  715MOL0     C94257  10.754   4.607   2.363 -0.2462 -0.3129 -0.6812
  715MOL0     C94258  10.886   4.537   2.391  0.3848 -0.7109 -0.7774
  715MOL0     C94259  10.959   4.471   2.274  0.9316  0.0723  0.3300
  715MOL0     C94260  11.088   4.387   2.300  0.7846  0.3359  0.9092
  715MOL0     C94261  11.068   4.271   2.379 -0.4743  0.4294  0.1318
  715MOL0     C94262  11.195   4.181   2.352  0.5665  0.5421 -0.3543
  715MOL0     C94263  11.219   4.086   2.474  0.8874  0.7773  0.4093
  715MOL0     C94264  11.358   4.070   2.511  0.5053 -0.3354 -0.2835
  715MOL0     N94265  11.397   4.171   2.613  0.3595 -0.1610 -0.1519
  715MOL0     C94266  11.454   4.286   2.577 -0.3173 -0.0333  0.3066
  715MOL0     C94267  11.516   4.332   2.685 -0.6999 -0.7410  0.3648
  715MOL0     C94268  11.604   4.460   2.712  1.1945  0.4225 -0.3159
  715MOL0     C94269  11.747   4.417   2.678  0.4443 -0.5456 -0.2377
  715MOL0     C94270  11.840   4.544   2.718 -0.4586  1.3458 -0.5068
  715MOL0     C94271  11.991   4.497   2.685 -0.1743 -0.8684  0.0143
  715MOL0     O94272  12.074   4.612   2.709 -0.5161 -0.0140 -0.6580
  715MOL0     C94273  12.213   4.609   2.662  0.3583  0.2718 -0.7349
  715MOL0     C94274  12.296   4.719   2.692 -0.3164 -0.0392  0.8158
  715MOL0     C94275  12.429   4.714   2.640  0.5463 -0.1389 -0.7553
  715MOL0     C94276  12.486   4.611   2.581  0.6912  0.1256  0.2501
  715MOL0     C94277  12.623   4.625   2.530  0.1430 -0.2614 -0.7317
  715MOL0     O94278  12.702   4.737   2.567  0.3625 -0.2297 -0.0905
  715MOL0     C94279  12.829   4.757   2.529  0.1521 -0.8509  0.7326
  715MOL0     C94280  12.865   4.896   2.521 -0.8785 -0.1404  0.5224
  715MOL0     C94281  12.996   4.930   2.501  0.2294 -0.7853 -0.3470
  715MOL0     C94282  13.087   4.834   2.471  0.8018  0.6794  0.3039
  715MOL0     O94283  13.212   4.881   2.435 -0.3407  0.6038  0.0980
  715MOL0     C94284  13.309   4.798   2.367 -0.0945 -0.6408 -0.4062
  715MOL0     C94285  13.414   4.898   2.319  0.3902  0.3536 -0.6677
  715MOL0     C94286  13.551   4.854   2.259 -0.6459 -0.1874 -0.3383
  715MOL0     C94287  13.667   4.852   2.355 -0.2087 -0.8833 -0.3947
  715MOL0     C94288  13.792   4.794   2.292  1.1258  0.5541  0.3752
  715MOL0     C94289  13.928   4.861   2.314 -0.5009  0.0744  0.5565
  715MOL0     C94290  14.027   4.823   2.198 -0.5382 -1.1965  0.4853
  715MOL0     C94291  14.168   4.880   2.230 -0.8034 -0.5080 -0.3548
  715MOL0    Cl94292  14.171   5.060   2.209  0.2179  0.6335  0.0133
  715MOL0     C94293  13.052   4.702   2.460  0.0300  0.1724  1.2619
  715MOL0     C94294  12.924   4.662   2.492 -0.2160  0.2301 -0.3897
  715MOL0     O94295  12.663   4.532   2.468  0.0281  0.0654  0.6581
  715MOL0     C94296  12.406   4.496   2.563  0.7828 -0.1764  1.0707
  715MOL0     C94297  12.268   4.500   2.594  1.1037 -0.3583 -0.0361
  715MOL0     N94298  11.498   4.247   2.792  0.0866  1.0167  1.0178
  715MOL0     N94299  11.424   4.144   2.747 -0.7964  0.4110 -0.1685
  715MOL0     C94300  10.663   4.763   2.084  0.0225 -0.6804  0.1073
  715MOL0     C94301  10.556   4.811   2.016 -0.3433  0.0396  0.6307
  715MOL0     C94302  10.172   5.064   1.908  0.2315  0.0303  0.0579
  715MOL0     C94303  10.107   4.967   1.834 -0.0321 -0.3921  0.2490
  715MOL0     C94304   9.997   5.004   1.744  0.4565  0.6977 -0.2522
  715MOL0     C94305   9.956   5.134   1.720 -0.1505 -0.2135 -1.1091
  715MOL0     O94306   9.848   5.157   1.634  0.4193 -0.0655 -0.5866
  715MOL0     C94307   9.816   5.295   1.605  0.5231 -1.0520  0.5928
  715MOL0     C94308   9.739   5.350   1.738 -0.0608 -0.7817  0.9023
  715MOL0     C94309   9.648   5.463   1.707 -0.1766  0.3714  0.4043
  715MOL0     C94310   9.713   5.570   1.619 -0.3369  0.2648  0.0221
  715MOL0     C94311   9.652   5.702   1.643 -0.3207 -0.4223  0.7716
  715MOL0     C94312   9.600   5.814   1.665  0.3756 -0.3563 -0.1548
  715MOL0     C94313  10.025   5.225   1.804 -0.0356  0.1376  0.0236
  715MOL0     C94314  10.136   5.200   1.888 -0.3260 -0.1331 -0.1782
  715MOL0     H94315  10.374   4.942   2.268 -0.1243  0.8626  1.1674
  715MOL0     H94316  10.571   4.839   2.403  3.1789 -0.2949 -0.5518
  715MOL0     H94317  10.693   4.531   2.314  2.7850 -3.1295 -0.4054
  715MOL0     H94318  10.706   4.639   2.456 -0.6668 -1.7012 -0.4012
  715MOL0     H94319  10.860   4.462   2.466 -1.6657  0.2505 -0.4541
  715MOL0     H94320  10.954   4.605   2.443  1.8599 -1.7173 -1.3173
  715MOL0     H94321  10.998   4.551   2.211  0.9446  1.0188  1.5078
  715MOL0     H94322  10.883   4.420   2.214  0.7412  3.5948 -2.7393
  715MOL0     H94323  11.137   4.365   2.205 -0.5590 -0.0810  0.2849
  715MOL0     H94324  11.158   4.449   2.357  2.3996 -1.5253  1.0486
  715MOL0     H94325  10.974   4.222   2.349  0.4395 -2.2842  1.3320
  715MOL0     H94326  11.063   4.303   2.483 -1.1353  1.1298 -0.1051
  715MOL0     H94327  11.279   4.250   2.355  1.4155 -0.4937  1.6144
  715MOL0     H94328  11.191   4.123   2.259  0.1177 -0.5256  0.3204
  715MOL0     H94329  11.147   4.110   2.552  0.8525 -0.7319  0.8690
  715MOL0     H94330  11.186   3.989   2.436 -1.4260  2.0580 -1.0765
  715MOL0     H94331  11.416   4.066   2.418 -1.3323  2.2275 -1.6678
  715MOL0     H94332  11.384   3.982   2.571 -0.3587  0.6793  1.6783
  715MOL0     H94333  11.466   4.329   2.478 -0.6029  2.7108  1.3721
  715MOL0     H94334  11.583   4.509   2.808  0.1646 -2.9538  1.3351
  715MOL0     H94335  11.571   4.537   2.642  0.3969  0.0624 -0.3530
  715MOL0     H94336  11.762   4.392   2.572 -0.0886  1.3790 -0.8176
  715MOL0     H94337  11.785   4.339   2.744 -0.2114 -2.2994 -1.8354
  715MOL0     H94338  11.808   4.637   2.672 -0.2446  1.1462 -1.0720
  715MOL0     H94339  11.832   4.554   2.827  2.8606  1.3982 -0.1618
  715MOL0     H94340  12.004   4.456   2.585  1.4899 -2.6452  0.8967
  715MOL0     H94341  12.020   4.425   2.762 -0.1249  1.7008  2.5519
  715MOL0     H94342  12.273   4.795   2.766  2.0279  2.9869 -1.3020
  715MOL0     H94343  12.499   4.791   2.671  0.9742 -1.7686  2.8097
  715MOL0     H94344  12.786   4.971   2.512 -1.1090 -0.5548 -1.4081
  715MOL0     H94345  13.030   5.033   2.499  1.1824 -1.0110  1.6431
  715MOL0     H94346  13.274   4.733   2.286  0.1544  0.4152 -1.3816
  715MOL0     H94347  13.339   4.721   2.439  0.0755  0.3146  0.5703
  715MOL0     H94348  13.434   4.977   2.392 -0.1521 -0.6413  0.6019
  715MOL0     H94349  13.360   4.938   2.233 -0.7281  1.4980  0.5190
  715MOL0     H94350  13.581   4.933   2.190 -1.0483 -1.2950 -1.8314
  715MOL0     H94351  13.548   4.753   2.218 -0.9707 -1.9414  3.5889
  715MOL0     H94352  13.686   4.958   2.375  0.4395 -0.4992 -2.7329
  715MOL0     H94353  13.646   4.802   2.450  0.1691  0.5567  0.4775
  715MOL0     H94354  13.786   4.774   2.185  1.5128 -1.4847  0.6876
  715MOL0     H94355  13.795   4.693   2.333  1.1264  0.7459  0.8547
  715MOL0     H94356  13.975   4.839   2.410 -1.0319  1.5263  1.1808
  715MOL0     H94357  13.908   4.969   2.314  1.5767  0.5127  0.8026
  715MOL0     H94358  14.043   4.715   2.206  1.8672 -1.0062 -0.8843
  715MOL0     H94359  14.000   4.831   2.092  0.8353  1.7178  0.2567
  715MOL0     H94360  14.241   4.843   2.157 -1.4848 -0.8358 -0.8743
  715MOL0     H94361  14.202   4.850   2.330  0.3238 -3.2730 -1.4613
  715MOL0     H94362  13.113   4.629   2.408 -2.6774 -0.9502 -0.5662
  715MOL0     H94363  12.886   4.560   2.487 -1.2810  0.6648 -3.1088
  715MOL0     H94364  12.453   4.411   2.514  0.3063  0.9955 -1.5775
  715MOL0     H94365  12.198   4.419   2.580 -0.1912  0.7492 -0.1458
  715MOL0     H94366  10.742   4.712   2.031  0.2277 -0.5548  0.2922
  715MOL0     H94367  10.555   4.792   1.909  0.0246 -3.8699  1.2032
  715MOL0     H94368  10.131   4.861   1.837  1.6783 -0.0179  0.7860
  715MOL0     H94369   9.942   4.934   1.683 -1.1113  3.5723 -2.3994
  715MOL0     H94370   9.738   5.308   1.530  1.0646  2.2671  0.4436
  715MOL0     H94371   9.899   5.363   1.586 -0.7443  0.5843  0.7127
  715MOL0     H94372   9.677   5.274   1.785  0.6748 -0.6818  2.0641
  715MOL0     H94373   9.801   5.381   1.823 -2.6655  0.7930  2.3679
  715MOL0     H94374   9.614   5.506   1.802 -1.5919 -1.4198  0.7471
  715MOL0     H94375   9.552   5.435   1.664  0.6764 -0.2707 -1.1926
  715MOL0     H94376   9.819   5.565   1.644 -0.6469 -1.0846  1.1330
  715MOL0     H94377   9.713   5.535   1.515  1.3530  1.6365 -0.4812
  715MOL0     H94378   9.566   5.915   1.676 -1.2886 -0.6793 -1.8049
  715MOL0     H94379   9.993   5.329   1.812 -2.5705 -0.5645 -0.0977
  715MOL0     H94380  10.179   5.280   1.949  0.8798 -1.3751  0.6499
  716MOL0     O94381   4.731   7.235  10.506  0.7304 -0.5139 -0.2677
  716MOL0     C94382   4.730   7.143  10.590  0.4716  0.6525  0.4797
  716MOL0     O94383   4.631   7.047  10.597 -0.3368 -1.0720  0.4159
  716MOL0     C94384   4.527   7.072  10.504  0.9346  1.0264  0.1145
  716MOL0     C94385   4.510   6.990  10.394 -0.0421  0.4891  0.2892
  716MOL0     C94386   4.405   6.999  10.300 -0.1917  0.1681  0.7769
  716MOL0     C94387   4.312   7.100  10.321 -0.6326 -0.4097  0.2768
  716MOL0     O94388   4.192   7.093  10.246 -0.1929 -0.5729  0.5259
  716MOL0     C94389   4.218   7.105  10.101  0.1024  0.2394  0.8898
  716MOL0     C94390   4.142   7.233  10.055 -0.5618  0.0238 -0.1154
  716MOL0     C94391   3.993   7.206  10.070  0.0099 -0.0787 -0.1717
  716MOL0     C94392   3.916   7.328  10.000 -0.9717  0.4386  0.0238
  716MOL0     C94393   3.767   7.301  10.014 -0.2811  0.2514 -0.0482
  716MOL0     C94394   3.712   7.341  10.150 -0.0714 -0.0104 -1.2753
  716MOL0     C94395   3.560   7.340  10.139  0.2077 -0.3738 -0.2295
  716MOL0     C94396   3.500   7.346  10.284 -0.9249 -0.4080 -0.4643
  716MOL0     N94397   3.517   7.479  10.339 -0.1621 -0.1254 -0.7740
  716MOL0     C94398   3.496   7.508  10.471 -0.3991  0.1628 -0.3954
  716MOL0     C94399   3.510   7.648  10.485  0.4146  0.6310  0.4354
  716MOL0     C94400   3.457   7.727  10.605  0.1457 -0.9982  0.1785
  716MOL0     C94401   3.312   7.713  10.649  0.3126  0.5820 -0.1970
  716MOL0     C94402   3.219   7.739  10.539 -0.7397  0.1143 -0.4270
  716MOL0     C94403   3.083   7.756  10.602  0.4925 -0.0553  0.7104
  716MOL0     O94404   2.984   7.793  10.500  0.3956 -1.1987  0.1131
  716MOL0     C94405   2.859   7.752  10.518  0.1119 -0.1989 -0.0474
  716MOL0     C94406   2.791   7.730  10.646  0.4725 -0.6130  0.3046
  716MOL0     C94407   2.663   7.682  10.656 -0.1936  0.1796  0.7905
  716MOL0     C94408   2.592   7.635  10.538  0.1213  0.2783 -0.8860
  716MOL0     C94409   2.465   7.560  10.538 -0.1696  0.5469  0.2694
  716MOL0     O94410   2.424   7.517  10.664  0.0521  0.0358 -0.6042
  716MOL0     C94411   2.292   7.479  10.679  0.6533  0.2061 -1.2968
  716MOL0     C94412   2.252   7.359  10.633  0.2697  0.9383 -0.2653
  716MOL0     C94413   2.116   7.317  10.628  0.3057  0.0694 -0.4836
  716MOL0     C94414   2.026   7.417  10.666  1.0428  0.4592 -0.2949
  716MOL0     O94415   1.892   7.387  10.678 -0.2021 -0.5471 -0.4180
  716MOL0     C94416   1.846   7.262  10.685  0.1079  0.0498 -0.6275
  716MOL0     C94417   1.695   7.254  10.653 -0.6985  0.2870  0.0073
  716MOL0     C94418   1.643   7.287  10.514  0.6139  0.7842 -0.9952
  716MOL0     C94419   1.505   7.222  10.488 -0.3056 -0.0806 -0.9358
  716MOL0     C94420   1.467   7.219  10.342 -0.2269  0.5249  0.2484
  716MOL0     C94421   1.315   7.189  10.331  0.4544  0.7996 -0.6545
  716MOL0     C94422   1.267   7.182  10.189 -0.2044 -0.0833  0.0235
  716MOL0     C94423   1.298   7.295  10.106  0.0029  0.3483  0.2498
  716MOL0    Cl94424   1.239   7.265   9.947  0.4978 -0.2453 -0.1763
  716MOL0     C94425   2.067   7.547  10.706  0.6858  0.3426 -0.1175
  716MOL0     C94426   2.200   7.573  10.721  0.2538 -1.6844 -0.1292
  716MOL0     O94427   2.407   7.551  10.428 -0.4812  0.3827 -0.4547
  716MOL0     C94428   2.657   7.666  10.415  0.8421 -0.0889  0.0237
  716MOL0     C94429   2.784   7.719  10.404 -0.2257  0.0776 -0.2788
  716MOL0     N94430   3.525   7.689  10.352 -0.1124 -0.4002  0.5790
  716MOL0     N94431   3.531   7.591  10.273  0.4528 -0.4170 -0.4328
  716MOL0     C94432   4.312   7.181  10.436 -0.4952 -0.0191 -0.5677
  716MOL0     C94433   4.425   7.172  10.521 -1.0522  0.9584 -0.3891
  716MOL0     C94434   4.849   7.108  10.677  0.1687  0.0759  0.1073
  716MOL0     C94435   4.948   7.210  10.703 -0.5872  0.8564  0.0854
  716MOL0     C94436   5.071   7.178  10.773  0.2727  0.0023  0.0425
  716MOL0     C94437   5.088   7.047  10.817 -0.3770  0.5906 -0.3862
  716MOL0     O94438   5.206   7.001  10.872 -0.1888 -0.1459  1.2207
  716MOL0     C94439   5.312   7.085  10.931  0.4689  0.2421 -0.3307
  716MOL0     C94440   5.282   7.113  11.070  0.2582  0.2729 -0.1956
  716MOL0     C94441   5.247   6.979  11.149  0.1719 -0.8725 -0.5135
  716MOL0     C94442   5.250   7.001  11.306 -0.0182  0.4740 -0.2135
  716MOL0     C94443   5.155   7.110  11.341  0.1842 -0.0020  0.0645
  716MOL0     C94444   5.071   7.198  11.331 -0.1420  0.5744 -0.4437
  716MOL0     C94445   4.985   6.957  10.811  1.1951  0.4216 -0.4846
  716MOL0     C94446   4.872   6.987  10.739 -0.7504  0.5979 -0.1942
  716MOL0     H94447   4.586   6.913  10.391 -1.9474 -1.4437 -0.5139
  716MOL0     H94448   4.400   6.930  10.217  0.3081  0.9127  0.1048
  716MOL0     H94449   4.181   7.018  10.046  1.9553 -0.4778  0.7059
  716MOL0     H94450   4.323   7.116  10.071 -0.6646  1.6458 -1.6151
  716MOL0     H94451   4.160   7.253   9.949 -0.2446  3.3067  0.4397
  716MOL0     H94452   4.186   7.316  10.112  1.2129  0.9810 -2.7017
  716MOL0     H94453   3.954   7.186  10.171  0.0320 -2.3042 -0.5509
  716MOL0     H94454   3.973   7.110  10.021 -2.1340  0.1198  0.2257
  716MOL0     H94455   3.931   7.423  10.053  0.5887 -0.4811  1.3610
  716MOL0     H94456   3.949   7.305   9.898  1.5603 -0.7870  1.0097
  716MOL0     H94457   3.739   7.200   9.985 -1.7485  0.9599 -1.2588
  716MOL0     H94458   3.724   7.373   9.944 -1.2963 -0.9604 -0.7097
  716MOL0     H94459   3.746   7.441  10.179 -0.4686 -0.1471 -0.3332
  716MOL0     H94460   3.744   7.263  10.220  2.6813  0.8125 -1.4772
  716MOL0     H94461   3.515   7.420  10.080  2.5307  0.5613 -0.8531
  716MOL0     H94462   3.527   7.239  10.111 -2.6255  0.1680  0.8689
  716MOL0     H94463   3.528   7.258  10.344  0.5640 -0.6106 -1.3876
  716MOL0     H94464   3.392   7.345  10.274 -0.9852  1.6313 -0.4870
  716MOL0     H94465   3.461   7.460  10.561  2.3507  1.8223  1.7482
  716MOL0     H94466   3.471   7.833  10.580  1.9557 -0.5320  2.7747
  716MOL0     H94467   3.529   7.715  10.687  0.0905  1.1868  0.6012
  716MOL0     H94468   3.293   7.789  10.725  0.0418 -1.7323  2.1816
  716MOL0     H94469   3.282   7.616  10.688  0.7665  0.4058 -0.2792
  716MOL0     H94470   3.243   7.831  10.487  2.1943 -1.9890 -3.1681
  716MOL0     H94471   3.237   7.666  10.459 -1.6611 -0.9286  0.2720
  716MOL0     H94472   3.088   7.850  10.657 -1.2309  1.0694 -0.8940
  716MOL0     H94473   3.047   7.671  10.661 -4.3355  0.0193 -1.6066
  716MOL0     H94474   2.849   7.742  10.737  2.4530 -2.7354 -0.5566
  716MOL0     H94475   2.619   7.671  10.755 -2.4472  4.1165  0.4224
  716MOL0     H94476   2.333   7.298  10.594 -0.6126 -0.4379 -0.0258
  716MOL0     H94477   2.090   7.218  10.592 -2.1617  0.3679  0.2954
  716MOL0     H94478   1.876   7.212  10.778 -3.1301 -1.0777 -0.0424
  716MOL0     H94479   1.888   7.198  10.607  1.2038  0.0346 -0.0342
  716MOL0     H94480   1.640   7.315  10.725 -1.3960 -0.7049  0.3453
  716MOL0     H94481   1.670   7.149  10.672 -2.2285  0.4392 -0.9406
  716MOL0     H94482   1.718   7.244  10.448  1.9689 -0.6423  1.3172
  716MOL0     H94483   1.630   7.395  10.512 -1.2322  0.6045 -3.2897
  716MOL0     H94484   1.509   7.118  10.523  0.9802  0.0042 -0.8044
  716MOL0     H94485   1.426   7.276  10.541  0.6097 -0.1214  0.5221
  716MOL0     H94486   1.514   7.138  10.286 -0.9002 -0.0250  0.4661
  716MOL0     H94487   1.495   7.316  10.301 -2.4156  1.1051 -0.0210
  716MOL0     H94488   1.263   7.275  10.375  3.1247  0.9034  2.6881
  716MOL0     H94489   1.301   7.090  10.375 -1.4807  1.2264 -0.2107
  716MOL0     H94490   1.317   7.091  10.154  0.5480  0.1965  0.3522
  716MOL0     H94491   1.158   7.174  10.184 -0.7640  4.4006  0.9361
  716MOL0     H94492   1.405   7.316  10.103  0.1832 -0.4860  0.5944
  716MOL0     H94493   1.244   7.386  10.136  0.8094  0.1718  2.4166
  716MOL0     H94494   1.996   7.619  10.746  0.2474  0.1865 -0.6007
  716MOL0     H94495   2.221   7.666  10.772  1.9357 -2.5858  0.9163
  716MOL0     H94496   2.607   7.630  10.325 -1.2161 -0.7962  1.3706
  716MOL0     H94497   2.838   7.737  10.311 -1.2909 -1.7534 -1.3082
  716MOL0     H94498   4.217   7.226  10.463 -0.5574  2.1538 -3.8516
  716MOL0     H94499   4.444   7.228  10.612 -0.6075 -2.6728  1.9518
  716MOL0     H94500   4.937   7.312  10.668 -0.6507  0.8724  0.1530
  716MOL0     H94501   5.141   7.261  10.770  1.1678 -0.5266 -5.9109
  716MOL0     H94502   5.319   7.181  10.878 -0.9745  0.4253 -0.2391
  716MOL0     H94503   5.411   7.042  10.916  1.1716  1.9378 -0.7643
  716MOL0     H94504   5.365   7.148  11.132 -0.9315 -1.8198  2.8648
  716MOL0     H94505   5.202   7.187  11.074 -0.2783 -0.3432  1.1820
  716MOL0     H94506   5.320   6.901  11.122  0.3887 -0.5156 -0.9790
  716MOL0     H94507   5.149   6.945  11.116 -0.3316  0.3562 -0.3064
  716MOL0     H94508   5.215   6.909  11.354 -1.8125 -0.3572 -2.9198
  716MOL0     H94509   5.353   7.008  11.342 -0.7855 -1.1500  2.5662
  716MOL0     H94510   4.987   7.258  11.305  0.9209  2.4846  0.2830
  716MOL0     H94511   4.992   6.858  10.856  2.1033  1.4221  1.6739
  716MOL0     H94512   4.791   6.915  10.741 -2.2592  2.2441  0.8877
  717MOL0     O94513   9.395   3.925   6.625  1.0143  0.6434 -0.2083
  717MOL0     C94514   9.497   3.898   6.579  0.2545 -0.2269  0.4356
  717MOL0     O94515   9.529   3.906   6.447  0.0096 -0.4330  0.4144
  717MOL0     C94516   9.450   3.973   6.354  0.4021  0.7022  0.4332
  717MOL0     C94517   9.306   3.972   6.355 -0.1984  0.2169 -0.1405
  717MOL0     C94518   9.236   4.024   6.247  0.1798  0.5132  0.0019
  717MOL0     C94519   9.309   4.084   6.145  0.3824  0.0752 -0.2683
  717MOL0     O94520   9.240   4.172   6.054 -0.0131  0.3077 -0.1491
  717MOL0     C94521   9.311   4.255   5.968  0.5281  0.2299  1.0691
  717MOL0     C94522   9.226   4.307   5.842 -1.4326  0.2018  0.3191
  717MOL0     C94523   9.209   4.207   5.732  0.2229 -0.2674 -0.5694
  717MOL0     C94524   9.121   4.263   5.627  0.1593 -0.3883  0.0851
  717MOL0     C94525   8.971   4.237   5.662 -0.8071 -0.3630 -0.1928
  717MOL0     C94526   8.875   4.256   5.546  0.3365  0.7646  0.0458
  717MOL0     C94527   8.896   4.396   5.490 -0.1858 -0.4673  0.7853
  717MOL0     C94528   8.815   4.410   5.363 -0.1397 -0.6880  0.3239
  717MOL0     N94529   8.678   4.453   5.386 -0.7058  0.6404 -0.1571
  717MOL0     C94530   8.637   4.545   5.475  0.5710  0.4482 -0.5236
  717MOL0     C94531   8.503   4.550   5.459 -0.1985 -0.5284 -0.1199
  717MOL0     C94532   8.406   4.633   5.549 -0.1668 -0.7613  0.9787
  717MOL0     C94533   8.388   4.580   5.689 -0.6371 -0.0481  0.1564
  717MOL0     C94534   8.314   4.444   5.703 -0.0952  0.1041  0.3698
  717MOL0     C94535   8.342   4.374   5.833 -0.1718 -0.4924  0.3809
  717MOL0     O94536   8.483   4.346   5.842  0.2703 -0.3493 -0.2113
  717MOL0     C94537   8.539   4.309   5.966  0.3153  0.2764 -0.3458
  717MOL0     C94538   8.458   4.274   6.079  0.6329  0.5135  0.3305
  717MOL0     C94539   8.509   4.204   6.181 -0.5556  0.3922 -0.5291
  717MOL0     C94540   8.644   4.209   6.202  0.0116 -0.2793 -0.3284
  717MOL0     C94541   8.699   4.170   6.334 -0.4639  0.3160  0.2007
  717MOL0     O94542   8.838   4.153   6.336  0.4739 -0.1330  0.4197
  717MOL0     C94543   8.888   4.100   6.453  0.1389 -0.1568 -0.2973
  717MOL0     C94544   8.892   3.963   6.472 -0.5262 -0.3155  0.4586
  717MOL0     C94545   8.928   3.907   6.599  0.0961  0.2219  0.1726
  717MOL0     C94546   8.970   3.978   6.707  0.4036 -0.1017  0.4702
  717MOL0     O94547   9.002   3.934   6.832  0.0077 -0.2466 -0.2177
  717MOL0     C94548   9.107   3.846   6.836 -0.4723  0.2342  0.1277
  717MOL0     C94549   9.176   3.849   6.979  0.0318  0.5097 -0.5932
  717MOL0     C94550   9.285   3.737   6.995  0.5784  0.6196 -0.4133
  717MOL0     C94551   9.390   3.754   7.096 -0.7586 -0.4592 -0.8007
  717MOL0     C94552   9.344   3.668   7.218 -0.5019  0.1843 -0.2277
  717MOL0     C94553   9.422   3.690   7.339  0.1796 -0.6245 -0.3342
  717MOL0     C94554   9.569   3.633   7.324 -0.2652  0.1448  0.5920
  717MOL0     C94555   9.574   3.478   7.352 -1.0902  1.1092  0.5163
  717MOL0    Cl94556   9.731   3.432   7.431  0.5219 -0.3556  0.5511
  717MOL0     C94557   8.958   4.120   6.689 -0.5260 -0.5601 -0.4634
  717MOL0     C94558   8.926   4.180   6.561  0.5869 -0.0241 -1.1368
  717MOL0     O94559   8.628   4.152   6.433 -0.2206  0.5965 -0.0313
  717MOL0     C94560   8.732   4.263   6.103 -0.4155 -0.8489 -0.4970
  717MOL0     C94561   8.676   4.301   5.988  0.1479 -0.5375  1.2756
  717MOL0     N94562   8.469   4.456   5.365 -0.3432 -1.0980  0.7831
  717MOL0     N94563   8.570   4.402   5.324  0.0691 -0.1247 -0.4367
  717MOL0     C94564   9.453   4.090   6.152  0.5724  0.4959  0.1006
  717MOL0     C94565   9.525   4.025   6.250  0.3899 -1.0430  0.1027
  717MOL0     C94566   9.607   3.858   6.665  0.1145 -0.5020  0.3704
  717MOL0     C94567   9.711   3.781   6.617  0.4917 -0.0851  0.7032
  717MOL0     C94568   9.822   3.742   6.694 -0.0457 -0.9611  0.4612
  717MOL0     C94569   9.819   3.762   6.832  0.7211  0.5710 -0.8279
  717MOL0     O94570   9.917   3.719   6.921 -0.0835  0.0286 -0.5307
  717MOL0     C94571   9.936   3.574   6.915 -0.6616 -0.0023 -0.2559
  717MOL0     C94572  10.004   3.512   7.040  0.3411 -0.6584 -0.6858
  717MOL0     C94573  10.044   3.363   7.009 -0.6422 -0.1371 -0.4721
  717MOL0     C94574  10.075   3.283   7.140 -0.2762 -0.2042  1.0897
  717MOL0     C94575  10.169   3.171   7.105 -0.6352  0.6901 -0.5991
  717MOL0     C94576  10.244   3.084   7.071 -0.3482  0.2506 -0.8544
  717MOL0     C94577   9.710   3.837   6.881  0.5194  0.2320  0.5592
  717MOL0     C94578   9.608   3.880   6.800  0.8041 -0.0861  0.1580
  717MOL0     H94579   9.251   3.931   6.439 -1.1464 -4.0876 -2.5362
  717MOL0     H94580   9.129   4.042   6.245  0.2708  1.9176  2.8598
  717MOL0     H94581   9.404   4.225   5.918  0.2673  1.2873 -0.0979
  717MOL0     H94582   9.333   4.341   6.032  1.2109 -1.7742  3.6634
  717MOL0     H94583   9.285   4.389   5.801 -0.6386 -0.5564 -0.0999
  717MOL0     H94584   9.125   4.340   5.867 -2.4180 -2.5404  0.3735
  717MOL0     H94585   9.178   4.112   5.776  3.0491 -0.0150  2.2910
  717MOL0     H94586   9.304   4.187   5.683  1.7813 -1.0922  2.5220
  717MOL0     H94587   9.135   4.370   5.607 -4.3010  0.2341 -0.7418
  717MOL0     H94588   9.138   4.212   5.532 -1.0063  0.0129 -0.3517
  717MOL0     H94589   8.930   4.288   5.750 -0.8122  1.0700 -0.9960
  717MOL0     H94590   8.959   4.133   5.693 -3.0202  0.3003  1.3856
  717MOL0     H94591   8.770   4.249   5.576  0.5906  0.8929  1.0048
  717MOL0     H94592   8.888   4.176   5.473  0.0596 -1.8736  2.7157
  717MOL0     H94593   8.885   4.475   5.565 -0.0200 -0.0854  0.4106
  717MOL0     H94594   8.999   4.406   5.455 -0.0686 -2.5808  0.4455
  717MOL0     H94595   8.813   4.312   5.316 -0.8850 -1.4163  1.7986
  717MOL0     H94596   8.862   4.468   5.283 -2.0949  2.4434  1.2454
  717MOL0     H94597   8.690   4.593   5.557  0.8712 -0.8815  0.0903
  717MOL0     H94598   8.311   4.645   5.496  0.0280  0.2524  0.8371
  717MOL0     H94599   8.445   4.734   5.560  0.2481 -0.8165  0.0228
  717MOL0     H94600   8.317   4.649   5.735 -0.8254 -0.7736  0.9826
  717MOL0     H94601   8.482   4.591   5.744  0.2094 -1.4633 -0.9357
  717MOL0     H94602   8.206   4.464   5.700 -0.7096 -2.7989  0.0298
  717MOL0     H94603   8.330   4.380   5.616  1.3567  0.6521  0.1991
  717MOL0     H94604   8.290   4.278   5.835 -0.2047 -0.4917 -0.2063
  717MOL0     H94605   8.295   4.432   5.913  1.6898  3.0826 -0.8810
  717MOL0     H94606   8.350   4.283   6.078  0.5832  0.1776 -1.4648
  717MOL0     H94607   8.446   4.162   6.260 -0.5683  0.4514 -0.5085
  717MOL0     H94608   8.872   3.894   6.391  0.0518 -1.1567  1.0191
  717MOL0     H94609   8.919   3.802   6.626 -1.1951  0.3293  0.2376
  717MOL0     H94610   9.178   3.875   6.758 -1.4004 -0.7433 -1.1257
  717MOL0     H94611   9.071   3.747   6.807 -2.1657  1.2843 -1.6348
  717MOL0     H94612   9.100   3.836   7.056 -0.6156  0.1019 -1.2851
  717MOL0     H94613   9.231   3.943   6.990  0.9827 -0.2565  1.8148
  717MOL0     H94614   9.346   3.739   6.904  1.7428  1.0447  0.3503
  717MOL0     H94615   9.235   3.641   7.009 -2.3774  2.0879 -0.2287
  717MOL0     H94616   9.483   3.717   7.053 -1.0193 -1.1615 -0.7816
  717MOL0     H94617   9.397   3.858   7.129 -1.2542 -1.3429  2.4657
  717MOL0     H94618   9.333   3.561   7.202 -0.6368  0.2082 -0.2940
  717MOL0     H94619   9.245   3.699   7.253 -0.9591 -2.5925  1.2145
  717MOL0     H94620   9.376   3.645   7.428  1.3974 -0.7710  0.2399
  717MOL0     H94621   9.416   3.798   7.357 -1.7408 -0.4245 -1.8063
  717MOL0     H94622   9.608   3.669   7.228  0.0525 -2.3121 -0.2684
  717MOL0     H94623   9.617   3.680   7.410 -0.5772 -0.3585  1.0492
  717MOL0     H94624   9.564   3.421   7.258  4.8357 -1.5664  1.0292
  717MOL0     H94625   9.498   3.454   7.426 -0.1588 -0.2947  1.0645
  717MOL0     H94626   8.968   4.193   6.768 -1.8593  1.7569 -2.3151
  717MOL0     H94627   8.914   4.287   6.550 -0.5816  0.2082  1.6116
  717MOL0     H94628   8.840   4.269   6.107 -0.5233  1.0521  0.8800
  717MOL0     H94629   8.735   4.349   5.910 -2.4141 -0.5895 -0.8287
  717MOL0     H94630   9.504   4.142   6.072  3.7320 -2.4632 -0.0147
  717MOL0     H94631   9.630   4.046   6.264  0.0916 -0.3856  1.5538
  717MOL0     H94632   9.718   3.772   6.509 -0.2514  0.1312  0.6297
  717MOL0     H94633   9.895   3.678   6.646  2.4226 -0.4775  3.2512
  717MOL0     H94634   9.986   3.559   6.819 -4.5572  0.9149 -2.6646
  717MOL0     H94635   9.842   3.522   6.898 -1.2961  0.3802  1.7928
  717MOL0     H94636  10.098   3.568   7.043  1.3226 -2.2243 -0.7975
  717MOL0     H94637   9.945   3.516   7.132 -4.8589 -0.5005 -3.6502
  717MOL0     H94638  10.135   3.372   6.949 -1.6357 -2.0931 -2.4240
  717MOL0     H94639   9.973   3.315   6.941  2.1191  0.2719 -3.9082
  717MOL0     H94640  10.129   3.352   7.205 -2.1751  2.5935 -0.0958
  717MOL0     H94641   9.981   3.256   7.189 -0.5892  1.0784  1.2372
  717MOL0     H94642  10.304   3.004   7.031  2.7028 -0.3340  4.1418
  717MOL0     H94643   9.696   3.851   6.988  1.8220  2.4093  0.5013
  717MOL0     H94644   9.532   3.941   6.848  0.5956 -0.4763  0.3336
  718MOL0     O94645   9.797   9.895   2.107  0.0042  0.0147  0.4794
  718MOL0     C94646   9.772   9.877   1.983  0.0190  0.3198  1.0551
  718MOL0     O94647   9.817   9.950   1.881  0.6268  0.7959  0.1891
  718MOL0     C94648   9.902  10.050   1.905 -0.0279 -1.0846 -0.2942
  718MOL0     C94649  10.006  10.062   1.818 -0.1981  0.3749  0.2130
  718MOL0     C94650  10.095  10.170   1.819  0.8224  1.1104 -0.2819
  718MOL0     C94651  10.079  10.270   1.915  0.5443  0.3012  0.2651
  718MOL0     O94652  10.172  10.373   1.907  0.6663  0.2924  0.2938
  718MOL0     C94653  10.233  10.424   2.027  0.4608  0.9578  1.6876
  718MOL0     C94654  10.335  10.335   2.092 -0.9338 -0.1755  0.8086
  718MOL0     C94655  10.463  10.406   2.106  1.3371  0.0645  0.5253
  718MOL0     C94656  10.586  10.311   2.136 -0.5538 -0.0983 -0.2268
  718MOL0     C94657  10.712  10.402   2.169  0.6912  0.9756 -0.2308
  718MOL0     C94658  10.847  10.322   2.170 -0.2013  0.1341 -0.6581
  718MOL0     C94659  10.961  10.412   2.204 -0.0864 -0.2461 -0.0567
  718MOL0     C94660  11.083  10.335   2.191 -0.2907  0.8372  0.4829
  718MOL0     N94661  11.105  10.287   2.052  0.6411  0.4969 -0.8657
  718MOL0     C94662  11.151  10.164   2.022  0.1823  0.7415  0.2413
  718MOL0     C94663  11.188  10.174   1.892  0.0099  0.5375  0.0101
  718MOL0     C94664  11.273  10.070   1.820  0.2481  0.7712  0.2068
  718MOL0     C94665  11.204  10.043   1.684  0.3434  0.2101  0.4992
  718MOL0     C94666  11.064   9.985   1.693  0.1213  1.1923 -0.7708
  718MOL0     C94667  10.998   9.892   1.590 -1.0854 -0.2570  0.2361
  718MOL0     O94668  11.042   9.752   1.609 -0.3490  0.1718  0.2018
  718MOL0     C94669  10.929   9.664   1.611  0.3836 -0.3103  0.1036
  718MOL0     C94670  10.805   9.678   1.544  0.2697 -0.7297 -0.6573
  718MOL0     C94671  10.706   9.580   1.557 -0.1114 -0.8263 -0.2686
  718MOL0     C94672  10.730   9.456   1.626 -0.5896  0.4499  0.2718
  718MOL0     C94673  10.628   9.354   1.611 -0.2877 -0.6859  0.0017
  718MOL0     O94674  10.513   9.395   1.551 -0.1945  0.3290  0.0009
  718MOL0     C94675  10.402   9.308   1.539  0.1233 -0.5477 -0.5726
  718MOL0     C94676  10.374   9.233   1.434  0.4282  0.4374  0.6056
  718MOL0     C94677  10.262   9.152   1.433 -0.4243 -0.0077  0.1613
  718MOL0     C94678  10.174   9.136   1.545  0.8868  0.7109  0.7479
  718MOL0     O94679  10.075   9.041   1.539  0.1452 -1.0153  1.2432
  718MOL0     C94680  10.138   8.920   1.583  0.5992 -0.0102 -0.0066
  718MOL0     C94681  10.040   8.821   1.531 -0.1006  0.0427  0.4233
  718MOL0     C94682  10.079   8.672   1.542 -0.2663  0.0965  0.0115
  718MOL0     C94683  10.002   8.602   1.661  0.2399  0.8067  0.9851
  718MOL0     C94684  10.099   8.527   1.741  0.6507 -0.1008 -0.1468
  718MOL0     C94685  10.164   8.398   1.677  1.3680  0.3693  0.4729
  718MOL0     C94686  10.064   8.273   1.688 -0.6344  0.6227  0.2176
  718MOL0     C94687  10.143   8.160   1.627  0.9165 -0.3846  0.2611
  718MOL0    Cl94688  10.136   8.169   1.446  0.1426 -0.1337  0.3279
  718MOL0     C94689  10.200   9.217   1.660 -0.9605  0.9159  0.0959
  718MOL0     C94690  10.316   9.300   1.656 -0.1978 -0.0380 -0.3177
  718MOL0     O94691  10.651   9.241   1.665 -0.3825 -0.0059 -0.0756
  718MOL0     C94692  10.849   9.442   1.696  0.3109 -0.2826 -0.2308
  718MOL0     C94693  10.954   9.543   1.680  0.3433  1.0920  0.7447
  718MOL0     N94694  11.162  10.298   1.846  0.4654 -0.9370  0.1298
  718MOL0     N94695  11.095  10.360   1.939 -0.7256 -0.2887  0.2910
  718MOL0     C94696   9.979  10.262   2.007 -1.0253  0.1321  0.2948
  718MOL0     C94697   9.889  10.156   2.003  0.7527 -0.0366  0.3072
  718MOL0     C94698   9.695   9.764   1.937  0.4901 -0.0241  0.3567
  718MOL0     C94699   9.666   9.748   1.801 -0.9616 -0.2343  0.4546
  718MOL0     C94700   9.604   9.633   1.756  0.6068  0.1984  0.5396
  718MOL0     C94701   9.574   9.532   1.838 -0.3424 -0.4583 -0.3661
  718MOL0     O94702   9.523   9.410   1.796  0.1276 -0.3701  0.3350
  718MOL0     C94703   9.384   9.384   1.803 -0.0713 -0.0014  0.4304
  718MOL0     C94704   9.357   9.234   1.793 -0.0541 -0.0228  0.5457
  718MOL0     C94705   9.391   9.173   1.650  0.5823  0.1392 -0.1263
  718MOL0     C94706   9.316   9.213   1.528 -0.0155  0.2843 -0.5249
  718MOL0     C94707   9.175   9.195   1.544  0.0742  0.5347  0.2409
  718MOL0     C94708   9.056   9.181   1.542 -0.9709  0.1502 -0.2884
  718MOL0     C94709   9.603   9.544   1.974  0.3498 -0.5539  0.5656
  718MOL0     C94710   9.655   9.662   2.029 -0.0262 -0.1018  0.6522
  718MOL0     H94711  10.019   9.984   1.744 -0.3237  2.7031 -2.4336
  718MOL0     H94712  10.180  10.176   1.751  1.3112 -1.0950  0.0435
  718MOL0     H94713  10.144  10.448   2.086 -1.3033 -3.0658  0.9676
  718MOL0     H94714  10.274  10.522   2.000 -1.0474  0.7406 -1.9922
  718MOL0     H94715  10.361  10.250   2.028 -0.7338 -0.4082  1.1963
  718MOL0     H94716  10.302  10.298   2.190  2.5691 -2.9730  1.1485
  718MOL0     H94717  10.438  10.477   2.186 -2.3922 -0.5717  0.1243
  718MOL0     H94718  10.495  10.463   2.019  1.3590 -0.4578  0.1913
  718MOL0     H94719  10.567  10.236   2.214 -1.3206 -0.4100 -0.6974
  718MOL0     H94720  10.601  10.246   2.049  0.0458 -2.3514  1.4656
  718MOL0     H94721  10.695  10.442   2.270 -0.1175 -1.0265  0.4934
  718MOL0     H94722  10.708  10.484   2.097  0.5516  0.9186 -0.2875
  718MOL0     H94723  10.865  10.272   2.074 -1.0877 -1.6958  0.0773
  718MOL0     H94724  10.849  10.242   2.245 -1.7300  1.6297  1.0629
  718MOL0     H94725  10.951  10.499   2.138 -1.8568 -1.0919 -0.9636
  718MOL0     H94726  10.968  10.455   2.304  0.8424  1.1477 -0.6816
  718MOL0     H94727  11.071  10.254   2.264 -1.7678  1.1267  0.5977
  718MOL0     H94728  11.174  10.389   2.219 -0.1173  1.4800 -1.1940
  718MOL0     H94729  11.177  10.080   2.086 -1.7406 -1.8257 -2.1349
  718MOL0     H94730  11.289   9.983   1.884  0.2044  0.9223  0.4237
  718MOL0     H94731  11.377  10.101   1.810  0.7078  0.3514  2.9113
  718MOL0     H94732  11.266   9.967   1.636 -2.7681 -1.0497 -1.9075
  718MOL0     H94733  11.205  10.120   1.606  0.9709 -0.5755 -0.2772
  718MOL0     H94734  11.057   9.927   1.785 -1.0430  2.5936  0.0764
  718MOL0     H94735  10.990  10.065   1.706 -0.0392  1.1145 -1.1820
  718MOL0     H94736  11.033   9.928   1.493  0.4442 -2.1396  0.0177
  718MOL0     H94737  10.891   9.914   1.598 -1.3823 -1.1925 -0.9195
  718MOL0     H94738  10.784   9.759   1.475 -0.3777 -2.8179 -3.0599
  718MOL0     H94739  10.619   9.592   1.494 -2.1738 -2.5226  2.0675
  718MOL0     H94740  10.438   9.240   1.347 -2.7088  0.1861 -1.8750
  718MOL0     H94741  10.224   9.105   1.343 -1.6585  2.9156 -0.9675
  718MOL0     H94742  10.155   8.926   1.691  0.1587 -0.2509  0.0786
  718MOL0     H94743  10.231   8.894   1.531  1.3204  1.6302  0.4070
  718MOL0     H94744  10.021   8.853   1.428 -0.1159  0.6029  0.5974
  718MOL0     H94745   9.945   8.840   1.583 -0.6431  2.5132 -1.2763
  718MOL0     H94746  10.187   8.659   1.552 -0.6590 -1.9820  3.4795
  718MOL0     H94747  10.051   8.621   1.449 -0.6364  2.2307 -1.1067
  718MOL0     H94748   9.950   8.670   1.730 -0.4116  0.3466  0.9551
  718MOL0     H94749   9.925   8.538   1.617  1.2337 -0.4573  1.0254
  718MOL0     H94750  10.061   8.502   1.841  0.6212 -1.3755 -0.4488
  718MOL0     H94751  10.182   8.598   1.747  0.5499  0.3214 -2.7718
  718MOL0     H94752  10.260   8.379   1.726  0.4103  1.8622  3.0889
  718MOL0     H94753  10.198   8.422   1.575 -1.2259  0.7371 -0.3681
  718MOL0     H94754  10.035   8.246   1.790  0.6715  3.0668  1.3132
  718MOL0     H94755   9.969   8.296   1.638 -1.7589  1.0960  2.4420
  718MOL0     H94756  10.111   8.059   1.652  1.3988 -0.7258 -0.4870
  718MOL0     H94757  10.245   8.175   1.663  2.0905 -0.6146 -2.6673
  718MOL0     H94758  10.138   9.213   1.749 -4.1838  0.1700 -2.0309
  718MOL0     H94759  10.353   9.357   1.741  2.0574 -0.1722 -1.1374
  718MOL0     H94760  10.872   9.352   1.752 -1.2034 -0.7652 -0.3310
  718MOL0     H94761  11.044   9.530   1.740  1.0248  0.3506 -0.4114
  718MOL0     H94762   9.972  10.341   2.081 -1.7854  2.3385 -1.9831
  718MOL0     H94763   9.808  10.135   2.072  0.4737 -2.0593 -0.5664
  718MOL0     H94764   9.702   9.812   1.722  0.2531 -1.1667  0.2128
  718MOL0     H94765   9.598   9.600   1.653 -0.7802  2.4332 -0.1786
  718MOL0     H94766   9.333   9.444   1.727 -0.5362 -1.2681 -0.2790
  718MOL0     H94767   9.342   9.422   1.897 -0.1492  3.6496 -0.9112
  718MOL0     H94768   9.428   9.174   1.850  3.0986 -0.2049 -3.2228
  718MOL0     H94769   9.260   9.217   1.841  0.2638  0.3224  1.3215
  718MOL0     H94770   9.383   9.064   1.649 -0.5803  0.2114 -0.3843
  718MOL0     H94771   9.497   9.186   1.628  1.5337 -2.8261  2.1212
  718MOL0     H94772   9.333   9.318   1.504 -2.6527  0.5533 -1.5227
  718MOL0     H94773   9.344   9.162   1.435 -2.5112 -0.3020 -1.0316
  718MOL0     H94774   8.953   9.154   1.548 -0.8856  0.1886  2.1173
  718MOL0     H94775   9.584   9.460   2.039  1.1446 -1.5481 -0.4577
  718MOL0     H94776   9.668   9.650   2.136 -1.2910 -0.1077  0.8246
  719MOL0     O94777   6.597   8.309  10.190  0.1809 -0.6824  0.6064
  719MOL0     C94778   6.639   8.329  10.075 -0.1035 -0.7434  0.4577
  719MOL0     O94779   6.765   8.393  10.055 -0.1295 -0.6449  0.1467
  719MOL0     C94780   6.850   8.423  10.152 -1.5587 -0.2796  0.0264
  719MOL0     C94781   6.959   8.339  10.181 -0.0754 -0.8332  0.0594
  719MOL0     C94782   7.049   8.380  10.282  0.3673 -0.1412 -0.5969
  719MOL0     C94783   7.027   8.494  10.366 -0.1711  0.0250  0.2063
  719MOL0     O94784   7.102   8.530  10.479  0.0113  0.2317 -0.1814
  719MOL0     C94785   7.237   8.468  10.493  0.0362 -0.0410  0.5865
  719MOL0     C94786   7.322   8.547  10.595 -0.4148 -0.2639 -0.9082
  719MOL0     C94787   7.241   8.573  10.725 -1.0685  0.1893 -0.7757
  719MOL0     C94788   7.327   8.629  10.839  0.2417 -0.1685 -0.1079
  719MOL0     C94789   7.226   8.677  10.947  0.1263 -0.5749 -0.1645
  719MOL0     C94790   7.302   8.727  11.077  1.2188  0.3732 -0.2215
  719MOL0     C94791   7.366   8.614  11.149 -0.2108  0.5425  0.7157
  719MOL0     C94792   7.414   8.647  11.285 -1.4696 -0.0463 -0.3647
  719MOL0     N94793   7.479   8.786  11.306 -0.1517 -0.9652 -0.3102
  719MOL0     C94794   7.448   8.865  11.415  0.5432  0.0228 -0.1502
  719MOL0     C94795   7.550   8.955  11.420  0.7474 -1.6676 -0.0634
  719MOL0     C94796   7.534   9.073  11.527  0.1604  0.5131  0.0272
  719MOL0     C94797   7.645   9.186  11.536 -0.0417 -0.6348  0.1586
  719MOL0     C94798   7.621   9.291  11.642 -0.1038 -0.1903 -0.9095
  719MOL0     C94799   7.742   9.370  11.674  0.6876 -0.2973 -0.3987
  719MOL0     O94800   7.786   9.428  11.550 -0.1276 -0.2667 -0.3914
  719MOL0     C94801   7.888   9.516  11.551  1.4729  0.5783  0.0265
  719MOL0     C94802   7.906   9.587  11.437 -0.2722  0.4171  0.0081
  719MOL0     C94803   7.998   9.701  11.435 -0.5071 -0.1447 -1.0286
  719MOL0     C94804   8.076   9.735  11.548 -0.4228  0.4681 -0.3362
  719MOL0     C94805   8.166   9.854  11.547 -0.6420 -0.6171  0.6190
  719MOL0     O94806   8.183   9.915  11.424 -0.0961  0.6538  0.4744
  719MOL0     C94807   8.275  10.011  11.414 -0.6861 -0.1083  1.3736
  719MOL0     C94808   8.252  10.138  11.462  0.7421  0.4153  0.9016
  719MOL0     C94809   8.361  10.226  11.469 -0.2057 -0.8833  0.5506
  719MOL0     C94810   8.497  10.187  11.449 -0.8121  0.1183 -0.1307
  719MOL0     O94811   8.612  10.258  11.493  0.2220 -0.1147  0.6842
  719MOL0     C94812   8.591  10.395  11.528 -0.3681 -0.4771  0.7309
  719MOL0     C94813   8.700  10.457  11.611  0.5163 -0.4321  0.0678
  719MOL0     C94814   8.831  10.469  11.529 -0.0066 -0.4755 -0.4713
  719MOL0     C94815   8.940  10.544  11.608  0.3355 -0.5262  0.2508
  719MOL0     C94816   9.073  10.502  11.558 -0.2506  0.2182  0.3705
  719MOL0     C94817   9.188  10.550  11.643 -0.0314 -0.8728  0.1935
  719MOL0     C94818   9.330  10.530  11.574  0.2325  0.0220 -0.0597
  719MOL0     C94819   9.434  10.586  11.663 -0.4713  0.4112  0.1911
  719MOL0    Cl94820   9.444  10.757  11.650  0.0467 -0.3330 -0.4255
  719MOL0     C94821   8.517  10.059  11.387 -0.9642  0.9025 -0.6657
  719MOL0     C94822   8.402   9.974  11.367  0.1599 -0.1754 -0.4324
  719MOL0     O94823   8.220   9.898  11.650 -0.5283 -0.0681 -0.3749
  719MOL0     C94824   8.069   9.647  11.656 -1.0876  0.1901  0.3253
  719MOL0     C94825   7.974   9.541  11.662  0.3507  0.3388  0.5565
  719MOL0     N94826   7.642   8.934  11.323  0.3984  0.2583 -0.1214
  719MOL0     N94827   7.594   8.839  11.252 -0.9240  0.0272 -0.0458
  719MOL0     C94828   6.922   8.573  10.330 -0.4486  0.1249  0.3093
  719MOL0     C94829   6.833   8.544  10.226  0.0456  0.1844 -0.3611
  719MOL0     C94830   6.550   8.298   9.965  0.3751  0.2212  0.4288
  719MOL0     C94831   6.419   8.244   9.986  0.6678 -0.7758  0.0651
  719MOL0     C94832   6.327   8.222   9.879 -0.8972 -1.0326  0.6696
  719MOL0     C94833   6.365   8.257   9.743 -0.0973 -0.8947 -0.7598
  719MOL0     O94834   6.286   8.239   9.634 -0.5735 -0.3268  0.4948
  719MOL0     C94835   6.213   8.360   9.616  0.9959 -0.1343 -0.0148
  719MOL0     C94836   6.109   8.362   9.508 -0.1399  0.5700  0.0519
  719MOL0     C94837   6.051   8.509   9.500 -0.6740 -0.5030 -0.2884
  719MOL0     C94838   5.964   8.531   9.376  0.1289 -0.4331  0.7520
  719MOL0     C94839   6.031   8.486   9.249  0.0805 -1.4543  1.1272
  719MOL0     C94840   6.075   8.454   9.144  0.4589 -0.0465  0.3174
  719MOL0     C94841   6.490   8.325   9.728 -0.9341  1.4811  0.2131
  719MOL0     C94842   6.581   8.347   9.839 -0.0509  0.8891  0.6734
  719MOL0     H94843   6.975   8.253  10.117 -1.8219 -0.9769 -0.2431
  719MOL0     H94844   7.133   8.316  10.308 -0.2884 -0.4838  0.7869
  719MOL0     H94845   7.285   8.477  10.395 -2.3931 -2.3807 -0.9561
  719MOL0     H94846   7.228   8.360  10.509  1.7960 -0.2537  0.4201
  719MOL0     H94847   7.349   8.644  10.552  0.5907 -0.2034 -0.1651
  719MOL0     H94848   7.415   8.493  10.613  1.5659  2.1860 -2.9426
  719MOL0     H94849   7.192   8.478  10.751  4.2687 -2.5724  0.7131
  719MOL0     H94850   7.169   8.647  10.690  1.8954  1.8406 -3.8965
  719MOL0     H94851   7.402   8.557  10.873  2.8585  1.5669 -1.7897
  719MOL0     H94852   7.391   8.714  10.814 -2.4462  1.3219 -2.3830
  719MOL0     H94853   7.151   8.602  10.974 -1.0913  0.2165 -1.2370
  719MOL0     H94854   7.163   8.758  10.909 -0.9606 -2.0278 -1.6349
  719MOL0     H94855   7.222   8.769  11.139 -0.5598 -1.1841 -1.3464
  719MOL0     H94856   7.370   8.809  11.052  0.7745  0.9306  0.3751
  719MOL0     H94857   7.307   8.523  11.143  0.9063 -0.2949  1.9033
  719MOL0     H94858   7.456   8.603  11.088  0.4456  0.6169  1.6355
  719MOL0     H94859   7.493   8.577  11.313  0.8832  2.9944  1.1912
  719MOL0     H94860   7.341   8.617  11.361  0.6784 -4.2596  0.3605
  719MOL0     H94861   7.375   8.845  11.493 -0.5260 -0.5270 -1.2501
  719MOL0     H94862   7.526   9.033  11.628  1.3263 -1.4100 -0.5726
  719MOL0     H94863   7.435   9.116  11.509  1.1130  1.4255 -4.2632
  719MOL0     H94864   7.648   9.237  11.439 -1.6185 -0.0415  0.3929
  719MOL0     H94865   7.744   9.141  11.549 -0.9305 -2.8199 -0.1984
  719MOL0     H94866   7.539   9.359  11.617 -0.6247 -1.1579 -1.9007
  719MOL0     H94867   7.590   9.237  11.732  2.2689 -1.2670 -0.6701
  719MOL0     H94868   7.813   9.305  11.726 -2.0270 -2.1875  1.2040
  719MOL0     H94869   7.723   9.464  11.726  0.3564 -1.5653  1.9059
  719MOL0     H94870   7.867   9.564  11.338 -0.2860  2.0442 -0.3871
  719MOL0     H94871   8.012   9.750  11.339  0.0014 -3.5890 -2.8886
  719MOL0     H94872   8.147  10.155  11.481  0.6917  3.2073 -1.1812
  719MOL0     H94873   8.330  10.320  11.513 -1.0025 -0.2538 -1.2726
  719MOL0     H94874   8.496  10.419  11.578 -0.5129  0.3128  0.1015
  719MOL0     H94875   8.598  10.466  11.445 -2.9788  3.0968  3.2431
  719MOL0     H94876   8.716  10.389  11.695 -1.3942 -1.3716 -0.2660
  719MOL0     H94877   8.665  10.554  11.648 -1.5639  0.0415 -2.7878
  719MOL0     H94878   8.830  10.532  11.439  1.7520 -1.0296 -0.9312
  719MOL0     H94879   8.853  10.368  11.493 -3.8102 -0.6778 -2.7427
  719MOL0     H94880   8.936  10.652  11.594  3.3710  0.1406  3.3527
  719MOL0     H94881   8.932  10.520  11.714 -3.6880 -2.9079 -0.3555
  719MOL0     H94882   9.103  10.543  11.461  3.5059  0.9431  1.6478
  719MOL0     H94883   9.082  10.393  11.555 -0.2854  0.1806  1.3043
  719MOL0     H94884   9.185  10.504  11.742 -0.8444  1.1138  1.1597
  719MOL0     H94885   9.171  10.656  11.664  0.4033 -0.6641 -0.4724
  719MOL0     H94886   9.342  10.422  11.568  0.8221  0.0962 -0.2322
  719MOL0     H94887   9.334  10.582  11.478 -3.4764 -1.4092 -1.1733
  719MOL0     H94888   9.531  10.550  11.628 -0.0593 -0.2268  1.9158
  719MOL0     H94889   9.423  10.553  11.766  0.4250 -3.6972 -0.8331
  719MOL0     H94890   8.620  10.035  11.364 -0.1850  2.6976  0.6587
  719MOL0     H94891   8.413   9.886  11.305 -3.1330  0.3110 -1.9526
  719MOL0     H94892   8.135   9.663  11.741 -3.5971 -2.3866  2.9866
  719MOL0     H94893   7.953   9.490  11.755  3.4339 -0.5835  0.8808
  719MOL0     H94894   6.896   8.656  10.395 -1.4612 -0.4425  0.6581
  719MOL0     H94895   6.753   8.612  10.197  1.3812  0.5617 -3.6170
  719MOL0     H94896   6.381   8.231  10.087 -1.8348  1.3830 -0.5015
  719MOL0     H94897   6.229   8.186   9.909 -0.3875 -1.4345  1.9244
  719MOL0     H94898   6.280   8.443   9.591  1.2350 -0.6145 -0.9690
  719MOL0     H94899   6.172   8.400   9.710 -2.4449  2.9995 -2.5800
  719MOL0     H94900   6.141   8.311   9.417  0.9047 -0.2892  0.8761
  719MOL0     H94901   6.024   8.297   9.533  1.3790 -2.9019 -2.9578
  719MOL0     H94902   6.134   8.580   9.489  0.6926 -2.3203 -2.6009
  719MOL0     H94903   5.999   8.526   9.595  2.0651 -0.8894  1.3956
  719MOL0     H94904   5.874   8.469   9.386 -0.1169 -0.2785 -0.3166
  719MOL0     H94905   5.926   8.632   9.359 -2.3603 -1.4025  0.0262
  719MOL0     H94906   6.105   8.416   9.049 -3.5309  1.4968 -1.8165
  719MOL0     H94907   6.506   8.378   9.634  1.4535  1.2606  0.4282
  719MOL0     H94908   6.672   8.403   9.821  1.4067 -1.2838  0.9251
  720MOL0     O94909   9.637   0.653   6.895 -0.5440  0.3568 -0.2715
  720MOL0     C94910   9.532   0.591   6.874  0.7176 -0.4585  0.0195
  720MOL0     O94911   9.484   0.559   6.747 -0.8095 -0.1239  0.1005
  720MOL0     C94912   9.580   0.556   6.649  0.9516 -0.8253 -0.0356
  720MOL0     C94913   9.679   0.458   6.647 -0.0368 -0.0913 -0.1941
  720MOL0     C94914   9.768   0.443   6.545 -0.0963  0.1548 -0.3346
  720MOL0     C94915   9.774   0.536   6.445  0.8147 -0.0675  0.3363
  720MOL0     O94916   9.872   0.520   6.354 -0.2143 -0.2863 -0.0116
  720MOL0     C94917   9.946   0.638   6.330 -0.2208 -0.2165 -0.4052
  720MOL0     C94918  10.052   0.588   6.234 -0.2980 -0.7681 -1.2027
  720MOL0     C94919  10.153   0.685   6.231 -0.1610 -0.2096  0.1501
  720MOL0     C94920  10.232   0.675   6.108  0.2647  1.1266 -0.4468
  720MOL0     C94921  10.347   0.782   6.107  0.1420  0.2102 -0.2918
  720MOL0     C94922  10.426   0.761   5.975  0.2364 -0.0958 -0.5456
  720MOL0     C94923  10.542   0.848   5.973 -0.7432  0.1316  0.3144
  720MOL0     C94924  10.590   0.860   5.834  0.4448 -0.3447  0.0289
  720MOL0     N94925  10.730   0.907   5.827 -0.7839 -0.2352 -0.7675
  720MOL0     C94926  10.838   0.822   5.848 -0.2396  0.3606 -0.3836
  720MOL0     C94927  10.943   0.898   5.816 -1.2745 -0.8089 -0.2944
  720MOL0     C94928  11.090   0.857   5.817 -0.4162 -0.8961 -0.2573
  720MOL0     C94929  11.185   0.977   5.816  0.1701 -0.0673 -0.5246
  720MOL0     C94930  11.314   0.946   5.880  0.1119  0.7359 -0.3065
  720MOL0     C94931  11.408   0.854   5.807  0.3650 -0.1811  0.2015
  720MOL0     O94932  11.383   0.726   5.856 -0.2825  0.2914  0.0694
  720MOL0     C94933  11.440   0.626   5.782  0.0929  0.6930 -0.8114
  720MOL0     C94934  11.414   0.502   5.837  0.2881  0.1748 -0.5879
  720MOL0     C94935  11.456   0.384   5.776  0.9323 -0.6245 -1.3996
  720MOL0     C94936  11.529   0.378   5.662 -0.9215  0.8109 -0.0869
  720MOL0     C94937  11.576   0.253   5.590 -0.4297 -0.5899  0.4070
  720MOL0     O94938  11.658   0.267   5.473  0.6482  0.4113 -0.1640
  720MOL0     C94939  11.704   0.146   5.416 -1.0034  0.7611  0.8169
  720MOL0     C94940  11.651   0.097   5.296  0.7841 -0.4850  0.4286
  720MOL0     C94941  11.696  -0.022   5.240 -0.0489  0.3568 -1.1025
  720MOL0     C94942  11.801  -0.088   5.282 -0.6108  0.0899  0.3086
  720MOL0     O94943  11.844  -0.200   5.217 -0.6536  0.5004 -0.2436
  720MOL0     C94944  11.761  -0.305   5.227  0.0915  0.5222  0.0515
  720MOL0     C94945  11.824  -0.434   5.170 -0.7406  0.3805  0.2212
  720MOL0     C94946  11.742  -0.562   5.156 -1.2502 -0.4768 -0.7961
  720MOL0     C94947  11.843  -0.673   5.111  0.1097  0.3049 -0.0926
  720MOL0     C94948  11.809  -0.827   5.088  0.1881  0.2346 -0.7046
  720MOL0     C94949  11.748  -0.879   5.218  0.0620 -0.1398  0.3728
  720MOL0     C94950  11.697  -1.017   5.204 -1.4336 -0.6061 -0.1994
  720MOL0     C94951  11.613  -1.057   5.329 -0.7204 -0.7469  0.6733
  720MOL0    Cl94952  11.625  -1.236   5.356 -0.5353 -0.0581  0.1136
  720MOL0     C94953  11.855  -0.047   5.397  0.3109  0.0684  0.4554
  720MOL0     C94954  11.814   0.076   5.463  1.2351  0.6901 -0.4211
  720MOL0     O94955  11.531   0.150   5.639  0.2827  0.3520  0.4590
  720MOL0     C94956  11.558   0.502   5.601 -0.8252 -0.0439 -1.1075
  720MOL0     C94957  11.510   0.624   5.661 -0.4293 -0.0036 -0.8353
  720MOL0     N94958  10.894   1.020   5.771  0.3843 -0.5720  0.0588
  720MOL0     N94959  10.767   1.033   5.789  1.0605  0.7738 -0.1431
  720MOL0     C94960   9.689   0.643   6.448  0.9464  0.0598  0.2414
  720MOL0     C94961   9.593   0.653   6.551 -0.7529  0.2816  0.6271
  720MOL0     C94962   9.443   0.586   6.990  1.3123  0.2934 -0.5799
  720MOL0     C94963   9.346   0.485   6.986 -0.1206 -0.3566  0.4683
  720MOL0     C94964   9.267   0.459   7.093 -0.5689 -0.1244 -0.3837
  720MOL0     C94965   9.273   0.529   7.215  0.2082 -0.2072 -0.3730
  720MOL0     O94966   9.196   0.514   7.323  0.1287  0.5081  0.8979
  720MOL0     C94967   9.173   0.374   7.362  0.6922 -0.3213 -0.2373
  720MOL0     C94968   9.105   0.346   7.501 -0.0542 -1.2505  0.1273
  720MOL0     C94969   9.206   0.383   7.616  0.0145  0.3213 -0.1703
  720MOL0     C94970   9.226   0.531   7.631 -0.7308 -0.5682 -0.4559
  720MOL0     C94971   9.111   0.590   7.694  0.2054  0.2004  0.4137
  720MOL0     C94972   9.000   0.630   7.736  0.0252 -0.3712 -0.0911
  720MOL0     C94973   9.349   0.655   7.211 -0.4051  0.7877  0.2072
  720MOL0     C94974   9.434   0.673   7.101  0.6221 -0.7894  0.0158
  720MOL0     H94975   9.684   0.381   6.723 -1.3538 -0.9617 -0.9546
  720MOL0     H94976   9.831   0.355   6.548  0.4981  0.3646 -3.2450
  720MOL0     H94977   9.985   0.678   6.424 -0.3510 -1.4095  0.1668
  720MOL0     H94978   9.887   0.723   6.293 -0.1432  0.4172  0.8587
  720MOL0     H94979  10.000   0.558   6.143 -2.4775 -0.7271 -0.0573
  720MOL0     H94980  10.094   0.497   6.277  1.4877  0.4701 -0.1686
  720MOL0     H94981  10.219   0.671   6.317 -0.3071 -0.2473  0.2593
  720MOL0     H94982  10.109   0.785   6.245 -3.7135 -1.6705  0.6080
  720MOL0     H94983  10.284   0.580   6.095 -0.7755  0.3869  0.5982
  720MOL0     H94984  10.161   0.674   6.025 -2.5104 -3.1353  1.6548
  720MOL0     H94985  10.407   0.771   6.197 -0.2930 -2.6405 -0.2401
  720MOL0     H94986  10.306   0.883   6.102 -0.4540 -0.0213 -0.1656
  720MOL0     H94987  10.364   0.766   5.885  1.4355 -1.9246 -1.5162
  720MOL0     H94988  10.472   0.662   5.976  0.5233  0.0035  1.6620
  720MOL0     H94989  10.517   0.945   6.016  2.2716  0.5494  1.3545
  720MOL0     H94990  10.628   0.805   6.025 -2.6015 -4.7321 -0.0360
  720MOL0     H94991  10.517   0.921   5.779 -1.8418 -1.8069  1.3048
  720MOL0     H94992  10.591   0.760   5.790  1.9447  0.1025 -1.0399
  720MOL0     H94993  10.852   0.718   5.878  1.4103  0.3711 -0.9705
  720MOL0     H94994  11.115   0.793   5.732  0.9009  0.5415 -1.0156
  720MOL0     H94995  11.114   0.798   5.906 -1.6806 -3.5734 -1.5753
  720MOL0     H94996  11.142   1.046   5.888  0.2667 -3.6013  3.2880
  720MOL0     H94997  11.202   1.022   5.718 -3.6527  0.6462 -0.9991
  720MOL0     H94998  11.358   1.046   5.891 -0.0213  0.8979 -1.1472
  720MOL0     H94999  11.290   0.901   5.977  1.4293 -3.4936 -1.7327
  720MOL0     H95000  11.513   0.880   5.816 -0.0219  2.8119 -2.3216
  720MOL0     H95001  11.380   0.860   5.702 -2.0021 -1.7443  0.6376
  720MOL0     H95002  11.358   0.492   5.929  0.9049 -2.5377 -0.4041
  720MOL0     H95003  11.443   0.293   5.834  1.7871  0.3740  0.4527
  720MOL0     H95004  11.559   0.136   5.254 -1.8805 -2.8755  3.5595
  720MOL0     H95005  11.657  -0.062   5.147  1.7422 -2.1473 -0.8869
  720MOL0     H95006  11.666  -0.281   5.178 -0.4218  1.0832  1.2889
  720MOL0     H95007  11.747  -0.331   5.332  1.4735 -0.5220  0.0054
  720MOL0     H95008  11.913  -0.455   5.230 -1.2333 -0.7146  0.5792
  720MOL0     H95009  11.871  -0.406   5.075  2.1500 -0.1938  1.3683
  720MOL0     H95010  11.661  -0.550   5.083 -2.6942  0.7612  0.9230
  720MOL0     H95011  11.706  -0.586   5.256  2.3281 -0.9395  0.5307
  720MOL0     H95012  11.872  -0.643   5.010 -1.1234  0.4466 -0.4153
  720MOL0     H95013  11.933  -0.670   5.174 -0.7675 -0.0361  1.2004
  720MOL0     H95014  11.899  -0.879   5.054 -0.4962 -0.5131 -1.3854
  720MOL0     H95015  11.738  -0.838   5.006  0.2676  1.2569 -0.9275
  720MOL0     H95016  11.672  -0.805   5.245 -0.4069  0.1285 -1.5000
  720MOL0     H95017  11.815  -0.885   5.304 -0.2834  0.2368  0.6710
  720MOL0     H95018  11.629  -1.022   5.118 -1.7888 -1.7631  0.1321
  720MOL0     H95019  11.782  -1.085   5.198 -1.3388 -0.3785 -2.6792
  720MOL0     H95020  11.507  -1.033   5.312 -0.3901  0.0617 -0.3420
  720MOL0     H95021  11.651  -1.000   5.413  1.0334 -0.2602 -0.4069
  720MOL0     H95022  11.925  -0.109   5.452  2.0200  1.6019  0.0954
  720MOL0     H95023  11.861   0.113   5.553  1.3841 -2.8619  1.1307
  720MOL0     H95024  11.613   0.505   5.508  0.6274 -4.2505 -0.5719
  720MOL0     H95025  11.519   0.721   5.614 -1.1829  0.9780  0.9755
  720MOL0     H95026   9.691   0.712   6.364 -0.4135  0.8438  0.8232
  720MOL0     H95027   9.524   0.736   6.554  0.1226  1.0215  0.8334
  720MOL0     H95028   9.348   0.416   6.902  2.0518  0.0955  0.0937
  720MOL0     H95029   9.205   0.374   7.069 -1.2756  0.3813 -0.3827
  720MOL0     H95030   9.267   0.320   7.355 -0.0491 -1.7450  0.4969
  720MOL0     H95031   9.100   0.328   7.294 -0.4897 -2.6122  2.4133
  720MOL0     H95032   9.015   0.408   7.504  1.7640  1.5136  0.5859
  720MOL0     H95033   9.065   0.245   7.517 -0.7656 -0.8444  1.0004
  720MOL0     H95034   9.303   0.335   7.599  0.8443  0.8935  2.5067
  720MOL0     H95035   9.181   0.340   7.713  4.2237 -0.0525  0.9474
  720MOL0     H95036   9.319   0.551   7.686 -0.2215 -0.7458 -1.2402
  720MOL0     H95037   9.257   0.582   7.540  4.2070  1.5505  1.9793
  720MOL0     H95038   8.910   0.654   7.788 -0.0903  0.2595 -0.5723
  720MOL0     H95039   9.357   0.729   7.289 -0.7615  3.9892 -2.5621
  720MOL0     H95040   9.470   0.775   7.087  1.4336 -1.1956 -0.9832
  721MOL0     O95041   8.474   4.945   9.863  0.2147  0.3889  0.4815
  721MOL0     C95042   8.523   4.982   9.972 -0.7821 -0.0880 -0.2071
  721MOL0     O95043   8.462   5.015  10.088  0.8598  0.1814 -0.1436
  721MOL0     C95044   8.333   4.982  10.106  0.6833 -0.0390 -0.4884
  721MOL0     C95045   8.303   4.884  10.203  0.1245 -0.7859 -1.0368
  721MOL0     C95046   8.167   4.861  10.240 -0.0711 -0.3019 -0.1624
  721MOL0     C95047   8.060   4.922  10.166  1.0529 -0.5648  0.8739
  721MOL0     O95048   7.927   4.904  10.185  1.1271 -0.7566 -0.4785
  721MOL0     C95049   7.871   4.850  10.305 -0.3433 -0.4841  0.2101
  721MOL0     C95050   7.881   4.961  10.413  0.0910  0.5682 -0.9155
  721MOL0     C95051   7.745   5.035  10.425  0.0555 -0.1691  0.2316
  721MOL0     C95052   7.708   5.110  10.554 -1.3145 -0.8477  0.7653
  721MOL0     C95053   7.604   5.215  10.526  0.3400 -0.1771 -0.1882
  721MOL0     C95054   7.471   5.151  10.499 -0.2867  0.2081 -0.0900
  721MOL0     C95055   7.413   5.080  10.617  0.0393 -0.4351 -0.8702
  721MOL0     C95056   7.274   5.020  10.599 -0.2296 -0.5351  0.0272
  721MOL0     N95057   7.287   4.896  10.527  0.1275 -0.9355 -0.1486
  721MOL0     C95058   7.279   4.774  10.586  0.5181  0.2244 -0.5607
  721MOL0     C95059   7.254   4.683  10.490  0.1253  0.3525 -0.5008
  721MOL0     C95060   7.232   4.538  10.507  0.3041 -0.6774 -0.2285
  721MOL0     C95061   7.085   4.511  10.546 -0.3413  0.1323  0.2001
  721MOL0     C95062   7.057   4.360  10.534  0.1156 -0.1886 -1.6144
  721MOL0     C95063   6.911   4.326  10.536  0.0853 -0.4696  0.5127
  721MOL0     O95064   6.843   4.385  10.644 -0.0667 -0.0949  0.4901
  721MOL0     C95065   6.706   4.386  10.624  0.6812 -0.1702  0.5324
  721MOL0     C95066   6.659   4.497  10.566  0.1627 -0.6167 -0.6024
  721MOL0     C95067   6.519   4.507  10.549 -0.0295  0.8653 -0.7960
  721MOL0     C95068   6.432   4.394  10.580  0.6137  0.7739 -0.0443
  721MOL0     C95069   6.287   4.402  10.562  0.6914  0.9603 -0.6683
  721MOL0     O95070   6.245   4.528  10.511 -0.4425  0.1134  0.6074
  721MOL0     C95071   6.114   4.557  10.516  0.5030 -0.2036  0.0497
  721MOL0     C95072   6.063   4.647  10.609  0.6237 -0.1789  0.7064
  721MOL0     C95073   5.922   4.658  10.614 -0.9267  0.0300 -0.4620
  721MOL0     C95074   5.845   4.586  10.524  0.7744  0.0342 -0.3697
  721MOL0     O95075   5.712   4.613  10.523 -0.4183  0.5416 -0.2892
  721MOL0     C95076   5.634   4.635  10.404 -0.2314 -0.6520 -0.0527
  721MOL0     C95077   5.508   4.718  10.432 -0.3663 -0.6227 -0.2015
  721MOL0     C95078   5.552   4.866  10.459  0.0632 -0.1799  0.2821
  721MOL0     C95079   5.407   4.934  10.482 -0.0018 -0.5525  0.2146
  721MOL0     C95080   5.411   5.088  10.475  0.4510 -0.2971  0.2643
  721MOL0     C95081   5.303   5.144  10.387  0.9630  0.4016 -1.0716
  721MOL0     C95082   5.327   5.295  10.371 -0.0221 -0.1957 -0.1675
  721MOL0     C95083   5.260   5.341  10.244  0.2953 -0.1053  0.3190
  721MOL0    Cl95084   5.329   5.275  10.082  0.1746 -0.1184 -0.1597
  721MOL0     C95085   5.904   4.503  10.436  1.3641  0.2925 -0.3655
  721MOL0     C95086   6.034   4.493  10.422 -0.6994  1.1643 -0.7082
  721MOL0     O95087   6.218   4.313  10.615 -1.1876 -0.2415 -0.3645
  721MOL0     C95088   6.485   4.274  10.644 -0.0877  0.0156  0.7969
  721MOL0     C95089   6.622   4.271  10.657 -0.0751  0.4241 -0.2467
  721MOL0     N95090   7.258   4.756  10.373  0.1887 -1.4923 -0.8457
  721MOL0     N95091   7.267   4.880  10.394 -0.5229 -0.3228  0.2314
  721MOL0     C95092   8.090   5.017  10.072 -0.4798 -1.1838 -0.2805
  721MOL0     C95093   8.225   5.052  10.046  0.2713 -0.2217  0.2849
  721MOL0     C95094   8.671   4.992   9.962 -0.4115 -0.0456  0.6459
  721MOL0     C95095   8.754   4.946  10.070 -0.4206 -0.4940 -0.3495
  721MOL0     C95096   8.895   4.948  10.063 -1.0232  0.5691  0.0259
  721MOL0     C95097   8.960   4.984   9.947  0.4167  0.6802 -0.0710
  721MOL0     O95098   9.094   4.988   9.948 -0.2334  0.5106 -0.0038
  721MOL0     C95099   9.164   4.991   9.825  0.7934  0.2849  0.1793
  721MOL0     C95100   9.307   5.011   9.853 -0.8893  0.7073 -0.3357
  721MOL0     C95101   9.382   4.934   9.735  0.0130 -0.3847  1.0021
  721MOL0     C95102   9.538   4.972   9.723 -0.5291 -0.0324 -0.6873
  721MOL0     C95103   9.567   5.106   9.777 -0.1828  0.0521 -0.0007
  721MOL0     C95104   9.601   5.212   9.831 -0.3335  0.1316  0.2986
  721MOL0     C95105   8.876   5.021   9.839  0.1218  0.3777 -1.6451
  721MOL0     C95106   8.737   5.021   9.844  0.0381 -0.1305  0.5982
  721MOL0     H95107   8.386   4.834  10.253 -1.4308 -1.8966  0.5312
  721MOL0     H95108   8.142   4.789  10.317  0.1597  0.0909  0.2814
  721MOL0     H95109   7.915   4.754  10.334  1.0904 -0.1961 -0.8922
  721MOL0     H95110   7.767   4.821  10.284 -0.5972  0.9910 -0.7264
  721MOL0     H95111   7.964   5.027  10.391  2.3022 -1.0984  1.7817
  721MOL0     H95112   7.917   4.915  10.506  0.9885 -2.3624 -2.5661
  721MOL0     H95113   7.664   4.963  10.419 -0.5939  0.2199  3.0570
  721MOL0     H95114   7.741   5.104  10.340 -1.8993 -1.1573 -0.5170
  721MOL0     H95115   7.672   5.041  10.631 -0.6945 -3.5879 -1.2404
  721MOL0     H95116   7.796   5.162  10.593 -0.0969 -2.5143  0.3330
  721MOL0     H95117   7.629   5.278  10.440  1.9003  0.3282  0.6064
  721MOL0     H95118   7.604   5.275  10.618 -0.4834  0.2084 -0.4320
  721MOL0     H95119   7.498   5.090  10.412 -0.9248 -1.6186  0.9371
  721MOL0     H95120   7.400   5.225  10.462  2.0824  3.3668  1.2804
  721MOL0     H95121   7.476   4.994  10.643 -0.6806 -0.1747  2.1841
  721MOL0     H95122   7.415   5.155  10.697 -1.1745  0.4907 -1.6792
  721MOL0     H95123   7.211   5.085  10.537 -1.4506 -1.4026  0.3026
  721MOL0     H95124   7.234   5.001  10.699  0.3269  1.6799  0.7066
  721MOL0     H95125   7.294   4.767  10.694  2.1464  5.4136 -0.1563
  721MOL0     H95126   7.300   4.496  10.581 -0.1639  1.0537  1.2777
  721MOL0     H95127   7.250   4.499  10.407 -4.4558  0.2401 -1.7319
  721MOL0     H95128   7.014   4.569  10.488  0.6003  1.0302 -0.0865
  721MOL0     H95129   7.063   4.545  10.648  3.2972  2.0896  0.5133
  721MOL0     H95130   7.108   4.315  10.448  1.6288 -3.0770  0.6183
  721MOL0     H95131   7.102   4.306  10.617 -0.5080  1.9996  0.2233
  721MOL0     H95132   6.904   4.219  10.558 -3.4403 -0.9485 -2.1597
  721MOL0     H95133   6.874   4.346  10.435  3.5729 -1.7032 -1.1609
  721MOL0     H95134   6.729   4.573  10.533  0.4317  0.8742  2.9020
  721MOL0     H95135   6.478   4.605  10.528 -0.9275  0.7456  0.2897
  721MOL0     H95136   6.114   4.710  10.682 -0.4288 -1.8143  2.9690
  721MOL0     H95137   5.871   4.718  10.689 -1.0880  0.8982 -1.2544
  721MOL0     H95138   5.595   4.542  10.362 -0.5072  0.2245 -1.8438
  721MOL0     H95139   5.681   4.685  10.319 -2.7022  0.7355 -0.7109
  721MOL0     H95140   5.468   4.672  10.523 -0.4789 -1.0401 -0.4601
  721MOL0     H95141   5.439   4.719  10.347 -1.0145  1.3402  0.3006
  721MOL0     H95142   5.609   4.914  10.379  3.2686 -2.3593  1.0587
  721MOL0     H95143   5.609   4.877  10.552 -0.9332  5.1599  0.6215
  721MOL0     H95144   5.333   4.900  10.409  1.4818 -0.7300 -1.2428
  721MOL0     H95145   5.361   4.902  10.576  2.1601 -0.4188  1.3815
  721MOL0     H95146   5.506   5.132  10.444  0.3317 -0.6240 -0.6036
  721MOL0     H95147   5.395   5.122  10.578 -1.9943 -1.1464  0.2227
  721MOL0     H95148   5.204   5.113  10.420  1.6323 -1.1259 -0.3772
  721MOL0     H95149   5.315   5.105  10.286  2.0377  2.9638 -2.0121
  721MOL0     H95150   5.281   5.352  10.452  1.0829  2.7493 -1.4410
  721MOL0     H95151   5.429   5.334  10.370 -0.3770  0.7961  0.2476
  721MOL0     H95152   5.281   5.448  10.244 -1.8277  0.3651  0.6707
  721MOL0     H95153   5.152   5.324  10.244 -0.0253  1.7139 -0.7527
  721MOL0     H95154   5.833   4.447  10.376  1.8963 -2.8131  1.6785
  721MOL0     H95155   6.072   4.435  10.339 -2.6546  3.2724 -3.2417
  721MOL0     H95156   6.417   4.197  10.681 -2.7708  2.0254  0.3742
  721MOL0     H95157   6.667   4.186  10.707 -1.1752 -1.0732 -1.6950
  721MOL0     H95158   8.013   5.080  10.028  2.0935  1.4866 -1.3542
  721MOL0     H95159   8.239   5.126   9.967 -2.6359  0.2386  0.0765
  721MOL0     H95160   8.714   4.925  10.169  1.4503  1.4715  0.9437
  721MOL0     H95161   8.965   4.940  10.146  0.2168  2.6968 -0.7392
  721MOL0     H95162   9.120   5.072   9.766 -1.5108 -0.8112  0.2884
  721MOL0     H95163   9.142   4.896   9.776  0.2281 -0.0782  1.1095
  721MOL0     H95164   9.326   5.118   9.859  2.9821  0.0892  1.7870
  721MOL0     H95165   9.336   4.964   9.948 -2.9822  2.7242  1.4153
  721MOL0     H95166   9.345   4.989   9.648  3.3256  3.9097  1.9681
  721MOL0     H95167   9.372   4.825   9.723 -0.3628 -0.2115 -0.5181
  721MOL0     H95168   9.600   4.904   9.782  0.2213 -0.9573 -2.4561
  721MOL0     H95169   9.572   4.985   9.620  0.4482  3.6187 -0.0435
  721MOL0     H95170   9.647   5.292   9.886  1.2531 -0.7691  0.3563
  721MOL0     H95171   8.931   5.052   9.751  3.6794 -1.1866 -0.1768
  721MOL0     H95172   8.697   5.053   9.749  1.5405  0.2339  0.0551
  722MOL0     O95173   9.935  10.240   3.779 -0.0384  0.0385  0.2418
  722MOL0     C95174   9.956  10.147   3.860  0.4030 -0.1573 -1.0085
  722MOL0     O95175   9.913  10.017   3.849 -0.2637 -0.0874  0.0108
  722MOL0     C95176   9.848   9.969   3.737  0.3696  0.1919  0.6599
  722MOL0     C95177   9.809  10.024   3.608 -0.2275 -0.0494 -0.4406
  722MOL0     C95178   9.725   9.947   3.526  0.2446 -0.2950 -0.3955
  722MOL0     C95179   9.668   9.826   3.570 -0.9168 -0.0928  0.6604
  722MOL0     O95180   9.590   9.751   3.488 -0.3110  0.2604 -0.1369
  722MOL0     C95181   9.473   9.810   3.436  0.5559  0.4744 -1.0495
  722MOL0     C95182   9.390   9.717   3.356  0.1468 -0.2690  0.9168
  722MOL0     C95183   9.328   9.799   3.238 -0.3010  0.6376 -0.3746
  722MOL0     C95184   9.232   9.720   3.151 -0.0480 -0.7279 -1.2184
  722MOL0     C95185   9.290   9.649   3.036  0.2769  0.3865 -0.5864
  722MOL0     C95186   9.187   9.624   2.926 -0.8937  0.7621 -1.1469
  722MOL0     C95187   9.236   9.508   2.839  0.1679  0.1789 -0.2670
  722MOL0     C95188   9.216   9.377   2.902 -0.3035  0.3518  0.3811
  722MOL0     N95189   9.084   9.335   2.881  0.4615 -0.0757  0.0241
  722MOL0     C95190   8.983   9.323   2.980  0.0345 -0.1747 -0.0899
  722MOL0     C95191   8.879   9.264   2.918 -0.2718 -0.1301 -0.8901
  722MOL0     C95192   8.755   9.226   2.995 -0.1668  0.3346  0.5334
  722MOL0     C95193   8.685   9.362   3.063 -0.3678  1.0385 -0.2774
  722MOL0     C95194   8.535   9.338   3.096 -1.0319 -0.8642 -0.5485
  722MOL0     C95195   8.466   9.472   3.131 -0.4140 -0.4993  0.3351
  722MOL0     O95196   8.536   9.554   3.224 -0.5325 -0.4114 -0.3986
  722MOL0     C95197   8.532   9.695   3.226  0.4749  0.4893  0.4836
  722MOL0     C95198   8.475   9.781   3.132  0.5027 -0.1556 -0.4205
  722MOL0     C95199   8.507   9.913   3.115  0.0810 -0.3746 -0.3022
  722MOL0     C95200   8.586   9.973   3.214  0.1833  0.2924  1.1043
  722MOL0     C95201   8.594  10.119   3.212 -0.3356  0.4130 -0.3831
  722MOL0     O95202   8.683  10.171   3.292 -0.8247  0.0224  0.4036
  722MOL0     C95203   8.677  10.314   3.320  0.3598  0.6174 -0.3437
  722MOL0     C95204   8.740  10.358   3.517  0.0731 -0.4007 -0.1570
  722MOL0     C95205   8.747  10.556   3.584  0.1851 -0.2857  0.1379
  722MOL0     C95206   8.686  10.712   3.457 -0.1947  0.1908 -0.1723
  722MOL0     O95207   8.711  10.842   3.494  0.4335  0.1043 -1.2741
  722MOL0     C95208   8.652  10.941   3.414  0.5945  0.7873  0.6322
  722MOL0     C95209   8.493  10.943   3.427  0.5409 -0.2727  0.3870
  722MOL0     C95210   8.419  11.029   3.325  0.5442 -0.4025 -0.5859
  722MOL0     C95211   8.276  11.072   3.369 -0.9750 -0.0505 -1.0046
  722MOL0     C95212   8.202  11.179   3.285 -0.8097  0.1442 -0.1406
  722MOL0     C95213   8.287  11.315   3.281  0.6048  1.4847  0.3263
  722MOL0     C95214   8.209  11.427   3.195  0.8985 -0.5234  0.7703
  722MOL0     C95215   8.249  11.567   3.233 -0.7038 -0.4824  1.0270
  722MOL0    Cl95216   8.431  11.572   3.216  0.3013 -0.1825 -0.0036
  722MOL0     C95217   8.614  10.668   3.265 -0.3696 -0.4741 -0.7802
  722MOL0     C95218   8.613  10.473   3.193  0.3149  1.0434  0.0164
  722MOL0     O95219   8.508  10.182   3.153  0.2369  0.0050  0.0294
  722MOL0     C95220   8.640   9.891   3.327  0.2345  0.3673  0.3067
  722MOL0     C95221   8.607   9.753   3.335 -0.6941 -0.3570  0.0507
  722MOL0     N95222   8.910   9.249   2.782 -0.0677 -0.4592 -0.7554
  722MOL0     N95223   9.035   9.277   2.772 -0.9901  0.0592  0.4192
  722MOL0     C95224   9.707   9.779   3.690  1.0871  0.0767 -1.1806
  722MOL0     C95225   9.794   9.847   3.767 -1.2203  0.5257 -0.5909
  722MOL0     C95226  10.032  10.180   3.984  0.1558  0.3842 -0.7027
  722MOL0     C95227  10.071  10.075   4.067  0.4381  0.1861 -1.1923
  722MOL0     C95228  10.139  10.095   4.194  1.1094 -1.0187 -0.7702
  722MOL0     C95229  10.161  10.233   4.229 -0.1794  0.4344 -0.0116
  722MOL0     O95230  10.212  10.273   4.347  0.8162 -0.0350 -0.2564
  722MOL0     C95231  10.311  10.193   4.408 -0.1188  0.8324 -0.3398
  722MOL0     C95232  10.429  10.142   4.324  0.1091 -0.0965  0.5378
  722MOL0     C95233  10.513  10.258   4.267 -0.9505  0.5745  0.6170
  722MOL0     C95234  10.539  10.384   4.359  0.5961  0.2839  0.2063
  722MOL0     C95235  10.615  10.341   4.481  0.0123  0.2239 -0.3429
  722MOL0     C95236  10.673  10.304   4.578  0.1162 -0.1687  0.1430
  722MOL0     C95237  10.124  10.340   4.144 -0.2244  0.6207 -0.6846
  722MOL0     C95238  10.056  10.313   4.024  0.9882  0.6486  0.3460
  722MOL0     H95239   9.849  10.116   3.567  2.9095 -1.2032 -0.2952
  722MOL0     H95240   9.691   9.988   3.431  0.9146  2.8450  0.6041
  722MOL0     H95241   9.498   9.888   3.364  0.0921 -0.7587 -2.5997
  722MOL0     H95242   9.416   9.856   3.517  3.3106  0.9506  0.7577
  722MOL0     H95243   9.314   9.672   3.421 -0.3592 -0.3794  0.2522
  722MOL0     H95244   9.451   9.640   3.308  2.6146  2.4841 -0.7040
  722MOL0     H95245   9.410   9.847   3.183 -0.0447 -0.8731 -1.3503
  722MOL0     H95246   9.266   9.883   3.271 -0.2817 -0.4307  2.6375
  722MOL0     H95247   9.165   9.658   3.212  1.0632  2.1735  3.4331
  722MOL0     H95248   9.159   9.792   3.112 -0.5854 -0.1262  0.7667
  722MOL0     H95249   9.311   9.550   3.076 -1.0743  0.0835 -0.6061
  722MOL0     H95250   9.376   9.712   3.010  1.2224  0.9797  3.3928
  722MOL0     H95251   9.182   9.709   2.856 -2.1151 -0.1306 -2.1882
  722MOL0     H95252   9.083   9.610   2.957  0.1269 -3.2482  1.0517
  722MOL0     H95253   9.188   9.507   2.741 -1.0214 -0.5782  0.2990
  722MOL0     H95254   9.343   9.520   2.818  0.6589 -2.0417  0.6688
  722MOL0     H95255   9.258   9.352   3.000  2.5745 -1.3135 -1.1216
  722MOL0     H95256   9.273   9.319   2.828  0.0676  1.8859 -0.5796
  722MOL0     H95257   8.984   9.365   3.080  2.5650  1.8128 -0.8499
  722MOL0     H95258   8.782   9.158   3.076  2.4984  1.2694  0.5454
  722MOL0     H95259   8.693   9.171   2.924  0.7433  0.4584 -0.3899
  722MOL0     H95260   8.688   9.454   3.004 -3.5579  1.2644 -0.2338
  722MOL0     H95261   8.740   9.399   3.150 -2.2795  2.1960  0.4929
  722MOL0     H95262   8.475   9.293   3.017 -1.9258  1.6287 -1.3866
  722MOL0     H95263   8.533   9.263   3.175 -0.1937 -0.9987 -0.6458
  722MOL0     H95264   8.362   9.450   3.155 -0.3164 -4.0411 -1.7372
  722MOL0     H95265   8.470   9.525   3.035  2.7051 -0.2480  0.4851
  722MOL0     H95266   8.420   9.728   3.055  1.4008 -2.6709  0.5941
  722MOL0     H95267   8.476   9.968   3.027  0.9470 -1.8752 -1.6117
  722MOL0     H95268   8.783  10.275   3.572  0.1548  1.2195  2.4393
  722MOL0     H95269   8.780  10.573   3.686  3.9903 -0.4538 -0.9058
  722MOL0     H95270   8.681  10.927   3.310 -2.6356 -0.5020 -0.2120
  722MOL0     H95271   8.691  11.036   3.452  2.1204  0.0891  0.8688
  722MOL0     H95272   8.470  10.978   3.528  0.0363  1.7804 -0.4031
  722MOL0     H95273   8.454  10.841   3.415  3.6554 -1.7672  1.8700
  722MOL0     H95274   8.401  10.978   3.230 -4.3603 -2.7662  1.2609
  722MOL0     H95275   8.486  11.113   3.303 -1.0847  1.0898 -0.1245
  722MOL0     H95276   8.207  10.987   3.375 -1.0008  0.0676  2.2508
  722MOL0     H95277   8.280  11.112   3.471  0.2100 -2.0192 -0.2290
  722MOL0     H95278   8.107  11.205   3.332 -2.1330 -0.4875 -2.3160
  722MOL0     H95279   8.170  11.135   3.190 -1.3499 -4.2570  1.8243
  722MOL0     H95280   8.392  11.305   3.252  0.1935 -1.0268 -0.5242
  722MOL0     H95281   8.283  11.363   3.379 -2.6155  1.7931  0.1512
  722MOL0     H95282   8.223  11.409   3.088 -7.5213  1.4514 -1.4035
  722MOL0     H95283   8.100  11.428   3.210  0.3956 -0.0702 -2.2450
  722MOL0     H95284   8.227  11.585   3.339  0.4953  1.5626  0.9711
  722MOL0     H95285   8.198  11.646   3.177  1.0467  1.4253  2.0017
  722MOL0     H95286   8.581  10.757   3.213 -1.0738 -0.2109  0.0957
  722MOL0     H95287   8.591  10.449   3.090  1.1343  4.2456 -1.0256
  722MOL0     H95288   8.702   9.930   3.407 -3.3997  1.6122  2.7699
  722MOL0     H95289   8.659   9.688   3.404  3.4153  2.3291 -0.1257
  722MOL0     H95290   9.674   9.679   3.714 -1.0485  0.9164 -0.3865
  722MOL0     H95291   9.805   9.802   3.865 -1.4018  1.2787 -0.2209
  722MOL0     H95292  10.045   9.976   4.031  0.4972  0.3466 -1.6772
  722MOL0     H95293  10.171  10.013   4.258  2.5967 -0.6055 -0.9318
  722MOL0     H95294  10.257  10.110   4.455  0.4819  0.9859  0.6252
  722MOL0     H95295  10.350  10.257   4.488  0.3637  1.2687 -0.9136
  722MOL0     H95296  10.494  10.074   4.381 -0.4456 -0.0188  1.2810
  722MOL0     H95297  10.389  10.080   4.243  0.7569  0.3329 -0.1229
  722MOL0     H95298  10.463  10.281   4.172 -0.2428  1.8338  0.5265
  722MOL0     H95299  10.608  10.209   4.244 -0.8849 -0.5573  3.0081
  722MOL0     H95300  10.597  10.462   4.310  0.2379  0.5801  0.2445
  722MOL0     H95301  10.441  10.430   4.380 -0.1959 -0.5557 -1.4640
  722MOL0     H95302  10.748  10.262   4.641  2.5984  0.4964 -2.1772
  722MOL0     H95303  10.153  10.442   4.167  1.6402  0.5352 -2.3302
  722MOL0     H95304  10.032  10.392   3.955 -1.7510 -0.5791 -0.2285
  723MOL0     O95305   8.691   8.797   8.181 -0.4772 -0.8253 -0.0349
  723MOL0     C95306   8.646   8.740   8.275 -0.5623  0.7684  1.2017
  723MOL0     O95307   8.709   8.641   8.345  0.1555  0.5017  0.9143
  723MOL0     C95308   8.843   8.592   8.319 -0.1700 -0.1927 -0.6802
  723MOL0     C95309   8.898   8.574   8.190  0.5258 -0.6438 -0.2553
  723MOL0     C95310   9.021   8.505   8.171 -0.1897 -0.8395 -0.0259
  723MOL0     C95311   9.103   8.464   8.278  0.4897  0.4432 -0.1016
  723MOL0     O95312   9.230   8.420   8.272  0.5990  0.2637 -0.4302
  723MOL0     C95313   9.289   8.365   8.148  0.7559 -1.0650 -0.1518
  723MOL0     C95314   9.442   8.339   8.173  0.1416 -0.2015  0.2169
  723MOL0     C95315   9.514   8.308   8.050  0.5136  0.3648 -0.2116
  723MOL0     C95316   9.663   8.320   8.077 -0.4377 -0.2186  1.0232
  723MOL0     C95317   9.757   8.260   7.966 -0.1305 -0.4764 -0.5588
  723MOL0     C95318   9.704   8.325   7.833  0.8447  0.3708  0.0123
  723MOL0     C95319   9.799   8.294   7.719  0.1479 -0.4793  1.8686
  723MOL0     C95320   9.801   8.154   7.658 -0.5473  0.1284 -0.9632
  723MOL0     N95321   9.670   8.131   7.593  0.0419 -0.1410 -0.8814
  723MOL0     C95322   9.633   8.161   7.473  0.1111 -0.3872  0.2768
  723MOL0     C95323   9.511   8.092   7.447 -0.3942 -0.7038 -0.0630
  723MOL0     C95324   9.432   8.098   7.321  0.6309 -0.0904 -0.3927
  723MOL0     C95325   9.511   8.027   7.204  0.3078  0.0711 -0.1638
  723MOL0     C95326   9.560   7.892   7.245 -0.4805  0.4641 -0.5426
  723MOL0     C95327   9.599   7.789   7.142 -0.5127 -0.4237 -0.3725
  723MOL0     O95328   9.671   7.681   7.203  0.4639 -0.0420 -0.4943
  723MOL0     C95329   9.800   7.705   7.223 -0.3403  0.0699  0.3756
  723MOL0     C95330   9.867   7.724   7.349  0.5167  0.4502  1.4055
  723MOL0     C95331  10.005   7.743   7.348  0.4392  0.6599 -0.7061
  723MOL0     C95332  10.073   7.750   7.228 -0.6974 -1.0455  0.2948
  723MOL0     C95333  10.224   7.757   7.233 -0.3040  0.0027  0.0016
  723MOL0     O95334  10.301   7.761   7.119  0.5186  0.7517  0.3905
  723MOL0     C95335  10.445   7.762   7.122 -0.2697  0.4993 -0.0582
  723MOL0     C95336  10.498   7.893   7.109  0.6192  0.7278  0.4695
  723MOL0     C95337  10.641   7.907   7.105  0.0913  0.0508 -0.3805
  723MOL0     C95338  10.728   7.797   7.120 -0.0430 -1.4056  0.5671
  723MOL0     O95339  10.863   7.823   7.129 -0.1216 -0.7870  0.2449
  723MOL0     C95340  10.945   7.725   7.190 -0.8017  0.0345 -0.6823
  723MOL0     C95341  11.077   7.801   7.189  0.1503  0.1550  0.2335
  723MOL0     C95342  11.174   7.756   7.300  0.6984 -0.3994 -0.4822
  723MOL0     C95343  11.153   7.815   7.440 -0.7180 -0.0509  0.7183
  723MOL0     C95344  11.270   7.796   7.525 -0.3044 -0.0378  0.1971
  723MOL0     C95345  11.241   7.862   7.665 -0.0621 -0.2347  0.3113
  723MOL0     C95346  11.355   7.835   7.761 -0.1004  0.6453 -0.0457
  723MOL0     C95347  11.349   7.915   7.882  0.5731 -0.2679  0.5641
  723MOL0    Cl95348  11.210   7.852   7.984  0.1513 -0.3952 -0.2662
  723MOL0     C95349  10.673   7.671   7.128 -0.6967  0.3372 -0.5137
  723MOL0     C95350  10.534   7.656   7.132  0.4014  1.5485  0.4957
  723MOL0     O95351  10.273   7.762   7.345  0.2899 -0.0255 -0.1751
  723MOL0     C95352  10.001   7.747   7.108  0.0598  0.7238  0.4859
  723MOL0     C95353   9.868   7.714   7.101  0.3825  0.3376 -0.5624
  723MOL0     N95354   9.481   8.030   7.563  0.2300  0.5931 -0.4793
  723MOL0     N95355   9.586   8.034   7.644  0.4585  0.0641 -0.3547
  723MOL0     C95356   9.046   8.482   8.405 -0.7648 -0.2078 -0.9904
  723MOL0     C95357   8.921   8.552   8.430  0.3773 -0.3950  0.1785
  723MOL0     C95358   8.510   8.770   8.311  0.8074 -0.4530  0.0835
  723MOL0     C95359   8.450   8.887   8.274  0.2306 -0.0106  0.3801
  723MOL0     C95360   8.311   8.921   8.300 -0.6830  0.2605 -0.2691
  723MOL0     C95361   8.231   8.830   8.365  0.9116  0.6854 -0.4792
  723MOL0     O95362   8.108   8.863   8.415 -0.2352 -1.0233  0.2390
  723MOL0     C95363   8.079   9.008   8.430 -0.4648 -0.1296 -0.3827
  723MOL0     C95364   7.956   9.023   8.522  0.1906  0.1550 -0.2649
  723MOL0     C95365   7.954   8.946   8.655 -0.5241  0.2933 -0.5147
  723MOL0     C95366   7.828   8.985   8.736  0.3662 -0.0021 -0.2930
  723MOL0     C95367   7.830   8.901   8.862  0.2378 -0.2509  0.6119
  723MOL0     C95368   7.820   8.813   8.942  1.3586  0.3409  1.0660
  723MOL0     C95369   8.290   8.711   8.400 -0.8812 -0.2314  0.5018
  723MOL0     C95370   8.427   8.680   8.378  0.2797 -0.0021  0.4966
  723MOL0     H95371   8.837   8.603   8.105 -0.4904  2.1838  1.2963
  723MOL0     H95372   9.068   8.499   8.074 -1.0942  4.7231 -1.1566
  723MOL0     H95373   9.277   8.439   8.069 -3.3383 -0.8422  0.4749
  723MOL0     H95374   9.257   8.264   8.125  3.1013 -1.7564 -0.6774
  723MOL0     H95375   9.448   8.252   8.238 -3.1151 -0.3027  0.5489
  723MOL0     H95376   9.487   8.428   8.217 -2.5096  0.1397  2.5187
  723MOL0     H95377   9.484   8.375   7.968 -1.6680  1.1901  1.1577
  723MOL0     H95378   9.497   8.207   8.011 -0.7626  1.4629 -2.7467
  723MOL0     H95379   9.694   8.425   8.073  0.1141 -0.4174 -2.2806
  723MOL0     H95380   9.686   8.283   8.178 -0.9769 -4.2472 -0.1589
  723MOL0     H95381   9.767   8.151   7.973  2.4929 -0.6254 -3.9219
  723MOL0     H95382   9.857   8.298   7.990 -0.0166 -2.5365  3.0829
  723MOL0     H95383   9.702   8.435   7.836 -3.0302  0.4200  0.7011
  723MOL0     H95384   9.603   8.300   7.799  0.5396  1.2498  0.2233
  723MOL0     H95385   9.788   8.356   7.629  0.2008 -2.2397  0.5864
  723MOL0     H95386   9.901   8.317   7.752  0.9793  1.4773 -1.4935
  723MOL0     H95387   9.807   8.091   7.747 -2.9521  1.9113  0.5694
  723MOL0     H95388   9.880   8.132   7.584 -0.2279  0.7279 -0.8023
  723MOL0     H95389   9.677   8.213   7.388  2.0339 -2.2995  0.0214
  723MOL0     H95390   9.407   8.202   7.296 -1.0417  0.0237  1.5454
  723MOL0     H95391   9.335   8.050   7.334 -0.9126  2.3662 -1.9602
  723MOL0     H95392   9.591   8.090   7.165 -1.8812  0.2567 -5.1079
  723MOL0     H95393   9.449   8.034   7.115 -0.4499  1.1032  0.4208
  723MOL0     H95394   9.653   7.905   7.302  0.5188 -1.1277 -1.7354
  723MOL0     H95395   9.478   7.857   7.309 -1.9094  2.5933 -1.1350
  723MOL0     H95396   9.657   7.839   7.063  1.2350  0.3136  1.2824
  723MOL0     H95397   9.502   7.761   7.102 -0.0378 -0.3779 -1.5987
  723MOL0     H95398   9.823   7.726   7.448  0.4042 -0.1120  1.3739
  723MOL0     H95399  10.053   7.751   7.445 -0.3308  0.7704 -0.3272
  723MOL0     H95400  10.418   7.964   7.088 -0.0570 -0.1755 -0.1307
  723MOL0     H95401  10.688   8.003   7.089  1.9312 -1.0380 -2.1205
  723MOL0     H95402  10.961   7.636   7.129  3.5420 -0.0461  0.2476
  723MOL0     H95403  10.909   7.707   7.292  2.1222  1.8878  0.8164
  723MOL0     H95404  11.058   7.908   7.197  0.3000  0.0742  1.9534
  723MOL0     H95405  11.125   7.778   7.093 -0.5471 -1.4484  0.2345
  723MOL0     H95406  11.276   7.782   7.270  0.2166 -0.0990 -1.9554
  723MOL0     H95407  11.181   7.647   7.309  0.5937 -0.3811 -0.1977
  723MOL0     H95408  11.119   7.919   7.445  2.5744  1.1351  1.1183
  723MOL0     H95409  11.069   7.757   7.480 -2.0702 -0.2024 -2.1120
  723MOL0     H95410  11.368   7.822   7.484  0.0939 -2.3422 -0.4427
  723MOL0     H95411  11.267   7.688   7.541 -1.7929 -0.2512 -1.2339
  723MOL0     H95412  11.146   7.818   7.695 -0.8994  1.5822  0.4294
  723MOL0     H95413  11.232   7.970   7.652  0.6716 -0.1520  0.4060
  723MOL0     H95414  11.360   7.728   7.782  1.6785  0.8494  0.6651
  723MOL0     H95415  11.449   7.863   7.713  0.6402  0.0870  1.0580
  723MOL0     H95416  11.324   8.020   7.860  1.2983 -0.0929  0.5644
  723MOL0     H95417  11.443   7.892   7.931 -0.1775 -4.5618  0.3260
  723MOL0     H95418  10.739   7.586   7.139 -0.0230  0.9845  0.6369
  723MOL0     H95419  10.485   7.562   7.155 -0.1939  1.0909 -2.2922
  723MOL0     H95420  10.045   7.754   7.009 -1.0837  0.3508 -0.0641
  723MOL0     H95421   9.820   7.724   7.004  1.9743  0.0769 -1.4176
  723MOL0     H95422   9.095   8.449   8.496  4.0138  3.1543 -1.9686
  723MOL0     H95423   8.883   8.560   8.532 -1.5713 -0.6116 -0.4852
  723MOL0     H95424   8.512   8.959   8.222 -0.7542  0.5328 -0.0718
  723MOL0     H95425   8.283   9.021   8.268 -0.8943  1.2826  2.7572
  723MOL0     H95426   8.056   9.055   8.334 -2.8335 -2.8605 -1.2921
  723MOL0     H95427   8.154   9.060   8.492 -0.2945 -0.1684 -0.5566
  723MOL0     H95428   7.951   9.130   8.546 -2.1642 -0.2855  1.5773
  723MOL0     H95429   7.870   8.986   8.465  1.3349 -2.1284 -0.6048
  723MOL0     H95430   8.042   8.932   8.718 -0.3211  1.8309 -0.4216
  723MOL0     H95431   7.938   8.845   8.616 -2.5262  1.1294 -2.0482
  723MOL0     H95432   7.840   9.083   8.782 -1.3618  0.0603  0.0836
  723MOL0     H95433   7.734   8.969   8.682  0.8601 -0.1578 -1.1220
  723MOL0     H95434   7.829   8.743   9.022 -0.5669 -2.5490 -1.0415
  723MOL0     H95435   8.240   8.639   8.464  0.4114 -0.6836  1.0534
  723MOL0     H95436   8.471   8.591   8.422  0.8292 -1.5232 -2.8281
  724MOL0     O95437   0.192   5.777  11.027  0.3264 -0.7375  0.2593
  724MOL0     C95438   0.251   5.879  11.068  0.2465 -0.2036  0.0361
  724MOL0     O95439   0.320   5.888  11.178  0.6206 -0.3331 -0.0036
  724MOL0     C95440   0.351   5.770  11.241  0.6511  0.0125 -0.5863
  724MOL0     C95441   0.248   5.673  11.269 -0.6596  0.1189  0.4551
  724MOL0     C95442   0.281   5.541  11.299  0.7887 -0.6412  0.4187
  724MOL0     C95443   0.414   5.510  11.320 -0.2487  0.0433  0.8977
  724MOL0     O95444   0.467   5.381  11.320  1.2969  0.1082  0.9751
  724MOL0     C95445   0.382   5.269  11.335 -0.5695 -0.2354 -0.1647
  724MOL0     C95446   0.472   5.145  11.353 -0.3972  0.0799  0.3117
  724MOL0     C95447   0.394   5.018  11.362  0.5302 -1.1718 -0.6925
  724MOL0     C95448   0.328   5.013  11.509 -0.5272 -0.9055 -0.0133
  724MOL0     C95449   0.223   4.910  11.535 -0.6197  0.1389  0.4981
  724MOL0     C95450   0.167   4.901  11.677 -0.0093 -0.6542  0.2110
  724MOL0     C95451   0.074   4.780  11.681 -0.5028 -0.6070 -0.6667
  724MOL0     C95452   0.036   4.727  11.820 -0.4896 -0.0067  0.9375
  724MOL0     N95453  -0.053   4.808  11.903  0.0060 -0.7339  0.6196
  724MOL0     C95454  -0.123   4.917  11.856 -0.3334 -0.0595  0.5305
  724MOL0     C95455  -0.182   4.974  11.967 -1.0187  0.7304  0.7860
  724MOL0     C95456  -0.268   5.092  11.968  1.4678 -0.3726 -0.8781
  724MOL0     C95457  -0.411   5.038  11.988 -0.3672 -0.6281  0.2989
  724MOL0     C95458  -0.509   5.151  11.999 -0.3492 -0.2463 -1.2444
  724MOL0     C95459  -0.662   5.108  12.017  0.5156 -0.5838  0.2060
  724MOL0     O95460  -0.753   5.227  12.014  0.2675  0.7147 -0.1758
  724MOL0     C95461  -0.792   5.289  11.896  0.3445  0.4382  0.7012
  724MOL0     C95462  -0.783   5.229  11.770 -0.1855  0.1010 -1.2429
  724MOL0     C95463  -0.847   5.285  11.660  0.1995 -0.0010 -0.2444
  724MOL0     C95464  -0.895   5.422  11.660 -0.5626 -0.1480 -0.0064
  724MOL0     C95465  -0.941   5.494  11.534  0.0217  0.1197 -0.8493
  724MOL0     O95466  -0.939   5.418  11.429  0.2909  0.2801  0.2567
  724MOL0     C95467  -0.979   5.473  11.315  0.4402  0.1555  0.1083
  724MOL0     C95468  -0.904   5.565  11.250  1.0046  0.3584  0.5778
  724MOL0     C95469  -0.959   5.614  11.124 -0.0838 -0.1556 -0.3348
  724MOL0     C95470  -1.056   5.545  11.054 -0.4356  0.3749 -0.5355
  724MOL0     O95471  -1.113   5.584  10.938  0.8312  0.0730 -0.4561
  724MOL0     C95472  -1.094   5.717  10.884  0.7154  0.6422  0.4631
  724MOL0     C95473  -1.194   5.725  10.763  0.0163  0.7043 -0.2112
  724MOL0     C95474  -1.147   5.852  10.674 -0.1224  0.6440  0.3042
  724MOL0     C95475  -1.226   5.980  10.705 -0.0155  0.4491  0.7133
  724MOL0     C95476  -1.184   6.097  10.616  0.4453  0.5361 -0.4224
  724MOL0     C95477  -1.254   6.224  10.653  0.3198  0.4939  0.3909
  724MOL0     C95478  -1.193   6.347  10.578  0.8653  0.4765 -0.8676
  724MOL0     C95479  -1.291   6.386  10.459 -0.6913  0.6396  0.5395
  724MOL0    Cl95480  -1.235   6.538  10.380  0.4006  0.5290  0.2647
  724MOL0     C95481  -1.121   5.449  11.124  0.3486  0.3568  0.3854
  724MOL0     C95482  -1.085   5.413  11.249  0.6516 -0.0082 -0.7737
  724MOL0     O95483  -0.979   5.609  11.542 -0.3700  0.0550 -0.5691
  724MOL0     C95484  -0.866   5.489  11.778 -0.2730 -0.0615  0.0034
  724MOL0     C95485  -0.828   5.423  11.898 -0.0456 -0.3065  0.1802
  724MOL0     N95486  -0.134   4.902  12.075  0.3970  0.1425  0.1567
  724MOL0     N95487  -0.070   4.806  12.041 -0.0101  0.3052  0.1233
  724MOL0     C95488   0.513   5.611  11.328 -0.0220  0.9869 -1.0102
  724MOL0     C95489   0.483   5.737  11.277  0.4177  0.2770  0.2447
  724MOL0     C95490   0.226   6.004  10.997 -0.0223  0.1421 -0.0210
  724MOL0     C95491   0.200   6.012  10.859 -1.2600 -0.3643  0.0393
  724MOL0     C95492   0.207   6.135  10.792  0.0175  0.7555  0.3437
  724MOL0     C95493   0.223   6.247  10.866 -0.1797 -1.1180 -1.1930
  724MOL0     O95494   0.228   6.374  10.812 -0.0956  0.9669  0.3041
  724MOL0     C95495   0.121   6.396  10.724 -0.7969 -0.3487 -0.5731
  724MOL0     C95496   0.116   6.545  10.719  0.4614  0.1546 -0.5427
  724MOL0     C95497  -0.003   6.576  10.618 -0.2122 -0.5592 -0.6455
  724MOL0     C95498  -0.043   6.728  10.608  0.0001  0.2069 -0.3191
  724MOL0     C95499  -0.029   6.804  10.732 -0.1062  0.2439 -0.8163
  724MOL0     C95500  -0.022   6.883  10.821  0.3825  0.4891 -0.5634
  724MOL0     C95501   0.231   6.248  11.000 -0.6997  0.5223  1.2038
  724MOL0     C95502   0.235   6.122  11.063 -0.3109 -0.3936 -0.4123
  724MOL0     H95503   0.147   5.707  11.252  0.9644  3.6736 -4.0140
  724MOL0     H95504   0.209   5.460  11.301 -2.9156  2.3621  0.7811
  724MOL0     H95505   0.332   5.252  11.239 -0.1475 -0.7148 -0.3008
  724MOL0     H95506   0.311   5.286  11.416  1.7764  0.0969  1.9376
  724MOL0     H95507   0.541   5.164  11.436 -0.4703  4.4008 -0.3833
  724MOL0     H95508   0.527   5.128  11.260 -2.0490  0.6725 -0.8133
  724MOL0     H95509   0.434   4.922  11.329 -2.3147 -2.7377  0.0813
  724MOL0     H95510   0.309   5.031  11.295 -1.1936 -1.2188  1.3498
  724MOL0     H95511   0.404   5.004  11.587 -1.2942  1.8188  1.1580
  724MOL0     H95512   0.287   5.112  11.531 -2.2475 -2.2916  3.8808
  724MOL0     H95513   0.266   4.815  11.502  0.8834  0.6269  0.9719
  724MOL0     H95514   0.134   4.940  11.479  0.1801  0.8022 -0.4437
  724MOL0     H95515   0.104   4.990  11.685  3.6292  2.1571  0.2596
  724MOL0     H95516   0.235   4.910  11.762 -1.5136 -1.2945  1.5309
  724MOL0     H95517  -0.007   4.791  11.609  0.6832 -0.3643 -2.0102
  724MOL0     H95518   0.140   4.700  11.649  0.3989 -1.8538  3.5824
  724MOL0     H95519   0.126   4.719  11.883 -0.5613 -1.1552  0.9169
  724MOL0     H95520  -0.009   4.627  11.813  0.5427 -0.5152  1.1981
  724MOL0     H95521  -0.131   4.950  11.753  2.6472  0.9885  0.5262
  724MOL0     H95522  -0.260   5.149  11.875  0.0116  2.0049  0.3730
  724MOL0     H95523  -0.239   5.161  12.047 -3.6465 -1.4189  2.3431
  724MOL0     H95524  -0.417   4.964  12.068  0.5911  1.0312  1.9647
  724MOL0     H95525  -0.439   4.981  11.898 -0.7118 -1.0211  0.6495
  724MOL0     H95526  -0.482   5.207  12.090 -2.9939 -2.6771  1.2474
  724MOL0     H95527  -0.505   5.210  11.907  0.0761  1.4996 -0.1701
  724MOL0     H95528  -0.660   5.070  12.120  2.4797 -2.2523 -0.3890
  724MOL0     H95529  -0.695   5.035  11.942 -1.0923 -1.5165  1.7450
  724MOL0     H95530  -0.756   5.124  11.765 -1.7418 -0.6123  2.1831
  724MOL0     H95531  -0.848   5.224  11.570 -0.7167  1.1518 -1.0538
  724MOL0     H95532  -0.809   5.601  11.291  0.4668  2.1502  0.3582
  724MOL0     H95533  -0.903   5.688  11.068  1.0978 -2.7569 -2.8352
  724MOL0     H95534  -0.993   5.732  10.846  0.9714  0.1255  0.9364
  724MOL0     H95535  -1.104   5.803  10.951 -0.1064  1.5592 -0.8078
  724MOL0     H95536  -1.299   5.728  10.794  0.3529  0.1380  1.0503
  724MOL0     H95537  -1.180   5.638  10.699 -2.6528 -0.6552  0.9223
  724MOL0     H95538  -1.170   5.847  10.567 -0.8846  1.9721  0.3958
  724MOL0     H95539  -1.039   5.872  10.675  0.4152 -1.8298 -0.6253
  724MOL0     H95540  -1.331   5.952  10.695  0.3877 -1.4960  1.4832
  724MOL0     H95541  -1.211   6.000  10.812  0.1253 -3.9012  1.7239
  724MOL0     H95542  -1.193   6.087  10.508  1.0240  1.3644 -0.5532
  724MOL0     H95543  -1.079   6.112  10.642  0.0626  1.7956  0.5043
  724MOL0     H95544  -1.220   6.233  10.757  4.8384 -0.8455 -0.7694
  724MOL0     H95545  -1.359   6.199  10.636 -0.2918  0.2666  3.7592
  724MOL0     H95546  -1.195   6.427  10.653  0.2833  0.5481 -0.9568
  724MOL0     H95547  -1.091   6.341  10.541  1.6280 -2.0884  1.3762
  724MOL0     H95548  -1.395   6.396  10.490 -1.0688 -1.6165  0.1753
  724MOL0     H95549  -1.299   6.305  10.386 -0.7777  1.5169 -0.4305
  724MOL0     H95550  -1.203   5.398  11.075 -0.2705 -1.5969  3.2592
  724MOL0     H95551  -1.128   5.328  11.300  0.8187 -1.1925 -2.5122
  724MOL0     H95552  -0.883   5.596  11.777  2.8782  0.5266 -1.0488
  724MOL0     H95553  -0.833   5.487  11.986 -0.6454  2.8560 -1.9761
  724MOL0     H95554   0.611   5.572  11.357  0.1716  0.3882 -2.3669
  724MOL0     H95555   0.567   5.803  11.259  2.5674 -2.7564 -2.0588
  724MOL0     H95556   0.176   5.922  10.803  0.2151 -1.3982  0.9728
  724MOL0     H95557   0.203   6.145  10.684  2.0400  2.3520  0.3426
  724MOL0     H95558   0.032   6.358  10.775  0.7392  0.8777  3.3581
  724MOL0     H95559   0.143   6.360  10.623  0.7661  4.0728 -2.0659
  724MOL0     H95560   0.085   6.592  10.813 -0.3862 -1.6881  0.1312
  724MOL0     H95561   0.206   6.603  10.695  0.6631  0.1354  0.1467
  724MOL0     H95562  -0.086   6.530  10.674 -0.0696 -1.5168 -1.1972
  724MOL0     H95563   0.005   6.526  10.521  0.7145  1.8452 -1.8811
  724MOL0     H95564   0.021   6.773  10.531 -1.3936  1.5574 -0.7393
  724MOL0     H95565  -0.146   6.737  10.574  0.1046  0.6099 -0.5407
  724MOL0     H95566  -0.009   6.945  10.908 -2.0187 -1.3893  1.2628
  724MOL0     H95567   0.253   6.333  11.064  1.0525  0.7169  0.3984
  724MOL0     H95568   0.258   6.128  11.169  1.6131  1.3221 -0.8497
  725MOL0     O95569   1.620   8.024   9.060 -0.0566 -0.4037  0.3642
  725MOL0     C95570   1.597   7.982   8.944 -0.2773  0.2748 -0.0449
  725MOL0     O95571   1.647   8.027   8.828  1.0601 -0.5832 -1.2245
  725MOL0     C95572   1.746   8.120   8.836 -0.2364  1.2471 -0.8388
  725MOL0     C95573   1.750   8.208   8.734 -0.5228 -0.3045  0.1488
  725MOL0     C95574   1.864   8.294   8.723  0.1608  0.3014 -0.5732
  725MOL0     C95575   1.969   8.278   8.815 -1.0245 -0.7021 -0.1982
  725MOL0     O95576   2.064   8.382   8.820 -0.6894 -0.3559  0.0870
  725MOL0     C95577   2.082   8.497   8.732 -0.5791  0.0463 -0.4148
  725MOL0     C95578   2.145   8.472   8.589  0.0736  0.6460  0.0451
  725MOL0     C95579   2.281   8.530   8.563  0.0022  0.7073 -1.1275
  725MOL0     C95580   2.347   8.454   8.457 -0.6744  0.6945  0.0953
  725MOL0     C95581   2.481   8.513   8.422 -0.1412  0.5195 -0.4873
  725MOL0     C95582   2.558   8.451   8.300 -0.1121 -0.7128 -0.1825
  725MOL0     C95583   2.672   8.545   8.254  0.1468 -0.1105  0.5334
  725MOL0     C95584   2.717   8.495   8.121 -0.1272  0.3811 -0.1722
  725MOL0     N95585   2.815   8.584   8.068 -0.3002  0.6564  0.2557
  725MOL0     C95586   2.872   8.580   7.935  0.4132  0.2419 -0.1588
  725MOL0     C95587   2.950   8.689   7.921  0.0174  0.4483  0.7118
  725MOL0     C95588   3.043   8.740   7.804 -0.4232 -0.3227  0.0382
  725MOL0     C95589   3.171   8.808   7.860  0.4614 -0.0766 -0.6303
  725MOL0     C95590   3.294   8.825   7.768  0.0216  0.5434 -0.4416
  725MOL0     C95591   3.266   8.896   7.635  0.8349  0.1477  0.7105
  725MOL0     O95592   3.389   8.904   7.564 -0.3631 -0.5578  0.0522
  725MOL0     C95593   3.495   8.954   7.638 -0.7778 -1.1153  0.2682
  725MOL0     C95594   3.588   8.863   7.696  0.6860 -0.4509 -0.2673
  725MOL0     C95595   3.676   8.925   7.790 -0.5119  0.9384 -0.8578
  725MOL0     C95596   3.687   9.059   7.814  0.1193 -0.1405 -0.0266
  725MOL0     C95597   3.775   9.108   7.913  0.1120  0.2891  0.6001
  725MOL0     O95598   3.719   9.207   7.989  0.1324  0.1354 -0.6567
  725MOL0     C95599   3.780   9.280   8.093 -0.5167 -1.2508 -0.2456
  725MOL0     C95600   3.920   9.290   8.124 -0.1684  0.8253  0.0284
  725MOL0     C95601   3.959   9.366   8.231 -0.0364 -0.4304 -0.2531
  725MOL0     C95602   3.873   9.463   8.297  0.5979 -0.0019 -0.0429
  725MOL0     O95603   3.911   9.540   8.408  0.1151  0.6491 -0.9664
  725MOL0     C95604   3.881   9.485   8.538 -0.5700  0.3553  0.0924
  725MOL0     C95605   3.861   9.578   8.645  0.2952  0.1559 -0.8905
  725MOL0     C95606   3.713   9.623   8.649  0.2874  0.7051  0.1738
  725MOL0     C95607   3.691   9.743   8.747 -0.1618 -0.0896 -0.3475
  725MOL0     C95608   3.554   9.746   8.804 -0.1291  0.5420 -0.0624
  725MOL0     C95609   3.509   9.894   8.839  0.2872  0.3245 -0.0228
  725MOL0     C95610   3.561   9.955   8.970  0.5131 -0.6683 -0.7451
  725MOL0     C95611   3.519  10.105   8.974 -0.5677 -0.5825 -0.3692
  725MOL0    Cl95612   3.592  10.210   8.844  0.3354 -0.5350 -0.1448
  725MOL0     C95613   3.735   9.457   8.262  0.1833  0.2053 -1.5602
  725MOL0     C95614   3.690   9.365   8.164 -0.0239 -1.0667  0.3237
  725MOL0     O95615   3.885   9.061   7.926 -0.0344 -0.3775 -0.8302
  725MOL0     C95616   3.595   9.140   7.761  0.3378 -0.2098 -0.1441
  725MOL0     C95617   3.503   9.093   7.669  0.8025  0.3071 -0.7242
  725MOL0     N95618   2.941   8.751   8.040  0.1887 -0.0938 -0.1022
  725MOL0     N95619   2.877   8.685   8.128  0.3492  0.9599 -0.1153
  725MOL0     C95620   1.974   8.178   8.915 -0.4133  0.2894  0.5270
  725MOL0     C95621   1.863   8.089   8.911 -0.0989  0.4495 -0.0928
  725MOL0     C95622   1.506   7.866   8.937  0.2456  0.0469 -0.1331
  725MOL0     C95623   1.439   7.816   9.050  0.2662 -0.3407 -0.1559
  725MOL0     C95624   1.343   7.715   9.043  0.0535  0.8184  0.2768
  725MOL0     C95625   1.309   7.662   8.914  0.0021 -0.6436  0.2808
  725MOL0     O95626   1.214   7.562   8.897  0.6661  0.5087 -0.0549
  725MOL0     C95627   1.132   7.519   9.010 -0.2168  0.6075  0.2638
  725MOL0     C95628   1.033   7.410   8.973 -1.1395  0.6257 -0.0269
  725MOL0     C95629   0.968   7.336   9.089 -1.7281  0.1728 -1.0807
  725MOL0     C95630   0.901   7.212   9.047  0.6455 -0.5001  0.0913
  725MOL0     C95631   0.814   7.155   9.154  1.1771 -1.0285  0.5531
  725MOL0     C95632   0.759   7.106   9.257 -0.4719  0.0142  0.7300
  725MOL0     C95633   1.371   7.719   8.803  0.5751  0.6237 -0.1342
  725MOL0     C95634   1.467   7.815   8.809  0.6676 -0.4123  0.6153
  725MOL0     H95635   1.663   8.219   8.669  0.2266 -0.5880 -0.9254
  725MOL0     H95636   1.872   8.371   8.647 -1.6950  1.8221  0.6746
  725MOL0     H95637   2.139   8.575   8.782  0.1815  0.5495 -1.9868
  725MOL0     H95638   1.995   8.563   8.730 -0.3061  0.3967 -1.4149
  725MOL0     H95639   2.081   8.502   8.505 -0.8947 -1.1442  0.0897
  725MOL0     H95640   2.144   8.364   8.569  1.2455  0.6099  0.1212
  725MOL0     H95641   2.342   8.522   8.654 -1.2177 -0.6639 -0.3608
  725MOL0     H95642   2.255   8.631   8.532 -4.7817 -0.4258 -1.6932
  725MOL0     H95643   2.357   8.357   8.506 -1.4939  1.2593  1.4458
  725MOL0     H95644   2.285   8.454   8.367 -2.7541 -0.5205  1.4429
  725MOL0     H95645   2.554   8.509   8.503 -0.7862  2.3484  0.2272
  725MOL0     H95646   2.475   8.622   8.414 -0.0066  0.4978 -0.9355
  725MOL0     H95647   2.492   8.444   8.213 -0.8259  1.5228  0.1268
  725MOL0     H95648   2.595   8.356   8.341 -0.9842  0.1700  2.9838
  725MOL0     H95649   2.632   8.646   8.245  0.0591 -0.1564  0.4062
  725MOL0     H95650   2.753   8.559   8.326  0.1830  2.6044  0.0540
  725MOL0     H95651   2.638   8.481   8.046  0.4077  0.3432 -0.7367
  725MOL0     H95652   2.765   8.397   8.128  1.1875  1.1069  1.8568
  725MOL0     H95653   2.858   8.504   7.859  0.8684 -1.1515  1.1044
  725MOL0     H95654   2.980   8.803   7.740  0.9124 -1.2100 -2.2768
  725MOL0     H95655   3.075   8.663   7.734 -1.2466  0.4667 -1.2508
  725MOL0     H95656   3.195   8.772   7.961 -3.3629 -0.9307  0.1344
  725MOL0     H95657   3.142   8.912   7.877 -0.0525 -0.7190  3.6758
  725MOL0     H95658   3.364   8.886   7.826 -0.5235  1.1308 -0.3849
  725MOL0     H95659   3.353   8.733   7.761  2.2814  1.7865  0.8390
  725MOL0     H95660   3.229   8.999   7.642 -3.2065 -0.8996 -2.0215
  725MOL0     H95661   3.187   8.842   7.582 -0.0404  2.9310 -1.0186
  725MOL0     H95662   3.610   8.758   7.676  3.2724  0.0262 -0.2739
  725MOL0     H95663   3.739   8.863   7.853 -1.7894  1.9522  1.5960
  725MOL0     H95664   3.995   9.239   8.064  1.4404  3.3686 -0.2746
  725MOL0     H95665   4.060   9.371   8.270  0.5028 -1.5442 -1.4455
  725MOL0     H95666   3.954   9.410   8.570  2.4275  3.4568  1.1732
  725MOL0     H95667   3.791   9.425   8.524 -0.8670  0.2658  2.0985
  725MOL0     H95668   3.932   9.660   8.632 -0.0979  0.2584 -2.7297
  725MOL0     H95669   3.891   9.523   8.735 -0.2502  1.2663 -0.0036
  725MOL0     H95670   3.659   9.535   8.683 -1.3449  1.1455 -1.1582
  725MOL0     H95671   3.667   9.659   8.556 -3.2445  3.5634  2.7349
  725MOL0     H95672   3.756   9.728   8.833 -1.7902 -1.9944  0.6273
  725MOL0     H95673   3.714   9.831   8.686  1.5168 -0.6435 -0.5586
  725MOL0     H95674   3.550   9.682   8.893  1.4398  0.3197 -0.1204
  725MOL0     H95675   3.476   9.707   8.737  0.8755 -2.0058  0.1186
  725MOL0     H95676   3.399   9.897   8.835  0.2713  0.9327  0.6566
  725MOL0     H95677   3.542   9.962   8.760  0.9541  1.9058  1.5513
  725MOL0     H95678   3.506   9.902   9.049 -2.2084  0.9123 -1.4442
  725MOL0     H95679   3.670   9.948   8.982  0.5371  0.3371 -0.3041
  725MOL0     H95680   3.556  10.141   9.071 -0.4655  0.2115 -0.6976
  725MOL0     H95681   3.410  10.108   8.961 -0.5043  1.6194 -0.7247
  725MOL0     H95682   3.659   9.519   8.308  2.1421  1.6302 -0.0612
  725MOL0     H95683   3.583   9.347   8.161  0.0619 -1.6954  0.7110
  725MOL0     H95684   3.593   9.241   7.800 -1.6573 -0.6967  1.1186
  725MOL0     H95685   3.441   9.173   7.631  1.6991  2.7306  2.4730
  725MOL0     H95686   2.054   8.171   8.988 -0.3382  0.2299  0.4393
  725MOL0     H95687   1.862   8.009   8.984 -1.7887  0.9707  0.5142
  725MOL0     H95688   1.448   7.861   9.148 -0.5571  0.8485 -0.5978
  725MOL0     H95689   1.295   7.693   9.137 -0.1618 -3.3212 -0.6385
  725MOL0     H95690   1.073   7.604   9.045 -0.7934  0.9249 -1.3894
  725MOL0     H95691   1.199   7.490   9.091  1.4588 -0.2957 -1.3555
  725MOL0     H95692   0.954   7.459   8.917  0.7366 -0.0758 -3.5672
  725MOL0     H95693   1.073   7.337   8.902 -0.8591 -1.4654  2.1442
  725MOL0     H95694   0.895   7.406   9.130 -1.0883  0.2745 -0.1111
  725MOL0     H95695   1.037   7.302   9.166 -3.1003 -1.8108 -0.6581
  725MOL0     H95696   0.846   7.228   8.954  2.0823  0.1390 -0.6783
  725MOL0     H95697   0.978   7.139   9.019  3.1724  0.6532  3.3357
  725MOL0     H95698   0.723   7.053   9.342 -1.9682 -0.4764 -0.1612
  725MOL0     H95699   1.322   7.683   8.713 -0.3636 -3.4791  1.7642
  725MOL0     H95700   1.496   7.870   8.720  1.6203 -0.9106  0.6027
  726MOL0     O95701   0.049   5.362   6.176 -0.7229 -0.2532  1.1819
  726MOL0     C95702   0.109   5.414   6.080 -0.0461 -0.6715  0.4052
  726MOL0     O95703   0.179   5.531   6.090 -0.1690 -0.1227 -0.0881
  726MOL0     C95704   0.218   5.578   6.215 -0.0828  0.3190  0.5784
  726MOL0     C95705   0.255   5.494   6.320 -0.5191 -0.5161 -0.4408
  726MOL0     C95706   0.280   5.530   6.450 -0.2294 -0.2285 -0.0822
  726MOL0     C95707   0.284   5.664   6.476  0.0814 -0.4485  0.1966
  726MOL0     O95708   0.325   5.694   6.601  0.2787  0.7630 -0.3967
  726MOL0     C95709   0.305   5.825   6.643  0.4414  0.1231  0.7414
  726MOL0     C95710   0.336   5.838   6.789  0.1265  0.2943 -0.1701
  726MOL0     C95711   0.324   5.983   6.846  0.1659  0.1416  0.1630
  726MOL0     C95712   0.187   6.048   6.831  0.1342  0.0009  0.2149
  726MOL0     C95713   0.182   6.197   6.874 -0.0574  0.1785  1.1603
  726MOL0     C95714   0.035   6.249   6.867 -0.1830  0.3871 -0.0841
  726MOL0     C95715   0.031   6.377   6.949 -0.1354  0.3986  0.6190
  726MOL0     C95716  -0.082   6.482   6.908 -0.5499  0.8573  0.8512
  726MOL0     N95717  -0.217   6.416   6.920  0.4953 -0.0715 -0.5449
  726MOL0     C95718  -0.278   6.344   7.021 -0.1999 -0.3301  1.0485
  726MOL0     C95719  -0.408   6.331   6.999 -0.4829 -0.0715  0.0156
  726MOL0     C95720  -0.507   6.267   7.091 -0.3281  1.1082 -0.3819
  726MOL0     C95721  -0.627   6.195   7.007 -0.1741 -0.2980  0.2918
  726MOL0     C95722  -0.741   6.294   6.983 -0.3272 -0.6465 -0.2801
  726MOL0     C95723  -0.861   6.216   6.912  0.9878  0.6985  0.6841
  726MOL0     O95724  -0.974   6.299   6.900  0.7734  0.0597  0.4321
  726MOL0     C95725  -1.096   6.240   6.861 -0.5493  0.1959  0.6651
  726MOL0     C95726  -1.102   6.125   6.786  0.2013  1.0658 -0.1113
  726MOL0     C95727  -1.230   6.072   6.756 -0.4858  0.7178  0.6303
  726MOL0     C95728  -1.349   6.139   6.785  0.3086 -1.3947 -0.1881
  726MOL0     C95729  -1.481   6.094   6.745  0.7147 -0.4258  0.8894
  726MOL0     O95730  -1.590   6.172   6.779 -0.5950 -0.3061 -0.0323
  726MOL0     C95731  -1.720   6.122   6.750  0.3305 -0.5264 -0.2956
  726MOL0     C95732  -1.772   6.018   6.824 -1.0206  1.0723 -0.4676
  726MOL0     C95733  -1.901   5.964   6.799 -0.4192  0.3064 -0.1733
  726MOL0     C95734  -1.979   6.012   6.701 -0.2780 -0.7311  0.7573
  726MOL0     O95735  -2.103   5.958   6.673 -0.1737  0.1812  1.1443
  726MOL0     C95736  -2.198   6.039   6.598  0.1411 -0.2360 -0.2680
  726MOL0     C95737  -2.342   5.978   6.601  0.3740  0.3027 -1.2997
  726MOL0     C95738  -2.444   6.063   6.521 -0.0816  0.3488  0.2904
  726MOL0     C95739  -2.436   6.026   6.374 -0.8119 -0.0354  0.2095
  726MOL0     C95740  -2.522   6.101   6.272  0.2596 -0.8536  0.1070
  726MOL0     C95741  -2.641   6.020   6.221 -0.5466  0.6709 -0.3546
  726MOL0     C95742  -2.731   6.076   6.115  0.4410  0.8265 -0.6067
  726MOL0     C95743  -2.666   6.172   6.026  0.4626 -0.1065  0.0251
  726MOL0    Cl95744  -2.760   6.222   5.888  0.2448 -0.4837  0.0996
  726MOL0     C95745  -1.925   6.126   6.618 -0.4775 -0.8030  0.6238
  726MOL0     C95746  -1.796   6.172   6.648 -0.2084 -0.6403  0.3291
  726MOL0     O95747  -1.493   5.990   6.679 -0.4351  0.1342  0.3749
  726MOL0     C95748  -1.331   6.263   6.859  0.1299 -0.0181  0.9819
  726MOL0     C95749  -1.209   6.317   6.894  0.9954 -0.6642 -0.0547
  726MOL0     N95750  -0.433   6.401   6.883 -0.3259  0.0214 -0.2054
  726MOL0     N95751  -0.320   6.447   6.839 -0.3004  0.4737 -0.4040
  726MOL0     C95752   0.258   5.750   6.368 -0.5707  0.2454 -0.1092
  726MOL0     C95753   0.216   5.713   6.239  0.3629 -1.0389 -0.0939
  726MOL0     C95754   0.086   5.360   5.940 -1.6612  0.0797 -0.5717
  726MOL0     C95755   0.009   5.246   5.923 -0.7248 -0.7268  0.2951
  726MOL0     C95756  -0.011   5.190   5.795 -0.1268 -1.1952 -0.9962
  726MOL0     C95757   0.046   5.256   5.688  0.0828  0.0716 -0.3968
  726MOL0     O95758   0.031   5.219   5.559  0.0584 -0.2425  0.5218
  726MOL0     C95759  -0.085   5.136   5.527 -0.6466  0.6708  0.4340
  726MOL0     C95760  -0.107   5.110   5.375 -0.5469 -0.4618  0.5579
  726MOL0     C95761  -0.013   4.996   5.314  0.1782 -0.6218  0.7745
  726MOL0     C95762  -0.044   4.982   5.161 -0.6983  0.1769 -0.5092
  726MOL0     C95763  -0.178   4.916   5.157 -0.8184  0.1109  0.2049
  726MOL0     C95764  -0.283   4.861   5.156  0.8675 -0.0055  0.7510
  726MOL0     C95765   0.130   5.366   5.705 -0.1274  0.0125  0.5012
  726MOL0     C95766   0.155   5.414   5.830  0.4047  0.0873 -0.9415
  726MOL0     H95767   0.259   5.386   6.312 -0.3998 -0.8616  2.8445
  726MOL0     H95768   0.309   5.453   6.521  1.0315  0.1861 -0.1321
  726MOL0     H95769   0.199   5.846   6.625 -0.7798 -0.0962  5.9554
  726MOL0     H95770   0.377   5.888   6.590  0.9953 -2.5228 -1.9133
  726MOL0     H95771   0.433   5.797   6.819 -0.2121  1.1525  2.3021
  726MOL0     H95772   0.256   5.785   6.841  0.3649  0.7554  0.6934
  726MOL0     H95773   0.390   6.050   6.790  1.6419  0.5503  2.2910
  726MOL0     H95774   0.363   5.987   6.948  2.6623  2.5069 -0.7801
  726MOL0     H95775   0.154   6.044   6.727  0.0608 -1.9238  0.2842
  726MOL0     H95776   0.104   5.992   6.876  1.2944 -0.0115  2.5291
  726MOL0     H95777   0.254   6.261   6.823 -2.2358  1.6210 -0.2647
  726MOL0     H95778   0.207   6.202   6.980  2.7362  3.5884  0.4885
  726MOL0     H95779  -0.050   6.189   6.903 -2.7014  3.6210 -0.1974
  726MOL0     H95780  -0.001   6.265   6.765  1.9149  1.3348 -0.7171
  726MOL0     H95781   0.018   6.347   7.054 -0.5034  2.6637  1.2859
  726MOL0     H95782   0.125   6.433   6.949  0.7446 -0.6309 -4.5556
  726MOL0     H95783  -0.055   6.500   6.804  1.8086  0.6849  1.3864
  726MOL0     H95784  -0.072   6.567   6.976 -1.1114  3.2338 -1.8589
  726MOL0     H95785  -0.232   6.304   7.110 -0.2827 -0.3124  1.0993
  726MOL0     H95786  -0.552   6.340   7.159  0.6381 -0.3859  2.0128
  726MOL0     H95787  -0.467   6.182   7.148 -3.6523 -0.0554  0.4248
  726MOL0     H95788  -0.664   6.109   7.063  0.2224 -2.3291 -2.3858
  726MOL0     H95789  -0.583   6.162   6.913 -0.8835 -0.2839 -0.0490
  726MOL0     H95790  -0.773   6.347   7.073 -0.7891 -2.6690  0.8122
  726MOL0     H95791  -0.701   6.365   6.910 -0.4472 -1.0055 -0.7013
  726MOL0     H95792  -0.896   6.131   6.971  1.3138  0.6762  0.8510
  726MOL0     H95793  -0.834   6.185   6.810  1.9238 -0.2206  1.1891
  726MOL0     H95794  -1.015   6.074   6.747 -0.0742  0.5300 -0.0335
  726MOL0     H95795  -1.215   5.978   6.702  0.0742  1.5501 -0.7190
  726MOL0     H95796  -1.708   5.966   6.895  0.2974 -1.2103 -3.1401
  726MOL0     H95797  -1.924   5.876   6.859  4.4215 -0.8764  0.3836
  726MOL0     H95798  -2.161   6.049   6.496 -0.4839 -1.3982 -0.6333
  726MOL0     H95799  -2.195   6.137   6.645  0.6941  0.2477 -1.2711
  726MOL0     H95800  -2.370   5.978   6.707 -0.9091 -2.4003 -1.5667
  726MOL0     H95801  -2.338   5.872   6.576  2.0086  0.0262 -0.0224
  726MOL0     H95802  -2.441   6.171   6.537 -2.6079  0.4149  0.8101
  726MOL0     H95803  -2.545   6.033   6.550  0.4167 -2.0100 -0.2127
  726MOL0     H95804  -2.332   6.022   6.339 -0.3909  1.8325  1.1517
  726MOL0     H95805  -2.470   5.922   6.372  1.7052 -1.0086  2.4345
  726MOL0     H95806  -2.458   6.112   6.184 -0.7718 -0.6490 -0.6394
  726MOL0     H95807  -2.544   6.200   6.311  1.1606 -0.2323 -0.8834
  726MOL0     H95808  -2.706   6.005   6.308  1.2357  1.7591  1.2522
  726MOL0     H95809  -2.599   5.926   6.185  0.8079  0.6853  1.1097
  726MOL0     H95810  -2.759   5.989   6.055  2.9730  1.1588 -2.4164
  726MOL0     H95811  -2.807   6.120   6.181  0.9987  0.6891  0.1460
  726MOL0     H95812  -2.572   6.124   5.996 -0.3536 -1.8084  0.0536
  726MOL0     H95813  -2.628   6.262   6.075  2.9225 -1.9173  1.7095
  726MOL0     H95814  -1.979   6.176   6.538  0.6040  0.1143  0.4487
  726MOL0     H95815  -1.780   6.266   6.597 -1.6049 -1.2572 -1.3490
  726MOL0     H95816  -1.424   6.306   6.895 -2.3561 -1.9038 -2.5940
  726MOL0     H95817  -1.196   6.412   6.944 -1.0277  0.0022 -0.6908
  726MOL0     H95818   0.283   5.855   6.380  3.0653 -0.4971 -0.2198
  726MOL0     H95819   0.191   5.794   6.172  0.8977 -0.4643  0.3879
  726MOL0     H95820  -0.041   5.194   6.004 -0.6549 -0.5460  0.4532
  726MOL0     H95821  -0.083   5.109   5.787 -0.1088 -1.2950 -0.2465
  726MOL0     H95822  -0.178   5.170   5.573 -1.2601  0.7023 -0.7871
  726MOL0     H95823  -0.060   5.036   5.564  3.5913  0.4915 -2.2118
  726MOL0     H95824  -0.212   5.079   5.371 -1.8696  3.2655  2.0280
  726MOL0     H95825  -0.102   5.201   5.314  1.4947  0.3974  1.8970
  726MOL0     H95826  -0.015   4.897   5.360  1.2419 -1.4441 -0.8824
  726MOL0     H95827   0.088   5.035   5.327 -0.4855  0.5496  2.8293
  726MOL0     H95828  -0.047   5.078   5.107  3.4234 -0.6806 -2.7461
  726MOL0     H95829   0.032   4.925   5.106  0.7008  1.8110 -0.3551
  726MOL0     H95830  -0.382   4.819   5.154 -0.4788  2.9410 -0.4782
  726MOL0     H95831   0.197   5.394   5.624  0.7456  0.2373  1.2791
  726MOL0     H95832   0.216   5.501   5.849 -1.1405  1.0451 -0.1653
  727MOL0     O95833   6.632   3.453   2.098  0.5287 -0.1848 -0.2170
  727MOL0     C95834   6.638   3.566   2.142  0.4484 -0.2802  1.0180
  727MOL0     O95835   6.753   3.635   2.175 -0.8546  0.4947 -0.4506
  727MOL0     C95836   6.883   3.583   2.156 -0.5770  0.1388 -0.4303
  727MOL0     C95837   6.924   3.446   2.133  0.2806  0.3744 -0.6479
  727MOL0     C95838   7.059   3.411   2.128 -0.0551 -0.8932 -0.7159
  727MOL0     C95839   7.158   3.506   2.152 -0.0489  0.5598  0.5570
  727MOL0     O95840   7.281   3.460   2.126 -0.2390  0.0196  0.0074
  727MOL0     C95841   7.397   3.545   2.173 -0.3964  1.4172 -0.4294
  727MOL0     C95842   7.529   3.476   2.125 -0.1500  0.1216 -0.2429
  727MOL0     C95843   7.557   3.352   2.214  0.1684 -0.4684 -0.3472
  727MOL0     C95844   7.702   3.313   2.217  0.0696 -0.3045 -0.0364
  727MOL0     C95845   7.732   3.175   2.284  0.7789  0.4253 -1.2443
  727MOL0     C95846   7.877   3.152   2.310 -0.9667 -0.7716  0.1932
  727MOL0     C95847   7.918   3.227   2.440 -0.4215  0.6617  0.5031
  727MOL0     C95848   8.055   3.182   2.496 -0.0301  0.0031  0.8566
  727MOL0     N95849   8.073   3.037   2.496 -0.0704  0.0146 -0.6666
  727MOL0     C95850   8.015   2.956   2.592 -0.0504  0.4150 -0.7538
  727MOL0     C95851   8.041   2.831   2.550  0.0304 -0.1402  0.4330
  727MOL0     C95852   7.993   2.703   2.609 -0.5919  0.2250 -0.5723
  727MOL0     C95853   7.849   2.666   2.573 -0.4213 -0.1113 -0.2297
  727MOL0     C95854   7.827   2.629   2.421 -0.4682  0.6627  0.7866
  727MOL0     C95855   7.683   2.578   2.402  0.2172 -0.6374 -0.9193
  727MOL0     O95856   7.672   2.456   2.483 -0.0434 -0.0655 -0.0538
  727MOL0     C95857   7.547   2.412   2.534  0.6069 -0.2682  0.7743
  727MOL0     C95858   7.428   2.473   2.480  0.0113 -0.0785  0.6237
  727MOL0     C95859   7.306   2.428   2.527 -0.5334 -0.1733 -0.7789
  727MOL0     C95860   7.298   2.337   2.634 -1.0027  0.2810 -0.2931
  727MOL0     C95861   7.154   2.314   2.673  0.1681 -0.4175  0.2715
  727MOL0     O95862   7.130   2.281   2.799 -0.1527 -0.1297 -0.1638
  727MOL0     C95863   6.998   2.271   2.844  0.1446 -0.6158  0.1886
  727MOL0     C95864   6.911   2.386   2.840 -0.2972 -0.6393 -0.5430
  727MOL0     C95865   6.773   2.381   2.874 -0.6541 -0.4720 -1.1142
  727MOL0     C95866   6.718   2.257   2.909 -0.4979 -0.1434  0.1570
  727MOL0     O95867   6.582   2.261   2.935  0.1701 -0.9211  0.1465
  727MOL0     C95868   6.497   2.136   2.938 -0.5485 -0.0068 -0.4910
  727MOL0     C95869   6.359   2.163   3.002 -0.1318  0.4449  0.2989
  727MOL0     C95870   6.271   2.040   2.996 -0.2497  0.6188  0.3944
  727MOL0     C95871   6.119   2.077   3.005  0.2805  0.1619 -0.6150
  727MOL0     C95872   6.020   1.973   2.987  0.4025 -0.1110 -0.3643
  727MOL0     C95873   5.882   2.043   2.992 -0.4522 -0.9471  0.2039
  727MOL0     C95874   5.771   1.936   2.988 -1.3144 -1.4727 -0.3135
  727MOL0     C95875   5.632   1.992   2.962 -0.6865  0.9140  0.2653
  727MOL0    Cl95876   5.580   2.066   3.121  0.0207  0.3325 -0.4685
  727MOL0     C95877   6.792   2.141   2.893 -0.9272 -0.3439 -1.1415
  727MOL0     C95878   6.929   2.152   2.860  0.0556 -0.4688 -0.3238
  727MOL0     O95879   7.067   2.328   2.582  0.1608  0.1311 -0.1640
  727MOL0     C95880   7.412   2.291   2.690 -0.2501  0.3198 -0.1993
  727MOL0     C95881   7.535   2.329   2.636 -0.6174 -0.0321 -0.1945
  727MOL0     N95882   8.112   2.838   2.431  0.2589  0.3846  0.2695
  727MOL0     N95883   8.137   2.962   2.404  0.1815 -0.7121  0.4653
  727MOL0     C95884   7.119   3.637   2.164 -1.0303 -0.4954  0.3862
  727MOL0     C95885   6.990   3.680   2.162  0.8218 -0.5468  0.5955
  727MOL0     C95886   6.510   3.649   2.145  0.3621  0.8927 -0.6492
  727MOL0     C95887   6.512   3.789   2.154 -0.3225 -0.0733 -0.5103
  727MOL0     C95888   6.397   3.861   2.135  1.1124  0.8472  0.1497
  727MOL0     C95889   6.274   3.784   2.113  0.4525 -0.3317 -0.8131
  727MOL0     O95890   6.152   3.852   2.087  1.1701  1.1367  0.3220
  727MOL0     C95891   6.107   3.941   2.182  0.3203 -0.1536  0.0670
  727MOL0     C95892   5.993   4.022   2.126  0.0937 -0.5466  0.3995
  727MOL0     C95893   5.863   3.943   2.080 -0.1857 -0.7504  0.1766
  727MOL0     C95894   5.744   3.961   2.176  0.5273 -0.0090  0.6725
  727MOL0     C95895   5.687   4.093   2.196  0.2853 -0.1271 -0.6425
  727MOL0     C95896   5.671   4.217   2.220  0.4919  0.5253  1.5100
  727MOL0     C95897   6.276   3.645   2.104  0.3227  0.7562 -0.1635
  727MOL0     C95898   6.391   3.576   2.126 -0.4128 -0.2229 -0.1747
  727MOL0     H95899   6.852   3.365   2.128  1.1053 -0.5096  0.8342
  727MOL0     H95900   7.094   3.309   2.112 -0.9287 -1.6160  1.5795
  727MOL0     H95901   7.391   3.564   2.280  0.8286 -0.4959  0.0354
  727MOL0     H95902   7.399   3.638   2.116  1.0659  0.0491 -2.7986
  727MOL0     H95903   7.611   3.548   2.136  1.0597 -1.2019 -0.3927
  727MOL0     H95904   7.522   3.441   2.022  1.1038  2.3282 -1.1459
  727MOL0     H95905   7.497   3.277   2.161 -2.0020  1.7038 -1.1806
  727MOL0     H95906   7.526   3.378   2.316 -3.5087 -2.2726 -0.8347
  727MOL0     H95907   7.733   3.312   2.112  2.7902 -1.2147  0.7064
  727MOL0     H95908   7.755   3.393   2.270  0.5208 -1.7374  1.7677
  727MOL0     H95909   7.691   3.095   2.222  1.6460  0.1184 -1.4312
  727MOL0     H95910   7.674   3.179   2.377  1.0591  1.7746 -1.1027
  727MOL0     H95911   7.937   3.185   2.225 -2.3832 -3.4215 -1.9919
  727MOL0     H95912   7.900   3.045   2.318 -3.2939 -1.4930 -1.7860
  727MOL0     H95913   7.927   3.331   2.407  0.7180  1.6876  3.6440
  727MOL0     H95914   7.842   3.220   2.518 -1.4184  1.4112 -0.3698
  727MOL0     H95915   8.066   3.231   2.594  2.9865 -1.3404  1.3199
  727MOL0     H95916   8.135   3.220   2.431  0.3337 -1.9471  0.0856
  727MOL0     H95917   7.961   2.981   2.683 -0.9170 -2.6047 -0.3464
  727MOL0     H95918   7.996   2.724   2.716 -0.2263  1.9702 -0.8890
  727MOL0     H95919   8.059   2.625   2.569  0.4098  2.5311 -3.9603
  727MOL0     H95920   7.783   2.743   2.613 -2.5475 -2.2777  0.6383
  727MOL0     H95921   7.826   2.581   2.638 -0.1123  0.9004  1.2543
  727MOL0     H95922   7.834   2.723   2.366  1.4079  0.0654 -0.0998
  727MOL0     H95923   7.895   2.552   2.383  0.4609  1.2853  1.1635
  727MOL0     H95924   7.654   2.552   2.300 -1.6406 -1.7231 -0.1707
  727MOL0     H95925   7.616   2.659   2.431 -1.0236 -1.1321 -2.3202
  727MOL0     H95926   7.429   2.538   2.393 -1.3429 -1.2960 -0.3521
  727MOL0     H95927   7.216   2.476   2.490  1.9079  3.4870 -2.5502
  727MOL0     H95928   6.953   2.483   2.815 -0.6553  0.0590  1.3941
  727MOL0     H95929   6.714   2.472   2.868  0.6700  0.8438  2.6673
  727MOL0     H95930   6.533   2.052   2.998  1.3763  1.2346  0.1536
  727MOL0     H95931   6.496   2.100   2.835  3.1171 -2.1153  0.0533
  727MOL0     H95932   6.306   2.241   2.947 -0.4374  1.0897  1.4685
  727MOL0     H95933   6.378   2.182   3.108 -1.0295 -1.2314  0.7953
  727MOL0     H95934   6.302   1.973   3.076  0.0298  1.9674  1.4566
  727MOL0     H95935   6.282   1.995   2.897 -0.3737 -1.1291  1.1417
  727MOL0     H95936   6.114   2.119   3.106 -3.1947  2.2224 -1.4655
  727MOL0     H95937   6.104   2.158   2.932  0.6330  0.7096 -0.0944
  727MOL0     H95938   6.021   1.887   3.055  1.5329  1.4300  1.7065
  727MOL0     H95939   6.038   1.933   2.887  0.2342 -1.7244  0.2236
  727MOL0     H95940   5.870   2.112   2.908  0.8789 -1.7474 -0.6651
  727MOL0     H95941   5.872   2.092   3.090  1.2078  1.4567 -0.7440
  727MOL0     H95942   5.796   1.870   2.905 -2.5307 -1.1170 -0.9760
  727MOL0     H95943   5.764   1.885   3.084 -3.7936 -2.7447 -1.0847
  727MOL0     H95944   5.564   1.913   2.928 -2.8267  2.2667  1.2124
  727MOL0     H95945   5.641   2.073   2.889  1.4399  0.2818 -0.2679
  727MOL0     H95946   6.765   2.039   2.919  2.6505 -0.8577  1.1188
  727MOL0     H95947   6.985   2.065   2.828 -2.2314 -0.2529 -6.0645
  727MOL0     H95948   7.411   2.225   2.777  2.6088  1.4315  0.7997
  727MOL0     H95949   7.626   2.296   2.686 -1.0600 -2.2009 -0.7089
  727MOL0     H95950   7.199   3.709   2.160  2.6323 -4.2144  0.2998
  727MOL0     H95951   6.955   3.781   2.179  2.1578  0.1326 -0.5115
  727MOL0     H95952   6.605   3.843   2.169 -1.0808  0.6268  2.3841
  727MOL0     H95953   6.388   3.969   2.127 -0.7375  0.5751 -2.6816
  727MOL0     H95954   6.174   4.024   2.209 -1.7980  1.1471  1.5772
  727MOL0     H95955   6.097   3.886   2.275  2.8577 -3.9334 -1.6528
  727MOL0     H95956   5.972   4.089   2.210 -0.8389 -3.3726  2.5459
  727MOL0     H95957   6.036   4.079   2.043 -5.1059 -0.1325 -2.5196
  727MOL0     H95958   5.889   3.838   2.064  0.7054 -0.4498 -0.4207
  727MOL0     H95959   5.833   3.997   1.990 -2.2407  3.5453  3.0584
  727MOL0     H95960   5.662   3.895   2.145  0.6725  0.0047  0.2488
  727MOL0     H95961   5.781   3.923   2.272  1.9008 -1.3797 -0.3405
  727MOL0     H95962   5.637   4.318   2.231  0.4174  0.9033 -1.3571
  727MOL0     H95963   6.185   3.586   2.100 -0.4875  1.8460  1.5862
  727MOL0     H95964   6.392   3.469   2.107 -0.6438 -0.1316 -0.7393
  728MOL0     O95965   7.151   9.544   0.969 -0.2846 -0.0884 -0.1974
  728MOL0     C95966   7.066   9.500   0.895 -0.6137  0.0179 -0.4963
  728MOL0     O95967   6.981   9.404   0.931  0.3032  0.8293  0.5669
  728MOL0     C95968   6.976   9.329   1.044 -0.5450  0.2976 -0.6614
  728MOL0     C95969   7.052   9.358   1.164  0.5339  0.0643 -0.5550
  728MOL0     C95970   7.054   9.266   1.270 -0.5832  0.4982  0.6583
  728MOL0     C95971   6.975   9.153   1.275 -0.1289  0.2160 -0.6885
  728MOL0     O95972   6.966   9.049   1.364  0.3951  0.2173 -0.8004
  728MOL0     C95973   7.019   9.076   1.499  0.3951 -0.0599  0.2105
  728MOL0     C95974   6.946   8.971   1.587 -0.2425 -0.2702 -0.4370
  728MOL0     C95975   7.032   8.850   1.624  0.0872  1.1114  0.1307
  728MOL0     C95976   6.967   8.731   1.684 -0.0942 -0.2984  0.3863
  728MOL0     C95977   7.040   8.604   1.657 -0.1602  0.3688 -0.1207
  728MOL0     C95978   6.955   8.483   1.656  0.1061 -0.7695  0.4141
  728MOL0     C95979   7.024   8.352   1.607 -0.3315  1.2196  0.7481
  728MOL0     C95980   7.177   8.326   1.653 -0.0066 -1.0124  0.9632
  728MOL0     N95981   7.190   8.321   1.801  0.2880  0.3561 -0.0252
  728MOL0     C95982   7.265   8.410   1.875  0.4093 -0.0964 -1.1137
  728MOL0     C95983   7.281   8.361   1.993 -0.3985  0.1833  0.3469
  728MOL0     C95984   7.360   8.419   2.106 -0.3804  0.0653  0.2985
  728MOL0     C95985   7.500   8.342   2.103  0.3686  0.2520  0.2112
  728MOL0     C95986   7.597   8.368   2.214 -0.2539 -0.2173 -0.1057
  728MOL0     C95987   7.727   8.298   2.225 -0.2260  0.5015 -0.1395
  728MOL0     O95988   7.788   8.301   2.361 -0.0962 -0.8772  0.6944
  728MOL0     C95989   7.928   8.274   2.374  0.8835 -0.1868 -0.7644
  728MOL0     C95990   7.960   8.288   2.510 -0.3296 -0.1941  0.5314
  728MOL0     C95991   8.095   8.278   2.549 -0.5099  0.1420  0.5051
  728MOL0     C95992   8.196   8.241   2.453  0.0875  0.8988  0.7872
  728MOL0     C95993   8.335   8.202   2.497 -0.4460  0.5368  0.4953
  728MOL0     O95994   8.427   8.219   2.401  0.3034  0.0143 -0.1665
  728MOL0     C95995   8.558   8.169   2.409  0.2804  0.3914  0.2324
  728MOL0     C95996   8.584   8.054   2.340 -0.6445 -0.2807  0.4347
  728MOL0     C95997   8.705   7.987   2.360  0.2443 -0.1013  1.5909
  728MOL0     C95998   8.800   8.045   2.440 -0.7666 -1.0279  0.1741
  728MOL0     O95999   8.919   7.989   2.459  0.4799  0.7396  0.2961
  728MOL0     C96000   8.930   7.847   2.457  0.3423 -0.2717  0.5759
  728MOL0     C96001   8.886   7.788   2.583  0.5825 -0.6706 -0.5931
  728MOL0     C96002   8.932   7.642   2.581 -0.1456 -0.0605  0.3355
  728MOL0     C96003   8.917   7.589   2.715 -0.2985 -1.2931 -0.2554
  728MOL0     C96004   9.004   7.459   2.757 -0.2237 -0.0053 -0.1795
  728MOL0     C96005   8.945   7.334   2.685 -0.6598 -0.8503 -0.0003
  728MOL0     C96006   8.794   7.302   2.709 -0.0677 -0.2084 -0.0589
  728MOL0     C96007   8.752   7.173   2.650  0.0757 -0.3195  0.5684
  728MOL0    Cl96008   8.750   7.193   2.476 -0.0785  0.4263  0.5466
  728MOL0     C96009   8.785   8.168   2.499 -0.3768 -0.1856  0.4349
  728MOL0     C96010   8.657   8.232   2.482 -0.0252  0.5337  0.6839
  728MOL0     O96011   8.362   8.173   2.612  0.5734 -0.0844  0.8191
  728MOL0     C96012   8.157   8.241   2.321  0.3961 -0.7329  0.2197
  728MOL0     C96013   8.023   8.252   2.278 -0.0442 -1.3059  0.1339
  728MOL0     N96014   7.209   8.237   1.998 -0.3489 -0.2142  0.4281
  728MOL0     N96015   7.157   8.219   1.885  0.5873  0.9130 -0.3394
  728MOL0     C96016   6.902   9.126   1.158 -0.2163  0.5754 -0.7556
  728MOL0     C96017   6.913   9.206   1.048  0.1611  0.5200  0.2383
  728MOL0     C96018   7.065   9.562   0.772 -0.5853  0.1253  0.7312
  728MOL0     C96019   7.182   9.627   0.718  0.0349 -0.5190 -0.0826
  728MOL0     C96020   7.186   9.703   0.594  0.6942  0.7691  0.6152
  728MOL0     C96021   7.063   9.712   0.526 -0.3513 -0.1710 -0.1607
  728MOL0     O96022   7.042   9.801   0.426 -0.5123  0.1576  0.1757
  728MOL0     C96023   7.155   9.873   0.375  0.6466  0.3890  0.0843
  728MOL0     C96024   7.126   9.909   0.225  0.0319  0.2143 -0.4762
  728MOL0     C96025   7.009  10.017   0.203 -0.4029  0.2590  0.2334
  728MOL0     C96026   6.987  10.036   0.056  0.3843  0.3648  0.0337
  728MOL0     C96027   6.852  10.084   0.029 -0.5317 -0.9457  0.9949
  728MOL0     C96028   6.737  10.136   0.007  0.1066 -0.7494 -0.2776
  728MOL0     C96029   6.950   9.662   0.585  0.2286  0.0019  0.2922
  728MOL0     C96030   6.947   9.573   0.696 -0.2771 -0.7891  0.0469
  728MOL0     H96031   7.116   9.443   1.184  0.2439  0.0832  0.3672
  728MOL0     H96032   7.115   9.290   1.357 -0.8389  0.1678  0.9290
  728MOL0     H96033   7.006   9.178   1.534 -3.1354 -0.3523  0.1209
  728MOL0     H96034   7.125   9.051   1.511 -0.0924 -1.4459  2.0981
  728MOL0     H96035   6.859   8.936   1.530  0.6011  1.5981 -3.0931
  728MOL0     H96036   6.907   9.024   1.674  1.9030  1.2519 -0.3213
  728MOL0     H96037   7.113   8.881   1.690 -1.2557  0.5294  2.1588
  728MOL0     H96038   7.070   8.810   1.530  0.7914  0.6301  0.6152
  728MOL0     H96039   6.961   8.752   1.791 -1.8659  0.1859  0.2230
  728MOL0     H96040   6.864   8.730   1.646 -0.6113  3.0046  1.3614
  728MOL0     H96041   7.126   8.590   1.723  0.9705 -1.6086 -1.9053
  728MOL0     H96042   7.085   8.605   1.558  1.7206  0.1349  0.6901
  728MOL0     H96043   6.873   8.491   1.584  0.4613 -3.2903 -0.3651
  728MOL0     H96044   6.901   8.471   1.751 -1.0149  0.2067 -0.0743
  728MOL0     H96045   6.965   8.261   1.623 -0.5056  0.8263 -1.7138
  728MOL0     H96046   7.025   8.369   1.499 -2.3600  0.6739  0.6090
  728MOL0     H96047   7.246   8.400   1.610 -0.8554 -0.2851  0.8138
  728MOL0     H96048   7.204   8.229   1.610  3.3748  0.6633 -1.1403
  728MOL0     H96049   7.317   8.496   1.835 -0.7767  3.4028  3.9641
  728MOL0     H96050   7.312   8.411   2.204  3.0238 -0.4985  2.0625
  728MOL0     H96051   7.385   8.525   2.091  0.8507  0.0514  1.9729
  728MOL0     H96052   7.549   8.373   2.010 -0.1044 -2.8509 -1.2119
  728MOL0     H96053   7.478   8.236   2.092 -2.2540  0.7828 -0.3929
  728MOL0     H96054   7.615   8.475   2.198  0.3473 -0.5885 -2.1224
  728MOL0     H96055   7.544   8.345   2.307  0.5259 -3.2335 -0.3265
  728MOL0     H96056   7.798   8.334   2.150  1.6045 -1.4001  0.5701
  728MOL0     H96057   7.709   8.192   2.206  3.3732 -0.1842 -0.3174
  728MOL0     H96058   7.874   8.309   2.572 -0.4828  2.1665 -0.3754
  728MOL0     H96059   8.128   8.279   2.652  1.7679 -2.4878 -0.0944
  728MOL0     H96060   8.502   8.006   2.288  1.1786 -2.3364 -0.6997
  728MOL0     H96061   8.713   7.893   2.307 -0.2748  0.8346 -0.2256
  728MOL0     H96062   9.036   7.820   2.455  0.0461 -1.4322 -0.0229
  728MOL0     H96063   8.891   7.781   2.379  0.8737 -3.1518  2.6110
  728MOL0     H96064   8.778   7.799   2.594  0.5977 -1.4068  0.3846
  728MOL0     H96065   8.931   7.833   2.672 -0.4970 -3.6608  1.6020
  728MOL0     H96066   9.039   7.637   2.557 -0.6775 -2.1170 -2.1512
  728MOL0     H96067   8.878   7.590   2.501 -1.8114 -0.5486  1.7289
  728MOL0     H96068   8.954   7.667   2.782  1.1870 -2.4865  0.4082
  728MOL0     H96069   8.810   7.581   2.737 -0.5063  1.3357 -0.0320
  728MOL0     H96070   8.997   7.443   2.865  0.2048 -1.6491 -0.3686
  728MOL0     H96071   9.109   7.471   2.730 -0.0120 -0.2741  0.4921
  728MOL0     H96072   9.004   7.250   2.722 -1.7407 -1.4358  0.4454
  728MOL0     H96073   8.964   7.364   2.581  0.9994  1.8029  0.9766
  728MOL0     H96074   8.782   7.293   2.817  1.1233 -1.2567  0.0104
  728MOL0     H96075   8.732   7.384   2.671  2.8270  1.4767 -1.5217
  728MOL0     H96076   8.654   7.138   2.685  1.0344 -1.9935  1.7073
  728MOL0     H96077   8.827   7.101   2.684 -0.6364 -1.2174  0.3022
  728MOL0     H96078   8.869   8.219   2.544 -0.6634 -0.1563  0.9451
  728MOL0     H96079   8.630   8.334   2.510 -1.9665  0.7162 -1.5142
  728MOL0     H96080   8.235   8.213   2.251 -0.2967  2.2157 -1.9329
  728MOL0     H96081   7.990   8.256   2.175  1.3930  1.2486 -0.3002
  728MOL0     H96082   6.847   9.033   1.154  0.4626  0.0508  1.1533
  728MOL0     H96083   6.871   9.180   0.951 -3.1465  0.3422  1.5869
  728MOL0     H96084   7.272   9.613   0.778  2.6967  1.1844 -3.3307
  728MOL0     H96085   7.285   9.739   0.565  2.9074 -3.3875  2.1374
  728MOL0     H96086   7.242   9.806   0.374 -1.2271 -2.1901 -1.8267
  728MOL0     H96087   7.185   9.964   0.428  0.0955  1.6902 -1.7315
  728MOL0     H96088   7.222   9.943   0.184  0.4815 -1.5761 -0.9626
  728MOL0     H96089   7.093   9.822   0.168 -3.1511  1.5177 -0.8668
  728MOL0     H96090   7.049  10.113   0.237 -0.9771  0.1563  1.2515
  728MOL0     H96091   6.919  10.003   0.264  0.1744 -0.0779  1.0375
  728MOL0     H96092   7.059  10.111   0.020 -0.5543  1.5397  0.5566
  728MOL0     H96093   6.995   9.944  -0.003 -4.3807 -0.4743  0.2821
  728MOL0     H96094   6.640  10.183  -0.002 -0.1215 -1.6475 -4.5801
  728MOL0     H96095   6.863   9.689   0.526  0.2358  1.6484  0.9861
  728MOL0     H96096   6.850   9.538   0.730 -1.7897  3.2354  0.4384
  729MOL0     O96097   8.001   3.685   7.711 -0.6207  0.6084 -0.1023
  729MOL0     C96098   8.032   3.566   7.684  0.1124 -0.0386  0.1000
  729MOL0     O96099   8.147   3.509   7.730 -0.9815 -0.0042 -0.0850
  729MOL0     C96100   8.220   3.572   7.828  0.1671  0.4873 -0.6344
  729MOL0     C96101   8.256   3.493   7.937  0.6564  0.9367  0.5500
  729MOL0     C96102   8.345   3.534   8.039  0.5889 -0.2453 -0.1137
  729MOL0     C96103   8.412   3.650   8.031  1.5532  0.2260  0.3285
  729MOL0     O96104   8.503   3.689   8.126 -0.1375  0.3822 -0.1965
  729MOL0     C96105   8.505   3.828   8.168 -0.1331 -0.1319 -0.6053
  729MOL0     C96106   8.583   3.841   8.300 -0.1033 -0.4820  0.5927
  729MOL0     C96107   8.498   3.809   8.432  0.5079 -0.2192  0.5864
  729MOL0     C96108   8.409   3.685   8.416  0.8372 -0.2798  0.4541
  729MOL0     C96109   8.338   3.662   8.542  0.4895 -0.9418  0.3196
  729MOL0     C96110   8.212   3.571   8.522  0.5031  0.0465 -0.2978
  729MOL0     C96111   8.250   3.439   8.456  0.4124 -0.0125  0.6455
  729MOL0     C96112   8.159   3.317   8.498 -0.2250 -0.4231 -0.5036
  729MOL0     N96113   8.019   3.346   8.450 -1.0500 -0.7517  0.0019
  729MOL0     C96114   7.972   3.363   8.321  0.4438 -0.8235  0.5207
  729MOL0     C96115   7.853   3.432   8.332 -0.3340 -1.0247 -0.3251
  729MOL0     C96116   7.767   3.481   8.222 -0.5173  0.0590 -0.6073
  729MOL0     C96117   7.853   3.557   8.116 -0.7379  0.2005  1.2613
  729MOL0     C96118   7.870   3.707   8.158  0.3342  0.4920  0.2091
  729MOL0     C96119   7.951   3.781   8.051 -0.3347  0.2680 -0.0174
  729MOL0     O96120   7.947   3.922   8.060  0.0678 -0.4590 -0.0286
  729MOL0     C96121   8.003   3.973   8.176 -0.4059  0.4857 -0.1861
  729MOL0     C96122   7.943   4.085   8.236  0.2918  0.2255 -0.7018
  729MOL0     C96123   7.983   4.146   8.359 -0.8458 -0.9556  0.7892
  729MOL0     C96124   8.095   4.082   8.424  0.7258 -0.0316 -0.4542
  729MOL0     C96125   8.151   4.137   8.548 -0.8373  0.1161  0.8033
  729MOL0     O96126   8.265   4.079   8.590 -0.3251 -0.2607  0.3968
  729MOL0     C96127   8.332   4.161   8.675  0.1948 -0.7618 -0.1015
  729MOL0     C96128   8.329   4.110   8.801 -0.7097 -0.2525 -0.4889
  729MOL0     C96129   8.394   4.179   8.901 -0.0705  0.1194 -0.2087
  729MOL0     C96130   8.453   4.304   8.869  0.2359 -0.0240  0.2825
  729MOL0     O96131   8.506   4.388   8.962 -0.5591 -0.1426  0.3873
  729MOL0     C96132   8.556   4.322   9.076 -0.6653  0.3242 -0.5346
  729MOL0     C96133   8.654   4.415   9.145 -0.4676  0.3305  0.0769
  729MOL0     C96134   8.697   4.349   9.267  0.1632  0.1480 -0.4568
  729MOL0     C96135   8.804   4.438   9.327 -0.1237  0.1540 -0.7015
  729MOL0     C96136   8.849   4.372   9.467 -0.1033  0.5431 -0.3376
  729MOL0     C96137   9.002   4.416   9.497  0.2529  0.0574 -0.6953
  729MOL0     C96138   9.044   4.334   9.625 -0.2345  0.4075 -0.5199
  729MOL0     C96139   9.194   4.342   9.653 -0.4030 -0.2914 -0.2223
  729MOL0    Cl96140   9.228   4.218   9.786  0.0878  0.0119 -0.1550
  729MOL0     C96141   8.452   4.361   8.745 -0.8354 -0.0563  0.7101
  729MOL0     C96142   8.386   4.292   8.647 -0.5385  0.8836 -0.3580
  729MOL0     O96143   8.086   4.235   8.594 -0.9437  0.3760  0.2109
  729MOL0     C96144   8.157   3.967   8.370  0.5149 -0.1073 -0.2220
  729MOL0     C96145   8.107   3.910   8.254  1.1533  0.5503 -0.7167
  729MOL0     N96146   7.826   3.434   8.471 -0.9791 -0.6262 -0.1553
  729MOL0     N96147   7.922   3.378   8.539 -0.2969 -0.8058  0.0372
  729MOL0     C96148   8.377   3.722   7.917  0.8842  0.3927  0.7341
  729MOL0     C96149   8.280   3.692   7.820  1.1235 -0.9492  1.2966
  729MOL0     C96150   7.935   3.470   7.618  0.1061  0.2591  0.3866
  729MOL0     C96151   7.944   3.335   7.647  0.3262 -0.0259  0.2305
  729MOL0     C96152   7.857   3.240   7.589  1.1752 -0.1856 -1.1113
  729MOL0     C96153   7.748   3.284   7.501 -0.3498  1.0085 -1.1140
  729MOL0     O96154   7.653   3.198   7.459  0.3340  0.6391  0.1284
  729MOL0     C96155   7.596   3.102   7.549 -0.3425 -0.5227  0.4007
  729MOL0     C96156   7.435   3.085   7.533  0.3626 -0.4109 -0.4499
  729MOL0     C96157   7.372   3.221   7.571  0.7736 -0.6468  0.0819
  729MOL0     C96158   7.213   3.215   7.580  1.2873  0.5575  0.3829
  729MOL0     C96159   7.157   3.203   7.444 -0.3512  0.8829 -0.5408
  729MOL0     C96160   7.099   3.203   7.338 -0.0067  0.4149 -0.5489
  729MOL0     C96161   7.740   3.429   7.477 -0.1519  0.4836 -0.1740
  729MOL0     C96162   7.827   3.527   7.544 -0.7590  0.5722 -0.1556
  729MOL0     H96163   8.202   3.399   7.943 -0.2129  1.5066  3.5432
  729MOL0     H96164   8.372   3.473   8.125  0.1255 -0.3942 -0.0717
  729MOL0     H96165   8.407   3.864   8.200  0.3754 -0.2313  1.2411
  729MOL0     H96166   8.547   3.901   8.099 -0.2297  0.8768  0.3685
  729MOL0     H96167   8.621   3.943   8.301  0.9433 -0.3762 -5.6396
  729MOL0     H96168   8.665   3.774   8.270 -1.3848 -1.8219 -0.0742
  729MOL0     H96169   8.441   3.896   8.464 -2.9348 -1.3056 -1.9378
  729MOL0     H96170   8.561   3.784   8.517 -0.1296  1.7378  1.6957
  729MOL0     H96171   8.334   3.701   8.338 -0.3606 -1.7387  1.2618
  729MOL0     H96172   8.468   3.596   8.392 -0.5791 -0.9248 -0.7647
  729MOL0     H96173   8.291   3.756   8.575 -2.5694 -2.1423 -0.2790
  729MOL0     H96174   8.399   3.619   8.622  1.4764  1.1130  0.7346
  729MOL0     H96175   8.133   3.624   8.468 -0.7136 -1.9860 -0.5889
  729MOL0     H96176   8.181   3.541   8.623 -1.1338  0.1806 -0.7321
  729MOL0     H96177   8.236   3.450   8.348  1.0531 -0.1445  0.5459
  729MOL0     H96178   8.354   3.409   8.474  1.2830  2.5934  0.3315
  729MOL0     H96179   8.166   3.316   8.607  3.6844  4.1499 -0.3930
  729MOL0     H96180   8.185   3.222   8.452  1.6317 -1.7845  2.9967
  729MOL0     H96181   8.035   3.341   8.236  1.7837 -1.4513  1.6258
  729MOL0     H96182   7.681   3.537   8.258 -1.5897 -2.1254  0.3417
  729MOL0     H96183   7.723   3.394   8.173 -2.1924 -1.3444  3.0671
  729MOL0     H96184   7.801   3.543   8.021 -1.7361 -0.8088  1.9189
  729MOL0     H96185   7.949   3.505   8.109 -0.6075  0.1816  2.7955
  729MOL0     H96186   7.773   3.753   8.174 -0.4152 -0.8967 -0.1891
  729MOL0     H96187   7.928   3.719   8.250  1.2731  3.3274 -0.6233
  729MOL0     H96188   7.907   3.740   7.959  0.5353 -2.0318  0.5298
  729MOL0     H96189   8.049   3.737   8.036 -1.0999 -1.8058  0.7434
  729MOL0     H96190   7.863   4.133   8.181  0.9276  0.2223 -1.6623
  729MOL0     H96191   7.934   4.237   8.394 -0.3783 -1.0395  1.6880
  729MOL0     H96192   8.304   4.008   8.826  2.2947 -0.6892  1.2618
  729MOL0     H96193   8.415   4.125   8.993  1.2375  0.2634 -0.4075
  729MOL0     H96194   8.617   4.239   9.041 -2.2063 -1.5475  0.9760
  729MOL0     H96195   8.477   4.292   9.145 -1.1582  1.9217 -0.3510
  729MOL0     H96196   8.594   4.502   9.171 -2.2274 -0.8360  0.1087
  729MOL0     H96197   8.745   4.434   9.087  1.5993 -1.7784  2.3897
  729MOL0     H96198   8.728   4.247   9.246 -0.2493  0.5705 -3.5371
  729MOL0     H96199   8.612   4.344   9.337  1.4758  1.1210  1.2926
  729MOL0     H96200   8.894   4.430   9.265 -0.5436 -1.5242 -1.1402
  729MOL0     H96201   8.768   4.540   9.344  1.3411  0.2392  2.5837
  729MOL0     H96202   8.840   4.264   9.462 -1.4571  0.5865  0.6514
  729MOL0     H96203   8.781   4.397   9.549  0.3045  3.0428 -0.6540
  729MOL0     H96204   9.007   4.521   9.527  0.7583 -0.8998  3.1261
  729MOL0     H96205   9.069   4.399   9.412 -0.6577  0.6160 -1.5489
  729MOL0     H96206   8.990   4.367   9.714  1.4536  3.0435 -0.3760
  729MOL0     H96207   9.017   4.229   9.608 -2.1389  1.0534 -1.8025
  729MOL0     H96208   9.216   4.441   9.695 -0.1344 -0.7881  0.8544
  729MOL0     H96209   9.256   4.338   9.563  0.4323 -0.2722  0.3420
  729MOL0     H96210   8.498   4.457   8.723  1.7879 -0.9893  1.7131
  729MOL0     H96211   8.397   4.326   8.544 -2.4152  1.0657 -0.5278
  729MOL0     H96212   8.230   3.909   8.425  0.7793  0.3493 -0.0945
  729MOL0     H96213   8.144   3.815   8.217 -1.6482 -1.3076  0.8404
  729MOL0     H96214   8.431   3.813   7.893  3.1210 -1.4320 -1.7056
  729MOL0     H96215   8.288   3.766   7.741  1.4653 -0.4933  1.7526
  729MOL0     H96216   8.021   3.304   7.717 -0.5745 -1.6112  0.5451
  729MOL0     H96217   7.865   3.135   7.616 -0.4694 -0.4363 -1.5330
  729MOL0     H96218   7.614   3.118   7.655 -1.2132  0.1692  0.4623
  729MOL0     H96219   7.648   3.010   7.519  0.2719  0.0359 -0.2875
  729MOL0     H96220   7.418   3.066   7.427  3.2267  0.9300 -1.2492
  729MOL0     H96221   7.405   3.001   7.597 -1.1470  1.5961  1.6374
  729MOL0     H96222   7.404   3.294   7.496  1.9960  1.8529  2.8674
  729MOL0     H96223   7.416   3.245   7.668  0.3580 -0.4046  0.2095
  729MOL0     H96224   7.183   3.139   7.653 -1.1342  1.1864  0.1048
  729MOL0     H96225   7.166   3.303   7.624  0.9556  0.9349 -0.6978
  729MOL0     H96226   7.062   3.207   7.237 -1.7148  0.3099  0.0397
  729MOL0     H96227   7.653   3.457   7.418 -0.6849  3.1217  1.6643
  729MOL0     H96228   7.823   3.632   7.520 -2.5985  0.4609 -0.4757
  730MOL0     O96229   4.304   7.523   3.965 -0.0853  0.3738  0.4723
  730MOL0     C96230   4.348   7.520   3.854  0.2765 -0.0455 -0.0765
  730MOL0     O96231   4.289   7.464   3.750 -0.0543  0.0025 -0.0700
  730MOL0     C96232   4.154   7.433   3.731  0.6858  0.1585 -0.5011
  730MOL0     C96233   4.061   7.433   3.843  0.4789  0.4676  0.4251
  730MOL0     C96234   3.930   7.391   3.823  0.5015  0.1029  0.3261
  730MOL0     C96235   3.891   7.359   3.688 -0.2840  0.2092 -0.1078
  730MOL0     O96236   3.764   7.320   3.647  0.1345  0.7497  0.8052
  730MOL0     C96237   3.667   7.276   3.752 -0.6073 -0.2114 -0.7215
  730MOL0     C96238   3.574   7.163   3.705  0.1645 -0.0512 -0.4741
  730MOL0     C96239   3.470   7.111   3.816  0.3924 -0.1354 -0.6424
  730MOL0     C96240   3.354   7.210   3.840  1.2026 -0.0211  0.7652
  730MOL0     C96241   3.219   7.136   3.850  0.0307 -0.6251 -1.4827
  730MOL0     C96242   3.107   7.246   3.854 -0.1300 -0.2886 -0.2554
  730MOL0     C96243   2.968   7.178   3.847  0.5868  0.1975 -0.2818
  730MOL0     C96244   2.856   7.269   3.877  0.7412 -0.1201 -1.2162
  730MOL0     N96245   2.722   7.204   3.868  0.2439  0.6470 -0.0685
  730MOL0     C96246   2.679   7.111   3.962  0.4385 -0.7531 -0.0350
  730MOL0     C96247   2.556   7.086   3.929 -0.3605 -0.9961  0.7789
  730MOL0     C96248   2.460   7.005   4.028 -0.4980  0.6198  0.2166
  730MOL0     C96249   2.477   7.051   4.176 -0.2811 -0.2438 -1.1416
  730MOL0     C96250   2.441   6.945   4.270  1.0104 -0.5507 -0.1662
  730MOL0     C96251   2.503   6.970   4.404  1.2478  0.0770  0.9423
  730MOL0     O96252   2.638   6.917   4.420 -0.5870  0.2237  1.0369
  730MOL0     C96253   2.723   6.982   4.502  0.6164 -0.2444  0.2830
  730MOL0     C96254   2.701   7.089   4.594  0.5342 -0.8289 -0.5841
  730MOL0     C96255   2.795   7.128   4.687  0.0947 -0.0044  0.0504
  730MOL0     C96256   2.916   7.049   4.700 -0.5915  0.1576  0.6689
  730MOL0     C96257   3.012   7.065   4.819  1.3173  0.7736 -0.5487
  730MOL0     O96258   2.981   7.163   4.911  0.1693 -0.1783 -0.0963
  730MOL0     C96259   3.066   7.186   5.017 -0.6743  0.4131  0.0678
  730MOL0     C96260   3.095   7.093   5.121  0.4194  1.0618  0.7445
  730MOL0     C96261   3.188   7.121   5.217 -0.9238  0.0425 -0.6197
  730MOL0     C96262   3.245   7.249   5.221 -0.3677 -0.5827  0.0792
  730MOL0     O96263   3.342   7.280   5.317  0.1811  1.0475  0.4953
  730MOL0     C96264   3.351   7.412   5.365 -0.3989  0.0466 -0.2384
  730MOL0     C96265   3.441   7.431   5.492 -0.0184  0.2930  0.2701
  730MOL0     C96266   3.401   7.370   5.619  0.5680  0.6069 -0.6664
  730MOL0     C96267   3.486   7.422   5.739 -0.7976  0.4088  0.1514
  730MOL0     C96268   3.610   7.334   5.746 -1.3360  0.9071  0.4401
  730MOL0     C96269   3.723   7.387   5.845 -0.3101 -1.1100 -0.1302
  730MOL0     C96270   3.776   7.527   5.812  0.2723  0.1979  0.1565
  730MOL0     C96271   3.907   7.566   5.865  0.0585 -0.2952 -1.0801
  730MOL0    Cl96272   3.899   7.596   6.040  0.0217  0.4246  0.5823
  730MOL0     C96273   3.213   7.346   5.133  0.5226  0.0168  0.2494
  730MOL0     C96274   3.127   7.311   5.026 -0.7324 -0.1363  0.0721
  730MOL0     O96275   3.105   6.988   4.825 -0.1069 -0.2900  0.3645
  730MOL0     C96276   2.946   6.959   4.598  0.3464 -0.7362  0.5079
  730MOL0     C96277   2.850   6.923   4.506  0.8406  0.1345  0.2083
  730MOL0     N96278   2.525   7.164   3.819  0.4284 -0.1224  0.0812
  730MOL0     N96279   2.622   7.236   3.779  0.5133 -0.0455  0.1306
  730MOL0     C96280   3.987   7.361   3.581  0.3695 -0.8711 -0.1270
  730MOL0     C96281   4.118   7.399   3.608  0.2118  0.2129  0.6053
  730MOL0     C96282   4.482   7.583   3.823  0.4010  0.3015  0.1613
  730MOL0     C96283   4.578   7.518   3.735 -0.7526  0.0155 -0.8376
  730MOL0     C96284   4.694   7.587   3.703  0.4118  0.4060  0.3929
  730MOL0     C96285   4.730   7.704   3.772  0.3247  0.5419  0.3915
  730MOL0     O96286   4.849   7.753   3.738 -0.5860  0.8760 -0.5053
  730MOL0     C96287   4.925   7.806   3.849 -0.3505  0.6241  0.2726
  730MOL0     C96288   5.071   7.830   3.817 -1.2853  1.0014 -1.0442
  730MOL0     C96289   5.077   7.926   3.699 -1.7154  0.1104 -0.6307
  730MOL0     C96290   5.038   8.070   3.736 -0.0086  0.9444  0.7950
  730MOL0     C96291   5.160   8.146   3.749  0.1950 -1.9837 -0.8286
  730MOL0     C96292   5.269   8.196   3.777  0.5828  0.5744  0.0653
  730MOL0     C96293   4.654   7.759   3.870  0.2457  0.4723 -0.8162
  730MOL0     C96294   4.520   7.700   3.890 -0.0445  0.7371 -0.3816
  730MOL0     H96295   4.084   7.463   3.945 -2.2690  2.3902  0.5760
  730MOL0     H96296   3.869   7.384   3.912  0.4823  3.8740  0.8022
  730MOL0     H96297   3.609   7.357   3.796 -2.1244 -1.3914 -0.4746
  730MOL0     H96298   3.736   7.233   3.825 -0.6374 -2.1316 -1.7366
  730MOL0     H96299   3.625   7.070   3.680 -2.1022 -1.1822 -1.1402
  730MOL0     H96300   3.512   7.172   3.616 -1.6841  0.9833  0.8588
  730MOL0     H96301   3.519   7.100   3.913 -2.0398  3.6824  1.2901
  730MOL0     H96302   3.428   7.016   3.782  0.1286 -0.4415  0.4909
  730MOL0     H96303   3.375   7.266   3.932  0.2555  0.5624  0.6384
  730MOL0     H96304   3.348   7.268   3.747  4.6254 -3.6605 -2.0889
  730MOL0     H96305   3.212   7.083   3.945  3.1816  2.8611  1.0346
  730MOL0     H96306   3.206   7.068   3.765  1.5022 -1.9508 -0.6996
  730MOL0     H96307   3.123   7.319   3.775  0.5695 -0.3786 -0.2052
  730MOL0     H96308   3.111   7.298   3.950 -2.8742 -0.1786 -0.1147
  730MOL0     H96309   2.966   7.152   3.741 -0.0759  2.5879 -0.9256
  730MOL0     H96310   2.963   7.091   3.914 -1.9612  1.2771  1.0812
  730MOL0     H96311   2.850   7.359   3.815  0.4034 -0.1941 -1.2938
  730MOL0     H96312   2.861   7.284   3.985  0.0478 -2.7623 -0.7506
  730MOL0     H96313   2.734   7.072   4.047 -2.1817 -1.5550  1.3698
  730MOL0     H96314   2.502   6.904   4.028  1.2548  1.3127  0.3016
  730MOL0     H96315   2.355   7.007   3.998 -0.0237 -1.0133 -1.7854
  730MOL0     H96316   2.419   7.142   4.191  1.0141  0.3702  0.5833
  730MOL0     H96317   2.582   7.072   4.198 -0.5480 -0.9185  1.0245
  730MOL0     H96318   2.333   6.941   4.284  1.0375  1.2103  0.7566
  730MOL0     H96319   2.473   6.847   4.231  1.0678 -1.0401  1.0582
  730MOL0     H96320   2.437   6.915   4.471  0.0602  0.8498  0.4361
  730MOL0     H96321   2.509   7.076   4.431 -0.5365  1.3354 -2.8740
  730MOL0     H96322   2.611   7.148   4.594 -0.0571 -1.6897  0.3247
  730MOL0     H96323   2.778   7.210   4.755  2.1303  0.7092 -0.2314
  730MOL0     H96324   3.024   7.010   5.124 -3.2803  3.6257 -3.3484
  730MOL0     H96325   3.212   7.047   5.292 -0.2073 -1.6282 -2.4144
  730MOL0     H96326   3.253   7.451   5.397 -0.1932 -0.7706  1.4833
  730MOL0     H96327   3.402   7.473   5.290 -1.0926  0.6294 -0.2477
  730MOL0     H96328   3.453   7.539   5.502  0.8561  0.4007 -1.4684
  730MOL0     H96329   3.539   7.389   5.469  0.3178  0.1654  1.8499
  730MOL0     H96330   3.413   7.262   5.624  1.6667  0.7300  3.6470
  730MOL0     H96331   3.297   7.400   5.636 -0.1130 -0.8933 -1.9779
  730MOL0     H96332   3.515   7.527   5.736 -0.6894  0.3627 -2.2852
  730MOL0     H96333   3.428   7.410   5.831 -2.2373  3.1151 -0.3095
  730MOL0     H96334   3.657   7.334   5.647 -0.0612  3.1522  0.9905
  730MOL0     H96335   3.582   7.230   5.766 -0.4577  0.1610 -1.8729
  730MOL0     H96336   3.811   7.324   5.846 -0.1743 -1.0617 -2.7651
  730MOL0     H96337   3.664   7.387   5.938 -0.6693  2.2783 -0.2109
  730MOL0     H96338   3.786   7.517   5.704 -1.9856  1.3290 -0.2070
  730MOL0     H96339   3.703   7.607   5.826  1.1623  1.3198 -1.2589
  730MOL0     H96340   3.942   7.640   5.794 -1.3794 -2.1541 -3.9148
  730MOL0     H96341   3.980   7.486   5.853  1.0681  0.4489 -0.0571
  730MOL0     H96342   3.254   7.446   5.137  0.1684  0.1247  1.4075
  730MOL0     H96343   3.111   7.387   4.950 -0.8950 -0.0437  0.1998
  730MOL0     H96344   3.035   6.899   4.583 -1.1129 -2.2423 -3.7985
  730MOL0     H96345   2.859   6.844   4.433  1.0159 -1.2456  1.6680
  730MOL0     H96346   3.956   7.346   3.478 -1.4530  3.0289 -0.3165
  730MOL0     H96347   4.193   7.404   3.530 -0.7514  1.1232 -0.3005
  730MOL0     H96348   4.542   7.430   3.682  1.0003 -0.0574 -1.9746
  730MOL0     H96349   4.752   7.545   3.621 -2.4254 -0.2639 -1.4302
  730MOL0     H96350   4.922   7.744   3.939  1.1482 -0.6445 -0.4897
  730MOL0     H96351   4.881   7.902   3.876 -1.2172 -0.0292  1.2296
  730MOL0     H96352   5.117   7.875   3.905 -0.7481 -1.9461  0.2748
  730MOL0     H96353   5.126   7.739   3.794 -0.0086  1.8087 -1.3246
  730MOL0     H96354   5.023   7.886   3.612  0.7404 -0.0077 -2.2018
  730MOL0     H96355   5.179   7.933   3.659 -1.6113 -1.3373 -0.6640
  730MOL0     H96356   4.983   8.110   3.650  0.7583 -0.2444 -0.2656
  730MOL0     H96357   4.982   8.060   3.830 -0.1662 -2.3301  0.4597
  730MOL0     H96358   5.368   8.236   3.786  1.1476 -1.1893  4.3844
  730MOL0     H96359   4.679   7.843   3.934  0.3224  0.2306 -0.5278
  730MOL0     H96360   4.456   7.742   3.967 -1.0183  0.4145 -1.0011
  731MOL0     O96361   1.796  10.266   5.020 -0.4253 -0.0666  1.0019
  731MOL0     C96362   1.850  10.296   5.126 -1.7001  1.0070  0.5912
  731MOL0     O96363   1.937  10.403   5.149  0.4474  0.1865 -0.2069
  731MOL0     C96364   1.962  10.491   5.047  0.1505 -0.5841 -0.8473
  731MOL0     C96365   1.860  10.543   4.966  0.1439  1.7730  0.3515
  731MOL0     C96366   1.883  10.629   4.866  0.3705 -0.7975 -0.3335
  731MOL0     C96367   2.017  10.679   4.835  0.6199 -0.6812 -0.2170
  731MOL0     O96368   2.051  10.756   4.728  0.4135  1.0134 -0.6379
  731MOL0     C96369   1.952  10.787   4.633  0.9345 -0.2334  0.3295
  731MOL0     C96370   1.999  10.903   4.541 -0.6500 -0.1076 -0.2859
  731MOL0     C96371   2.102  10.860   4.439  0.0191 -0.0292  0.7729
  731MOL0     C96372   2.211  10.776   4.504 -0.7138 -0.7624 -0.2304
  731MOL0     C96373   2.322  10.719   4.423 -0.3555 -0.4093  0.0232
  731MOL0     C96374   2.422  10.836   4.376 -0.3873  0.0628  0.8120
  731MOL0     C96375   2.534  10.768   4.286 -0.3289 -0.4187  0.4570
  731MOL0     C96376   2.501  10.721   4.138 -0.4913 -0.4392  0.2153
  731MOL0     N96377   2.629  10.693   4.073  0.4354 -0.0372  0.1476
  731MOL0     C96378   2.723  10.785   4.034  0.4163 -0.5668 -0.6600
  731MOL0     C96379   2.818  10.717   3.990 -1.0651 -0.1347 -1.1226
  731MOL0     C96380   2.950  10.770   3.930 -0.0657  0.9539 -0.0156
  731MOL0     C96381   2.975  10.750   3.776 -0.1575  0.0771  0.6665
  731MOL0     C96382   3.121  10.759   3.731 -0.0934  0.7639  0.4945
  731MOL0     C96383   3.146  10.704   3.587  0.4976  0.5137 -0.3929
  731MOL0     O96384   3.138  10.557   3.568  0.0046 -0.5168 -0.4752
  731MOL0     C96385   3.244  10.471   3.590 -0.3768  0.3376  0.8709
  731MOL0     C96386   3.367  10.502   3.644  0.1879 -0.5467  1.5625
  731MOL0     C96387   3.450  10.390   3.668  0.3460 -1.4090  0.2157
  731MOL0     C96388   3.416  10.262   3.633 -0.7318  0.1824  0.1032
  731MOL0     C96389   3.500  10.152   3.664 -0.8250  0.6897  0.4122
  731MOL0     O96390   3.612  10.177   3.730  0.0064  0.4819 -1.1387
  731MOL0     C96391   3.715  10.085   3.728 -0.8534 -0.0224 -0.4782
  731MOL0     C96392   3.799  10.097   3.843  0.2154 -0.6295 -0.0321
  731MOL0     C96393   3.928  10.041   3.843  0.4821  0.1631 -0.1420
  731MOL0     C96394   3.967   9.958   3.734  0.1460 -0.5261 -0.9059
  731MOL0     O96395   4.091   9.905   3.727  0.5377 -0.5768 -0.3510
  731MOL0     C96396   4.101   9.766   3.706 -0.6982  0.0331  0.3867
  731MOL0     C96397   4.227   9.723   3.783  0.9870 -0.0631  0.4528
  731MOL0     C96398   4.216   9.761   3.939  0.2486 -0.3054  0.5215
  731MOL0     C96399   4.342   9.711   4.016  0.9424 -0.0997 -0.4744
  731MOL0     C96400   4.352   9.555   4.045 -0.1796  0.6593  0.4209
  731MOL0     C96401   4.470   9.493   3.955  1.2742 -0.4598  0.1638
  731MOL0     C96402   4.575   9.432   4.051 -0.2433 -0.1393 -0.4023
  731MOL0     C96403   4.697   9.389   3.976  0.1281  0.6392 -0.0066
  731MOL0    Cl96404   4.655   9.308   3.811  0.0764 -0.3161  0.2372
  731MOL0     C96405   3.876   9.938   3.633 -0.0879  0.6907  0.4666
  731MOL0     C96406   3.755   9.998   3.628  0.5993  0.4019 -0.5127
  731MOL0     O96407   3.461  10.046   3.631  0.2820  0.4852  0.8235
  731MOL0     C96408   3.296  10.239   3.572  0.8272 -0.1540 -0.0458
  731MOL0     C96409   3.208  10.342   3.552  0.2869  0.9130 -0.1732
  731MOL0     N96410   2.787  10.583   4.005 -0.7307 -0.6391  0.8298
  731MOL0     N96411   2.671  10.574   4.053  0.3424  0.6834  0.2280
  731MOL0     C96412   2.111  10.638   4.921  0.3719  0.1320  0.1263
  731MOL0     C96413   2.082  10.544   5.024  0.3151  0.2218 -0.6867
  731MOL0     C96414   1.831  10.213   5.238 -0.1822 -0.0762 -0.5871
  731MOL0     C96415   1.713  10.124   5.242 -0.8158  0.2677 -0.1735
  731MOL0     C96416   1.691  10.050   5.356  0.7108 -0.1208 -0.3013
  731MOL0     C96417   1.772  10.045   5.466  0.7360  0.1760 -0.0429
  731MOL0     O96418   1.738   9.953   5.568  0.8817 -0.1073 -0.3793
  731MOL0     C96419   1.782   9.983   5.702 -0.1206 -1.3612  0.0006
  731MOL0     C96420   1.707  10.114   5.762 -0.9968  0.3594 -0.0844
  731MOL0     C96421   1.744  10.123   5.911 -0.1248  0.4723 -0.3801
  731MOL0     C96422   1.697  10.262   5.970 -0.3316  0.0008  0.7966
  731MOL0     C96423   1.661  10.258   6.106 -0.7534 -0.1917 -0.3790
  731MOL0     C96424   1.654  10.273   6.226  0.9460  0.9002  0.1827
  731MOL0     C96425   1.876  10.135   5.470  0.0710 -0.5009 -0.2800
  731MOL0     C96426   1.894  10.227   5.360 -0.0819  0.1185  0.0190
  731MOL0     H96427   1.760  10.503   4.979  0.9393 -0.9003 -0.9043
  731MOL0     H96428   1.794  10.641   4.806 -1.4305 -0.6616  2.2038
  731MOL0     H96429   1.859  10.828   4.674 -0.1973  0.2027 -2.4868
  731MOL0     H96430   1.932  10.699   4.571  1.0820 -0.1111  0.1072
  731MOL0     H96431   2.046  10.979   4.605 -1.5914 -2.2961  3.3381
  731MOL0     H96432   1.919  10.955   4.488  3.1638  5.1868 -1.7588
  731MOL0     H96433   2.153  10.946   4.394  1.2500  0.7559  3.4706
  731MOL0     H96434   2.053  10.796   4.365 -1.0244 -2.7285  3.5997
  731MOL0     H96435   2.255  10.838   4.583 -1.4451  3.7294 -2.9655
  731MOL0     H96436   2.157  10.688   4.541 -2.5136  1.6663  3.6175
  731MOL0     H96437   2.286  10.661   4.338  0.0158 -0.9909  0.2531
  731MOL0     H96438   2.367  10.636   4.479  1.8774 -0.3925 -1.6274
  731MOL0     H96439   2.463  10.885   4.465 -1.3801 -1.7973  2.3814
  731MOL0     H96440   2.372  10.913   4.317  3.4749  1.2167 -1.2504
  731MOL0     H96441   2.617  10.840   4.289 -0.7354  0.0154  1.8058
  731MOL0     H96442   2.571  10.687   4.350  0.4455 -0.8080 -0.4545
  731MOL0     H96443   2.434  10.786   4.080 -0.7540 -2.0513 -1.3842
  731MOL0     H96444   2.438  10.632   4.147 -0.9358 -0.1055  0.4963
  731MOL0     H96445   2.723  10.894   4.041 -0.6134 -0.6180  0.6185
  731MOL0     H96446   3.025  10.704   3.974 -0.9302 -1.2025 -1.6408
  731MOL0     H96447   2.982  10.866   3.972  1.1280  1.1956 -1.3991
  731MOL0     H96448   2.909  10.818   3.722  0.7882  1.3381  1.0343
  731MOL0     H96449   2.942  10.648   3.757  1.4098 -0.3433 -0.0011
  731MOL0     H96450   3.136  10.868   3.733 -1.7950  1.0367 -0.1196
  731MOL0     H96451   3.184  10.703   3.801 -0.9025 -0.9678 -0.1083
  731MOL0     H96452   3.244  10.733   3.550  1.0243  1.9154  1.9001
  731MOL0     H96453   3.074  10.749   3.518  2.0966 -0.5260 -2.8938
  731MOL0     H96454   3.407  10.601   3.666 -1.6700 -0.1122  3.3606
  731MOL0     H96455   3.539  10.395   3.730  1.8089 -3.4983 -1.5655
  731MOL0     H96456   3.778  10.180   3.909  2.0389 -1.3006  1.4955
  731MOL0     H96457   3.995  10.062   3.926  0.3889 -0.7810  0.1903
  731MOL0     H96458   4.128   9.736   3.605 -1.0411 -0.6851  0.5045
  731MOL0     H96459   4.007   9.720   3.740 -2.2692  2.7396  0.0079
  731MOL0     H96460   4.312   9.780   3.742 -0.0795  2.9755  2.1267
  731MOL0     H96461   4.248   9.619   3.757 -0.1185  0.2048 -1.7949
  731MOL0     H96462   4.117   9.731   3.975  0.1827 -0.8881 -0.1243
  731MOL0     H96463   4.227   9.869   3.945  1.6586 -0.4245  0.5520
  731MOL0     H96464   4.434   9.745   3.969  2.3057  0.0678  2.1195
  731MOL0     H96465   4.337   9.743   4.121  0.7305 -0.5504 -0.3426
  731MOL0     H96466   4.262   9.506   4.008  0.3602 -0.0684  0.0459
  731MOL0     H96467   4.370   9.531   4.150 -0.3344  0.7760  0.4745
  731MOL0     H96468   4.527   9.567   3.899  1.5273 -0.8495 -0.0984
  731MOL0     H96469   4.418   9.431   3.881  0.9825  0.4056 -0.3694
  731MOL0     H96470   4.604   9.499   4.132  1.9906 -0.8239 -0.5687
  731MOL0     H96471   4.524   9.344   4.090 -1.2248  1.0881  1.1819
  731MOL0     H96472   4.743   9.326   4.052 -1.9469  1.2656  1.8723
  731MOL0     H96473   4.765   9.474   3.963 -0.3282  1.4478  2.3850
  731MOL0     H96474   3.898   9.878   3.545 -0.4616 -0.1826  0.9574
  731MOL0     H96475   3.686   9.985   3.544  0.7344 -0.8925 -0.4446
  731MOL0     H96476   3.252  10.142   3.557 -2.7292  1.1259  1.0124
  731MOL0     H96477   3.110  10.324   3.509  0.3109 -1.5807  0.6816
  731MOL0     H96478   2.203  10.692   4.938  0.4789 -0.3192  1.0726
  731MOL0     H96479   2.167  10.508   5.082 -1.3406 -0.3378  1.5479
  731MOL0     H96480   1.645  10.116   5.158 -2.9456  1.6518  1.3314
  731MOL0     H96481   1.599   9.993   5.354  0.5426  0.1460 -2.6245
  731MOL0     H96482   1.891   9.988   5.692  0.0856  5.0272  1.1552
  731MOL0     H96483   1.756   9.902   5.769 -0.7099  0.7870  2.5450
  731MOL0     H96484   1.743  10.205   5.712  2.0166 -0.0870  1.0504
  731MOL0     H96485   1.603  10.093   5.738 -0.6698 -1.3400 -0.1477
  731MOL0     H96486   1.852  10.113   5.926  0.1391  1.9676 -1.0714
  731MOL0     H96487   1.689  10.042   5.958 -0.8320  1.2068  0.0792
  731MOL0     H96488   1.776  10.336   5.955 -2.5123  2.2769 -0.3407
  731MOL0     H96489   1.617  10.307   5.909  0.9206 -0.1273 -1.0314
  731MOL0     H96490   1.658  10.284   6.333  0.4000  0.6984  0.2240
  731MOL0     H96491   1.942  10.143   5.555 -0.7754 -1.3868  0.4887
  731MOL0     H96492   1.960  10.313   5.369 -0.3176  0.2147  1.0290
  732MOL0     O96493   0.057   3.958  11.373 -0.2024 -0.2253  0.5923
  732MOL0     C96494   0.010   3.872  11.447  0.3228  0.7492  0.0572
  732MOL0     O96495  -0.081   3.781  11.405  0.3171  0.0832  0.8138
  732MOL0     C96496  -0.116   3.775  11.273  0.0923  1.0147  0.6528
  732MOL0     C96497  -0.130   3.640  11.230 -0.1748  0.1707 -0.1044
  732MOL0     C96498  -0.163   3.616  11.098  0.2116 -0.3690 -0.0945
  732MOL0     C96499  -0.198   3.717  11.021  0.3371  0.5376  0.9353
  732MOL0     O96500  -0.248   3.687  10.893 -1.0172 -0.1408 -0.1624
  732MOL0     C96501  -0.295   3.783  10.800 -0.5210  0.7051 -1.0882
  732MOL0     C96502  -0.423   3.854  10.850 -0.4866 -0.5089 -0.1896
  732MOL0     C96503  -0.532   3.829  10.751 -0.0575  0.2404 -0.0776
  732MOL0     C96504  -0.660   3.919  10.793  0.1240  0.6009  1.2136
  732MOL0     C96505  -0.772   3.879  10.705 -0.0547  0.9210 -0.0544
  732MOL0     C96506  -0.813   3.997  10.618  0.0150  0.0336 -0.4173
  732MOL0     C96507  -0.730   4.016  10.490 -0.7328  0.4832 -0.4924
  732MOL0     C96508  -0.751   4.155  10.415 -0.5499  0.6952 -1.3290
  732MOL0     N96509  -0.724   4.158  10.269  0.0047  0.4678  1.2391
  732MOL0     C96510  -0.782   4.069  10.173 -1.0851 -0.7020  0.7585
  732MOL0     C96511  -0.694   4.081  10.069 -0.3187 -0.1732  0.9030
  732MOL0     C96512  -0.715   4.009   9.933 -0.5572  0.6758  0.4348
  732MOL0     C96513  -0.614   4.062   9.820  0.1755 -0.3530 -0.4881
  732MOL0     C96514  -0.667   4.006   9.682 -0.7004 -0.1969  0.5067
  732MOL0     C96515  -0.578   4.043   9.560  0.4329 -0.1670 -0.5653
  732MOL0     O96516  -0.444   4.072   9.608  0.5474  0.1664 -0.5113
  732MOL0     C96517  -0.348   4.089   9.510 -0.5938  1.6230 -0.5037
  732MOL0     C96518  -0.365   4.138   9.383  0.0358 -0.9014  0.0164
  732MOL0     C96519  -0.253   4.166   9.305  0.2808  0.3184 -0.0587
  732MOL0     C96520  -0.120   4.152   9.344  0.2925 -0.7545 -0.5513
  732MOL0     C96521  -0.001   4.167   9.257 -0.1440  0.7473 -0.4056
  732MOL0     O96522   0.122   4.167   9.317 -0.0243  0.1236  0.5704
  732MOL0     C96523   0.237   4.158   9.245  0.5321 -0.4477 -0.3896
  732MOL0     C96524   0.346   4.231   9.296  0.6613 -0.2795 -0.8171
  732MOL0     C96525   0.465   4.238   9.237 -0.0222 -0.7876 -0.9789
  732MOL0     C96526   0.481   4.180   9.110 -0.4510  0.1553 -1.0817
  732MOL0     O96527   0.600   4.182   9.038  0.2148 -0.8622  0.2729
  732MOL0     C96528   0.737   4.149   9.100  1.1886 -0.2213 -0.3387
  732MOL0     C96529   0.813   4.060   9.002  0.3110  0.4858  0.3659
  732MOL0     C96530   0.943   4.005   9.062  0.5005 -0.3505 -0.3797
  732MOL0     C96531   0.980   3.888   8.975 -0.2150 -0.1684  0.9132
  732MOL0     C96532   1.116   3.844   9.002  0.6506  1.0593  0.1717
  732MOL0     C96533   1.154   3.730   8.914 -0.5621 -0.7947  0.2762
  732MOL0     C96534   1.301   3.705   8.935 -0.6849  0.9584  1.2434
  732MOL0     C96535   1.393   3.752   8.810  0.3243 -0.0518  0.7736
  732MOL0    Cl96536   1.371   3.647   8.659 -0.0167 -0.1317  0.1617
  732MOL0     C96537   0.377   4.115   9.050 -0.3201  0.1499  0.3427
  732MOL0     C96538   0.252   4.090   9.122  0.6843 -0.6257 -1.1675
  732MOL0     O96539  -0.024   4.184   9.140  1.0096  0.4539 -0.3725
  732MOL0     C96540  -0.108   4.121   9.481  0.0267  1.0556  0.0532
  732MOL0     C96541  -0.219   4.087   9.569 -0.4527  0.4306  0.4185
  732MOL0     N96542  -0.592   4.165  10.087 -0.0408  0.0991  0.4563
  732MOL0     N96543  -0.606   4.209  10.214  0.3606  0.2296  0.2161
  732MOL0     C96544  -0.188   3.848  11.066  0.1643 -0.1209  0.6235
  732MOL0     C96545  -0.130   3.879  11.186  1.1523 -1.2866  0.3050
  732MOL0     C96546   0.053   3.877  11.583  0.5982 -0.4890  0.6728
  732MOL0     C96547   0.041   3.768  11.669 -0.7700 -0.1432 -0.4057
  732MOL0     C96548   0.088   3.774  11.799  0.1998 -0.0066  0.3109
  732MOL0     C96549   0.140   3.888  11.841 -0.2545 -0.3522  0.1767
  732MOL0     O96550   0.174   3.885  11.973  0.1246  0.1680 -0.0140
  732MOL0     C96551   0.114   3.997  12.048 -0.2386  0.4002  1.4030
  732MOL0     C96552   0.092   3.961  12.196  1.1091 -0.0620 -0.3984
  732MOL0     C96553  -0.041   3.884  12.219 -0.5935  0.9337  0.3888
  732MOL0     C96554  -0.049   3.831  12.366 -0.6432 -0.5481  0.5407
  732MOL0     C96555  -0.121   3.930  12.445  0.4895  0.3115  0.4338
  732MOL0     C96556  -0.194   3.988  12.518  0.1388 -0.5376 -0.1675
  732MOL0     C96557   0.125   4.005  11.766  0.6340  0.4344 -0.7800
  732MOL0     C96558   0.097   3.999  11.637 -0.8796  0.2209  0.5700
  732MOL0     H96559  -0.086   3.562  11.291 -0.3821 -0.9472 -1.3465
  732MOL0     H96560  -0.163   3.511  11.071  0.1700  0.0056 -1.6317
  732MOL0     H96561  -0.316   3.732  10.706 -3.0067 -0.8655  0.2309
  732MOL0     H96562  -0.208   3.849  10.785 -0.4569  1.1469  0.9285
  732MOL0     H96563  -0.413   3.962  10.856  2.9712 -0.6741 -1.2104
  732MOL0     H96564  -0.446   3.827  10.954  2.6693 -0.5078  0.5962
  732MOL0     H96565  -0.551   3.722  10.739 -0.6721  0.6477 -3.8183
  732MOL0     H96566  -0.510   3.854  10.647  2.3652 -1.7152 -0.0986
  732MOL0     H96567  -0.683   3.899  10.898 -0.3800  0.0516  1.0014
  732MOL0     H96568  -0.633   4.025  10.782  2.2367 -0.0796 -1.1745
  732MOL0     H96569  -0.851   3.851  10.776  0.8893 -1.2680  0.2434
  732MOL0     H96570  -0.758   3.790  10.643 -2.2556  0.1169  0.4942
  732MOL0     H96571  -0.823   4.086  10.682 -2.0080 -0.3565 -0.1120
  732MOL0     H96572  -0.916   3.977  10.585  0.1352 -1.3106 -0.0389
  732MOL0     H96573  -0.625   4.008  10.518 -1.0447 -0.6336  0.4855
  732MOL0     H96574  -0.755   3.940  10.415 -2.1904  0.1998  0.2465
  732MOL0     H96575  -0.676   4.220  10.460  0.5414 -0.2524 -1.7384
  732MOL0     H96576  -0.854   4.189  10.433 -0.8829 -0.9402  0.1018
  732MOL0     H96577  -0.876   4.015  10.174 -3.0676  2.3664 -1.6628
  732MOL0     H96578  -0.814   4.022   9.889 -1.1659 -2.7945  0.5592
  732MOL0     H96579  -0.697   3.904   9.956 -1.5117  0.1760 -0.9542
  732MOL0     H96580  -0.508   4.041   9.832  0.8747  2.8192 -0.2189
  732MOL0     H96581  -0.622   4.171   9.825  3.2638 -0.0747  0.7518
  732MOL0     H96582  -0.665   3.897   9.696  2.6293 -0.3809 -0.3882
  732MOL0     H96583  -0.770   4.037   9.664  0.3749  2.6508 -1.5352
  732MOL0     H96584  -0.623   4.131   9.514  1.1918 -0.2187 -1.4309
  732MOL0     H96585  -0.573   3.952   9.500 -1.8662  0.3329 -1.6102
  732MOL0     H96586  -0.458   4.140   9.328  1.0827 -0.7172 -1.8224
  732MOL0     H96587  -0.270   4.202   9.204 -2.0855 -2.0344 -0.6327
  732MOL0     H96588   0.335   4.268   9.397 -3.9633  0.5346 -1.4059
  732MOL0     H96589   0.550   4.266   9.298  0.8844 -1.3636 -1.9478
  732MOL0     H96590   0.728   4.087   9.190  2.9978  1.7841  1.3577
  732MOL0     H96591   0.785   4.246   9.118  0.4024 -0.3172  2.9652
  732MOL0     H96592   0.834   4.126   8.916  1.4249  2.6705  2.1982
  732MOL0     H96593   0.740   3.986   8.967  1.1925  0.5300 -1.7391
  732MOL0     H96594   0.944   3.981   9.169  0.7831  0.5375 -0.1719
  732MOL0     H96595   1.022   4.081   9.065  3.7885 -3.5007 -1.2865
  732MOL0     H96596   0.919   3.801   9.001  1.2318 -1.0004  1.6186
  732MOL0     H96597   0.968   3.903   8.867 -2.3978  0.9457  1.2479
  732MOL0     H96598   1.117   3.811   9.107 -2.7058 -1.2963 -0.3656
  732MOL0     H96599   1.190   3.921   8.982  4.2169 -1.6381  1.7852
  732MOL0     H96600   1.129   3.750   8.809  1.5439  2.1210  0.2050
  732MOL0     H96601   1.109   3.639   8.955 -0.0908  0.3509  3.6356
  732MOL0     H96602   1.336   3.765   9.019 -2.1626  4.6311 -0.5396
  732MOL0     H96603   1.329   3.599   8.940  1.5703  1.2077 -2.2987
  732MOL0     H96604   1.498   3.748   8.842  1.0839  3.8836 -0.6329
  732MOL0     H96605   1.367   3.854   8.780  2.1312  0.9571  2.4294
  732MOL0     H96606   0.392   4.077   8.949  3.6016 -0.2213  0.8965
  732MOL0     H96607   0.175   4.028   9.077  0.2193 -1.4638  0.6798
  732MOL0     H96608  -0.011   4.119   9.530  0.5231 -2.9958 -0.7650
  732MOL0     H96609  -0.207   4.083   9.677  0.1276 -0.4739  0.3250
  732MOL0     H96610  -0.200   3.925  10.990 -2.6065 -1.9386 -0.9828
  732MOL0     H96611  -0.107   3.981  11.214  1.4905 -0.9192 -1.2015
  732MOL0     H96612   0.005   3.673  11.631  1.5674 -0.4183 -2.1569
  732MOL0     H96613   0.070   3.690  11.866 -0.7363  1.4664  2.0136
  732MOL0     H96614   0.025   4.043  12.003  1.4065  0.6418 -1.8865
  732MOL0     H96615   0.188   4.076  12.037  0.0206 -0.1432 -1.9098
  732MOL0     H96616   0.184   3.908  12.220  1.1672 -0.1469 -0.7956
  732MOL0     H96617   0.081   4.054  12.253  0.6886 -0.3477 -0.0024
  732MOL0     H96618  -0.051   3.795  12.155  0.1058 -1.0357  2.8360
  732MOL0     H96619  -0.119   3.952  12.186 -0.7147  1.8412  2.4240
  732MOL0     H96620  -0.109   3.740  12.365 -0.2136 -0.8898  2.1065
  732MOL0     H96621   0.051   3.798  12.395 -0.1695 -0.7343 -1.1931
  732MOL0     H96622  -0.261   4.044  12.580 -1.5080 -0.7486 -1.6994
  732MOL0     H96623   0.161   4.101  11.801 -2.7271  1.0497  1.4856
  732MOL0     H96624   0.106   4.085  11.571  0.5088  1.8605  2.7437
  733MOL0     O96625   6.093  10.549   5.410  0.0457  0.0741 -0.7892
  733MOL0     C96626   6.209  10.516   5.441 -0.5592  0.0956  0.4031
  733MOL0     O96627   6.306  10.596   5.516  0.1912  0.1714  0.7534
  733MOL0     C96628   6.248  10.719   5.561 -0.0933  0.6438 -1.0175
  733MOL0     C96629   6.310  10.844   5.542  0.2580  0.3634  0.8431
  733MOL0     C96630   6.252  10.966   5.582 -0.2788  0.1115 -0.5856
  733MOL0     C96631   6.139  10.970   5.663  0.5165  0.4515  0.2808
  733MOL0     O96632   6.079  11.086   5.705  0.5408 -0.9022  0.9379
  733MOL0     C96633   6.122  11.112   5.844 -0.7225  0.2851  0.6784
  733MOL0     C96634   6.041  11.229   5.891  0.3631  0.0132  0.2875
  733MOL0     C96635   6.048  11.372   5.811 -0.0185 -0.2050  0.0002
  733MOL0     C96636   5.933  11.460   5.853 -0.0775 -0.2199  1.0920
  733MOL0     C96637   5.911  11.575   5.749 -0.1708  0.1392 -0.4240
  733MOL0     C96638   5.802  11.679   5.781 -0.5326 -0.1310 -0.8600
  733MOL0     C96639   5.835  11.794   5.871  0.4087 -0.2771  1.1667
  733MOL0     C96640   5.706  11.851   5.923  0.9360 -0.4483 -0.3228
  733MOL0     N96641   5.624  11.925   5.828  1.0859  0.0275 -0.6125
  733MOL0     C96642   5.572  11.884   5.708  0.3600 -0.9946 -0.2369
  733MOL0     C96643   5.524  11.997   5.647 -0.5170  0.6841 -0.2764
  733MOL0     C96644   5.459  12.008   5.518  0.2875 -0.2352  0.7643
  733MOL0     C96645   5.303  12.026   5.532  0.1439  0.6905  0.4852
  733MOL0     C96646   5.264  12.170   5.544 -0.1167  0.4128  0.9584
  733MOL0     C96647   5.114  12.182   5.531  0.7773 -0.1751 -0.0139
  733MOL0     O96648   5.045  12.113   5.641  0.5009  0.0972  0.8239
  733MOL0     C96649   4.915  12.140   5.661 -0.3147 -0.6985 -1.4010
  733MOL0     C96650   4.836  12.200   5.574  0.1060 -0.4943  0.8459
  733MOL0     C96651   4.705  12.231   5.608 -0.2966 -0.9720 -0.6490
  733MOL0     C96652   4.633  12.190   5.723  0.1814 -0.1999  0.3829
  733MOL0     C96653   4.491  12.212   5.736 -0.9791  1.5053 -0.1096
  733MOL0     O96654   4.426  12.133   5.825 -0.2179 -0.5883 -0.4020
  733MOL0     C96655   4.293  12.173   5.865  0.2476 -0.1021  0.6665
  733MOL0     C96656   4.202  12.069   5.837  0.8299  0.2140  0.4517
  733MOL0     C96657   4.073  12.081   5.868 -0.3284 -0.4307 -0.2137
  733MOL0     C96658   4.025  12.201   5.929 -0.3720 -1.2161 -0.2037
  733MOL0     O96659   3.891  12.195   5.962  0.0513  0.4833  0.3030
  733MOL0     C96660   3.838  12.328   5.948 -0.7787  0.2639  0.0097
  733MOL0     C96661   3.681  12.346   5.953 -0.0622 -0.7548 -1.0337
  733MOL0     C96662   3.629  12.278   6.085 -0.0864  0.2810  0.6899
  733MOL0     C96663   3.494  12.319   6.115  0.8811  0.8412  0.3164
  733MOL0     C96664   3.432  12.242   6.239  0.3698  0.3426  0.0388
  733MOL0     C96665   3.297  12.303   6.270 -0.6520  0.3785 -0.7172
  733MOL0     C96666   3.190  12.262   6.171 -0.6407 -0.0837 -0.9894
  733MOL0     C96667   3.085  12.366   6.172  0.2540 -0.4507  0.0755
  733MOL0    Cl96668   3.012  12.398   6.342 -0.0749 -0.1278 -0.0904
  733MOL0     C96669   4.114  12.304   5.968  0.5039  0.3432 -0.4005
  733MOL0     C96670   4.251  12.285   5.928  0.1263 -0.6452  0.4003
  733MOL0     O96671   4.441  12.302   5.682 -0.4210 -0.8335 -0.1010
  733MOL0     C96672   4.717  12.120   5.813  0.1685  0.6222 -0.4428
  733MOL0     C96673   4.855  12.097   5.776  0.2866  0.1631 -1.1293
  733MOL0     N96674   5.538  12.102   5.730 -0.6722 -0.1002  0.1859
  733MOL0     N96675   5.604  12.058   5.833 -0.7666 -0.4807  0.4168
  733MOL0     C96676   6.088  10.846   5.703  0.7899 -0.4270  0.0893
  733MOL0     C96677   6.135  10.724   5.655  0.0144 -0.4713  0.1676
  733MOL0     C96678   6.245  10.380   5.396  0.9168  0.1136  0.8447
  733MOL0     C96679   6.378  10.348   5.381 -0.4665 -0.1591 -0.0494
  733MOL0     C96680   6.409  10.228   5.326 -0.3494 -0.4756  0.3327
  733MOL0     C96681   6.317  10.131   5.285  0.1858  0.4519 -0.3559
  733MOL0     O96682   6.359  10.013   5.230 -0.4274  0.5942 -0.0618
  733MOL0     C96683   6.280   9.970   5.115 -0.9797 -0.3004 -0.0063
  733MOL0     C96684   6.293   9.814   5.090  0.8414  1.4195 -0.1546
  733MOL0     C96685   6.438   9.773   5.103 -0.4131  0.5501 -0.2253
  733MOL0     C96686   6.447   9.622   5.078  0.2392 -0.6066  0.7192
  733MOL0     C96687   6.402   9.537   5.185  0.0593  0.2553  0.4240
  733MOL0     C96688   6.376   9.469   5.277 -1.4243  0.4430  0.6420
  733MOL0     C96689   6.186  10.164   5.319  0.0208 -0.1761 -0.5073
  733MOL0     C96690   6.148  10.291   5.368 -0.4543  0.3733  0.4006
  733MOL0     H96691   6.388  10.838   5.466  1.5089  2.9272  1.8312
  733MOL0     H96692   6.300  11.062   5.563  0.3348 -0.8192 -4.6878
  733MOL0     H96693   6.227  11.142   5.846 -0.5089 -0.4499  0.9901
  733MOL0     H96694   6.117  11.021   5.905  3.6174 -0.7843 -0.2387
  733MOL0     H96695   6.070  11.247   5.995  3.8465  0.0938 -0.5752
  733MOL0     H96696   5.938  11.193   5.888 -0.5331  2.3790 -0.9738
  733MOL0     H96697   6.025  11.359   5.705 -2.4813 -0.0027  0.4659
  733MOL0     H96698   6.148  11.417   5.816  1.2489 -2.9032  0.6809
  733MOL0     H96699   5.839  11.404   5.855 -0.2192 -0.0928 -0.6305
  733MOL0     H96700   5.954  11.504   5.951 -3.8695  3.0303  0.6653
  733MOL0     H96701   5.876  11.535   5.653  0.5602 -1.5722 -0.0126
  733MOL0     H96702   6.009  11.623   5.736  0.3807 -1.0007 -0.6547
  733MOL0     H96703   5.736  11.616   5.840  0.8437 -0.3765  0.4898
  733MOL0     H96704   5.752  11.719   5.693 -1.9325 -0.1348 -0.0998
  733MOL0     H96705   5.886  11.760   5.962  0.6826 -1.9875  0.4243
  733MOL0     H96706   5.896  11.862   5.810  0.3385 -0.4378  0.9116
  733MOL0     H96707   5.727  11.917   6.008 -2.6032 -0.1330  0.4418
  733MOL0     H96708   5.647  11.774   5.972 -2.8511  1.6096 -1.2495
  733MOL0     H96709   5.564  11.785   5.664  0.8786 -1.0147 -0.2894
  733MOL0     H96710   5.477  11.922   5.453 -1.5304 -1.5796  1.9283
  733MOL0     H96711   5.500  12.102   5.479 -1.3996 -0.7552 -2.6362
  733MOL0     H96712   5.271  11.962   5.615 -0.9280 -1.1090 -1.2348
  733MOL0     H96713   5.250  11.987   5.445 -1.7783  1.8595  1.0666
  733MOL0     H96714   5.301  12.210   5.639  1.7715  0.0384  0.4308
  733MOL0     H96715   5.316  12.223   5.464 -1.6120  0.6574  0.1275
  733MOL0     H96716   5.072  12.143   5.438 -0.4732  2.8925 -0.8619
  733MOL0     H96717   5.089  12.288   5.533 -0.8050 -0.4781 -1.2246
  733MOL0     H96718   4.870  12.231   5.476  1.1771  0.1008  1.3931
  733MOL0     H96719   4.656  12.304   5.544 -0.2021  1.0053  1.4077
  733MOL0     H96720   4.233  11.974   5.794 -0.5131 -0.3540  0.6667
  733MOL0     H96721   4.002  12.001   5.847  0.4240 -1.0116 -0.6137
  733MOL0     H96722   3.871  12.373   5.854  2.5536 -0.2919  0.7810
  733MOL0     H96723   3.885  12.387   6.027 -0.7524  0.3631 -0.0797
  733MOL0     H96724   3.645  12.305   5.858 -1.3057  1.4589 -1.5939
  733MOL0     H96725   3.659  12.453   5.955  0.8297 -0.4894  2.9123
  733MOL0     H96726   3.686  12.311   6.172 -1.9440 -0.9642  2.4927
  733MOL0     H96727   3.631  12.171   6.062 -2.0411  0.8171 -2.6413
  733MOL0     H96728   3.489  12.427   6.137 -1.9197  1.2428 -1.7040
  733MOL0     H96729   3.441  12.286   6.025  0.0211 -1.6619  1.6514
  733MOL0     H96730   3.491  12.265   6.328 -1.2659  0.6704  1.0783
  733MOL0     H96731   3.424  12.135   6.219  3.1986  0.2721 -1.1348
  733MOL0     H96732   3.311  12.411   6.264  1.9765  0.0470 -2.1347
  733MOL0     H96733   3.280  12.268   6.372  1.9639  3.4823  0.9360
  733MOL0     H96734   3.234  12.248   6.072  0.7052  0.3577 -0.4698
  733MOL0     H96735   3.143  12.171   6.209  0.1765 -1.1709 -2.4638
  733MOL0     H96736   3.001  12.324   6.116 -2.5732  2.0698  2.1289
  733MOL0     H96737   3.110  12.465   6.133  1.6699 -1.5095 -1.9422
  733MOL0     H96738   4.086  12.402   6.004  1.9078  2.0047 -3.4351
  733MOL0     H96739   4.329  12.359   5.945  0.4019 -1.2000  1.6721
  733MOL0     H96740   4.676  12.084   5.907  1.4134  3.5214  1.3415
  733MOL0     H96741   4.904  12.043   5.857  0.2803  2.0883  0.2166
  733MOL0     H96742   6.007  10.845   5.776  0.9632  0.4621  0.3046
  733MOL0     H96743   6.080  10.637   5.691  1.3284 -1.2416  0.3869
  733MOL0     H96744   6.441  10.434   5.406 -3.0828  1.9607 -0.3024
  733MOL0     H96745   6.508  10.199   5.292 -0.3138 -0.9886  0.8720
  733MOL0     H96746   6.319  10.022   5.027  0.2783  1.8279  1.6848
  733MOL0     H96747   6.174   9.992   5.131 -0.6981 -0.2693  2.1320
  733MOL0     H96748   6.238   9.764   5.170  0.4698  0.8068 -0.7875
  733MOL0     H96749   6.245   9.770   5.003 -0.0855 -2.8376  2.2149
  733MOL0     H96750   6.483   9.787   5.202  2.0342 -2.0876 -0.8281
  733MOL0     H96751   6.489   9.827   5.022 -1.5959  1.3668 -0.4517
  733MOL0     H96752   6.381   9.604   4.993  1.6419  3.2992 -1.4791
  733MOL0     H96753   6.547   9.588   5.050 -0.0945 -0.5608 -0.6214
  733MOL0     H96754   6.341   9.414   5.363 -1.0080  0.6449  0.9463
  733MOL0     H96755   6.117  10.082   5.305  0.3132 -0.4555 -0.3148
  733MOL0     H96756   6.042  10.309   5.379 -0.4945 -0.8694  2.5359
  734MOL0     O96757   6.993   7.536   7.525 -0.5169  0.5485 -0.4489
  734MOL0     C96758   7.036   7.645   7.558  0.6131  0.9922  0.1996
  734MOL0     O96759   6.991   7.758   7.510  0.7646 -0.2903  0.3721
  734MOL0     C96760   6.870   7.754   7.450 -0.0075  0.4535  0.0366
  734MOL0     C96761   6.770   7.783   7.537  0.3758  0.3142  0.9974
  734MOL0     C96762   6.640   7.770   7.502  0.1373  0.0940  0.4940
  734MOL0     C96763   6.610   7.717   7.378 -0.2871 -0.4403  0.3643
  734MOL0     O96764   6.481   7.694   7.352 -1.1958  0.1807  0.0784
  734MOL0     C96765   6.431   7.745   7.231  1.1267 -0.3910 -0.2953
  734MOL0     C96766   6.281   7.733   7.224 -0.7863 -0.3484  0.0288
  734MOL0     C96767   6.197   7.812   7.331 -0.0342  0.3515  0.4107
  734MOL0     C96768   6.167   7.962   7.307  0.0660 -0.2105 -0.0284
  734MOL0     C96769   6.062   8.022   7.407  0.5823 -0.5114 -0.1561
  734MOL0     C96770   6.025   8.163   7.357 -0.3644  0.3382 -0.3726
  734MOL0     C96771   5.955   8.255   7.454 -0.2640  0.2553  0.1294
  734MOL0     C96772   5.812   8.200   7.481  0.2696  0.3127 -0.2637
  734MOL0     N96773   5.714   8.245   7.385  0.6258 -0.5226 -0.0630
  734MOL0     C96774   5.680   8.172   7.277 -0.1483 -0.1873  0.3476
  734MOL0     C96775   5.600   8.255   7.206 -0.5887 -0.5519 -0.4402
  734MOL0     C96776   5.540   8.216   7.081  0.5869 -0.0945  0.2224
  734MOL0     C96777   5.413   8.122   7.094 -0.2069 -0.4101  0.3520
  734MOL0     C96778   5.278   8.186   7.109  0.5950  0.1769 -0.3266
  734MOL0     C96779   5.159   8.102   7.070 -0.7394 -0.1406  0.2000
  734MOL0     O96780   5.041   8.153   7.142 -0.4052 -0.0040  0.1520
  734MOL0     C96781   4.923   8.095   7.115  0.0113  0.1162 -0.2935
  734MOL0     C96782   4.911   7.988   7.023 -0.0939  0.0203 -1.0529
  734MOL0     C96783   4.796   7.922   7.010 -0.3790 -1.6020 -0.7943
  734MOL0     C96784   4.680   7.963   7.090 -0.0109  0.7318 -0.3164
  734MOL0     C96785   4.552   7.886   7.075  0.3391 -0.4689 -0.5758
  734MOL0     O96786   4.572   7.764   7.021  0.0341 -0.7389 -0.0235
  734MOL0     C96787   4.459   7.693   6.975 -0.3596  0.1244 -0.8352
  734MOL0     C96788   4.385   7.744   6.879 -0.3352  0.1350  0.3097
  734MOL0     C96789   4.284   7.670   6.831  1.0576  0.4635 -0.2981
  734MOL0     C96790   4.243   7.546   6.878 -0.5155 -0.0001  0.4875
  734MOL0     O96791   4.122   7.494   6.830  0.1173 -0.1496  0.0433
  734MOL0     C96792   4.110   7.357   6.837 -0.5190 -0.0157  0.1580
  734MOL0     C96793   3.958   7.328   6.822  0.0363 -0.0183  0.7887
  734MOL0     C96794   3.930   7.191   6.872  0.4479 -0.4625 -0.4537
  734MOL0     C96795   3.791   7.161   6.838 -0.4950 -1.3634  0.1120
  734MOL0     C96796   3.740   7.025   6.884  0.1508  0.3054 -0.8724
  734MOL0     C96797   3.605   6.983   6.823 -0.6642  0.2560 -0.4307
  734MOL0     C96798   3.493   7.092   6.821 -0.2522  0.7592 -0.1012
  734MOL0     C96799   3.376   7.047   6.744  0.5973  0.1519  0.0877
  734MOL0    Cl96800   3.407   7.048   6.567 -0.2458 -0.2389  0.0779
  734MOL0     C96801   4.332   7.487   6.965  0.1661 -0.2590 -0.5227
  734MOL0     C96802   4.439   7.563   7.024  0.3595  0.5642  1.0039
  734MOL0     O96803   4.447   7.922   7.127 -0.3679  0.0280  0.2442
  734MOL0     C96804   4.698   8.058   7.191  0.3854  0.3245  0.2569
  734MOL0     C96805   4.824   8.120   7.196  1.0065 -0.2173 -0.1495
  734MOL0     N96806   5.587   8.375   7.279 -0.3333 -0.1033  0.1954
  734MOL0     N96807   5.656   8.368   7.389  0.2809  0.2986  0.3588
  734MOL0     C96808   6.714   7.689   7.288  0.2381 -0.2034 -0.6268
  734MOL0     C96809   6.846   7.701   7.318  0.2517 -0.1777  0.0939
  734MOL0     C96810   7.141   7.641   7.660 -0.5929  0.7267  0.3535
  734MOL0     C96811   7.134   7.729   7.770  1.4555  0.2085 -0.6726
  734MOL0     C96812   7.233   7.728   7.865  0.4879 -0.3322 -0.2342
  734MOL0     C96813   7.351   7.647   7.843 -0.5960  0.2123  0.6859
  734MOL0     O96814   7.450   7.689   7.932  0.5759  0.6042 -0.1609
  734MOL0     C96815   7.589   7.636   7.909 -0.4887 -0.1397 -0.3039
  734MOL0     C96816   7.682   7.738   7.970  0.1074  0.1971 -0.3825
  734MOL0     C96817   7.807   7.671   8.036  0.7038 -0.1857  0.3858
  734MOL0     C96818   7.900   7.776   8.083  0.1172  0.6093  0.0431
  734MOL0     C96819   8.038   7.717   8.065  0.0070 -1.9418  0.2876
  734MOL0     C96820   8.142   7.667   8.070 -0.3461 -0.1352  0.0626
  734MOL0     C96821   7.357   7.564   7.735 -0.3914 -0.5720  0.4987
  734MOL0     C96822   7.252   7.550   7.650 -0.1858 -0.4079 -0.2646
  734MOL0     H96823   6.798   7.813   7.637 -0.0640 -0.0086  1.2218
  734MOL0     H96824   6.564   7.785   7.578 -0.0475  1.3432  0.0776
  734MOL0     H96825   6.474   7.710   7.137  1.0264 -0.4664 -0.3130
  734MOL0     H96826   6.455   7.852   7.234  0.4776 -0.2203 -0.7918
  734MOL0     H96827   6.266   7.626   7.236 -0.7518 -0.4632 -0.8396
  734MOL0     H96828   6.242   7.775   7.130 -0.4005  2.4348  1.0331
  734MOL0     H96829   6.240   7.800   7.430 -2.0131 -0.3913  1.2313
  734MOL0     H96830   6.094   7.779   7.318 -0.2548  0.7321  1.1451
  734MOL0     H96831   6.258   8.021   7.295 -2.0758  2.9582 -2.2226
  734MOL0     H96832   6.119   7.975   7.209  0.0650 -0.0100 -0.0017
  734MOL0     H96833   6.108   8.024   7.506  4.8352 -0.9121 -1.9063
  734MOL0     H96834   5.975   7.956   7.412  1.1854 -1.2996  0.3531
  734MOL0     H96835   5.956   8.151   7.273 -1.8986 -1.1946  1.0330
  734MOL0     H96836   6.119   8.206   7.319  1.4334 -3.4182 -0.6584
  734MOL0     H96837   6.010   8.240   7.547 -3.9814  0.3451  2.5429
  734MOL0     H96838   5.964   8.357   7.415  2.1378 -0.7024 -2.0837
  734MOL0     H96839   5.780   8.250   7.573 -1.6904 -0.2483 -0.5953
  734MOL0     H96840   5.811   8.093   7.500  2.4637  0.1943 -0.5764
  734MOL0     H96841   5.711   8.068   7.264  0.1040  0.1705 -2.5116
  734MOL0     H96842   5.624   8.161   7.037  0.1769  0.1682 -0.9089
  734MOL0     H96843   5.534   8.309   7.024 -2.1578  0.5644  1.4299
  734MOL0     H96844   5.425   8.063   7.185 -0.2566 -4.5334 -2.0824
  734MOL0     H96845   5.427   8.049   7.014 -0.5155 -0.5121  0.3903
  734MOL0     H96846   5.264   8.215   7.213 -1.7295  0.0015 -0.5428
  734MOL0     H96847   5.281   8.280   7.052  0.4932  1.6835  2.0229
  734MOL0     H96848   5.194   8.004   7.105  3.2442  0.5988 -1.1114
  734MOL0     H96849   5.153   8.103   6.961  0.6865  2.3772  0.0748
  734MOL0     H96850   4.981   7.956   6.947 -0.2158 -1.6678 -0.4941
  734MOL0     H96851   4.808   7.847   6.933  0.7245 -2.5080  0.2392
  734MOL0     H96852   4.390   7.848   6.848 -0.0126  0.1302  0.3401
  734MOL0     H96853   4.212   7.711   6.761 -0.1329 -4.1729 -2.1782
  734MOL0     H96854   4.146   7.325   6.935  2.1525 -2.1209 -1.3399
  734MOL0     H96855   4.181   7.311   6.767  1.4570 -0.6728  2.4378
  734MOL0     H96856   3.933   7.341   6.716  2.5705 -0.6505  0.0377
  734MOL0     H96857   3.899   7.402   6.876  1.2970  1.1119  0.6706
  734MOL0     H96858   3.947   7.186   6.980  1.8491 -0.9403 -0.6704
  734MOL0     H96859   3.996   7.118   6.823 -0.5839 -0.8693 -1.2551
  734MOL0     H96860   3.730   7.239   6.883  0.5778 -1.9349  2.7155
  734MOL0     H96861   3.781   7.167   6.729 -1.3139  0.6247  0.2676
  734MOL0     H96862   3.743   7.021   6.993  4.0130  1.8424 -0.7665
  734MOL0     H96863   3.817   6.952   6.856 -1.0048 -1.1423 -0.4399
  734MOL0     H96864   3.576   6.888   6.869 -2.5244  0.8440 -0.3137
  734MOL0     H96865   3.627   6.977   6.716  0.9654  2.4090 -0.2817
  734MOL0     H96866   3.456   7.121   6.920 -0.4070 -1.0883  0.4222
  734MOL0     H96867   3.547   7.177   6.779  1.9962  0.4300  1.9221
  734MOL0     H96868   3.299   7.120   6.773  1.4181 -0.0977  3.1581
  734MOL0     H96869   3.347   6.949   6.782  0.0750 -0.3876 -1.6027
  734MOL0     H96870   4.308   7.398   7.022  1.4055  1.1606  2.4358
  734MOL0     H96871   4.515   7.511   7.081  2.3902  4.0359  1.7537
  734MOL0     H96872   4.619   8.094   7.257 -2.0130  0.5130 -2.5007
  734MOL0     H96873   4.840   8.193   7.274  4.5721 -2.2389  1.2433
  734MOL0     H96874   6.689   7.652   7.189 -1.1325  0.2654 -0.4777
  734MOL0     H96875   6.927   7.654   7.264 -1.2513 -1.9169 -0.7264
  734MOL0     H96876   7.046   7.793   7.773 -1.2146 -2.7997 -4.6306
  734MOL0     H96877   7.230   7.799   7.947  3.2497  1.3741 -1.4614
  734MOL0     H96878   7.627   7.618   7.808 -3.1634  0.3499 -1.5043
  734MOL0     H96879   7.604   7.538   7.956  2.5745  1.1394  1.6880
  734MOL0     H96880   7.713   7.810   7.894  0.1170 -1.1032 -1.6348
  734MOL0     H96881   7.629   7.796   8.046  0.6113  1.9032 -1.2807
  734MOL0     H96882   7.858   7.613   7.959  2.8297  1.6496  0.3356
  734MOL0     H96883   7.784   7.612   8.125 -1.9714  1.4535  0.8874
  734MOL0     H96884   7.903   7.861   8.014 -0.4014 -0.3349 -1.1775
  734MOL0     H96885   7.880   7.805   8.186  0.1226 -0.2440  0.2926
  734MOL0     H96886   8.240   7.623   8.069 -0.8422 -1.2777 -0.9537
  734MOL0     H96887   7.449   7.509   7.719  0.8744  0.9226  2.3320
  734MOL0     H96888   7.244   7.480   7.567 -1.1422 -2.0796  1.1864
  735MOL0     O96889   2.242   5.741  11.044 -0.6850 -0.2321 -0.0170
  735MOL0     C96890   2.194   5.694  10.942 -0.4334  0.2063  0.0792
  735MOL0     O96891   2.262   5.618  10.850  0.2466  0.4123 -0.1404
  735MOL0     C96892   2.396   5.612  10.857  1.1318  0.8373 -0.1993
  735MOL0     C96893   2.465   5.723  10.824 -0.6375 -0.5056  0.0077
  735MOL0     C96894   2.605   5.715  10.812  0.9433  0.5747 -1.2720
  735MOL0     C96895   2.665   5.591  10.827  0.2474 -1.7886  1.3373
  735MOL0     O96896   2.803   5.603  10.807 -0.5015 -0.0227  0.3555
  735MOL0     C96897   2.875   5.487  10.792  0.2283  1.0661  0.2679
  735MOL0     C96898   2.999   5.498  10.709  0.3864  0.3304 -0.1989
  735MOL0     C96899   3.100   5.608  10.749 -0.3383  0.4812 -0.6268
  735MOL0     C96900   3.215   5.615  10.654 -0.2217 -0.2068  0.0263
  735MOL0     C96901   3.352   5.673  10.715 -0.1238  0.8733  0.7198
  735MOL0     C96902   3.463   5.706  10.618  0.3915  0.6110  0.1912
  735MOL0     C96903   3.526   5.591  10.536  0.8317  0.0734  0.8697
  735MOL0     C96904   3.626   5.649  10.442 -0.4538 -0.6022  0.8871
  735MOL0     N96905   3.675   5.549  10.351  0.0196 -0.5539 -0.0327
  735MOL0     C96906   3.606   5.481  10.259 -0.1671 -0.5835 -0.5230
  735MOL0     C96907   3.702   5.403  10.198  0.1758  0.3530  0.6151
  735MOL0     C96908   3.690   5.295  10.088 -0.2090 -0.4186  0.2211
  735MOL0     C96909   3.575   5.335   9.989 -0.2345 -0.3239 -0.2691
  735MOL0     C96910   3.536   5.223   9.894 -0.9786  1.0953 -0.4725
  735MOL0     C96911   3.444   5.270   9.778 -0.1129 -0.1126 -0.2185
  735MOL0     O96912   3.417   5.147   9.695 -0.4451  0.0376 -0.0355
  735MOL0     C96913   3.336   5.150   9.589 -0.1937  1.1257 -0.5669
  735MOL0     C96914   3.259   5.258   9.561  0.8393  0.1999 -0.3302
  735MOL0     C96915   3.187   5.252   9.444  0.8644 -1.1357 -0.6303
  735MOL0     C96916   3.184   5.137   9.363 -0.5311 -0.0974 -0.5098
  735MOL0     C96917   3.105   5.138   9.241 -1.0371 -0.2467  0.8146
  735MOL0     O96918   3.034   5.254   9.201  0.1706  0.6747 -0.8903
  735MOL0     C96919   2.950   5.245   9.091 -0.6722  0.2374  0.3019
  735MOL0     C96920   2.852   5.147   9.067  1.3390  0.7311 -0.2864
  735MOL0     C96921   2.779   5.149   8.947  0.1266 -0.2562 -0.0005
  735MOL0     C96922   2.794   5.250   8.849  0.1570  0.0111 -0.2073
  735MOL0     O96923   2.736   5.260   8.728  0.0314 -0.4383  0.0095
  735MOL0     C96924   2.601   5.220   8.725  1.0046  0.4519  0.6975
  735MOL0     C96925   2.538   5.263   8.597  1.4500  0.4581 -0.3652
  735MOL0     C96926   2.382   5.265   8.612 -0.3535  0.0410 -0.4606
  735MOL0     C96927   2.325   5.123   8.594  0.2221  0.1619  0.1587
  735MOL0     C96928   2.176   5.121   8.609  1.0147  0.8856 -0.0007
  735MOL0     C96929   2.135   4.984   8.562 -0.7970  0.1115  0.1018
  735MOL0     C96930   1.981   4.959   8.581  0.4868  0.2277  0.6889
  735MOL0     C96931   1.923   4.844   8.494  0.1214 -0.5827 -0.1066
  735MOL0    Cl96932   1.987   4.688   8.545  0.2535 -0.1470 -0.1931
  735MOL0     C96933   2.898   5.341   8.869 -0.3584  0.6057 -0.6018
  735MOL0     C96934   2.979   5.329   8.985 -0.0342 -0.2371 -0.3475
  735MOL0     O96935   3.111   5.041   9.171  0.7094  0.0890 -0.4881
  735MOL0     C96936   3.259   5.027   9.400  0.7191 -0.1936 -0.0102
  735MOL0     C96937   3.330   5.033   9.517 -0.2084  0.2466  0.1284
  735MOL0     N96938   3.820   5.420  10.257 -0.0462  0.0279  0.4847
  735MOL0     N96939   3.802   5.506  10.353  0.1171  0.3776  0.1050
  735MOL0     C96940   2.588   5.479  10.864  0.1882  0.1355  0.4672
  735MOL0     C96941   2.454   5.491  10.879  0.3321  0.1894  0.1215
  735MOL0     C96942   2.047   5.720  10.922  0.0700 -0.0397 -0.0874
  735MOL0     C96943   1.962   5.644  10.842  0.3381  0.2071  0.2915
  735MOL0     C96944   1.826   5.661  10.826  0.6356 -0.4035  0.4223
  735MOL0     C96945   1.774   5.781  10.869  1.1072  0.6582  0.0607
  735MOL0     O96946   1.637   5.792  10.849 -0.8424  0.6212 -0.0114
  735MOL0     C96947   1.577   5.916  10.874  0.5490 -0.2836  0.5109
  735MOL0     C96948   1.431   5.890  10.893 -0.6934  0.1056  0.8527
  735MOL0     C96949   1.414   5.795  11.013 -0.8105  0.6875  0.2472
  735MOL0     C96950   1.276   5.733  11.002  0.0973 -0.8533 -0.2860
  735MOL0     C96951   1.166   5.822  11.055  0.2542  0.7284 -0.1975
  735MOL0     C96952   1.071   5.892  11.078  0.3693  0.6180  0.5827
  735MOL0     C96953   1.854   5.872  10.933 -0.5464 -0.0901 -0.7520
  735MOL0     C96954   1.993   5.840  10.965  0.2098 -0.3272 -0.3650
  735MOL0     H96955   2.406   5.812  10.802 -0.9478  0.0782  2.8430
  735MOL0     H96956   2.660   5.802  10.778  3.9455 -1.2065 -1.4276
  735MOL0     H96957   2.818   5.409  10.741  0.7982 -0.2281  1.5702
  735MOL0     H96958   2.892   5.452  10.894  1.8098 -4.0222 -1.4331
  735MOL0     H96959   2.957   5.525  10.612  0.3953  3.0920  0.4817
  735MOL0     H96960   3.052   5.402  10.711 -0.3253 -0.0645 -0.0928
  735MOL0     H96961   3.134   5.563  10.843  0.7715  0.2238 -1.1298
  735MOL0     H96962   3.057   5.708  10.758  1.1805  1.0586  0.8343
  735MOL0     H96963   3.244   5.510  10.636 -0.9470 -0.9076  2.5661
  735MOL0     H96964   3.189   5.671  10.563  0.8497  0.2463 -0.0156
  735MOL0     H96965   3.379   5.603  10.794 -0.6027 -1.1285 -0.8137
  735MOL0     H96966   3.323   5.771  10.753 -0.9599  0.0371  2.3493
  735MOL0     H96967   3.549   5.739  10.676  2.6480 -0.7462 -2.1894
  735MOL0     H96968   3.426   5.790  10.559  3.1148  2.2655  0.6528
  735MOL0     H96969   3.572   5.515  10.600 -2.5645 -0.9388  2.3448
  735MOL0     H96970   3.454   5.534  10.477  0.4869 -0.4513  1.7786
  735MOL0     H96971   3.708   5.702  10.492 -0.3863 -1.3710  1.6171
  735MOL0     H96972   3.575   5.715  10.371  3.0901 -1.7813 -3.2201
  735MOL0     H96973   3.505   5.491  10.221 -0.0296  2.6325 -0.3116
  735MOL0     H96974   3.671   5.202  10.143 -1.5959 -0.0485  0.3992
  735MOL0     H96975   3.778   5.285  10.024 -1.0983 -1.7540 -0.8686
  735MOL0     H96976   3.607   5.416   9.923  1.3071 -0.3957  0.3365
  735MOL0     H96977   3.488   5.369  10.045 -0.2743 -0.1695 -0.4219
  735MOL0     H96978   3.629   5.170   9.871 -0.6915 -0.8524  4.1508
  735MOL0     H96979   3.488   5.141   9.948  1.1098 -0.8509 -1.4219
  735MOL0     H96980   3.495   5.340   9.711 -0.0085 -0.7254 -0.7912
  735MOL0     H96981   3.354   5.325   9.807  0.8856  1.3280  0.2182
  735MOL0     H96982   3.253   5.349   9.621 -0.5200  1.8742 -2.7856
  735MOL0     H96983   3.131   5.342   9.421  3.2133  0.7501  0.5565
  735MOL0     H96984   2.818   5.072   9.139  0.2941  1.1304 -0.3412
  735MOL0     H96985   2.704   5.073   8.923 -0.3493  0.1725  0.1050
  735MOL0     H96986   2.544   5.276   8.800 -0.0183 -0.1513  0.3867
  735MOL0     H96987   2.587   5.112   8.733 -0.2199  0.4315 -0.9986
  735MOL0     H96988   2.562   5.206   8.507 -1.7293 -0.4946 -0.7342
  735MOL0     H96989   2.566   5.367   8.582  2.7141  0.2219  0.2537
  735MOL0     H96990   2.340   5.332   8.536  0.3457  0.5278 -0.4306
  735MOL0     H96991   2.352   5.303   8.710  1.7563  3.1814 -0.8647
  735MOL0     H96992   2.352   5.098   8.491  1.2713  2.0026 -0.0503
  735MOL0     H96993   2.368   5.051   8.665  1.2785 -1.3161 -1.8611
  735MOL0     H96994   2.125   5.195   8.546 -2.1083 -1.6607 -0.6975
  735MOL0     H96995   2.152   5.129   8.716 -0.1177 -0.4869 -0.1248
  735MOL0     H96996   2.196   4.912   8.618 -1.5745  0.7663  1.8399
  735MOL0     H96997   2.165   4.957   8.460 -0.1012 -0.9556  0.5653
  735MOL0     H96998   1.963   4.945   8.688 -0.9247 -1.3430  0.2823
  735MOL0     H96999   1.916   5.042   8.551  0.4702 -0.4255 -1.2380
  735MOL0     H97000   1.950   4.867   8.391  1.8834  1.3214  0.7050
  735MOL0     H97001   1.815   4.842   8.509  0.0204 -2.1729 -0.8336
  735MOL0     H97002   2.930   5.421   8.803  2.4099  2.3510  2.5614
  735MOL0     H97003   3.062   5.396   9.006 -0.9869  0.6059  0.8946
  735MOL0     H97004   3.258   4.939   9.336  2.6132  0.6888 -1.3377
  735MOL0     H97005   3.400   4.957   9.551  0.0327  0.0089 -0.8647
  735MOL0     H97006   2.629   5.380  10.884  0.6737  0.1107 -0.5914
  735MOL0     H97007   2.383   5.414  10.905  1.1146 -1.2167 -1.6829
  735MOL0     H97008   2.000   5.558  10.789 -1.9943 -0.4780 -0.3716
  735MOL0     H97009   1.764   5.586  10.778  0.5904 -0.6989  0.9355
  735MOL0     H97010   1.596   5.982  10.789  2.1074 -0.6515  0.5325
  735MOL0     H97011   1.620   5.963  10.962  0.0744  1.1599  0.0078
  735MOL0     H97012   1.381   5.985  10.911  0.2320  0.6286  0.7263
  735MOL0     H97013   1.382   5.848  10.805 -1.1754 -1.0252  1.6362
  735MOL0     H97014   1.428   5.853  11.105  3.1422  1.6464 -0.7732
  735MOL0     H97015   1.477   5.706  11.020 -1.9296 -0.1600 -0.1779
  735MOL0     H97016   1.247   5.693  10.905 -1.9316 -1.9947  0.7151
  735MOL0     H97017   1.273   5.656  11.079 -1.0155  0.9256  1.5550
  735MOL0     H97018   0.988   5.960  11.079  1.2853  2.0096 -2.9766
  735MOL0     H97019   1.815   5.970  10.957 -1.0983 -0.6849  0.8500
  735MOL0     H97020   2.050   5.917  11.016  2.4545 -1.3589 -1.1424
  736MOL0     O97021   8.248   9.120   5.234 -0.4171  0.5456 -0.6889
  736MOL0     C97022   8.291   9.150   5.345  0.5300  0.3585  0.5117
  736MOL0     O97023   8.387   9.087   5.416 -0.3748 -0.1821 -0.1954
  736MOL0     C97024   8.461   8.985   5.360  0.4424 -0.1102 -0.4481
  736MOL0     C97025   8.529   8.990   5.242  0.7546  0.6803 -0.2320
  736MOL0     C97026   8.597   8.871   5.190  0.2823  0.3064 -0.0602
  736MOL0     C97027   8.590   8.749   5.258 -0.7396  0.0255 -0.9058
  736MOL0     O97028   8.662   8.635   5.221  0.1991  0.5507 -0.2685
  736MOL0     C97029   8.805   8.640   5.254 -0.5175 -0.7196  0.8316
  736MOL0     C97030   8.897   8.692   5.142  0.6440  0.7948 -0.8131
  736MOL0     C97031   9.040   8.697   5.193  1.1045  0.8564 -0.1804
  736MOL0     C97032   9.131   8.748   5.078  0.3733  0.0286 -0.4802
  736MOL0     C97033   9.267   8.799   5.120 -0.8882  0.3751  0.3034
  736MOL0     C97034   9.343   8.680   5.186  0.0017  0.7306 -0.6248
  736MOL0     C97035   9.478   8.730   5.227  0.2460 -1.0868  0.4567
  736MOL0     C97036   9.547   8.627   5.315  1.2063 -0.5395 -0.5541
  736MOL0     N97037   9.670   8.676   5.385  0.1395  0.1217 -2.2981
  736MOL0     C97038   9.777   8.729   5.319 -0.1019  0.9511 -0.1951
  736MOL0     C97039   9.857   8.764   5.431  0.9642  0.0337  0.8955
  736MOL0     C97040   9.996   8.822   5.421 -1.1035  0.3263 -0.2244
  736MOL0     C97041  10.005   8.943   5.331 -0.2343  0.7626 -0.2244
  736MOL0     C97042   9.884   9.058   5.340 -0.9156  0.4117  0.3628
  736MOL0     C97043   9.824   9.079   5.477  0.1377 -0.2221  0.7579
  736MOL0     O97044   9.756   9.202   5.484 -0.6553 -1.0655 -1.0563
  736MOL0     C97045   9.835   9.313   5.482  0.0008 -0.6059 -0.6156
  736MOL0     C97046   9.970   9.328   5.500  0.1044  0.0520 -0.8068
  736MOL0     C97047  10.043   9.447   5.486 -0.4987 -0.3264 -0.4103
  736MOL0     C97048   9.981   9.572   5.463  0.5185  0.4879  0.9232
  736MOL0     C97049  10.051   9.698   5.454 -0.1021  0.5964  0.3285
  736MOL0     O97050   9.979   9.807   5.416 -0.4066  0.6029  0.0456
  736MOL0     C97051  10.034   9.933   5.418 -0.6450 -0.4309  0.2665
  736MOL0     C97052  10.046  10.019   5.524  0.3375  0.1725 -0.0839
  736MOL0     C97053  10.101  10.150   5.514  0.2039 -0.7480 -0.3399
  736MOL0     C97054  10.159  10.191   5.390  0.3800  0.2337  0.6330
  736MOL0     O97055  10.210  10.319   5.359  0.5215  0.4004 -0.0519
  736MOL0     C97056  10.225  10.414   5.468 -0.0603  0.8805  1.1757
  736MOL0     C97057  10.353  10.376   5.554 -0.7271  0.6068  1.1232
  736MOL0     C97058  10.485  10.370   5.461 -0.3994  0.7150 -0.4586
  736MOL0     C97059  10.599  10.308   5.546 -0.0567 -0.7671  0.1028
  736MOL0     C97060  10.719  10.276   5.446  1.3195 -1.4578  0.1059
  736MOL0     C97061  10.837  10.216   5.521 -0.3809 -0.3700 -0.1072
  736MOL0     C97062  10.913  10.322   5.606 -0.9694  0.2263  0.1124
  736MOL0     C97063  11.050  10.259   5.652 -0.0163  1.5831  0.4671
  736MOL0    Cl97064  11.027  10.096   5.718  0.1295 -0.2331  0.0976
  736MOL0     C97065  10.150  10.100   5.284 -0.4013  0.2005  0.3510
  736MOL0     C97066  10.084   9.978   5.295  1.2429 -0.1647 -0.4760
  736MOL0     O97067  10.175   9.697   5.478  1.0652 -0.8622  0.2667
  736MOL0     C97068   9.842   9.567   5.450 -0.1807  0.1610  0.3700
  736MOL0     C97069   9.778   9.441   5.456 -0.1307 -0.1908 -0.0752
  736MOL0     N97070   9.788   8.743   5.550 -0.2308 -0.3612  0.0491
  736MOL0     N97071   9.685   8.677   5.524  0.3853  0.9105 -0.6894
  736MOL0     C97072   8.518   8.749   5.384  0.2352 -0.2868  0.0201
  736MOL0     C97073   8.465   8.870   5.436 -0.0356  1.5295  0.2831
  736MOL0     C97074   8.209   9.251   5.409 -0.2122 -0.1065 -0.2017
  736MOL0     C97075   8.086   9.289   5.360  0.0678 -0.0683  0.2726
  736MOL0     C97076   8.011   9.395   5.415  0.2016 -0.2236 -0.3490
  736MOL0     C97077   8.057   9.474   5.521  0.0378 -0.2023 -0.1300
  736MOL0     O97078   7.994   9.591   5.571 -0.2780 -0.9706 -0.2604
  736MOL0     C97079   7.862   9.614   5.538 -0.0462  0.4259 -0.4067
  736MOL0     C97080   7.802   9.744   5.602 -0.3410  0.2068 -1.3493
  736MOL0     C97081   7.652   9.788   5.573 -0.9578  0.0631  0.4801
  736MOL0     C97082   7.639   9.870   5.440  0.6106 -0.0533 -0.4060
  736MOL0     C97083   7.662   9.777   5.325  0.8845 -0.7510 -0.2254
  736MOL0     C97084   7.683   9.699   5.238 -1.0770  0.7715 -0.1268
  736MOL0     C97085   8.176   9.428   5.582  0.3044 -0.7329 -0.8190
  736MOL0     C97086   8.249   9.324   5.530 -0.3947 -0.6489  0.5455
  736MOL0     H97087   8.533   9.077   5.178 -2.4495  3.5990  3.0904
  736MOL0     H97088   8.650   8.885   5.097  0.3867 -0.2630 -0.0888
  736MOL0     H97089   8.840   8.540   5.284  0.0155 -0.3453  1.4647
  736MOL0     H97090   8.833   8.698   5.342  3.3278  1.1106 -1.3726
  736MOL0     H97091   8.856   8.792   5.122  0.9561  1.3725  1.1813
  736MOL0     H97092   8.907   8.625   5.056  2.3478  1.7150 -1.3782
  736MOL0     H97093   9.060   8.597   5.232 -2.6437 -0.8727 -2.1546
  736MOL0     H97094   9.040   8.760   5.283 -1.1920 -0.7876  1.0750
  736MOL0     H97095   9.138   8.678   4.995  2.4324  0.3700 -0.6466
  736MOL0     H97096   9.090   8.839   5.033 -0.4807 -0.2246 -0.2372
  736MOL0     H97097   9.258   8.884   5.188 -3.2559  0.6539 -0.2831
  736MOL0     H97098   9.326   8.828   5.033  0.0914 -0.8936  0.5177
  736MOL0     H97099   9.361   8.594   5.121  1.7864  0.0907  0.6532
  736MOL0     H97100   9.291   8.654   5.279 -0.7442  3.2094 -0.2621
  736MOL0     H97101   9.536   8.745   5.135 -0.8015  1.5461  0.1225
  736MOL0     H97102   9.470   8.824   5.282  1.6268  0.1440 -1.3060
  736MOL0     H97103   9.575   8.548   5.245 -0.9502 -3.2703  1.3896
  736MOL0     H97104   9.474   8.589   5.388 -0.1092 -0.4881 -1.7981
  736MOL0     H97105   9.791   8.735   5.211 -1.6777  0.4074 -0.4501
  736MOL0     H97106  10.065   8.748   5.381  0.2677  2.6671 -2.5112
  736MOL0     H97107  10.033   8.854   5.519  0.5073 -2.5036  0.1738
  736MOL0     H97108  10.026   8.917   5.227  1.1327  0.3838  0.1215
  736MOL0     H97109  10.100   8.986   5.364  0.6617  0.4338 -2.1775
  736MOL0     H97110   9.915   9.153   5.296  0.6959  0.2672  1.0887
  736MOL0     H97111   9.808   9.027   5.268 -1.2972  0.3790  0.7727
  736MOL0     H97112   9.902   9.072   5.553 -1.6227 -2.5044  2.5120
  736MOL0     H97113   9.752   8.999   5.500 -0.6698  0.0185 -0.7604
  736MOL0     H97114  10.030   9.242   5.529  1.0911  1.2730  0.9674
  736MOL0     H97115  10.144   9.450   5.526 -2.2228  0.3803  4.6543
  736MOL0     H97116  10.023   9.994   5.628  1.1363  0.9019  0.2779
  736MOL0     H97117  10.106  10.214   5.601  0.2925  0.2201 -1.0401
  736MOL0     H97118  10.126  10.406   5.512 -1.6376 -0.0838 -2.1864
  736MOL0     H97119  10.245  10.510   5.420 -3.4708  0.4054 -1.5597
  736MOL0     H97120  10.318  10.283   5.600 -0.1274  0.1026  0.5819
  736MOL0     H97121  10.370  10.440   5.642 -0.6280  1.4021  0.5322
  736MOL0     H97122  10.517  10.473   5.440  0.1365  0.3278 -1.6049
  736MOL0     H97123  10.456  10.327   5.364 -4.0826  2.8772 -0.5260
  736MOL0     H97124  10.623  10.384   5.621 -1.5528  2.2079 -2.2114
  736MOL0     H97125  10.562  10.219   5.598  1.2278  0.2867  3.0389
  736MOL0     H97126  10.745  10.374   5.406 -0.7900 -1.6055 -1.8301
  736MOL0     H97127  10.685  10.215   5.362 -1.5750  1.3079 -0.9018
  736MOL0     H97128  10.902  10.165   5.450  1.7173 -0.9016  2.0311
  736MOL0     H97129  10.806  10.137   5.591 -0.7945  0.2251  0.3888
  736MOL0     H97130  10.933  10.414   5.550 -1.7122  2.7183  3.6228
  736MOL0     H97131  10.862  10.353   5.697  1.1317 -1.8510  2.1468
  736MOL0     H97132  11.119  10.312   5.719  4.0371 -2.7793  0.2540
  736MOL0     H97133  11.102  10.249   5.557  0.6036 -1.4677  1.0274
  736MOL0     H97134  10.195  10.130   5.190 -1.1988  1.7772  0.4489
  736MOL0     H97135  10.073   9.914   5.208  1.1068 -0.8825  0.0539
  736MOL0     H97136   9.784   9.657   5.429 -0.2168  0.5075  1.8306
  736MOL0     H97137   9.671   9.448   5.442 -0.1682  0.2714  0.4273
  736MOL0     H97138   8.513   8.657   5.442 -0.4694 -0.8597 -0.9341
  736MOL0     H97139   8.414   8.861   5.531 -0.6881 -0.2130 -0.1976
  736MOL0     H97140   8.045   9.226   5.282  0.4335  0.4081 -0.3084
  736MOL0     H97141   7.915   9.413   5.367  0.8262  2.6230 -0.7210
  736MOL0     H97142   7.795   9.534   5.571 -1.0443  1.5484  0.3652
  736MOL0     H97143   7.856   9.629   5.429 -1.1543 -0.2030 -0.4468
  736MOL0     H97144   7.806   9.732   5.711 -1.2460  1.3559 -1.1609
  736MOL0     H97145   7.873   9.827   5.596  2.4048 -1.2488  4.1863
  736MOL0     H97146   7.616   9.847   5.658 -0.8288 -3.6521  3.3291
  736MOL0     H97147   7.574   9.711   5.567 -1.2313  0.1614  2.2313
  736MOL0     H97148   7.551   9.932   5.420  1.1958  1.8770  2.3194
  736MOL0     H97149   7.721   9.942   5.448  0.2876  0.2391  0.4377
  736MOL0     H97150   7.703   9.641   5.151 -4.8878  1.4133 -1.6019
  736MOL0     H97151   8.214   9.475   5.672 -2.2678 -0.6477  0.3180
  736MOL0     H97152   8.339   9.288   5.578 -2.4906 -1.5395  4.1868
  737MOL0     O97153   3.116  10.856   4.673 -0.3483  0.6562 -0.5184
  737MOL0     C97154   3.043  10.812   4.762  0.1586  0.3262  0.0471
  737MOL0     O97155   2.924  10.866   4.801  0.2274 -0.6200 -0.4013
  737MOL0     C97156   2.885  10.986   4.757 -0.0496 -0.7666  0.6347
  737MOL0     C97157   2.969  11.101   4.754  0.1755  0.7456 -0.9862
  737MOL0     C97158   2.928  11.216   4.699 -0.0861 -0.4764  0.8294
  737MOL0     C97159   2.801  11.221   4.636 -0.9438  0.0050 -0.4095
  737MOL0     O97160   2.751  11.338   4.579 -0.3554  0.4744 -0.4011
  737MOL0     C97161   2.827  11.394   4.473 -0.6318  0.4765  0.4635
  737MOL0     C97162   2.783  11.532   4.433 -1.0888  0.8713  0.2332
  737MOL0     C97163   2.877  11.577   4.316 -0.3026 -0.0196  0.8311
  737MOL0     C97164   2.821  11.693   4.226 -0.1638  0.3620  0.3384
  737MOL0     C97165   2.914  11.706   4.100 -0.2074  0.5436 -0.4649
  737MOL0     C97166   3.064  11.729   4.121 -0.7743 -0.1807  0.0989
  737MOL0     C97167   3.135  11.732   3.987 -1.1916  0.0433 -1.1114
  737MOL0     C97168   3.289  11.732   4.005 -0.0378 -0.1005  0.2061
  737MOL0     N97169   3.343  11.705   3.873  0.3057 -0.1016 -0.2129
  737MOL0     C97170   3.327  11.788   3.762  0.3901 -0.0088 -0.5507
  737MOL0     C97171   3.363  11.704   3.656  0.6455  0.0697 -0.7832
  737MOL0     C97172   3.375  11.727   3.512  0.2640  0.2599  0.3150
  737MOL0     C97173   3.385  11.877   3.476  0.4910  0.0654  0.4597
  737MOL0     C97174   3.498  11.962   3.545  0.6088  0.7116 -0.9627
  737MOL0     C97175   3.626  11.881   3.554 -0.6627  0.8520 -0.4446
  737MOL0     O97176   3.664  11.837   3.427 -0.1844 -0.5593  0.1822
  737MOL0     C97177   3.771  11.762   3.400 -0.5108 -0.6731 -0.0191
  737MOL0     C97178   3.790  11.715   3.267 -0.2559 -0.7305  0.1419
  737MOL0     C97179   3.926  11.672   3.227 -0.1562  0.2553 -0.5913
  737MOL0     C97180   4.023  11.655   3.318  0.3924 -0.7175  0.0597
  737MOL0     C97181   4.149  11.580   3.277 -0.4877  0.3572 -0.5501
  737MOL0     O97182   4.190  11.489   3.370 -0.1061 -0.1409 -0.3111
  737MOL0     C97183   4.309  11.426   3.326 -0.7083  0.7057 -0.0788
  737MOL0     C97184   4.433  11.482   3.353 -0.6554  0.3433  0.6083
  737MOL0     C97185   4.552  11.421   3.304 -0.0527 -1.5483 -0.4895
  737MOL0     C97186   4.551  11.301   3.234  0.2720  0.0312  0.2058
  737MOL0     O97187   4.655  11.224   3.188  0.5559  0.4520  0.2548
  737MOL0     C97188   4.789  11.269   3.219 -0.6288 -0.0579 -0.5117
  737MOL0     C97189   4.891  11.190   3.137 -0.5003  0.3849  0.4614
  737MOL0     C97190   4.885  11.039   3.158  0.7152  0.2081 -0.7728
  737MOL0     C97191   4.999  10.967   3.087  0.0273 -0.3679 -0.0523
  737MOL0     C97192   4.978  10.818   3.116 -0.0705  0.7915 -0.1648
  737MOL0     C97193   5.064  10.723   3.043 -0.3030 -0.1830 -0.4232
  737MOL0     C97194   5.033  10.718   2.895 -0.0426  0.1546  0.3434
  737MOL0     C97195   5.107  10.601   2.831 -0.0386  0.3661 -0.0877
  737MOL0    Cl97196   5.074  10.574   2.670  0.0578 -0.4435 -0.0095
  737MOL0     C97197   4.431  11.242   3.213  0.6129  0.4407 -0.3317
  737MOL0     C97198   4.311  11.298   3.262  0.1228  0.1095 -0.5237
  737MOL0     O97199   4.198  11.591   3.167  0.0791  0.3458  0.0431
  737MOL0     C97200   3.999  11.675   3.455  0.4139 -0.1403 -0.1954
  737MOL0     C97201   3.874  11.739   3.492 -0.8801 -0.3299  0.3826
  737MOL0     N97202   3.399  11.584   3.714  0.1651  0.1448  0.2071
  737MOL0     N97203   3.383  11.581   3.845 -0.1621 -0.2917  0.0490
  737MOL0     C97204   2.707  11.123   4.661  0.4566  0.1870 -0.3458
  737MOL0     C97205   2.747  11.003   4.723 -0.1917 -1.1191 -0.3847
  737MOL0     C97206   3.078  10.677   4.818  0.0208 -0.4166 -0.1537
  737MOL0     C97207   3.014  10.631   4.930  0.4471 -0.1696 -0.9083
  737MOL0     C97208   3.054  10.505   4.985  0.1840 -0.8528 -0.2260
  737MOL0     C97209   3.143  10.426   4.924  0.2154 -0.2886 -0.5393
  737MOL0     O97210   3.163  10.293   4.957 -0.6392 -0.3384 -0.2829
  737MOL0     C97211   3.041  10.212   4.918 -1.0423 -0.4156  0.3491
  737MOL0     C97212   3.088  10.085   4.851  0.4974 -0.0596 -0.8524
  737MOL0     C97213   2.955  10.009   4.826  0.5735 -0.5222 -0.1781
  737MOL0     C97214   2.981   9.868   4.759  0.0829 -0.5813 -0.6002
  737MOL0     C97215   2.851   9.804   4.725 -0.7220  0.3864  0.2895
  737MOL0     C97216   2.760   9.727   4.720  0.0819  0.1481 -0.7946
  737MOL0     C97217   3.224  10.480   4.817  0.7154  0.4987  0.6620
  737MOL0     C97218   3.191  10.611   4.768 -0.3813  0.9280 -0.5230
  737MOL0     H97219   3.070  11.085   4.791 -0.4932 -3.0752 -0.3545
  737MOL0     H97220   2.999  11.298   4.696 -0.9194  0.2410 -0.0165
  737MOL0     H97221   2.811  11.335   4.383 -0.9402 -0.5006  1.1481
  737MOL0     H97222   2.932  11.412   4.498 -0.5756 -1.8767  2.2008
  737MOL0     H97223   2.793  11.608   4.512 -1.2608  0.1489  0.9623
  737MOL0     H97224   2.683  11.523   4.391 -0.7674  1.1549 -0.6160
  737MOL0     H97225   2.893  11.492   4.250 -1.8588  0.6795 -0.5221
  737MOL0     H97226   2.973  11.608   4.358 -1.2093  3.3304  0.7689
  737MOL0     H97227   2.719  11.678   4.188  0.7361  1.2042 -2.6476
  737MOL0     H97228   2.825  11.789   4.278 -0.1165  0.8418 -0.5423
  737MOL0     H97229   2.879  11.784   4.031  0.4929  1.3896  0.1275
  737MOL0     H97230   2.892  11.617   4.039  1.2040  1.7812 -2.9312
  737MOL0     H97231   3.100  11.650   4.187 -2.9723  1.1734  3.1956
  737MOL0     H97232   3.088  11.827   4.163  1.5127 -0.3287 -0.7291
  737MOL0     H97233   3.102  11.638   3.941 -1.4644  0.4944 -1.8555
  737MOL0     H97234   3.101  11.815   3.925 -2.9862 -0.2889 -0.6125
  737MOL0     H97235   3.321  11.657   4.078  0.3133 -0.7296 -0.5940
  737MOL0     H97236   3.338  11.824   4.039 -2.2422  1.8766 -1.6292
  737MOL0     H97237   3.288  11.889   3.765  2.5528  1.0737 -3.8769
  737MOL0     H97238   3.293  11.673   3.464  0.5952 -0.6562  0.7585
  737MOL0     H97239   3.468  11.677   3.481 -1.8977 -2.7124 -1.8645
  737MOL0     H97240   3.286  11.922   3.489  0.0323 -1.2865  2.0540
  737MOL0     H97241   3.407  11.896   3.371  1.0942  0.7066  0.6969
  737MOL0     H97242   3.505  12.052   3.484 -1.9258  1.7041  0.0807
  737MOL0     H97243   3.463  11.989   3.645  1.9144 -0.7821 -0.0481
  737MOL0     H97244   3.620  11.793   3.618 -0.4951 -0.1823 -1.7993
  737MOL0     H97245   3.701  11.948   3.599  2.3605 -3.7275  2.0850
  737MOL0     H97246   3.719  11.731   3.187  2.6399 -0.6612 -2.6522
  737MOL0     H97247   3.937  11.647   3.122  0.4903 -0.5615 -0.3410
  737MOL0     H97248   4.434  11.575   3.410  0.3347  3.1440 -3.5185
  737MOL0     H97249   4.650  11.466   3.315 -1.7428  2.7306 -0.8334
  737MOL0     H97250   4.818  11.276   3.324  1.3012 -0.5860 -0.9706
  737MOL0     H97251   4.797  11.371   3.180  1.5538  1.5239  3.4903
  737MOL0     H97252   4.988  11.226   3.175  0.4090 -1.0149 -0.4792
  737MOL0     H97253   4.884  11.209   3.030  1.2087  0.5918  0.3629
  737MOL0     H97254   4.784  11.006   3.131 -0.3633  1.3871  1.4799
  737MOL0     H97255   4.898  11.027   3.266  0.5347 -0.7015 -0.8489
  737MOL0     H97256   4.989  10.983   2.979  2.9855  1.0927 -0.2139
  737MOL0     H97257   5.097  11.004   3.117  0.1176  3.5007 -4.0619
  737MOL0     H97258   4.873  10.792   3.098 -0.1215  0.4526  0.5984
  737MOL0     H97259   4.997  10.808   3.223  1.2427  0.2343 -0.4412
  737MOL0     H97260   5.062  10.630   3.101  0.5076 -0.0659 -0.1983
  737MOL0     H97261   5.167  10.755   3.063 -0.6624 -0.1881  1.6824
  737MOL0     H97262   4.926  10.700   2.885  0.2212 -1.5711  0.3548
  737MOL0     H97263   5.049  10.805   2.831 -4.5867  1.0138  0.0377
  737MOL0     H97264   5.094  10.507   2.886 -1.2587 -0.2307 -1.3630
  737MOL0     H97265   5.215  10.620   2.834  0.0524  0.3260 -2.0236
  737MOL0     H97266   4.419  11.149   3.158 -1.0913  0.1657  0.4335
  737MOL0     H97267   4.222  11.243   3.234  0.2087 -0.0929 -0.4034
  737MOL0     H97268   4.067  11.647   3.535  0.9764  0.6842 -0.3724
  737MOL0     H97269   3.859  11.752   3.599  0.2583  0.1725  0.4984
  737MOL0     H97270   2.607  11.142   4.624  1.2007  1.4805 -1.8509
  737MOL0     H97271   2.679  10.920   4.736 -3.0170  1.2996  1.7065
  737MOL0     H97272   2.933  10.693   4.967  1.2915  2.8894 -3.6846
  737MOL0     H97273   2.999  10.458   5.066  0.0999 -0.3906 -0.0123
  737MOL0     H97274   2.986  10.269   4.843  1.2437  1.9848  0.3410
  737MOL0     H97275   2.986  10.194   5.010 -1.0961  2.5572  0.9736
  737MOL0     H97276   3.144  10.107   4.760  2.4110  0.4704  0.3842
  737MOL0     H97277   3.140  10.027   4.928 -1.3437 -0.7441 -0.0742
  737MOL0     H97278   2.883  10.061   4.761  1.9592  1.2691 -0.3469
  737MOL0     H97279   2.892  10.002   4.916 -1.5170  3.8430 -1.0278
  737MOL0     H97280   3.020   9.886   4.659  0.1785 -0.7360 -0.5900
  737MOL0     H97281   3.047   9.800   4.812  1.0672  0.3957 -0.5343
  737MOL0     H97282   2.675   9.662   4.713  1.4088 -3.1361  5.5721
  737MOL0     H97283   3.302  10.420   4.770  0.4247 -1.0981  2.1087
  737MOL0     H97284   3.263  10.652   4.698  1.6446 -4.4307 -2.0308
  738MOL0     O97285   0.728  10.834   3.076  0.2353 -0.1698  0.0451
  738MOL0     C97286   0.715  10.952   3.103 -0.8918  0.7943 -0.6969
  738MOL0     O97287   0.604  11.012   3.139 -0.1756  0.0724 -0.3551
  738MOL0     C97288   0.471  10.967   3.101  0.0297 -0.1065 -0.4512
  738MOL0     C97289   0.448  10.845   3.037  0.3407 -0.0391 -0.0039
  738MOL0     C97290   0.318  10.793   3.036  0.1422 -0.1031  0.9128
  738MOL0     C97291   0.205  10.863   3.092  0.1931 -0.5037 -0.3980
  738MOL0     O97292   0.089  10.795   3.069  0.4080 -0.1053  0.3619
  738MOL0     C97293  -0.036  10.843   3.126 -0.1068  0.0891  0.1788
  738MOL0     C97294  -0.073  10.773   3.253  0.3227 -0.1854 -0.0493
  738MOL0     C97295  -0.225  10.765   3.265  0.5179 -0.4016 -0.1022
  738MOL0     C97296  -0.305  10.895   3.261 -0.6983 -0.5012 -0.5270
  738MOL0     C97297  -0.448  10.875   3.302 -0.1936  0.5041 -0.1592
  738MOL0     C97298  -0.501  10.753   3.218  0.7838 -0.0121 -0.1473
  738MOL0     C97299  -0.645  10.724   3.263 -0.6374  0.2448 -0.4508
  738MOL0     C97300  -0.713  10.616   3.187  0.3361  0.3410  0.0929
  738MOL0     N97301  -0.859  10.591   3.234 -0.5060  0.5445  0.8468
  738MOL0     C97302  -0.961  10.506   3.181 -0.0123 -0.1160  0.7513
  738MOL0     C97303  -1.071  10.559   3.222  0.8045 -0.4130  0.7815
  738MOL0     C97304  -1.211  10.514   3.181  0.0016 -0.3616  0.7322
  738MOL0     C97305  -1.225  10.535   3.021  1.5507  0.6959 -0.0357
  738MOL0     C97306  -1.347  10.459   2.964  0.4606 -0.0335  1.0105
  738MOL0     C97307  -1.485  10.496   3.011 -0.1450  0.0684 -1.0195
  738MOL0     O97308  -1.577  10.401   2.944 -0.6313  0.0312  0.1158
  738MOL0     C97309  -1.664  10.437   2.839  0.1983  0.0516 -0.1311
  738MOL0     C97310  -1.700  10.569   2.794 -0.2406 -0.1269  0.3163
  738MOL0     C97311  -1.813  10.591   2.707 -0.0284  0.0582 -0.1342
  738MOL0     C97312  -1.888  10.480   2.656 -0.2303  0.2813 -0.5667
  738MOL0     C97313  -2.005  10.510   2.569  0.0378  0.3641 -0.3528
  738MOL0     O97314  -1.995  10.618   2.494  0.1726 -0.1040  0.5928
  738MOL0     C97315  -2.086  10.647   2.401  0.6137 -0.1533 -0.1095
  738MOL0     C97316  -2.056  10.746   2.303  0.0018  0.4643 -0.3267
  738MOL0     C97317  -2.134  10.762   2.189  1.1093 -0.5513 -0.3736
  738MOL0     C97318  -2.263  10.711   2.189 -0.7357 -0.5433  0.0019
  738MOL0     O97319  -2.361  10.741   2.098 -0.4536 -0.1839 -0.5952
  738MOL0     C97320  -2.323  10.771   1.963  0.1613  0.0689 -0.1993
  738MOL0     C97321  -2.280  10.643   1.878 -0.2321 -0.1368 -0.5911
  738MOL0     C97322  -2.391  10.533   1.874  0.2421  0.5174  1.3288
  738MOL0     C97323  -2.339  10.422   1.778  0.2869  0.5852  0.0423
  738MOL0     C97324  -2.402  10.282   1.810  0.5382 -0.6095 -0.8411
  738MOL0     C97325  -2.552  10.286   1.766 -0.0551  0.0737 -0.2708
  738MOL0     C97326  -2.621  10.146   1.790 -0.0347  0.3497 -0.0498
  738MOL0     C97327  -2.741  10.125   1.701  0.4908 -0.4538  0.7199
  738MOL0    Cl97328  -2.818   9.966   1.725  0.7222 -0.2807  0.0891
  738MOL0     C97329  -2.303  10.619   2.285  0.1520 -1.1380  0.0387
  738MOL0     C97330  -2.212  10.588   2.384  0.1564 -0.4429 -0.5905
  738MOL0     O97331  -2.098  10.429   2.572 -0.0839 -0.1238 -0.0629
  738MOL0     C97332  -1.851  10.354   2.694  0.1396  0.2543 -0.9185
  738MOL0     C97333  -1.741  10.333   2.785  0.0725 -0.4655  0.5474
  738MOL0     N97334  -1.047  10.656   3.322 -0.2877  0.3371  0.5633
  738MOL0     N97335  -0.921  10.673   3.322 -0.5171  0.3783  0.2454
  738MOL0     C97336   0.233  10.988   3.152  0.1966 -0.2099 -0.0799
  738MOL0     C97337   0.362  11.031   3.165 -0.8973 -0.5610  0.0381
  738MOL0     C97338   0.835  11.038   3.095  0.2288 -0.4494  0.2189
  738MOL0     C97339   0.964  10.979   3.090  0.6254 -0.3998  0.0376
  738MOL0     C97340   1.075  11.069   3.095 -0.3494  1.0314 -0.0815
  738MOL0     C97341   1.062  11.200   3.089  0.0062  0.2469 -0.5981
  738MOL0     O97342   1.167  11.297   3.076 -0.1596 -0.6340 -0.0333
  738MOL0     C97343   1.308  11.251   3.084  0.0126  0.2100 -0.5507
  738MOL0     C97344   1.348  11.206   2.942  0.8096 -0.5282 -0.5144
  738MOL0     C97345   1.346  11.331   2.838  0.7914  0.9195 -0.3927
  738MOL0     C97346   1.407  11.287   2.711 -0.7406  0.5279 -0.4355
  738MOL0     C97347   1.406  11.391   2.614  0.2171  0.3030 -0.1925
  738MOL0     C97348   1.388  11.480   2.536  0.4003  0.2385  0.5988
  738MOL0     C97349   0.937  11.252   3.083  0.3122 -0.1473 -0.3156
  738MOL0     C97350   0.821  11.179   3.100  0.1933  0.0990  0.6841
  738MOL0     H97351   0.509  10.766   2.994 -3.3160 -2.9983 -0.3587
  738MOL0     H97352   0.317  10.705   2.973  2.9781  1.1742 -1.1668
  738MOL0     H97353  -0.111  10.822   3.049 -1.3280  1.7365  0.8605
  738MOL0     H97354  -0.034  10.950   3.149 -2.7977 -0.4087  3.7578
  738MOL0     H97355  -0.026  10.834   3.331 -1.7292  0.5390  0.6730
  738MOL0     H97356  -0.023  10.677   3.268  4.2383  1.4600 -1.3932
  738MOL0     H97357  -0.258  10.713   3.356 -1.0982 -0.1047 -0.4955
  738MOL0     H97358  -0.264  10.716   3.175  0.4865  2.6121 -1.8683
  738MOL0     H97359  -0.254  10.979   3.309  0.5920  0.2443 -3.0607
  738MOL0     H97360  -0.300  10.929   3.157 -0.0233 -1.6992 -0.8948
  738MOL0     H97361  -0.496  10.966   3.265 -0.0073  0.5115 -0.3801
  738MOL0     H97362  -0.465  10.863   3.410 -2.9327  0.2807 -0.5351
  738MOL0     H97363  -0.452  10.656   3.236 -0.1178 -0.4473 -0.0001
  738MOL0     H97364  -0.484  10.769   3.111 -1.2108  2.4599 -0.1710
  738MOL0     H97365  -0.653  10.709   3.371 -3.3921  1.7135 -0.3499
  738MOL0     H97366  -0.699  10.817   3.240  0.9636  1.6954  1.3923
  738MOL0     H97367  -0.654  10.524   3.187 -1.2768 -0.7421  0.4384
  738MOL0     H97368  -0.727  10.650   3.085 -1.3887  2.4580  0.9470
  738MOL0     H97369  -0.955  10.432   3.102 -2.1469 -2.2949  2.4869
  738MOL0     H97370  -1.288  10.564   3.239  0.0756  0.0681  0.4679
  738MOL0     H97371  -1.216  10.407   3.203  0.4627 -0.4822  0.2845
  738MOL0     H97372  -1.148  10.488   2.959  1.6932  1.6010 -0.5578
  738MOL0     H97373  -1.219  10.638   2.985  3.4899 -0.4048 -3.2242
  738MOL0     H97374  -1.349  10.473   2.856 -0.4600 -1.1656  0.8572
  738MOL0     H97375  -1.334  10.351   2.980 -1.0551 -0.3907  0.0593
  738MOL0     H97376  -1.509  10.598   2.978 -0.8214  0.8053  1.4601
  738MOL0     H97377  -1.478  10.481   3.119  0.2057 -3.9890 -1.4801
  738MOL0     H97378  -1.653  10.656   2.841 -2.4453  0.3103  1.8581
  738MOL0     H97379  -1.842  10.690   2.674  3.1743  2.6508  3.7786
  738MOL0     H97380  -1.961  10.799   2.301  0.0531  0.3672 -0.5895
  738MOL0     H97381  -2.103  10.829   2.110 -0.7187  2.1575  1.0529
  738MOL0     H97382  -2.253  10.855   1.955 -0.4821  0.4536 -2.2356
  738MOL0     H97383  -2.415  10.813   1.921 -0.7437 -1.2735  0.3910
  738MOL0     H97384  -2.189  10.596   1.917 -0.3193 -0.6169 -0.9545
  738MOL0     H97385  -2.248  10.674   1.778  0.8474  2.5737  0.5031
  738MOL0     H97386  -2.490  10.570   1.844 -0.5323 -2.8008 -0.8005
  738MOL0     H97387  -2.390  10.478   1.969  2.3515 -2.6899 -0.3896
  738MOL0     H97388  -2.358  10.454   1.675 -0.8976 -3.1835 -1.0450
  738MOL0     H97389  -2.231  10.407   1.789 -0.0493 -1.3277  1.0679
  738MOL0     H97390  -2.393  10.256   1.916  2.6298  1.1754 -0.5153
  738MOL0     H97391  -2.351  10.205   1.751  0.5998 -0.0266 -1.5726
  738MOL0     H97392  -2.546  10.298   1.657 -0.7044  0.6413 -0.2506
  738MOL0     H97393  -2.616  10.367   1.804 -0.4587  0.2886 -1.3689
  738MOL0     H97394  -2.550  10.065   1.769  0.2114  0.8422 -1.2436
  738MOL0     H97395  -2.649  10.134   1.895  2.9133 -0.8126  0.7117
  738MOL0     H97396  -2.704  10.124   1.598 -1.2500 -0.0832  0.0522
  738MOL0     H97397  -2.815  10.206   1.704  1.4677  0.7244 -2.5938
  738MOL0     H97398  -2.402  10.576   2.293 -0.0225 -0.7684 -0.1104
  738MOL0     H97399  -2.273  10.519   2.442 -1.1674 -0.9408 -2.4823
  738MOL0     H97400  -1.914  10.272   2.661  0.3996 -1.2133  1.9622
  738MOL0     H97401  -1.727  10.228   2.811  0.8535 -0.2206  1.1633
  738MOL0     H97402   0.154  11.056   3.182  0.4214 -0.2855  0.7151
  738MOL0     H97403   0.385  11.124   3.217  0.8721 -1.9037  1.7915
  738MOL0     H97404   0.964  10.872   3.078  0.3843 -0.4169  0.1716
  738MOL0     H97405   1.170  11.017   3.093 -1.8325 -1.9966  1.4654
  738MOL0     H97406   1.323  11.174   3.160 -1.6964  0.8993  0.5223
  738MOL0     H97407   1.377  11.330   3.115  3.1961 -1.5347 -2.5103
  738MOL0     H97408   1.443  11.151   2.950 -0.0646 -1.8416  2.4524
  738MOL0     H97409   1.277  11.135   2.899  0.8820 -0.5194 -0.6485
  738MOL0     H97410   1.394  11.411   2.894  0.0001 -0.9625  3.2239
  738MOL0     H97411   1.242  11.351   2.812  1.0287  3.9997  0.7306
  738MOL0     H97412   1.513  11.272   2.732 -0.5125  5.0581  3.3257
  738MOL0     H97413   1.360  11.202   2.660  0.1674  0.3871 -1.0517
  738MOL0     H97414   1.366  11.543   2.453  0.8659 -0.9738 -0.4813
  738MOL0     H97415   0.939  11.359   3.100  1.5182 -0.6307  3.6722
  738MOL0     H97416   0.727  11.233   3.113  0.0093 -0.4892  2.0251
  739MOL0     O97417   3.944   8.922   4.432  0.1205 -0.2926 -0.4676
  739MOL0     C97418   3.941   8.958   4.548 -0.9279 -0.2047  0.5511
  739MOL0     O97419   4.052   8.972   4.628  0.7134  0.5027 -0.1767
  739MOL0     C97420   4.167   8.920   4.572 -1.4500 -0.1680  0.1554
  739MOL0     C97421   4.236   8.812   4.624 -1.3779 -0.4495  0.5310
  739MOL0     C97422   4.352   8.769   4.560 -0.2777  0.5415 -0.3576
  739MOL0     C97423   4.415   8.840   4.455  1.1813 -0.0343  0.4369
  739MOL0     O97424   4.530   8.809   4.394 -0.3199  0.5998 -0.4522
  739MOL0     C97425   4.550   8.661   4.372 -0.5453 -0.3294  0.5576
  739MOL0     C97426   4.622   8.638   4.234  0.3590  0.1793 -0.4206
  739MOL0     C97427   4.668   8.488   4.232 -0.4360  0.2199  0.2121
  739MOL0     C97428   4.745   8.459   4.099  0.0967 -0.3239 -0.5007
  739MOL0     C97429   4.883   8.515   4.088 -0.7477 -0.1647  0.2569
  739MOL0     C97430   4.980   8.439   4.177 -0.4782 -0.1568  0.0910
  739MOL0     C97431   5.121   8.486   4.153 -0.1490  0.6347  0.9202
  739MOL0     C97432   5.183   8.412   4.040 -0.3196  0.7687  0.7284
  739MOL0     N97433   5.327   8.454   4.033  0.4856  0.6652  0.7745
  739MOL0     C97434   5.433   8.431   4.113 -0.6247 -0.3932  0.0018
  739MOL0     C97435   5.543   8.502   4.068 -0.7008  0.0760 -0.0033
  739MOL0     C97436   5.672   8.529   4.146  0.1551  0.3843 -0.4762
  739MOL0     C97437   5.753   8.632   4.065  0.5258 -0.3533  0.9158
  739MOL0     C97438   5.894   8.655   4.126 -0.2779  0.6755  1.0584
  739MOL0     C97439   5.996   8.540   4.082  1.0718 -0.5594 -0.3689
  739MOL0     O97440   5.987   8.501   3.949 -1.3214 -0.1799  0.8901
  739MOL0     C97441   6.106   8.458   3.886  0.0508  0.8146  0.3193
  739MOL0     C97442   6.208   8.395   3.948  0.6071 -1.4029 -1.1118
  739MOL0     C97443   6.321   8.353   3.890 -0.3291  0.7138  0.2846
  739MOL0     C97444   6.345   8.363   3.750  0.6722 -1.3901  0.7673
  739MOL0     C97445   6.453   8.297   3.685  1.0451 -0.6075  0.3646
  739MOL0     O97446   6.510   8.191   3.735  0.4853  0.1475  0.3338
  739MOL0     C97447   6.640   8.182   3.690  0.3225  0.3295  0.1007
  739MOL0     C97448   6.747   8.254   3.732 -0.0156 -0.0567 -0.4504
  739MOL0     C97449   6.875   8.237   3.678 -0.6396  0.9684  0.1978
  739MOL0     C97450   6.896   8.136   3.584 -0.3610 -0.0960  0.6652
  739MOL0     O97451   7.026   8.106   3.537 -0.1159  0.0797 -0.3117
  739MOL0     C97452   7.044   8.053   3.407  0.1687 -0.1371 -0.5968
  739MOL0     C97453   7.192   8.026   3.397 -0.4511 -0.5048  0.2593
  739MOL0     C97454   7.224   7.989   3.255  0.5025 -0.4025 -0.2050
  739MOL0     C97455   7.376   8.013   3.218 -0.1825 -0.4727  1.1520
  739MOL0     C97456   7.419   7.970   3.075 -0.9497  1.0767  0.4328
  739MOL0     C97457   7.526   8.062   3.025 -0.0373 -0.0009  0.1588
  739MOL0     C97458   7.586   7.998   2.900 -0.1022 -0.4021  0.1624
  739MOL0     C97459   7.715   8.066   2.836  0.3618  0.7755 -0.8333
  739MOL0    Cl97460   7.667   8.214   2.743 -0.0189  0.0852  0.0762
  739MOL0     C97461   6.783   8.059   3.546 -0.1130 -0.1681 -0.2385
  739MOL0     C97462   6.656   8.072   3.594 -0.1954  0.3776 -0.4466
  739MOL0     O97463   6.487   8.346   3.578  0.0760 -0.3530 -0.1069
  739MOL0     C97464   6.235   8.430   3.676 -0.0906  0.2334 -0.7287
  739MOL0     C97465   6.121   8.471   3.742  0.3885 -0.9637 -0.3237
  739MOL0     N97466   5.499   8.587   3.969 -0.7233 -0.1595  0.0183
  739MOL0     N97467   5.370   8.560   3.957 -0.5979  0.4077 -0.0329
  739MOL0     C97468   4.344   8.953   4.407  0.2155  0.3665 -0.0905
  739MOL0     C97469   4.227   8.991   4.463  0.4779  0.2889 -0.4809
  739MOL0     C97470   3.824   9.028   4.595  1.0419  0.7976 -0.5245
  739MOL0     C97471   3.809   9.056   4.729  1.1071 -0.4919  0.0543
  739MOL0     C97472   3.685   9.107   4.777 -0.8177 -0.7040 -0.2576
  739MOL0     C97473   3.580   9.127   4.688 -0.4151  0.0299 -0.2105
  739MOL0     O97474   3.459   9.167   4.739 -0.4930 -0.1029  0.3579
  739MOL0     C97475   3.376   9.054   4.759  0.5604  0.2652  0.2463
  739MOL0     C97476   3.247   9.102   4.822 -0.2046  0.4539 -0.5978
  739MOL0     C97477   3.273   9.144   4.970  0.1902 -0.1743  0.2989
  739MOL0     C97478   3.148   9.105   5.052 -0.1606  0.2931 -0.1768
  739MOL0     C97479   3.148   8.957   5.066 -0.0011  0.2363  0.7916
  739MOL0     C97480   3.109   8.841   5.075 -0.3270 -0.6258 -0.0694
  739MOL0     C97481   3.594   9.102   4.556 -0.5812 -0.2219  0.0020
  739MOL0     C97482   3.724   9.066   4.505  0.2294  0.9143 -1.0494
  739MOL0     H97483   4.189   8.762   4.708  1.7393 -2.5954  1.1750
  739MOL0     H97484   4.404   8.679   4.592  0.1862 -0.3740 -3.3653
  739MOL0     H97485   4.460   8.598   4.374 -0.2435 -0.8091 -0.3066
  739MOL0     H97486   4.605   8.626   4.460 -2.8302 -1.4958  1.6166
  739MOL0     H97487   4.710   8.701   4.223  0.0532  1.2210  2.2686
  739MOL0     H97488   4.559   8.662   4.148 -0.2187  0.5191  0.0915
  739MOL0     H97489   4.587   8.416   4.245 -0.0595 -0.4081 -0.8026
  739MOL0     H97490   4.737   8.472   4.316  1.0359  0.9537 -0.8192
  739MOL0     H97491   4.738   8.351   4.092  0.7245 -0.3431 -0.8860
  739MOL0     H97492   4.687   8.500   4.016 -1.5066  1.9025  1.5733
  739MOL0     H97493   4.893   8.623   4.107 -4.0276  0.1354  0.9651
  739MOL0     H97494   4.921   8.500   3.987 -0.4261  1.2176  0.1422
  739MOL0     H97495   4.969   8.331   4.158  0.1542 -0.1525 -0.3242
  739MOL0     H97496   4.961   8.460   4.282  3.3940 -0.3168  0.9759
  739MOL0     H97497   5.125   8.595   4.143  4.4692  0.7113  1.4282
  739MOL0     H97498   5.177   8.477   4.246 -0.5268 -2.2349  0.9633
  739MOL0     H97499   5.141   8.439   3.943 -2.2663 -0.1423  1.2713
  739MOL0     H97500   5.187   8.303   4.054  2.4066  0.7584  0.4542
  739MOL0     H97501   5.442   8.361   4.196  0.9328 -2.3240 -1.6912
  739MOL0     H97502   5.737   8.442   4.162 -1.1641 -0.6087 -0.3333
  739MOL0     H97503   5.652   8.575   4.243  1.0030 -0.5525  0.1666
  739MOL0     H97504   5.701   8.729   4.065  0.4183 -0.4107  0.6116
  739MOL0     H97505   5.767   8.611   3.959  2.6426  0.3199  1.0096
  739MOL0     H97506   5.917   8.753   4.084  0.4439 -0.8005 -2.3217
  739MOL0     H97507   5.893   8.658   4.235 -0.5194 -0.1991  1.0889
  739MOL0     H97508   5.973   8.449   4.140  0.3160 -0.5211 -0.6009
  739MOL0     H97509   6.097   8.580   4.095  1.1230 -1.3631  2.7559
  739MOL0     H97510   6.191   8.370   4.052  0.5187 -1.4815 -1.1446
  739MOL0     H97511   6.388   8.285   3.941 -3.3607 -3.9171 -1.2212
  739MOL0     H97512   6.729   8.341   3.794  3.1483  3.4625 -3.9373
  739MOL0     H97513   6.967   8.286   3.709 -0.9749  2.0865 -0.5100
  739MOL0     H97514   7.021   8.136   3.338 -0.6981 -1.1223 -1.5338
  739MOL0     H97515   6.978   7.967   3.395 -0.3220  0.4826 -2.8075
  739MOL0     H97516   7.222   7.950   3.469  2.8028  0.7048  0.3554
  739MOL0     H97517   7.254   8.112   3.424  2.4720 -2.9007  1.7120
  739MOL0     H97518   7.172   8.065   3.195  0.5511  0.9645  1.3928
  739MOL0     H97519   7.192   7.890   3.224  0.7391 -0.0626 -1.6229
  739MOL0     H97520   7.401   8.118   3.233  0.1671 -0.3230 -0.3082
  739MOL0     H97521   7.429   7.955   3.295  0.4793  0.7610  1.6506
  739MOL0     H97522   7.343   7.980   2.996  1.1762  0.1031 -1.8851
  739MOL0     H97523   7.453   7.866   3.078  0.3065  1.4252 -0.8436
  739MOL0     H97524   7.603   8.083   3.100 -1.2947  2.7724  0.8239
  739MOL0     H97525   7.482   8.159   2.998  0.4808 -0.3547 -2.1670
  739MOL0     H97526   7.626   7.903   2.939  2.3037  0.3347 -0.3386
  739MOL0     H97527   7.509   7.974   2.826 -0.0168 -5.7155  1.3963
  739MOL0     H97528   7.750   7.988   2.768 -1.8283 -1.7311  0.6780
  739MOL0     H97529   7.785   8.093   2.915 -1.9025 -0.4823  1.8077
  739MOL0     H97530   6.798   7.974   3.480 -1.4991 -0.5380 -0.1128
  739MOL0     H97531   6.579   8.001   3.569  0.4408 -0.2836 -0.5572
  739MOL0     H97532   6.248   8.426   3.568  3.3907 -1.6558 -0.3924
  739MOL0     H97533   6.033   8.505   3.689  1.0366  0.0460 -0.7871
  739MOL0     H97534   4.381   9.030   4.340 -1.3453  2.2571  1.0947
  739MOL0     H97535   4.168   9.076   4.430  1.4009  1.0383 -0.2567
  739MOL0     H97536   3.887   9.024   4.798  1.3862  1.0571  0.4962
  739MOL0     H97537   3.686   9.112   4.885  0.2643 -3.7402 -0.0214
  739MOL0     H97538   3.434   8.995   4.831 -0.7065  1.1312  2.0780
  739MOL0     H97539   3.360   8.988   4.674  0.8386 -2.1933  1.9957
  739MOL0     H97540   3.214   9.190   4.767 -1.4682 -0.7999 -1.9001
  739MOL0     H97541   3.167   9.028   4.825  2.7074 -2.9583  0.7339
  739MOL0     H97542   3.287   9.252   4.982  0.9870 -0.1376 -0.8396
  739MOL0     H97543   3.365   9.094   5.000  1.3686  0.2377 -2.3767
  739MOL0     H97544   3.143   9.152   5.151 -0.0670 -0.8763  0.3951
  739MOL0     H97545   3.058   9.143   5.002 -0.6286  3.0600  2.4671
  739MOL0     H97546   3.062   8.745   5.064 -1.1899  0.1196 -5.6496
  739MOL0     H97547   3.506   9.128   4.498 -2.7425  1.7945  3.8264
  739MOL0     H97548   3.755   9.044   4.403  4.7176  0.0515  0.2706
  740MOL0     O97549   7.010  10.024   1.966  0.3771  0.3571 -0.5732
  740MOL0     C97550   7.105   9.972   2.031  0.5658  0.1290 -0.6743
  740MOL0     O97551   7.186  10.040   2.123  0.4501 -0.1646 -0.0831
  740MOL0     C97552   7.176  10.177   2.154  0.3304 -0.5957 -1.2678
  740MOL0     C97553   7.101  10.279   2.100 -0.4526  1.0560  0.3427
  740MOL0     C97554   7.115  10.405   2.148  0.5730 -0.2953 -0.1645
  740MOL0     C97555   7.201  10.434   2.255  1.4351 -0.6036 -0.4791
  740MOL0     O97556   7.212  10.551   2.318 -0.5024 -0.1466 -0.4360
  740MOL0     C97557   7.127  10.658   2.305 -0.4285 -0.0074 -0.7148
  740MOL0     C97558   7.169  10.776   2.396  0.1424 -0.6849  0.5890
  740MOL0     C97559   7.314  10.809   2.357  0.6128 -0.7803  1.5734
  740MOL0     C97560   7.365  10.923   2.445 -0.4300 -0.3419  0.3623
  740MOL0     C97561   7.514  10.901   2.460 -0.6841 -0.1122 -0.3681
  740MOL0     C97562   7.552  10.981   2.595  0.0462 -0.2096  0.8110
  740MOL0     C97563   7.699  10.977   2.623  0.1143 -0.7544  0.2316
  740MOL0     C97564   7.741  11.092   2.716  0.2384  0.8314 -0.5991
  740MOL0     N97565   7.752  11.215   2.653  0.9691  0.4757 -0.8666
  740MOL0     C97566   7.818  11.244   2.536  0.0363  0.4402 -1.1351
  740MOL0     C97567   7.804  11.383   2.536 -0.4599 -0.8735  0.3319
  740MOL0     C97568   7.850  11.476   2.420  0.7420  0.7485 -0.3591
  740MOL0     C97569   7.781  11.469   2.280  0.8558  0.4167  0.8525
  740MOL0     C97570   7.636  11.435   2.282  0.4669 -0.7188 -0.3173
  740MOL0     C97571   7.559  11.553   2.345 -0.6963  0.6251  0.1328
  740MOL0     O97572   7.426  11.542   2.315  1.0570 -0.0786 -0.7458
  740MOL0     C97573   7.340  11.455   2.379  0.4125  0.4847 -0.4131
  740MOL0     C97574   7.235  11.400   2.308  1.1271 -1.0313  0.3195
  740MOL0     C97575   7.132  11.319   2.365 -0.3960 -0.2693  0.7571
  740MOL0     C97576   7.153  11.273   2.499  0.1467 -0.1663 -0.8268
  740MOL0     C97577   7.049  11.191   2.567 -0.5017 -0.0442  0.2600
  740MOL0     O97578   6.926  11.188   2.499 -0.2421  0.0789 -1.0156
  740MOL0     C97579   6.816  11.113   2.534  0.0797  0.8071  0.1556
  740MOL0     C97580   6.690  11.160   2.504 -1.1692  0.1212 -0.7609
  740MOL0     C97581   6.571  11.083   2.518 -0.2418  0.4370 -0.0500
  740MOL0     C97582   6.571  10.953   2.567 -0.4341 -0.0636 -0.0216
  740MOL0     O97583   6.446  10.896   2.568 -0.4589 -0.0654 -0.2550
  740MOL0     C97584   6.431  10.794   2.672  0.7770 -0.7387 -0.6637
  740MOL0     C97585   6.284  10.780   2.721  0.4901 -0.1382 -0.1449
  740MOL0     C97586   6.175  10.747   2.608  0.0841 -0.4078 -0.2091
  740MOL0     C97587   6.200  10.618   2.535  0.2710 -0.3981 -0.2786
  740MOL0     C97588   6.194  10.486   2.606  0.6518 -0.2680 -0.4099
  740MOL0     C97589   6.220  10.375   2.494  0.2109 -0.1333  0.0797
  740MOL0     C97590   6.326  10.274   2.557  0.2315  0.9160 -0.0298
  740MOL0     C97591   6.345  10.160   2.465  0.6544  0.2885  0.3654
  740MOL0    Cl97592   6.415  10.194   2.298  0.2869  0.0565  0.0552
  740MOL0     C97593   6.698  10.899   2.594 -1.2767  0.0720  0.0995
  740MOL0     C97594   6.816  10.974   2.588 -0.0635  0.4566 -0.4043
  740MOL0     O97595   7.080  11.127   2.671 -0.3352 -0.3870  0.6242
  740MOL0     C97596   7.253  11.333   2.571  0.9786  0.1368 -0.1140
  740MOL0     C97597   7.347  11.416   2.516 -1.0771 -0.6306 -0.1382
  740MOL0     N97598   7.731  11.426   2.646 -0.7426 -0.2203  0.3921
  740MOL0     N97599   7.700  11.322   2.714  0.3666 -0.6561  0.1453
  740MOL0     C97600   7.276  10.334   2.306  0.4266 -0.4493  0.7462
  740MOL0     C97601   7.261  10.209   2.258 -0.8223  0.0425  0.3911
  740MOL0     C97602   7.117   9.830   2.052 -0.3211  0.4869  0.2648
  740MOL0     C97603   7.032   9.735   1.989  0.6292  0.0700  0.4049
  740MOL0     C97604   7.035   9.601   2.013  1.3225 -0.2492  0.3030
  740MOL0     C97605   7.130   9.545   2.101 -1.1743 -0.3221  0.9361
  740MOL0     O97606   7.133   9.414   2.126 -0.1341  0.4457  0.3254
  740MOL0     C97607   7.103   9.322   2.013 -0.6530  0.0654 -0.9528
  740MOL0     C97608   7.116   9.182   2.074 -0.7790  1.0630 -0.6091
  740MOL0     C97609   7.022   9.133   2.182  0.9374 -0.8197  0.7799
  740MOL0     C97610   6.878   9.165   2.125  0.0129 -0.1022  0.5501
  740MOL0     C97611   6.768   9.086   2.180 -1.0691 -1.0772 -0.3995
  740MOL0     C97612   6.679   9.029   2.241  0.0537  0.2114 -0.1465
  740MOL0     C97613   7.220   9.629   2.158 -0.5479 -0.5461  0.1655
  740MOL0     C97614   7.213   9.769   2.139 -0.0258  0.3915 -0.7275
  740MOL0     H97615   7.036  10.253   2.016  0.3085  1.6696 -0.4513
  740MOL0     H97616   7.042  10.476   2.110 -1.0564 -1.2900  0.9815
  740MOL0     H97617   7.028  10.622   2.337 -1.0536  2.0261 -0.2614
  740MOL0     H97618   7.125  10.690   2.201 -0.9371  0.5605 -0.5356
  740MOL0     H97619   7.160  10.737   2.498  0.2150 -3.4215 -0.3589
  740MOL0     H97620   7.108  10.864   2.378 -0.4126 -1.2600 -0.4793
  740MOL0     H97621   7.314  10.843   2.253 -0.1811 -1.4578  1.3440
  740MOL0     H97622   7.382  10.727   2.381  1.8804  0.7122  3.4331
  740MOL0     H97623   7.347  11.021   2.398  3.2249  1.1654  1.6885
  740MOL0     H97624   7.311  10.928   2.540 -2.1560  0.7759 -0.6214
  740MOL0     H97625   7.561  10.946   2.372 -0.9145 -0.9893 -0.9590
  740MOL0     H97626   7.535  10.794   2.463 -4.2202 -0.9802 -1.0425
  740MOL0     H97627   7.499  10.931   2.676  0.0360  0.1770  1.0450
  740MOL0     H97628   7.514  11.082   2.576 -2.8817 -1.2114  0.8591
  740MOL0     H97629   7.722  10.882   2.672 -0.8980 -0.2744  1.7352
  740MOL0     H97630   7.752  10.986   2.528  1.5132 -3.1688  0.7172
  740MOL0     H97631   7.842  11.059   2.744  1.1206  1.5441 -2.8031
  740MOL0     H97632   7.668  11.084   2.797 -0.0862 -2.5382 -1.0702
  740MOL0     H97633   7.865  11.175   2.466 -0.2096 -2.5249  1.3729
  740MOL0     H97634   7.952  11.446   2.393 -0.5868 -1.3356 -3.8042
  740MOL0     H97635   7.847  11.583   2.444  1.7266  0.6026  0.4574
  740MOL0     H97636   7.825  11.391   2.218 -1.2597 -0.1720  0.0054
  740MOL0     H97637   7.798  11.562   2.225  3.7227 -1.7480 -2.3303
  740MOL0     H97638   7.617  11.433   2.174  2.5179  0.5646 -0.7639
  740MOL0     H97639   7.618  11.336   2.324 -2.8781 -1.1395 -2.3812
  740MOL0     H97640   7.599  11.644   2.298 -1.2690  0.6289 -0.3510
  740MOL0     H97641   7.568  11.556   2.454  0.9841  0.2830  0.0305
  740MOL0     H97642   7.207  11.433   2.208  0.1666  2.1139  1.4944
  740MOL0     H97643   7.051  11.303   2.296  0.4112  1.3870 -0.6659
  740MOL0     H97644   6.691  11.257   2.455  3.4813 -0.5065 -2.4494
  740MOL0     H97645   6.480  11.133   2.486  0.5855  2.1267  0.1404
  740MOL0     H97646   6.485  10.829   2.761  0.1956 -2.7957  0.5599
  740MOL0     H97647   6.469  10.702   2.626  2.6558  0.5555 -1.8408
  740MOL0     H97648   6.251  10.876   2.762 -0.2809 -0.1508 -0.7060
  740MOL0     H97649   6.286  10.704   2.800 -1.0124 -0.1188 -0.0546
  740MOL0     H97650   6.196  10.825   2.535  0.3532  1.9141  2.1771
  740MOL0     H97651   6.073  10.743   2.648  0.6064 -1.2425  1.1300
  740MOL0     H97652   6.138  10.623   2.445 -0.3598 -0.2938  0.1592
  740MOL0     H97653   6.304  10.626   2.501  0.0672  0.4886 -0.7374
  740MOL0     H97654   6.098  10.466   2.654  1.8361  0.0994  2.3533
  740MOL0     H97655   6.269  10.474   2.685  1.7543 -1.1912 -1.5528
  740MOL0     H97656   6.271  10.425   2.410  0.4121 -0.2781  0.1151
  740MOL0     H97657   6.129  10.317   2.477  1.0184 -2.6254  3.1712
  740MOL0     H97658   6.416  10.332   2.581  0.6468  0.3864 -0.2950
  740MOL0     H97659   6.297  10.229   2.652  3.2015  1.5278  1.2823
  740MOL0     H97660   6.251  10.110   2.439  0.3399 -0.0466  2.0177
  740MOL0     H97661   6.414  10.085   2.506  2.1494  1.7461  0.6475
  740MOL0     H97662   6.693  10.801   2.642 -3.9500  0.1133  0.0671
  740MOL0     H97663   6.914  10.940   2.621  0.1200 -3.1468 -3.9002
  740MOL0     H97664   7.247  11.320   2.679 -3.9223  1.4069 -0.0035
  740MOL0     H97665   7.415  11.473   2.579 -1.4690 -0.4295  0.1001
  740MOL0     H97666   7.340  10.351   2.393  3.0577  0.1726 -1.1654
  740MOL0     H97667   7.319  10.136   2.314 -0.3512  0.8887  1.0283
  740MOL0     H97668   6.961   9.773   1.916 -1.3891 -1.4081  1.5115
  740MOL0     H97669   6.957   9.541   1.968 -1.4857  2.9551  0.5474
  740MOL0     H97670   7.181   9.336   1.938  0.3575 -0.5786 -0.0459
  740MOL0     H97671   7.001   9.340   1.977 -0.7826 -1.1103 -1.2117
  740MOL0     H97672   7.101   9.113   1.990  2.3569  0.1427 -0.5496
  740MOL0     H97673   7.220   9.171   2.106 -0.8703  0.2893 -0.5486
  740MOL0     H97674   7.031   9.178   2.281 -1.9437 -1.9519  1.6913
  740MOL0     H97675   7.035   9.024   2.187 -1.8826 -1.2392  0.7478
  740MOL0     H97676   6.854   9.267   2.155  1.7595  0.0714  1.4638
  740MOL0     H97677   6.860   9.150   2.018 -2.2768 -1.3728  1.0405
  740MOL0     H97678   6.593   8.986   2.288 -0.9670 -0.6908 -2.6542
  740MOL0     H97679   7.296   9.580   2.218  1.1342 -0.0533 -1.4612
  740MOL0     H97680   7.286   9.840   2.176 -1.8623  1.2156  1.6552
  741MOL0     O97681   4.787   8.917   6.789  0.3605  0.5919  0.1622
  741MOL0     C97682   4.739   8.935   6.672 -0.9595 -0.1555  0.0462
  741MOL0     O97683   4.637   9.015   6.637 -0.3229 -0.0764 -0.3159
  741MOL0     C97684   4.541   9.043   6.730  0.3446  0.2376 -0.3552
  741MOL0     C97685   4.499   9.179   6.734 -0.2764  0.0498 -0.3782
  741MOL0     C97686   4.380   9.224   6.805 -0.0617 -0.3795  0.6989
  741MOL0     C97687   4.300   9.119   6.866 -0.0383 -0.3027 -0.4209
  741MOL0     O97688   4.178   9.163   6.911  0.4366  0.1621  0.3034
  741MOL0     C97689   4.080   9.086   6.974  0.8424 -0.1972  0.8123
  741MOL0     C97690   4.014   9.168   7.079 -0.4730  1.0199 -0.4218
  741MOL0     C97691   3.960   9.305   7.025 -0.6405 -0.8365 -0.2523
  741MOL0     C97692   3.833   9.350   7.097 -0.2746  0.5040 -0.6235
  741MOL0     C97693   3.810   9.493   7.092 -1.6673 -0.3050  0.2350
  741MOL0     C97694   3.692   9.535   7.186 -0.5025  0.6919 -0.0350
  741MOL0     C97695   3.648   9.674   7.165 -0.4738  0.0563  0.0841
  741MOL0     C97696   3.517   9.703   7.246  0.4831  0.7250 -0.5438
  741MOL0     N97697   3.524   9.673   7.386  0.4750  0.6902 -0.1004
  741MOL0     C97698   3.604   9.736   7.476 -0.7991  0.3334  0.5907
  741MOL0     C97699   3.589   9.663   7.594 -0.2927 -0.1819  0.1242
  741MOL0     C97700   3.673   9.697   7.718 -0.1571  0.0191  0.6886
  741MOL0     C97701   3.604   9.635   7.848 -0.4287 -0.6223  0.4201
  741MOL0     C97702   3.474   9.705   7.897 -0.3364  0.1104 -0.6333
  741MOL0     C97703   3.402   9.650   8.015  0.7216  0.5651  0.4478
  741MOL0     O97704   3.394   9.503   8.005 -0.4841  0.1193 -0.1359
  741MOL0     C97705   3.290   9.448   7.944  1.2751 -0.1574  0.8720
  741MOL0     C97706   3.289   9.311   7.956  0.7010 -0.6347 -0.4940
  741MOL0     C97707   3.193   9.229   7.888 -0.2688 -0.3601 -0.2046
  741MOL0     C97708   3.088   9.291   7.815 -0.7700  0.1889 -0.2398
  741MOL0     C97709   2.980   9.211   7.740 -0.3113 -0.5682 -0.4400
  741MOL0     O97710   2.871   9.282   7.710 -0.4460  0.0987  0.1984
  741MOL0     C97711   2.769   9.233   7.640  0.3097  0.3283 -0.0300
  741MOL0     C97712   2.767   9.132   7.537 -0.2035 -0.2015  0.8001
  741MOL0     C97713   2.662   9.097   7.447 -0.7458  1.2247 -0.8643
  741MOL0     C97714   2.549   9.170   7.458 -0.0144  0.0611 -0.5715
  741MOL0     O97715   2.455   9.131   7.362  0.5193  0.5829 -0.1080
  741MOL0     C97716   2.321   9.166   7.390  0.9463  0.2628  0.3400
  741MOL0     C97717   2.298   9.294   7.309  0.3852 -0.1480 -0.6555
  741MOL0     C97718   2.147   9.326   7.277  0.0549  0.5519 -0.1625
  741MOL0     C97719   2.065   9.225   7.198  0.8603  0.5283 -0.4070
  741MOL0     C97720   1.970   9.130   7.281 -0.2391  0.1558  0.6162
  741MOL0     C97721   1.873   9.207   7.382  0.5379  1.0252 -1.2189
  741MOL0     C97722   1.778   9.315   7.330 -0.0668 -1.1671 -0.0291
  741MOL0     C97723   1.664   9.350   7.418  0.7574  0.2032  0.1205
  741MOL0    Cl97724   1.715   9.378   7.592 -0.1015 -0.0907  0.1275
  741MOL0     C97725   2.549   9.274   7.549 -0.9582 -0.2766 -0.8985
  741MOL0     C97726   2.652   9.308   7.638 -0.2028 -0.5358 -0.1586
  741MOL0     O97727   2.994   9.088   7.737 -0.0040 -0.5631  0.2900
  741MOL0     C97728   3.087   9.430   7.796 -0.3182 -0.5236  0.3800
  741MOL0     C97729   3.179   9.506   7.875 -0.5587  0.3728  0.3307
  741MOL0     N97730   3.509   9.546   7.570 -0.6328  0.1878 -0.0434
  741MOL0     N97731   3.464   9.568   7.449 -0.1045  0.9294 -0.6572
  741MOL0     C97732   4.353   8.985   6.865  0.8528  0.1218  0.1898
  741MOL0     C97733   4.474   8.950   6.808  0.5999 -0.4351 -0.3099
  741MOL0     C97734   4.803   8.862   6.560  0.3399  0.7904 -0.8482
  741MOL0     C97735   4.891   8.745   6.586  1.1657  0.1696  0.0872
  741MOL0     C97736   4.949   8.673   6.481 -0.3602  0.5969  0.0158
  741MOL0     C97737   4.937   8.718   6.345 -0.3454 -0.5037  0.1951
  741MOL0     O97738   5.015   8.670   6.241 -0.0301  0.9756  0.8433
  741MOL0     C97739   5.110   8.559   6.271  0.1190 -0.5940  0.3757
  741MOL0     C97740   5.204   8.538   6.153  0.7476  0.2213 -0.1312
  741MOL0     C97741   5.304   8.430   6.188  0.0828  0.5961 -0.4482
  741MOL0     C97742   5.358   8.374   6.056 -0.6891  0.2018 -0.1025
  741MOL0     C97743   5.318   8.242   6.014  0.5163 -0.2923 -0.4435
  741MOL0     C97744   5.280   8.129   5.998  0.7839 -0.4970  1.0079
  741MOL0     C97745   4.864   8.836   6.332  0.2841 -0.1609  0.9691
  741MOL0     C97746   4.797   8.899   6.428  1.4313 -0.3912 -0.3851
  741MOL0     H97747   4.542   9.256   6.670  1.0998 -0.8994 -0.6236
  741MOL0     H97748   4.348   9.326   6.819 -2.7711 -1.1356  0.5413
  741MOL0     H97749   4.129   8.996   7.014  2.5381  1.3091  2.3449
  741MOL0     H97750   4.011   9.063   6.892  0.5979  0.1283  0.9272
  741MOL0     H97751   4.089   9.192   7.155 -1.2401  3.8020 -0.4326
  741MOL0     H97752   3.934   9.102   7.114 -0.2158  1.1718  0.4804
  741MOL0     H97753   3.935   9.291   6.920  1.4594  0.3664 -0.9735
  741MOL0     H97754   4.038   9.381   7.042  0.6338 -2.2323  0.4303
  741MOL0     H97755   3.743   9.297   7.061 -2.1484  2.4436  0.9197
  741MOL0     H97756   3.844   9.320   7.202 -0.5395 -1.4390 -1.0969
  741MOL0     H97757   3.766   9.511   6.993  2.4409  1.3752 -1.5318
  741MOL0     H97758   3.901   9.554   7.096 -0.7797 -1.5993  0.6490
  741MOL0     H97759   3.720   9.518   7.290 -0.4947  0.5838 -0.0545
  741MOL0     H97760   3.609   9.467   7.166  0.8816 -0.7566 -1.1633
  741MOL0     H97761   3.724   9.749   7.191 -0.4553 -0.4393  1.5840
  741MOL0     H97762   3.617   9.692   7.062 -0.9237  1.5090  0.4376
  741MOL0     H97763   3.434   9.640   7.213 -0.8405  2.3893 -0.4716
  741MOL0     H97764   3.480   9.804   7.228 -0.2606  0.2335 -1.8262
  741MOL0     H97765   3.658   9.824   7.441  1.4179 -0.4425  1.8441
  741MOL0     H97766   3.690   9.805   7.717  0.2157 -0.0284  1.4171
  741MOL0     H97767   3.765   9.640   7.704 -0.3259  0.1454 -1.1307
  741MOL0     H97768   3.683   9.649   7.923  0.3464  1.8823 -0.7667
  741MOL0     H97769   3.583   9.529   7.829  0.7397 -0.6325 -0.9716
  741MOL0     H97770   3.512   9.806   7.918 -0.8065  0.1617  0.0243
  741MOL0     H97771   3.402   9.710   7.815  1.5818  0.4825 -2.3816
  741MOL0     H97772   3.300   9.689   8.022 -0.7428 -1.5707 -4.2964
  741MOL0     H97773   3.454   9.671   8.109  1.9959  1.0276 -0.3314
  741MOL0     H97774   3.367   9.256   8.009 -0.2705  0.1741  1.9071
  741MOL0     H97775   3.191   9.123   7.910 -2.9806 -0.5894 -1.1442
  741MOL0     H97776   2.856   9.069   7.526 -0.0104  0.3337 -1.1281
  741MOL0     H97777   2.665   9.002   7.396 -2.2423 -0.5728  2.1459
  741MOL0     H97778   2.299   9.170   7.497 -1.1758 -1.9842  0.0766
  741MOL0     H97779   2.252   9.088   7.357  0.0277  0.4972  1.6438
  741MOL0     H97780   2.355   9.286   7.216  3.2641  2.0732  0.7570
  741MOL0     H97781   2.345   9.378   7.359  1.4670  1.1555 -3.6350
  741MOL0     H97782   2.161   9.407   7.205 -1.4649 -0.1580 -1.3289
  741MOL0     H97783   2.089   9.377   7.355 -2.6968 -0.1807 -1.6130
  741MOL0     H97784   2.005   9.278   7.123  2.9993  1.4376 -1.5736
  741MOL0     H97785   2.134   9.166   7.135  0.2642 -1.8466  1.0391
  741MOL0     H97786   2.041   9.082   7.349  1.3324 -0.2214 -1.1890
  741MOL0     H97787   1.934   9.061   7.205 -0.4030  1.8592 -0.9207
  741MOL0     H97788   1.937   9.244   7.462  1.5427 -2.3335 -0.3314
  741MOL0     H97789   1.814   9.140   7.445  5.0009 -0.3322  1.9616
  741MOL0     H97790   1.839   9.403   7.306 -1.5667 -0.5556 -1.8084
  741MOL0     H97791   1.729   9.283   7.238 -0.2168 -0.1620 -0.3070
  741MOL0     H97792   1.589   9.271   7.426  0.1804  0.8880  2.1355
  741MOL0     H97793   1.602   9.436   7.391 -2.2251 -0.8373  2.9843
  741MOL0     H97794   2.460   9.337   7.547 -1.7148 -1.0738  2.2056
  741MOL0     H97795   2.634   9.379   7.719  0.1362 -0.0819 -0.4742
  741MOL0     H97796   3.003   9.478   7.746 -2.5208 -1.9217  2.5271
  741MOL0     H97797   3.181   9.614   7.862  0.2518  0.1300 -2.3625
  741MOL0     H97798   4.287   8.906   6.901  1.0770 -0.1581 -0.0133
  741MOL0     H97799   4.518   8.851   6.809  0.8787 -0.3383  1.7369
  741MOL0     H97800   4.912   8.708   6.686  0.3599 -0.0848  0.1737
  741MOL0     H97801   5.009   8.586   6.506  0.2251  1.8250  3.4340
  741MOL0     H97802   5.055   8.465   6.279 -1.2305  0.1961  0.9173
  741MOL0     H97803   5.160   8.572   6.368  0.0422  3.1870  0.0682
  741MOL0     H97804   5.150   8.505   6.063 -0.2813  1.2088  0.1027
  741MOL0     H97805   5.262   8.628   6.132 -2.8624  3.1858  1.5273
  741MOL0     H97806   5.259   8.353   6.251  1.3166 -1.1149 -1.5546
  741MOL0     H97807   5.384   8.467   6.253  0.7170 -0.5210 -0.5536
  741MOL0     H97808   5.357   8.444   5.972 -1.5855  1.2355  0.7421
  741MOL0     H97809   5.467   8.365   6.067 -0.1167 -0.6988 -4.6469
  741MOL0     H97810   5.228   8.035   6.005 -1.2998  0.6939  2.3890
  741MOL0     H97811   4.838   8.871   6.232 -0.7250 -0.9862  0.9189
  741MOL0     H97812   4.741   8.988   6.399  0.6696 -1.1733 -1.3906
  742MOL0     O97813   3.125  10.975  11.292  0.7016  0.5569  0.7378
  742MOL0     C97814   3.067  11.079  11.252 -0.4352 -0.1016 -0.7921
  742MOL0     O97815   3.003  11.168  11.329  0.0603 -0.0133  0.3028
  742MOL0     C97816   3.032  11.154  11.460  0.6666 -0.7472 -0.8052
  742MOL0     C97817   3.161  11.158  11.519 -0.6420 -0.9499  0.1967
  742MOL0     C97818   3.173  11.154  11.655  0.2208 -1.1501  0.4274
  742MOL0     C97819   3.070  11.142  11.736 -0.1479  0.0346  0.4689
  742MOL0     O97820   3.103  11.153  11.869 -0.4053 -0.0116 -0.3201
  742MOL0     C97821   3.030  11.062  11.961 -0.0111 -0.1053 -1.0420
  742MOL0     C97822   3.052  10.912  11.945  0.3157  0.0529 -0.4073
  742MOL0     C97823   3.200  10.877  11.925 -0.4778  0.4447  0.3206
  742MOL0     C97824   3.279  10.913  12.045 -0.3461 -0.2013  0.6500
  742MOL0     C97825   3.438  10.901  12.035  0.0067 -0.4492  0.0519
  742MOL0     C97826   3.492  10.897  12.182 -0.4461  0.0015  0.0120
  742MOL0     C97827   3.639  10.854  12.182  0.2884  0.5007 -0.5442
  742MOL0     C97828   3.741  10.961  12.137 -0.3099  0.2942 -0.9148
  742MOL0     N97829   3.809  11.030  12.244 -0.2587 -0.1806  0.9178
  742MOL0     C97830   3.899  10.976  12.335 -0.6733 -0.2289  0.5354
  742MOL0     C97831   3.952  11.079  12.405  0.6036 -0.3826  0.3885
  742MOL0     C97832   4.061  11.079  12.504  0.0031  0.2821  0.5516
  742MOL0     C97833   4.191  11.100  12.423  0.4851  0.4525  0.1205
  742MOL0     C97834   4.228  10.976  12.330  0.5610  0.1705 -0.3182
  742MOL0     C97835   4.379  10.985  12.286  0.1671 -0.2484 -0.7914
  742MOL0     O97836   4.434  10.859  12.286  0.4222  0.6658  0.1961
  742MOL0     C97837   4.574  10.847  12.299 -0.1085 -0.7101 -0.3208
  742MOL0     C97838   4.655  10.918  12.216 -0.4929  0.1308  0.0846
  742MOL0     C97839   4.798  10.908  12.219 -0.6455 -0.3456 -0.9971
  742MOL0     C97840   4.857  10.835  12.317  0.1199 -0.1306  0.5748
  742MOL0     C97841   5.008  10.833  12.320  0.4113  0.2188 -0.4978
  742MOL0     O97842   5.049  10.730  12.390 -0.5256 -0.4734 -0.1639
  742MOL0     C97843   5.182  10.732  12.417  0.5219  0.1997 -0.5884
  742MOL0     C97844   5.235  10.772  12.546  0.7931 -0.0371  0.0910
  742MOL0     C97845   5.376  10.789  12.560  0.8941 -0.2316 -0.3177
  742MOL0     C97846   5.464  10.753  12.451 -0.2658  0.1943  0.3227
  742MOL0     O97847   5.598  10.770  12.480  0.8579 -0.0746 -0.1683
  742MOL0     C97848   5.686  10.806  12.375 -0.6452  0.1818  1.2379
  742MOL0     C97849   5.827  10.837  12.426  0.5105 -0.7725 -0.3176
  742MOL0     C97850   5.896  10.720  12.495  0.1051  0.3325 -0.7008
  742MOL0     C97851   5.942  10.622  12.398 -0.0639 -0.8171  1.0541
  742MOL0     C97852   6.025  10.509  12.466 -0.1641 -0.3217  0.1943
  742MOL0     C97853   5.949  10.423  12.564  0.0226 -0.0987 -0.2584
  742MOL0     C97854   6.016  10.290  12.586  0.0157  0.2175  0.1618
  742MOL0     C97855   5.974  10.221  12.716  0.6251  0.0723  0.7405
  742MOL0    Cl97856   5.986  10.340  12.853 -0.0193  0.4149  0.0005
  742MOL0     C97857   5.415  10.708  12.333 -0.8111 -0.2368 -0.1903
  742MOL0     C97858   5.276  10.691  12.314 -0.8155  0.5681 -0.1469
  742MOL0     O97859   5.070  10.906  12.252 -0.1374 -0.0238  0.1790
  742MOL0     C97860   4.770  10.758  12.403  1.0462  0.4604  0.6564
  742MOL0     C97861   4.635  10.765  12.396 -0.3217 -0.2859 -0.2020
  742MOL0     N97862   3.892  11.203  12.355  0.9769 -0.6235  0.6185
  742MOL0     N97863   3.800  11.167  12.264 -0.4859  0.5426 -0.5189
  742MOL0     C97864   2.939  11.138  11.684  0.2571  0.9413  0.2863
  742MOL0     C97865   2.923  11.133  11.542  1.4853 -0.1062 -0.5630
  742MOL0     C97866   3.046  11.100  11.110 -0.5164 -1.1690  0.0175
  742MOL0     C97867   3.108  11.015  11.021 -0.7814 -0.7919 -0.8405
  742MOL0     C97868   3.077  11.021  10.888 -0.3807 -0.6500  0.0553
  742MOL0     C97869   2.986  11.111  10.838 -0.2355  0.4393 -0.5375
  742MOL0     O97870   2.953  11.105  10.710  0.3583  0.2346 -0.2068
  742MOL0     C97871   2.887  11.213  10.636 -0.2632  0.7056  0.6014
  742MOL0     C97872   2.867  11.170  10.486 -0.0716  0.2073  0.1335
  742MOL0     C97873   2.729  11.098  10.475  0.7938  0.1461  0.0685
  742MOL0     C97874   2.690  11.081  10.338 -0.4589 -1.0408 -0.1250
  742MOL0     C97875   2.775  10.985  10.257  0.2556 -0.1257 -0.3495
  742MOL0     C97876   2.836  10.912  10.194  0.3747  0.5773  0.1699
  742MOL0     C97877   2.930  11.208  10.925  0.5687  0.3548 -0.1849
  742MOL0     C97878   2.957  11.200  11.063  0.5662  0.2819  0.3966
  742MOL0     H97879   3.238  11.182  11.447  0.7623 -0.3537  1.8308
  742MOL0     H97880   3.276  11.163  11.689  1.0553  0.8208 -2.3320
  742MOL0     H97881   2.922  11.078  11.964 -0.4963 -2.9480  0.3393
  742MOL0     H97882   3.067  11.094  12.059  2.5348  1.0920 -2.2936
  742MOL0     H97883   2.987  10.889  11.860  1.3449 -0.0782 -1.1942
  742MOL0     H97884   3.006  10.870  12.034  0.0112  3.1569  1.0110
  742MOL0     H97885   3.239  10.927  11.836 -2.7633  0.9209 -0.5003
  742MOL0     H97886   3.215  10.769  11.919  2.2114  0.8258 -1.4465
  742MOL0     H97887   3.263  11.019  12.068  0.3155  0.2566 -0.8466
  742MOL0     H97888   3.249  10.853  12.131  0.9817  1.8882  2.7058
  742MOL0     H97889   3.468  10.983  11.970 -0.0793  0.1813  0.7924
  742MOL0     H97890   3.469  10.806  11.990  0.0299 -0.4809  0.1318
  742MOL0     H97891   3.433  10.833  12.248 -0.0857  1.6791  2.0693
  742MOL0     H97892   3.492  10.989  12.241 -0.2065 -0.2674  0.4400
  742MOL0     H97893   3.674  10.818  12.279  0.7054  1.8228 -0.1782
  742MOL0     H97894   3.637  10.769  12.114  1.6926  1.1498 -1.4392
  742MOL0     H97895   3.675  11.031  12.085 -1.6781 -0.2426  0.0298
  742MOL0     H97896   3.815  10.923  12.065  0.5022 -0.2691  0.1919
  742MOL0     H97897   3.911  10.869  12.352 -2.3314 -0.4928  0.2057
  742MOL0     H97898   4.048  10.990  12.566  0.5625  0.7496  1.3566
  742MOL0     H97899   4.037  11.167  12.565  2.3839  0.3537  1.5050
  742MOL0     H97900   4.280  11.120  12.483  1.5345  0.3822 -1.3503
  742MOL0     H97901   4.164  11.183  12.357 -4.6803  0.0729  1.3242
  742MOL0     H97902   4.214  10.880  12.380  3.7674 -0.9239 -1.2878
  742MOL0     H97903   4.167  10.989  12.240  1.0658  2.4930 -0.4044
  742MOL0     H97904   4.445  11.039  12.354  1.1411 -5.3926  2.9461
  742MOL0     H97905   4.384  11.042  12.192 -1.1522  1.3708  0.0639
  742MOL0     H97906   4.614  10.987  12.143 -2.0254 -1.1680 -0.3410
  742MOL0     H97907   4.864  10.965  12.154  0.3067 -1.3605 -0.9476
  742MOL0     H97908   5.158  10.800  12.617  0.6381 -0.0461 -0.0744
  742MOL0     H97909   5.420  10.834  12.648  1.5679  0.1027 -0.8099
  742MOL0     H97910   5.652  10.886  12.308  1.4658 -2.0173 -2.8392
  742MOL0     H97911   5.692  10.720  12.308  4.2390  0.6429  0.7799
  742MOL0     H97912   5.839  10.932  12.478  3.9675  1.3140 -4.2460
  742MOL0     H97913   5.892  10.864  12.341  3.0734 -3.2045  0.7038
  742MOL0     H97914   5.831  10.662  12.561  2.0618 -1.0839  0.0868
  742MOL0     H97915   5.977  10.753  12.562  0.3957  3.3529 -2.3423
  742MOL0     H97916   5.856  10.578  12.348  0.1195 -1.9607  1.7048
  742MOL0     H97917   6.005  10.671  12.323 -1.8841 -0.9872 -0.6524
  742MOL0     H97918   6.105  10.560  12.521  0.1689 -0.0716 -0.5126
  742MOL0     H97919   6.077  10.450  12.391 -1.6812 -0.6880 -0.6118
  742MOL0     H97920   5.851  10.391  12.529  1.4596 -2.0169 -2.8833
  742MOL0     H97921   5.941  10.477  12.659 -0.6149  1.2605 -1.0558
  742MOL0     H97922   5.997  10.237  12.492  0.7550  4.2117 -2.4804
  742MOL0     H97923   6.124  10.306  12.584 -0.0631  1.0069  1.0589
  742MOL0     H97924   6.023  10.127  12.741 -0.9720 -1.2690 -0.8700
  742MOL0     H97925   5.865  10.211  12.706  0.6181 -0.3937  1.2503
  742MOL0     H97926   5.489  10.681  12.259  0.0736  2.1285 -0.2299
  742MOL0     H97927   5.245  10.656  12.216  4.5567  1.3443 -2.4735
  742MOL0     H97928   4.817  10.692  12.476 -2.0061 -2.9148 -0.2030
  742MOL0     H97929   4.555  10.721  12.456  0.1209  1.5520  1.8607
  742MOL0     H97930   2.854  11.135  11.752 -0.7064 -1.9282 -0.9156
  742MOL0     H97931   2.825  11.122  11.497  0.3968 -1.7556  1.9797
  742MOL0     H97932   3.173  10.940  11.065 -2.7331 -2.7469 -1.1182
  742MOL0     H97933   3.116  10.949  10.817 -0.4680 -1.6205  0.9811
  742MOL0     H97934   2.959  11.296  10.640  0.5984  0.1638 -1.9759
  742MOL0     H97935   2.788  11.236  10.677 -2.0971 -2.4637 -1.6102
  742MOL0     H97936   2.867  11.257  10.420 -2.1532  2.2587  2.6287
  742MOL0     H97937   2.945  11.098  10.460 -0.2375  0.6221 -1.6904
  742MOL0     H97938   2.653  11.153  10.531 -1.1210 -2.0016 -0.2674
  742MOL0     H97939   2.733  10.998  10.521 -0.0875  0.5305  0.9958
  742MOL0     H97940   2.590  11.040  10.352 -2.3105  2.7905 -0.6232
  742MOL0     H97941   2.678  11.181  10.294 -2.8159 -1.1462  0.1474
  742MOL0     H97942   2.883  10.827  10.148 -1.3814 -2.2811  3.2355
  742MOL0     H97943   2.867  11.287  10.885  0.8233  0.3139 -0.6714
  742MOL0     H97944   2.919  11.270  11.137 -2.2148  1.0741 -1.6137
  743MOL0     O97945   0.591   8.214   3.744 -0.1613  0.2794 -0.3656
  743MOL0     C97946   0.673   8.299   3.766  0.3753  0.8476 -0.2471
  743MOL0     O97947   0.751   8.352   3.673 -0.3151 -0.6100  0.0003
  743MOL0     C97948   0.751   8.304   3.541 -1.1199  0.7699  0.2987
  743MOL0     C97949   0.661   8.355   3.449  0.2469 -0.0090 -0.2332
  743MOL0     C97950   0.659   8.310   3.320  0.3395  0.5710  0.5408
  743MOL0     C97951   0.755   8.220   3.277 -0.0482 -0.8008  0.5593
  743MOL0     O97952   0.761   8.192   3.145  0.0541  0.6944  0.1556
  743MOL0     C97953   0.749   8.051   3.095 -0.3996 -0.7059  0.2534
  743MOL0     C97954   0.608   8.028   3.051 -0.2436 -0.5809 -0.0516
  743MOL0     C97955   0.569   8.122   2.939  0.2552 -0.4272 -0.0027
  743MOL0     C97956   0.416   8.104   2.911 -0.9549  0.2701  0.4172
  743MOL0     C97957   0.311   8.170   3.014 -0.6715 -0.4798 -0.6520
  743MOL0     C97958   0.172   8.183   2.955 -0.4772 -0.5216  0.6233
  743MOL0     C97959   0.055   8.221   3.058  0.6280 -0.1690  0.5802
  743MOL0     C97960  -0.083   8.156   3.035  0.4978 -0.9500  0.2832
  743MOL0     N97961  -0.176   8.249   3.081  0.5048 -0.6950 -0.0644
  743MOL0     C97962  -0.226   8.365   3.022  0.1081 -1.0898 -0.9638
  743MOL0     C97963  -0.270   8.443   3.122 -0.5544  0.3328 -0.1076
  743MOL0     C97964  -0.331   8.577   3.108 -0.4479  0.2084 -0.2824
  743MOL0     C97965  -0.450   8.578   3.002  0.1698  0.3276  1.0362
  743MOL0     C97966  -0.503   8.723   2.988 -0.6821 -0.3384  0.3116
  743MOL0     C97967  -0.633   8.732   2.918  0.5058 -0.6519  0.0430
  743MOL0     O97968  -0.748   8.697   2.995  0.5598  0.1061  0.4927
  743MOL0     C97969  -0.865   8.690   2.933 -0.7150 -0.2965  0.2868
  743MOL0     C97970  -0.912   8.562   2.933  0.3041 -0.1856 -0.2656
  743MOL0     C97971  -1.042   8.545   2.885 -0.1260 -0.2950 -0.1120
  743MOL0     C97972  -1.128   8.653   2.843 -1.0175  0.0964  0.1393
  743MOL0     C97973  -1.267   8.627   2.805 -0.0020 -0.0913  0.0661
  743MOL0     O97974  -1.357   8.735   2.803  0.1202 -0.4031  0.4712
  743MOL0     C97975  -1.487   8.724   2.759 -0.3421  0.2464 -0.0814
  743MOL0     C97976  -1.547   8.618   2.684 -0.9677 -0.8653  0.5309
  743MOL0     C97977  -1.683   8.611   2.657  0.9054  0.0307  0.1384
  743MOL0     C97978  -1.758   8.726   2.672 -0.5760  0.6060 -1.0152
  743MOL0     O97979  -1.886   8.725   2.636  0.3658  0.1406 -0.8597
  743MOL0     C97980  -1.989   8.740   2.740 -0.4802  0.1650  0.2393
  743MOL0     C97981  -2.120   8.772   2.666  0.8363 -0.8650 -0.0913
  743MOL0     C97982  -2.130   8.915   2.604  0.4344 -0.1678  0.4059
  743MOL0     C97983  -2.271   8.939   2.538 -0.4332  0.8341  0.3092
  743MOL0     C97984  -2.274   9.070   2.459 -0.2146  0.1122 -0.1852
  743MOL0     C97985  -2.415   9.087   2.397 -0.4823  0.9139 -0.0070
  743MOL0     C97986  -2.439   9.232   2.352  0.7540  0.8692 -0.8786
  743MOL0     C97987  -2.420   9.264   2.213  0.5194  0.5950  0.5170
  743MOL0    Cl97988  -2.254   9.248   2.160 -0.2008  0.3395  0.4134
  743MOL0     C97989  -1.700   8.839   2.731  0.7321 -0.5040  0.3718
  743MOL0     C97990  -1.571   8.835   2.788 -0.3591 -0.2417  0.6011
  743MOL0     O97991  -1.296   8.508   2.795 -0.4529  0.0144 -0.0247
  743MOL0     C97992  -1.061   8.777   2.843  0.2287  0.1589  0.8899
  743MOL0     C97993  -0.933   8.798   2.888 -0.0071  0.1296 -0.7265
  743MOL0     N97994  -0.277   8.367   3.232 -0.7659 -0.8830  0.1033
  743MOL0     N97995  -0.202   8.267   3.209 -0.0396 -0.1512 -0.4722
  743MOL0     C97996   0.843   8.164   3.368  0.0780  0.1373 -0.4386
  743MOL0     C97997   0.833   8.197   3.503  0.5702  0.0882  1.0139
  743MOL0     C97998   0.683   8.360   3.907 -0.0245 -0.2328 -0.2082
  743MOL0     C97999   0.778   8.459   3.939  0.0693  1.2081 -0.5374
  743MOL0     C98000   0.793   8.495   4.073  0.0255  0.5776  0.9715
  743MOL0     C98001   0.694   8.464   4.167 -0.6650 -0.4352 -0.6361
  743MOL0     O98002   0.691   8.507   4.298  0.5103 -1.0298  0.4827
  743MOL0     C98003   0.816   8.538   4.355 -0.1412 -1.4835  1.0221
  743MOL0     C98004   0.911   8.420   4.372 -0.1157 -0.9122 -0.4906
  743MOL0     C98005   0.898   8.346   4.504 -0.1880  0.5619  0.4952
  743MOL0     C98006   0.752   8.297   4.523  1.0337 -0.1391  0.7639
  743MOL0     C98007   0.727   8.176   4.441  1.3613  0.3683 -0.4245
  743MOL0     C98008   0.722   8.069   4.384 -0.1672 -0.0569  0.1534
  743MOL0     C98009   0.609   8.363   4.138  0.6794 -0.7216  0.0468
  743MOL0     C98010   0.604   8.307   4.008  0.3098  0.9540 -0.8698
  743MOL0     H98011   0.596   8.438   3.476 -1.2149  0.0452 -3.5121
  743MOL0     H98012   0.587   8.343   3.246  1.0165  0.6793 -0.0829
  743MOL0     H98013   0.788   7.985   3.172  1.5919  1.0600  0.8565
  743MOL0     H98014   0.814   8.045   3.007  0.2549 -0.5961  0.7282
  743MOL0     H98015   0.551   8.052   3.141  0.4577 -6.1500  2.2796
  743MOL0     H98016   0.592   7.926   3.013 -0.0606  0.7286 -4.1663
  743MOL0     H98017   0.633   8.104   2.852  1.2854 -1.7929  0.9832
  743MOL0     H98018   0.580   8.229   2.957 -1.4929  0.5422 -3.7503
  743MOL0     H98019   0.408   8.145   2.810  3.2590  0.8849  0.1544
  743MOL0     H98020   0.394   7.997   2.904  0.8010 -0.2407  1.7918
  743MOL0     H98021   0.344   8.270   3.042 -3.8651  1.2418 -2.4928
  743MOL0     H98022   0.311   8.112   3.107  1.5356  2.3472  1.2765
  743MOL0     H98023   0.143   8.083   2.921 -2.9215  0.2265  0.2806
  743MOL0     H98024   0.175   8.255   2.873 -0.1279 -0.0276  1.0634
  743MOL0     H98025   0.103   8.194   3.152  3.2349 -5.8959 -1.9258
  743MOL0     H98026   0.046   8.330   3.064  2.6734  0.3678 -3.0652
  743MOL0     H98027  -0.102   8.062   3.086  2.4240 -2.2035 -1.1914
  743MOL0     H98028  -0.097   8.145   2.927 -0.2881  0.5182  0.2030
  743MOL0     H98029  -0.220   8.405   2.921 -5.7614  1.0485 -0.8615
  743MOL0     H98030  -0.256   8.653   3.086 -2.9093  3.0592  0.6064
  743MOL0     H98031  -0.364   8.605   3.208 -0.0682  0.1745 -0.1471
  743MOL0     H98032  -0.523   8.500   3.024  1.3465 -1.4489 -1.0091
  743MOL0     H98033  -0.414   8.536   2.908  1.2484  1.2122  1.0291
  743MOL0     H98034  -0.516   8.762   3.089  0.3518  0.8744  0.0003
  743MOL0     H98035  -0.426   8.788   2.946 -2.7353  0.9033 -1.8308
  743MOL0     H98036  -0.636   8.673   2.826 -1.9185  0.8381 -0.9329
  743MOL0     H98037  -0.647   8.835   2.885  0.2725 -0.2391  1.3514
  743MOL0     H98038  -0.854   8.485   2.982  2.0585  1.5646  0.5550
  743MOL0     H98039  -1.092   8.455   2.920  1.3588 -0.8889  0.5631
  743MOL0     H98040  -1.483   8.535   2.655  1.7487  1.8264 -2.0132
  743MOL0     H98041  -1.733   8.520   2.624 -0.8957  0.5080  1.3867
  743MOL0     H98042  -1.972   8.814   2.818  3.0335 -0.2332  0.0398
  743MOL0     H98043  -1.992   8.647   2.798  2.3085  0.9838  1.9255
  743MOL0     H98044  -2.193   8.759   2.747  0.1282  1.7689 -0.2302
  743MOL0     H98045  -2.149   8.694   2.594  0.9320 -0.7406 -0.2647
  743MOL0     H98046  -2.046   8.910   2.535  1.4739 -1.7171  1.7161
  743MOL0     H98047  -2.114   8.994   2.678 -0.3883 -0.6167  1.0848
  743MOL0     H98048  -2.289   8.847   2.483  2.2462 -0.5319  1.5212
  743MOL0     H98049  -2.346   8.938   2.619  2.1591  1.5020  2.8985
  743MOL0     H98050  -2.211   9.067   2.370 -0.0496  0.0697 -0.0667
  743MOL0     H98051  -2.257   9.157   2.524  0.9756 -0.9055  0.9426
  743MOL0     H98052  -2.496   9.064   2.465  0.0332  2.4519  1.2010
  743MOL0     H98053  -2.408   9.016   2.314 -0.4092 -0.4426  1.1278
  743MOL0     H98054  -2.541   9.250   2.388  1.0024 -3.0285  2.4137
  743MOL0     H98055  -2.368   9.294   2.408  0.8775  0.9824 -1.1556
  743MOL0     H98056  -2.447   9.365   2.182  0.2941  0.1691 -0.7039
  743MOL0     H98057  -2.481   9.192   2.159  1.2875 -1.4186  2.1919
  743MOL0     H98058  -1.748   8.934   2.752 -0.6023 -1.9786  5.3216
  743MOL0     H98059  -1.535   8.924   2.838  0.4100  1.1329 -2.2037
  743MOL0     H98060  -1.121   8.859   2.807 -2.0003 -1.9757 -0.5532
  743MOL0     H98061  -0.897   8.900   2.883  1.2393 -0.3361 -1.6799
  743MOL0     H98062   0.922   8.093   3.348  1.4173  1.0342  1.3525
  743MOL0     H98063   0.913   8.154   3.562  1.8211 -0.1793 -0.8232
  743MOL0     H98064   0.841   8.490   3.856 -0.2921 -2.0787 -2.2433
  743MOL0     H98065   0.873   8.562   4.101 -0.4169  0.9445  1.3757
  743MOL0     H98066   0.786   8.594   4.445 -0.7821  1.1276 -0.6838
  743MOL0     H98067   0.866   8.615   4.295 -0.3983 -1.4487  0.8520
  743MOL0     H98068   0.908   8.346   4.293 -0.3211 -0.8915 -0.5031
  743MOL0     H98069   1.010   8.467   4.373 -0.2825 -0.5549  0.5280
  743MOL0     H98070   0.929   8.406   4.590 -0.2311 -1.8269  2.3096
  743MOL0     H98071   0.961   8.256   4.508 -0.7191  0.2166  1.4419
  743MOL0     H98072   0.729   8.269   4.627  3.2431 -1.5357  0.9333
  743MOL0     H98073   0.676   8.370   4.492 -1.8669 -3.0041  0.5948
  743MOL0     H98074   0.713   7.972   4.338 -1.8563  0.3287 -0.3939
  743MOL0     H98075   0.545   8.326   4.218 -0.8249  1.4058 -0.0798
  743MOL0     H98076   0.536   8.224   3.989 -0.0989  1.1992 -0.4958
  744MOL0     O98077   9.876  10.901   4.671 -0.0386 -0.0522  0.0627
  744MOL0     C98078   9.774  10.887   4.606  0.4770  0.3351  0.6862
  744MOL0     O98079   9.761  10.947   4.484 -0.1548  0.2690 -0.7917
  744MOL0     C98080   9.866  11.026   4.440 -0.4309 -1.0282  0.9727
  744MOL0     C98081   9.869  11.146   4.499  0.4907  0.1206  0.5521
  744MOL0     C98082   9.979  11.231   4.466  0.0462  0.4259 -1.0954
  744MOL0     C98083  10.078  11.190   4.374 -0.0967  0.8625 -0.2839
  744MOL0     O98084  10.182  11.275   4.340 -0.3253 -0.4474 -0.3415
  744MOL0     C98085  10.129  11.392   4.276  0.1033 -0.3422 -0.1938
  744MOL0     C98086  10.251  11.448   4.205  0.7267  0.2677  0.1784
  744MOL0     C98087  10.194  11.571   4.144 -0.2709 -0.4392  0.2097
  744MOL0     C98088  10.296  11.620   4.039 -0.6593  0.0562 -0.8340
  744MOL0     C98089  10.253  11.756   3.979 -0.1779 -0.3877 -0.4616
  744MOL0     C98090  10.119  11.764   3.893 -0.3022 -0.8204 -0.5851
  744MOL0     C98091  10.124  11.739   3.746 -0.3173  0.7337  0.4299
  744MOL0     C98092   9.982  11.735   3.684  0.4401 -0.7193  0.1551
  744MOL0     N98093   9.995  11.715   3.540  0.0336  0.0905  0.0818
  744MOL0     C98094   9.918  11.620   3.467  0.4747  0.0074 -0.0662
  744MOL0     C98095   9.952  11.627   3.334  0.6231 -0.4026  0.2126
  744MOL0     C98096   9.892  11.532   3.230 -0.0885  0.4596  0.5644
  744MOL0     C98097   9.944  11.393   3.222 -0.4269  0.9624 -0.1861
  744MOL0     C98098   9.875  11.298   3.117  0.4587 -0.5951 -0.5956
  744MOL0     C98099   9.722  11.308   3.094  0.9158 -0.7380  0.1657
  744MOL0     O98100   9.647  11.270   3.212  0.4529 -0.5518 -0.7736
  744MOL0     C98101   9.517  11.218   3.206 -0.0055 -0.0247  0.5967
  744MOL0     C98102   9.456  11.191   3.080 -0.3780  0.3715  0.0926
  744MOL0     C98103   9.327  11.163   3.078  0.4607  0.3489 -1.1538
  744MOL0     C98104   9.249  11.146   3.201 -0.0077 -0.8399 -0.4107
  744MOL0     C98105   9.114  11.095   3.192  0.5358 -0.2786  0.4306
  744MOL0     O98106   9.059  11.061   3.064  0.2815 -0.0968  0.6688
  744MOL0     C98107   8.925  11.033   3.063  0.2629  0.2578 -0.7156
  744MOL0     C98108   8.818  11.121   3.089  0.0615  0.3325 -0.3464
  744MOL0     C98109   8.689  11.091   3.055  0.0493  1.1236  0.2102
  744MOL0     C98110   8.660  10.967   3.008  0.7562  0.3187  0.2274
  744MOL0     O98111   8.543  10.925   2.967 -0.1355 -0.0424  0.7091
  744MOL0     C98112   8.467  11.015   2.878 -0.1350  0.2820  0.1311
  744MOL0     C98113   8.346  10.941   2.829 -0.1262 -0.0694 -0.5500
  744MOL0     C98114   8.263  10.924   2.958 -0.5253 -0.0234 -0.3902
  744MOL0     C98115   8.146  10.853   2.921  0.8009  0.8085 -0.7610
  744MOL0     C98116   8.023  10.906   2.998  0.4832  1.0086 -0.2074
  744MOL0     C98117   8.036  10.864   3.155  0.0647  0.3764 -0.8461
  744MOL0     C98118   8.037  10.719   3.190  0.1434 -0.6548 -0.6465
  744MOL0     C98119   8.171  10.646   3.211 -0.4209 -0.4832  0.5656
  744MOL0    Cl98120   8.229  10.655   3.378  0.2332 -0.5814 -0.1192
  744MOL0     C98121   8.757  10.868   3.014  1.0466  0.5577 -0.1101
  744MOL0     C98122   8.891  10.900   3.026 -0.4879  0.4532 -0.1574
  744MOL0     O98123   9.053  11.100   3.301 -0.5529 -0.5905  0.2809
  744MOL0     C98124   9.307  11.176   3.321  1.1163 -0.5445  0.6349
  744MOL0     C98125   9.444  11.210   3.327  0.5146  0.4953 -0.4463
  744MOL0     N98126  10.042  11.735   3.327 -1.1127  0.6203 -0.5650
  744MOL0     N98127  10.074  11.783   3.445  0.2708  0.2251 -0.1398
  744MOL0     C98128  10.068  11.068   4.300 -0.6550 -0.8707 -0.4548
  744MOL0     C98129   9.960  10.987   4.335  0.2512  0.4768 -0.8346
  744MOL0     C98130   9.661  10.815   4.671 -0.2602 -0.1244 -0.0949
  744MOL0     C98131   9.554  10.764   4.598  0.3501  0.2328 -0.0655
  744MOL0     C98132   9.448  10.695   4.653 -0.6077 -0.1238  0.1850
  744MOL0     C98133   9.442  10.673   4.791 -0.1804 -1.2342 -0.3456
  744MOL0     O98134   9.331  10.621   4.848  0.0628 -0.7408 -0.2020
  744MOL0     C98135   9.332  10.582   4.984  1.2141 -0.5633  0.0123
  744MOL0     C98136   9.190  10.512   5.010  0.8339 -0.7360  0.7837
  744MOL0     C98137   9.170  10.486   5.164  0.2319 -0.1809 -0.2500
  744MOL0     C98138   9.034  10.416   5.164  0.1980  0.2571 -0.4811
  744MOL0     C98139   9.000  10.364   5.299  0.0721  0.2516 -0.7285
  744MOL0     C98140   8.972  10.307   5.406  0.0834  0.1524  0.0112
  744MOL0     C98141   9.549  10.723   4.868 -0.5267  0.0800 -0.1152
  744MOL0     C98142   9.657  10.794   4.811  0.4443  0.1974  0.3638
  744MOL0     H98143   9.788  11.182   4.562 -1.7294 -0.5948 -1.7361
  744MOL0     H98144   9.981  11.331   4.508  2.2040 -0.3000  0.7381
  744MOL0     H98145  10.082  11.464   4.344 -0.9348 -1.6727  0.5317
  744MOL0     H98146  10.049  11.360   4.210 -1.6316  3.0807 -0.0052
  744MOL0     H98147  10.275  11.376   4.127 -2.7892 -0.5563 -0.2754
  744MOL0     H98148  10.327  11.457   4.284 -1.0606 -1.2658  2.2039
  744MOL0     H98149  10.163  11.648   4.216  0.8785  1.0664 -0.8436
  744MOL0     H98150  10.100  11.542   4.095 -1.8296 -1.6511  3.6167
  744MOL0     H98151  10.395  11.630   4.085 -0.1887 -0.8476 -1.6180
  744MOL0     H98152  10.308  11.549   3.957  1.3628 -0.4200 -0.1624
  744MOL0     H98153  10.331  11.779   3.906 -1.3110  0.9254 -1.2965
  744MOL0     H98154  10.254  11.831   4.059 -0.8671 -0.4784 -0.3643
  744MOL0     H98155  10.089  11.869   3.894 -1.0448 -0.9530 -2.9503
  744MOL0     H98156  10.033  11.716   3.943  0.7808  0.5644  2.9066
  744MOL0     H98157  10.175  11.819   3.692 -1.1558  0.1830 -1.2426
  744MOL0     H98158  10.178  11.644   3.735 -1.9228 -0.4046  1.8893
  744MOL0     H98159   9.926  11.828   3.697 -0.1527 -1.1259  0.5947
  744MOL0     H98160   9.919  11.658   3.730 -0.0923  1.6300  3.7261
  744MOL0     H98161   9.835  11.567   3.512  0.7758  0.0821  0.5835
  744MOL0     H98162   9.910  11.575   3.131  1.3476 -0.9066  0.1739
  744MOL0     H98163   9.785  11.526   3.251  0.5308  0.5412  4.4275
  744MOL0     H98164   9.940  11.370   3.329  2.7569  3.5828  0.6551
  744MOL0     H98165  10.047  11.373   3.190 -1.6322 -4.3883 -1.7252
  744MOL0     H98166   9.919  11.302   3.017 -2.6668  1.5818 -2.0470
  744MOL0     H98167   9.892  11.202   3.167  0.5785  0.6223  1.8630
  744MOL0     H98168   9.687  11.250   3.008 -4.3935  1.5347  0.4269
  744MOL0     H98169   9.696  11.411   3.070 -2.1377 -1.2909  0.5673
  744MOL0     H98170   9.509  11.191   2.985 -1.6592  4.9035 -0.8723
  744MOL0     H98171   9.287  11.153   2.977 -0.1625 -1.1186 -0.7942
  744MOL0     H98172   8.852  11.217   3.126  2.1889 -0.9828  1.3394
  744MOL0     H98173   8.620  11.174   3.045 -1.7327 -0.4938 -2.1456
  744MOL0     H98174   8.520  11.029   2.784 -1.9913  2.4604 -0.6836
  744MOL0     H98175   8.437  11.105   2.934  0.0550  0.8360 -0.6426
  744MOL0     H98176   8.373  10.844   2.785  1.7081 -0.8986  2.1421
  744MOL0     H98177   8.285  10.995   2.756 -0.7206  1.9119  1.3124
  744MOL0     H98178   8.247  11.027   2.990 -3.1418 -0.4948 -0.0032
  744MOL0     H98179   8.322  10.863   3.027  1.8596  3.3870  0.8622
  744MOL0     H98180   8.120  10.852   2.814 -2.2532 -2.7219 -0.2107
  744MOL0     H98181   8.155  10.746   2.941  0.3551  1.0096  0.5611
  744MOL0     H98182   7.940  10.854   2.949  2.0224 -0.3139 -1.5339
  744MOL0     H98183   8.010  11.011   2.973  1.2746  1.1221 -0.1603
  744MOL0     H98184   7.940  10.900   3.195  0.0357 -1.6180  1.0355
  744MOL0     H98185   8.113  10.920   3.210 -1.2342  3.1079 -1.5950
  744MOL0     H98186   7.973  10.710   3.279 -0.3245 -2.0293 -1.1025
  744MOL0     H98187   7.987  10.687   3.098 -0.3698  0.3012 -0.7169
  744MOL0     H98188   8.244  10.683   3.139 -0.1965  0.9175  1.4700
  744MOL0     H98189   8.136  10.545   3.190 -2.5748 -0.5333  3.6276
  744MOL0     H98190   8.716  10.769   3.000  1.2521  0.5082 -0.3736
  744MOL0     H98191   8.968  10.829   2.998  1.0493  1.7231  0.6997
  744MOL0     H98192   9.251  11.155   3.411 -1.2803 -3.2463 -1.2840
  744MOL0     H98193   9.485  11.228   3.426  2.7771  0.5690 -1.3320
  744MOL0     H98194  10.134  11.042   4.218  1.3421 -2.0672  1.4414
  744MOL0     H98195   9.954  10.885   4.299 -2.4522  1.5286 -3.8063
  744MOL0     H98196   9.540  10.779   4.491 -2.9653  3.1685  0.6134
  744MOL0     H98197   9.366  10.664   4.589 -0.0311  0.8902 -1.1061
  744MOL0     H98198   9.335  10.671   5.047 -2.0402 -1.5820  1.8374
  744MOL0     H98199   9.405  10.505   5.011  1.4114 -0.3155  0.1883
  744MOL0     H98200   9.109  10.575   4.975 -0.7436 -3.7244 -1.3525
  744MOL0     H98201   9.172  10.426   4.946 -0.3883  1.5133 -2.1189
  744MOL0     H98202   9.177  10.577   5.224  0.0742 -1.3514  1.6606
  744MOL0     H98203   9.250  10.423   5.205 -2.8217 -2.9173  2.1152
  744MOL0     H98204   8.954  10.486   5.138 -1.8398 -0.0511  4.0013
  744MOL0     H98205   9.039  10.332   5.094  1.0313  2.6173 -3.5230
  744MOL0     H98206   8.968  10.267   5.506  2.1728  1.1290  0.5474
  744MOL0     H98207   9.558  10.708   4.975  0.4058  0.3249 -0.1474
  744MOL0     H98208   9.730  10.836   4.880 -2.0377  0.8579  2.7331
  745MOL0     O98209   5.708   6.610   2.499 -0.4331  0.0412 -0.7915
  745MOL0     C98210   5.815   6.582   2.448  1.1901 -0.1257 -0.5864
  745MOL0     O98211   5.836   6.547   2.313  0.1121 -0.2447  0.0799
  745MOL0     C98212   5.727   6.527   2.218  0.0792 -1.0779 -0.0316
  745MOL0     C98213   5.597   6.587   2.238 -0.5582  0.1730  0.1255
  745MOL0     C98214   5.497   6.572   2.142 -0.1173 -0.1081 -0.2122
  745MOL0     C98215   5.520   6.488   2.036  0.2269  0.0226 -0.4716
  745MOL0     O98216   5.421   6.491   1.931  0.2890  0.4126  0.3980
  745MOL0     C98217   5.432   6.604   1.843 -0.5179 -1.1863 -0.5847
  745MOL0     C98218   5.349   6.724   1.892 -0.3567  0.1785 -0.6959
  745MOL0     C98219   5.344   6.834   1.790  0.2121 -0.0857  0.4475
  745MOL0     C98220   5.290   6.965   1.845 -0.7840 -0.8118 -0.1574
  745MOL0     C98221   5.285   7.075   1.735 -0.5670  0.0636  0.1241
  745MOL0     C98222   5.205   7.200   1.777 -0.3845 -0.1390  0.3180
  745MOL0     C98223   5.161   7.267   1.647  0.1659  0.6799  0.1234
  745MOL0     C98224   5.073   7.396   1.684 -0.5047 -0.8420  0.0550
  745MOL0     N98225   5.077   7.506   1.581  1.0375  0.0080  0.7489
  745MOL0     C98226   5.049   7.642   1.587 -0.0181  0.3712  0.0375
  745MOL0     C98227   5.049   7.689   1.461  0.2406  0.3947  0.2597
  745MOL0     C98228   5.006   7.827   1.405 -0.3776 -0.4083 -0.0124
  745MOL0     C98229   4.869   7.857   1.468 -0.1635 -0.2467  0.5576
  745MOL0     C98230   4.819   8.004   1.443  0.0935  0.1452 -0.3783
  745MOL0     C98231   4.684   8.025   1.537  0.0611 -0.0179  0.0340
  745MOL0     O98232   4.609   8.136   1.482  0.9496  0.7419 -0.2000
  745MOL0     C98233   4.470   8.135   1.478  0.1019  0.4627 -0.1712
  745MOL0     C98234   4.391   8.060   1.570 -0.5936  0.1489  0.2465
  745MOL0     C98235   4.251   8.088   1.575  0.3063  0.5757  0.2100
  745MOL0     C98236   4.184   8.180   1.492  0.1403  0.9193 -0.7251
  745MOL0     C98237   4.040   8.197   1.514 -0.1704  0.2965  0.2127
  745MOL0     O98238   3.965   8.120   1.591 -0.1315  0.3001 -0.3674
  745MOL0     C98239   3.828   8.134   1.599 -0.1009 -0.0273  1.9138
  745MOL0     C98240   3.750   8.035   1.662 -1.0474  0.0997 -0.5832
  745MOL0     C98241   3.613   8.057   1.690  0.2652 -0.1867 -0.5219
  745MOL0     C98242   3.544   8.179   1.650  0.2648 -0.8623 -0.5926
  745MOL0     O98243   3.414   8.207   1.679  0.5382  0.1096 -0.5407
  745MOL0     C98244   3.335   8.270   1.571 -0.4290  0.5452 -0.5417
  745MOL0     C98245   3.194   8.227   1.626  0.6880  0.4294  1.1341
  745MOL0     C98246   3.098   8.251   1.513  0.4504  0.2216 -0.5024
  745MOL0     C98247   2.944   8.248   1.558 -0.0803  0.5583 -0.3739
  745MOL0     C98248   2.852   8.280   1.445  0.6933 -0.9093 -0.6920
  745MOL0     C98249   2.703   8.268   1.495 -0.7917 -0.3685 -0.1710
  745MOL0     C98250   2.593   8.265   1.397 -0.3377 -0.3115  0.2225
  745MOL0     C98251   2.466   8.285   1.461  0.7652 -0.1756  0.7622
  745MOL0    Cl98252   2.331   8.332   1.341  0.0641  0.5304  0.8550
  745MOL0     C98253   3.613   8.264   1.570 -0.3355 -0.2706 -0.3356
  745MOL0     C98254   3.748   8.240   1.552 -0.0540  0.4140 -0.5662
  745MOL0     O98255   4.003   8.294   1.445 -0.2627 -0.2543 -0.0592
  745MOL0     C98256   4.265   8.247   1.399 -1.0184  0.1433  0.4416
  745MOL0     C98257   4.408   8.216   1.391 -0.6607 -1.6253 -0.5535
  745MOL0     N98258   5.089   7.588   1.377 -0.1297  0.2547 -0.6062
  745MOL0     N98259   5.102   7.480   1.446 -1.4395 -0.1277 -0.5080
  745MOL0     C98260   5.627   6.406   2.024 -0.3710 -1.3831 -0.2352
  745MOL0     C98261   5.729   6.436   2.109 -0.7814  0.4170 -0.4992
  745MOL0     C98262   5.926   6.622   2.528  0.0470 -0.5812  0.1603
  745MOL0     C98263   6.052   6.603   2.479 -0.0358 -0.0400 -1.3583
  745MOL0     C98264   6.168   6.618   2.557  0.5934  0.0871 -0.7910
  745MOL0     C98265   6.165   6.670   2.680  0.5381  0.3930 -0.3363
  745MOL0     O98266   6.274   6.684   2.757  0.2385 -0.6341  0.4746
  745MOL0     C98267   6.275   6.764   2.876  0.6425 -0.4397  0.4650
  745MOL0     C98268   6.412   6.751   2.940  0.1148 -0.5687 -0.2466
  745MOL0     C98269   6.415   6.816   3.081  0.3834 -0.2811 -0.5156
  745MOL0     C98270   6.559   6.814   3.137 -0.2562 -0.1457 -1.0374
  745MOL0     C98271   6.657   6.872   3.048 -0.2491 -0.2018  0.7476
  745MOL0     C98272   6.743   6.902   2.967 -0.2080  0.4577  0.4186
  745MOL0     C98273   6.035   6.699   2.735  1.1226 -0.3754 -0.1073
  745MOL0     C98274   5.917   6.665   2.661 -0.4644  0.0411  0.7809
  745MOL0     H98275   5.567   6.653   2.318 -2.8836 -2.0478  1.2381
  745MOL0     H98276   5.406   6.631   2.145 -2.3064 -3.2636  0.3157
  745MOL0     H98277   5.407   6.573   1.741  0.6732 -4.3133 -0.0634
  745MOL0     H98278   5.537   6.625   1.817 -0.8251 -2.2542 -2.9750
  745MOL0     H98279   5.394   6.762   1.984  2.4072 -2.3673 -0.8710
  745MOL0     H98280   5.246   6.693   1.914 -1.3063 -0.4262 -5.0551
  745MOL0     H98281   5.285   6.804   1.703 -1.2453 -2.3378  2.1096
  745MOL0     H98282   5.447   6.848   1.755  0.0853 -0.2529  0.0007
  745MOL0     H98283   5.193   6.942   1.890  0.0116  1.1989  2.8309
  745MOL0     H98284   5.349   7.008   1.926 -1.1512 -1.3729  0.4106
  745MOL0     H98285   5.237   7.034   1.645 -1.1633 -1.0726  0.9304
  745MOL0     H98286   5.389   7.106   1.724  0.2082 -0.4382  4.2985
  745MOL0     H98287   5.253   7.276   1.840 -2.6823  1.2405  0.5200
  745MOL0     H98288   5.113   7.172   1.829 -1.7046  2.0031 -0.6989
  745MOL0     H98289   5.254   7.295   1.598  1.5268 -0.9631  1.6165
  745MOL0     H98290   5.099   7.207   1.580 -2.1923  2.2870  0.6960
  745MOL0     H98291   5.104   7.446   1.776 -2.0913 -1.3695  0.9064
  745MOL0     H98292   4.969   7.363   1.694 -1.4274 -0.0264 -4.7223
  745MOL0     H98293   5.040   7.697   1.680  2.6419  0.2545  0.4462
  745MOL0     H98294   4.993   7.826   1.296  2.6751  1.7418 -0.5379
  745MOL0     H98295   5.079   7.906   1.425 -0.1290 -0.2412 -1.4206
  745MOL0     H98296   4.866   7.832   1.574 -0.7698 -2.0350  0.1573
  745MOL0     H98297   4.802   7.786   1.419  0.2715 -0.7204  0.6428
  745MOL0     H98298   4.893   8.081   1.467  0.3211  0.0662 -0.8288
  745MOL0     H98299   4.794   8.013   1.337  1.8062  4.5457 -0.6116
  745MOL0     H98300   4.716   8.052   1.638  1.9388  0.0906 -0.5632
  745MOL0     H98301   4.619   7.936   1.537 -2.0407  1.3998  1.9862
  745MOL0     H98302   4.438   7.990   1.638  0.1611  1.4950  1.1543
  745MOL0     H98303   4.184   8.038   1.644 -2.2352  1.8712 -1.1724
  745MOL0     H98304   3.800   7.948   1.704  0.2491  2.4414  3.2411
  745MOL0     H98305   3.557   7.979   1.740  0.2360 -0.7579 -1.4212
  745MOL0     H98306   3.360   8.208   1.485  4.3818  2.3610 -0.7801
  745MOL0     H98307   3.344   8.377   1.549 -0.0202  0.3595 -1.3254
  745MOL0     H98308   3.153   8.286   1.708 -2.8364  0.1506 -0.2579
  745MOL0     H98309   3.195   8.121   1.654  0.1884  0.6714  2.0993
  745MOL0     H98310   3.128   8.171   1.445  3.4397 -1.4538  2.4767
  745MOL0     H98311   3.121   8.353   1.481 -1.4285  2.9467  5.3853
  745MOL0     H98312   2.916   8.145   1.582 -1.2944  0.3212 -2.5151
  745MOL0     H98313   2.924   8.310   1.646  3.7616  0.7392  0.5369
  745MOL0     H98314   2.873   8.211   1.363  0.5816 -0.2644 -1.2728
  745MOL0     H98315   2.862   8.383   1.411 -0.2708 -0.3967  0.5126
  745MOL0     H98316   2.694   8.344   1.574 -0.4690  3.4986 -3.5488
  745MOL0     H98317   2.699   8.171   1.547  2.4538 -0.9611 -0.8170
  745MOL0     H98318   2.609   8.352   1.331 -0.1764  0.2922  1.0450
  745MOL0     H98319   2.591   8.171   1.341  1.0032 -0.2222 -0.0113
  745MOL0     H98320   2.482   8.373   1.524  0.5817  1.7459 -1.7137
  745MOL0     H98321   2.443   8.192   1.512 -0.6346 -0.3182 -0.0577
  745MOL0     H98322   3.563   8.347   1.522  2.6726  0.6873 -2.0785
  745MOL0     H98323   3.785   8.318   1.487  2.2937  0.1551  0.3522
  745MOL0     H98324   4.215   8.309   1.325 -1.9227  1.6967  2.2638
  745MOL0     H98325   4.463   8.273   1.317 -2.4768 -0.1081 -0.8273
  745MOL0     H98326   5.621   6.341   1.937  0.0516 -3.3982  1.1902
  745MOL0     H98327   5.821   6.379   2.103 -2.2130 -1.9914 -0.8461
  745MOL0     H98328   6.071   6.596   2.373  2.5949  0.6907 -1.0094
  745MOL0     H98329   6.261   6.590   2.509  0.2186 -2.8341  0.0417
  745MOL0     H98330   6.203   6.732   2.953 -0.2824  3.2064  1.2977
  745MOL0     H98331   6.250   6.868   2.853 -1.5266 -0.7003  1.3734
  745MOL0     H98332   6.429   6.643   2.951  2.1158 -0.1393  1.8835
  745MOL0     H98333   6.489   6.790   2.873 -1.4954  3.4321 -0.0356
  745MOL0     H98334   6.353   6.760   3.152  0.1673  1.1348  0.4659
  745MOL0     H98335   6.383   6.921   3.072  3.9102  0.8933 -0.9658
  745MOL0     H98336   6.566   6.879   3.225  1.8201 -0.2921 -1.0491
  745MOL0     H98337   6.606   6.722   3.172  2.4893  0.9591 -1.5605
  745MOL0     H98338   6.807   6.956   2.901 -0.4304 -0.5358 -0.6477
  745MOL0     H98339   6.020   6.743   2.833  3.0318  1.0105 -0.3825
  745MOL0     H98340   5.823   6.705   2.698  0.1707  2.5655 -0.1174
  746MOL0     O98341   7.196   8.369   6.682 -0.3141 -0.0589  0.8488
  746MOL0     C98342   7.224   8.355   6.799  0.8782  0.1972 -0.6164
  746MOL0     O98343   7.347   8.380   6.852  0.1642  0.3460 -0.0329
  746MOL0     C98344   7.453   8.417   6.771 -0.8304  0.0933 -0.2717
  746MOL0     C98345   7.504   8.325   6.676  0.2495  0.0911 -0.9050
  746MOL0     C98346   7.615   8.362   6.605  0.4988 -1.0163  0.4722
  746MOL0     C98347   7.674   8.494   6.617  0.4080 -0.3433 -0.6592
  746MOL0     O98348   7.771   8.544   6.530 -0.5570 -0.0627  0.3198
  746MOL0     C98349   7.823   8.475   6.415 -0.4903  0.1269  0.2180
  746MOL0     C98350   7.961   8.410   6.461  0.4568 -0.1499 -0.5922
  746MOL0     C98351   8.071   8.509   6.478 -1.0663 -0.7953  0.8815
  746MOL0     C98352   8.210   8.434   6.487  0.4479  0.6945 -0.2758
  746MOL0     C98353   8.301   8.533   6.562 -0.2293  0.2618 -0.6650
  746MOL0     C98354   8.448   8.488   6.581  0.0976 -1.2389 -0.3617
  746MOL0     C98355   8.516   8.535   6.458 -0.0546  0.3010  1.5402
  746MOL0     C98356   8.662   8.513   6.470 -0.2611 -0.4482 -0.1413
  746MOL0     N98357   8.725   8.535   6.338 -0.1500  1.2405  0.5057
  746MOL0     C98358   8.815   8.638   6.296 -0.0221  0.5599 -0.6624
  746MOL0     C98359   8.891   8.581   6.201  0.0311 -1.1924  0.0218
  746MOL0     C98360   9.005   8.646   6.136 -0.0270 -0.1939  0.0774
  746MOL0     C98361   9.138   8.572   6.167  0.2479  0.8959  0.3141
  746MOL0     C98362   9.260   8.659   6.136  0.0284  0.1556 -0.6201
  746MOL0     C98363   9.388   8.575   6.162 -0.3046 -0.0403  0.5943
  746MOL0     O98364   9.475   8.590   6.051  0.1610 -0.4370 -0.8680
  746MOL0     C98365   9.544   8.708   6.033 -0.4023  0.3961 -0.4890
  746MOL0     C98366   9.597   8.713   5.904 -0.2118 -0.4504  0.5679
  746MOL0     C98367   9.653   8.829   5.866 -1.5637 -0.7949 -0.2787
  746MOL0     C98368   9.679   8.936   5.955 -0.8353  0.6262 -0.7229
  746MOL0     C98369   9.729   9.062   5.905 -1.2656 -0.7164  0.4888
  746MOL0     O98370   9.743   9.168   5.990 -0.1000 -0.2722  0.4879
  746MOL0     C98371   9.794   9.291   5.958 -0.8391 -0.4626 -0.2830
  746MOL0     C98372   9.759   9.400   6.027  0.1195  0.6199  0.1579
  746MOL0     C98373   9.792   9.529   5.999  0.1534  0.0996  0.5190
  746MOL0     C98374   9.890   9.563   5.906  0.5903  1.1288  0.4546
  746MOL0     O98375   9.912   9.691   5.875 -0.4532 -0.3151  0.5765
  746MOL0     C98376  10.043   9.721   5.831 -0.4626  0.0130  0.2466
  746MOL0     C98377  10.103   9.839   5.916  0.4729 -0.3790 -0.5503
  746MOL0     C98378  10.233   9.885   5.851  0.4970 -0.9765  0.3643
  746MOL0     C98379  10.310  10.006   5.913  0.1793  0.1864  0.0582
  746MOL0     C98380  10.459   9.981   5.895  0.1632 -0.1329  0.0712
  746MOL0     C98381  10.547  10.081   5.969 -0.3540  0.3747 -0.6894
  746MOL0     C98382  10.688  10.072   5.921 -0.1252 -0.1527  0.2722
  746MOL0     C98383  10.768   9.940   5.938  0.4957  0.1978  0.0974
  746MOL0    Cl98384  10.731   9.858   6.090  0.4959 -0.2129  0.2770
  746MOL0     C98385   9.937   9.448   5.836 -0.6064  0.9978  0.1093
  746MOL0     C98386   9.886   9.321   5.852  0.7382 -0.0565  0.3830
  746MOL0     O98387   9.753   9.058   5.781  0.7916 -0.1163  0.1222
  746MOL0     C98388   9.639   8.924   6.090  0.5901  0.7034 -0.1649
  746MOL0     C98389   9.573   8.800   6.128 -0.9662 -0.0459  0.2513
  746MOL0     N98390   8.834   8.461   6.174 -0.1382  0.2972  0.9493
  746MOL0     N98391   8.741   8.426   6.257 -1.3483 -0.4328 -0.6322
  746MOL0     C98392   7.622   8.580   6.718 -0.1259  0.1481  0.2214
  746MOL0     C98393   7.518   8.537   6.791  0.5629 -0.1942 -1.9497
  746MOL0     C98394   7.115   8.325   6.892  0.9879  0.3338 -1.0318
  746MOL0     C98395   6.984   8.334   6.841 -0.3726  0.1023  0.1232
  746MOL0     C98396   6.877   8.286   6.918 -0.1065 -0.2934  0.0736
  746MOL0     C98397   6.897   8.256   7.052  0.2968 -0.0162  0.4572
  746MOL0     O98398   6.784   8.226   7.128  0.0030 -0.4409 -0.6801
  746MOL0     C98399   6.810   8.177   7.264 -0.4492 -0.2559 -0.5405
  746MOL0     C98400   6.685   8.098   7.297  0.5893 -0.6502 -0.2634
  746MOL0     C98401   6.558   8.183   7.293 -0.8215  0.2575  0.3010
  746MOL0     C98402   6.495   8.209   7.154 -0.0855  0.0031 -0.5306
  746MOL0     C98403   6.368   8.284   7.153  0.4246  0.0591 -0.0624
  746MOL0     C98404   6.273   8.352   7.162  0.0112 -0.6597  0.6481
  746MOL0     C98405   7.030   8.276   7.107  0.2201  0.6397 -0.2387
  746MOL0     C98406   7.138   8.294   7.030  0.2748  0.0003  0.7745
  746MOL0     H98407   7.464   8.225   6.669 -1.6522  0.7707 -0.3769
  746MOL0     H98408   7.674   8.304   6.534  2.3245  1.6638 -0.3692
  746MOL0     H98409   7.843   8.533   6.324 -1.2934  2.4650  1.4353
  746MOL0     H98410   7.750   8.400   6.382 -2.6221  2.0932  0.2037
  746MOL0     H98411   8.000   8.339   6.388  0.7764  0.8016 -1.3575
  746MOL0     H98412   7.948   8.368   6.562  0.2887  1.6871  0.1908
  746MOL0     H98413   8.055   8.578   6.561  0.8122 -1.0701  1.5374
  746MOL0     H98414   8.082   8.583   6.399  0.1400  0.7847  2.4439
  746MOL0     H98415   8.191   8.343   6.545  1.5948 -1.6551 -3.3186
  746MOL0     H98416   8.259   8.398   6.397  0.3764 -2.8781  0.9594
  746MOL0     H98417   8.250   8.547   6.658 -1.6276  4.1855 -1.7804
  746MOL0     H98418   8.288   8.628   6.509 -2.0178 -1.2516 -3.1459
  746MOL0     H98419   8.449   8.380   6.598  2.0172 -0.9990  1.4141
  746MOL0     H98420   8.485   8.522   6.678  0.2797 -1.5070 -0.3392
  746MOL0     H98421   8.480   8.472   6.376 -1.1888 -2.7288  4.1198
  746MOL0     H98422   8.481   8.635   6.433 -0.6849 -0.2859 -0.0730
  746MOL0     H98423   8.678   8.408   6.495  3.8007 -0.1584 -0.8670
  746MOL0     H98424   8.697   8.572   6.555 -1.2783 -0.8271  0.5591
  746MOL0     H98425   8.818   8.737   6.340 -2.0483  1.0644 -1.5374
  746MOL0     H98426   9.025   8.746   6.176 -2.8798  0.5274 -0.0730
  746MOL0     H98427   8.981   8.660   6.030  1.2515 -1.8840 -0.4913
  746MOL0     H98428   9.137   8.488   6.097 -0.5384  1.9638 -1.0045
  746MOL0     H98429   9.142   8.541   6.272  0.4525 -1.4353 -0.3332
  746MOL0     H98430   9.249   8.695   6.034 -2.0712  0.8203 -0.2025
  746MOL0     H98431   9.259   8.747   6.202 -1.9892 -1.6200  1.9518
  746MOL0     H98432   9.374   8.467   6.174 -1.5891 -0.1126 -1.1397
  746MOL0     H98433   9.449   8.597   6.250 -1.7682 -1.1889  1.9693
  746MOL0     H98434   9.580   8.635   5.831 -1.1451  1.0053 -0.8302
  746MOL0     H98435   9.685   8.835   5.763  1.3494 -0.7763  0.5331
  746MOL0     H98436   9.697   9.376   6.112  0.2291 -2.8570 -0.6017
  746MOL0     H98437   9.756   9.617   6.051 -1.4339  2.3765 -3.9565
  746MOL0     H98438  10.021   9.758   5.730  0.3161  0.3330  0.1832
  746MOL0     H98439  10.117   9.640   5.830  0.9063  1.0264  3.8359
  746MOL0     H98440  10.122   9.814   6.021  1.9251 -0.9416 -0.9217
  746MOL0     H98441  10.032   9.921   5.924 -0.7166 -1.5375  2.6010
  746MOL0     H98442  10.206   9.918   5.751  0.7269  2.8667  1.3948
  746MOL0     H98443  10.298   9.801   5.826  0.7112 -0.7811  0.2479
  746MOL0     H98444  10.270  10.101   5.878 -1.3838 -0.6593 -0.5297
  746MOL0     H98445  10.299  10.002   6.022  3.7716 -0.0275  0.5370
  746MOL0     H98446  10.483   9.988   5.788 -0.2175 -0.8982 -0.0772
  746MOL0     H98447  10.481   9.879   5.929 -2.4083 -1.2468 -1.2648
  746MOL0     H98448  10.547  10.061   6.076  1.9943  2.8773 -0.1352
  746MOL0     H98449  10.527  10.188   5.962  3.8391  1.5085  1.7259
  746MOL0     H98450  10.703  10.097   5.815  1.5342  1.9451  0.9130
  746MOL0     H98451  10.736  10.164   5.957 -1.2723  2.7438 -4.5543
  746MOL0     H98452  10.877   9.951   5.927  0.5204  0.7970  0.8530
  746MOL0     H98453  10.734   9.870   5.862 -0.2906 -0.5797  1.1412
  746MOL0     H98454  10.010   9.452   5.756  0.6047 -0.0913  1.1223
  746MOL0     H98455   9.917   9.254   5.773  1.0152  2.7831 -2.0699
  746MOL0     H98456   9.661   8.998   6.166  0.7489 -1.0814  1.6039
  746MOL0     H98457   9.546   8.799   6.233 -0.4683  3.2435  0.5377
  746MOL0     H98458   7.661   8.679   6.740 -1.6598  0.4553  1.8982
  746MOL0     H98459   7.477   8.601   6.869 -0.8697  0.2976 -3.0395
  746MOL0     H98460   6.958   8.370   6.742  2.0436  0.0645 -0.5745
  746MOL0     H98461   6.773   8.289   6.889  0.2877 -3.2952 -2.0668
  746MOL0     H98462   6.827   8.255   7.338 -0.3193 -2.3667  1.8109
  746MOL0     H98463   6.886   8.098   7.269  0.0188  0.1308 -1.3222
  746MOL0     H98464   6.680   8.012   7.229 -0.5102 -2.9111  2.4581
  746MOL0     H98465   6.698   8.064   7.400 -0.6832  0.8225  0.4163
  746MOL0     H98466   6.568   8.278   7.346  0.3421  2.2319 -3.1491
  746MOL0     H98467   6.486   8.136   7.362  1.0214  0.1334  2.2311
  746MOL0     H98468   6.568   8.261   7.092  1.7887 -2.6862 -0.7742
  746MOL0     H98469   6.473   8.117   7.099  1.2794 -0.9445  0.4358
  746MOL0     H98470   6.190   8.420   7.161 -1.0070 -1.8785  0.6150
  746MOL0     H98471   7.046   8.256   7.213 -3.7439 -2.7961 -0.0572
  746MOL0     H98472   7.230   8.267   7.081 -1.9766 -1.2629  4.6439
  747MOL0     O98473   9.772   1.931  10.655 -0.4451 -0.5651 -0.0389
  747MOL0     C98474   9.830   1.823  10.648 -0.2211 -0.0343  0.3354
  747MOL0     O98475   9.778   1.699  10.694 -0.5318 -0.3635 -0.1306
  747MOL0     C98476   9.647   1.673  10.717  0.2704 -0.2787  0.3744
  747MOL0     C98477   9.530   1.741  10.661  0.1441 -0.0019  0.7161
  747MOL0     C98478   9.402   1.706  10.701  0.7583  0.9218 -0.2602
  747MOL0     C98479   9.381   1.603  10.802 -0.9267  0.1803  0.1119
  747MOL0     O98480   9.266   1.578  10.868 -0.5962  0.5262  0.3395
  747MOL0     C98481   9.143   1.608  10.795  0.2907 -0.2089 -0.2561
  747MOL0     C98482   9.054   1.603  10.920 -0.2041  0.7215 -0.9910
  747MOL0     C98483   8.908   1.609  10.887  0.1648 -0.2392  0.4129
  747MOL0     C98484   8.803   1.606  11.000  0.1862 -0.0311  0.6241
  747MOL0     C98485   8.661   1.622  10.940  0.3736  0.1057  0.5945
  747MOL0     C98486   8.551   1.570  11.013  0.8289  0.0581 -0.2251
  747MOL0     C98487   8.408   1.629  10.972 -0.2074  0.0705  0.1169
  747MOL0     C98488   8.307   1.543  11.036 -0.2944  0.6624  0.0623
  747MOL0     N98489   8.163   1.588  11.016 -0.0155  0.1679 -0.3124
  747MOL0     C98490   8.109   1.710  11.046 -0.6501 -0.1755 -0.3629
  747MOL0     C98491   7.973   1.689  11.037  0.6276  0.7036  1.0585
  747MOL0     C98492   7.884   1.796  11.085  0.2199  0.0662  0.0914
  747MOL0     C98493   7.732   1.756  11.082 -0.0592 -0.3121 -0.5862
  747MOL0     C98494   7.702   1.693  11.219  0.3323 -0.2701 -1.1602
  747MOL0     C98495   7.553   1.658  11.234 -0.7190 -0.4530  0.5336
  747MOL0     O98496   7.526   1.593  11.359  0.2293 -0.5245 -0.0971
  747MOL0     C98497   7.400   1.538  11.384  0.2132 -0.1645  0.3014
  747MOL0     C98498   7.299   1.529  11.295 -0.0081  0.8671  0.5252
  747MOL0     C98499   7.173   1.482  11.327 -0.6693  0.0456  0.3304
  747MOL0     C98500   7.142   1.452  11.464  0.8146 -0.1755  0.7361
  747MOL0     C98501   7.013   1.388  11.515 -1.0265 -0.0234 -0.8681
  747MOL0     O98502   6.933   1.337  11.417  0.5057  0.4907 -0.2128
  747MOL0     C98503   6.819   1.257  11.437 -0.3862 -0.4413  0.3585
  747MOL0     C98504   6.776   1.194  11.553  0.1949 -0.7373 -0.5082
  747MOL0     C98505   6.662   1.113  11.551  0.1713 -0.6497 -0.3746
  747MOL0     C98506   6.590   1.085  11.432  0.1767  0.4365 -0.3081
  747MOL0     O98507   6.482   0.992  11.430  0.5182 -0.7157 -0.0133
  747MOL0     C98508   6.355   1.050  11.436  0.7703  0.5110  0.2782
  747MOL0     C98509   6.311   1.086  11.584  0.0254  0.1602  0.8452
  747MOL0     C98510   6.343   0.967  11.681 -0.7125 -0.1800 -0.6829
  747MOL0     C98511   6.274   1.009  11.813 -0.2727  0.3844  0.2717
  747MOL0     C98512   6.315   0.916  11.933 -0.3056 -0.8642  0.2359
  747MOL0     C98513   6.265   0.767  11.918  0.2609  0.1918  0.7659
  747MOL0     C98514   6.307   0.666  12.022 -0.0432 -0.0351  0.8418
  747MOL0     C98515   6.386   0.719  12.140 -0.0285 -0.8618 -0.8323
  747MOL0    Cl98516   6.275   0.788  12.257 -0.2573 -0.1256 -0.2410
  747MOL0     C98517   6.639   1.142  11.316 -0.3130 -0.7539 -0.2491
  747MOL0     C98518   6.753   1.222  11.317  0.3777  0.4420 -1.0731
  747MOL0     O98519   6.999   1.373  11.644  0.0304 -0.0451 -0.0489
  747MOL0     C98520   7.247   1.473  11.552  0.8682 -0.0589  0.0219
  747MOL0     C98521   7.376   1.510  11.514  1.3501 -0.2147 -0.0217
  747MOL0     N98522   7.953   1.566  10.973  0.3813  0.5810 -0.3259
  747MOL0     N98523   8.066   1.509  10.958  0.3995  0.2988  0.2777
  747MOL0     C98524   9.495   1.531  10.842 -0.3920 -0.2942 -0.4789
  747MOL0     C98525   9.622   1.567  10.801  0.2250  0.9236  1.6078
  747MOL0     C98526   9.972   1.822  10.600 -0.3605 -0.5821 -0.4262
  747MOL0     C98527  10.041   1.703  10.584 -0.5015 -0.1024  0.2889
  747MOL0     C98528  10.180   1.697  10.574  0.7026 -0.1249 -0.5674
  747MOL0     C98529  10.260   1.805  10.583  0.7570 -0.3023 -1.1349
  747MOL0     O98530  10.397   1.784  10.567  0.0954 -0.4533 -0.1194
  747MOL0     C98531  10.484   1.897  10.563 -0.8040  0.4687  0.4369
  747MOL0     C98532  10.628   1.844  10.535 -0.1884  0.8265  0.1404
  747MOL0     C98533  10.712   1.972  10.541 -0.1353 -0.2937 -0.5076
  747MOL0     C98534  10.849   1.947  10.529  0.3395  0.6431 -0.5066
  747MOL0     C98535  10.922   2.062  10.587 -0.1459 -0.0634  0.0358
  747MOL0     C98536  10.956   2.176  10.616  0.0246  0.2460  0.8861
  747MOL0     C98537  10.198   1.925  10.610 -0.9218  0.7640  0.4493
  747MOL0     C98538  10.057   1.936  10.614  0.1008  0.2338  0.3658
  747MOL0     H98539   9.548   1.822  10.590 -0.9715 -2.9031 -3.2104
  747MOL0     H98540   9.313   1.757  10.664 -2.1349 -1.7636  2.4765
  747MOL0     H98541   9.129   1.522  10.728  2.8882 -0.4395 -0.5748
  747MOL0     H98542   9.145   1.701  10.737  0.2885  0.6874  1.1447
  747MOL0     H98543   9.086   1.682  10.988 -0.1859  0.0776 -0.2349
  747MOL0     H98544   9.072   1.516  10.984  0.1382  0.2701 -1.6894
  747MOL0     H98545   8.902   1.520  10.824  1.6167 -0.6173  0.7837
  747MOL0     H98546   8.890   1.698  10.825  1.3250  0.9349  1.6902
  747MOL0     H98547   8.805   1.502  11.034  3.4704 -0.4911 -0.5870
  747MOL0     H98548   8.818   1.668  11.089 -2.6152  0.8254  0.5862
  747MOL0     H98549   8.654   1.588  10.836 -3.9388  0.6897  0.5196
  747MOL0     H98550   8.633   1.726  10.925 -0.2912 -0.1092  0.3161
  747MOL0     H98551   8.553   1.602  11.117 -1.4199 -0.2556 -0.0270
  747MOL0     H98552   8.554   1.461  11.008  0.6085  0.0415 -0.0112
  747MOL0     H98553   8.406   1.734  11.003 -0.6583 -0.1751  0.9667
  747MOL0     H98554   8.392   1.622  10.864 -0.3910  2.1306 -0.0341
  747MOL0     H98555   8.328   1.538  11.143 -3.0046  2.3653  0.7854
  747MOL0     H98556   8.319   1.447  10.985  1.8431  1.6358 -1.4106
  747MOL0     H98557   8.171   1.787  11.091  1.3179 -2.0454  0.3624
  747MOL0     H98558   7.889   1.874  11.008 -0.1999  0.3802  0.3781
  747MOL0     H98559   7.914   1.836  11.182  0.7942  1.6481 -0.6953
  747MOL0     H98560   7.712   1.682  11.004 -1.0974  0.3999 -1.0117
  747MOL0     H98561   7.674   1.846  11.059  1.9248  0.7220 -1.7774
  747MOL0     H98562   7.774   1.612  11.227  1.2501  0.4642 -1.7386
  747MOL0     H98563   7.726   1.772  11.291 -2.2536  0.8579 -1.4070
  747MOL0     H98564   7.521   1.598  11.148  1.7260 -1.6316  0.3710
  747MOL0     H98565   7.490   1.747  11.221 -0.7524 -0.2524  1.9304
  747MOL0     H98566   7.324   1.558  11.193  0.2502  1.2006  0.6820
  747MOL0     H98567   7.094   1.477  11.253  0.9959  1.3805 -1.6229
  747MOL0     H98568   6.834   1.199  11.645  1.3356 -3.2183 -1.0162
  747MOL0     H98569   6.634   1.052  11.636 -1.4989  1.1563  0.4594
  747MOL0     H98570   6.285   0.975  11.398  2.9565 -1.0793 -0.8092
  747MOL0     H98571   6.351   1.138  11.371  3.4304  2.4176  2.4574
  747MOL0     H98572   6.203   1.100  11.593 -0.3353 -1.4246 -0.5929
  747MOL0     H98573   6.360   1.178  11.618  1.1892 -0.0124 -0.2663
  747MOL0     H98574   6.448   0.942  11.697 -0.3509 -0.0913 -2.6129
  747MOL0     H98575   6.298   0.872  11.652  0.4325 -1.6675  2.0622
  747MOL0     H98576   6.304   1.110  11.843  1.1697 -0.3754  1.5035
  747MOL0     H98577   6.167   1.000  11.790 -0.1881 -1.0317  0.3381
  747MOL0     H98578   6.273   0.966  12.021  3.1412  2.5541  0.2109
  747MOL0     H98579   6.424   0.925  11.932 -0.3502 -0.0657 -1.4201
  747MOL0     H98580   6.308   0.736  11.822  2.5095  2.1225  1.0647
  747MOL0     H98581   6.156   0.766  11.904  0.1363 -0.3983  1.7249
  747MOL0     H98582   6.223   0.612  12.066 -0.6934  0.3246  0.0743
  747MOL0     H98583   6.376   0.599  11.969 -1.0114  0.2611 -0.8496
  747MOL0     H98584   6.469   0.787  12.119  1.3489 -1.7099  1.5044
  747MOL0     H98585   6.435   0.631  12.182  1.2056  0.5515  0.8168
  747MOL0     H98586   6.587   1.109  11.227  0.5295 -2.2738 -0.2182
  747MOL0     H98587   6.789   1.279  11.232  4.8741  1.0973  0.9448
  747MOL0     H98588   7.229   1.458  11.658  1.4617  2.5650  0.5676
  747MOL0     H98589   7.446   1.531  11.594 -0.4411  3.8912  0.7604
  747MOL0     H98590   9.478   1.460  10.923 -1.1289 -0.7331 -1.0118
  747MOL0     H98591   9.712   1.518  10.836 -0.1971 -0.9291  0.2702
  747MOL0     H98592   9.986   1.612  10.562 -0.0692 -0.5120  0.8797
  747MOL0     H98593  10.233   1.603  10.561  1.2275  0.1179 -0.2339
  747MOL0     H98594  10.466   1.958  10.651 -2.0273 -2.9682  2.8114
  747MOL0     H98595  10.445   1.952  10.477 -1.5832  1.6000  1.4788
  747MOL0     H98596  10.659   1.770  10.609  0.3103  0.2746 -0.6074
  747MOL0     H98597  10.655   1.799  10.439 -0.7345 -1.9417  1.2186
  747MOL0     H98598  10.689   2.028  10.631 -1.5921  1.1782 -1.7255
  747MOL0     H98599  10.676   2.031  10.456 -1.0939  0.0419  0.1295
  747MOL0     H98600  10.885   1.855  10.577 -3.8154 -2.0288 -2.0437
  747MOL0     H98601  10.880   1.937  10.425  0.8154  2.3576 -0.5518
  747MOL0     H98602  10.977   2.280  10.634 -0.4570  0.1683  1.9265
  747MOL0     H98603  10.267   2.008  10.622  0.4561 -0.1213 -0.9371
  747MOL0     H98604  10.010   2.033  10.614  1.5371  0.9686 -0.8147
  748MOL0     O98605   4.093   9.917   2.379 -0.3524 -0.5338  0.8869
  748MOL0     C98606   4.161  10.016   2.338 -0.1770  0.5752  0.3074
  748MOL0     O98607   4.109  10.145   2.324  0.1225 -0.5055 -0.3806
  748MOL0     C98608   3.979  10.176   2.350  0.1411 -0.7374 -0.4984
  748MOL0     C98609   3.866  10.107   2.309 -0.4880 -0.0535 -0.6886
  748MOL0     C98610   3.739  10.159   2.325 -0.1199  0.4624 -0.2015
  748MOL0     C98611   3.718  10.291   2.369 -0.1358  0.4608 -1.0024
  748MOL0     O98612   3.586  10.335   2.368 -0.0490 -0.5180 -0.4002
  748MOL0     C98613   3.561  10.441   2.463 -0.2935  0.2754  0.6471
  748MOL0     C98614   3.408  10.487   2.452 -0.6811  0.2087  0.1270
  748MOL0     C98615   3.302  10.380   2.484  0.1871 -0.1724 -0.3789
  748MOL0     C98616   3.169  10.415   2.406 -0.9643  0.3580  0.7080
  748MOL0     C98617   3.085  10.518   2.487 -0.2881 -0.8166 -0.8932
  748MOL0     C98618   2.963  10.559   2.406  0.8411  0.4588  0.3740
  748MOL0     C98619   2.884  10.680   2.460 -0.3228  0.5928  0.0390
  748MOL0     C98620   2.844  10.667   2.613 -0.0049 -0.3594  0.1766
  748MOL0     N98621   2.755  10.554   2.628  0.2920  1.1159 -0.0686
  748MOL0     C98622   2.790  10.424   2.648 -0.3448  0.2332 -0.1346
  748MOL0     C98623   2.681  10.348   2.637 -0.0227 -0.4473 -0.3052
  748MOL0     C98624   2.666  10.203   2.630  0.6496  0.0529  0.0649
  748MOL0     C98625   2.703  10.120   2.757  0.5247 -0.3880 -0.0629
  748MOL0     C98626   2.595  10.143   2.857  0.3716 -0.5308 -0.0139
  748MOL0     C98627   2.602  10.060   2.988 -0.3012 -0.3261  1.1728
  748MOL0     O98628   2.518  10.132   3.083  0.3868  0.4040  0.3382
  748MOL0     C98629   2.400  10.071   3.132 -0.3648 -0.1736  0.0819
  748MOL0     C98630   2.396   9.931   3.163  0.1587 -0.6266  0.3186
  748MOL0     C98631   2.283   9.875   3.213 -0.2701 -0.0098  0.0719
  748MOL0     C98632   2.165   9.948   3.226  0.3426  0.0479 -0.5953
  748MOL0     C98633   2.045   9.877   3.251 -0.0597  0.0409  0.0357
  748MOL0     O98634   2.057   9.753   3.312  0.3130 -0.5480 -0.3979
  748MOL0     C98635   1.964   9.654   3.333  0.4006  0.0208 -0.6905
  748MOL0     C98636   1.836   9.641   3.274 -0.5169  0.9844  0.3008
  748MOL0     C98637   1.752   9.536   3.318  0.6490 -0.7302 -0.7049
  748MOL0     C98638   1.784   9.434   3.412  0.0215  0.0380 -0.8886
  748MOL0     O98639   1.711   9.324   3.441  1.0416  0.1670 -0.6343
  748MOL0     C98640   1.687   9.235   3.343 -0.4130  0.2844  0.6070
  748MOL0     C98641   1.545   9.177   3.358 -0.0381 -0.2548  0.6102
  748MOL0     C98642   1.443   9.291   3.322 -0.3140  0.8072  0.0952
  748MOL0     C98643   1.299   9.234   3.330 -0.2279  0.4263 -0.0488
  748MOL0     C98644   1.196   9.340   3.275 -0.6579 -0.0180  0.3380
  748MOL0     C98645   1.057   9.293   3.260  0.1300 -0.3499  0.2214
  748MOL0     C98646   1.000   9.236   3.392  0.8059 -0.1023 -0.5209
  748MOL0     C98647   0.852   9.212   3.392 -0.1993  0.9007 -0.0682
  748MOL0    Cl98648   0.795   9.180   3.558  0.0044 -0.3020 -0.0148
  748MOL0     C98649   1.905   9.459   3.479 -0.0519  0.3868 -0.3511
  748MOL0     C98650   1.992   9.562   3.437 -0.2592 -0.0286  0.0293
  748MOL0     O98651   1.941   9.937   3.239 -0.9410  0.7961  0.9033
  748MOL0     C98652   2.163  10.091   3.193 -0.6999  0.3667  0.1842
  748MOL0     C98653   2.278  10.151   3.145  0.4783  0.9946  1.2983
  748MOL0     N98654   2.578  10.430   2.618 -0.6177 -0.1481  0.1438
  748MOL0     N98655   2.623  10.559   2.615 -0.0214 -0.0734 -0.5223
  748MOL0     C98656   3.833  10.359   2.417 -0.1836  0.1876 -0.8768
  748MOL0     C98657   3.958  10.303   2.406  0.2541  0.0583 -1.3160
  748MOL0     C98658   4.297   9.999   2.297 -0.2241  0.4668  0.5378
  748MOL0     C98659   4.347   9.861   2.275  0.3206  0.3544 -0.0214
  748MOL0     C98660   4.481   9.857   2.240  0.8413 -0.0731  1.9075
  748MOL0     C98661   4.556   9.970   2.211  0.2287 -0.2147  0.3125
  748MOL0     O98662   4.691   9.972   2.186 -0.3777  0.9255  1.0344
  748MOL0     C98663   4.765   9.846   2.188 -0.4721  0.2702 -0.6844
  748MOL0     C98664   4.907   9.892   2.166  0.0928 -0.2490  0.0680
  748MOL0     C98665   4.989   9.771   2.163 -0.4800  0.3379  0.2903
  748MOL0     C98666   5.140   9.798   2.137  0.1640 -0.1169 -1.0565
  748MOL0     C98667   5.223   9.678   2.140 -1.2333  0.4337 -0.5097
  748MOL0     C98668   5.291   9.575   2.156 -0.3017  0.8357  0.2284
  748MOL0     C98669   4.509  10.096   2.231 -0.1954  0.2615  0.6547
  748MOL0     C98670   4.381  10.113   2.282  0.1745  0.0276 -0.7293
  748MOL0     H98671   3.877  10.005   2.272 -2.2341 -1.4430  2.3083
  748MOL0     H98672   3.650  10.104   2.297 -0.4273  0.1777  1.2640
  748MOL0     H98673   3.622  10.529   2.440 -0.1263  0.2809  1.0805
  748MOL0     H98674   3.583  10.401   2.563  0.1325  0.0068  0.4502
  748MOL0     H98675   3.395  10.515   2.347  5.0074 -2.0782 -1.5808
  748MOL0     H98676   3.390  10.571   2.520  0.5202  0.4695  0.1488
  748MOL0     H98677   3.287  10.369   2.592 -1.2550 -2.7262 -0.7696
  748MOL0     H98678   3.335  10.284   2.444 -0.0030 -0.2171 -0.4236
  748MOL0     H98679   3.182  10.470   2.313 -0.2622 -1.3920 -0.2719
  748MOL0     H98680   3.110  10.324   2.392 -2.8102  1.6599 -0.5406
  748MOL0     H98681   3.145  10.608   2.499 -2.7937  0.6706  1.7032
  748MOL0     H98682   3.083  10.490   2.593  2.7232 -0.5857 -0.6956
  748MOL0     H98683   2.891  10.476   2.409 -1.2966  2.1734 -0.5350
  748MOL0     H98684   2.994  10.578   2.303  2.2351 -2.4539  0.1437
  748MOL0     H98685   2.937  10.771   2.432 -2.0703  1.3338 -1.0437
  748MOL0     H98686   2.790  10.693   2.405 -0.5022 -1.2227 -0.1480
  748MOL0     H98687   2.794  10.755   2.655 -1.8599 -2.3058  2.3407
  748MOL0     H98688   2.937  10.650   2.668  0.5568  0.7997 -0.3926
  748MOL0     H98689   2.885  10.373   2.662  0.9562  1.6185 -3.1022
  748MOL0     H98690   2.728  10.172   2.545 -0.7569  0.2597 -1.0766
  748MOL0     H98691   2.564  10.175   2.600  0.6192  0.9843 -0.7249
  748MOL0     H98692   2.804  10.152   2.785  0.7396 -1.2678  0.2133
  748MOL0     H98693   2.722  10.015   2.732 -0.0654 -0.0259 -2.1799
  748MOL0     H98694   2.585  10.251   2.872 -0.4937 -0.3526 -1.6197
  748MOL0     H98695   2.498  10.116   2.815  0.0178 -1.0264  1.0937
  748MOL0     H98696   2.706  10.052   3.022  0.7508  0.8596 -1.4667
  748MOL0     H98697   2.576   9.956   2.968  1.1344 -0.7362  1.3426
  748MOL0     H98698   2.484   9.867   3.155 -0.3711 -1.3392  0.1713
  748MOL0     H98699   2.294   9.771   3.242 -1.6780 -0.2300 -0.1445
  748MOL0     H98700   1.803   9.722   3.209 -2.7486  1.5508  2.0017
  748MOL0     H98701   1.657   9.527   3.265 -0.2343 -0.4130  0.7600
  748MOL0     H98702   1.767   9.162   3.360 -0.2482  0.3070 -0.0393
  748MOL0     H98703   1.692   9.283   3.244 -0.8798 -3.0169 -1.1806
  748MOL0     H98704   1.535   9.132   3.457  1.7546 -1.4748  0.2791
  748MOL0     H98705   1.543   9.098   3.282  1.0198 -0.5503  0.8670
  748MOL0     H98706   1.467   9.338   3.226  0.3522 -1.4344 -0.9103
  748MOL0     H98707   1.455   9.370   3.397 -0.7402  0.3316  0.6772
  748MOL0     H98708   1.289   9.150   3.260  0.2034  0.3208  0.0113
  748MOL0     H98709   1.276   9.205   3.433 -2.5912  0.9021 -0.3870
  748MOL0     H98710   1.235   9.366   3.175  0.7775 -1.8956  0.3639
  748MOL0     H98711   1.210   9.427   3.340 -0.2769  1.7713 -1.9779
  748MOL0     H98712   1.053   9.209   3.190 -0.0239 -1.6931  1.7765
  748MOL0     H98713   0.992   9.371   3.219  0.6814  2.2763  3.8268
  748MOL0     H98714   1.055   9.149   3.428  2.3244  1.9833  2.6710
  748MOL0     H98715   1.014   9.322   3.458  3.1405 -0.0600 -0.9692
  748MOL0     H98716   0.834   9.121   3.334 -0.8052  0.6709  0.4644
  748MOL0     H98717   0.794   9.296   3.351 -1.7857  0.4061  1.0854
  748MOL0     H98718   1.943   9.390   3.553 -4.9753 -1.5255  0.7633
  748MOL0     H98719   2.075   9.589   3.501 -2.7134  0.3609  3.3212
  748MOL0     H98720   2.069  10.146   3.202 -1.3270 -0.8620  1.8286
  748MOL0     H98721   2.277  10.252   3.106 -0.8514  0.6027  0.2265
  748MOL0     H98722   3.831  10.454   2.469  2.1623 -0.1364 -0.0662
  748MOL0     H98723   4.045  10.343   2.458 -0.0980 -0.8323  0.0095
  748MOL0     H98724   4.283   9.773   2.283  1.6607 -0.5210  1.6630
  748MOL0     H98725   4.519   9.763   2.201  2.6394  2.3070 -2.8669
  748MOL0     H98726   4.736   9.768   2.117 -1.9442  1.9626 -2.0529
  748MOL0     H98727   4.756   9.804   2.288 -1.0534 -0.3688 -1.0012
  748MOL0     H98728   4.919   9.956   2.078 -0.6482  2.4898  1.8482
  748MOL0     H98729   4.944   9.956   2.246  2.5273 -2.5735  0.9560
  748MOL0     H98730   4.941   9.703   2.091  0.2926  0.1965 -0.1083
  748MOL0     H98731   4.966   9.713   2.253  0.8589 -2.3463 -0.9671
  748MOL0     H98732   5.146   9.842   2.037 -1.9953 -2.2662 -2.2336
  748MOL0     H98733   5.172   9.876   2.206 -1.4773  0.5526 -1.0122
  748MOL0     H98734   5.330   9.476   2.168 -1.6894  0.2532  0.0791
  748MOL0     H98735   4.571  10.181   2.203  0.5218 -0.0591  1.2433
  748MOL0     H98736   4.335  10.208   2.308 -0.1267 -0.6602  1.3794
  749MOL0     O98737  11.003   0.507   4.045 -0.2976 -0.4900  0.5566
  749MOL0     C98738  11.052   0.433   4.126  0.4941  0.3053  0.6441
  749MOL0     O98739  10.997   0.313   4.159  0.3883 -1.2914 -0.2695
  749MOL0     C98740  10.895   0.250   4.084 -0.0939 -0.5162  0.1705
  749MOL0     C98741  10.900   0.242   3.942 -0.4302 -0.6390 -0.1175
  749MOL0     C98742  10.795   0.177   3.881 -0.8072  0.2406 -0.4104
  749MOL0     C98743  10.687   0.112   3.951  0.2653  0.3956  0.5103
  749MOL0     O98744  10.583   0.044   3.893  0.2646 -0.5407 -0.0120
  749MOL0     C98745  10.568   0.044   3.756  0.1804 -0.6357  0.3911
  749MOL0     C98746  10.519   0.186   3.718  0.4136  1.1021  0.3980
  749MOL0     C98747  10.466   0.164   3.582  1.1037  0.3609  0.5085
  749MOL0     C98748  10.421   0.286   3.498  0.7153 -0.0474 -0.0305
  749MOL0     C98749  10.396   0.242   3.358  0.4959  0.4640 -0.4045
  749MOL0     C98750  10.515   0.239   3.267 -0.7105 -1.0235  0.2448
  749MOL0     C98751  10.459   0.211   3.125 -0.6330 -0.0965  0.0526
  749MOL0     C98752  10.568   0.248   3.012 -0.3362 -0.0289  0.0586
  749MOL0     N98753  10.684   0.164   3.015 -0.2749 -0.2030  1.0581
  749MOL0     C98754  10.820   0.198   3.023 -0.4809  0.7990 -0.1166
  749MOL0     C98755  10.891   0.084   3.031  0.1476  0.2778 -0.2224
  749MOL0     C98756  11.033   0.058   3.059 -0.7995  0.6965 -0.0777
  749MOL0     C98757  11.130   0.164   3.007  0.5068 -0.3958 -0.3503
  749MOL0     C98758  11.130   0.181   2.860  0.3932 -0.7540  0.5910
  749MOL0     C98759  11.173   0.060   2.776 -0.7209 -0.3815 -0.7969
  749MOL0     O98760  11.181   0.095   2.640  0.1198  0.0533 -0.0322
  749MOL0     C98761  11.299   0.119   2.572 -0.2483  0.3758  0.2156
  749MOL0     C98762  11.425   0.091   2.633 -0.2765 -0.2406  1.0976
  749MOL0     C98763  11.536   0.096   2.551 -1.9892 -0.3043  0.2018
  749MOL0     C98764  11.531   0.142   2.415 -0.8138  0.5465 -0.7581
  749MOL0     C98765  11.652   0.153   2.331  0.4182 -0.5846 -0.3628
  749MOL0     O98766  11.636   0.236   2.225 -0.4921 -0.0726 -0.5205
  749MOL0     C98767  11.708   0.218   2.107  0.4491  0.0891  0.2993
  749MOL0     C98768  11.695   0.321   2.014  0.7586  0.0692  1.4552
  749MOL0     C98769  11.777   0.338   1.894  0.1443  0.8070 -0.3707
  749MOL0     C98770  11.865   0.238   1.860 -0.6354 -0.3804 -0.8070
  749MOL0     O98771  11.950   0.251   1.765 -0.6885 -0.0927  0.1334
  749MOL0     C98772  12.011   0.141   1.698 -0.6203 -0.6275 -0.4642
  749MOL0     C98773  12.153   0.122   1.762 -0.7970 -0.0033  1.0118
  749MOL0     C98774  12.236   0.248   1.760  0.9848  0.2842  0.2664
  749MOL0     C98775  12.376   0.225   1.798  0.2503  0.2391 -0.4698
  749MOL0     C98776  12.471   0.345   1.767  0.2348  0.0887 -0.4001
  749MOL0     C98777  12.616   0.325   1.833 -0.1509  0.9925  0.3416
  749MOL0     C98778  12.708   0.251   1.735  0.4696 -1.3835  0.2003
  749MOL0     C98779  12.837   0.213   1.818 -0.0461  1.1681  0.2513
  749MOL0    Cl98780  12.914   0.349   1.897 -0.5772 -0.0341 -0.1754
  749MOL0     C98781  11.869   0.124   1.949  0.0153  1.0498  0.4572
  749MOL0     C98782  11.789   0.112   2.067  1.1471  0.3558 -1.0773
  749MOL0     O98783  11.759   0.098   2.356 -0.0040 -0.2692  0.5061
  749MOL0     C98784  11.401   0.170   2.359  0.1870  1.8623 -1.0866
  749MOL0     C98785  11.294   0.146   2.440  0.8899 -0.2428 -0.7321
  749MOL0     N98786  10.795  -0.020   3.011 -0.0484  0.1719 -0.1684
  749MOL0     N98787  10.674   0.024   3.014 -0.2641 -0.8895  0.1236
  749MOL0     C98788  10.690   0.124   4.090  0.0450  0.8276  0.2158
  749MOL0     C98789  10.785   0.196   4.162 -0.2453 -0.0828 -0.2521
  749MOL0     C98790  11.180   0.487   4.195 -0.4234  0.1865 -0.6502
  749MOL0     C98791  11.209   0.435   4.321 -0.0092  0.1226 -0.0768
  749MOL0     C98792  11.318   0.487   4.391  0.9595 -0.4334  0.7754
  749MOL0     C98793  11.397   0.586   4.338  0.1372 -0.1584 -0.3908
  749MOL0     O98794  11.509   0.630   4.410  0.2811 -0.8038  0.1216
  749MOL0     C98795  11.634   0.586   4.358  0.6647 -0.0318 -0.9330
  749MOL0     C98796  11.650   0.434   4.344 -0.2547 -0.9632  0.2483
  749MOL0     C98797  11.808   0.399   4.342  0.5854  0.7705 -0.6327
  749MOL0     C98798  11.856   0.371   4.481  0.9550 -0.6529 -0.2722
  749MOL0     C98799  11.799   0.241   4.529  0.8742 -0.8018 -0.2423
  749MOL0     C98800  11.746   0.142   4.578  0.5583 -0.5207 -0.9558
  749MOL0     C98801  11.377   0.632   4.206 -0.1059  0.1626 -0.1836
  749MOL0     C98802  11.267   0.583   4.140 -0.3379 -0.8174 -0.1714
  749MOL0     H98803  10.967   0.286   3.869 -0.5880  3.0605  1.7609
  749MOL0     H98804  10.806   0.179   3.773 -1.1087 -0.3070 -0.4508
  749MOL0     H98805  10.493  -0.031   3.730 -1.9874  2.5306 -3.7831
  749MOL0     H98806  10.659   0.016   3.703 -0.0034 -3.6324  1.4695
  749MOL0     H98807  10.606   0.252   3.710  0.7639  0.4420 -2.3007
  749MOL0     H98808  10.447   0.226   3.789 -3.2840  0.4758 -2.6809
  749MOL0     H98809  10.382   0.094   3.587  0.4411  0.9412 -1.5212
  749MOL0     H98810  10.533   0.099   3.525 -1.3479  0.2125 -2.4638
  749MOL0     H98811  10.323   0.309   3.542  0.3745  0.6537 -1.1173
  749MOL0     H98812  10.493   0.365   3.520  0.8268  0.0486 -0.7179
  749MOL0     H98813  10.329   0.320   3.321 -0.9279 -0.5176 -0.0190
  749MOL0     H98814  10.333   0.153   3.346 -0.5314  0.9756  0.9153
  749MOL0     H98815  10.576   0.158   3.309  0.7467  0.2202  0.6399
  749MOL0     H98816  10.570   0.334   3.258 -2.9212  0.5183  1.8082
  749MOL0     H98817  10.441   0.103   3.125 -0.7157 -0.0862 -0.3860
  749MOL0     H98818  10.371   0.260   3.083  1.5407  2.1636 -2.1544
  749MOL0     H98819  10.611   0.347   3.030  1.1504 -0.4915 -0.8434
  749MOL0     H98820  10.525   0.250   2.911  1.3745  2.6979 -0.7177
  749MOL0     H98821  10.847   0.303   3.035 -0.2114  0.6732  0.4046
  749MOL0     H98822  11.063  -0.037   3.013  0.8919  0.8063  0.6962
  749MOL0     H98823  11.040   0.052   3.168 -0.0865 -0.0319 -0.1482
  749MOL0     H98824  11.229   0.161   3.052  1.6166  1.0248 -2.5389
  749MOL0     H98825  11.087   0.252   3.054 -0.3007 -1.7475  1.5816
  749MOL0     H98826  11.031   0.199   2.817  0.8358 -0.1645 -0.1894
  749MOL0     H98827  11.202   0.258   2.831  0.9441 -1.2748  0.5627
  749MOL0     H98828  11.091  -0.012   2.786 -0.5123 -0.4052  1.3689
  749MOL0     H98829  11.269   0.020   2.810  0.3475  0.2652 -2.8862
  749MOL0     H98830  11.454   0.059   2.732  0.0517 -3.3370  0.0951
  749MOL0     H98831  11.634   0.078   2.594 -1.1445 -0.3247 -1.6443
  749MOL0     H98832  11.623   0.398   2.039 -0.3470 -0.7115  0.7981
  749MOL0     H98833  11.770   0.423   1.826 -0.5246  2.5770  1.7777
  749MOL0     H98834  12.014   0.154   1.590 -2.3663 -2.2332 -0.7465
  749MOL0     H98835  11.959   0.047   1.717 -1.6806  0.0967  0.3195
  749MOL0     H98836  12.206   0.046   1.705 -0.6174 -0.1223  1.3327
  749MOL0     H98837  12.142   0.098   1.868 -0.4329 -0.3810  0.9668
  749MOL0     H98838  12.184   0.327   1.815  0.0228  0.8688 -1.4021
  749MOL0     H98839  12.244   0.271   1.653  1.7319  0.7209  0.4094
  749MOL0     H98840  12.381   0.207   1.906 -0.9352 -1.4721 -0.6542
  749MOL0     H98841  12.401   0.135   1.741 -1.5588 -2.3313  2.4267
  749MOL0     H98842  12.433   0.430   1.824  2.7044  0.0017  1.5605
  749MOL0     H98843  12.465   0.383   1.665 -2.7489  3.4418  0.7987
  749MOL0     H98844  12.602   0.268   1.926  1.8309 -1.9997 -1.0195
  749MOL0     H98845  12.669   0.417   1.861 -0.9383  0.4023  4.4653
  749MOL0     H98846  12.657   0.165   1.691 -1.5562  0.3260 -0.9815
  749MOL0     H98847  12.742   0.313   1.651  5.0396 -4.5586 -0.6942
  749MOL0     H98848  12.900   0.173   1.738 -2.7449  0.7984 -1.8199
  749MOL0     H98849  12.804   0.129   1.880 -2.7768  0.9023 -1.3812
  749MOL0     H98850  11.944   0.047   1.936  0.7603  1.8240  0.0071
  749MOL0     H98851  11.801   0.025   2.131 -5.0203 -1.4551 -1.7050
  749MOL0     H98852  11.388   0.203   2.257  0.2694  0.4852 -1.5635
  749MOL0     H98853  11.199   0.150   2.387 -0.3527 -0.6838  1.3438
  749MOL0     H98854  10.601   0.079   4.133  1.0173 -1.0209  0.3870
  749MOL0     H98855  10.784   0.190   4.270 -4.9756  2.9306  0.1736
  749MOL0     H98856  11.138   0.365   4.364 -1.4778  2.1881  0.9928
  749MOL0     H98857  11.344   0.476   4.495  1.9502  1.2776  0.7391
  749MOL0     H98858  11.711   0.619   4.429 -0.0216 -0.1813 -0.0954
  749MOL0     H98859  11.661   0.630   4.262  3.5675  1.3948  0.4052
  749MOL0     H98860  11.602   0.390   4.431 -0.3226  1.7041  1.6507
  749MOL0     H98861  11.608   0.401   4.248 -0.9351 -2.3303  0.9907
  749MOL0     H98862  11.863   0.481   4.296  0.2955  0.2937 -1.8736
  749MOL0     H98863  11.817   0.309   4.280  0.0148 -0.8663  1.5264
  749MOL0     H98864  11.964   0.371   4.492  1.1454  1.2904 -1.6083
  749MOL0     H98865  11.822   0.454   4.544  5.5170  1.8620 -0.7503
  749MOL0     H98866  11.687   0.059   4.611  0.6591  0.3081  1.5308
  749MOL0     H98867  11.453   0.682   4.146 -0.6084  1.1183 -0.0526
  749MOL0     H98868  11.243   0.619   4.041  2.7859 -1.7101 -1.3648
  750MOL0     O98869   9.150   3.178   6.728 -0.4430  1.6009  0.1587
  750MOL0     C98870   9.147   3.301   6.723 -0.4807 -0.6207  0.2695
  750MOL0     O98871   9.212   3.388   6.818  0.0396 -0.5463 -0.4805
  750MOL0     C98872   9.298   3.339   6.913 -0.8054 -0.1061  0.5067
  750MOL0     C98873   9.427   3.397   6.935 -0.6936  0.8215 -0.5355
  750MOL0     C98874   9.521   3.320   6.998  1.2642 -0.0381 -0.8392
  750MOL0     C98875   9.486   3.204   7.066 -0.0115 -0.5949  0.1937
  750MOL0     O98876   9.582   3.133   7.129  0.0644 -0.0383 -0.6199
  750MOL0     C98877   9.617   3.004   7.072  0.5483  0.5174 -0.6729
  750MOL0     C98878   9.757   3.008   7.008 -0.1269 -0.1065  0.3212
  750MOL0     C98879   9.770   2.886   6.920 -0.5610 -0.7079 -0.1939
  750MOL0     C98880   9.795   2.764   7.015 -0.3574 -0.5340  1.7260
  750MOL0     C98881   9.763   2.634   6.940  0.4851 -1.1499  0.5737
  750MOL0     C98882   9.821   2.514   7.015  1.1858  0.2133  0.0443
  750MOL0     C98883   9.817   2.388   6.925 -0.4446 -1.1056  0.2544
  750MOL0     C98884   9.689   2.300   6.910  0.0980 -0.4873 -0.9897
  750MOL0     N98885   9.676   2.235   6.772 -0.1404 -0.7192  0.5357
  750MOL0     C98886   9.745   2.125   6.726 -0.2003  0.6685  0.3439
  750MOL0     C98887   9.708   2.116   6.596  0.8936 -0.6648  0.3840
  750MOL0     C98888   9.752   2.007   6.501  1.0482  0.7220 -0.6576
  750MOL0     C98889   9.723   1.867   6.547  0.7096  0.1022 -0.4597
  750MOL0     C98890   9.763   1.749   6.455  1.0697  0.7401  0.5902
  750MOL0     C98891   9.692   1.742   6.317  0.1554  0.4174  0.0270
  750MOL0     O98892   9.745   1.626   6.252  0.4233 -0.8685  1.0750
  750MOL0     C98893   9.686   1.506   6.269 -0.0678 -0.4679  0.0557
  750MOL0     C98894   9.755   1.396   6.301  0.1091  1.0476  0.3381
  750MOL0     C98895   9.700   1.265   6.309 -0.4465  0.0303  0.5187
  750MOL0     C98896   9.567   1.243   6.269  0.2651  1.1113 -0.3197
  750MOL0     C98897   9.501   1.108   6.270  0.5089  0.2431 -0.2177
  750MOL0     O98898   9.371   1.108   6.221 -0.4846 -1.1832  0.2511
  750MOL0     C98899   9.292   0.996   6.245  0.4296  0.1895  0.9848
  750MOL0     C98900   9.287   0.942   6.368  0.1971  0.6666 -0.6599
  750MOL0     C98901   9.213   0.821   6.396  0.3355  0.3886 -0.4687
  750MOL0     C98902   9.120   0.773   6.303 -0.3948 -0.3416  0.1009
  750MOL0     O98903   9.036   0.664   6.327 -0.2046 -0.0699 -0.3691
  750MOL0     C98904   9.035   0.609   6.466 -0.4673 -0.7778  0.2258
  750MOL0     C98905   8.909   0.521   6.468 -0.5242  0.5927  0.8337
  750MOL0     C98906   8.770   0.583   6.473 -0.0757 -0.0924  0.2088
  750MOL0     C98907   8.760   0.685   6.589 -0.0377 -0.5710  0.5799
  750MOL0     C98908   8.621   0.693   6.639  0.5782  0.0405 -1.0712
  750MOL0     C98909   8.607   0.770   6.761 -0.6665 -0.4320 -0.0222
  750MOL0     C98910   8.473   0.753   6.829  0.6774 -0.8518 -0.3638
  750MOL0     C98911   8.354   0.819   6.751  0.3388 -1.1644 -0.2588
  750MOL0    Cl98912   8.387   1.002   6.715 -0.8021  0.4833  0.0195
  750MOL0     C98913   9.112   0.834   6.178 -0.0888 -0.2751  0.0827
  750MOL0     C98914   9.200   0.949   6.151  1.2176  0.2082  0.0245
  750MOL0     O98915   9.560   1.019   6.330  0.3726  0.6928  0.2585
  750MOL0     C98916   9.491   1.353   6.229 -0.9710 -0.2377 -0.5120
  750MOL0     C98917   9.549   1.483   6.229  0.1392 -0.8914  0.6245
  750MOL0     N98918   9.623   2.222   6.564  0.3119  0.8912 -0.0630
  750MOL0     N98919   9.612   2.292   6.666 -0.5102  0.1479  0.5412
  750MOL0     C98920   9.365   3.158   7.060  0.6674 -0.0902 -0.0081
  750MOL0     C98921   9.269   3.226   6.990 -0.1610 -0.5545 -0.4548
  750MOL0     C98922   9.051   3.367   6.627  0.2035  0.5348  0.4005
  750MOL0     C98923   9.046   3.326   6.495 -0.5014 -0.2825 -0.4292
  750MOL0     C98924   8.957   3.390   6.416  0.1911  0.1474  0.9562
  750MOL0     C98925   8.857   3.476   6.469 -0.2022 -0.7565 -0.2795
  750MOL0     O98926   8.768   3.538   6.402  0.0987  0.1301  0.8901
  750MOL0     C98927   8.747   3.520   6.267  0.2462 -0.7906  0.8503
  750MOL0     C98928   8.640   3.620   6.228  0.1735  0.8378  0.5954
  750MOL0     C98929   8.501   3.577   6.278  0.2340 -0.1540 -0.1203
  750MOL0     C98930   8.419   3.680   6.341  0.3563 -0.5378 -0.3439
  750MOL0     C98931   8.492   3.754   6.442  0.4249 -0.6278 -0.1034
  750MOL0     C98932   8.535   3.824   6.531  0.1052  0.5040 -0.2226
  750MOL0     C98933   8.855   3.503   6.607  0.2718 -0.6808  0.5203
  750MOL0     C98934   8.957   3.459   6.684 -0.2827  1.0527  0.3156
  750MOL0     H98935   9.462   3.476   6.869  2.0812 -1.0174 -1.4300
  750MOL0     H98936   9.624   3.353   7.004 -0.2794  5.4222  2.8008
  750MOL0     H98937   9.551   2.975   6.990  2.6103  1.6638 -2.8685
  750MOL0     H98938   9.603   2.938   7.158  3.4670  3.3741  2.2855
  750MOL0     H98939   9.836   3.019   7.083  3.8451 -1.0520 -3.3739
  750MOL0     H98940   9.765   3.093   6.939  0.5615 -0.6958 -0.3407
  750MOL0     H98941   9.856   2.908   6.856  0.3370  0.1256  1.2440
  750MOL0     H98942   9.681   2.866   6.860 -1.7444 -1.7292  1.8383
  750MOL0     H98943   9.897   2.769   7.054  0.7778  0.5406 -1.1124
  750MOL0     H98944   9.734   2.775   7.105 -0.1912 -2.7934  2.1842
  750MOL0     H98945   9.803   2.636   6.838  1.1886  0.4018  0.8482
  750MOL0     H98946   9.654   2.626   6.943  0.0172  3.2511  2.7632
  750MOL0     H98947   9.770   2.485   7.107  3.5329 -0.7550  1.1238
  750MOL0     H98948   9.927   2.538   7.028  1.8749 -0.8382 -2.7654
  750MOL0     H98949   9.841   2.427   6.825 -4.5481 -2.5753 -1.5197
  750MOL0     H98950   9.900   2.324   6.957  0.1828 -0.9428 -0.9905
  750MOL0     H98951   9.599   2.360   6.924 -0.3399 -1.3983  0.3672
  750MOL0     H98952   9.688   2.228   6.992  1.1828  1.2314  0.6516
  750MOL0     H98953   9.813   2.059   6.778  2.5609  2.0739 -1.2291
  750MOL0     H98954   9.857   2.015   6.471  1.3531  1.9333  0.6115
  750MOL0     H98955   9.691   2.014   6.411  1.1135 -0.3361 -0.7966
  750MOL0     H98956   9.616   1.857   6.567  0.8445 -1.7689 -0.5267
  750MOL0     H98957   9.784   1.847   6.636 -1.2947 -1.6191  0.6117
  750MOL0     H98958   9.871   1.736   6.446  1.3877  2.0334  2.1150
  750MOL0     H98959   9.718   1.663   6.506 -2.9445  0.2259 -3.2125
  750MOL0     H98960   9.717   1.832   6.262  2.0626  0.9728  1.6994
  750MOL0     H98961   9.583   1.740   6.330  0.2435  0.5530  0.7837
  750MOL0     H98962   9.854   1.428   6.331  2.1912 -2.9763 -1.4686
  750MOL0     H98963   9.766   1.182   6.331 -2.8199 -1.8444  0.8638
  750MOL0     H98964   9.357   0.973   6.446  0.5997  1.7674 -1.4369
  750MOL0     H98965   9.222   0.772   6.493  4.1810 -1.6380 -1.6259
  750MOL0     H98966   9.027   0.682   6.547  0.0447 -1.7117  1.1437
  750MOL0     H98967   9.130   0.554   6.468 -0.8741 -1.5818 -1.1418
  750MOL0     H98968   8.919   0.463   6.561 -3.6994 -0.7286  0.4797
  750MOL0     H98969   8.916   0.456   6.381 -2.3151  1.2613  0.1402
  750MOL0     H98970   8.697   0.503   6.482  0.3072 -0.3921  0.7110
  750MOL0     H98971   8.756   0.627   6.374  1.5768 -0.8491 -0.4021
  750MOL0     H98972   8.824   0.658   6.673  1.0274  0.7799  0.2460
  750MOL0     H98973   8.803   0.779   6.553  3.3241 -1.8700  0.8462
  750MOL0     H98974   8.574   0.595   6.647 -1.7894  0.9004 -3.0728
  750MOL0     H98975   8.553   0.743   6.569 -4.2146 -3.2773  0.6707
  750MOL0     H98976   8.616   0.875   6.732 -1.6152  0.6554  3.2816
  750MOL0     H98977   8.692   0.761   6.830 -2.3305  1.1158  2.3666
  750MOL0     H98978   8.438   0.650   6.833 -1.8277 -0.1448 -1.4726
  750MOL0     H98979   8.477   0.791   6.932 -0.2450 -0.5621 -0.4210
  750MOL0     H98980   8.265   0.802   6.813  0.0546  0.9640 -0.0066
  750MOL0     H98981   8.336   0.772   6.654 -1.9840 -0.4667 -0.2277
  750MOL0     H98982   9.026   0.826   6.112  1.1236 -1.7389 -1.4150
  750MOL0     H98983   9.195   0.982   6.048 -1.4704  0.0022  0.0173
  750MOL0     H98984   9.388   1.354   6.195 -0.5771 -0.9846 -1.8111
  750MOL0     H98985   9.497   1.566   6.184  2.4719  0.0184 -0.5536
  750MOL0     H98986   9.342   3.075   7.126  1.1854  1.6729  2.5098
  750MOL0     H98987   9.168   3.186   6.991 -1.8116  3.1837 -1.0890
  750MOL0     H98988   9.112   3.259   6.440 -3.5795 -1.6113 -2.7835
  750MOL0     H98989   8.957   3.374   6.308 -1.2581 -1.9478  1.1994
  750MOL0     H98990   8.697   3.425   6.245 -3.5755  1.5543 -2.0109
  750MOL0     H98991   8.839   3.520   6.209 -1.2394  1.1311 -1.7463
  750MOL0     H98992   8.663   3.724   6.250 -0.1038  1.0658 -0.1879
  750MOL0     H98993   8.641   3.611   6.119  1.1115  1.7069  0.5245
  750MOL0     H98994   8.511   3.487   6.338 -2.8303  0.2969  1.2489
  750MOL0     H98995   8.450   3.533   6.192 -1.4588  1.1300  0.1724
  750MOL0     H98996   8.373   3.737   6.260 -0.9217 -1.9998 -0.6880
  750MOL0     H98997   8.340   3.625   6.393  1.4416  0.2042  2.2559
  750MOL0     H98998   8.575   3.876   6.616 -3.0524  0.3423  1.5119
  750MOL0     H98999   8.786   3.576   6.649  0.8353 -1.1105  2.2541
  750MOL0     H99000   8.952   3.479   6.791 -0.2797 -0.3862  0.6073
  751MOL0     O99001  11.191  10.568   2.421 -0.9106  0.9313  0.3271
  751MOL0     C99002  11.219  10.611   2.534  0.6435 -0.2307  0.0641
  751MOL0     O99003  11.125  10.656   2.624 -0.1898 -0.1003 -0.5145
  751MOL0     C99004  10.992  10.655   2.585  0.6145  0.6974  0.3785
  751MOL0     C99005  10.913  10.538   2.567  1.0420 -0.2627 -0.4108
  751MOL0     C99006  10.778  10.543   2.515  0.3973 -0.7235 -0.4407
  751MOL0     C99007  10.718  10.671   2.502 -0.1300 -1.2210 -0.4586
  751MOL0     O99008  10.591  10.693   2.470  0.3547 -0.0504  0.2757
  751MOL0     C99009  10.500  10.584   2.481 -0.2023 -1.1860  0.8569
  751MOL0     C99010  10.356  10.626   2.446 -0.7553  0.7354 -0.7144
  751MOL0     C99011  10.266  10.506   2.458 -0.0244 -0.1340  0.1925
  751MOL0     C99012  10.122  10.543   2.432 -0.1644 -0.1081  0.2587
  751MOL0     C99013  10.032  10.461   2.510 -0.5606  0.4781 -0.6667
  751MOL0     C99014  10.028  10.319   2.466  0.1578  0.8068 -0.3306
  751MOL0     C99015   9.910  10.246   2.538 -0.6957  0.2892  0.1640
  751MOL0     C99016   9.913  10.093   2.523 -0.3748 -0.2252  0.6503
  751MOL0     N99017   9.815  10.018   2.609 -0.2476 -0.1969  0.1993
  751MOL0     C99018   9.685  10.024   2.594  0.8944  1.1134  0.1579
  751MOL0     C99019   9.635   9.952   2.692 -0.6965 -1.3607 -0.3959
  751MOL0     C99020   9.493   9.931   2.730 -1.0339 -1.0270 -0.9271
  751MOL0     C99021   9.410   9.848   2.639  0.9332  0.2075  0.3007
  751MOL0     C99022   9.264   9.898   2.647 -0.6586  0.5065 -0.1094
  751MOL0     C99023   9.168   9.805   2.574  0.2112  0.2351 -0.0397
  751MOL0     O99024   9.033   9.854   2.574  0.1543  0.0140 -0.6428
  751MOL0     C99025   8.932   9.772   2.522  1.1100  0.6983  1.0948
  751MOL0     C99026   8.803   9.839   2.480  0.4865  1.3880 -0.3669
  751MOL0     C99027   8.701   9.758   2.430  0.6644 -0.2706  0.8638
  751MOL0     C99028   8.713   9.626   2.400  0.0894  0.0498 -0.6689
  751MOL0     C99029   8.604   9.554   2.333 -0.0579  0.4199  0.4706
  751MOL0     O99030   8.628   9.423   2.307 -0.1628 -0.0242  0.2581
  751MOL0     C99031   8.536   9.337   2.245  0.3734  0.3083 -0.0143
  751MOL0     C99032   8.400   9.357   2.209  0.0533  0.0140 -0.3199
  751MOL0     C99033   8.320   9.254   2.144  0.2958 -1.3075 -0.6034
  751MOL0     C99034   8.383   9.128   2.106 -0.5530  0.0166 -0.3677
  751MOL0     O99035   8.320   9.020   2.053 -0.4070 -0.5050 -0.2957
  751MOL0     C99036   8.188   9.023   1.993 -0.0413  0.0727  1.0816
  751MOL0     C99037   8.145   8.888   1.931  0.1534  0.2985 -0.3288
  751MOL0     C99038   8.000   8.876   1.894 -0.6590  0.5838 -0.6410
  751MOL0     C99039   7.939   8.996   1.819  0.1010  0.0726 -0.3224
  751MOL0     C99040   7.804   8.961   1.748 -0.3012  1.1842  0.0075
  751MOL0     C99041   7.683   8.950   1.842 -0.4035  0.1287 -1.0666
  751MOL0     C99042   7.547   8.908   1.784  0.1909 -0.5196 -0.5133
  751MOL0     C99043   7.531   8.773   1.708 -0.6465  0.1533  0.0268
  751MOL0    Cl99044   7.369   8.733   1.676 -0.0650 -0.3647  0.6031
  751MOL0     C99045   8.518   9.121   2.141  0.7013  0.1202 -0.1123
  751MOL0     C99046   8.589   9.221   2.205  0.1411 -1.1466 -0.1181
  751MOL0     O99047   8.495   9.607   2.317  0.4180  0.0150 -0.1347
  751MOL0     C99048   8.838   9.570   2.441  0.1515  0.7251  0.1937
  751MOL0     C99049   8.941   9.638   2.499 -0.2577  0.5922  0.4428
  751MOL0     N99050   9.738   9.899   2.764 -0.0115  0.8584 -0.9693
  751MOL0     N99051   9.846   9.948   2.722 -0.8494 -0.2681 -0.3427
  751MOL0     C99052  10.797  10.781   2.533 -0.6655  0.4168  0.9813
  751MOL0     C99053  10.930  10.774   2.562  0.0548 -0.1307 -0.4756
  751MOL0     C99054  11.366  10.642   2.563  0.4112  0.6339 -0.2804
  751MOL0     C99055  11.467  10.595   2.482  0.1240 -0.2588  0.7491
  751MOL0     C99056  11.601  10.603   2.500  0.3734 -0.5362 -0.2062
  751MOL0     C99057  11.650  10.676   2.612 -0.5890 -0.0267 -0.2117
  751MOL0     O99058  11.787  10.675   2.623  0.2570  0.2592 -0.2555
  751MOL0     C99059  11.860  10.777   2.691 -0.0807 -1.1715  0.4557
  751MOL0     C99060  11.995  10.731   2.737  0.1730 -0.1492 -0.2279
  751MOL0     C99061  12.083  10.697   2.622  0.8132  0.8971  0.3619
  751MOL0     C99062  12.206  10.618   2.667 -0.0882  0.0843 -0.0938
  751MOL0     C99063  12.293  10.699   2.752 -0.2465 -0.6201 -0.2071
  751MOL0     C99064  12.373  10.762   2.813  1.0505 -0.9954 -0.5245
  751MOL0     C99065  11.555  10.723   2.702  0.1323 -0.0023 -0.7045
  751MOL0     C99066  11.412  10.698   2.687 -0.1104 -0.4546 -0.4645
  751MOL0     H99067  10.968  10.446   2.583  2.0319  0.5067  0.8018
  751MOL0     H99068  10.727  10.447   2.505 -2.1531  0.6325 -1.2105
  751MOL0     H99069  10.489  10.549   2.584 -2.2404  1.7860  1.8037
  751MOL0     H99070  10.534  10.515   2.403  1.8440  0.4337  0.2201
  751MOL0     H99071  10.347  10.659   2.342 -2.7166 -0.6314 -1.0198
  751MOL0     H99072  10.319  10.695   2.523 -2.4212 -1.5088  0.6026
  751MOL0     H99073  10.263  10.463   2.559 -1.9024 -1.3763 -0.3432
  751MOL0     H99074  10.301  10.431   2.386  2.0183  1.7905 -0.9233
  751MOL0     H99075  10.106  10.651   2.442  2.1309  0.5161 -1.6934
  751MOL0     H99076  10.088  10.523   2.330 -1.3150 -0.2181  0.6489
  751MOL0     H99077   9.939  10.518   2.498 -1.8649 -1.2822  0.5184
  751MOL0     H99078  10.056  10.456   2.617 -3.3464  1.0096  0.0889
  751MOL0     H99079  10.131  10.288   2.487 -0.4225  1.5148  5.1335
  751MOL0     H99080  10.017  10.300   2.359 -2.8916 -0.3300  0.0730
  751MOL0     H99081   9.919  10.271   2.644 -0.4282 -0.2695  0.2778
  751MOL0     H99082   9.814  10.272   2.493 -0.6754 -2.5992 -1.8949
  751MOL0     H99083  10.013  10.051   2.539 -1.3504 -2.0734  2.2322
  751MOL0     H99084   9.884  10.063   2.422 -0.3548  2.2947 -0.1994
  751MOL0     H99085   9.628  10.070   2.514  1.0855 -0.5500 -0.9797
  751MOL0     H99086   9.451  10.029   2.706 -1.5038 -0.1562  2.7778
  751MOL0     H99087   9.473   9.892   2.831 -1.7634 -0.6223 -0.9054
  751MOL0     H99088   9.426   9.743   2.664 -0.0942  0.3800  1.8557
  751MOL0     H99089   9.451   9.865   2.539  2.7325  2.0360  1.2676
  751MOL0     H99090   9.245   9.904   2.754  2.2576  2.5874  0.4015
  751MOL0     H99091   9.242   9.992   2.596 -0.3741  0.3570 -0.5147
  751MOL0     H99092   9.169   9.706   2.621 -0.3769 -0.5621 -1.6057
  751MOL0     H99093   9.193   9.787   2.469  1.1775  0.6906  0.0943
  751MOL0     H99094   8.806   9.948   2.478 -1.2789  1.5202  1.0162
  751MOL0     H99095   8.610   9.805   2.395  1.5304  0.1415 -0.9502
  751MOL0     H99096   8.358   9.456   2.224  1.3493  0.6094 -0.4963
  751MOL0     H99097   8.224   9.275   2.098  0.6313  3.5821  0.4539
  751MOL0     H99098   8.187   9.107   1.924  0.0138 -0.9945 -0.2643
  751MOL0     H99099   8.114   9.040   2.073 -2.1674 -3.2142  0.0430
  751MOL0     H99100   8.165   8.802   1.995  0.8622  0.2116 -0.6529
  751MOL0     H99101   8.201   8.875   1.838 -1.7630 -2.7646 -1.1857
  751MOL0     H99102   7.941   8.857   1.984  2.5487 -3.9315  0.8946
  751MOL0     H99103   7.984   8.782   1.841  1.2657 -0.7434  0.9592
  751MOL0     H99104   7.919   9.080   1.886 -0.7247 -0.9213  0.7160
  751MOL0     H99105   8.021   9.012   1.748 -0.2490  0.7852 -0.5750
  751MOL0     H99106   7.822   8.868   1.693  2.8385  1.7322 -0.0949
  751MOL0     H99107   7.789   9.036   1.669  1.3625  0.1387 -1.3819
  751MOL0     H99108   7.675   9.050   1.887  2.3879  1.3779 -3.0154
  751MOL0     H99109   7.692   8.877   1.923 -4.2047  0.7835  0.1439
  751MOL0     H99110   7.477   8.902   1.867  1.1375 -0.6997  0.2917
  751MOL0     H99111   7.511   8.995   1.729 -2.2528 -0.3160  1.2295
  751MOL0     H99112   7.586   8.695   1.761 -0.0488 -0.8274 -1.9375
  751MOL0     H99113   7.577   8.789   1.610 -0.3300  1.7302  0.4125
  751MOL0     H99114   8.569   9.027   2.125 -3.0807 -2.0109 -0.8681
  751MOL0     H99115   8.695   9.209   2.226  0.5066  0.2368 -1.0233
  751MOL0     H99116   8.856   9.464   2.424  1.6853  1.2095 -1.5847
  751MOL0     H99117   9.026   9.575   2.522 -1.7784 -2.3321 -1.3602
  751MOL0     H99118  10.747  10.878   2.535  1.3331  1.4974  0.6122
  751MOL0     H99119  10.982  10.866   2.582  2.5892 -1.5402 -0.1975
  751MOL0     H99120  11.441  10.542   2.391 -1.8450 -0.0968  1.1598
  751MOL0     H99121  11.676  10.555   2.437  1.6785  1.0596  0.0795
  751MOL0     H99122  11.817  10.821   2.781 -1.1641 -2.0526  0.3782
  751MOL0     H99123  11.878  10.854   2.615  0.3266 -1.8116 -0.1141
  751MOL0     H99124  12.041  10.815   2.789 -2.0623  1.0776 -0.1239
  751MOL0     H99125  11.983  10.648   2.809  1.6870 -3.2579 -3.2561
  751MOL0     H99126  12.120  10.785   2.569  2.6112  0.8115  1.3779
  751MOL0     H99127  12.031  10.634   2.549  0.9253  1.5693 -0.3108
  751MOL0     H99128  12.177  10.533   2.730 -0.2950 -1.2463 -1.9052
  751MOL0     H99129  12.253  10.564   2.584 -1.9445 -2.6244  0.4496
  751MOL0     H99130  12.434  10.793   2.896  0.0832 -1.3558  0.3527
  751MOL0     H99131  11.587  10.749   2.802  1.0872 -2.5638 -0.2804
  751MOL0     H99132  11.339  10.707   2.767  1.5759 -1.2546  1.2290
  752MOL0     O99133  10.951   8.801   0.077 -0.5935 -0.4274  0.9292
  752MOL0     C99134  11.068   8.772   0.075  0.3006 -0.1337  0.1281
  752MOL0     O99135  11.166   8.822  -0.011 -0.5244 -0.1572  0.2945
  752MOL0     C99136  11.126   8.885  -0.131 -0.2797  0.2341  0.5404
  752MOL0     C99137  11.022   8.823  -0.212  0.3430 -0.2904  1.2156
  752MOL0     C99138  10.991   8.891  -0.326 -1.6110  1.0306 -0.2346
  752MOL0     C99139  11.051   9.010  -0.371  0.4401  0.0774  1.0924
  752MOL0     O99140  11.020   9.050  -0.495  0.3903 -0.1060 -0.1485
  752MOL0     C99141  11.026   9.189  -0.517 -0.4315 -0.1207 -0.0071
  752MOL0     C99142  10.962   9.220  -0.654 -0.1274  0.0477  1.1517
  752MOL0     C99143  11.048   9.337  -0.722  0.5270 -0.0611 -0.2391
  752MOL0     C99144  11.010   9.473  -0.656 -0.9924 -0.0301 -0.0468
  752MOL0     C99145  10.871   9.525  -0.682  0.0852  0.2104  0.0121
  752MOL0     C99146  10.835   9.675  -0.649  0.2615 -0.0328  0.3254
  752MOL0     C99147  10.932   9.728  -0.549  0.2440 -0.1926  0.0525
  752MOL0     C99148  10.903   9.871  -0.508  0.8287 -0.7152 -0.0058
  752MOL0     N99149  11.016   9.940  -0.457 -0.7410 -1.0217 -0.0946
  752MOL0     C99150  11.099   9.900  -0.355  0.9277  0.0352 -0.1231
  752MOL0     C99151  11.189  10.007  -0.339  0.3265  0.0735  0.9163
  752MOL0     C99152  11.309  10.011  -0.260 -0.0883  0.6016 -0.7009
  752MOL0     C99153  11.298  10.076  -0.120 -0.0855  0.1251 -0.0909
  752MOL0     C99154  11.286   9.976  -0.001  0.3588 -0.3469 -0.0167
  752MOL0     C99155  11.143   9.924   0.010  0.1332  0.3725 -0.2717
  752MOL0     O99156  11.056  10.038   0.024 -0.0347 -0.2319  0.4998
  752MOL0     C99157  11.025  10.093   0.148  0.1256 -0.4117 -0.0291
  752MOL0     C99158  10.933  10.212   0.153 -0.4861 -0.1705  0.2635
  752MOL0     C99159  10.906  10.266   0.276  0.4978  0.0839  0.1552
  752MOL0     C99160  10.968  10.223   0.390  0.0280  1.1059 -0.6922
  752MOL0     C99161  10.958  10.290   0.519 -0.0524  0.1853 -0.0780
  752MOL0     O99162  11.037  10.241   0.626 -0.3759 -0.5595  0.5236
  752MOL0     C99163  11.022  10.305   0.749 -0.3651  0.1636 -0.2183
  752MOL0     C99164  11.126  10.376   0.795 -0.4703  0.1843 -0.2919
  752MOL0     C99165  11.109  10.440   0.923  0.9710 -0.6765 -0.2260
  752MOL0     C99166  10.991  10.443   0.994  0.3545 -0.4955 -0.1727
  752MOL0     O99167  10.970  10.509   1.115  0.3593  1.1926  0.2264
  752MOL0     C99168  11.081  10.552   1.205 -0.2264  0.3224  0.6280
  752MOL0     C99169  11.017  10.581   1.342 -0.1709  0.4172 -0.0757
  752MOL0     C99170  11.124  10.608   1.459  0.3369  0.5580 -0.7142
  752MOL0     C99171  11.202  10.474   1.493 -0.0665 -0.8417 -0.0047
  752MOL0     C99172  11.321  10.484   1.588 -0.2342 -1.1356  0.4899
  752MOL0     C99173  11.427  10.564   1.524  0.1476 -0.0560  1.1027
  752MOL0     C99174  11.566  10.551   1.594  0.8756 -0.3374 -0.2627
  752MOL0     C99175  11.630  10.422   1.642  0.1166  1.4189  0.8119
  752MOL0    Cl99176  11.783  10.438   1.724  0.0730  0.1071  0.0359
  752MOL0     C99177  10.887  10.369   0.943 -0.0054  0.1828 -1.1756
  752MOL0     C99178  10.905  10.303   0.822  0.7489 -0.0524 -0.1150
  752MOL0     O99179  10.867  10.379   0.529 -0.4601  0.3791 -0.7065
  752MOL0     C99180  11.036  10.111   0.382 -0.0763 -0.6124 -0.1108
  752MOL0     C99181  11.079  10.050   0.269  0.2062  0.0485 -0.2359
  752MOL0     N99182  11.163  10.102  -0.439  0.4912  0.8408  0.1999
  752MOL0     N99183  11.064  10.059  -0.514  0.2094  0.4426 -1.0673
  752MOL0     C99184  11.157   9.061  -0.293  0.2532  0.7082  0.0495
  752MOL0     C99185  11.199   8.993  -0.177  0.1247 -0.6082  0.1874
  752MOL0     C99186  11.113   8.709   0.197  0.6307 -0.1321 -0.5690
  752MOL0     C99187  11.039   8.602   0.250  0.3434 -0.9425  0.1071
  752MOL0     C99188  11.079   8.552   0.375  0.1286 -0.6155 -0.1432
  752MOL0     C99189  11.198   8.592   0.435 -0.3582 -0.7826 -0.2594
  752MOL0     O99190  11.240   8.520   0.556  0.6034 -0.0451  0.3240
  752MOL0     C99191  11.145   8.421   0.599 -0.2242  0.3199  0.5384
  752MOL0     C99192  11.198   8.364   0.737 -0.1038 -0.0084  0.3493
  752MOL0     C99193  11.193   8.467   0.846  1.1091  0.1384 -0.7802
  752MOL0     C99194  11.226   8.412   0.986  0.6898  0.2392  0.1514
  752MOL0     C99195  11.359   8.361   0.981 -0.3458 -0.8416 -0.8399
  752MOL0     C99196  11.468   8.310   0.984  0.7017  0.4408 -0.2645
  752MOL0     C99197  11.279   8.692   0.376 -0.5544  0.4152 -0.0325
  752MOL0     C99198  11.235   8.745   0.256 -0.1623 -0.7277  0.1251
  752MOL0     H99199  10.963   8.737  -0.184  1.5184 -1.3205  0.6000
  752MOL0     H99200  10.913   8.862  -0.396  1.1503  1.9717 -4.0671
  752MOL0     H99201  11.132   9.215  -0.518 -0.3240 -0.5465  0.1640
  752MOL0     H99202  10.985   9.255  -0.440  1.8318 -0.9908  2.0636
  752MOL0     H99203  10.860   9.249  -0.628 -0.0927 -0.0064  1.3461
  752MOL0     H99204  10.962   9.133  -0.721 -2.0043  1.6886 -1.1062
  752MOL0     H99205  11.024   9.343  -0.829 -1.1163  2.2926  0.1956
  752MOL0     H99206  11.157   9.333  -0.713  0.5079  2.2277  2.5995
  752MOL0     H99207  11.042   9.467  -0.551 -1.0917  0.7007  0.0329
  752MOL0     H99208  11.075   9.541  -0.713 -1.4687  0.7808  0.3466
  752MOL0     H99209  10.812   9.468  -0.611 -0.2032  1.3768  0.7403
  752MOL0     H99210  10.837   9.505  -0.784 -1.3890  1.9214  0.1277
  752MOL0     H99211  10.734   9.668  -0.607 -0.1227 -0.3977 -0.6154
  752MOL0     H99212  10.834   9.730  -0.744  1.0748  2.1495  1.5155
  752MOL0     H99213  10.929   9.684  -0.449  3.3205  2.0718  1.3330
  752MOL0     H99214  11.037   9.703  -0.571  0.3364 -0.9570  1.2558
  752MOL0     H99215  10.830   9.850  -0.429  1.3688 -1.5464  0.2937
  752MOL0     H99216  10.848   9.931  -0.581 -1.1873 -1.1407  1.0881
  752MOL0     H99217  11.098   9.806  -0.302 -1.9211  0.4959  0.8171
  752MOL0     H99218  11.381  10.079  -0.307  0.3286  1.8626  1.6063
  752MOL0     H99219  11.349   9.911  -0.244 -1.1922  0.2121 -0.2831
  752MOL0     H99220  11.214  10.146  -0.114 -0.2792 -0.1230  0.0829
  752MOL0     H99221  11.393  10.130  -0.110 -0.3929  0.2973  2.3063
  752MOL0     H99222  11.344   9.884  -0.012 -0.9454 -0.9511 -2.4901
  752MOL0     H99223  11.326  10.023   0.089  1.2183 -1.9040  0.4513
  752MOL0     H99224  11.128   9.856   0.095  1.0359  0.5241  0.0218
  752MOL0     H99225  11.111   9.874  -0.082 -2.1205  1.7310 -0.3044
  752MOL0     H99226  10.905  10.252   0.056  2.8964 -1.5793 -1.4750
  752MOL0     H99227  10.832  10.345   0.281  0.7767  0.5722 -2.2687
  752MOL0     H99228  11.219  10.375   0.738 -0.8709  0.3002 -0.9547
  752MOL0     H99229  11.180  10.510   0.965 -3.0102  2.9728  1.0187
  752MOL0     H99230  11.130  10.641   1.165 -2.2754  0.7043 -1.2373
  752MOL0     H99231  11.152  10.471   1.225  0.0914 -0.2506 -2.3377
  752MOL0     H99232  10.965  10.488   1.369  1.5994 -0.3968  0.7492
  752MOL0     H99233  10.948  10.665   1.333 -1.3062 -0.5341 -0.5882
  752MOL0     H99234  11.067  10.644   1.545  0.0547  1.8877 -1.4368
  752MOL0     H99235  11.193  10.685   1.423  0.0930  1.4253  0.5987
  752MOL0     H99236  11.125  10.426   1.555 -1.2282 -2.2904 -2.4276
  752MOL0     H99237  11.228  10.414   1.406  1.3738  0.8240 -0.7924
  752MOL0     H99238  11.355  10.382   1.604  1.2213 -0.2292  4.4008
  752MOL0     H99239  11.299  10.526   1.686  1.8914  1.9541 -0.1937
  752MOL0     H99240  11.406  10.671   1.513 -0.2994 -0.3910 -3.3721
  752MOL0     H99241  11.438  10.529   1.420 -0.6975  0.2310  0.9138
  752MOL0     H99242  11.633  10.591   1.517  0.8870 -0.5716 -0.3763
  752MOL0     H99243  11.579  10.628   1.670 -2.4442  1.6176 -1.4952
  752MOL0     H99244  11.652  10.344   1.568  1.2362  1.1662  1.3955
  752MOL0     H99245  11.556  10.383   1.713  1.0817  0.3933  1.2770
  752MOL0     H99246  10.790  10.367   0.993  0.6857 -0.8579  0.1882
  752MOL0     H99247  10.825  10.236   0.794  0.6426 -0.6932  1.6041
  752MOL0     H99248  11.081  10.072   0.474  1.2487 -0.8571 -0.8310
  752MOL0     H99249  11.151   9.970   0.274  0.2024  0.0860  0.7770
  752MOL0     H99250  11.201   9.158  -0.315 -0.8509  1.1475 -0.2578
  752MOL0     H99251  11.291   9.023  -0.129  0.1609 -0.1270 -0.1763
  752MOL0     H99252  10.960   8.563   0.187  0.6958 -2.0070  0.3067
  752MOL0     H99253  11.030   8.457   0.399 -0.9916 -0.4349 -1.5189
  752MOL0     H99254  11.156   8.337   0.529 -1.7517  0.0697  0.5640
  752MOL0     H99255  11.043   8.457   0.614  0.6332  2.0850  2.6610
  752MOL0     H99256  11.131   8.284   0.771  2.6977 -2.1494  1.2609
  752MOL0     H99257  11.290   8.307   0.719 -2.1380 -3.5698  0.1678
  752MOL0     H99258  11.089   8.501   0.847  0.4930 -1.5454  1.4162
  752MOL0     H99259  11.265   8.549   0.836  2.2843 -0.1596  3.2116
  752MOL0     H99260  11.221   8.496   1.055  0.0371  0.4738 -0.1718
  752MOL0     H99261  11.153   8.340   1.024  1.2787  0.1623  1.1674
  752MOL0     H99262  11.566   8.271   1.005  0.3578  0.0706  0.6656
  752MOL0     H99263  11.364   8.719   0.438 -1.1063 -0.3584  1.1125
  752MOL0     H99264  11.291   8.817   0.197 -0.4965 -2.2964 -2.2532
  753MOL0     O99265   2.991   1.615  11.350 -0.0763  0.3750  0.0593
  753MOL0     C99266   2.868   1.589  11.369 -1.1321 -0.1810 -0.4457
  753MOL0     O99267   2.802   1.586  11.492 -0.5746 -0.5884  1.0017
  753MOL0     C99268   2.876   1.630  11.602  0.6086 -0.1382 -0.6517
  753MOL0     C99269   2.879   1.535  11.704  0.4210 -0.4428 -0.1491
  753MOL0     C99270   2.956   1.563  11.818  0.7426 -0.5184 -0.8061
  753MOL0     C99271   3.010   1.693  11.841  0.3361  0.0253  0.5245
  753MOL0     O99272   3.087   1.723  11.949 -0.1817 -0.0553  0.1564
  753MOL0     C99273   3.035   1.708  12.083 -0.8633  0.7869 -0.6828
  753MOL0     C99274   3.065   1.567  12.138  0.4202 -1.3758 -0.1816
  753MOL0     C99275   3.204   1.527  12.120  0.2533 -0.2850 -0.1460
  753MOL0     C99276   3.243   1.398  12.189 -0.2309 -0.8166 -0.3086
  753MOL0     C99277   3.391   1.366  12.163 -0.2723 -0.0788  0.1307
  753MOL0     C99278   3.450   1.254  12.240 -1.0518 -0.1509 -1.1602
  753MOL0     C99279   3.601   1.270  12.287 -0.6297  0.3238  0.5234
  753MOL0     C99280   3.706   1.263  12.173 -0.6738 -0.1900 -0.1356
  753MOL0     N99281   3.841   1.271  12.238  0.1089 -0.6823  1.0636
  753MOL0     C99282   3.886   1.186  12.330  0.1135  0.6161 -0.3562
  753MOL0     C99283   4.019   1.220  12.352  0.3263  0.6730  0.1104
  753MOL0     C99284   4.125   1.151  12.426  0.6273  0.5120  1.4533
  753MOL0     C99285   4.203   1.047  12.335  0.3976  0.6955 -0.5848
  753MOL0     C99286   4.280   1.118  12.232 -0.9614  0.0485 -0.3240
  753MOL0     C99287   4.390   1.214  12.293  0.2874  0.4709  0.6817
  753MOL0     O99288   4.478   1.249  12.176 -0.3572 -0.3607 -0.2625
  753MOL0     C99289   4.605   1.294  12.195 -0.9521 -0.9223 -0.3152
  753MOL0     C99290   4.686   1.287  12.076  0.5240  0.2697 -1.2254
  753MOL0     C99291   4.821   1.331  12.081  0.6060  0.9387 -0.2793
  753MOL0     C99292   4.874   1.389  12.197  1.1856  0.6450 -0.4522
  753MOL0     C99293   5.014   1.438  12.193  0.6705 -0.3950 -1.0060
  753MOL0     O99294   5.067   1.495  12.311 -0.5535  0.5932 -0.4251
  753MOL0     C99295   5.178   1.569  12.291  0.5353  0.2730  0.3964
  753MOL0     C99296   5.157   1.703  12.313  1.0853 -1.0015  0.8320
  753MOL0     C99297   5.248   1.800  12.304  0.1079  0.3500 -0.0744
  753MOL0     C99298   5.381   1.761  12.271 -1.6627  0.2026 -1.2424
  753MOL0     O99299   5.489   1.859  12.258 -0.6866  1.5235  0.3162
  753MOL0     C99300   5.473   1.990  12.290  0.0689 -0.1640 -0.8204
  753MOL0     C99301   5.604   2.071  12.247  0.4790  0.0978 -0.4116
  753MOL0     C99302   5.721   2.054  12.354 -0.6965  0.7281 -0.0258
  753MOL0     C99303   5.758   1.906  12.396  0.7567 -0.1166 -0.3029
  753MOL0     C99304   5.902   1.907  12.449 -0.5707 -0.8044  0.0619
  753MOL0     C99305   6.015   1.944  12.357 -0.6408 -0.6069 -1.4158
  753MOL0     C99306   6.149   1.912  12.428  0.0081  0.2540 -0.3605
  753MOL0     C99307   6.182   1.761  12.410  1.2787 -1.2528 -1.1182
  753MOL0    Cl99308   6.269   1.729  12.260 -0.3767 -0.1098 -0.6761
  753MOL0     C99309   5.407   1.625  12.259  0.6026  1.0228  1.1790
  753MOL0     C99310   5.310   1.526  12.262 -0.8633  0.6656 -0.5471
  753MOL0     O99311   5.076   1.428  12.093 -0.4391  0.8745 -0.0312
  753MOL0     C99312   4.789   1.401  12.310  0.6371 -0.3846  0.6587
  753MOL0     C99313   4.661   1.353  12.305  0.1278  0.5372  0.3272
  753MOL0     N99314   4.049   1.331  12.290  0.0908 -0.3656  0.6911
  753MOL0     N99315   3.942   1.365  12.222  0.2102 -1.0566  0.1146
  753MOL0     C99316   3.007   1.783  11.731  0.4367 -0.5323  0.3402
  753MOL0     C99317   2.942   1.752  11.616  0.0205 -1.3417  1.1290
  753MOL0     C99318   2.782   1.548  11.256  0.2103 -0.4542 -0.7599
  753MOL0     C99319   2.832   1.523  11.127 -0.5572 -0.0526  0.1483
  753MOL0     C99320   2.754   1.466  11.029 -0.0778 -0.4187  0.2033
  753MOL0     C99321   2.620   1.430  11.058  0.0826  0.6700 -0.8017
  753MOL0     O99322   2.539   1.356  10.971 -0.2182 -0.9542  0.5978
  753MOL0     C99323   2.616   1.264  10.891 -0.5949 -1.3419 -1.0869
  753MOL0     C99324   2.505   1.157  10.871  0.5049  0.9714  0.0503
  753MOL0     C99325   2.454   1.115  11.016  0.3210  0.2529 -0.2390
  753MOL0     C99326   2.449   0.966  11.040 -0.6052  0.5151  0.2591
  753MOL0     C99327   2.343   0.917  10.956  0.0453  0.0956 -0.5194
  753MOL0     C99328   2.266   0.879  10.872  0.5810  0.3482 -0.5210
  753MOL0     C99329   2.574   1.446  11.178  0.3393 -0.4211 -1.2026
  753MOL0     C99330   2.649   1.506  11.274  0.4419 -0.5800  0.7238
  753MOL0     H99331   2.827   1.441  11.691 -1.5804  0.7051 -0.8455
  753MOL0     H99332   2.965   1.487  11.896 -2.0840  0.2185  0.3900
  753MOL0     H99333   2.927   1.726  12.083 -1.2892 -0.0770  4.8833
  753MOL0     H99334   3.087   1.774  12.152 -4.3957  1.2789  1.7771
  753MOL0     H99335   2.994   1.499  12.090  0.1100 -0.0687 -1.6219
  753MOL0     H99336   3.036   1.576  12.243 -3.6929 -3.2233 -0.9413
  753MOL0     H99337   3.259   1.608  12.169  2.2635 -0.2512 -2.2900
  753MOL0     H99338   3.247   1.524  12.020  1.3077  0.6581  0.2529
  753MOL0     H99339   3.210   1.402  12.293 -2.9198 -1.0631 -1.0773
  753MOL0     H99340   3.182   1.325  12.134 -2.2418  1.1663 -0.8578
  753MOL0     H99341   3.449   1.458  12.172 -0.6752  0.1564  0.3801
  753MOL0     H99342   3.401   1.337  12.058  2.6108  2.0271 -0.2966
  753MOL0     H99343   3.441   1.167  12.175  1.1447 -0.5801 -0.9713
  753MOL0     H99344   3.378   1.230  12.319  1.9939 -3.9318  0.8230
  753MOL0     H99345   3.612   1.369  12.333  1.6755  0.4494 -0.1921
  753MOL0     H99346   3.631   1.189  12.354 -0.7218 -0.2355 -0.1053
  753MOL0     H99347   3.680   1.350  12.112  0.7652 -1.2343 -2.4058
  753MOL0     H99348   3.698   1.175  12.109  0.6261 -0.9004  0.6337
  753MOL0     H99349   3.835   1.099  12.370 -0.4833  0.5142 -1.2983
  753MOL0     H99350   4.062   1.095  12.496  1.3122 -3.3341 -0.7219
  753MOL0     H99351   4.187   1.218  12.486 -0.7096  4.5022 -1.2083
  753MOL0     H99352   4.129   0.977  12.296 -1.7527  0.1144  3.8997
  753MOL0     H99353   4.256   0.984  12.407  0.1805  0.5593 -0.5446
  753MOL0     H99354   4.329   1.046  12.165  2.5198  0.4893  1.4890
  753MOL0     H99355   4.213   1.183  12.175 -0.7470 -1.8835 -2.9667
  753MOL0     H99356   4.441   1.154  12.370  0.3073 -2.6929 -1.5939
  753MOL0     H99357   4.342   1.304  12.332  1.2236  2.3740 -2.2202
  753MOL0     H99358   4.654   1.233  11.987  1.1163 -1.8968 -0.1906
  753MOL0     H99359   4.872   1.318  11.986 -0.4844  1.6450 -0.9850
  753MOL0     H99360   5.057   1.736  12.339 -0.1582 -2.0618 -2.0667
  753MOL0     H99361   5.221   1.905  12.311  2.3893  0.8975  1.9579
  753MOL0     H99362   5.449   2.007  12.396  0.6429  2.7911 -1.0672
  753MOL0     H99363   5.393   2.034  12.230 -1.9130  1.4759  2.7097
  753MOL0     H99364   5.587   2.178  12.231 -3.1682 -0.4464 -1.1410
  753MOL0     H99365   5.623   2.039  12.144 -0.9179 -1.1657 -0.3122
  753MOL0     H99366   5.704   2.115  12.443 -2.3380 -0.8540  0.8123
  753MOL0     H99367   5.804   2.107  12.306  1.1258 -0.7187  1.3748
  753MOL0     H99368   5.683   1.878  12.470  0.0780 -0.7178 -1.1888
  753MOL0     H99369   5.753   1.836  12.312 -0.9135  0.0025 -0.3261
  753MOL0     H99370   5.911   1.808  12.495 -2.3415  0.4260  3.4373
  753MOL0     H99371   5.903   1.985  12.526 -0.3096 -1.3848  0.6499
  753MOL0     H99372   6.009   2.050  12.331 -3.4998 -0.8050 -1.8764
  753MOL0     H99373   6.022   1.878  12.270  0.9905 -2.0807 -0.2340
  753MOL0     H99374   6.230   1.969  12.380 -1.0691  2.0484 -0.1238
  753MOL0     H99375   6.141   1.934  12.535 -2.1809  3.9194 -1.1196
  753MOL0     H99376   6.091   1.702  12.398  0.2143 -0.1032  0.7716
  753MOL0     H99377   6.244   1.722  12.492  1.9090 -0.3017 -1.1292
  753MOL0     H99378   5.508   1.586  12.249 -0.4555 -1.2863 -2.9895
  753MOL0     H99379   5.338   1.421  12.265 -2.1343  0.3433  0.7266
  753MOL0     H99380   4.819   1.465  12.393  2.7326 -1.1979  0.5785
  753MOL0     H99381   4.595   1.357  12.391  0.8551 -0.3364  0.9372
  753MOL0     H99382   3.072   1.870  11.734  0.9683 -0.8467 -1.0770
  753MOL0     H99383   2.940   1.831  11.541  0.3893 -3.7366 -1.6239
  753MOL0     H99384   2.931   1.554  11.095 -0.5274 -0.6019 -0.2991
  753MOL0     H99385   2.792   1.459  10.928 -0.3311  2.4058 -0.1877
  753MOL0     H99386   2.710   1.233  10.936 -0.8649 -1.1641 -0.3892
  753MOL0     H99387   2.634   1.315  10.796  1.1272  3.3994  1.4399
  753MOL0     H99388   2.433   1.196  10.799  0.6867 -2.5674 -2.2995
  753MOL0     H99389   2.541   1.071  10.815  0.5230 -0.0127  1.5029
  753MOL0     H99390   2.359   1.164  11.038  0.2756  0.3907 -0.7139
  753MOL0     H99391   2.523   1.156  11.091 -0.4875  4.0486 -1.3607
  753MOL0     H99392   2.542   0.923  11.004 -0.7610 -1.3869  1.9538
  753MOL0     H99393   2.427   0.956  11.147  0.0101  3.5915  0.7955
  753MOL0     H99394   2.182   0.857  10.809 -1.2236  1.4104  1.4028
  753MOL0     H99395   2.475   1.410  11.205 -0.9316  2.0419 -2.2842
  753MOL0     H99396   2.601   1.519  11.370 -1.5606  1.7403 -0.4732
  754MOL0     O99397   9.626   7.500   8.679 -0.0243 -0.1616 -0.1375
  754MOL0     C99398   9.730   7.470   8.622 -0.6666  0.5058 -0.5401
  754MOL0     O99399   9.858   7.467   8.678  0.3122  0.5884 -0.6489
  754MOL0     C99400   9.861   7.491   8.813  0.1369 -0.0011 -0.2616
  754MOL0     C99401   9.849   7.387   8.901  0.6021 -0.0014 -0.3085
  754MOL0     C99402   9.859   7.395   9.039  0.3540 -0.7756 -0.1427
  754MOL0     C99403   9.872   7.521   9.092 -0.4161  0.6380 -1.1339
  754MOL0     O99404   9.889   7.543   9.226 -0.5531 -0.6159 -0.5605
  754MOL0     C99405   9.980   7.650   9.269 -0.4207 -0.3022  0.6590
  754MOL0     C99406  10.010   7.628   9.413  0.0832  0.3299 -0.2830
  754MOL0     C99407  10.125   7.718   9.455  0.2730  0.2764 -0.9920
  754MOL0     C99408  10.264   7.659   9.429  0.2586  0.6254 -0.0604
  754MOL0     C99409  10.365   7.764   9.466 -0.5923  0.8906  0.1524
  754MOL0     C99410  10.501   7.736   9.406  0.1730 -0.2962  0.3663
  754MOL0     C99411  10.557   7.595   9.430 -0.9867 -0.1105  0.1591
  754MOL0     C99412  10.698   7.569   9.382  0.4620  0.9321 -0.2836
  754MOL0     N99413  10.710   7.615   9.243  0.2896  0.2410 -0.9610
  754MOL0     C99414  10.709   7.530   9.139 -0.1899 -0.0044 -0.3296
  754MOL0     C99415  10.716   7.613   9.031  0.2883 -0.6662  0.0894
  754MOL0     C99416  10.721   7.574   8.882  0.1138  0.3496 -0.2535
  754MOL0     C99417  10.678   7.684   8.795  0.0830  1.1759  0.0104
  754MOL0     C99418  10.728   7.655   8.653 -0.4301 -1.5373 -0.4303
  754MOL0     C99419  10.660   7.744   8.537  0.5425 -0.0063 -0.1587
  754MOL0     O99420  10.735   7.712   8.410  0.2569 -0.2340  0.5212
  754MOL0     C99421  10.711   7.773   8.295 -0.9805  0.0628  0.5067
  754MOL0     C99422  10.617   7.870   8.277 -0.9328 -0.5435 -0.3277
  754MOL0     C99423  10.580   7.919   8.153  0.3496 -0.8797 -0.6863
  754MOL0     C99424  10.651   7.891   8.038  0.1500  0.4646 -0.4066
  754MOL0     C99425  10.622   7.948   7.906 -0.3463 -0.5262  0.5676
  754MOL0     O99426  10.732   7.940   7.814  0.0134  0.5103 -0.0737
  754MOL0     C99427  10.726   7.999   7.691 -0.3474 -0.3157 -0.5854
  754MOL0     C99428  10.681   8.127   7.667 -1.1568 -0.3771 -0.2308
  754MOL0     C99429  10.673   8.190   7.545 -0.2616  0.6189 -0.7707
  754MOL0     C99430  10.717   8.114   7.439  0.3950  0.8470 -0.0667
  754MOL0     O99431  10.697   8.150   7.306  0.5081  0.2121  0.1750
  754MOL0     C99432  10.624   8.265   7.267  0.0689 -0.5536  0.8372
  754MOL0     C99433  10.615   8.289   7.118  0.0967  0.1618 -0.1801
  754MOL0     C99434  10.516   8.402   7.084  0.1032 -0.2264 -0.9837
  754MOL0     C99435  10.545   8.541   7.148 -0.2768 -0.7323 -0.9331
  754MOL0     C99436  10.420   8.622   7.181 -0.0573  0.5197 -0.7811
  754MOL0     C99437  10.357   8.660   7.049  0.2281 -1.0981 -0.1945
  754MOL0     C99438  10.421   8.773   6.967 -0.8461 -0.3623 -0.0364
  754MOL0     C99439  10.456   8.728   6.829 -0.7734  0.2677  0.4958
  754MOL0    Cl99440  10.551   8.845   6.730  0.2924 -0.1751  0.3250
  754MOL0     C99441  10.762   7.986   7.459 -0.4388  1.3643  0.2383
  754MOL0     C99442  10.783   7.934   7.588 -0.3414  0.3753  0.2304
  754MOL0     O99443  10.517   8.005   7.882 -0.0470  0.0456 -0.5849
  754MOL0     C99444  10.754   7.797   8.057 -0.1906 -0.1901 -0.4599
  754MOL0     C99445  10.782   7.738   8.184  1.0784  0.9005 -0.2404
  754MOL0     N99446  10.742   7.742   9.072  0.7530  0.3419 -0.2131
  754MOL0     N99447  10.736   7.742   9.198  0.0411 -0.5717  0.2964
  754MOL0     C99448   9.890   7.633   9.004 -0.4242  0.0632 -0.4622
  754MOL0     C99449   9.882   7.622   8.866 -0.3488  0.7697 -0.8652
  754MOL0     C99450   9.729   7.451   8.472  1.1026 -1.5243 -0.3418
  754MOL0     C99451   9.611   7.461   8.396  0.2298 -0.3427  0.0791
  754MOL0     C99452   9.615   7.443   8.261  0.5007  0.2855  0.0026
  754MOL0     C99453   9.733   7.412   8.189  0.2618  0.8235  0.1625
  754MOL0     O99454   9.732   7.376   8.053 -0.7152 -0.0487  0.8585
  754MOL0     C99455   9.607   7.356   7.979 -0.4257 -0.2742  0.1446
  754MOL0     C99456   9.538   7.496   7.918 -0.1664  0.6025 -0.6774
  754MOL0     C99457   9.624   7.551   7.802 -0.5901 -0.8502 -0.1865
  754MOL0     C99458   9.550   7.670   7.733 -0.1486  0.0418 -0.0519
  754MOL0     C99459   9.531   7.647   7.590 -0.1647  0.8679 -0.0134
  754MOL0     C99460   9.532   7.605   7.475 -0.1525  0.0613  0.3217
  754MOL0     C99461   9.856   7.420   8.260 -0.2238  0.3651  0.0080
  754MOL0     C99462   9.850   7.433   8.401 -0.6250 -1.4232 -0.3303
  754MOL0     H99463   9.838   7.289   8.856  0.0821  0.8032 -2.0293
  754MOL0     H99464   9.846   7.308   9.103  1.9785 -0.5014  0.5836
  754MOL0     H99465   9.931   7.745   9.248  0.8101  0.2218  0.0344
  754MOL0     H99466  10.081   7.647   9.227 -0.8362 -3.8091 -0.4068
  754MOL0     H99467  10.041   7.524   9.427  0.6770  0.7233  1.4973
  754MOL0     H99468   9.911   7.644   9.457 -0.5808 -0.7342 -1.3296
  754MOL0     H99469  10.103   7.732   9.561  0.6591  0.9017 -0.9858
  754MOL0     H99470  10.114   7.815   9.405  1.7235  1.5849  1.0675
  754MOL0     H99471  10.279   7.565   9.482 -1.0992  0.6344  0.3726
  754MOL0     H99472  10.269   7.643   9.321 -2.4975  1.1666 -0.3315
  754MOL0     H99473  10.373   7.760   9.575 -1.3654  2.1744  0.2786
  754MOL0     H99474  10.319   7.860   9.439 -0.3419  0.5604 -1.5657
  754MOL0     H99475  10.578   7.807   9.435 -1.3730  1.9198 -0.6621
  754MOL0     H99476  10.488   7.750   9.298  2.1272 -1.3186 -0.0352
  754MOL0     H99477  10.547   7.577   9.538 -1.8543  2.7130  0.6232
  754MOL0     H99478  10.494   7.518   9.384 -0.9344  0.6116 -1.1636
  754MOL0     H99479  10.718   7.462   9.389  1.4132  1.1588  0.9302
  754MOL0     H99480  10.767   7.623   9.449  0.2246  0.7526  0.1114
  754MOL0     H99481  10.698   7.422   9.148 -2.4660  0.3349  1.9458
  754MOL0     H99482  10.661   7.484   8.865  0.9542 -0.0761 -1.0755
  754MOL0     H99483  10.821   7.538   8.852  0.2227 -1.1430  1.6838
  754MOL0     H99484  10.705   7.787   8.820  0.6049  0.9522  0.3871
  754MOL0     H99485  10.569   7.676   8.788  0.2549 -0.9767 -0.9773
  754MOL0     H99486  10.835   7.675   8.648 -0.9667  1.6502 -1.9042
  754MOL0     H99487  10.700   7.553   8.625 -1.2709 -1.3342 -0.3763
  754MOL0     H99488  10.675   7.850   8.560  0.2875 -0.5920  3.2565
  754MOL0     H99489  10.552   7.730   8.527  0.2396  1.3424  0.9142
  754MOL0     H99490  10.559   7.901   8.363  0.3489 -3.5396  1.7827
  754MOL0     H99491  10.497   7.988   8.146  1.9095  1.0567 -1.1399
  754MOL0     H99492  10.648   8.183   7.755  0.2294  0.5084 -0.2476
  754MOL0     H99493  10.615   8.282   7.537  0.1214  1.0779  1.2743
  754MOL0     H99494  10.676   8.351   7.308  1.5317 -1.1702  0.3570
  754MOL0     H99495  10.526   8.254   7.313 -0.8554  0.8125 -0.6967
  754MOL0     H99496  10.590   8.197   7.065  2.4540  0.3759 -1.8516
  754MOL0     H99497  10.715   8.323   7.087  1.0205  3.0024  4.7385
  754MOL0     H99498  10.417   8.369   7.117  0.3104 -2.4554 -2.4147
  754MOL0     H99499  10.515   8.426   6.978  2.1951  4.1740 -0.2483
  754MOL0     H99500  10.603   8.536   7.240 -0.3375  0.4399 -0.8185
  754MOL0     H99501  10.604   8.604   7.081 -0.5506  1.9051  1.1626
  754MOL0     H99502  10.455   8.716   7.225  0.1474 -0.0820  0.3833
  754MOL0     H99503  10.345   8.590   7.254 -0.8792  1.5603 -1.1352
  754MOL0     H99504  10.253   8.690   7.063  0.0468 -1.4524 -0.7287
  754MOL0     H99505  10.349   8.570   6.988  2.0042 -0.3418 -1.6540
  754MOL0     H99506  10.346   8.851   6.955  3.3236  3.7211 -3.4363
  754MOL0     H99507  10.510   8.823   7.006 -0.1351 -2.2759  0.9156
  754MOL0     H99508  10.370   8.693   6.770  0.0891  1.4855 -1.5905
  754MOL0     H99509  10.525   8.643   6.833  0.0212  0.6158 -2.8372
  754MOL0     H99510  10.803   7.923   7.380 -0.4983  1.1325  0.3916
  754MOL0     H99511  10.817   7.831   7.598 -1.5384 -0.2492 -1.6188
  754MOL0     H99512  10.817   7.765   7.974  1.1039 -0.4604  0.5839
  754MOL0     H99513  10.853   7.657   8.202  1.3811  1.4257  1.0604
  754MOL0     H99514   9.906   7.732   9.044  0.0290  0.2421 -1.0770
  754MOL0     H99515   9.908   7.710   8.808 -0.8035  2.5620  1.5001
  754MOL0     H99516   9.511   7.478   8.436  0.0847  1.4782 -0.9254
  754MOL0     H99517   9.525   7.456   8.201  0.0185  4.8372  1.3003
  754MOL0     H99518   9.531   7.308   8.041 -1.4108  0.9778 -0.0459
  754MOL0     H99519   9.623   7.283   7.899  3.3047 -1.8364  2.0323
  754MOL0     H99520   9.442   7.473   7.872 -1.4116  1.3647  1.4118
  754MOL0     H99521   9.521   7.561   8.004  3.1445  1.1625 -0.2809
  754MOL0     H99522   9.650   7.472   7.731  0.0540 -1.3943  0.6413
  754MOL0     H99523   9.709   7.608   7.842 -0.5640 -0.3573 -0.9198
  754MOL0     H99524   9.455   7.676   7.785 -0.6780 -4.2980 -0.1636
  754MOL0     H99525   9.600   7.766   7.751  0.4019  0.5328 -3.4018
  754MOL0     H99526   9.518   7.574   7.373 -4.5932 -0.1008  0.7896
  754MOL0     H99527   9.957   7.420   8.220 -1.0432  0.1491 -2.2135
  754MOL0     H99528   9.947   7.451   8.446 -1.3481  1.2915  0.3618
  755MOL0     O99529   3.580  10.546  10.055  0.1887  0.1632  0.3981
  755MOL0     C99530   3.587  10.664  10.095 -0.6515  0.3364 -0.0939
  755MOL0     O99531   3.487  10.735  10.139 -0.4005 -0.6580  0.6035
  755MOL0     C99532   3.370  10.668  10.156 -0.1468  0.4248 -0.2363
  755MOL0     C99533   3.281  10.658  10.044  0.0458  0.7461 -0.6975
  755MOL0     C99534   3.150  10.602  10.053 -0.9564  0.4835  0.3237
  755MOL0     C99535   3.119  10.553  10.182  0.7810 -0.0990 -0.7993
  755MOL0     O99536   2.996  10.514  10.214  0.0180  0.0860  0.2496
  755MOL0     C99537   2.911  10.455  10.108  0.2271 -0.7001 -0.2157
  755MOL0     C99538   2.766  10.464  10.157 -0.7515  0.5830 -0.2248
  755MOL0     C99539   2.666  10.380  10.069  0.8968 -1.0610  0.1845
  755MOL0     C99540   2.526  10.444  10.053 -0.7450  1.1451  0.3690
  755MOL0     C99541   2.428  10.447  10.172  0.3806  0.3711 -0.1755
  755MOL0     C99542   2.392  10.310  10.226  0.2481 -0.5493  0.4353
  755MOL0     C99543   2.290  10.341  10.339  0.3033 -0.4901 -0.0240
  755MOL0     C99544   2.215  10.213  10.370  0.7393 -0.4357 -0.5455
  755MOL0     N99545   2.155  10.233  10.505 -0.2725  0.5465 -0.6096
  755MOL0     C99546   2.024  10.206  10.539 -0.5670 -0.6863  0.5266
  755MOL0     C99547   2.025  10.202  10.670  0.0189  0.1518  0.6825
  755MOL0     C99548   1.911  10.164  10.759  0.7290  0.1592  0.2386
  755MOL0     C99549   1.889  10.015  10.781  0.1825 -0.2504  0.6541
  755MOL0     C99550   1.850   9.948  10.652  0.4960 -0.3815  0.2554
  755MOL0     C99551   1.784   9.804  10.683 -0.0673  0.0204  0.3681
  755MOL0     O99552   1.679   9.774  10.578  0.0700  0.1923  0.0755
  755MOL0     C99553   1.559   9.842  10.594 -0.5032 -0.1954  0.9042
  755MOL0     C99554   1.489   9.856  10.709  0.1833  0.5405  0.5568
  755MOL0     C99555   1.388   9.956  10.714 -0.2316 -0.0984  0.3543
  755MOL0     C99556   1.356  10.041  10.607  0.2341 -0.7921 -0.5511
  755MOL0     C99557   1.250  10.134  10.616  1.1379 -0.8152 -0.7196
  755MOL0     O99558   1.233  10.186  10.746  0.2394  0.7898  1.2416
  755MOL0     C99559   1.155  10.305  10.771  1.2172 -0.6788 -0.1056
  755MOL0     C99560   1.084  10.385  10.676 -0.2698 -0.2545 -0.0049
  755MOL0     C99561   0.993  10.487  10.707 -0.2540 -0.4479 -0.2280
  755MOL0     C99562   0.988  10.519  10.844 -0.2929  0.3593  0.5306
  755MOL0     O99563   0.902  10.614  10.888 -0.0353 -0.0203 -0.2765
  755MOL0     C99564   0.864  10.727  10.816 -0.3410 -0.1067  0.6883
  755MOL0     C99565   0.971  10.827  10.779  0.2505 -0.0202  0.1905
  755MOL0     C99566   0.911  10.954  10.723 -0.2886  0.1738 -0.5929
  755MOL0     C99567   1.017  11.064  10.680 -0.0302 -0.1775 -0.1967
  755MOL0     C99568   1.100  11.121  10.794  0.2280 -1.3756 -0.4730
  755MOL0     C99569   1.019  11.199  10.900 -0.1973 -0.2721  0.4778
  755MOL0     C99570   1.126  11.294  10.975 -0.0987  0.3488 -0.5415
  755MOL0     C99571   1.175  11.231  11.100 -0.3903 -1.0415 -0.1411
  755MOL0    Cl99572   1.031  11.206  11.217 -0.3028 -0.0835 -0.2065
  755MOL0     C99573   1.051  10.450  10.945  0.5104  0.2650  0.0219
  755MOL0     C99574   1.136  10.346  10.908  0.2549 -0.5113 -0.3610
  755MOL0     O99575   1.194  10.173  10.513  0.3676  0.0291  0.1353
  755MOL0     C99576   1.420  10.011  10.486 -0.3916  0.0949 -0.6066
  755MOL0     C99577   1.529   9.921  10.477 -0.6524 -0.0145 -0.2639
  755MOL0     N99578   2.153  10.229  10.716 -0.1909  1.0986  0.2000
  755MOL0     N99579   2.234  10.259  10.619  0.4619  0.9383 -0.7041
  755MOL0     C99580   3.204  10.565  10.290 -0.0423 -0.1912 -0.3892
  755MOL0     C99581   3.327  10.622  10.279 -1.0708  1.1007 -0.4077
  755MOL0     C99582   3.724  10.735  10.098 -0.7608  0.1484 -0.1207
  755MOL0     C99583   3.739  10.868  10.103 -0.0020  0.4760  0.2196
  755MOL0     C99584   3.860  10.942  10.133 -0.2841 -0.4972  0.0893
  755MOL0     C99585   3.974  10.874  10.150  0.4952 -0.2802  1.1685
  755MOL0     O99586   4.087  10.950  10.160  0.7995  0.6076  0.2472
  755MOL0     C99587   4.223  10.892  10.139  0.0191 -0.1820 -0.0364
  755MOL0     C99588   4.330  11.004  10.182  0.7723 -0.6332  0.3015
  755MOL0     C99589   4.335  11.020  10.341 -1.2962  0.3845 -0.3069
  755MOL0     C99590   4.480  11.065  10.393 -0.5095  0.6381  0.0298
  755MOL0     C99591   4.603  10.987  10.350  0.3987  0.8004  0.5092
  755MOL0     C99592   4.707  10.941  10.311  0.0074 -0.7300 -0.9575
  755MOL0     C99593   3.967  10.729  10.141 -0.5367 -0.5173  0.4380
  755MOL0     C99594   3.851  10.663  10.113 -0.0828  0.3827 -0.2059
  755MOL0     H99595   3.317  10.704   9.953  1.4733  0.3092 -0.3797
  755MOL0     H99596   3.091  10.618   9.964 -0.6458  0.2625  0.0777
  755MOL0     H99597   2.924  10.348  10.094  0.7345 -0.4649 -1.7816
  755MOL0     H99598   2.922  10.500  10.009 -0.0090 -0.7561 -0.2677
  755MOL0     H99599   2.742  10.570  10.142  1.3103  0.9892 -0.9353
  755MOL0     H99600   2.752  10.431  10.260  0.3555  2.8752  0.7469
  755MOL0     H99601   2.660  10.281  10.115 -2.2867 -0.6868  0.7845
  755MOL0     H99602   2.709  10.359   9.971  2.4401 -1.1989  0.8557
  755MOL0     H99603   2.550  10.539  10.004  0.7766 -0.3641 -1.9978
  755MOL0     H99604   2.471  10.391   9.975  1.3578  1.3150 -1.3295
  755MOL0     H99605   2.332  10.494  10.148  0.6004  3.1383  3.4966
  755MOL0     H99606   2.474  10.508  10.250  0.8232  1.8213 -1.5043
  755MOL0     H99607   2.489  10.262  10.246 -0.0975 -0.9748  1.1258
  755MOL0     H99608   2.347  10.250  10.145 -1.9473  1.6539 -0.0825
  755MOL0     H99609   2.351  10.372  10.424  0.8736 -2.7346  0.4422
  755MOL0     H99610   2.216  10.418  10.315  0.4313 -0.5992 -0.8038
  755MOL0     H99611   2.296  10.140  10.378  0.7951 -0.2266  1.1784
  755MOL0     H99612   2.141  10.192  10.292 -0.2218  2.1442 -0.4353
  755MOL0     H99613   1.939  10.175  10.479 -1.5153  4.0147 -0.9542
  755MOL0     H99614   1.818  10.213  10.729 -0.3034 -2.3832 -0.9725
  755MOL0     H99615   1.944  10.199  10.857 -1.7649  0.4507  1.0472
  755MOL0     H99616   1.811   9.998  10.855 -2.2724  0.8981 -1.5339
  755MOL0     H99617   1.985   9.971  10.810  0.5354 -0.1631 -0.3378
  755MOL0     H99618   1.781  10.012  10.596  3.7824  1.7103 -1.7756
  755MOL0     H99619   1.930   9.936  10.579  0.3795  0.4191 -0.0155
  755MOL0     H99620   1.748   9.784  10.784 -1.2606  0.5941  0.0792
  755MOL0     H99621   1.867   9.733  10.679 -0.7681 -0.7885 -0.2522
  755MOL0     H99622   1.515   9.801  10.799  1.5033 -1.9040 -1.2188
  755MOL0     H99623   1.335   9.951  10.809  0.3103 -1.7148  0.5985
  755MOL0     H99624   1.089  10.367  10.569 -3.7032  0.7350 -0.4434
  755MOL0     H99625   0.932  10.535  10.631 -0.2855  3.1638  1.8451
  755MOL0     H99626   0.791  10.774  10.882 -2.8210 -0.5465 -1.5377
  755MOL0     H99627   0.799  10.700  10.731  1.8723  2.4304 -2.0113
  755MOL0     H99628   1.031  10.782  10.699  1.7198  1.3733  0.4697
  755MOL0     H99629   1.034  10.842  10.867 -2.8234 -1.8425  2.9558
  755MOL0     H99630   0.857  11.008  10.802  4.1814  0.9857  2.2529
  755MOL0     H99631   0.842  10.938  10.640  1.7759 -1.0769 -2.1802
  755MOL0     H99632   1.075  11.018  10.599  1.4645 -3.0342  2.2739
  755MOL0     H99633   0.962  11.148  10.636  0.2134  0.0934  0.0105
  755MOL0     H99634   1.168  11.194  10.749 -0.7578 -1.0267 -1.4485
  755MOL0     H99635   1.163  11.047  10.845 -0.6972 -0.0349  2.8453
  755MOL0     H99636   0.964  11.125  10.960  0.6194 -1.0037  0.3298
  755MOL0     H99637   0.949  11.267  10.851  1.5478  0.8269 -0.5676
  755MOL0     H99638   1.207  11.315  10.904  1.3482 -2.0303  0.3027
  755MOL0     H99639   1.087  11.394  10.997 -0.5592 -0.6078  3.8846
  755MOL0     H99640   1.234  11.308  11.152 -1.4735 -0.1770 -0.1629
  755MOL0     H99641   1.230  11.136  11.092 -1.9107 -1.8129 -2.6656
  755MOL0     H99642   1.038  10.480  11.048 -0.4308 -1.4958  0.4675
  755MOL0     H99643   1.194  10.290  10.981  2.3853  5.0174  2.8112
  755MOL0     H99644   1.397  10.064  10.394  0.1298 -2.5281 -2.3592
  755MOL0     H99645   1.598   9.916  10.393  0.6027  0.1071  0.7259
  755MOL0     H99646   3.168  10.529  10.385 -3.5871  0.5129 -1.3266
  755MOL0     H99647   3.384  10.640  10.370 -0.8074  0.9045 -0.5310
  755MOL0     H99648   3.642  10.914  10.086 -0.2351 -0.1184 -0.0721
  755MOL0     H99649   3.865  11.050  10.139  0.1221 -0.4724 -0.6344
  755MOL0     H99650   4.237  10.864  10.034  0.5671 -0.6908  0.1633
  755MOL0     H99651   4.244  10.799  10.194 -3.5212 -2.1951 -1.7339
  755MOL0     H99652   4.418  10.977  10.123 -1.2513 -1.8202 -2.4007
  755MOL0     H99653   4.293  11.095  10.135 -1.8921 -1.5753  0.3478
  755MOL0     H99654   4.311  10.922  10.382  0.5200  0.0613  0.0740
  755MOL0     H99655   4.264  11.096  10.377  0.3045  0.8493  2.0504
  755MOL0     H99656   4.494  11.165  10.351  0.4965 -0.5477 -2.7238
  755MOL0     H99657   4.485  11.072  10.502  3.1230  1.2753 -0.0658
  755MOL0     H99658   4.802  10.914  10.270 -0.7591  0.2141 -3.4979
  755MOL0     H99659   4.061  10.677  10.156 -0.0732 -0.9869 -3.1247
  755MOL0     H99660   3.855  10.555  10.108 -0.9364  0.2725  1.0138
  756MOL0     O99661   1.718   1.536   6.376  0.7876  0.4363 -0.3502
  756MOL0     C99662   1.639   1.528   6.467  0.8022 -0.6922 -0.8860
  756MOL0     O99663   1.514   1.490   6.449 -0.6301  0.0763 -0.3139
  756MOL0     C99664   1.450   1.528   6.335  0.5963  1.1462 -0.0661
  756MOL0     C99665   1.325   1.465   6.320 -0.8558  0.3983  0.9384
  756MOL0     C99666   1.246   1.479   6.215 -0.1513 -0.0128  0.2160
  756MOL0     C99667   1.274   1.564   6.110 -0.9279 -0.1867 -0.7102
  756MOL0     O99668   1.179   1.561   6.011 -0.8750 -0.9438  0.4237
  756MOL0     C99669   1.142   1.680   5.935  0.5535  0.2586  0.2198
  756MOL0     C99670   0.998   1.659   5.881 -0.7732 -0.0391 -0.2245
  756MOL0     C99671   0.891   1.666   5.987  0.5848 -1.0991  0.2718
  756MOL0     C99672   0.758   1.638   5.926  0.1865 -0.4791 -0.2145
  756MOL0     C99673   0.665   1.603   6.039 -0.4303  0.0273  0.2030
  756MOL0     C99674   0.523   1.565   5.985 -0.5590 -0.1937 -0.6186
  756MOL0     C99675   0.420   1.603   6.091  0.5320 -0.9683  0.6635
  756MOL0     C99676   0.423   1.559   6.231 -0.7150  0.9466 -0.0000
  756MOL0     N99677   0.460   1.414   6.256  0.5321  0.9504 -0.3380
  756MOL0     C99678   0.442   1.299   6.182 -0.5234  0.1374  0.0290
  756MOL0     C99679   0.495   1.197   6.256 -0.6327  0.4000 -0.2494
  756MOL0     C99680   0.500   1.055   6.228  1.3200  0.0538 -0.7337
  756MOL0     C99681   0.367   0.999   6.181  0.2723 -0.6057 -0.3096
  756MOL0     C99682   0.383   0.857   6.134  0.3054  0.3714  0.3068
  756MOL0     C99683   0.260   0.772   6.149 -0.2537 -0.2873 -0.0701
  756MOL0     O99684   0.263   0.712   6.280 -1.0028 -0.6770  0.6668
  756MOL0     C99685   0.153   0.648   6.323  0.0211  0.3630  1.2990
  756MOL0     C99686   0.049   0.609   6.238  0.9051  0.3375 -0.2538
  756MOL0     C99687  -0.075   0.577   6.283 -0.0963 -0.4544 -0.4050
  756MOL0     C99688  -0.104   0.572   6.422 -0.3857 -0.1308  0.3282
  756MOL0     C99689  -0.238   0.540   6.465 -0.6781  0.3749  0.2684
  756MOL0     O99690  -0.254   0.524   6.600  0.0388 -0.1738 -0.3318
  756MOL0     C99691  -0.370   0.519   6.670 -0.8962  0.3231  0.4508
  756MOL0     C99692  -0.484   0.595   6.637  0.2777 -0.1426 -0.3864
  756MOL0     C99693  -0.589   0.573   6.736  0.6928  0.6510 -0.3258
  756MOL0     C99694  -0.581   0.496   6.851  0.9310 -0.5981 -0.1222
  756MOL0     O99695  -0.670   0.473   6.950 -0.2215  1.0011 -0.0029
  756MOL0     C99696  -0.805   0.498   6.931 -0.3766 -0.4151 -0.7216
  756MOL0     C99697  -0.872   0.534   7.060  0.2424 -0.9357 -0.1399
  756MOL0     C99698  -1.024   0.516   7.043  0.5013 -0.2206  0.4734
  756MOL0     C99699  -1.117   0.558   7.156  0.2617  0.1007  0.2058
  756MOL0     C99700  -1.265   0.545   7.129 -1.2500  0.2252  0.2255
  756MOL0     C99701  -1.358   0.604   7.233  0.1202 -0.0033 -0.3020
  756MOL0     C99702  -1.502   0.569   7.195 -0.0550  0.0024  0.4492
  756MOL0     C99703  -1.604   0.646   7.262  0.4694 -0.0795 -0.4626
  756MOL0    Cl99704  -1.604   0.632   7.438  0.2510  0.1154  0.0321
  756MOL0     C99705  -0.468   0.415   6.855  0.5776  0.6095  0.8063
  756MOL0     C99706  -0.354   0.426   6.776  0.1453 -0.7712  0.3818
  756MOL0     O99707  -0.334   0.537   6.383 -1.0772  0.0077 -0.2540
  756MOL0     C99708  -0.005   0.611   6.512 -1.0113  0.4828  0.3197
  756MOL0     C99709   0.124   0.638   6.463  0.1141 -0.3746  0.6718
  756MOL0     N99710   0.530   1.241   6.378  1.1807 -0.1531  0.6181
  756MOL0     N99711   0.508   1.372   6.377  0.0241  0.0313  0.0836
  756MOL0     C99712   1.395   1.640   6.121  1.6915 -0.4749 -0.6004
  756MOL0     C99713   1.474   1.625   6.242 -0.1917  0.5681  0.0354
  756MOL0     C99714   1.688   1.514   6.609 -0.5949  0.6297  0.4889
  756MOL0     C99715   1.815   1.457   6.643  0.4858 -0.1605  0.4356
  756MOL0     C99716   1.861   1.439   6.777 -0.3168 -0.4981  0.0315
  756MOL0     C99717   1.771   1.468   6.877  0.4990  0.3465  1.0840
  756MOL0     O99718   1.813   1.452   7.007 -0.7591  0.2004 -0.0488
  756MOL0     C99719   1.725   1.417   7.107  0.1483  0.3097 -0.1004
  756MOL0     C99720   1.689   1.527   7.201  0.0176 -1.3381 -0.6140
  756MOL0     C99721   1.827   1.577   7.279  0.7651 -1.2561  0.6002
  756MOL0     C99722   1.910   1.468   7.322 -0.6549  0.5413 -0.2210
  756MOL0     C99723   1.861   1.370   7.411  0.0822 -0.1005  0.2355
  756MOL0     C99724   1.814   1.278   7.473  0.1727  0.5756  0.0569
  756MOL0     C99725   1.647   1.520   6.842  0.5796 -0.2098  1.4617
  756MOL0     C99726   1.606   1.553   6.711 -0.3916  0.2048  0.1439
  756MOL0     H99727   1.310   1.397   6.403 -0.3385  0.5339  1.1496
  756MOL0     H99728   1.156   1.420   6.228 -0.0418  0.0064  1.1787
  756MOL0     H99729   1.201   1.698   5.845  0.3593  0.0317  0.0474
  756MOL0     H99730   1.150   1.771   5.995 -0.0018  1.3606 -1.3362
  756MOL0     H99731   0.983   1.565   5.827  1.0880  0.9124 -2.5527
  756MOL0     H99732   0.987   1.741   5.809  1.4032 -1.0749 -1.8469
  756MOL0     H99733   0.889   1.765   6.032  2.3714  1.1305 -4.0310
  756MOL0     H99734   0.914   1.589   6.061  4.3356  2.0714  2.7862
  756MOL0     H99735   0.714   1.733   5.893  0.1047 -0.8183 -1.1289
  756MOL0     H99736   0.756   1.568   5.841 -4.7047 -0.1136 -0.6938
  756MOL0     H99737   0.649   1.690   6.103 -3.4221  0.6148 -1.1841
  756MOL0     H99738   0.696   1.510   6.089 -3.0432 -2.5944 -2.5964
  756MOL0     H99739   0.520   1.457   5.965 -3.1352 -0.7026  1.7287
  756MOL0     H99740   0.497   1.617   5.893  1.4765  0.0504 -1.0856
  756MOL0     H99741   0.423   1.711   6.075  0.6404 -1.1118 -0.3461
  756MOL0     H99742   0.327   1.569   6.046 -0.9000 -0.6236  3.2109
  756MOL0     H99743   0.325   1.591   6.268 -2.0412 -1.7578 -0.8771
  756MOL0     H99744   0.497   1.626   6.274  1.7514 -0.2989 -2.0751
  756MOL0     H99745   0.393   1.284   6.086 -0.9865 -2.7550  0.6114
  756MOL0     H99746   0.529   1.002   6.320 -0.2898  1.0111  0.3897
  756MOL0     H99747   0.563   1.042   6.140 -2.9338  0.9479 -4.2224
  756MOL0     H99748   0.330   1.063   6.101 -1.1024 -0.1138  0.6834
  756MOL0     H99749   0.306   0.991   6.272  0.0688 -0.3477 -0.4220
  756MOL0     H99750   0.398   0.878   6.028 -1.5637  2.4974  0.3905
  756MOL0     H99751   0.461   0.798   6.183  1.4445  1.1538 -0.5108
  756MOL0     H99752   0.263   0.689   6.078 -0.8394  0.8020 -1.4247
  756MOL0     H99753   0.171   0.835   6.134  0.0267  0.0966 -0.1572
  756MOL0     H99754   0.065   0.596   6.131 -0.0070  3.1907 -0.8220
  756MOL0     H99755  -0.145   0.550   6.205 -0.9531 -1.5818  0.7078
  756MOL0     H99756  -0.490   0.675   6.563 -3.4515 -3.7567 -4.5835
  756MOL0     H99757  -0.679   0.633   6.725  1.7726  2.1698 -1.3641
  756MOL0     H99758  -0.844   0.403   6.892 -2.7067 -0.5465  1.6936
  756MOL0     H99759  -0.833   0.587   6.875  1.6522  1.9951  1.8393
  756MOL0     H99760  -0.848   0.633   7.100 -0.1985 -1.3198  1.1387
  756MOL0     H99761  -0.840   0.466   7.140  0.1039 -1.6310 -0.6700
  756MOL0     H99762  -1.041   0.411   7.019 -0.3116 -0.2216  1.0239
  756MOL0     H99763  -1.057   0.567   6.951  1.3451 -2.9271 -1.4573
  756MOL0     H99764  -1.091   0.511   7.251  2.1928  0.3280 -0.1678
  756MOL0     H99765  -1.100   0.661   7.189 -1.0739  0.0164  1.2465
  756MOL0     H99766  -1.282   0.438   7.109 -0.2182  0.2067 -0.6896
  756MOL0     H99767  -1.299   0.609   7.047 -2.5841  5.8004  4.5606
  756MOL0     H99768  -1.346   0.713   7.235 -2.3066  0.4403 -2.7028
  756MOL0     H99769  -1.339   0.560   7.331 -2.3819 -0.0865  0.2150
  756MOL0     H99770  -1.523   0.591   7.090  1.4633  2.0717  0.5169
  756MOL0     H99771  -1.520   0.463   7.218 -3.8231  0.6269  0.9648
  756MOL0     H99772  -1.703   0.623   7.222 -0.1730  2.1125 -0.3154
  756MOL0     H99773  -1.582   0.748   7.228  2.1030 -0.5467 -0.8527
  756MOL0     H99774  -0.476   0.344   6.936 -0.9226  0.8402  0.8930
  756MOL0     H99775  -0.258   0.379   6.794  0.8568 -0.9914 -3.2251
  756MOL0     H99776  -0.033   0.605   6.617 -0.0363 -3.5776  0.5270
  756MOL0     H99777   0.212   0.638   6.527 -0.0754 -0.1635  0.9347
  756MOL0     H99778   1.415   1.719   6.050 -3.2630  2.3973  0.6887
  756MOL0     H99779   1.562   1.688   6.248  1.2581 -1.2360 -1.2304
  756MOL0     H99780   1.879   1.436   6.559 -0.6913 -1.1013 -0.2601
  756MOL0     H99781   1.952   1.393   6.814  0.0678  2.1336  2.7700
  756MOL0     H99782   1.763   1.330   7.162 -0.2713 -0.4185 -0.9172
  756MOL0     H99783   1.626   1.383   7.074 -0.0494 -0.3893  1.1534
  756MOL0     H99784   1.657   1.623   7.159  3.9166  0.8063  0.7386
  756MOL0     H99785   1.623   1.498   7.282  0.8596 -0.9013  0.2504
  756MOL0     H99786   1.802   1.644   7.361 -1.2715 -0.2020 -0.7957
  756MOL0     H99787   1.881   1.631   7.200 -0.6295 -0.1094  0.3937
  756MOL0     H99788   1.954   1.430   7.229 -1.2671  1.1155 -0.7555
  756MOL0     H99789   1.990   1.520   7.377 -1.9083  3.5740 -1.0614
  756MOL0     H99790   1.767   1.188   7.506  1.4300  0.3313  1.2608
  756MOL0     H99791   1.604   1.557   6.935  2.3348  0.4796  2.0502
  756MOL0     H99792   1.514   1.609   6.698 -0.5059 -0.1384 -0.5962
  757MOL0     O99793   8.052   4.369   6.166  0.0339  0.2834  0.2586
  757MOL0     C99794   7.951   4.316   6.122 -0.8583  0.3088 -0.2219
  757MOL0     O99795   7.898   4.196   6.171  0.0820 -0.3760  0.7139
  757MOL0     C99796   7.972   4.126   6.262 -0.2876  0.4597  0.5022
  757MOL0     C99797   8.091   4.067   6.228 -0.1110  0.0643 -0.4027
  757MOL0     C99798   8.135   3.958   6.304 -0.4770 -0.4190  0.4199
  757MOL0     C99799   8.062   3.904   6.408  0.7736  1.0997  0.2108
  757MOL0     O99800   8.122   3.790   6.467  0.0910 -0.2505 -0.8428
  757MOL0     C99801   8.054   3.691   6.547 -0.5233 -0.8805 -0.0551
  757MOL0     C99802   8.157   3.623   6.630  0.7962 -0.3433  0.1414
  757MOL0     C99803   8.089   3.536   6.737 -1.1568  0.0449 -0.1310
  757MOL0     C99804   8.197   3.494   6.831  0.1875  0.4123 -0.4350
  757MOL0     C99805   8.157   3.384   6.933  1.1550  0.3207  0.5206
  757MOL0     C99806   8.275   3.318   7.006 -0.3486  0.4744 -0.7933
  757MOL0     C99807   8.247   3.221   7.122 -0.3369 -0.4949 -0.8565
  757MOL0     C99808   8.152   3.286   7.223  0.1280  0.0859  0.0306
  757MOL0     N99809   8.187   3.414   7.272  0.1465  0.0252 -0.0211
  757MOL0     C99810   8.284   3.443   7.362  0.0021 -0.6268 -0.0257
  757MOL0     C99811   8.267   3.585   7.380  0.0590  0.4025  0.0821
  757MOL0     C99812   8.347   3.683   7.454  0.0109  1.6811 -0.1286
  757MOL0     C99813   8.430   3.779   7.372 -0.2239  0.1358 -0.6299
  757MOL0     C99814   8.423   3.925   7.438  0.1530 -0.6375 -0.2129
  757MOL0     C99815   8.302   4.010   7.397  0.4912  0.3019  0.6806
  757MOL0     O99816   8.315   4.050   7.254 -0.4660 -0.2070 -0.8418
  757MOL0     C99817   8.224   4.140   7.208 -0.7254  0.0096 -0.2536
  757MOL0     C99818   8.266   4.230   7.115  0.0690  1.5509  0.5730
  757MOL0     C99819   8.185   4.329   7.057  0.3779  1.2344 -0.1958
  757MOL0     C99820   8.049   4.331   7.095  0.1453 -0.1302 -0.4672
  757MOL0     C99821   7.951   4.434   7.029 -0.7058  0.2208  0.4591
  757MOL0     O99822   8.002   4.491   6.920 -0.6486  0.5083  0.1755
  757MOL0     C99823   7.951   4.607   6.856  1.1571  0.5113 -0.5693
  757MOL0     C99824   8.015   4.723   6.853 -0.5904 -1.1351  0.2462
  757MOL0     C99825   7.954   4.835   6.795 -0.2594 -0.1717  0.6595
  757MOL0     C99826   7.830   4.834   6.732  0.6544  0.5863 -0.8026
  757MOL0     O99827   7.773   4.944   6.681 -0.2076 -0.9803  0.1910
  757MOL0     C99828   7.659   4.925   6.596  0.8733  0.8727 -0.3255
  757MOL0     C99829   7.624   5.055   6.524  0.3633 -0.3062  0.0587
  757MOL0     C99830   7.572   5.167   6.616  1.0251  0.4811 -0.1054
  757MOL0     C99831   7.584   5.310   6.553 -0.5195 -0.0791  0.2203
  757MOL0     C99832   7.599   5.433   6.646  0.0783  1.0722  1.1298
  757MOL0     C99833   7.495   5.439   6.758 -0.0323 -0.2520  0.2174
  757MOL0     C99834   7.519   5.538   6.865 -0.8644  0.3087 -0.0143
  757MOL0     C99835   7.400   5.548   6.964 -0.2403 -0.0138 -0.3832
  757MOL0    Cl99836   7.460   5.613   7.117  0.4465  0.6819  0.2594
  757MOL0     C99837   7.758   4.708   6.740  0.0579  0.5678 -0.3998
  757MOL0     C99838   7.820   4.598   6.813  0.5012  0.3256  1.0244
  757MOL0     O99839   7.833   4.439   7.068 -0.4339 -0.2822 -0.3004
  757MOL0     C99840   8.008   4.230   7.186 -0.0009 -0.3658  0.2670
  757MOL0     C99841   8.090   4.134   7.248  0.3080 -0.3850 -0.2098
  757MOL0     N99842   8.166   3.630   7.299  0.0714  0.3465  0.3340
  757MOL0     N99843   8.118   3.534   7.230  0.2187 -0.1976  0.2239
  757MOL0     C99844   7.937   3.957   6.439  0.1568 -0.1150 -0.3602
  757MOL0     C99845   7.893   4.063   6.354 -0.7470 -0.0972 -0.0343
  757MOL0     C99846   7.869   4.399   6.040  0.3798 -0.0549  0.9200
  757MOL0     C99847   7.927   4.509   5.972 -0.7777 -0.2093  0.3226
  757MOL0     C99848   7.847   4.596   5.893  1.1405 -0.9035  0.2875
  757MOL0     C99849   7.711   4.560   5.856  0.0597 -0.8086  0.2175
  757MOL0     O99850   7.635   4.637   5.770  0.0981  0.9368 -0.1563
  757MOL0     C99851   7.539   4.575   5.690  0.0436 -0.7677  0.7440
  757MOL0     C99852   7.521   4.674   5.569  0.5221  0.7498 -0.5615
  757MOL0     C99853   7.646   4.684   5.475  0.0427 -0.1357 -0.1446
  757MOL0     C99854   7.608   4.799   5.373 -0.5232  0.7061 -0.3399
  757MOL0     C99855   7.626   4.931   5.431 -1.3556  0.0399  0.4274
  757MOL0     C99856   7.660   5.046   5.455  0.2684 -0.1139 -0.6737
  757MOL0     C99857   7.655   4.447   5.928 -0.1928 -0.1730  0.4452
  757MOL0     C99858   7.735   4.378   6.017  0.1284 -0.4065 -0.4454
  757MOL0     H99859   8.138   4.097   6.135  0.6503 -1.2402 -0.4711
  757MOL0     H99860   8.229   3.912   6.274 -1.9396 -2.3960 -1.4835
  757MOL0     H99861   8.005   3.628   6.471 -3.3635 -0.2848  1.1795
  757MOL0     H99862   7.988   3.750   6.611 -0.1301  1.7407 -1.9104
  757MOL0     H99863   8.223   3.704   6.664  2.2540 -1.2700 -0.3643
  757MOL0     H99864   8.217   3.556   6.567  0.0391 -0.5398 -0.3758
  757MOL0     H99865   8.049   3.443   6.695 -0.2213  0.3629 -1.8016
  757MOL0     H99866   8.010   3.593   6.786  1.3873  2.6392  1.2852
  757MOL0     H99867   8.278   3.455   6.770 -1.0485  0.0796 -1.9258
  757MOL0     H99868   8.229   3.581   6.889 -0.8924  0.8522 -0.4795
  757MOL0     H99869   8.108   3.298   6.887  2.2752  0.1779 -0.4640
  757MOL0     H99870   8.087   3.419   7.009 -1.5574 -0.4333 -1.4766
  757MOL0     H99871   8.334   3.396   7.056 -2.1943  1.8316 -0.6287
  757MOL0     H99872   8.329   3.257   6.933 -1.3867 -3.3157  1.3536
  757MOL0     H99873   8.216   3.122   7.084  1.3966 -0.3303 -2.9227
  757MOL0     H99874   8.342   3.201   7.173 -0.8435 -0.2020  0.2205
  757MOL0     H99875   8.143   3.220   7.310 -0.9218  1.4425  0.9899
  757MOL0     H99876   8.054   3.289   7.174  0.8602 -0.8172 -1.5638
  757MOL0     H99877   8.343   3.369   7.416  0.2983  1.6892  3.0948
  757MOL0     H99878   8.410   3.628   7.524 -2.8321 -2.4073 -0.4146
  757MOL0     H99879   8.279   3.746   7.511 -1.7941  1.4008 -1.8733
  757MOL0     H99880   8.399   3.781   7.268 -2.9913 -0.4711  0.1080
  757MOL0     H99881   8.536   3.754   7.369 -0.1600 -0.1755  1.8477
  757MOL0     H99882   8.418   3.914   7.547 -0.1549 -0.5934 -0.2226
  757MOL0     H99883   8.516   3.981   7.425 -0.0484  0.0949  1.2734
  757MOL0     H99884   8.300   4.096   7.465 -0.6105  0.0077  1.0448
  757MOL0     H99885   8.220   3.944   7.426  1.7591  0.0309  4.1153
  757MOL0     H99886   8.366   4.217   7.074 -0.7329 -1.8442 -0.6000
  757MOL0     H99887   8.228   4.386   6.975 -0.1931  0.7967 -0.8121
  757MOL0     H99888   8.112   4.746   6.896  0.2168  0.2956 -2.1294
  757MOL0     H99889   8.004   4.932   6.802  0.0399 -0.3878  1.7490
  757MOL0     H99890   7.571   4.894   6.654  0.9703  1.9053  0.3984
  757MOL0     H99891   7.681   4.857   6.513  0.2605  0.1242  0.1166
  757MOL0     H99892   7.554   5.028   6.445 -0.1759 -1.4227  0.8872
  757MOL0     H99893   7.717   5.085   6.475 -0.5004  0.8377 -0.9330
  757MOL0     H99894   7.642   5.181   6.699  1.8287  1.0347 -0.8592
  757MOL0     H99895   7.470   5.144   6.648  0.4260 -2.0826 -3.3192
  757MOL0     H99896   7.660   5.310   6.474 -0.8762 -2.4221 -0.1780
  757MOL0     H99897   7.490   5.327   6.500  0.6826 -1.1435 -2.4608
  757MOL0     H99898   7.605   5.524   6.586 -0.6977  0.3695 -0.0659
  757MOL0     H99899   7.699   5.417   6.687 -0.0909  0.6838  1.3975
  757MOL0     H99900   7.485   5.343   6.810 -3.0112  0.5937  1.4173
  757MOL0     H99901   7.397   5.463   6.718 -0.4483 -0.6552  0.9755
  757MOL0     H99902   7.606   5.494   6.916 -1.5654  0.1015  1.0374
  757MOL0     H99903   7.541   5.638   6.826  0.9303  0.2199  0.6491
  757MOL0     H99904   7.352   5.451   6.983  1.5124 -0.7844  0.3251
  757MOL0     H99905   7.316   5.607   6.926 -2.1816 -2.9720 -1.0398
  757MOL0     H99906   7.663   4.682   6.694  0.3351  0.6494 -1.0187
  757MOL0     H99907   7.783   4.496   6.806  0.0754  0.5132  0.4657
  757MOL0     H99908   7.901   4.217   7.204  0.1732  2.0542  4.3348
  757MOL0     H99909   8.048   4.059   7.316 -0.5927  1.3525  1.2463
  757MOL0     H99910   7.870   3.914   6.513  0.4584 -2.1868 -1.2268
  757MOL0     H99911   7.789   4.094   6.352 -1.0934 -1.2049  0.0426
  757MOL0     H99912   8.029   4.544   5.979 -0.3091 -1.3481 -0.5398
  757MOL0     H99913   7.891   4.690   5.863 -0.2534 -0.1349  0.5786
  757MOL0     H99914   7.447   4.550   5.744 -1.8810  2.2319 -0.8321
  757MOL0     H99915   7.567   4.479   5.646  1.1377  0.7052 -2.0363
  757MOL0     H99916   7.443   4.638   5.501 -0.6725 -2.8986  2.4060
  757MOL0     H99917   7.480   4.772   5.595 -1.3426  0.4593 -2.2239
  757MOL0     H99918   7.663   4.586   5.430  3.6721 -0.7164  2.1419
  757MOL0     H99919   7.732   4.718   5.533 -0.7382  1.7079  0.0173
  757MOL0     H99920   7.672   4.783   5.286 -3.9254 -0.8781 -2.7791
  757MOL0     H99921   7.508   4.782   5.333 -0.8150 -1.0888  1.0676
  757MOL0     H99922   7.689   5.147   5.479 -0.1706 -0.4913  1.7361
  757MOL0     H99923   7.547   4.441   5.923 -0.3303 -0.0823  2.3978
  757MOL0     H99924   7.681   4.300   6.069 -0.4236  0.8250  0.9053
  758MOL0     O99925  10.516   2.103  11.302 -0.2151  0.3021 -0.0975
  758MOL0     C99926  10.584   2.207  11.307 -0.4542  0.0496 -0.6208
  758MOL0     O99927  10.717   2.223  11.284  0.0107 -0.2837  0.3185
  758MOL0     C99928  10.772   2.111  11.219 -0.7784 -0.9333 -0.5071
  758MOL0     C99929  10.816   1.994  11.280  1.1832 -0.2838  0.5151
  758MOL0     C99930  10.880   1.896  11.201 -0.8214 -0.2661  0.8753
  758MOL0     C99931  10.913   1.921  11.062 -0.9836 -0.1556  0.1240
  758MOL0     O99932  10.987   1.818  11.005  1.0448 -0.2677  0.7344
  758MOL0     C99933  10.985   1.809  10.864  0.6205 -1.2244  0.8545
  758MOL0     C99934  11.067   1.688  10.842  0.1255  0.2766  0.4123
  758MOL0     C99935  11.000   1.558  10.880 -0.1983  0.2948 -1.0623
  758MOL0     C99936  11.014   1.506  11.021  0.6459  0.6502 -0.7582
  758MOL0     C99937  10.945   1.370  11.033 -0.4357  0.0826 -0.3739
  758MOL0     C99938  11.007   1.273  11.136 -0.3591 -0.4176 -0.5386
  758MOL0     C99939  10.987   1.337  11.284 -0.0649  0.1400  0.2428
  758MOL0     C99940  10.837   1.362  11.325  0.9290  0.5507 -0.6101
  758MOL0     N99941  10.754   1.244  11.351 -0.7633 -0.0725 -0.3011
  758MOL0     C99942  10.780   1.135  11.428  0.0693 -0.2788 -0.1568
  758MOL0     C99943  10.677   1.044  11.398 -0.7600  0.1632 -0.5984
  758MOL0     C99944  10.676   0.893  11.413 -0.8386 -0.0735 -0.3595
  758MOL0     C99945  10.600   0.852  11.540 -0.3805  0.0363  0.2398
  758MOL0     C99946  10.455   0.809  11.517 -0.2888  0.5478 -0.2557
  758MOL0     C99947  10.381   0.772  11.645 -0.0753 -1.0313 -0.0457
  758MOL0     O99948  10.256   0.704  11.609 -0.7393 -0.0226 -0.2434
  758MOL0     C99949  10.150   0.712  11.688  0.8506 -0.0183 -0.4335
  758MOL0     C99950  10.143   0.767  11.812  0.7013  0.5974 -0.6998
  758MOL0     C99951  10.027   0.771  11.890 -1.0961 -0.5918  0.2648
  758MOL0     C99952   9.910   0.707  11.837 -0.1809 -0.1095 -0.3274
  758MOL0     C99953   9.780   0.717  11.913  0.5564  0.6939  1.0815
  758MOL0     O99954   9.666   0.661  11.847 -0.0536  0.0302 -0.5411
  758MOL0     C99955   9.540   0.708  11.888 -0.5117  0.5729 -0.8513
  758MOL0     C99956   9.501   0.842  11.877 -0.0520  0.8914  0.8042
  758MOL0     C99957   9.370   0.886  11.904 -0.4104  0.3717  0.1312
  758MOL0     C99958   9.284   0.798  11.951  0.7518  1.8812 -0.8674
  758MOL0     O99959   9.163   0.854  11.983  0.2217  0.0640  0.3685
  758MOL0     C99960   9.047   0.802  11.913 -0.0928  0.8479 -0.5845
  758MOL0     C99961   9.032   0.856  11.774 -0.1158 -0.1825  0.6444
  758MOL0     C99962   8.884   0.838  11.723  0.0029  0.4905  0.2298
  758MOL0     C99963   8.775   0.918  11.806 -0.8965  0.5064  0.6618
  758MOL0     C99964   8.636   0.896  11.738 -0.0558  0.1511 -0.4930
  758MOL0     C99965   8.516   0.917  11.830  0.7506 -0.4733 -0.7302
  758MOL0     C99966   8.487   1.063  11.851  0.4664 -0.0695  0.2102
  758MOL0     C99967   8.333   1.084  11.892 -0.2566 -0.2078  0.0415
  758MOL0    Cl99968   8.242   1.061  11.747  0.0258 -0.2842  0.1918
  758MOL0     C99969   9.314   0.663  11.953  0.2092  0.1438  1.0508
  758MOL0     C99970   9.445   0.620  11.930  0.2424  1.1019 -0.1849
  758MOL0     O99971   9.781   0.756  12.024  0.0581  0.3829  0.2558
  758MOL0     C99972   9.923   0.640  11.717 -0.3944  0.1971 -0.3423
  758MOL0     C99973  10.039   0.643  11.646 -0.8720 -0.2702  0.6310
  758MOL0     N99974  10.613   1.099  11.298  0.7024  0.1090 -0.3180
  758MOL0     N99975  10.657   1.214  11.271 -0.0315  0.1034 -0.0995
  758MOL0     C99976  10.875   2.042  10.999  0.5364  0.0265  0.1605
  758MOL0     C99977  10.799   2.130  11.079 -0.5110  0.7114 -0.5324
  758MOL0     C99978  10.506   2.307  11.380  0.5043 -0.0474 -0.6402
  758MOL0     C99979  10.574   2.412  11.449  0.5685  0.1706  0.6116
  758MOL0     C99980  10.500   2.502  11.519 -0.4059  0.3198  0.3989
  758MOL0     C99981  10.360   2.509  11.510  1.0494 -0.2828 -0.0709
  758MOL0     O99982  10.277   2.609  11.564  0.0472  1.0232  0.2150
  758MOL0     C99983  10.338   2.679  11.687  0.0779  0.4502  0.5109
  758MOL0     C99984  10.238   2.777  11.741 -0.4751  0.8004  1.4673
  758MOL0     C99985  10.308   2.884  11.831  0.0749 -0.3676  0.1762
  758MOL0     C99986  10.353   3.016  11.756 -0.5962  1.2605  0.8339
  758MOL0     C99987  10.245   3.104  11.744  0.9470  1.0402 -0.1920
  758MOL0     C99988  10.143   3.170  11.742  0.1711  0.7776 -0.0797
  758MOL0     C99989  10.288   2.420  11.429  0.2957 -0.9471 -0.3486
  758MOL0     C99990  10.363   2.315  11.375  0.0356  0.4945  0.3736
  758MOL0     H99991  10.796   1.977  11.385 -0.1346  0.7180  0.4546
  758MOL0     H99992  10.903   1.801  11.249 -1.2298 -0.3145  0.9729
  758MOL0     H99993  11.042   1.893  10.822 -0.2982  0.1783  2.2983
  758MOL0     H99994  10.884   1.802  10.823  1.4373 -1.6583 -1.2156
  758MOL0     H99995  11.169   1.685  10.883  0.0630 -1.7596  0.5393
  758MOL0     H99996  11.078   1.692  10.733  1.5741  4.1031  0.5446
  758MOL0     H99997  11.021   1.488  10.799  0.7072 -2.5328  1.4420
  758MOL0     H99998  10.892   1.570  10.866 -1.0456 -3.0701  1.3136
  758MOL0     H99999  11.121   1.500  11.045  0.3052 -2.4560  0.4444
  758MOL0     H    0  10.975   1.572  11.099  1.0297  1.1061 -0.9463
  758MOL0     H    1  10.947   1.306  10.944  2.5785 -1.6252  0.7545
  758MOL0     H    2  10.838   1.385  11.048 -0.4115 -1.4181  2.0125
  758MOL0     H    3  11.115   1.270  11.117  0.0461  0.6503  1.3999
  758MOL0     H    4  10.968   1.171  11.137  0.1656 -0.6197 -0.3021
  758MOL0     H    5  11.047   1.283  11.359  0.6044  0.8846  0.2521
  758MOL0     H    6  11.049   1.427  11.296  0.5123 -0.1929 -0.1623
  758MOL0     H    7  10.785   1.428  11.255  1.5228 -0.5015 -2.0969
  758MOL0     H    8  10.835   1.428  11.412 -0.3369  1.3180 -1.1847
  758MOL0     H    9  10.864   1.105  11.490 -1.2917  0.7357  2.3159
  758MOL0     H   10  10.783   0.870  11.413 -0.6880  0.6080 -0.7221
  758MOL0     H   11  10.640   0.847  11.321  0.1331 -4.0994  1.1013
  758MOL0     H   12  10.607   0.930  11.616  5.0513  0.8971 -0.7757
  758MOL0     H   13  10.646   0.757  11.568 -1.2957 -1.1076 -1.8881
  758MOL0     H   14  10.414   0.905  11.484  0.9639  1.1519 -0.1188
  758MOL0     H   15  10.447   0.739  11.434  1.5571  0.9154 -0.7771
  758MOL0     H   16  10.370   0.863  11.705  1.9397  1.0084 -2.5635
  758MOL0     H   17  10.440   0.701  11.704 -1.3467 -1.3162  0.9394
  758MOL0     H   18  10.222   0.828  11.855 -0.5973  1.2343  0.8705
  758MOL0     H   19  10.033   0.829  11.981  0.9525  1.0824 -0.8420
  758MOL0     H   20   9.579   0.907  11.839  2.7173 -2.4286  0.3180
  758MOL0     H   21   9.342   0.990  11.896 -2.1086 -0.0871 -0.1933
  758MOL0     H   22   8.962   0.836  11.973  0.8772  1.4163  0.5173
  758MOL0     H   23   9.046   0.693  11.904  1.0305  0.7958 -0.3113
  758MOL0     H   24   9.107   0.809  11.710 -0.4005 -1.6604  1.3370
  758MOL0     H   25   9.059   0.962  11.779  1.0193 -0.4550  0.4794
  758MOL0     H   26   8.853   0.733  11.723  0.6445  0.2781 -1.0756
  758MOL0     H   27   8.882   0.865  11.617  0.3946  2.2229  0.6401
  758MOL0     H   28   8.742   0.891  11.907 -2.3204  1.0678  0.3739
  758MOL0     H   29   8.798   1.024  11.810  0.2248  0.2805  0.5066
  758MOL0     H   30   8.615   0.795  11.700  1.1257  1.0124 -3.7201
  758MOL0     H   31   8.630   0.958  11.648 -0.4387 -1.9834 -2.0155
  758MOL0     H   32   8.520   0.868  11.928  1.5635 -0.2314 -0.6341
  758MOL0     H   33   8.423   0.880  11.786  0.1314  2.0181 -1.7122
  758MOL0     H   34   8.546   1.088  11.940  0.3197  2.8928 -0.4173
  758MOL0     H   35   8.503   1.127  11.764  1.5484 -1.8086 -0.9251
  758MOL0     H   36   8.327   1.186  11.931  2.6807 -0.3340  1.0821
  758MOL0     H   37   8.301   1.007  11.962  1.0295 -2.1998 -1.4781
  758MOL0     H   38   9.229   0.600  11.975  0.4795  0.0813  1.9543
  758MOL0     H   39   9.479   0.518  11.943 -1.6930  0.2351 -1.3869
  758MOL0     H   40   9.841   0.593  11.662  0.8492 -0.4593 -1.7112
  758MOL0     H   41  10.042   0.593  11.550  1.6519 -0.3028  0.6615
  758MOL0     H   42  10.912   2.070  10.901  1.3565 -0.7557  0.2315
  758MOL0     H   43  10.771   2.226  11.038  0.6215  1.0809 -0.4564
  758MOL0     H   44  10.682   2.402  11.452  0.9074  1.9033 -2.2722
  758MOL0     H   45  10.547   2.571  11.589  2.2228 -2.4195  1.5535
  758MOL0     H   46  10.429   2.730  11.652  1.6457 -2.2771  0.3133
  758MOL0     H   47  10.366   2.606  11.763  1.0026 -0.8467 -1.0090
  758MOL0     H   48  10.181   2.830  11.665  0.6056 -0.1331 -0.0523
  758MOL0     H   49  10.156   2.721  11.787 -1.7662  0.5235 -1.0048
  758MOL0     H   50  10.397   2.838  11.875  1.6070  0.5096 -1.7993
  758MOL0     H   51  10.241   2.902  11.915 -0.7041 -5.7698  1.0779
  758MOL0     H   52  10.436   3.069  11.804 -0.5358  2.2356 -0.3057
  758MOL0     H   53  10.394   2.990  11.658 -1.1643  1.7761  0.4549
  758MOL0     H   54  10.055   3.230  11.731 -0.6410 -0.8094 -3.2862
  758MOL0     H   55  10.182   2.433  11.411  0.3301 -2.1002 -1.4851
  758MOL0     H   56  10.303   2.251  11.310 -0.0975  1.0729 -0.0820
  759MOL0     O   57   0.549   6.402   0.617  0.7064 -0.0761 -0.3292
  759MOL0     C   58   0.488   6.303   0.662 -0.0235 -0.0126  1.0147
  759MOL0     O   59   0.412   6.214   0.588 -0.0990 -0.8064  0.5108
  759MOL0     C   60   0.405   6.228   0.454 -0.0590 -0.1970 -0.2762
  759MOL0     C   61   0.290   6.178   0.409 -0.0372  0.1742  0.4744
  759MOL0     C   62   0.262   6.175   0.265  1.2008 -0.1408 -0.3184
  759MOL0     C   63   0.353   6.239   0.176 -0.5371  1.1778  0.1850
  759MOL0     O   64   0.322   6.240   0.038  0.4150 -0.0725  0.0040
  759MOL0     C   65   0.294   6.369  -0.013 -0.6554  0.5561 -0.3406
  759MOL0     C   66   0.185   6.446   0.054  0.3912  0.6105  0.1354
  759MOL0     C   67   0.140   6.575  -0.028 -0.3293 -0.3652  0.2672
  759MOL0     C   68   0.025   6.544  -0.119 -0.8369 -0.1645  0.5756
  759MOL0     C   69   0.027   6.638  -0.240 -0.7738  0.5295  0.2738
  759MOL0     C   70  -0.101   6.611  -0.317 -1.0085 -0.6836 -1.0188
  759MOL0     C   71  -0.225   6.690  -0.275  1.2144 -0.0129 -0.2376
  759MOL0     C   72  -0.345   6.649  -0.353 -0.1949  0.5514  1.1206
  759MOL0     N   73  -0.363   6.722  -0.483  0.2147  0.5343 -0.5159
  759MOL0     C   74  -0.385   6.856  -0.493  0.2893 -0.9637 -0.5281
  759MOL0     C   75  -0.416   6.879  -0.624  0.6044 -0.2566 -0.0437
  759MOL0     C   76  -0.427   7.023  -0.691  0.9857 -0.5569  0.1763
  759MOL0     C   77  -0.568   7.082  -0.674 -0.6152  0.3187  0.4677
  759MOL0     C   78  -0.607   7.134  -0.532 -0.4423 -0.0034  0.3375
  759MOL0     C   79  -0.517   7.252  -0.501 -0.4972 -0.3909 -0.6958
  759MOL0     O   80  -0.583   7.332  -0.405 -0.4762  0.5212 -0.1310
  759MOL0     C   81  -0.630   7.454  -0.446  1.1946  0.9798  0.2096
  759MOL0     C   82  -0.596   7.564  -0.382 -0.2460 -0.2855  0.2507
  759MOL0     C   83  -0.631   7.695  -0.417  0.3303 -1.0284  0.0111
  759MOL0     C   84  -0.696   7.710  -0.538  0.1897 -0.8245 -0.2319
  759MOL0     C   85  -0.708   7.842  -0.604 -0.4029 -0.4469 -0.2650
  759MOL0     O   86  -0.783   7.848  -0.718 -0.4799  0.1688 -0.0956
  759MOL0     C   87  -0.790   7.979  -0.780 -0.1023 -0.6572 -1.1209
  759MOL0     C   88  -0.909   8.056  -0.791 -0.3037 -0.9402 -0.2068
  759MOL0     C   89  -0.906   8.164  -0.873  0.3183  0.7110 -0.8125
  759MOL0     C   90  -0.801   8.195  -0.963 -0.4502  1.8595 -0.3287
  759MOL0     O   91  -0.816   8.298  -1.041 -0.6766  0.4714 -0.2769
  759MOL0     C   92  -0.776   8.302  -1.176  0.5311  0.4072  0.0071
  759MOL0     C   93  -0.878   8.393  -1.253 -0.9497 -0.3215 -1.1150
  759MOL0     C   94  -1.014   8.341  -1.275  0.2238  0.2183  0.2356
  759MOL0     C   95  -1.120   8.454  -1.301  0.4578  0.0449 -0.1209
  759MOL0     C   96  -1.270   8.400  -1.321 -0.3859  0.6876 -0.2859
  759MOL0     C   97  -1.350   8.479  -1.421  0.7694 -0.3039  0.4790
  759MOL0     C   98  -1.409   8.612  -1.357  1.2113  0.4852  0.1610
  759MOL0     C   99  -1.518   8.683  -1.450 -0.1627  0.2659 -0.2740
  759MOL0    Cl  100  -1.616   8.780  -1.337 -0.0315 -0.1830  0.1005
  759MOL0     C  101  -0.686   8.106  -0.960  0.2346 -0.2222  0.1869
  759MOL0     C  102  -0.683   8.000  -0.861  0.4697 -1.3533 -0.1650
  759MOL0     O  103  -0.660   7.937  -0.540  0.1132 -0.7832  0.3580
  759MOL0     C  104  -0.747   7.592  -0.595 -0.7951 -0.8961  0.3684
  759MOL0     C  105  -0.716   7.466  -0.548 -0.4034 -0.3673  0.5314
  759MOL0     N  106  -0.410   6.763  -0.691 -0.6263 -0.4469  0.3872
  759MOL0     N  107  -0.373   6.673  -0.604  0.3634  0.2120 -0.0435
  759MOL0     C  108   0.464   6.298   0.230 -0.2054 -0.3859  1.2027
  759MOL0     C  109   0.500   6.284   0.368  0.6326 -0.0963  0.3792
  759MOL0     C  110   0.492   6.293   0.814 -0.0534  0.5447 -0.3512
  759MOL0     C  111   0.480   6.170   0.873  0.3062  0.4354  0.2751
  759MOL0     C  112   0.461   6.160   1.018  0.4182 -0.1548  0.1685
  759MOL0     C  113   0.453   6.277   1.087 -0.0987 -0.0209 -0.7322
  759MOL0     O  114   0.430   6.279   1.224  0.4945 -0.2800 -0.5893
  759MOL0     C  115   0.398   6.168   1.311 -0.9577  0.4980 -0.0996
  759MOL0     C  116   0.519   6.076   1.350 -0.1724  0.5294 -0.2336
  759MOL0     C  117   0.645   6.166   1.389  0.1983  0.1776  0.4204
  759MOL0     C  118   0.761   6.165   1.294 -0.0457 -0.5722  0.2496
  759MOL0     C  119   0.834   6.039   1.302 -0.3783 -0.0261  0.1517
  759MOL0     C  120   0.918   5.947   1.315 -0.2592  0.3389  0.4641
  759MOL0     C  121   0.486   6.399   1.034  0.7438 -0.0447 -0.2803
  759MOL0     C  122   0.511   6.405   0.898 -0.3202  0.4488 -0.2151
  759MOL0     H  123   0.212   6.131   0.466 -2.0903 -1.9887 -3.6544
  759MOL0     H  124   0.169   6.127   0.236  0.9635  1.4638 -2.4507
  759MOL0     H  125   0.255   6.336  -0.110 -2.3655  2.2343 -0.2819
  759MOL0     H  126   0.388   6.425  -0.019 -1.1414  1.6602  1.4878
  759MOL0     H  127   0.222   6.481   0.151 -0.5412  0.7567  0.4541
  759MOL0     H  128   0.101   6.380   0.075 -0.6616  2.8362  3.9739
  759MOL0     H  129   0.223   6.619  -0.084  1.4102 -1.0260  2.2389
  759MOL0     H  130   0.109   6.657   0.037 -2.6807 -0.1163 -1.0241
  759MOL0     H  131   0.015   6.442  -0.158 -2.9047  0.1883  0.0446
  759MOL0     H  132  -0.069   6.574  -0.070 -1.1164 -1.5434  0.9418
  759MOL0     H  133   0.116   6.613  -0.299 -1.5008 -2.8432  0.4285
  759MOL0     H  134   0.031   6.742  -0.206  1.7974  0.7682 -0.5109
  759MOL0     H  135  -0.131   6.506  -0.327 -1.7047 -0.8995  2.1013
  759MOL0     H  136  -0.077   6.652  -0.415 -3.4264 -1.1012 -1.8640
  759MOL0     H  137  -0.239   6.673  -0.167 -1.6025 -0.5874 -0.6136
  759MOL0     H  138  -0.207   6.797  -0.281  0.2042  0.5815  3.9860
  759MOL0     H  139  -0.440   6.661  -0.300 -0.4364  0.1874  0.7793
  759MOL0     H  140  -0.351   6.544  -0.385 -1.9043  1.0745 -0.4331
  759MOL0     H  141  -0.376   6.924  -0.409 -0.3225 -0.7140 -0.6564
  759MOL0     H  142  -0.402   7.007  -0.797  3.1118 -0.8835  0.6850
  759MOL0     H  143  -0.354   7.087  -0.642  2.5067 -1.2725 -1.0323
  759MOL0     H  144  -0.639   7.008  -0.711  1.3669 -1.5796  0.2721
  759MOL0     H  145  -0.586   7.165  -0.743  1.6601 -0.3251 -1.0151
  759MOL0     H  146  -0.709   7.173  -0.539 -0.3368  0.4886  1.2714
  759MOL0     H  147  -0.594   7.051  -0.462  1.1015  0.2690  0.4187
  759MOL0     H  148  -0.495   7.316  -0.586 -1.3778 -0.2683 -0.8468
  759MOL0     H  149  -0.418   7.224  -0.465 -0.2768 -0.0460 -1.0358
  759MOL0     H  150  -0.546   7.556  -0.286  1.6576  4.3122 -0.0499
  759MOL0     H  151  -0.584   7.782  -0.372 -1.4848  1.2324 -2.1184
  759MOL0     H  152  -0.998   8.026  -0.736 -1.0869  0.0694 -0.8899
  759MOL0     H  153  -1.004   8.210  -0.870  1.5349  3.6157 -1.7149
  759MOL0     H  154  -0.767   8.204  -1.222 -1.1144  1.3061 -2.4470
  759MOL0     H  155  -0.676   8.347  -1.178  0.6366  0.3120 -3.8788
  759MOL0     H  156  -0.833   8.418  -1.350  1.7289 -4.4641 -1.1854
  759MOL0     H  157  -0.882   8.480  -1.187  4.1389 -0.7321  0.2017
  759MOL0     H  158  -1.054   8.280  -1.194 -0.9000 -1.2587 -1.3638
  759MOL0     H  159  -1.011   8.275  -1.362 -0.3413 -1.4613  1.4455
  759MOL0     H  160  -1.126   8.531  -1.224 -2.5274  0.0631 -0.2491
  759MOL0     H  161  -1.086   8.501  -1.394 -0.0473 -1.7632 -1.2894
  759MOL0     H  162  -1.313   8.399  -1.220 -2.1493 -0.1297 -1.0050
  759MOL0     H  163  -1.251   8.299  -1.359  0.4426  1.1951 -1.2648
  759MOL0     H  164  -1.439   8.427  -1.458  1.6864 -0.0683 -2.2782
  759MOL0     H  165  -1.289   8.493  -1.510  0.4424  0.6610  0.3899
  759MOL0     H  166  -1.456   8.583  -1.262 -0.9923  0.3148 -0.9074
  759MOL0     H  167  -1.328   8.683  -1.343  1.8661  0.0186 -1.0879
  759MOL0     H  168  -1.580   8.602  -1.490  3.4173 -3.2714  0.6865
  759MOL0     H  169  -1.469   8.745  -1.526  0.7830  0.5470  0.5491
  759MOL0     H  170  -0.591   8.119  -1.011 -0.6943 -2.2694 -2.3557
  759MOL0     H  171  -0.594   7.938  -0.865  0.5720 -1.4874  2.5017
  759MOL0     H  172  -0.813   7.600  -0.681  1.4811 -3.3059 -1.7656
  759MOL0     H  173  -0.758   7.380  -0.600  0.9906 -0.5659 -0.2970
  759MOL0     H  174   0.535   6.355   0.170 -0.6002  0.3606  1.4223
  759MOL0     H  175   0.592   6.332   0.402 -0.7077  1.1701  2.4526
  759MOL0     H  176   0.482   6.075   0.819  1.3140  0.5014  0.1826
  759MOL0     H  177   0.448   6.069   1.075  3.5893 -1.1041 -0.4349
  759MOL0     H  178   0.328   6.114   1.246 -1.0316  1.1442 -0.5732
  759MOL0     H  179   0.351   6.208   1.401  1.3471  1.0650  0.9381
  759MOL0     H  180   0.488   6.011   1.432  2.9209 -0.9677 -0.1239
  759MOL0     H  181   0.548   6.010   1.268  1.3026  0.8811 -0.0163
  759MOL0     H  182   0.685   6.129   1.484  3.5142  0.4626 -0.7511
  759MOL0     H  183   0.608   6.266   1.412  0.3694 -0.4853  4.1886
  759MOL0     H  184   0.723   6.187   1.193  1.3829  1.1573  0.0217
  759MOL0     H  185   0.824   6.250   1.325 -1.9624  0.4938  1.4542
  759MOL0     H  186   0.995   5.873   1.318 -1.4942 -1.0378 -0.2658
  759MOL0     H  187   0.478   6.486   1.098 -0.0639 -0.3823  0.0810
  759MOL0     H  188   0.528   6.500   0.848 -1.0059 -0.0222 -1.3891
  760MOL0     O  189   1.551   5.544   9.960  0.4675  0.4887 -0.2527
  760MOL0     C  190   1.455   5.612   9.908  0.2330  0.3801  0.2820
  760MOL0     O  191   1.381   5.566   9.808  0.0598 -0.9620 -0.4041
  760MOL0     C  192   1.360   5.433   9.780  0.2808  0.0382 -0.0053
  760MOL0     C  193   1.323   5.400   9.644  0.2198  0.7672  0.6733
  760MOL0     C  194   1.286   5.268   9.606 -0.4776  0.5186  0.0666
  760MOL0     C  195   1.314   5.167   9.702 -0.0674  0.4939 -0.4224
  760MOL0     O  196   1.312   5.028   9.678  0.2202 -0.5020  0.1202
  760MOL0     C  197   1.427   4.982   9.599  1.6647 -1.4899 -0.5210
  760MOL0     C  198   1.509   4.889   9.689 -0.2817 -0.2137  0.3712
  760MOL0     C  199   1.433   4.766   9.724  0.6006  0.6370  0.6874
  760MOL0     C  200   1.507   4.668   9.816  0.5292  0.8204  0.4035
  760MOL0     C  201   1.445   4.531   9.836  0.3055 -0.1197 -0.8100
  760MOL0     C  202   1.509   4.446   9.948  0.6740  0.2232  0.4792
  760MOL0     C  203   1.657   4.398   9.909  0.1096  0.5041 -0.4639
  760MOL0     C  204   1.697   4.282  10.006 -0.6416  0.1564  0.3261
  760MOL0     N  205   1.658   4.156   9.952  0.2721  0.6083 -0.9489
  760MOL0     C  206   1.720   4.070   9.857  0.3220 -0.7875  0.5014
  760MOL0     C  207   1.658   3.951   9.867 -0.2419  0.5205  0.0475
  760MOL0     C  208   1.719   3.828   9.802 -0.5429  1.2549  0.3155
  760MOL0     C  209   1.630   3.757   9.698 -0.0430  0.2905  0.8459
  760MOL0     C  210   1.681   3.785   9.557  0.3064  0.4521  0.3165
  760MOL0     C  211   1.817   3.728   9.525 -0.8776  0.3725  0.4601
  760MOL0     O  212   1.852   3.750   9.389  0.4520 -1.6351  0.3598
  760MOL0     C  213   1.971   3.701   9.341 -0.2820 -0.0377 -0.0491
  760MOL0     C  214   2.074   3.654   9.420  0.4522  0.3990  0.0125
  760MOL0     C  215   2.183   3.592   9.358  0.1656  0.5000  0.3910
  760MOL0     C  216   2.193   3.592   9.220  0.0593 -0.5297  0.8889
  760MOL0     C  217   2.309   3.529   9.140 -0.5177  0.2069  1.2903
  760MOL0     O  218   2.360   3.416   9.184  0.3984 -0.5850 -0.2296
  760MOL0     C  219   2.452   3.356   9.106 -0.2744  0.4905  0.2049
  760MOL0     C  220   2.581   3.415   9.078  0.3941  0.7106 -0.4378
  760MOL0     C  221   2.674   3.325   9.016  0.2821  0.3790  0.7947
  760MOL0     C  222   2.649   3.190   9.005  0.2648  0.8686 -0.3497
  760MOL0     O  223   2.762   3.121   8.979  0.1278 -1.0451 -0.5874
  760MOL0     C  224   2.755   2.992   8.920  0.4334  0.1086  0.7554
  760MOL0     C  225   2.887   2.977   8.841  0.8485 -0.4157 -0.4254
  760MOL0     C  226   3.007   2.954   8.938  0.2654  0.2111 -0.5304
  760MOL0     C  227   3.129   2.908   8.868 -0.3726  0.7052  0.2876
  760MOL0     C  228   3.243   2.888   8.978 -0.3433 -0.4642  1.0359
  760MOL0     C  229   3.307   3.027   9.020  0.1945  0.2224 -0.6593
  760MOL0     C  230   3.405   3.033   9.134 -0.1875 -0.3204 -0.6534
  760MOL0     C  231   3.432   3.177   9.185  0.4931 -0.2266 -0.2248
  760MOL0    Cl  232   3.570   3.234   9.091  0.1168  0.1596  0.0484
  760MOL0     C  233   2.515   3.145   9.023 -0.8308  0.4236 -0.1130
  760MOL0     C  234   2.422   3.229   9.075 -0.1338  0.7864  0.3851
  760MOL0     O  235   2.342   3.598   9.043 -0.2434  0.5620  0.4902
  760MOL0     C  236   2.092   3.645   9.137 -0.3227 -0.9824 -0.6882
  760MOL0     C  237   1.982   3.699   9.204 -0.0320 -0.4249 -0.4737
  760MOL0     N  238   1.549   3.963   9.954  0.4878  0.5764  0.5063
  760MOL0     N  239   1.545   4.088   9.996  1.0344  0.5017  0.4657
  760MOL0     C  240   1.336   5.200   9.837 -0.9926 -0.0976 -0.4880
  760MOL0     C  241   1.366   5.335   9.871 -0.6618  0.0721  0.3455
  760MOL0     C  242   1.423   5.747   9.960  0.6691 -0.8946  0.7078
  760MOL0     C  243   1.328   5.831   9.899 -0.3547 -0.6606 -1.3343
  760MOL0     C  244   1.308   5.956   9.956 -0.4807 -0.0430  0.8097
  760MOL0     C  245   1.363   5.996  10.075 -0.9211  0.1794 -0.4824
  760MOL0     O  246   1.332   6.112  10.138  0.2186 -0.1593 -0.5555
  760MOL0     C  247   1.198   6.165  10.128  0.5938 -0.5320  0.2112
  760MOL0     C  248   1.191   6.282  10.040 -0.3828 -1.1285  0.1726
  760MOL0     C  249   1.231   6.416  10.103 -0.6474  0.1403  0.7095
  760MOL0     C  250   1.181   6.539  10.027 -0.1345 -0.2664 -0.0826
  760MOL0     C  251   1.254   6.556   9.901  0.2015  0.4755 -0.6039
  760MOL0     C  252   1.338   6.570   9.813  0.2804 -0.5466  0.2100
  760MOL0     C  253   1.458   5.912  10.133 -0.3658 -0.4943 -0.1381
  760MOL0     C  254   1.479   5.780  10.084 -0.1221  0.6156  0.3239
  760MOL0     H  255   1.303   5.478   9.572 -2.3270 -0.6915 -0.3343
  760MOL0     H  256   1.253   5.245   9.506 -0.8299 -3.0987  0.8885
  760MOL0     H  257   1.497   5.059   9.567  0.5772 -0.3246 -0.1854
  760MOL0     H  258   1.391   4.932   9.509  0.6288 -1.8892  0.0977
  760MOL0     H  259   1.534   4.940   9.782 -2.2635  4.8167 -1.4869
  760MOL0     H  260   1.600   4.865   9.634  0.8318  3.3886  0.3604
  760MOL0     H  261   1.404   4.713   9.633 -1.2245  2.3529  0.2083
  760MOL0     H  262   1.336   4.784   9.772 -0.5826 -2.2748 -0.3847
  760MOL0     H  263   1.607   4.649   9.776 -0.0741 -0.9658 -0.3512
  760MOL0     H  264   1.525   4.715   9.913 -0.2757 -0.6228  1.2858
  760MOL0     H  265   1.469   4.486   9.740  0.2198 -1.5679 -0.1885
  760MOL0     H  266   1.336   4.540   9.840  0.2997 -0.5906  0.7641
  760MOL0     H  267   1.440   4.363   9.969  0.2168  0.8320  1.4490
  760MOL0     H  268   1.506   4.505  10.040  0.2870  0.7141  0.1592
  760MOL0     H  269   1.658   4.371   9.803 -0.8662  0.2778 -0.4243
  760MOL0     H  270   1.736   4.472   9.926  0.8811 -0.9988  3.5724
  760MOL0     H  271   1.657   4.293  10.107 -1.3359  2.2430 -0.1171
  760MOL0     H  272   1.806   4.278  10.006 -0.6152  0.5404 -0.4627
  760MOL0     H  273   1.807   4.089   9.795  1.5900 -2.9732  1.4792
  760MOL0     H  274   1.739   3.761   9.885  0.2061  2.7920  1.4359
  760MOL0     H  275   1.814   3.850   9.752 -0.8717  0.0589 -0.9019
  760MOL0     H  276   1.527   3.793   9.708 -0.5515 -0.5659 -0.8206
  760MOL0     H  277   1.631   3.648   9.713  2.3200  0.3542  1.4697
  760MOL0     H  278   1.614   3.738   9.484  0.1060 -2.9474  2.4303
  760MOL0     H  279   1.677   3.894   9.557  0.2410  0.4553  1.2156
  760MOL0     H  280   1.841   3.630   9.565  1.1990  2.4210  4.9643
  760MOL0     H  281   1.890   3.786   9.582  1.0198  0.2858 -1.7351
  760MOL0     H  282   2.064   3.669   9.527  1.5719 -1.2094  0.3927
  760MOL0     H  283   2.267   3.553   9.413 -0.0452 -3.1358 -1.5873
  760MOL0     H  284   2.606   3.514   9.112  0.4390 -0.1526  2.2498
  760MOL0     H  285   2.776   3.362   9.005 -0.3647  1.7414 -1.2508
  760MOL0     H  286   2.687   3.001   8.835  2.4109 -1.7233 -1.1286
  760MOL0     H  287   2.741   2.903   8.981  2.5720 -1.2996 -0.6761
  760MOL0     H  288   2.889   3.064   8.774 -1.2376  0.0701  0.0910
  760MOL0     H  289   2.868   2.886   8.783 -0.8095 -0.1557 -0.3298
  760MOL0     H  290   2.976   2.873   9.004 -0.7649  1.6655  0.8367
  760MOL0     H  291   3.030   3.039   9.002  1.0067 -1.4210  1.4872
  760MOL0     H  292   3.102   2.813   8.821 -1.2009  0.6875  0.7712
  760MOL0     H  293   3.147   2.977   8.786 -0.7151 -1.3898 -1.6573
  760MOL0     H  294   3.321   2.829   8.929 -1.6606  0.1991 -2.0588
  760MOL0     H  295   3.208   2.834   9.067  0.2061 -1.4537  0.6634
  760MOL0     H  296   3.223   3.085   9.058 -0.2721 -2.0740  2.2059
  760MOL0     H  297   3.340   3.071   8.925 -2.1435  0.1816 -1.5360
  760MOL0     H  298   3.352   2.975   9.210  0.6075  0.0942  0.2334
  760MOL0     H  299   3.498   2.985   9.104  0.2292 -0.4205  0.7281
  760MOL0     H  300   3.462   3.183   9.290  1.7352 -1.6612 -0.4592
  760MOL0     H  301   3.341   3.236   9.176 -0.0963 -1.3961 -3.4924
  760MOL0     H  302   2.478   3.044   9.002 -1.5011  0.8558 -1.0878
  760MOL0     H  303   2.320   3.198   9.093  0.3541 -0.0389  1.9267
  760MOL0     H  304   2.104   3.637   9.029 -3.8686  1.5150 -1.4442
  760MOL0     H  305   1.897   3.729   9.143 -1.8259 -0.3156  1.9098
  760MOL0     H  306   1.343   5.126   9.917 -0.1359 -0.2742 -0.7135
  760MOL0     H  307   1.392   5.350   9.976  2.2706 -0.0667 -0.2594
  760MOL0     H  308   1.270   5.809   9.810 -0.7062  0.3140 -1.3651
  760MOL0     H  309   1.242   6.027   9.908  1.1472  1.0427  0.1322
  760MOL0     H  310   1.160   6.191  10.227  3.3238  0.5074  1.0640
  760MOL0     H  311   1.132   6.094  10.076  1.7822  0.4490 -2.8728
  760MOL0     H  312   1.261   6.272   9.956 -0.1187  3.5727 -0.4380
  760MOL0     H  313   1.091   6.303   9.999  0.7987  0.3949 -2.1595
  760MOL0     H  314   1.340   6.426  10.114 -0.6108 -0.1039  0.5678
  760MOL0     H  315   1.196   6.419  10.206 -1.1725 -1.2829  0.5816
  760MOL0     H  316   1.074   6.534  10.005 -1.1095 -0.3179  3.9378
  760MOL0     H  317   1.195   6.626  10.093 -2.8367 -1.4247  2.2255
  760MOL0     H  318   1.417   6.591   9.745  0.1376  0.9643  0.4829
  760MOL0     H  319   1.530   5.937  10.209 -2.1702  1.1721  1.1178
  760MOL0     H  320   1.556   5.718  10.130 -1.2230 -0.8726  0.2477
  761MOL0     O  321   5.163   0.812   1.131  0.5686  0.4511 -0.7959
  761MOL0     C  322   5.090   0.889   1.197 -0.4149 -0.1608 -0.5705
  761MOL0     O  323   4.986   0.847   1.273 -0.4461  0.0505  0.0708
  761MOL0     C  324   4.955   0.718   1.296 -0.3613 -0.3024 -0.4831
  761MOL0     C  325   5.052   0.636   1.347  0.2261 -0.1027 -1.1241
  761MOL0     C  326   5.028   0.498   1.358 -0.1759 -0.9462  0.3682
  761MOL0     C  327   4.903   0.440   1.335  0.1445  0.3356  0.0954
  761MOL0     O  328   4.875   0.308   1.352  0.1696  0.3846  0.2046
  761MOL0     C  329   4.806   0.245   1.239  0.0301  0.2378 -1.1780
  761MOL0     C  330   4.861   0.110   1.214  0.1503 -0.4573  0.0730
  761MOL0     C  331   4.988   0.100   1.133 -0.7761  0.0652  0.4383
  761MOL0     C  332   5.056  -0.044   1.140 -0.1071  0.0367  0.5544
  761MOL0     C  333   5.181  -0.047   1.054 -0.2433  0.1473  0.6231
  761MOL0     C  334   5.229  -0.193   1.046 -0.5651  0.4623 -0.3014
  761MOL0     C  335   5.329  -0.206   0.933 -0.9248  0.1107 -0.6816
  761MOL0     C  336   5.366  -0.347   0.908 -0.6545  0.5945  0.0907
  761MOL0     N  337   5.454  -0.371   0.788 -0.2401  0.4964  0.3565
  761MOL0     C  338   5.570  -0.306   0.743  0.3858 -0.1283 -0.1458
  761MOL0     C  339   5.615  -0.375   0.635 -0.0772  0.4748  0.1539
  761MOL0     C  340   5.739  -0.332   0.562 -0.4968  0.3856  0.5349
  761MOL0     C  341   5.797  -0.450   0.483  0.4957  0.2352  0.0310
  761MOL0     C  342   5.897  -0.396   0.380  0.0681  0.4514 -0.5850
  761MOL0     C  343   5.958  -0.510   0.301  0.1863  0.9098  0.0289
  761MOL0     O  344   5.871  -0.544   0.189 -0.9036 -0.2785  0.5978
  761MOL0     C  345   5.941  -0.614   0.092 -0.6404 -0.1243  0.5016
  761MOL0     C  346   6.060  -0.688   0.108 -0.1751 -0.2042  0.3653
  761MOL0     C  347   6.096  -0.780   0.011  0.2945  0.0494 -0.2206
  761MOL0     C  348   6.023  -0.798  -0.108  0.3109 -0.4909  0.2286
  761MOL0     C  349   6.070  -0.880  -0.222  0.4039  0.4886  0.2772
  761MOL0     O  350   6.027  -0.855  -0.344  0.8202 -0.6444 -0.2480
  761MOL0     C  351   6.067  -0.932  -0.442 -0.0450 -0.3756 -0.4555
  761MOL0     C  352   6.031  -1.069  -0.447  0.9245 -0.8047  0.2510
  761MOL0     C  353   6.064  -1.161  -0.554  0.4577  0.5830  0.9601
  761MOL0     C  354   6.141  -1.101  -0.659 -0.6670 -0.3380 -0.1724
  761MOL0     O  355   6.160  -1.158  -0.785 -0.0367  0.0941  0.2046
  761MOL0     C  356   6.227  -1.102  -0.898 -0.4782 -0.3050  0.2050
  761MOL0     C  357   6.265  -1.213  -1.002  0.2155  0.6137 -0.7371
  761MOL0     C  358   6.342  -1.175  -1.133  1.0550  0.3147 -0.4025
  761MOL0     C  359   6.258  -1.104  -1.237  0.3596 -0.2586 -0.3891
  761MOL0     C  360   6.329  -1.088  -1.370  0.4038  0.5783 -0.6399
  761MOL0     C  361   6.234  -1.028  -1.473  1.0397 -0.1096  0.1509
  761MOL0     C  362   6.280  -1.051  -1.611 -0.1486  0.4989  0.6538
  761MOL0     C  363   6.251  -1.198  -1.652  0.1181 -0.0667  0.2107
  761MOL0    Cl  364   6.082  -1.235  -1.638  0.1020  0.3088  0.0636
  761MOL0     C  365   6.179  -0.963  -0.649  0.9218  0.0901 -0.6183
  761MOL0     C  366   6.139  -0.884  -0.536  0.3431 -0.8330  0.4883
  761MOL0     O  367   6.138  -0.980  -0.187 -0.2765 -0.2002  0.7299
  761MOL0     C  368   5.895  -0.732  -0.117  0.3823 -0.2736  0.1920
  761MOL0     C  369   5.862  -0.637  -0.018  0.3229 -0.1433 -0.6622
  761MOL0     N  370   5.520  -0.474   0.616  0.3803  0.1815  1.0125
  761MOL0     N  371   5.423  -0.468   0.698 -0.7031 -0.0271 -0.4852
  761MOL0     C  372   4.795   0.533   1.308  0.2508 -0.6528 -0.7878
  761MOL0     C  373   4.824   0.678   1.302  0.4329  0.5751 -0.3284
  761MOL0     C  374   5.132   1.027   1.210 -0.0834  0.4030  0.0229
  761MOL0     C  375   5.180   1.095   1.096 -0.1098  0.1701  0.3570
  761MOL0     C  376   5.219   1.231   1.108  0.3034 -0.5314 -0.8068
  761MOL0     C  377   5.201   1.303   1.220  0.0501 -0.4038 -0.1718
  761MOL0     O  378   5.251   1.432   1.225  0.8246  0.0989  0.2769
  761MOL0     C  379   5.271   1.505   1.344 -0.7550  0.3034  0.3812
  761MOL0     C  380   5.351   1.629   1.314  1.0417  0.5117 -0.4400
  761MOL0     C  381   5.490   1.603   1.276  0.5490 -0.3914  0.1745
  761MOL0     C  382   5.572   1.621   1.406 -0.1595  1.2053 -0.4355
  761MOL0     C  383   5.593   1.756   1.446 -0.0996  0.1168  0.5166
  761MOL0     C  384   5.608   1.882   1.458  0.1079 -0.3773  0.9813
  761MOL0     C  385   5.142   1.233   1.328  0.6656  0.3180 -0.5420
  761MOL0     C  386   5.104   1.098   1.326  0.1096  0.5524  0.2980
  761MOL0     H  387   5.152   0.671   1.371  0.7017 -1.9180 -0.2263
  761MOL0     H  388   5.111   0.437   1.392 -1.5714 -2.6501  0.8642
  761MOL0     H  389   4.811   0.302   1.146 -0.8973  1.0694 -0.7406
  761MOL0     H  390   4.700   0.244   1.263 -0.2517  3.5777 -1.8021
  761MOL0     H  391   4.798   0.037   1.161  3.0661 -3.7515  0.7750
  761MOL0     H  392   4.875   0.068   1.314  2.0093 -2.3619 -0.9173
  761MOL0     H  393   5.046   0.179   1.182 -1.0033 -0.5088  1.6704
  761MOL0     H  394   4.964   0.112   1.027 -2.9404 -0.7405  0.7909
  761MOL0     H  395   5.093  -0.057   1.242  0.0719 -1.4860  0.3086
  761MOL0     H  396   4.990  -0.130   1.126  3.7531 -3.0860  0.0583
  761MOL0     H  397   5.251   0.032   1.083 -0.8544  0.6631  0.7285
  761MOL0     H  398   5.157  -0.028   0.949 -0.3687 -2.8339  0.0326
  761MOL0     H  399   5.139  -0.246   1.013 -1.9435  2.5683 -0.1154
  761MOL0     H  400   5.255  -0.231   1.145 -1.2467 -1.9613 -0.9976
  761MOL0     H  401   5.295  -0.153   0.843  1.0569  2.3872 -0.1972
  761MOL0     H  402   5.422  -0.153   0.958 -0.1613 -0.2864 -2.4674
  761MOL0     H  403   5.277  -0.409   0.898 -0.4321  0.2492  0.2093
  761MOL0     H  404   5.419  -0.388   0.995  0.9878  0.2182 -1.0266
  761MOL0     H  405   5.612  -0.213   0.781 -0.8013  0.7199 -0.8296
  761MOL0     H  406   5.818  -0.314   0.636  2.6521 -0.4925 -2.3558
  761MOL0     H  407   5.713  -0.250   0.495  3.7927 -0.9506 -3.2395
  761MOL0     H  408   5.716  -0.507   0.437 -0.2366  1.4447 -0.2166
  761MOL0     H  409   5.854  -0.512   0.553  2.0059  2.7384  1.1786
  761MOL0     H  410   5.848  -0.333   0.305 -0.6505 -0.0004 -0.4998
  761MOL0     H  411   5.965  -0.325   0.429 -0.7917  0.9648 -0.1082
  761MOL0     H  412   5.978  -0.600   0.360  1.9985  1.3649  0.1603
  761MOL0     H  413   6.059  -0.484   0.267  0.4031  1.0320  0.7500
  761MOL0     H  414   6.121  -0.691   0.198  1.5172 -4.0817 -0.6916
  761MOL0     H  415   6.189  -0.832   0.032  0.7949 -0.0642 -2.4928
  761MOL0     H  416   5.967  -1.112  -0.371 -0.0950 -1.0447 -0.7042
  761MOL0     H  417   6.011  -1.255  -0.565  1.2399  0.3012 -0.6829
  761MOL0     H  418   6.306  -1.031  -0.870  1.9931 -1.6366 -2.6880
  761MOL0     H  419   6.152  -1.042  -0.951 -0.7290 -0.6158  0.2062
  761MOL0     H  420   6.183  -1.281  -1.025  0.2754 -0.4726  1.9114
  761MOL0     H  421   6.341  -1.275  -0.954  0.4557  1.8471  0.5526
  761MOL0     H  422   6.371  -1.271  -1.177 -0.7053  0.5805 -2.3184
  761MOL0     H  423   6.429  -1.114  -1.105  0.8868  1.1672 -1.6425
  761MOL0     H  424   6.171  -1.167  -1.256 -0.3538  0.7665 -0.6538
  761MOL0     H  425   6.225  -1.004  -1.207 -1.4631 -1.5205  2.1999
  761MOL0     H  426   6.359  -1.187  -1.405  1.6310  1.0246 -0.9113
  761MOL0     H  427   6.418  -1.025  -1.361 -0.0158  1.2237 -0.9125
  761MOL0     H  428   6.225  -0.920  -1.458 -0.5833  0.0323 -1.3991
  761MOL0     H  429   6.136  -1.070  -1.448  0.7263  2.3946  4.1068
  761MOL0     H  430   6.223  -0.997  -1.687  1.8596  2.1141  0.2145
  761MOL0     H  431   6.386  -1.032  -1.628 -0.3699  0.5851 -0.7764
  761MOL0     H  432   6.315  -1.269  -1.599  0.6504  0.2895  0.0598
  761MOL0     H  433   6.291  -1.200  -1.754 -0.1607  0.6775  0.0748
  761MOL0     H  434   6.224  -0.918  -0.737  2.9240  2.9306  1.6528
  761MOL0     H  435   6.160  -0.777  -0.539 -3.1106 -0.0532 -1.6177
  761MOL0     H  436   5.827  -0.766  -0.193  1.3965  1.7072 -1.7297
  761MOL0     H  437   5.774  -0.576  -0.033  0.6459  0.7702  0.9438
  761MOL0     H  438   4.697   0.491   1.287  0.5506 -2.9659  1.8777
  761MOL0     H  439   4.745   0.751   1.285 -1.6990 -2.2181 -3.9224
  761MOL0     H  440   5.216   1.034   1.014  0.1324  0.6859  0.0791
  761MOL0     H  441   5.255   1.286   1.021  1.6475 -0.7086 -0.3862
  761MOL0     H  442   5.325   1.446   1.418 -0.0169  0.2169 -0.2271
  761MOL0     H  443   5.174   1.531   1.389 -1.4623  0.3416 -1.1297
  761MOL0     H  444   5.300   1.675   1.230  1.5178  0.9930 -0.4661
  761MOL0     H  445   5.347   1.687   1.407  2.8940 -1.0035  0.6480
  761MOL0     H  446   5.518   1.675   1.199 -4.2073 -0.2009 -1.7765
  761MOL0     H  447   5.490   1.502   1.234  1.3103 -0.8609  1.2654
  761MOL0     H  448   5.521   1.572   1.489 -3.4968  0.5876 -2.6394
  761MOL0     H  449   5.672   1.579   1.390  0.4086  1.7077  1.5232
  761MOL0     H  450   5.636   1.982   1.485 -1.6259 -1.0291  6.2736
  761MOL0     H  451   5.119   1.296   1.413 -0.1087 -1.6261  0.7724
  761MOL0     H  452   5.059   1.058   1.416  0.6255  0.3016  0.4475
  762MOL0     O  453   1.992   7.768   2.609 -0.2118  0.4590  0.3263
  762MOL0     C  454   2.032   7.779   2.491 -0.8418  0.5812 -0.8571
  762MOL0     O  455   2.149   7.726   2.445 -0.0586  0.3555 -0.4779
  762MOL0     C  456   2.231   7.651   2.520  0.1168  0.2259  0.1305
  762MOL0     C  457   2.316   7.705   2.616 -0.4989 -0.7310 -0.6232
  762MOL0     C  458   2.421   7.627   2.674  0.0720 -0.4307  0.2450
  762MOL0     C  459   2.436   7.494   2.620  0.6166  0.2797  0.6920
  762MOL0     O  460   2.537   7.406   2.662  0.8413 -0.6789  0.2777
  762MOL0     C  461   2.644   7.453   2.743  0.5260 -0.0532 -0.1415
  762MOL0     C  462   2.751   7.543   2.669 -0.0215  0.5898 -0.7266
  762MOL0     C  463   2.877   7.600   2.749  0.2824 -0.3327 -1.1503
  762MOL0     C  464   2.830   7.709   2.845  0.0893 -1.0539  0.0084
  762MOL0     C  465   2.934   7.743   2.943  0.0400  0.3265 -0.5065
  762MOL0     C  466   2.908   7.858   3.033 -0.0324  0.7116  0.0965
  762MOL0     C  467   2.772   7.854   3.099  0.5691  0.0035  0.2878
  762MOL0     C  468   2.785   7.894   3.241 -0.4452 -0.7678 -0.0812
  762MOL0     N  469   2.831   7.779   3.318 -1.4420 -0.1642 -0.4014
  762MOL0     C  470   2.752   7.701   3.399  0.4865 -1.0344 -0.4111
  762MOL0     C  471   2.836   7.604   3.452 -0.8614 -0.2768  0.4947
  762MOL0     C  472   2.789   7.478   3.514 -0.2299  0.4980  0.1396
  762MOL0     C  473   2.807   7.377   3.398 -0.0042  0.2176  0.0738
  762MOL0     C  474   2.784   7.230   3.463  0.4416 -1.0964  0.0201
  762MOL0     C  475   2.813   7.126   3.355  0.4782  0.1623  0.3130
  762MOL0     O  476   2.816   6.987   3.404  0.5562 -0.0844 -0.4702
  762MOL0     C  477   2.930   6.936   3.456 -0.3234 -0.3129  0.4308
  762MOL0     C  478   2.942   6.800   3.478  0.3219  1.1033 -0.6856
  762MOL0     C  479   3.066   6.743   3.518  0.8823 -0.3716 -0.3810
  762MOL0     C  480   3.179   6.817   3.528  0.7537  0.3797  0.6164
  762MOL0     C  481   3.305   6.748   3.572  0.4082 -0.1469  0.3273
  762MOL0     O  482   3.421   6.765   3.505  0.0687 -0.0452 -0.0938
  762MOL0     C  483   3.533   6.703   3.554 -0.0381  0.9296 -0.5839
  762MOL0     C  484   3.623   6.647   3.451 -0.2978 -0.4407  0.6196
  762MOL0     C  485   3.755   6.604   3.474 -0.4248 -0.2151 -0.0512
  762MOL0     C  486   3.800   6.604   3.609  1.0749 -0.4686  0.2960
  762MOL0     O  487   3.925   6.576   3.660 -0.2783  0.9943 -0.0971
  762MOL0     C  488   4.027   6.665   3.628 -0.8599 -0.5400  0.9214
  762MOL0     C  489   4.167   6.601   3.636 -0.9387 -1.2182  0.4949
  762MOL0     C  490   4.195   6.530   3.501 -0.2995  0.5005  0.2053
  762MOL0     C  491   4.335   6.476   3.495 -0.0847 -0.0194 -0.5211
  762MOL0     C  492   4.355   6.347   3.580 -0.5492 -0.1367  0.4636
  762MOL0     C  493   4.491   6.281   3.560 -0.4632 -0.3580  0.1653
  762MOL0     C  494   4.502   6.230   3.415 -0.6734  0.6211  0.3216
  762MOL0     C  495   4.599   6.328   3.334  0.4507 -0.3476 -0.4454
  762MOL0    Cl  496   4.582   6.304   3.162  0.0887 -0.2223  0.4928
  762MOL0     C  497   3.708   6.657   3.712  0.1481  0.1442  0.9871
  762MOL0     C  498   3.580   6.703   3.684 -0.7004  0.1041 -0.0223
  762MOL0     O  499   3.291   6.682   3.671  0.4585 -0.1170  0.0392
  762MOL0     C  500   3.172   6.953   3.512  0.9114  0.3071 -0.1716
  762MOL0     C  501   3.047   7.016   3.482 -0.6209  0.9965 -0.0057
  762MOL0     N  502   2.970   7.635   3.421 -0.2284 -0.9136  0.2182
  762MOL0     N  503   2.961   7.743   3.352 -0.1754  0.6847  0.2651
  762MOL0     C  504   2.347   7.442   2.523 -0.3656 -0.2213 -0.6663
  762MOL0     C  505   2.247   7.521   2.470  0.6073 -0.0193  0.2966
  762MOL0     C  506   1.963   7.851   2.389  0.8109 -0.1512  0.0998
  762MOL0     C  507   2.032   7.906   2.280  0.1318  0.1632  0.6865
  762MOL0     C  508   1.976   8.000   2.186  1.7767  0.7217  0.4100
  762MOL0     C  509   1.849   8.041   2.207 -0.1723  0.4832 -0.0578
  762MOL0     O  510   1.787   8.134   2.130 -0.1719  0.8606 -0.2287
  762MOL0     C  511   1.883   8.219   2.050 -0.1481 -0.8473 -0.4272
  762MOL0     C  512   1.831   8.359   2.004  0.1166  0.5421  0.2601
  762MOL0     C  513   1.883   8.460   2.110 -0.4022 -0.2140  0.1949
  762MOL0     C  514   1.831   8.445   2.260 -0.1290  0.9820  0.9225
  762MOL0     C  515   1.875   8.558   2.337 -0.5585  0.9522  0.4505
  762MOL0     C  516   1.912   8.656   2.403 -0.0846  0.1736 -0.5360
  762MOL0     C  517   1.779   7.990   2.314 -0.2694  0.4872 -0.3917
  762MOL0     C  518   1.832   7.897   2.405 -0.2161 -0.1411  0.3581
  762MOL0     H  519   2.290   7.794   2.672  2.8204  1.1779 -1.8273
  762MOL0     H  520   2.483   7.671   2.752 -0.0302  2.1766 -1.0490
  762MOL0     H  521   2.685   7.356   2.771  1.3589  0.3178 -0.0579
  762MOL0     H  522   2.600   7.505   2.829  0.6468  1.6451 -1.0760
  762MOL0     H  523   2.701   7.631   2.628  2.6891  2.0647 -1.0775
  762MOL0     H  524   2.787   7.477   2.590 -1.7708 -0.4303 -0.7434
  762MOL0     H  525   2.957   7.639   2.686  2.4239 -2.3071  0.1750
  762MOL0     H  526   2.923   7.529   2.819  1.0193  2.2630  1.1668
  762MOL0     H  527   2.813   7.805   2.795 -2.8587 -0.1221  2.4719
  762MOL0     H  528   2.742   7.669   2.896 -0.4472  0.0665  0.0012
  762MOL0     H  529   3.030   7.763   2.895 -0.3681  0.4754 -1.2714
  762MOL0     H  530   2.956   7.658   3.009  0.5855 -0.6631 -1.9279
  762MOL0     H  531   2.918   7.953   2.979 -2.0326 -0.3181 -2.3255
  762MOL0     H  532   2.987   7.843   3.106  0.0223 -1.0136 -0.2854
  762MOL0     H  533   2.699   7.911   3.041  1.7405 -0.2773 -1.5146
  762MOL0     H  534   2.744   7.748   3.102  2.2266 -0.4400  1.3497
  762MOL0     H  535   2.687   7.934   3.267 -0.7438  0.3814 -2.6995
  762MOL0     H  536   2.857   7.976   3.249 -0.2797 -0.7757 -1.4111
  762MOL0     H  537   2.648   7.696   3.431  0.9702 -1.2476  1.2215
  762MOL0     H  538   2.686   7.480   3.549 -0.0897 -1.4125  0.8098
  762MOL0     H  539   2.863   7.463   3.594  0.1294  1.1574 -0.0597
  762MOL0     H  540   2.902   7.381   3.346 -0.0230 -1.3467 -0.1154
  762MOL0     H  541   2.732   7.405   3.323 -1.0441 -1.2267  0.5289
  762MOL0     H  542   2.851   7.211   3.547  3.7830  2.3284 -1.5931
  762MOL0     H  543   2.678   7.224   3.492  0.0582  1.5741 -0.5988
  762MOL0     H  544   2.901   7.147   3.293 -0.5325  0.6185 -1.0207
  762MOL0     H  545   2.732   7.126   3.282  1.2172 -3.2507 -0.7066
  762MOL0     H  546   2.860   6.737   3.446 -0.7941  2.1938 -0.0342
  762MOL0     H  547   3.054   6.641   3.552 -2.4329  0.2641  0.6998
  762MOL0     H  548   3.595   6.653   3.347 -0.5394  2.5384  0.7563
  762MOL0     H  549   3.839   6.587   3.406  0.9065  1.1706  1.1617
  762MOL0     H  550   4.025   6.743   3.705  2.3651  0.1143  0.4899
  762MOL0     H  551   4.022   6.710   3.529  0.1108 -0.0836  1.0648
  762MOL0     H  552   4.178   6.528   3.717 -0.5411 -1.8201 -0.0913
  762MOL0     H  553   4.239   6.682   3.655 -1.1040 -0.5180 -1.6467
  762MOL0     H  554   4.187   6.592   3.411 -2.9408  0.5951  0.4304
  762MOL0     H  555   4.119   6.452   3.489 -3.8608  4.0530 -3.1835
  762MOL0     H  556   4.364   6.460   3.391 -0.0240 -0.3388 -0.4567
  762MOL0     H  557   4.411   6.547   3.530  0.4800 -0.7582 -0.2138
  762MOL0     H  558   4.278   6.275   3.548 -0.2018 -1.6000  2.7228
  762MOL0     H  559   4.331   6.362   3.686 -2.6198  2.3666 -0.2302
  762MOL0     H  560   4.514   6.197   3.626  2.0903  1.4073  1.7029
  762MOL0     H  561   4.567   6.358   3.575 -0.7143 -0.4259  2.0824
  762MOL0     H  562   4.551   6.133   3.400 -1.0505  0.3828  0.6389
  762MOL0     H  563   4.401   6.218   3.375 -0.2446 -0.9470 -0.3604
  762MOL0     H  564   4.705   6.330   3.362 -0.5123  0.0978  3.6894
  762MOL0     H  565   4.575   6.433   3.348  1.4046  0.0964 -1.8885
  762MOL0     H  566   3.741   6.639   3.814  1.1943 -0.3415  0.5861
  762MOL0     H  567   3.528   6.747   3.769 -0.5780 -1.5722  0.9749
  762MOL0     H  568   3.272   6.994   3.511  1.5958 -1.2860 -0.7412
  762MOL0     H  569   3.043   7.121   3.455 -1.1134  1.4087  1.5553
  762MOL0     H  570   2.348   7.338   2.490 -0.3665  0.5418 -3.3228
  762MOL0     H  571   2.192   7.489   2.382  2.5532 -1.8135 -0.3393
  762MOL0     H  572   2.135   7.875   2.268 -0.1159 -1.4544  2.3668
  762MOL0     H  573   2.045   8.027   2.107  2.0811  0.8507  0.7131
  762MOL0     H  574   1.922   8.167   1.962  0.2626 -0.1888 -0.6386
  762MOL0     H  575   1.971   8.233   2.113 -1.4221  0.9294  1.0708
  762MOL0     H  576   1.867   8.377   1.902  3.5804 -4.8335  0.1540
  762MOL0     H  577   1.722   8.362   1.992  0.2787  1.5556 -1.1978
  762MOL0     H  578   1.853   8.554   2.065 -1.4509 -3.0187 -5.8905
  762MOL0     H  579   1.992   8.447   2.118 -0.5722 -1.3878  0.7424
  762MOL0     H  580   1.723   8.444   2.239  0.0961  4.0377 -1.0910
  762MOL0     H  581   1.876   8.356   2.304  0.3339  0.8720  0.2451
  762MOL0     H  582   1.932   8.749   2.452  1.9408 -0.8064  0.6066
  762MOL0     H  583   1.685   8.032   2.347 -0.7746 -0.6502 -0.3224
  762MOL0     H  584   1.765   7.868   2.485 -0.8369 -0.3002 -0.2129
  763MOL0     O  585   1.276   0.450   9.291 -0.2130 -0.9022  0.1210
  763MOL0     C  586   1.199   0.549   9.277 -0.4059 -0.0084 -0.7461
  763MOL0     O  587   1.066   0.544   9.244  0.7131 -0.3293 -0.3385
  763MOL0     C  588   1.014   0.426   9.195 -0.9429 -0.7645  0.2459
  763MOL0     C  589   0.949   0.418   9.066  0.4069  0.0884 -0.1111
  763MOL0     C  590   0.875   0.308   9.027 -0.1951  0.1804  0.5993
  763MOL0     C  591   0.867   0.200   9.108  0.4564 -0.2218  0.9767
  763MOL0     O  592   0.795   0.082   9.079 -0.3845  0.5366  0.7859
  763MOL0     C  593   0.816   0.036   8.944 -0.3133  0.1137 -0.4342
  763MOL0     C  594   0.760  -0.106   8.922 -0.1051  0.4640  0.0472
  763MOL0     C  595   0.614  -0.129   8.942 -0.2859 -0.5082  0.0811
  763MOL0     C  596   0.577  -0.126   9.098 -0.1210 -0.3453  1.1240
  763MOL0     C  597   0.439  -0.055   9.115 -0.5871  1.5964 -0.2594
  763MOL0     C  598   0.397  -0.066   9.255 -0.4054  0.7193 -0.6624
  763MOL0     C  599   0.249  -0.046   9.303  0.4848  0.2550  0.1854
  763MOL0     C  600   0.180   0.064   9.230  0.4486  0.1268 -0.3662
  763MOL0     N  601   0.031   0.057   9.279 -0.3056 -0.9420  0.4699
  763MOL0     C  602  -0.018   0.137   9.385 -0.7951 -0.0029 -0.0326
  763MOL0     C  603  -0.149   0.093   9.392  0.3699  0.5844  0.1219
  763MOL0     C  604  -0.255   0.143   9.481  0.5108  0.4399  0.7294
  763MOL0     C  605  -0.386   0.060   9.470 -0.3831 -0.9585 -0.9401
  763MOL0     C  606  -0.489   0.071   9.589 -0.2426  0.2450  1.0446
  763MOL0     C  607  -0.552   0.204   9.604  0.1848  1.0584 -0.6277
  763MOL0     O  608  -0.617   0.225   9.732 -0.1241  0.4161  0.1915
  763MOL0     C  609  -0.716   0.147   9.770  0.3232  0.9540 -1.2552
  763MOL0     C  610  -0.816   0.096   9.670 -0.2162 -0.4476  0.1245
  763MOL0     C  611  -0.932   0.045   9.716 -0.3749  0.6304  0.0860
  763MOL0     C  612  -0.962   0.040   9.856  0.1037 -0.0658  0.5337
  763MOL0     C  613  -1.081  -0.029   9.908 -0.3195 -0.4618 -0.0203
  763MOL0     O  614  -1.067  -0.057  10.037  0.3500 -0.4631  1.0392
  763MOL0     C  615  -1.175  -0.106  10.105  0.6135  0.9011  0.2361
  763MOL0     C  616  -1.233  -0.244  10.090  0.0208  0.2327 -0.8014
  763MOL0     C  617  -1.321  -0.294  10.176 -0.2616  0.6394 -0.1012
  763MOL0     C  618  -1.361  -0.217  10.283 -0.3818 -0.2076 -0.2044
  763MOL0     O  619  -1.439  -0.271  10.379 -0.2083 -0.0828  0.0758
  763MOL0     C  620  -1.538  -0.367  10.356  0.0436  1.1044 -0.2109
  763MOL0     C  621  -1.674  -0.302  10.353 -0.0623 -0.3769 -0.4750
  763MOL0     C  622  -1.723  -0.277  10.504 -0.4986 -0.3092 -0.3670
  763MOL0     C  623  -1.857  -0.196  10.510  0.1001  0.2402 -0.4113
  763MOL0     C  624  -1.925  -0.195  10.645  0.3363 -0.2885  0.0359
  763MOL0     C  625  -1.837  -0.110  10.732 -0.3146  0.1952 -0.0232
  763MOL0     C  626  -1.910  -0.031  10.841  0.5784  0.3576  0.3109
  763MOL0     C  627  -1.803   0.065  10.918 -0.7738 -0.2638  0.1838
  763MOL0    Cl  628  -1.745   0.205  10.811 -0.0982 -0.1093 -0.4961
  763MOL0     C  629  -1.324  -0.086  10.297 -0.1396 -0.8282 -0.1950
  763MOL0     C  630  -1.236  -0.034  10.202 -0.3018 -0.1963  0.0130
  763MOL0     O  631  -1.165  -0.078   9.833  0.9361  0.3012 -0.0807
  763MOL0     C  632  -0.873   0.099   9.947  0.1250 -0.1530 -0.1624
  763MOL0     C  633  -0.755   0.152   9.901  0.4308  0.4253 -0.2265
  763MOL0     N  634  -0.170   0.003   9.287  0.3969  0.7849  0.3893
  763MOL0     N  635  -0.062  -0.016   9.215  0.4081 -0.0496  0.3536
  763MOL0     C  636   0.938   0.200   9.230 -0.0839 -0.6493  0.3265
  763MOL0     C  637   1.003   0.318   9.278  0.3201  0.0710  0.2395
  763MOL0     C  638   1.249   0.681   9.313  0.8007 -0.4638 -0.7730
  763MOL0     C  639   1.383   0.701   9.310 -0.3942 -1.2528 -0.1394
  763MOL0     C  640   1.436   0.831   9.317  0.4225  0.9355  0.4389
  763MOL0     C  641   1.351   0.941   9.315  0.2736  0.1226 -0.9088
  763MOL0     O  642   1.410   1.065   9.295  0.4294 -0.6788  0.3951
  763MOL0     C  643   1.314   1.182   9.271  1.0005 -0.5772  0.1024
  763MOL0     C  644   1.394   1.300   9.229 -0.3696  0.3116  0.3521
  763MOL0     C  645   1.485   1.352   9.338  0.2359 -0.0556 -0.8818
  763MOL0     C  646   1.570   1.470   9.289  0.3753  0.2732  0.4591
  763MOL0     C  647   1.493   1.589   9.269  0.5953  0.2041 -0.6181
  763MOL0     C  648   1.429   1.689   9.274  0.0754  0.3813 -1.6880
  763MOL0     C  649   1.209   0.927   9.328  0.3129 -0.0988 -0.5286
  763MOL0     C  650   1.159   0.791   9.337  0.6162  0.2388  0.0018
  763MOL0     H  651   0.961   0.500   8.995  0.6235  0.6256  0.5324
  763MOL0     H  652   0.831   0.310   8.928  1.6889 -0.7124 -0.3068
  763MOL0     H  653   0.922   0.043   8.918  0.1556  0.1943  1.3576
  763MOL0     H  654   0.768   0.100   8.868  0.3499 -0.0486 -0.9929
  763MOL0     H  655   0.810  -0.181   8.984 -0.4560 -0.8490 -1.1880
  763MOL0     H  656   0.775  -0.139   8.818  1.5700 -0.6148  0.5855
  763MOL0     H  657   0.590  -0.224   8.894 -4.9924  0.1616  0.6442
  763MOL0     H  658   0.568  -0.045   8.889  0.2091  1.6678  2.8290
  763MOL0     H  659   0.581  -0.231   9.129 -0.9339 -2.0117 -3.6281
  763MOL0     H  660   0.651  -0.065   9.152 -0.7078  1.0859  0.3758
  763MOL0     H  661   0.366  -0.101   9.049  0.8855  0.1058 -0.9148
  763MOL0     H  662   0.439   0.052   9.091  0.1205  0.9933 -3.4194
  763MOL0     H  663   0.463   0.001   9.312  0.7224  1.5932 -2.8492
  763MOL0     H  664   0.417  -0.169   9.286 -0.9286 -0.7565 -4.6076
  763MOL0     H  665   0.195  -0.141   9.295 -1.8203  1.2320  2.5459
  763MOL0     H  666   0.248  -0.013   9.407  3.0117  0.8563  0.0662
  763MOL0     H  667   0.183   0.056   9.121  0.0627 -0.6024 -0.3282
  763MOL0     H  668   0.231   0.158   9.257  3.0569 -1.3313  0.1567
  763MOL0     H  669   0.033   0.207   9.450 -0.3177 -0.2504 -0.1370
  763MOL0     H  670  -0.271   0.251   9.469  1.9900  0.6316  0.3500
  763MOL0     H  671  -0.233   0.125   9.587 -0.6157  0.2791  0.9485
  763MOL0     H  672  -0.375  -0.047   9.452  3.4557 -0.7412 -0.6121
  763MOL0     H  673  -0.434   0.089   9.376 -2.0512 -1.0153 -0.1546
  763MOL0     H  674  -0.574   0.010   9.558  0.7348  0.0907 -1.5124
  763MOL0     H  675  -0.460   0.029   9.686  0.5834  0.6896  1.0013
  763MOL0     H  676  -0.613   0.222   9.515  1.2075 -1.6100 -1.9761
  763MOL0     H  677  -0.480   0.286   9.600 -2.2485  3.3287 -0.3249
  763MOL0     H  678  -0.796   0.116   9.565 -3.1029  3.3475  0.1127
  763MOL0     H  679  -0.995  -0.003   9.642  0.1684  0.2556 -0.1431
  763MOL0     H  680  -1.182  -0.309  10.020  0.6100 -0.6390  0.3978
  763MOL0     H  681  -1.334  -0.400  10.158 -4.3462  1.2288 -1.8136
  763MOL0     H  682  -1.531  -0.451  10.425 -4.0071  0.4409 -0.3495
  763MOL0     H  683  -1.523  -0.409  10.256 -0.5639 -1.3320  0.6598
  763MOL0     H  684  -1.747  -0.366  10.303  1.5455 -3.9798  1.3577
  763MOL0     H  685  -1.668  -0.208  10.299  0.3182  0.8123  1.5426
  763MOL0     H  686  -1.644  -0.213  10.545 -0.8814  1.6170 -2.4206
  763MOL0     H  687  -1.728  -0.375  10.551  0.1136  0.3700  1.1825
  763MOL0     H  688  -1.841  -0.093  10.475 -1.9580  0.9596  0.5810
  763MOL0     H  689  -1.928  -0.247  10.444 -0.2605 -0.1987  0.3028
  763MOL0     H  690  -1.954  -0.295  10.680  1.9819 -0.3257  1.4339
  763MOL0     H  691  -2.021  -0.146  10.622  0.0028 -1.9126 -2.4569
  763MOL0     H  692  -1.788  -0.039  10.664 -0.0193 -0.8380 -0.9023
  763MOL0     H  693  -1.754  -0.172  10.768 -0.5111 -1.4971 -2.2721
  763MOL0     H  694  -1.998   0.022  10.803 -1.3948 -2.4737  0.5910
  763MOL0     H  695  -1.947  -0.096  10.921  1.6338 -1.4452 -0.6017
  763MOL0     H  696  -1.720   0.020  10.972 -1.0023  0.4886  1.1856
  763MOL0     H  697  -1.870   0.106  10.994  0.6310  0.4539  1.0609
  763MOL0     H  698  -1.360  -0.032  10.384  1.7913 -0.0182  0.1550
  763MOL0     H  699  -1.198   0.067  10.216  1.6900 -0.9798  0.7944
  763MOL0     H  700  -0.877   0.091  10.056 -0.5346 -2.6944 -0.3070
  763MOL0     H  701  -0.695   0.199   9.977 -1.2756  0.8814  0.8869
  763MOL0     H  702   0.928   0.112   9.292 -2.1341  0.7447  2.1621
  763MOL0     H  703   1.048   0.319   9.377  1.2926 -3.5497 -0.0250
  763MOL0     H  704   1.452   0.618   9.297  0.8339 -0.3334  0.3386
  763MOL0     H  705   1.544   0.838   9.309  0.3224  0.6089 -1.9483
  763MOL0     H  706   1.238   1.220   9.340 -2.1890 -2.3284 -2.1925
  763MOL0     H  707   1.255   1.152   9.184  1.7981 -0.8143 -0.3649
  763MOL0     H  708   1.454   1.271   9.142 -0.1856  1.9686 -0.0896
  763MOL0     H  709   1.331   1.379   9.186  1.1656  2.0925  1.2552
  763MOL0     H  710   1.554   1.280   9.383  0.1838 -0.4856 -1.4762
  763MOL0     H  711   1.421   1.373   9.424  2.5996  2.0192  0.5201
  763MOL0     H  712   1.653   1.483   9.359 -0.8245  0.6828  1.8453
  763MOL0     H  713   1.622   1.434   9.199 -1.4785 -2.4589  0.3557
  763MOL0     H  714   1.380   1.780   9.304  0.8434 -0.1084  1.4168
  763MOL0     H  715   1.154   1.021   9.325  1.1150  0.4266  0.3875
  763MOL0     H  716   1.051   0.781   9.337  0.5480  0.4985  2.1006
  764MOL0     O  717   2.808   1.434   2.816 -0.0431  0.1222  1.0313
  764MOL0     C  718   2.814   1.426   2.696 -0.9371 -0.1673 -0.0167
  764MOL0     O  719   2.886   1.327   2.627  0.4609  0.5535 -0.1468
  764MOL0     C  720   2.958   1.231   2.701 -0.6219  0.0818 -0.4497
  764MOL0     C  721   3.019   1.244   2.825 -0.1148 -0.1678 -0.5420
  764MOL0     C  722   3.087   1.145   2.889 -0.5013  0.6095  0.3120
  764MOL0     C  723   3.107   1.020   2.826 -0.5733  0.3708 -0.0354
  764MOL0     O  724   3.209   0.942   2.885 -0.0065  0.5906 -0.3361
  764MOL0     C  725   3.228   0.808   2.835 -0.7392 -0.9420 -0.4273
  764MOL0     C  726   3.327   0.744   2.927  1.2395  0.3436  0.1883
  764MOL0     C  727   3.330   0.582   2.909  0.6129 -0.7905  0.0598
  764MOL0     C  728   3.453   0.529   2.981 -0.5460  0.1320 -0.3985
  764MOL0     C  729   3.561   0.464   2.899  0.4678  0.1874  0.8770
  764MOL0     C  730   3.646   0.563   2.819  0.1428 -0.2780  0.4912
  764MOL0     C  731   3.712   0.484   2.703 -0.2625 -0.3061 -0.2482
  764MOL0     C  732   3.731   0.583   2.582 -0.0084  0.2282  0.3153
  764MOL0     N  733   3.828   0.692   2.597 -0.1855 -0.7624 -0.3146
  764MOL0     C  734   3.844   0.783   2.498  0.0380 -0.9977  1.1534
  764MOL0     C  735   3.966   0.831   2.520  0.5745  0.4325 -0.3860
  764MOL0     C  736   4.048   0.919   2.434 -0.5235  0.2946 -0.2257
  764MOL0     C  737   4.179   0.961   2.496  0.5773 -0.1313 -0.0732
  764MOL0     C  738   4.257   1.069   2.416 -0.1280 -0.8087  0.2567
  764MOL0     C  739   4.388   1.098   2.493  0.2549  0.2417  0.5411
  764MOL0     O  740   4.471   1.184   2.405  0.4380 -0.1612 -0.6068
  764MOL0     C  741   4.603   1.215   2.422  0.8253  0.2475 -0.2012
  764MOL0     C  742   4.663   1.185   2.543 -0.4749  0.4950 -0.1856
  764MOL0     C  743   4.798   1.209   2.569 -0.7765  0.8551 -0.4539
  764MOL0     C  744   4.881   1.265   2.467  0.0476  0.0427 -1.1407
  764MOL0     C  745   5.024   1.292   2.487  0.0746  0.9620 -0.1980
  764MOL0     O  746   5.086   1.225   2.598 -0.1552 -0.1388 -0.0743
  764MOL0     C  747   5.215   1.258   2.620  0.5736 -1.0645  0.1836
  764MOL0     C  748   5.236   1.377   2.694  0.4885 -0.7121 -0.7536
  764MOL0     C  749   5.369   1.415   2.718  0.4355  1.4549  0.2930
  764MOL0     C  750   5.480   1.341   2.676 -0.5720 -0.3254  0.4461
  764MOL0     O  751   5.598   1.387   2.711  0.6068  0.0057 -0.0855
  764MOL0     C  752   5.716   1.318   2.664 -0.2259 -0.2744  0.1756
  764MOL0     C  753   5.839   1.357   2.739 -0.0002 -0.4773 -1.1382
  764MOL0     C  754   5.892   1.241   2.824 -0.7112  1.1309 -0.6279
  764MOL0     C  755   5.930   1.116   2.738 -0.4511 -0.3187 -0.1765
  764MOL0     C  756   6.005   1.004   2.819 -0.5494  0.5556 -0.0091
  764MOL0     C  757   6.134   1.058   2.895 -0.3247  0.5980 -0.5771
  764MOL0     C  758   6.245   0.951   2.939  1.4018  0.3326 -0.1666
  764MOL0     C  759   6.355   0.988   3.039  0.0537 -0.4882 -0.5905
  764MOL0    Cl  760   6.453   1.126   2.977  0.0382 -0.0987 -0.5436
  764MOL0     C  761   5.456   1.234   2.584  0.2867  0.0979 -0.7866
  764MOL0     C  762   5.321   1.193   2.559 -0.3783  0.3467 -0.1583
  764MOL0     O  763   5.085   1.372   2.419  0.6116 -0.4320  0.2685
  764MOL0     C  764   4.813   1.296   2.344  0.7678  0.0095  0.2645
  764MOL0     C  765   4.686   1.271   2.323  0.7513 -0.3822 -0.2969
  764MOL0     N  766   4.015   0.790   2.635 -0.3222 -0.6051  0.3186
  764MOL0     N  767   3.933   0.704   2.681  0.7531  0.1461 -0.2880
  764MOL0     C  768   3.048   1.003   2.701 -0.1281  1.2282 -1.2978
  764MOL0     C  769   2.973   1.111   2.643 -0.0293  0.1373 -0.3535
  764MOL0     C  770   2.749   1.520   2.599 -0.2514 -0.3676  0.7149
  764MOL0     C  771   2.753   1.508   2.458 -0.5005  0.6557  0.0317
  764MOL0     C  772   2.692   1.596   2.373  0.7524  0.7154 -0.3112
  764MOL0     C  773   2.610   1.701   2.431 -0.8681  0.9306  0.3473
  764MOL0     O  774   2.543   1.792   2.364  0.1070 -0.3420 -0.0032
  764MOL0     C  775   2.529   1.781   2.220 -0.6909 -0.4513 -0.6448
  764MOL0     C  776   2.467   1.893   2.150  0.6268 -1.1295 -0.3819
  764MOL0     C  777   2.407   1.849   2.013 -0.1959 -0.5766  0.0235
  764MOL0     C  778   2.369   1.979   1.932  0.0693  0.6942 -0.3669
  764MOL0     C  779   2.486   2.043   1.877  0.3505  0.4360 -1.0150
  764MOL0     C  780   2.579   2.112   1.847 -0.1738 -0.4903  0.3280
  764MOL0     C  781   2.603   1.703   2.575 -0.3642 -0.9219  0.2440
  764MOL0     C  782   2.672   1.615   2.659 -0.5953  0.3935 -0.0212
  764MOL0     H  783   3.021   1.339   2.878  0.7545 -0.6490  0.3372
  764MOL0     H  784   3.144   1.163   2.979 -0.0593  1.5607 -0.1403
  764MOL0     H  785   3.273   0.808   2.736  1.3319  2.8653  0.3284
  764MOL0     H  786   3.136   0.748   2.841 -2.1823  0.8204 -3.0592
  764MOL0     H  787   3.299   0.757   3.032  0.8601 -1.6655  0.3765
  764MOL0     H  788   3.427   0.783   2.906  1.1619 -0.8304 -2.8755
  764MOL0     H  789   3.336   0.577   2.800  1.3461  0.5096  0.0142
  764MOL0     H  790   3.242   0.540   2.959  0.9487 -1.4470  0.1172
  764MOL0     H  791   3.502   0.615   3.027  0.9368 -0.9775  0.1765
  764MOL0     H  792   3.428   0.459   3.061  0.6341 -0.5311 -0.5835
  764MOL0     H  793   3.506   0.396   2.833  0.3044  2.1423 -1.1568
  764MOL0     H  794   3.631   0.408   2.961  2.1016 -0.4699 -1.4281
  764MOL0     H  795   3.724   0.610   2.880 -0.3518  0.9407  0.2213
  764MOL0     H  796   3.583   0.647   2.785 -3.0156 -2.4268  0.6031
  764MOL0     H  797   3.803   0.434   2.735  0.2570  0.8606  0.1647
  764MOL0     H  798   3.643   0.402   2.681 -1.4565  0.9099 -1.2130
  764MOL0     H  799   3.631   0.620   2.559  0.6874  1.6368 -0.5681
  764MOL0     H  800   3.768   0.530   2.493 -2.5218 -0.3493 -0.4643
  764MOL0     H  801   3.789   0.814   2.410 -1.5167  3.4714  3.3854
  764MOL0     H  802   3.984   0.998   2.393 -0.0328  0.7574 -0.1119
  764MOL0     H  803   4.063   0.858   2.345  2.0765  2.4326 -1.4170
  764MOL0     H  804   4.244   0.875   2.514  3.3081  2.0546  1.3440
  764MOL0     H  805   4.167   0.998   2.598 -2.6663 -0.5564 -0.1910
  764MOL0     H  806   4.280   1.038   2.314  1.1717  0.4132  0.1385
  764MOL0     H  807   4.190   1.155   2.403  1.1137 -0.2403 -3.4417
  764MOL0     H  808   4.443   1.008   2.523 -2.2617 -2.0766 -1.3460
  764MOL0     H  809   4.363   1.160   2.580  2.1234 -2.4447  3.1906
  764MOL0     H  810   4.601   1.167   2.631 -1.2281 -0.3353 -0.8614
  764MOL0     H  811   4.844   1.202   2.668 -0.6871 -0.2478 -0.5606
  764MOL0     H  812   5.148   1.427   2.733  0.6746 -1.5602  0.8575
  764MOL0     H  813   5.403   1.495   2.783  0.1247  1.3705  0.5613
  764MOL0     H  814   5.732   1.346   2.559  1.3522 -0.5005  0.3221
  764MOL0     H  815   5.707   1.210   2.679  2.6031 -0.7704 -1.0840
  764MOL0     H  816   5.825   1.436   2.813 -1.1144 -1.6023 -0.1045
  764MOL0     H  817   5.920   1.383   2.670 -2.5183  0.6747 -3.9165
  764MOL0     H  818   5.819   1.211   2.899 -0.0034 -2.5837 -1.2146
  764MOL0     H  819   5.984   1.269   2.877  0.2244 -1.2862 -0.8433
  764MOL0     H  820   5.834   1.076   2.702 -1.3420  1.3976  0.1715
  764MOL0     H  821   5.998   1.162   2.666 -3.2801  3.3233 -0.8558
  764MOL0     H  822   6.036   0.933   2.741 -2.5508  0.6054 -0.9052
  764MOL0     H  823   5.935   0.953   2.886 -2.2232  2.8604  0.1226
  764MOL0     H  824   6.116   1.114   2.987  4.2391  3.3736 -1.0593
  764MOL0     H  825   6.183   1.131   2.829  1.6160  1.5292  1.7546
  764MOL0     H  826   6.183   0.878   2.993  1.8384  0.6869  0.8379
  764MOL0     H  827   6.285   0.897   2.853  0.9694 -0.5235  0.1576
  764MOL0     H  828   6.409   0.898   3.070 -0.3239 -1.1853 -1.8789
  764MOL0     H  829   6.304   1.022   3.129 -1.3058 -2.2806 -0.6221
  764MOL0     H  830   5.535   1.178   2.535  1.3049  1.5827 -0.9098
  764MOL0     H  831   5.292   1.118   2.486  1.2787  0.1340 -0.6520
  764MOL0     H  832   4.870   1.333   2.259 -0.5739  1.4693 -0.0491
  764MOL0     H  833   4.641   1.299   2.228 -1.1262 -0.3675  0.5506
  764MOL0     H  834   3.083   0.916   2.646  3.8882  2.0850 -0.4266
  764MOL0     H  835   2.933   1.098   2.543  0.1001 -1.6039 -0.2112
  764MOL0     H  836   2.802   1.416   2.426 -1.4957 -0.3617  1.3169
  764MOL0     H  837   2.691   1.581   2.265 -3.1786  2.3979 -0.6734
  764MOL0     H  838   2.470   1.694   2.191 -0.5288 -0.0300 -2.3365
  764MOL0     H  839   2.635   1.793   2.196  0.1478  3.2936  3.5833
  764MOL0     H  840   2.378   1.920   2.208 -0.3438 -1.2125 -1.7916
  764MOL0     H  841   2.547   1.967   2.139  2.5521 -2.6827  2.0616
  764MOL0     H  842   2.313   1.796   2.036 -0.0264 -1.6716 -1.6298
  764MOL0     H  843   2.478   1.787   1.957 -1.5436 -0.9123 -1.3993
  764MOL0     H  844   2.302   1.953   1.850 -1.6841 -0.1623  1.2613
  764MOL0     H  845   2.315   2.036   2.008  0.7985  1.1157 -0.1540
  764MOL0     H  846   2.664   2.171   1.821 -0.8924 -0.2297 -1.6032
  764MOL0     H  847   2.529   1.766   2.623 -1.9748 -1.7371 -1.0471
  764MOL0     H  848   2.650   1.627   2.765 -3.4169  0.5558 -0.5251
  765MOL0     O  849   0.832   2.448  10.512 -0.1886  0.6454 -0.7536
  765MOL0     C  850   0.950   2.412  10.556  0.1719  0.3940  0.5113
  765MOL0     O  851   1.059   2.361  10.481 -0.1755 -0.5827 -0.5917
  765MOL0     C  852   1.038   2.346  10.345  0.2284 -0.2272  0.0315
  765MOL0     C  853   1.080   2.219  10.291  0.1749  0.4108 -0.0188
  765MOL0     C  854   1.074   2.192  10.155  0.1884  0.1867  0.5063
  765MOL0     C  855   1.038   2.302  10.072 -0.3223  0.2109  0.1262
  765MOL0     O  856   1.049   2.274   9.938 -0.4510  0.1219 -0.7084
  765MOL0     C  857   1.042   2.377   9.834 -0.9526  1.3726 -0.2729
  765MOL0     C  858   1.084   2.318   9.697  0.0710 -0.6007 -0.1376
  765MOL0     C  859   1.220   2.236   9.704 -1.0233  0.4472  0.6889
  765MOL0     C  860   1.272   2.196   9.560  0.0481 -0.1936 -0.3454
  765MOL0     C  861   1.427   2.174   9.550 -0.8572 -0.1276 -0.0404
  765MOL0     C  862   1.477   2.060   9.450 -0.4896 -0.5111  0.0843
  765MOL0     C  863   1.629   2.032   9.435  0.0365 -0.2623  0.7081
  765MOL0     C  864   1.658   1.899   9.351 -1.3987 -0.7696  0.0254
  765MOL0     N  865   1.805   1.867   9.355 -0.5146  0.6011 -0.3936
  765MOL0     C  866   1.854   1.749   9.406 -0.7993  0.9845 -0.3654
  765MOL0     C  867   1.972   1.730   9.340  1.0276  0.7099  0.8130
  765MOL0     C  868   2.057   1.603   9.337 -0.5476  0.5514 -1.3166
  765MOL0     C  869   2.048   1.529   9.204  0.0682 -0.2858 -0.2311
  765MOL0     C  870   2.138   1.402   9.202  0.2310 -0.3817 -0.8874
  765MOL0     C  871   2.110   1.314   9.088 -0.1606  0.5027 -0.2337
  765MOL0     O  872   1.974   1.268   9.091  0.0148 -0.0604 -1.1302
  765MOL0     C  873   1.937   1.134   9.104 -0.0898  0.5226 -1.0940
  765MOL0     C  874   2.026   1.035   9.171 -0.2272  1.2084 -0.2943
  765MOL0     C  875   1.987   0.894   9.174 -1.0482 -0.6388 -0.7325
  765MOL0     C  876   1.856   0.859   9.149  0.4808 -0.3188 -0.5668
  765MOL0     C  877   1.799   0.728   9.191 -0.2194  0.2860  0.3668
  765MOL0     O  878   1.866   0.655   9.282  0.5237 -0.0535 -0.3176
  765MOL0     C  879   1.791   0.561   9.349  0.4029  0.8685  0.5219
  765MOL0     C  880   1.745   0.588   9.477  0.4126 -1.0708 -0.6885
  765MOL0     C  881   1.654   0.504   9.538 -0.3936 -0.1129 -0.5655
  765MOL0     C  882   1.635   0.373   9.489  0.5342  0.2895  0.7282
  765MOL0     O  883   1.556   0.295   9.549 -0.2677  0.4196 -0.7464
  765MOL0     C  884   1.422   0.346   9.582  0.5177  1.0099  0.5918
  765MOL0     C  885   1.311   0.241   9.534 -0.7225  0.2683 -0.6910
  765MOL0     C  886   1.353   0.103   9.576 -0.1796 -0.4876 -0.3539
  765MOL0     C  887   1.261  -0.006   9.534 -0.0360  0.1207 -0.6512
  765MOL0     C  888   1.289  -0.141   9.608  0.5190 -0.7449  0.0456
  765MOL0     C  889   1.438  -0.200   9.587  0.9810  0.3554 -0.5960
  765MOL0     C  890   1.539  -0.158   9.693  0.3377 -0.2555 -0.6578
  765MOL0     C  891   1.551  -0.266   9.804  0.1682  0.5513  0.2171
  765MOL0    Cl  892   1.404  -0.255   9.918 -0.1794 -0.0622 -0.5895
  765MOL0     C  893   1.683   0.341   9.361 -0.0650  0.2327 -0.4282
  765MOL0     C  894   1.757   0.436   9.293 -0.4229  0.2020 -0.7235
  765MOL0     O  895   1.699   0.695   9.134  0.8063  0.0931  0.2567
  765MOL0     C  896   1.769   0.958   9.094 -0.5103  0.2065  0.7022
  765MOL0     C  897   1.817   1.085   9.069 -0.0949  0.5397 -0.7209
  765MOL0     N  898   1.983   1.842   9.253 -0.3667 -0.1581 -0.9244
  765MOL0     N  899   1.889   1.931   9.268 -0.8535  0.0003 -0.3035
  765MOL0     C  900   0.996   2.431  10.121  0.1437  0.6272 -0.2594
  765MOL0     C  901   1.006   2.454  10.263 -0.5126  0.4666 -0.1260
  765MOL0     C  902   0.968   2.449  10.703  0.3735 -0.0223 -0.7146
  765MOL0     C  903   0.862   2.493  10.793 -0.3781 -0.5045 -1.1462
  765MOL0     C  904   0.892   2.520  10.929  1.0620 -0.5947  0.2363
  765MOL0     C  905   1.024   2.516  10.977  0.4665 -0.1085 -0.8437
  765MOL0     O  906   1.069   2.554  11.095  0.0091 -0.8806  0.4525
  765MOL0     C  907   0.974   2.620  11.188 -0.0681  0.1405  0.4190
  765MOL0     C  908   1.053   2.691  11.289 -0.6262  0.2614 -0.2031
  765MOL0     C  909   1.141   2.818  11.263  0.1833  0.0538 -0.2363
  765MOL0     C  910   1.095   2.936  11.170  0.9697 -0.2399  0.8729
  765MOL0     C  911   0.954   2.971  11.209  0.0993  0.8319 -0.1224
  765MOL0     C  912   0.841   2.996  11.241  0.1047  0.7382  0.1274
  765MOL0     C  913   1.121   2.485  10.891 -0.6390 -0.3114  0.6038
  765MOL0     C  914   1.097   2.438  10.763 -0.8145 -0.4701 -0.2066
  765MOL0     H  915   1.113   2.145  10.363 -2.2213  0.1793  0.9417
  765MOL0     H  916   1.113   2.102  10.109 -1.1740 -0.0133 -0.3144
  765MOL0     H  917   1.107   2.462   9.859 -2.0973  2.3119 -0.3979
  765MOL0     H  918   0.941   2.418   9.838 -3.1156 -3.3494 -0.3939
  765MOL0     H  919   1.120   2.403   9.639 -0.2825  1.1642  2.0924
  765MOL0     H  920   1.009   2.259   9.645  0.5679 -2.5261  1.1767
  765MOL0     H  921   1.224   2.152   9.773  0.5022  1.2428  1.6215
  765MOL0     H  922   1.297   2.299   9.751  0.0602  1.5702 -2.2945
  765MOL0     H  923   1.218   2.109   9.521  1.6445 -0.7523 -1.3896
  765MOL0     H  924   1.249   2.283   9.498  2.3747  1.6811  1.2495
  765MOL0     H  925   1.466   2.140   9.646 -0.4830  1.0687  0.2503
  765MOL0     H  926   1.491   2.260   9.528  3.1774 -3.0457 -1.0263
  765MOL0     H  927   1.427   2.085   9.356  0.7283  0.4584 -0.3359
  765MOL0     H  928   1.441   1.964   9.488 -0.7754 -0.9331 -1.1860
  765MOL0     H  929   1.677   2.111   9.377  1.5053 -1.6175 -0.0122
  765MOL0     H  930   1.678   2.022   9.533  2.8105 -1.3766 -0.6783
  765MOL0     H  931   1.617   1.911   9.250 -1.6866  0.3524  0.2572
  765MOL0     H  932   1.607   1.824   9.412 -1.6530  0.9290  2.0406
  765MOL0     H  933   1.801   1.680   9.470 -0.2072  1.8249  1.0627
  765MOL0     H  934   2.034   1.534   9.418  2.6315  0.4704 -0.3607
  765MOL0     H  935   2.162   1.629   9.353 -0.3780 -0.7002 -0.2760
  765MOL0     H  936   2.089   1.605   9.137  1.6183  0.4574  1.4837
  765MOL0     H  937   1.942   1.513   9.180  0.6716 -0.2120 -3.3724
  765MOL0     H  938   2.245   1.416   9.214  0.7218 -2.4240 -2.3538
  765MOL0     H  939   2.102   1.350   9.291  2.2623  0.8686  0.7523
  765MOL0     H  940   2.180   1.230   9.100  2.2660  2.3359 -0.7638
  765MOL0     H  941   2.125   1.370   8.995 -0.9818  3.5608  1.3368
  765MOL0     H  942   2.113   1.071   9.223  0.4435  1.5457 -1.6139
  765MOL0     H  943   2.054   0.812   9.199  1.8674  0.9167 -2.8985
  765MOL0     H  944   1.757   0.691   9.510 -3.4604 -1.0339  1.1540
  765MOL0     H  945   1.614   0.528   9.636  2.5645 -0.2345  0.8001
  765MOL0     H  946   1.396   0.442   9.538  0.5792 -0.2348 -2.4087
  765MOL0     H  947   1.414   0.356   9.691  1.5406  0.0266  0.7834
  765MOL0     H  948   1.309   0.242   9.425 -1.8164 -1.3121 -0.7152
  765MOL0     H  949   1.212   0.274   9.566 -1.2955 -0.7107 -1.4120
  765MOL0     H  950   1.360   0.107   9.685 -1.6208 -0.1393 -0.2646
  765MOL0     H  951   1.455   0.082   9.541  1.5070  1.7077  2.7340
  765MOL0     H  952   1.161   0.028   9.565  0.1316 -0.3834  0.4910
  765MOL0     H  953   1.261  -0.028   9.427  1.4813  1.0418 -0.8680
  765MOL0     H  954   1.220  -0.214   9.564 -0.7072  1.3212 -1.6562
  765MOL0     H  955   1.269  -0.132   9.715  0.0410 -0.8819 -0.0291
  765MOL0     H  956   1.468  -0.153   9.492 -0.2587  0.2850 -1.0365
  765MOL0     H  957   1.436  -0.309   9.582 -3.5533  0.1431  1.1665
  765MOL0     H  958   1.637  -0.151   9.644  1.3824  0.5282  1.3743
  765MOL0     H  959   1.512  -0.059   9.732  1.2550  0.0758 -0.8311
  765MOL0     H  960   1.630  -0.245   9.876 -2.3791  1.8973  2.8088
  765MOL0     H  961   1.561  -0.366   9.759  3.5256  1.0425 -0.3812
  765MOL0     H  962   1.659   0.247   9.311 -0.8855 -0.1957  0.7277
  765MOL0     H  963   1.796   0.416   9.193  0.6128  2.2387 -0.7804
  765MOL0     H  964   1.668   0.932   9.066 -1.4559  2.2997  1.8975
  765MOL0     H  965   1.753   1.162   9.026  0.4653  1.6813  0.3951
  765MOL0     H  966   0.978   2.515  10.055 -0.7396  0.9259  0.3483
  765MOL0     H  967   0.986   2.550  10.310 -3.2464 -0.6386  1.2362
  765MOL0     H  968   0.764   2.504  10.749  0.3964 -1.8238 -3.4152
  765MOL0     H  969   0.808   2.552  10.990  0.1403 -1.1554 -0.6947
  765MOL0     H  970   0.919   2.537  11.234 -1.0581  1.2599  1.3408
  765MOL0     H  971   0.902   2.687  11.140  0.8114 -1.1379 -2.9421
  765MOL0     H  972   0.988   2.716  11.374 -0.6797  0.3153 -0.2603
  765MOL0     H  973   1.131   2.618  11.315  1.6200  1.1638 -3.7730
  765MOL0     H  974   1.235   2.780  11.221  0.1635  0.7056 -0.8856
  765MOL0     H  975   1.175   2.865  11.356  0.4943 -2.8464  1.2371
  765MOL0     H  976   1.157   3.026  11.176  0.1580  0.2804  1.9479
  765MOL0     H  977   1.092   2.916  11.063  0.6017  0.8605  0.6620
  765MOL0     H  978   0.737   2.997  11.267  0.1087 -2.9951  0.8718
  765MOL0     H  979   1.216   2.459  10.936 -1.5892 -2.8793  1.3227
  765MOL0     H  980   1.179   2.396  10.705 -0.1447 -0.9564  1.0518
  766MOL0     O  981   3.663   9.425   0.619  0.0668 -0.1801  0.1390
  766MOL0     C  982   3.703   9.439   0.738  0.4348  0.9237  0.6258
  766MOL0     O  983   3.633   9.404   0.852  0.5319 -0.0822 -0.4793
  766MOL0     C  984   3.495   9.374   0.841 -0.6098 -0.7833  0.0218
  766MOL0     C  985   3.445   9.246   0.869 -0.5197 -0.2807  0.7645
  766MOL0     C  986   3.310   9.224   0.884 -0.2473  0.3965  0.3844
  766MOL0     C  987   3.216   9.327   0.854  0.0776  0.0249 -0.2780
  766MOL0     O  988   3.085   9.303   0.847 -0.1964  0.1343 -0.5799
  766MOL0     C  989   3.032   9.170   0.830 -0.3117 -0.1930  0.1183
  766MOL0     C  990   2.883   9.154   0.791  0.0437  0.2958 -0.8990
  766MOL0     C  991   2.857   9.183   0.642 -0.3264 -0.1410 -0.4025
  766MOL0     C  992   2.710   9.135   0.606  0.0348 -0.3180 -0.7631
  766MOL0     C  993   2.654   9.230   0.512  0.0143 -0.5290  0.2448
  766MOL0     C  994   2.719   9.221   0.376 -0.0147  0.5962 -1.3224
  766MOL0     C  995   2.704   9.089   0.306  0.4894  0.4227  0.2049
  766MOL0     C  996   2.745   9.113   0.159  0.3923  0.6840  0.9848
  766MOL0     N  997   2.869   9.198   0.131  0.7257  0.2636 -0.0996
  766MOL0     C  998   2.996   9.164   0.173 -0.1319  0.5475 -0.1795
  766MOL0     C  999   3.064   9.282   0.148  0.1942  1.3015 -0.0473
  766MOL0     C 1000   3.206   9.290   0.177  0.4125 -0.1380  0.5870
  766MOL0     C 1001   3.281   9.281   0.040 -0.7540  0.4822 -0.0993
  766MOL0     C 1002   3.391   9.378   0.009  0.3364 -1.3256  0.0525
  766MOL0     C 1003   3.331   9.518  -0.023 -0.4260  1.0850 -0.8465
  766MOL0     O 1004   3.283   9.510  -0.149  0.7427  0.0299  0.2394
  766MOL0     C 1005   3.163   9.571  -0.168 -0.0475 -0.6276  0.3448
  766MOL0     C 1006   3.131   9.699  -0.120  0.1496 -0.2480  0.8674
  766MOL0     C 1007   3.003   9.748  -0.123  0.4480 -0.2004 -0.7530
  766MOL0     C 1008   2.900   9.669  -0.173 -0.1456 -0.6920 -0.1114
  766MOL0     C 1009   2.759   9.706  -0.160  0.4195  0.0076  0.0034
  766MOL0     O 1010   2.659   9.632  -0.223 -0.3982 -0.0064 -0.2464
  766MOL0     C 1011   2.531   9.676  -0.233  0.4599 -0.6597  0.5161
  766MOL0     C 1012   2.455   9.722  -0.126  1.1623  0.1386 -0.3101
  766MOL0     C 1013   2.322   9.763  -0.157  0.1973 -0.1212 -1.2300
  766MOL0     C 1014   2.266   9.755  -0.286  0.6823  0.7522 -0.4045
  766MOL0     O 1015   2.145   9.804  -0.311 -0.7209 -0.3781 -0.1779
  766MOL0     C 1016   2.041   9.804  -0.214  0.6180  0.2912  0.0682
  766MOL0     C 1017   1.916   9.813  -0.298  1.5083 -0.6354  0.2917
  766MOL0     C 1018   1.784   9.764  -0.239  0.7900 -0.1277  0.2017
  766MOL0     C 1019   1.665   9.770  -0.337 -0.4340 -0.4397  0.0912
  766MOL0     C 1020   1.543   9.709  -0.277  0.6057 -0.8402 -0.1082
  766MOL0     C 1021   1.478   9.608  -0.373  0.8796  1.1584 -0.9065
  766MOL0     C 1022   1.330   9.569  -0.334 -0.2506  0.5067  0.6795
  766MOL0     C 1023   1.215   9.631  -0.416  1.0561  0.2838 -0.7019
  766MOL0    Cl 1024   1.178   9.797  -0.336  0.2597  1.0654 -0.0203
  766MOL0     C 1025   2.339   9.711  -0.386 -0.2443 -0.4387  0.5434
  766MOL0     C 1026   2.470   9.666  -0.363  0.3916  0.3487  0.3627
  766MOL0     O 1027   2.737   9.809  -0.093 -0.3911  0.6284 -0.2030
  766MOL0     C 1028   2.932   9.545  -0.235  0.6415  0.0854 -0.1566
  766MOL0     C 1029   3.068   9.501  -0.238 -0.6261  0.0125 -0.0904
  766MOL0     N 1030   2.979   9.369   0.085  0.5768 -0.2715 -0.7639
  766MOL0     N 1031   2.864   9.323   0.066  0.5514  0.2213  0.0050
  766MOL0     C 1032   3.260   9.456   0.829  0.7168  0.5749  0.1594
  766MOL0     C 1033   3.398   9.483   0.824  0.0234  0.1943 -0.0306
  766MOL0     C 1034   3.840   9.500   0.752  0.9199 -0.0603  0.3838
  766MOL0     C 1035   3.891   9.522   0.874  0.2441 -0.7602  0.2511
  766MOL0     C 1036   4.013   9.604   0.888  0.1629 -0.0751  0.0431
  766MOL0     C 1037   4.080   9.654   0.777 -0.1893 -0.0453 -0.0536
  766MOL0     O 1038   4.200   9.720   0.811 -0.5378 -0.8051  0.6132
  766MOL0     C 1039   4.275   9.778   0.697  0.2098  0.1094 -0.5611
  766MOL0     C 1040   4.317   9.920   0.729  0.2806 -0.4300 -0.3521
  766MOL0     C 1041   4.202  10.014   0.761 -0.2932  0.4976  0.0063
  766MOL0     C 1042   4.115  10.048   0.635  0.3812 -0.2954 -0.1738
  766MOL0     C 1043   4.008  10.142   0.662 -0.4099 -0.0884 -0.0914
  766MOL0     C 1044   3.913  10.223   0.675  0.3815  1.2686  0.3186
  766MOL0     C 1045   4.025   9.635   0.658  1.0546 -0.4528  0.2978
  766MOL0     C 1046   3.901   9.563   0.643 -0.0910  0.2180  0.3879
  766MOL0     H 1047   3.515   9.165   0.889 -0.8032 -0.5350  0.7407
  766MOL0     H 1048   3.271   9.138   0.936  0.1283  0.3826  0.6421
  766MOL0     H 1049   3.051   9.115   0.923  2.5638 -0.5703 -0.5823
  766MOL0     H 1050   3.080   9.121   0.744 -1.1187  2.5157 -2.0177
  766MOL0     H 1051   2.828   9.228   0.851 -0.4696 -1.5147  0.9978
  766MOL0     H 1052   2.847   9.053   0.814 -1.7981  1.3398  1.2025
  766MOL0     H 1053   2.936   9.130   0.587  1.0057  1.0945  0.2478
  766MOL0     H 1054   2.871   9.289   0.620  2.1202 -0.8583 -2.8526
  766MOL0     H 1055   2.722   9.037   0.559  1.4807 -1.2536  1.4201
  766MOL0     H 1056   2.646   9.127   0.694 -1.5387 -0.4003 -1.8710
  766MOL0     H 1057   2.650   9.328   0.560 -0.5723 -0.1654 -0.5181
  766MOL0     H 1058   2.547   9.209   0.504 -0.5333  1.5164  1.3860
  766MOL0     H 1059   2.825   9.250   0.375  0.5611 -1.2448  0.2583
  766MOL0     H 1060   2.658   9.292   0.320 -0.5343  1.0499 -0.2046
  766MOL0     H 1061   2.771   9.017   0.355  0.1606  0.5812  0.9028
  766MOL0     H 1062   2.602   9.050   0.312  0.7286 -0.5251 -1.4278
  766MOL0     H 1063   2.662   9.159   0.105 -0.9341 -2.1081  0.4660
  766MOL0     H 1064   2.754   9.009   0.124 -0.7007  0.5479  1.0596
  766MOL0     H 1065   3.022   9.068   0.215 -0.6890  0.4951  0.0617
  766MOL0     H 1066   3.228   9.205   0.241 -1.9624 -0.9840  0.4032
  766MOL0     H 1067   3.237   9.372   0.242 -1.7651 -0.1698  1.7598
  766MOL0     H 1068   3.223   9.266  -0.051  0.7218 -0.4682 -0.9304
  766MOL0     H 1069   3.341   9.190   0.050 -0.0483  1.1037  1.8585
  766MOL0     H 1070   3.462   9.394   0.091 -0.7873 -1.3834  1.0667
  766MOL0     H 1071   3.441   9.364  -0.087  2.7886 -0.7413  1.1594
  766MOL0     H 1072   3.401   9.603  -0.029 -2.3763  2.7851 -0.6787
  766MOL0     H 1073   3.252   9.542   0.048  0.1829  1.6907 -0.3525
  766MOL0     H 1074   3.218   9.749  -0.079  0.4801  0.6984 -0.9012
  766MOL0     H 1075   2.976   9.842  -0.076  1.0614  0.6472 -2.0629
  766MOL0     H 1076   2.486   9.727  -0.022 -0.8847  0.5868  0.3249
  766MOL0     H 1077   2.266   9.823  -0.086 -0.8639 -0.4243 -1.7881
  766MOL0     H 1078   2.041   9.898  -0.158  2.9212  0.6432 -0.4309
  766MOL0     H 1079   2.043   9.715  -0.150  0.6115  1.0386  1.1333
  766MOL0     H 1080   1.931   9.763  -0.395 -1.5158 -1.4595  0.1667
  766MOL0     H 1081   1.909   9.922  -0.304 -0.9426 -0.7423  0.3320
  766MOL0     H 1082   1.761   9.827  -0.152 -1.1407  2.6618 -2.1089
  766MOL0     H 1083   1.792   9.657  -0.220  0.4864 -1.1323 -4.2891
  766MOL0     H 1084   1.656   9.874  -0.371  1.8442 -0.2540 -0.0995
  766MOL0     H 1085   1.689   9.709  -0.424 -1.9423 -2.2739  0.9005
  766MOL0     H 1086   1.471   9.789  -0.260  0.1169 -1.3708  0.3578
  766MOL0     H 1087   1.559   9.665  -0.178 -1.7918 -0.5127  0.4717
  766MOL0     H 1088   1.544   9.520  -0.378  0.4115  0.8289 -1.3714
  766MOL0     H 1089   1.474   9.645  -0.476 -2.5014  0.8484 -0.9834
  766MOL0     H 1090   1.313   9.462  -0.352  1.5452  0.3697 -0.4438
  766MOL0     H 1091   1.306   9.585  -0.229  3.2461 -4.3287  2.5918
  766MOL0     H 1092   1.135   9.557  -0.411  3.5269 -2.5506  0.3319
  766MOL0     H 1093   1.241   9.650  -0.520  0.6797 -0.1557 -0.8802
  766MOL0     H 1094   2.298   9.696  -0.485  1.9256  3.3227 -1.1505
  766MOL0     H 1095   2.527   9.621  -0.444 -0.9816 -2.5390  0.8525
  766MOL0     H 1096   2.850   9.478  -0.261  1.2512 -0.3424 -1.0363
  766MOL0     H 1097   3.096   9.412  -0.292  1.2702 -1.2420  2.7017
  766MOL0     H 1098   3.196   9.544   0.833  4.2856  3.3158  3.0340
  766MOL0     H 1099   3.446   9.581   0.822  2.6783 -0.9509  1.5670
  766MOL0     H 1100   3.845   9.485   0.965 -0.0875  0.6238  0.6618
  766MOL0     H 1101   4.054   9.613   0.988 -0.4042 -0.5087  0.3222
  766MOL0     H 1102   4.213   9.789   0.608  0.0067 -1.8688 -0.7035
  766MOL0     H 1103   4.358   9.712   0.671  1.6077  1.8283 -0.7014
  766MOL0     H 1104   4.373   9.908   0.823  1.2299 -2.1411 -1.0957
  766MOL0     H 1105   4.386   9.963   0.657 -1.2005  0.6222 -1.1800
  766MOL0     H 1106   4.244  10.106   0.802 -1.5166  1.9636 -1.8775
  766MOL0     H 1107   4.132   9.961   0.827  0.3410 -1.2522 -0.6483
  766MOL0     H 1108   4.180  10.086   0.555  0.1939 -2.8798 -1.6592
  766MOL0     H 1109   4.068   9.958   0.594 -0.5936  0.1309 -0.0135
  766MOL0     H 1110   3.832  10.292   0.684  0.3951  1.5587 -1.3698
  766MOL0     H 1111   4.064   9.672   0.564 -2.1599 -2.1757 -1.9308
  766MOL0     H 1112   3.852   9.552   0.547 -1.5029 -3.2376  1.3127
  767MOL0     O 1113   7.469   2.506   3.903  0.0662 -0.8430  0.4132
  767MOL0     C 1114   7.485   2.494   3.781  0.1671  0.0319  1.3912
  767MOL0     O 1115   7.389   2.501   3.680  0.1092 -0.7824 -0.3455
  767MOL0     C 1116   7.259   2.543   3.713 -0.3626  1.1866 -0.4417
  767MOL0     C 1117   7.224   2.645   3.800 -0.5569  0.7093 -0.1536
  767MOL0     C 1118   7.086   2.662   3.830 -0.7912 -0.8487 -0.1118
  767MOL0     C 1119   6.988   2.598   3.751  0.3979  0.5359  0.0897
  767MOL0     O 1120   6.860   2.628   3.743  0.5765  0.2824 -0.5501
  767MOL0     C 1121   6.817   2.764   3.763  0.0149  0.3392  0.8293
  767MOL0     C 1122   6.697   2.778   3.681  0.3849  0.3895  1.3426
  767MOL0     C 1123   6.740   2.835   3.549  0.8388  0.0276  0.2635
  767MOL0     C 1124   6.614   2.829   3.440 -0.0370  0.4451 -1.2772
  767MOL0     C 1125   6.615   2.701   3.361  1.2789  0.2584 -0.1918
  767MOL0     C 1126   6.536   2.714   3.232 -0.9588 -0.9053  0.1879
  767MOL0     C 1127   6.534   2.590   3.155 -0.2074 -0.1707  0.5679
  767MOL0     C 1128   6.434   2.595   3.028 -1.4169 -0.6856 -0.1217
  767MOL0     N 1129   6.307   2.632   3.074 -0.4084 -1.1700  0.0887
  767MOL0     C 1130   6.206   2.541   3.109 -0.2119 -0.8380  0.3224
  767MOL0     C 1131   6.101   2.619   3.149  0.3354  0.3344  0.2156
  767MOL0     C 1132   5.972   2.567   3.211 -0.4767 -0.1103 -0.0682
  767MOL0     C 1133   5.884   2.492   3.100  0.0969 -1.4205  0.1280
  767MOL0     C 1134   5.758   2.440   3.167  0.7375  0.4968 -0.2338
  767MOL0     C 1135   5.686   2.552   3.237  0.6067  0.2590 -0.0828
  767MOL0     O 1136   5.547   2.562   3.203  0.6800 -0.1948  0.5047
  767MOL0     C 1137   5.450   2.563   3.302 -0.0160  0.3144  0.0552
  767MOL0     C 1138   5.447   2.457   3.387 -0.0568 -0.2132 -0.4242
  767MOL0     C 1139   5.359   2.449   3.497  0.1333  0.2432  0.3628
  767MOL0     C 1140   5.253   2.547   3.509  0.1412  0.2731 -0.3959
  767MOL0     C 1141   5.158   2.530   3.614  0.2520  1.0428 -0.2346
  767MOL0     O 1142   5.035   2.585   3.604  0.2185 -0.3685  0.2456
  767MOL0     C 1143   4.927   2.581   3.689  0.7131  0.5219 -0.4331
  767MOL0     C 1144   4.905   2.477   3.780  0.2715 -0.1380  0.0159
  767MOL0     C 1145   4.785   2.476   3.859  0.1153 -0.5706  0.4315
  767MOL0     C 1146   4.692   2.574   3.840 -0.6822 -0.0859  0.7186
  767MOL0     O 1147   4.571   2.589   3.903  0.0343  0.0168  0.1730
  767MOL0     C 1148   4.554   2.514   4.026 -0.1793 -0.3035 -0.0870
  767MOL0     C 1149   4.642   2.561   4.138 -0.1258  0.1795  0.0792
  767MOL0     C 1150   4.609   2.703   4.196 -0.0987  0.3728  0.1549
  767MOL0     C 1151   4.699   2.753   4.316 -0.8783  0.9450 -0.3395
  767MOL0     C 1152   4.664   2.683   4.449  0.4392  0.1095  0.5559
  767MOL0     C 1153   4.773   2.689   4.555 -0.5944 -0.1023  0.8379
  767MOL0     C 1154   4.734   2.624   4.690  0.6548 -0.1721 -0.2017
  767MOL0     C 1155   4.847   2.637   4.790 -0.7746 -0.1511  0.0125
  767MOL0    Cl 1156   4.800   2.593   4.948  0.0831 -0.0598 -0.1362
  767MOL0     C 1157   4.718   2.674   3.751  0.4723  0.2049 -0.4349
  767MOL0     C 1158   4.833   2.682   3.672 -0.3600  0.5086 -0.0042
  767MOL0     O 1159   5.191   2.458   3.710  0.2024 -0.2344 -0.3473
  767MOL0     C 1160   5.249   2.656   3.425 -1.1531 -0.3517  0.5746
  767MOL0     C 1161   5.353   2.658   3.318  0.5214  0.0134 -0.8837
  767MOL0     N 1162   6.149   2.746   3.134  0.1874  0.0428 -0.0730
  767MOL0     N 1163   6.257   2.756   3.086 -0.4442 -0.1996  0.3361
  767MOL0     C 1164   7.030   2.504   3.658 -0.4002 -0.1092  0.5634
  767MOL0     C 1165   7.164   2.478   3.642 -0.0783 -1.2923 -0.2631
  767MOL0     C 1166   7.623   2.479   3.734  0.0763  0.0592  0.6393
  767MOL0     C 1167   7.724   2.483   3.835 -0.0883 -0.4893  0.3076
  767MOL0     C 1168   7.865   2.463   3.801  1.0403  0.4905 -0.3939
  767MOL0     C 1169   7.897   2.454   3.661  0.1822 -0.2100 -0.2205
  767MOL0     O 1170   8.035   2.446   3.630  0.6072 -0.0421 -0.0170
  767MOL0     C 1171   8.076   2.435   3.496  0.0389 -1.0997 -0.3384
  767MOL0     C 1172   8.233   2.406   3.486  0.0206 -0.4383 -0.1296
  767MOL0     C 1173   8.287   2.423   3.338 -0.0866 -0.0109 -0.1937
  767MOL0     C 1174   8.438   2.416   3.330 -0.5294 -0.2934  0.1637
  767MOL0     C 1175   8.500   2.288   3.363 -1.0010  1.0228 -0.8495
  767MOL0     C 1176   8.565   2.187   3.379  0.3130  0.0455  0.9081
  767MOL0     C 1177   7.796   2.452   3.562 -0.8189 -0.7802  0.4884
  767MOL0     C 1178   7.657   2.457   3.595  0.3221 -0.2344 -0.8096
  767MOL0     H 1179   7.300   2.706   3.849  0.2040  0.3736 -0.8962
  767MOL0     H 1180   7.060   2.742   3.899  1.5210 -1.2495  1.3552
  767MOL0     H 1181   6.894   2.841   3.747 -1.2891  1.7236  1.0093
  767MOL0     H 1182   6.785   2.779   3.867 -0.4487 -0.8588  0.8648
  767MOL0     H 1183   6.635   2.844   3.743 -2.1094 -0.7256  0.1937
  767MOL0     H 1184   6.636   2.688   3.668  3.6307 -1.8486  0.5044
  767MOL0     H 1185   6.822   2.775   3.508 -2.8077 -2.9650 -3.6371
  767MOL0     H 1186   6.761   2.942   3.558 -3.7407  1.3512 -1.6954
  767MOL0     H 1187   6.525   2.842   3.503  1.3463 -0.8044  1.0744
  767MOL0     H 1188   6.627   2.915   3.374  2.0867 -0.4530 -2.1136
  767MOL0     H 1189   6.583   2.615   3.421  1.9376 -0.4004 -0.7811
  767MOL0     H 1190   6.719   2.687   3.332  1.3049  0.0190  0.0156
  767MOL0     H 1191   6.576   2.797   3.172  1.1681 -1.1443  1.1871
  767MOL0     H 1192   6.435   2.742   3.264 -1.0083  0.6447 -1.1166
  767MOL0     H 1193   6.635   2.565   3.119  0.0820 -0.1585  1.3500
  767MOL0     H 1194   6.500   2.504   3.214  0.5467 -0.2376  0.9203
  767MOL0     H 1195   6.436   2.496   2.982  1.8729 -0.4283 -0.7677
  767MOL0     H 1196   6.466   2.668   2.953 -0.6380  3.4301  3.7680
  767MOL0     H 1197   6.204   2.432   3.113  0.1717 -0.8094  2.5262
  767MOL0     H 1198   5.920   2.644   3.268  0.0016  0.5890 -0.5498
  767MOL0     H 1199   5.997   2.500   3.294 -4.2940  0.1243  1.4816
  767MOL0     H 1200   5.949   2.413   3.061  1.1402 -1.4944  1.9117
  767MOL0     H 1201   5.857   2.554   3.014 -2.8362 -3.0424 -0.2474
  767MOL0     H 1202   5.692   2.407   3.086 -1.8387  1.0181  1.5300
  767MOL0     H 1203   5.796   2.358   3.230 -1.7413 -2.2596 -2.0459
  767MOL0     H 1204   5.720   2.650   3.203 -1.3979  1.2258  0.5228
  767MOL0     H 1205   5.700   2.550   3.345 -2.1572  1.0823  0.3707
  767MOL0     H 1206   5.510   2.369   3.384 -1.5804 -1.4055  0.6569
  767MOL0     H 1207   5.378   2.358   3.554  0.7928 -2.0006 -3.1291
  767MOL0     H 1208   4.971   2.392   3.788 -2.2194 -2.0338  2.0260
  767MOL0     H 1209   4.751   2.389   3.915 -0.7863  0.2784  1.2496
  767MOL0     H 1210   4.570   2.406   4.016  0.2148 -0.1827 -0.8860
  767MOL0     H 1211   4.449   2.530   4.050  0.3538  2.0860  0.9189
  767MOL0     H 1212   4.746   2.563   4.104 -1.3964  0.6146 -4.5352
  767MOL0     H 1213   4.628   2.493   4.222  3.7438 -0.8144  0.1207
  767MOL0     H 1214   4.508   2.725   4.231 -1.1231 -1.1725 -1.6501
  767MOL0     H 1215   4.605   2.767   4.108 -3.9123 -1.0260 -0.8539
  767MOL0     H 1216   4.806   2.747   4.296 -0.9158 -0.7056 -0.2574
  767MOL0     H 1217   4.679   2.858   4.335 -2.4706  0.5913  0.1028
  767MOL0     H 1218   4.646   2.579   4.424  1.3965  0.3000 -1.0197
  767MOL0     H 1219   4.569   2.725   4.483 -0.4381 -0.6674 -0.8540
  767MOL0     H 1220   4.811   2.791   4.557 -0.9626  0.0368  0.9616
  767MOL0     H 1221   4.851   2.625   4.512  0.4903  1.5860  0.2006
  767MOL0     H 1222   4.644   2.668   4.733 -0.2550 -2.0261 -0.1253
  767MOL0     H 1223   4.711   2.519   4.673  0.1684 -0.6437  2.7609
  767MOL0     H 1224   4.892   2.737   4.788 -2.1563  0.5923  2.4259
  767MOL0     H 1225   4.928   2.570   4.758 -0.8482 -1.1717  1.8318
  767MOL0     H 1226   4.634   2.742   3.740 -1.3211 -1.5398  1.5649
  767MOL0     H 1227   4.856   2.774   3.620  2.5460  0.5469  1.1375
  767MOL0     H 1228   5.192   2.741   3.460  0.5743  0.6348  1.1221
  767MOL0     H 1229   5.362   2.747   3.257 -0.0004  2.2543  2.0818
  767MOL0     H 1230   6.952   2.460   3.597  1.4330 -0.0243 -2.0292
  767MOL0     H 1231   7.203   2.403   3.574 -2.9063 -3.2404  0.0950
  767MOL0     H 1232   7.699   2.498   3.940 -0.3045  2.5151 -0.0812
  767MOL0     H 1233   7.949   2.450   3.869  0.3713  0.6820  0.4752
  767MOL0     H 1234   8.054   2.529   3.443  0.3875  0.1949  1.7119
  767MOL0     H 1235   8.034   2.348   3.444 -1.4562  0.2491 -1.5195
  767MOL0     H 1236   8.275   2.479   3.556 -0.1027 -1.1115  0.6617
  767MOL0     H 1237   8.242   2.301   3.517 -0.1490 -0.9452 -1.6876
  767MOL0     H 1238   8.250   2.524   3.316  0.6901  0.1684 -0.6954
  767MOL0     H 1239   8.254   2.353   3.262  3.1396 -1.9295  0.0029
  767MOL0     H 1240   8.462   2.435   3.225 -2.7647  2.7405  0.0698
  767MOL0     H 1241   8.485   2.499   3.383 -2.8359  1.9034 -1.0113
  767MOL0     H 1242   8.604   2.088   3.393 -0.4434 -0.3879  0.0355
  767MOL0     H 1243   7.822   2.459   3.456 -2.6321 -0.2674  0.0454
  767MOL0     H 1244   7.590   2.463   3.511  1.7873  0.8290 -1.9534
  768MOL0     O 1245   6.737   9.186   2.564  0.0133 -0.0865  0.3724
  768MOL0     C 1246   6.833   9.184   2.635 -0.1466 -0.1071 -0.4305
  768MOL0     O 1247   6.920   9.296   2.655  0.6623  0.2600 -0.4372
  768MOL0     C 1248   6.882   9.415   2.598  0.0675 -0.1872  0.0124
  768MOL0     C 1249   6.847   9.443   2.466  0.3056  0.8118  0.6513
  768MOL0     C 1250   6.846   9.576   2.417 -1.0759 -0.4362  0.2689
  768MOL0     C 1251   6.854   9.684   2.506 -0.3212  1.0171 -0.8841
  768MOL0     O 1252   6.830   9.820   2.486  0.0468 -0.1104 -1.1646
  768MOL0     C 1253   6.781   9.861   2.360 -0.0713  0.0695  0.0557
  768MOL0     C 1254   6.741  10.011   2.375 -0.4836  0.1463 -0.4127
  768MOL0     C 1255   6.859  10.110   2.407  0.2523  0.5087 -0.8213
  768MOL0     C 1256   6.808  10.250   2.426  0.0437 -0.6344 -0.0511
  768MOL0     C 1257   6.916  10.347   2.485 -0.5071  0.3931  0.1916
  768MOL0     C 1258   6.947  10.318   2.639 -0.0232 -0.7988 -0.9065
  768MOL0     C 1259   7.028  10.432   2.699 -0.5281 -0.9022 -0.8563
  768MOL0     C 1260   6.957  10.571   2.705  0.8590  1.1563 -0.2443
  768MOL0     N 1261   6.835  10.561   2.789  0.4809 -0.2177  0.0806
  768MOL0     C 1262   6.835  10.574   2.930  0.4636  0.4051  0.3664
  768MOL0     C 1263   6.706  10.591   2.956  0.4477  0.5252 -0.6275
  768MOL0     C 1264   6.644  10.619   3.094  0.5875 -0.0632 -0.5358
  768MOL0     C 1265   6.608  10.490   3.168 -0.5858  1.0186 -0.9617
  768MOL0     C 1266   6.509  10.385   3.106 -1.0385 -0.2610  0.3320
  768MOL0     C 1267   6.463  10.280   3.200  0.3531  0.7670  1.1144
  768MOL0     O 1268   6.568  10.246   3.287  0.2768 -0.8557 -0.5561
  768MOL0     C 1269   6.538  10.189   3.410 -0.2130 -0.9673 -0.3045
  768MOL0     C 1270   6.637  10.173   3.510 -0.3823  1.1428 -0.5833
  768MOL0     C 1271   6.623  10.099   3.626  0.0896 -0.7440  0.6996
  768MOL0     C 1272   6.504  10.049   3.663  0.6120  0.0420 -0.5050
  768MOL0     C 1273   6.491   9.974   3.795  0.4235  0.6017 -0.4422
  768MOL0     O 1274   6.616   9.936   3.845  0.3358  0.1365  0.4388
  768MOL0     C 1275   6.629   9.843   3.947  0.7788  0.3051 -0.2472
  768MOL0     C 1276   6.742   9.852   4.022  0.4778 -1.0581  0.3693
  768MOL0     C 1277   6.772   9.773   4.129 -0.2237  0.1646  0.2382
  768MOL0     C 1278   6.689   9.664   4.158 -0.3445 -0.4371  0.2949
  768MOL0     O 1279   6.727   9.558   4.239 -0.2837 -0.3720 -0.0785
  768MOL0     C 1280   6.849   9.508   4.209 -0.7856  0.7708  0.3039
  768MOL0     C 1281   6.873   9.369   4.248  0.4677  0.1783 -0.2491
  768MOL0     C 1282   7.002   9.315   4.184  0.5200 -0.4809  0.3418
  768MOL0     C 1283   7.127   9.396   4.208 -0.5068  0.1355 -0.2060
  768MOL0     C 1284   7.258   9.321   4.153  0.8953 -0.3449  0.8593
  768MOL0     C 1285   7.264   9.298   4.000 -0.0674  0.1203 -0.3900
  768MOL0     C 1286   7.388   9.371   3.934  0.1331  0.7361 -0.2422
  768MOL0     C 1287   7.385   9.361   3.790  0.6354  0.4773 -0.1415
  768MOL0    Cl 1288   7.422   9.209   3.708 -0.0144  0.5427 -0.0468
  768MOL0     C 1289   6.572   9.646   4.083  0.2996 -0.8681 -0.6869
  768MOL0     C 1290   6.537   9.741   3.977 -0.7498  0.7374  0.5447
  768MOL0     O 1291   6.382   9.952   3.852 -0.1343  0.6737 -0.4600
  768MOL0     C 1292   6.394  10.079   3.575  0.6796 -0.8254  0.5501
  768MOL0     C 1293   6.413  10.137   3.450 -0.1069 -0.9171  0.2681
  768MOL0     N 1294   6.632  10.563   2.840 -0.3638  0.6153 -1.1018
  768MOL0     N 1295   6.710  10.548   2.745  0.3606 -0.0418  0.6769
  768MOL0     C 1296   6.881   9.652   2.644  0.4357  0.2109  0.1911
  768MOL0     C 1297   6.895   9.519   2.687 -0.0556 -0.2203 -0.5141
  768MOL0     C 1298   6.853   9.059   2.720  0.1211  0.1169 -0.7458
  768MOL0     C 1299   6.939   9.052   2.833 -0.0705  0.0109 -0.3411
  768MOL0     C 1300   6.955   8.933   2.897 -0.1159 -0.1713 -0.0117
  768MOL0     C 1301   6.904   8.814   2.850  0.0300  0.3092 -0.3324
  768MOL0     O 1302   6.959   8.710   2.913 -0.3147 -0.6666 -0.0887
  768MOL0     C 1303   6.967   8.590   2.848 -1.1306  0.0910  0.7798
  768MOL0     C 1304   7.044   8.481   2.919  0.2243  0.2452 -0.0582
  768MOL0     C 1305   7.195   8.502   2.910 -0.2423  0.3964  0.2065
  768MOL0     C 1306   7.270   8.389   2.992  0.3350 -0.6971  0.2970
  768MOL0     C 1307   7.225   8.377   3.134  0.1208 -0.3136  0.3271
  768MOL0     C 1308   7.185   8.387   3.247 -0.3311  0.6227 -0.1918
  768MOL0     C 1309   6.840   8.813   2.725  0.1826 -0.6597  0.7417
  768MOL0     C 1310   6.815   8.937   2.660  0.2664 -0.1413 -0.0389
  768MOL0     H 1311   6.839   9.369   2.387 -0.4886  2.0313 -0.4449
  768MOL0     H 1312   6.828   9.599   2.312  2.5598 -0.6863 -0.5176
  768MOL0     H 1313   6.695   9.804   2.324 -1.5983  1.5152  1.2493
  768MOL0     H 1314   6.856   9.845   2.282 -1.6770 -2.0124 -1.1427
  768MOL0     H 1315   6.665  10.021   2.454 -1.5460 -1.0372 -1.2331
  768MOL0     H 1316   6.691  10.038   2.281 -2.3494  0.1019  0.5086
  768MOL0     H 1317   6.920  10.114   2.316 -0.2252 -0.2962 -1.1788
  768MOL0     H 1318   6.904  10.084   2.503 -4.3300  4.4221  2.9517
  768MOL0     H 1319   6.776  10.304   2.336  0.3268 -2.1998 -1.1162
  768MOL0     H 1320   6.721  10.239   2.491  0.6034 -0.4327  0.7669
  768MOL0     H 1321   6.872  10.446   2.466 -0.1852  0.3086 -1.0568
  768MOL0     H 1322   7.007  10.339   2.426 -0.7898  2.2030 -0.5757
  768MOL0     H 1323   6.995  10.220   2.647  1.8357  0.2567  3.5964
  768MOL0     H 1324   6.848  10.323   2.686 -0.7644 -0.3155 -2.4423
  768MOL0     H 1325   7.070  10.399   2.795 -1.6582 -1.2167 -0.4630
  768MOL0     H 1326   7.113  10.462   2.636 -1.0750 -0.2264 -1.2806
  768MOL0     H 1327   6.935  10.604   2.603 -0.3576  4.5502  0.9697
  768MOL0     H 1328   7.036  10.637   2.744  0.1049  0.8985  1.8629
  768MOL0     H 1329   6.919  10.571   2.998  0.2650  2.6110  0.7925
  768MOL0     H 1330   6.546  10.666   3.080 -0.8741 -1.5282  3.3971
  768MOL0     H 1331   6.700  10.686   3.159 -3.0761  1.2883  1.5039
  768MOL0     H 1332   6.563  10.528   3.260  1.0721  1.0546 -0.1141
  768MOL0     H 1333   6.699  10.435   3.196  1.5903  1.5728 -5.9007
  768MOL0     H 1334   6.419  10.440   3.077 -1.8987 -1.7092  0.1521
  768MOL0     H 1335   6.557  10.330   3.025 -2.6778 -2.5644  0.8153
  768MOL0     H 1336   6.436  10.193   3.139  0.7066 -0.4844  2.6715
  768MOL0     H 1337   6.371  10.319   3.245 -0.3792  1.3427 -0.7803
  768MOL0     H 1338   6.737  10.210   3.490  0.6144  0.4572  2.5515
  768MOL0     H 1339   6.714  10.090   3.685  1.1283  0.6416 -0.6199
  768MOL0     H 1340   6.812   9.932   3.995 -4.2224  3.1988 -0.7106
  768MOL0     H 1341   6.867   9.795   4.175  0.5871 -0.3318 -1.1500
  768MOL0     H 1342   6.927   9.572   4.250 -0.1134  0.4515 -0.4311
  768MOL0     H 1343   6.850   9.507   4.099 -1.3332 -1.2517  0.2737
  768MOL0     H 1344   6.783   9.312   4.224  1.8659 -1.4143 -2.0799
  768MOL0     H 1345   6.879   9.364   4.357  0.4187  0.6552 -0.2237
  768MOL0     H 1346   6.976   9.312   4.078 -6.2356  2.3054  1.3993
  768MOL0     H 1347   7.024   9.214   4.220  2.1451 -0.9302 -1.7285
  768MOL0     H 1348   7.132   9.481   4.139 -1.5880 -0.7302 -1.4150
  768MOL0     H 1349   7.145   9.419   4.313  2.9752 -1.2368 -0.3732
  768MOL0     H 1350   7.253   9.226   4.209 -4.2544 -0.7915  0.1562
  768MOL0     H 1351   7.333   9.395   4.180 -0.4815  2.2903 -2.0442
  768MOL0     H 1352   7.173   9.337   3.955  0.4184  3.0500  0.9154
  768MOL0     H 1353   7.264   9.192   3.975  1.1199  0.1626 -0.6459
  768MOL0     H 1354   7.378   9.474   3.969  0.1937  0.4524  0.6196
  768MOL0     H 1355   7.489   9.338   3.960  1.1104  1.0256 -3.2993
  768MOL0     H 1356   7.454   9.436   3.751  0.4824  0.5606 -0.2533
  768MOL0     H 1357   7.283   9.387   3.759 -0.0694 -3.1774 -1.4284
  768MOL0     H 1358   6.500   9.568   4.108  1.2330 -2.1595 -1.8694
  768MOL0     H 1359   6.446   9.727   3.920  1.7411 -0.2807 -3.6629
  768MOL0     H 1360   6.298  10.045   3.611  0.2869  2.1057  2.6116
  768MOL0     H 1361   6.332  10.149   3.378  0.2805  0.3412  0.0038
  768MOL0     H 1362   6.895   9.741   2.706 -0.7138  2.2026 -2.2319
  768MOL0     H 1363   6.931   9.491   2.786  0.0145 -1.2715 -0.8251
  768MOL0     H 1364   6.982   9.139   2.882 -0.5631 -0.3378  0.7404
  768MOL0     H 1365   7.012   8.932   2.989 -2.5560 -0.8462  1.5787
  768MOL0     H 1366   7.014   8.572   2.751  0.4009 -5.6240  2.2355
  768MOL0     H 1367   6.862   8.563   2.837 -1.4110  1.2900  0.2403
  768MOL0     H 1368   7.019   8.477   3.025  2.3080 -2.8404  0.4542
  768MOL0     H 1369   7.017   8.385   2.873 -1.8079  1.6197 -2.0005
  768MOL0     H 1370   7.233   8.595   2.952 -0.7401  1.1143 -0.8855
  768MOL0     H 1371   7.226   8.499   2.805 -1.9766  0.6681 -0.3459
  768MOL0     H 1372   7.258   8.286   2.957  0.5547 -0.7298  0.3166
  768MOL0     H 1373   7.378   8.405   2.993  0.3773 -0.9186 -0.2758
  768MOL0     H 1374   7.142   8.412   3.342 -1.9753 -0.1568 -0.6959
  768MOL0     H 1375   6.803   8.720   2.684 -2.7254  0.9335 -0.6122
  768MOL0     H 1376   6.766   8.933   2.563 -0.9675 -1.4116  0.6105
  769MOL0     O 1377   0.864   8.103   6.637 -0.3046  0.5280  0.1763
  769MOL0     C 1378   0.773   8.095   6.561  0.2947 -0.4479  1.2402
  769MOL0     O 1379   0.687   8.195   6.519 -0.1654 -0.1841  0.1455
  769MOL0     C 1380   0.740   8.318   6.559 -0.0227 -0.2180  0.3490
  769MOL0     C 1381   0.750   8.341   6.697 -0.0735 -0.1016  0.0315
  769MOL0     C 1382   0.816   8.453   6.743  0.9440 -0.7587  0.0013
  769MOL0     C 1383   0.852   8.557   6.660 -0.6767  0.0385  0.4102
  769MOL0     O 1384   0.890   8.679   6.717 -0.0790 -0.5291  0.2259
  769MOL0     C 1385   0.936   8.783   6.621  0.2604 -0.4993 -0.9788
  769MOL0     C 1386   1.004   8.903   6.690  0.2855  0.4500  0.3266
  769MOL0     C 1387   0.995   9.032   6.609 -0.9312 -0.4371  0.5568
  769MOL0     C 1388   1.096   9.131   6.676 -0.3137 -0.1397 -1.1276
  769MOL0     C 1389   1.041   9.286   6.697  0.0128  0.6067 -0.2430
  769MOL0     C 1390   1.104   9.347   6.825  0.1470 -0.1912  0.1733
  769MOL0     C 1391   1.068   9.500   6.831 -0.3226 -0.4246  0.2265
  769MOL0     C 1392   1.092   9.561   6.970  0.3272  0.0938 -0.6743
  769MOL0     N 1393   1.066   9.703   6.982 -0.5832  0.7598  0.3499
  769MOL0     C 1394   0.988   9.792   6.913  0.8169 -0.2937  0.5981
  769MOL0     C 1395   1.024   9.917   6.949  0.7684  0.7194  0.4558
  769MOL0     C 1396   0.976  10.048   6.906  0.2371  0.1145 -0.3016
  769MOL0     C 1397   0.833  10.062   6.973  0.2191  0.0947  0.5317
  769MOL0     C 1398   0.800  10.212   6.936  0.4369  0.1026 -0.4448
  769MOL0     C 1399   0.658  10.248   6.979 -0.3425 -0.3864 -0.3229
  769MOL0     O 1400   0.559  10.160   6.927 -1.1466 -0.1256  0.8625
  769MOL0     C 1401   0.439  10.149   6.987 -0.5084 -0.1614  0.5748
  769MOL0     C 1402   0.395  10.260   7.071  0.1254 -0.1296 -0.2737
  769MOL0     C 1403   0.273  10.256   7.134  0.3563  0.0185 -0.3645
  769MOL0     C 1404   0.190  10.139   7.126  0.2111  0.1420 -0.1923
  769MOL0     C 1405   0.059  10.143   7.193 -1.2655  0.0375 -0.6497
  769MOL0     O 1406  -0.038  10.049   7.165  0.6813  0.0723  0.3201
  769MOL0     C 1407  -0.141  10.038   7.250  0.3723 -0.1946 -0.7592
  769MOL0     C 1408  -0.268  10.019   7.188  0.2395  0.0619 -0.4803
  769MOL0     C 1409  -0.384  10.017   7.272 -0.0498  0.0922  0.2491
  769MOL0     C 1410  -0.387  10.049   7.403 -0.2802  0.0047 -0.0785
  769MOL0     O 1411  -0.502  10.079   7.464 -0.3460 -0.0951 -0.4721
  769MOL0     C 1412  -0.523  10.018   7.594 -0.4427 -0.0688  0.4934
  769MOL0     C 1413  -0.647  10.081   7.645  0.2312 -0.4345 -0.4514
  769MOL0     C 1414  -0.699   9.996   7.768 -0.5394 -0.2564  0.6874
  769MOL0     C 1415  -0.623  10.003   7.896 -0.0126  0.1265  0.0397
  769MOL0     C 1416  -0.664   9.896   8.001  0.0600 -0.1383  1.1453
  769MOL0     C 1417  -0.811   9.917   8.035  1.0193 -0.2407  0.8164
  769MOL0     C 1418  -0.862   9.800   8.123  0.7189  1.2579 -0.1532
  769MOL0     C 1419  -0.992   9.825   8.205 -0.1512 -0.3227  0.6116
  769MOL0    Cl 1420  -0.967   9.973   8.311 -0.6389  0.2799  0.0956
  769MOL0     C 1421  -0.266  10.076   7.465  0.2256  0.1956  0.5281
  769MOL0     C 1422  -0.142  10.060   7.392 -0.1641 -0.3831  1.0365
  769MOL0     O 1423   0.050  10.238   7.269  0.4799  0.3439  0.2573
  769MOL0     C 1424   0.231  10.028   7.046 -0.5583  0.0032 -0.1893
  769MOL0     C 1425   0.349  10.041   6.975  0.3314  0.6190  0.1727
  769MOL0     N 1426   1.124   9.904   7.043  0.9391  0.6189 -0.4972
  769MOL0     N 1427   1.138   9.776   7.065 -0.2852 -1.1932 -0.7459
  769MOL0     C 1428   0.835   8.535   6.527 -0.1405  0.5976  1.2831
  769MOL0     C 1429   0.775   8.420   6.470  0.2980  0.1638  0.2764
  769MOL0     C 1430   0.750   7.971   6.491  0.4471 -0.1272  0.0436
  769MOL0     C 1431   0.648   7.959   6.389 -0.5481 -0.3797  0.1734
  769MOL0     C 1432   0.643   7.841   6.320 -0.3816 -0.1161 -0.0879
  769MOL0     C 1433   0.715   7.727   6.358  0.2430 -0.5551  0.3841
  769MOL0     O 1434   0.698   7.595   6.304 -0.6856  0.2991  0.5660
  769MOL0     C 1435   0.594   7.579   6.204  0.2822 -0.9993 -1.3107
  769MOL0     C 1436   0.580   7.428   6.194 -0.7877  0.6546  0.1699
  769MOL0     C 1437   0.710   7.353   6.143  0.7217 -0.3615  0.2835
  769MOL0     C 1438   0.686   7.194   6.135 -0.1232  0.0241 -0.2756
  769MOL0     C 1439   0.805   7.114   6.108 -0.5095  0.0958  0.4964
  769MOL0     C 1440   0.914   7.070   6.113 -1.0266  0.5280  0.0526
  769MOL0     C 1441   0.812   7.738   6.454  0.5467 -0.1700 -0.0318
  769MOL0     C 1442   0.831   7.861   6.521  0.0321  0.2939  0.6357
  769MOL0     H 1443   0.722   8.260   6.763  0.0164  1.6995  2.4071
  769MOL0     H 1444   0.819   8.484   6.847  1.4201 -0.0477 -0.2215
  769MOL0     H 1445   0.855   8.812   6.553 -0.6767 -2.3061 -0.6841
  769MOL0     H 1446   1.012   8.748   6.550 -0.2610 -1.4007 -1.1099
  769MOL0     H 1447   1.104   8.862   6.704 -0.4533 -1.9076 -0.8290
  769MOL0     H 1448   0.959   8.909   6.790 -3.9566 -0.2348 -1.3072
  769MOL0     H 1449   0.890   9.061   6.624 -1.0694 -1.8970  2.8380
  769MOL0     H 1450   1.022   9.008   6.506 -0.1098  1.5696  0.2494
  769MOL0     H 1451   1.122   9.089   6.773 -0.2516  2.0358 -0.1510
  769MOL0     H 1452   1.191   9.136   6.621  1.5503 -0.3769  1.8507
  769MOL0     H 1453   0.933   9.274   6.703 -0.2855  2.4075 -1.4474
  769MOL0     H 1454   1.056   9.352   6.612  1.3396  1.0625  0.3251
  769MOL0     H 1455   1.213   9.338   6.832 -0.0824 -2.2617  3.4590
  769MOL0     H 1456   1.059   9.300   6.913 -0.9167 -1.2482 -0.9011
  769MOL0     H 1457   1.133   9.557   6.764  0.0019  0.1037  0.9720
  769MOL0     H 1458   0.964   9.502   6.798 -0.6843  1.6945  1.2696
  769MOL0     H 1459   1.198   9.546   6.995 -0.1202 -1.2305  0.6018
  769MOL0     H 1460   1.038   9.511   7.051  1.3928 -1.2451 -0.7459
  769MOL0     H 1461   0.918   9.762   6.835  2.4389 -3.2011  0.0804
  769MOL0     H 1462   0.979  10.047   6.797  2.9574 -1.5899 -0.3043
  769MOL0     H 1463   1.035  10.135   6.937 -0.0503  0.3683 -0.4554
  769MOL0     H 1464   0.838  10.050   7.082  2.8570  0.4119  0.5200
  769MOL0     H 1465   0.768   9.994   6.917 -0.7593  0.1908  1.5304
  769MOL0     H 1466   0.869  10.288   6.974 -1.5910  2.4281 -1.1294
  769MOL0     H 1467   0.798  10.217   6.827 -3.3991 -2.4578 -0.6830
  769MOL0     H 1468   0.647  10.352   6.948  0.6772 -1.0845 -3.3914
  769MOL0     H 1469   0.656  10.256   7.089 -1.1535  0.3203 -0.3772
  769MOL0     H 1470   0.455  10.349   7.087 -0.0523 -0.1973  0.8116
  769MOL0     H 1471   0.244  10.349   7.182  2.2566 -0.1675  1.2630
  769MOL0     H 1472  -0.279  10.021   7.081 -0.8585 -0.9026 -0.3999
  769MOL0     H 1473  -0.488  10.009   7.242 -0.2383  1.0933  0.6109
  769MOL0     H 1474  -0.443  10.020   7.668 -1.2035 -2.5238  1.4897
  769MOL0     H 1475  -0.540   9.911   7.579  1.9027 -0.1923 -2.0289
  769MOL0     H 1476  -0.721  10.090   7.565 -0.1319 -1.7565 -0.2954
  769MOL0     H 1477  -0.630  10.179   7.691  0.4657 -1.5097  1.9402
  769MOL0     H 1478  -0.694   9.888   7.749  0.2327 -0.7598  3.2865
  769MOL0     H 1479  -0.805  10.023   7.778 -1.2525 -2.3761 -0.4625
  769MOL0     H 1480  -0.518   9.987   7.872  1.0237  0.2846  3.8177
  769MOL0     H 1481  -0.642  10.104   7.934 -1.4428  0.2161 -0.8404
  769MOL0     H 1482  -0.602   9.910   8.091 -0.4095  1.5684  1.2351
  769MOL0     H 1483  -0.635   9.796   7.967  0.3285 -0.0539  1.1213
  769MOL0     H 1484  -0.873   9.909   7.945  1.5755 -4.1451  0.5892
  769MOL0     H 1485  -0.825  10.013   8.086 -2.4363 -1.5213  2.6126
  769MOL0     H 1486  -0.889   9.712   8.063  0.3921  0.3786  1.2398
  769MOL0     H 1487  -0.779   9.772   8.188  2.7944  0.5088 -2.9212
  769MOL0     H 1488  -1.005   9.733   8.262  1.2569 -0.0891  1.3411
  769MOL0     H 1489  -1.071   9.846   8.131  0.5213 -1.1979 -0.3909
  769MOL0     H 1490  -0.254  10.085   7.572 -5.3079 -0.7147  1.5557
  769MOL0     H 1491  -0.051  10.059   7.450 -0.4506  0.6295  1.5300
  769MOL0     H 1492   0.178   9.934   7.038  0.5666 -0.9580  2.4167
  769MOL0     H 1493   0.362   9.961   6.903 -0.3459  2.5275 -2.2402
  769MOL0     H 1494   0.858   8.611   6.453 -1.7161  1.9765  2.1435
  769MOL0     H 1495   0.775   8.404   6.363  0.5005 -1.0481  0.4472
  769MOL0     H 1496   0.584   8.044   6.366 -0.4705 -0.2915  0.2794
  769MOL0     H 1497   0.551   7.841   6.264 -0.6037  1.0633  0.2562
  769MOL0     H 1498   0.614   7.638   6.115  1.2363 -1.4218 -1.3853
  769MOL0     H 1499   0.498   7.596   6.256  1.1292 -0.9878  0.3300
  769MOL0     H 1500   0.539   7.393   6.289  2.0973  0.1922  1.3728
  769MOL0     H 1501   0.510   7.407   6.113  3.9619  2.3422 -5.0315
  769MOL0     H 1502   0.800   7.366   6.203  0.5791 -0.7736  0.5942
  769MOL0     H 1503   0.727   7.387   6.040 -0.4363  3.0702  1.1036
  769MOL0     H 1504   0.654   7.162   6.235  3.0100  2.4689  1.7034
  769MOL0     H 1505   0.603   7.183   6.065  0.0884 -1.4142 -0.3393
  769MOL0     H 1506   1.009   7.022   6.121 -1.8896 -1.0181  1.8839
  769MOL0     H 1507   0.869   7.649   6.477 -3.1913 -2.8505 -0.1662
  769MOL0     H 1508   0.906   7.870   6.599 -0.5592  2.9059  1.0119
  770MOL0     O 1509   1.364   1.712   1.592  0.3605 -0.1318 -0.3851
  770MOL0     C 1510   1.433   1.652   1.677  0.3166 -0.8871  0.2433
  770MOL0     O 1511   1.422   1.679   1.810 -0.6175  0.0589  0.4687
  770MOL0     C 1512   1.317   1.756   1.851  0.5151  0.3133 -0.3764
  770MOL0     C 1513   1.184   1.739   1.824 -0.6615 -0.6931  0.0189
  770MOL0     C 1514   1.092   1.827   1.880 -0.1048  0.2805  0.3755
  770MOL0     C 1515   1.126   1.926   1.970 -1.0319  0.1449  0.7573
  770MOL0     O 1516   1.035   2.008   2.032 -0.9159  0.1656  0.1242
  770MOL0     C 1517   0.920   2.047   1.966 -0.0798  0.0924 -0.0517
  770MOL0     C 1518   0.848   2.154   2.042  0.2343 -0.4556 -0.5660
  770MOL0     C 1519   0.915   2.298   2.019 -0.1843 -0.0217  0.2427
  770MOL0     C 1520   0.829   2.402   2.072 -0.2604 -0.0505 -0.0827
  770MOL0     C 1521   0.882   2.541   2.056  0.2862 -0.4382 -0.1012
  770MOL0     C 1522   0.928   2.587   1.923 -0.0940  0.3190 -0.5811
  770MOL0     C 1523   0.996   2.718   1.944  0.6687  0.2617 -0.7573
  770MOL0     C 1524   1.051   2.766   1.818 -0.6808 -0.1525 -0.1726
  770MOL0     N 1525   1.128   2.889   1.828 -0.6453  0.4701 -0.3004
  770MOL0     C 1526   1.075   3.005   1.880  0.1432  0.7040  0.3596
  770MOL0     C 1527   1.158   3.098   1.836 -0.3305 -0.2458  0.4273
  770MOL0     C 1528   1.124   3.239   1.867 -0.1243 -0.0455  0.0789
  770MOL0     C 1529   0.973   3.278   1.830 -0.2447  0.9820  0.1201
  770MOL0     C 1530   0.913   3.409   1.873 -0.3446  0.4431  0.6781
  770MOL0     C 1531   0.786   3.443   1.783  0.1028  0.0866 -0.4718
  770MOL0     O 1532   0.678   3.372   1.847  0.1888 -0.4896 -0.3796
  770MOL0     C 1533   0.564   3.357   1.769  0.5354 -0.5037 -0.2416
  770MOL0     C 1534   0.454   3.282   1.817  0.3031 -0.1121 -0.2793
  770MOL0     C 1535   0.335   3.275   1.740 -0.8673  0.8807  0.5476
  770MOL0     C 1536   0.317   3.340   1.616 -0.2790 -1.1099 -0.4151
  770MOL0     C 1537   0.185   3.339   1.541 -0.5593 -0.1530 -0.6546
  770MOL0     O 1538   0.173   3.431   1.442 -0.5925  0.1473  0.3003
  770MOL0     C 1539   0.064   3.449   1.358 -0.1799  0.0316 -0.3919
  770MOL0     C 1540   0.052   3.586   1.338 -1.0414  0.7923 -0.2798
  770MOL0     C 1541  -0.055   3.637   1.267 -0.4860  0.4700  0.0590
  770MOL0     C 1542  -0.155   3.553   1.222  0.6920  0.9971 -0.2287
  770MOL0     O 1543  -0.267   3.601   1.160 -0.5429  0.2405 -0.0058
  770MOL0     C 1544  -0.350   3.699   1.232  0.1490 -0.4852  0.6695
  770MOL0     C 1545  -0.476   3.635   1.294 -0.1691 -0.1453  0.9314
  770MOL0     C 1546  -0.565   3.593   1.173 -0.1951 -0.8096 -0.6708
  770MOL0     C 1547  -0.681   3.507   1.223 -0.2205  0.0875 -1.0147
  770MOL0     C 1548  -0.646   3.359   1.256 -0.0635 -0.5233  1.0118
  770MOL0     C 1549  -0.586   3.290   1.131 -0.8564  0.0660  0.1212
  770MOL0     C 1550  -0.602   3.133   1.137  0.1439 -0.8491 -0.6680
  770MOL0     C 1551  -0.500   3.072   1.044 -0.0211  0.6372 -0.0233
  770MOL0    Cl 1552  -0.328   3.055   1.117 -0.3044 -0.0615  0.2435
  770MOL0     C 1553  -0.132   3.412   1.227  0.1277  0.6373  0.2045
  770MOL0     C 1554  -0.030   3.359   1.307 -0.0250  0.5990 -0.1251
  770MOL0     O 1555   0.098   3.254   1.581  0.7086 -0.5501 -0.5403
  770MOL0     C 1556   0.423   3.411   1.568 -0.6263 -0.0222 -0.3872
  770MOL0     C 1557   0.540   3.428   1.650  0.2033 -0.0663 -0.3024
  770MOL0     N 1558   1.256   3.044   1.755  0.1221 -1.1051  0.4995
  770MOL0     N 1559   1.236   2.923   1.751 -0.0337  0.2012  0.2921
  770MOL0     C 1560   1.265   1.944   1.988 -0.6765  0.3076  0.5573
  770MOL0     C 1561   1.355   1.860   1.931  0.1475 -1.1468 -0.5229
  770MOL0     C 1562   1.526   1.555   1.629 -0.0098 -0.6201 -0.4513
  770MOL0     C 1563   1.488   1.480   1.508  0.4463 -0.5492  0.4521
  770MOL0     C 1564   1.586   1.414   1.441  0.1883  0.9006  0.0043
  770MOL0     C 1565   1.719   1.412   1.491  0.9600  0.0225  0.4073
  770MOL0     O 1566   1.816   1.357   1.412  0.5253  0.0743 -1.0447
  770MOL0     C 1567   1.824   1.210   1.419  0.1162 -0.3357 -0.2485
  770MOL0     C 1568   1.972   1.174   1.441  0.3380  0.8678 -0.1153
  770MOL0     C 1569   1.989   1.020   1.428  0.8016 -0.5517 -0.3972
  770MOL0     C 1570   2.042   0.969   1.304  0.9193 -0.1078  0.1513
  770MOL0     C 1571   2.185   1.005   1.278  0.3251 -0.2370  0.4492
  770MOL0     C 1572   2.301   1.041   1.251 -0.3552 -0.9039 -0.9363
  770MOL0     C 1573   1.749   1.483   1.607 -0.8725 -0.2430  0.4502
  770MOL0     C 1574   1.653   1.552   1.681 -0.3765  0.5895 -0.3126
  770MOL0     H 1575   1.150   1.654   1.766 -3.3662  0.7341 -0.6471
  770MOL0     H 1576   0.991   1.797   1.855  1.2103 -2.6437 -1.9157
  770MOL0     H 1577   0.860   1.956   1.968  2.6461 -1.8111  0.7045
  770MOL0     H 1578   0.934   2.075   1.862  0.8016  0.2945  0.1092
  770MOL0     H 1579   0.850   2.137   2.150 -1.8790  2.5965  0.1035
  770MOL0     H 1580   0.744   2.159   2.007  0.4233  0.8864 -0.9711
  770MOL0     H 1581   0.934   2.320   1.913 -1.4272  4.7151  0.7369
  770MOL0     H 1582   1.006   2.302   2.079  0.0960  0.6862 -0.2091
  770MOL0     H 1583   0.729   2.400   2.027 -0.8199 -0.1040  1.1082
  770MOL0     H 1584   0.804   2.372   2.175 -0.9543 -3.0634 -1.0258
  770MOL0     H 1585   0.971   2.540   2.119 -1.0182 -2.6053  1.8631
  770MOL0     H 1586   0.803   2.612   2.084  0.9282  1.0541 -1.8650
  770MOL0     H 1587   0.842   2.594   1.856 -0.4338  1.1625 -0.0748
  770MOL0     H 1588   1.005   2.525   1.875  3.0643  1.8021  2.1451
  770MOL0     H 1589   0.929   2.787   1.997  1.5263  0.3231  0.2932
  770MOL0     H 1590   1.085   2.700   2.005 -0.3409 -2.4774  0.0645
  770MOL0     H 1591   0.963   2.776   1.754 -0.3066 -1.8630 -0.9972
  770MOL0     H 1592   1.111   2.694   1.762  3.3883  0.0232  3.4066
  770MOL0     H 1593   0.984   3.025   1.935  0.3918  1.3292  0.5564
  770MOL0     H 1594   1.190   3.314   1.824 -1.8433  0.7211 -1.3724
  770MOL0     H 1595   1.124   3.257   1.975 -1.0326  5.2278 -0.4851
  770MOL0     H 1596   0.909   3.193   1.854  2.8972 -1.6310 -0.0062
  770MOL0     H 1597   0.954   3.297   1.724 -3.0390  0.8172  0.5372
  770MOL0     H 1598   0.881   3.418   1.977 -1.0773 -0.6456  0.5664
  770MOL0     H 1599   0.995   3.478   1.855  2.2697 -1.5836  3.7417
  770MOL0     H 1600   0.796   3.413   1.679  2.1329 -1.4051  0.0942
  770MOL0     H 1601   0.786   3.552   1.796  4.3117  0.1324  0.6207
  770MOL0     H 1602   0.456   3.227   1.910 -3.9296 -0.1514  0.0111
  770MOL0     H 1603   0.257   3.209   1.776  0.0246 -0.3086  0.3495
  770MOL0     H 1604   0.132   3.652   1.372  1.0214 -1.0790 -1.2186
  770MOL0     H 1605  -0.056   3.744   1.247  2.4991  0.1686 -2.4643
  770MOL0     H 1606  -0.386   3.776   1.163 -1.3010 -0.5886  1.2633
  770MOL0     H 1607  -0.298   3.754   1.312  1.4366 -0.2945 -0.2686
  770MOL0     H 1608  -0.541   3.708   1.344 -2.9041 -0.0772 -2.3517
  770MOL0     H 1609  -0.469   3.547   1.359  0.7091 -0.3535  0.5761
  770MOL0     H 1610  -0.496   3.543   1.105  1.7418  1.5643 -0.5973
  770MOL0     H 1611  -0.608   3.680   1.121 -0.7529 -0.5381  0.2251
  770MOL0     H 1612  -0.717   3.550   1.317 -1.5150 -0.8020 -1.0797
  770MOL0     H 1613  -0.765   3.506   1.152  0.2656 -1.2255 -1.6092
  770MOL0     H 1614  -0.735   3.311   1.299 -0.1773  2.2014  4.2685
  770MOL0     H 1615  -0.570   3.362   1.334 -1.4506  1.4658  2.3754
  770MOL0     H 1616  -0.479   3.310   1.121 -0.5524 -1.9553 -1.3154
  770MOL0     H 1617  -0.625   3.320   1.034  2.5249 -0.7762 -1.6411
  770MOL0     H 1618  -0.590   3.094   1.239 -1.2642 -0.7030 -0.4343
  770MOL0     H 1619  -0.701   3.095   1.111  1.1426 -3.3268 -1.2054
  770MOL0     H 1620  -0.504   3.124   0.948 -0.0933 -0.0029 -0.3798
  770MOL0     H 1621  -0.526   2.966   1.031 -2.2610  0.8924  1.7271
  770MOL0     H 1622  -0.192   3.343   1.167 -0.0913  2.3432 -1.6220
  770MOL0     H 1623  -0.021   3.255   1.335 -0.6787  0.4767 -0.3434
  770MOL0     H 1624   0.414   3.456   1.470 -1.6849 -0.1798 -0.3719
  770MOL0     H 1625   0.618   3.497   1.619  0.7660  1.4601  3.7924
  770MOL0     H 1626   1.280   2.026   2.057 -0.3360  0.8692 -0.1676
  770MOL0     H 1627   1.458   1.868   1.966  0.0251  1.4549 -0.5115
  770MOL0     H 1628   1.386   1.488   1.472  0.5553  2.5410  0.5992
  770MOL0     H 1629   1.562   1.366   1.347  0.4230 -0.5349  0.6529
  770MOL0     H 1630   1.797   1.173   1.320 -0.2373  3.2317 -1.6542
  770MOL0     H 1631   1.763   1.170   1.500  1.9097 -0.9076  0.8992
  770MOL0     H 1632   2.031   1.219   1.361  2.9695  0.7046  1.6331
  770MOL0     H 1633   2.012   1.212   1.535 -1.8892  1.6036  0.5948
  770MOL0     H 1634   1.897   0.961   1.437  0.9810 -0.9417 -1.0139
  770MOL0     H 1635   2.054   0.985   1.509 -0.3902 -1.8897  0.0209
  770MOL0     H 1636   2.026   0.861   1.293  0.3146 -0.1066  0.9175
  770MOL0     H 1637   1.987   1.012   1.220  1.5663  1.2134  0.3650
  770MOL0     H 1638   2.405   1.059   1.228  0.0357 -2.0712 -0.1660
  770MOL0     H 1639   1.853   1.483   1.636 -0.3009  3.2007 -1.0857
  770MOL0     H 1640   1.697   1.598   1.769  1.2903  0.7873 -1.2065
  771MOL0     O 1641  10.121   8.346   0.420  0.0710  0.1590  0.2363
  771MOL0     C 1642  10.020   8.277   0.406 -0.4528  0.5723  0.7712
  771MOL0     O 1643   9.982   8.175   0.485 -0.3770  0.1412 -0.8515
  771MOL0     C 1644  10.078   8.108   0.563 -0.1146  0.3121  0.4349
  771MOL0     C 1645  10.045   8.049   0.682  1.0977 -0.0991 -0.7290
  771MOL0     C 1646  10.138   7.983   0.763  0.7317 -0.2482  0.8653
  771MOL0     C 1647  10.275   7.988   0.724  0.0112  0.0018 -0.3224
  771MOL0     O 1648  10.376   7.933   0.800  0.5009 -0.0746  0.1573
  771MOL0     C 1649  10.430   8.022   0.905  0.4149 -0.3212 -0.0930
  771MOL0     C 1650  10.362   8.010   1.040  0.1750 -0.0556 -0.4813
  771MOL0     C 1651  10.250   8.117   1.052  0.6792  0.3286  0.0619
  771MOL0     C 1652  10.291   8.268   1.074  0.3688  0.5892 -0.7410
  771MOL0     C 1653  10.149   8.334   1.084 -0.0739  0.4447 -0.1731
  771MOL0     C 1654  10.179   8.494   1.093  0.5950  0.1076 -0.3238
  771MOL0     C 1655  10.249   8.571   0.986 -0.6927  0.1530 -0.4117
  771MOL0     C 1656  10.193   8.550   0.842 -0.3083 -0.7661  0.7307
  771MOL0     N 1657  10.273   8.618   0.731 -0.0110 -0.0607 -0.3428
  771MOL0     C 1658  10.284   8.564   0.614  0.0478  0.2947  0.7515
  771MOL0     C 1659  10.391   8.631   0.558  0.3413  0.8384  0.3852
  771MOL0     C 1660  10.451   8.573   0.426  0.0219  0.1244 -0.2041
  771MOL0     C 1661  10.555   8.669   0.376  0.3980  0.4492 -0.1107
  771MOL0     C 1662  10.501   8.776   0.284  0.0462  0.4835  0.3492
  771MOL0     C 1663  10.604   8.877   0.242  0.8500  0.3634 -0.6624
  771MOL0     O 1664  10.621   8.972   0.339  0.3892 -0.5709 -0.7316
  771MOL0     C 1665  10.663   9.097   0.298 -0.3681  1.4530  0.2127
  771MOL0     C 1666  10.566   9.200   0.283 -0.7858  0.3935  0.7903
  771MOL0     C 1667  10.605   9.322   0.227  0.5006  1.1581  0.1142
  771MOL0     C 1668  10.739   9.349   0.206 -0.0221 -0.1900  0.3571
  771MOL0     C 1669  10.773   9.490   0.163  0.2210 -0.2918 -0.2776
  771MOL0     O 1670  10.670   9.573   0.127  0.9343  0.3920 -0.6083
  771MOL0     C 1671  10.697   9.691   0.060  0.0220  0.3624  0.3425
  771MOL0     C 1672  10.752   9.704  -0.067  0.2421 -0.5285 -0.9556
  771MOL0     C 1673  10.770   9.836  -0.128  0.1402  0.7087  0.0321
  771MOL0     C 1674  10.734   9.950  -0.058  0.5580 -0.7981  0.1313
  771MOL0     O 1675  10.763  10.082  -0.098 -0.0043  0.4623 -0.3973
  771MOL0     C 1676  10.768  10.125  -0.233 -0.4014  0.1400 -1.0509
  771MOL0     C 1677  10.638  10.199  -0.261 -0.6377 -0.8035 -0.6009
  771MOL0     C 1678  10.650  10.347  -0.204 -0.8180  0.8745 -0.8151
  771MOL0     C 1679  10.529  10.412  -0.248  0.8048 -0.3644 -0.4697
  771MOL0     C 1680  10.507  10.530  -0.146  0.4867  0.1768  0.2334
  771MOL0     C 1681  10.374  10.601  -0.163  0.6172  0.0921 -0.5403
  771MOL0     C 1682  10.245  10.511  -0.159 -0.4888  0.0992 -0.6159
  771MOL0     C 1683  10.116  10.594  -0.120  0.3985 -0.0544  0.0803
  771MOL0    Cl 1684  10.136  10.673   0.037  0.4488 -0.1142 -0.3082
  771MOL0     C 1685  10.675   9.931   0.071  0.4801  0.1531  0.0231
  771MOL0     C 1686  10.644   9.805   0.123  0.5502  0.5052 -0.0467
  771MOL0     O 1687  10.893   9.528   0.165  0.3057  0.0897  0.2474
  771MOL0     C 1688  10.839   9.244   0.221 -0.3333  0.2584  0.0774
  771MOL0     C 1689  10.801   9.115   0.271 -1.7460 -0.3188 -0.3921
  771MOL0     N 1690  10.446   8.716   0.654 -0.2317 -0.7344 -0.7183
  771MOL0     N 1691  10.361   8.721   0.748  0.3583  0.2917 -0.4849
  771MOL0     C 1692  10.313   8.033   0.596  0.6126  0.0644 -1.0045
  771MOL0     C 1693  10.212   8.091   0.520 -0.1760 -0.0449 -0.4119
  771MOL0     C 1694   9.921   8.310   0.299  0.0323 -0.0087  0.6306
  771MOL0     C 1695   9.799   8.242   0.299  0.3601  0.2589 -0.5531
  771MOL0     C 1696   9.697   8.290   0.213 -0.1980  1.0074 -0.3081
  771MOL0     C 1697   9.724   8.403   0.137 -0.7259  0.9175  0.6059
  771MOL0     O 1698   9.638   8.463   0.044 -0.5131  0.1129 -0.3212
  771MOL0     C 1699   9.526   8.383  -0.006  0.4734 -0.5360  0.0887
  771MOL0     C 1700   9.498   8.435  -0.144  0.8348 -1.1572 -0.8410
  771MOL0     C 1701   9.398   8.352  -0.218 -0.6391  0.0354 -0.9900
  771MOL0     C 1702   9.248   8.345  -0.166 -0.3617 -0.5491  0.6788
  771MOL0     C 1703   9.234   8.276  -0.037  0.1602  0.6966 -0.1786
  771MOL0     C 1704   9.230   8.216   0.067  0.0086  0.9472 -0.5217
  771MOL0     C 1705   9.845   8.462   0.132  0.2895  0.2618 -0.2970
  771MOL0     C 1706   9.949   8.416   0.216  0.3160  0.2741 -0.3204
  771MOL0     H 1707   9.941   8.053   0.714  0.8788 -2.2500 -1.0596
  771MOL0     H 1708  10.102   7.933   0.853 -0.5627 -0.3108  0.3270
  771MOL0     H 1709  10.417   8.128   0.882  2.4166  0.1474  0.7609
  771MOL0     H 1710  10.536   7.997   0.913  0.4257 -0.8780 -1.5765
  771MOL0     H 1711  10.432   8.039   1.119 -2.0258  3.2360  0.4506
  771MOL0     H 1712  10.326   7.908   1.055  0.9604 -0.0506  1.8489
  771MOL0     H 1713  10.189   8.081   1.136  2.9309 -3.0352  0.4950
  771MOL0     H 1714  10.184   8.097   0.967 -0.1143 -2.2469  1.1734
  771MOL0     H 1715  10.341   8.280   1.170 -1.1648  0.4258  0.1126
  771MOL0     H 1716  10.343   8.320   0.993 -1.8339  0.0951 -2.5962
  771MOL0     H 1717  10.086   8.314   1.170 -0.0276 -2.5786 -0.7285
  771MOL0     H 1718  10.087   8.321   0.995  0.6482  2.0035 -0.9647
  771MOL0     H 1719  10.241   8.508   1.182  1.8166 -0.0709 -1.1226
  771MOL0     H 1720  10.088   8.553   1.107  1.8309  1.9518  0.2098
  771MOL0     H 1721  10.244   8.677   1.013 -0.2872  0.4020 -1.2802
  771MOL0     H 1722  10.352   8.536   0.988 -0.8478 -0.3180 -0.5066
  771MOL0     H 1723  10.088   8.581   0.836 -0.8700 -2.4736  1.2333
  771MOL0     H 1724  10.187   8.444   0.816 -3.5779 -0.0431 -2.1789
  771MOL0     H 1725  10.211   8.489   0.584 -1.8199  0.0421  5.1466
  771MOL0     H 1726  10.364   8.552   0.362  0.5748 -1.6741 -0.4201
  771MOL0     H 1727  10.502   8.477   0.433 -2.4728 -1.5546 -2.6622
  771MOL0     H 1728  10.631   8.617   0.319 -1.1651 -1.6155 -0.4218
  771MOL0     H 1729  10.608   8.715   0.460  0.3843  0.1421  0.0638
  771MOL0     H 1730  10.445   8.732   0.200  0.3585 -0.4244  0.6087
  771MOL0     H 1731  10.426   8.837   0.335 -0.8161 -0.9527  0.8695
  771MOL0     H 1732  10.557   8.928   0.157 -1.3219  1.3969  1.0787
  771MOL0     H 1733  10.701   8.842   0.205 -0.3090 -1.5050 -2.1819
  771MOL0     H 1734  10.460   9.204   0.306 -0.7971  2.9742  0.6495
  771MOL0     H 1735  10.521   9.390   0.227  0.8095  1.6289 -2.6725
  771MOL0     H 1736  10.790   9.619  -0.124  2.9282  0.9387 -1.5436
  771MOL0     H 1737  10.816   9.845  -0.226  1.5911  1.3356  0.7335
  771MOL0     H 1738  10.766  10.041  -0.304 -1.4656 -1.4873  0.8195
  771MOL0     H 1739  10.856  10.189  -0.242  0.6932 -0.5207  2.9725
  771MOL0     H 1740  10.555  10.141  -0.221 -2.0126 -1.1986 -3.7161
  771MOL0     H 1741  10.629  10.206  -0.370 -2.9022 -0.9545 -0.4662
  771MOL0     H 1742  10.741  10.395  -0.241  0.2397 -0.4600 -0.0270
  771MOL0     H 1743  10.658  10.342  -0.095 -5.2584  1.9346 -0.2314
  771MOL0     H 1744  10.534  10.448  -0.351  0.5399 -2.6170 -1.3377
  771MOL0     H 1745  10.446  10.341  -0.253  1.3409 -1.0054 -0.4934
  771MOL0     H 1746  10.584  10.607  -0.160  0.9399 -0.6999 -2.9890
  771MOL0     H 1747  10.505  10.495  -0.043  0.3720 -1.4806 -0.3112
  771MOL0     H 1748  10.373  10.660  -0.256 -0.3040  2.3874  0.8467
  771MOL0     H 1749  10.376  10.662  -0.072 -4.5727  0.4303 -0.3564
  771MOL0     H 1750  10.239  10.465  -0.258 -0.8491  1.1350 -1.0945
  771MOL0     H 1751  10.249  10.432  -0.084  0.4407 -1.0802 -1.8608
  771MOL0     H 1752  10.021  10.539  -0.122  0.3721 -0.2522  2.9081
  771MOL0     H 1753  10.101  10.668  -0.198  0.5497 -0.5416 -0.4198
  771MOL0     H 1754  10.645  10.019   0.127  2.5131  1.4449 -0.7765
  771MOL0     H 1755  10.590   9.786   0.215 -1.0398  0.0732 -1.0280
  771MOL0     H 1756  10.942   9.275   0.205 -0.1096 -1.0196 -1.0821
  771MOL0     H 1757  10.860   9.029   0.300 -2.7972 -0.1332  2.6240
  771MOL0     H 1758  10.418   8.035   0.571  0.8758  0.1165  0.0489
  771MOL0     H 1759  10.250   8.123   0.424 -0.4468 -1.1564 -0.9091
  771MOL0     H 1760   9.764   8.175   0.377 -0.0283 -2.0984 -2.6134
  771MOL0     H 1761   9.599   8.246   0.228  0.7455 -0.7050  1.2058
  771MOL0     H 1762   9.444   8.397   0.065  1.6102  0.7153  1.2169
  771MOL0     H 1763   9.555   8.278  -0.017  0.9013 -0.4658  0.5533
  771MOL0     H 1764   9.460   8.536  -0.128  0.1396 -1.8698  2.7479
  771MOL0     H 1765   9.594   8.442  -0.197  2.5329  3.4647  2.2006
  771MOL0     H 1766   9.440   8.255  -0.244 -2.8443 -2.1792  2.8081
  771MOL0     H 1767   9.379   8.414  -0.306 -3.7636  0.1393 -0.3479
  771MOL0     H 1768   9.203   8.445  -0.163  2.5423  0.8871  0.0064
  771MOL0     H 1769   9.179   8.292  -0.233 -0.2865 -0.7504  0.7623
  771MOL0     H 1770   9.217   8.163   0.160 -2.3206  2.6114  0.1891
  771MOL0     H 1771   9.862   8.554   0.077 -0.3423  2.1723  2.4640
  771MOL0     H 1772  10.050   8.454   0.207  0.3742 -0.1827 -1.7979
  772MOL0     O 1773   4.849   0.952   3.421 -0.6642 -0.2587  0.0077
  772MOL0     C 1774   4.785   0.928   3.315  0.5937 -0.1550 -0.3698
  772MOL0     O 1775   4.848   0.906   3.190  1.0107  0.3086  0.3014
  772MOL0     C 1776   4.974   0.946   3.173 -1.6711 -0.1981 -0.9001
  772MOL0     C 1777   5.087   0.878   3.237 -0.3811  0.2510  1.0152
  772MOL0     C 1778   5.213   0.924   3.197  0.4995 -0.7011 -0.4584
  772MOL0     C 1779   5.221   1.037   3.111 -0.7914 -0.4119  0.1317
  772MOL0     O 1780   5.350   1.091   3.091 -0.4017  0.1051 -0.1011
  772MOL0     C 1781   5.414   1.022   2.990  0.1828 -0.0349  0.0945
  772MOL0     C 1782   5.555   1.069   2.974 -0.6191 -0.4130  0.4167
  772MOL0     C 1783   5.639   1.021   3.100 -0.2948  0.2642  0.5248
  772MOL0     C 1784   5.663   0.866   3.095  0.1071  0.6588 -0.5858
  772MOL0     C 1785   5.744   0.810   3.210  0.1489  0.1100 -0.7231
  772MOL0     C 1786   5.694   0.826   3.356 -0.0042 -0.0060  0.2844
  772MOL0     C 1787   5.550   0.769   3.355 -0.4514 -0.1385 -0.3394
  772MOL0     C 1788   5.476   0.792   3.485  1.0656 -0.5355 -0.0164
  772MOL0     N 1789   5.367   0.699   3.512  0.2124  0.0006 -0.9032
  772MOL0     C 1790   5.298   0.681   3.632 -0.3141 -0.6887 -0.5357
  772MOL0     C 1791   5.235   0.558   3.627 -0.8473 -0.2443 -0.0121
  772MOL0     C 1792   5.158   0.494   3.737  0.5797 -0.2310 -1.0227
  772MOL0     C 1793   5.226   0.517   3.865  0.2795  0.0856  0.1568
  772MOL0     C 1794   5.374   0.481   3.884  0.0566  0.9776 -0.5198
  772MOL0     C 1795   5.391   0.331   3.848 -0.5090  0.0297 -0.1298
  772MOL0     O 1796   5.527   0.303   3.877  1.0364  0.5950 -0.5841
  772MOL0     C 1797   5.618   0.335   3.793 -0.1874  0.3660  0.0922
  772MOL0     C 1798   5.741   0.290   3.825 -0.0955  0.2207 -1.5135
  772MOL0     C 1799   5.857   0.315   3.751  0.6140  0.0404 -0.0699
  772MOL0     C 1800   5.840   0.391   3.627  0.3164 -0.4966 -1.7125
  772MOL0     C 1801   5.956   0.410   3.532 -0.0129 -0.2555 -0.5550
  772MOL0     O 1802   6.082   0.383   3.578  0.0702 -0.3287 -0.9078
  772MOL0     C 1803   6.192   0.388   3.503 -0.0481 -0.0051  0.5408
  772MOL0     C 1804   6.306   0.463   3.545 -0.4845 -0.3672  0.0016
  772MOL0     C 1805   6.424   0.435   3.484  0.2257 -0.2023  0.7901
  772MOL0     C 1806   6.433   0.350   3.370 -0.1036 -0.7353  0.1423
  772MOL0     O 1807   6.561   0.344   3.311 -0.6583  0.4654 -0.3539
  772MOL0     C 1808   6.553   0.326   3.170  0.5330  0.1041 -0.1958
  772MOL0     C 1809   6.684   0.367   3.100 -0.3649  0.1730 -0.1643
  772MOL0     C 1810   6.690   0.341   2.949  0.4173  0.1337  0.4199
  772MOL0     C 1811   6.682   0.188   2.916  0.3466 -0.0896 -0.0914
  772MOL0     C 1812   6.633   0.151   2.778  0.1109  0.1223 -0.1945
  772MOL0     C 1813   6.710   0.218   2.668 -0.1157  0.9081  1.1778
  772MOL0     C 1814   6.861   0.164   2.673 -0.4311  0.1517  0.1598
  772MOL0     C 1815   6.941   0.200   2.547 -0.1941  0.1284 -0.8578
  772MOL0    Cl 1816   6.880   0.100   2.394  0.2186 -0.0902  0.1213
  772MOL0     C 1817   6.320   0.300   3.320 -0.8610 -0.0334  0.4345
  772MOL0     C 1818   6.202   0.311   3.390  0.3688 -0.4203  0.1204
  772MOL0     O 1819   5.939   0.438   3.411  0.6391 -0.3644  0.2103
  772MOL0     C 1820   5.708   0.438   3.593 -0.1240 -0.8723  0.4436
  772MOL0     C 1821   5.600   0.407   3.674  0.5660  0.1611  0.5497
  772MOL0     N 1822   5.285   0.489   3.515  0.0695 -0.1288 -0.6158
  772MOL0     N 1823   5.362   0.573   3.459  0.3972 -0.8188  1.0265
  772MOL0     C 1824   5.118   1.097   3.045  0.1986  0.3067 -0.0778
  772MOL0     C 1825   4.988   1.042   3.082 -0.3591  0.1230  0.3310
  772MOL0     C 1826   4.632   0.929   3.317 -0.7918  0.4446 -1.1599
  772MOL0     C 1827   4.560   0.975   3.211 -0.5841  0.0814  0.3692
  772MOL0     C 1828   4.422   0.964   3.214 -0.6463 -0.6268  0.2833
  772MOL0     C 1829   4.355   0.925   3.340 -0.0407 -0.5139  0.7525
  772MOL0     O 1830   4.218   0.932   3.366  0.6430 -0.2606  0.1374
  772MOL0     C 1831   4.138   0.940   3.249 -0.4522  0.1992 -0.7537
  772MOL0     C 1832   3.987   0.935   3.284  0.0093  0.1581  0.6499
  772MOL0     C 1833   3.937   0.793   3.325 -0.5745  0.3506  0.0654
  772MOL0     C 1834   3.797   0.782   3.389 -0.6496 -0.3496 -0.3726
  772MOL0     C 1835   3.790   0.832   3.527  0.1230  0.0541 -0.1162
  772MOL0     C 1836   3.793   0.869   3.646 -0.3552  0.6556 -0.7390
  772MOL0     C 1837   4.428   0.898   3.450  0.6546 -0.1266  0.6981
  772MOL0     C 1838   4.568   0.889   3.438  0.4621  0.1612 -0.1367
  772MOL0     H 1839   5.078   0.796   3.307  1.1833  0.7340  1.8327
  772MOL0     H 1840   5.304   0.884   3.240  1.1429 -0.5766 -1.6685
  772MOL0     H 1841   5.358   1.040   2.898 -1.1876  2.3525  1.3182
  772MOL0     H 1842   5.404   0.915   3.012 -2.7416 -0.4585 -2.5428
  772MOL0     H 1843   5.551   1.179   2.977  1.0423 -0.2640 -1.5651
  772MOL0     H 1844   5.602   1.030   2.884  0.3390 -1.1100  1.2040
  772MOL0     H 1845   5.590   1.054   3.192  0.0026  3.4870 -0.3334
  772MOL0     H 1846   5.734   1.072   3.114  0.0395 -0.2425  0.1071
  772MOL0     H 1847   5.566   0.816   3.094 -0.0749  1.0077 -0.8653
  772MOL0     H 1848   5.714   0.828   3.006  4.0550 -2.0378  2.4680
  772MOL0     H 1849   5.837   0.867   3.211 -0.5802  1.3613 -1.3625
  772MOL0     H 1850   5.777   0.707   3.194  0.9958 -0.5536  3.9211
  772MOL0     H 1851   5.695   0.930   3.392 -2.6394 -0.4065  1.7756
  772MOL0     H 1852   5.757   0.769   3.426  2.9217  1.6214 -0.8154
  772MOL0     H 1853   5.480   0.801   3.277  0.0806 -0.2890 -0.8843
  772MOL0     H 1854   5.553   0.661   3.339 -1.9043 -0.2664  0.1517
  772MOL0     H 1855   5.429   0.891   3.479  0.0672 -1.0551 -4.4544
  772MOL0     H 1856   5.542   0.797   3.573 -2.5645 -0.7987  2.9765
  772MOL0     H 1857   5.308   0.749   3.716 -3.1574  1.5614 -1.8400
  772MOL0     H 1858   5.155   0.387   3.714 -6.5149 -0.2465 -1.9386
  772MOL0     H 1859   5.055   0.530   3.736  0.4928 -0.1683  1.6791
  772MOL0     H 1860   5.165   0.462   3.938  0.9181  0.2941  0.8655
  772MOL0     H 1861   5.221   0.625   3.881  1.2573  0.2791 -0.7038
  772MOL0     H 1862   5.450   0.543   3.836  3.0602  0.6334  3.2928
  772MOL0     H 1863   5.400   0.480   3.991  0.5857 -1.2324 -0.6120
  772MOL0     H 1864   5.371   0.319   3.741 -1.5852  2.0406 -0.1984
  772MOL0     H 1865   5.328   0.255   3.894  1.0464 -0.0754  1.9648
  772MOL0     H 1866   5.760   0.231   3.914 -1.0048  0.5332 -1.1032
  772MOL0     H 1867   5.944   0.259   3.786 -0.7703 -2.4507 -0.3492
  772MOL0     H 1868   6.292   0.528   3.631  0.4740 -0.0168 -0.1026
  772MOL0     H 1869   6.512   0.466   3.540 -1.1162 -0.6174  3.2443
  772MOL0     H 1870   6.479   0.396   3.128 -3.3017 -1.5953  3.0488
  772MOL0     H 1871   6.513   0.224   3.166 -0.2795  0.3693  0.7778
  772MOL0     H 1872   6.763   0.315   3.155 -1.2565  2.0540  3.1030
  772MOL0     H 1873   6.702   0.473   3.115  0.8151 -0.1845  1.1772
  772MOL0     H 1874   6.776   0.387   2.899  1.3584 -1.6082  0.3480
  772MOL0     H 1875   6.600   0.393   2.915  0.9383  2.5237  2.3727
  772MOL0     H 1876   6.784   0.149   2.913 -0.1580 -1.3884 -1.4352
  772MOL0     H 1877   6.631   0.151   3.006  1.0445 -0.8153  0.0213
  772MOL0     H 1878   6.530   0.184   2.765  0.8337  2.3914 -0.6133
  772MOL0     H 1879   6.624   0.042   2.776 -2.4795  0.2778 -1.6860
  772MOL0     H 1880   6.689   0.325   2.675 -1.9027  0.9447 -2.4548
  772MOL0     H 1881   6.671   0.196   2.568  2.1880  1.8405 -0.0132
  772MOL0     H 1882   6.918   0.215   2.751 -0.2060 -0.5583  0.4649
  772MOL0     H 1883   6.866   0.056   2.685  0.7967  0.1190 -0.4636
  772MOL0     H 1884   7.047   0.182   2.566 -0.6272 -0.9400  0.7721
  772MOL0     H 1885   6.942   0.307   2.527 -1.4031  0.8902  2.5432
  772MOL0     H 1886   6.319   0.228   3.238  1.2917  1.1961 -0.7673
  772MOL0     H 1887   6.108   0.259   3.373 -0.0003 -0.8057  2.9043
  772MOL0     H 1888   5.702   0.489   3.498  2.0170 -0.5917  0.4242
  772MOL0     H 1889   5.504   0.437   3.632  0.5649 -0.5369  0.0557
  772MOL0     H 1890   5.127   1.171   2.967 -0.9944 -0.1519 -0.6768
  772MOL0     H 1891   4.896   1.087   3.046  0.5354 -0.1243 -2.5062
  772MOL0     H 1892   4.612   1.011   3.123  0.7359  0.8117  1.4231
  772MOL0     H 1893   4.372   0.956   3.117  0.4917  2.7739 -0.7152
  772MOL0     H 1894   4.159   0.857   3.182  1.3471 -1.1308  1.3406
  772MOL0     H 1895   4.155   1.034   3.197  1.5957  0.7938  0.8662
  772MOL0     H 1896   3.958   1.013   3.354 -0.9339  0.1171  0.3212
  772MOL0     H 1897   3.928   0.958   3.194 -1.3512 -0.6456  1.2930
  772MOL0     H 1898   4.015   0.773   3.399 -0.2138 -1.3246 -0.7285
  772MOL0     H 1899   3.949   0.724   3.241 -0.8332  1.7488 -1.1857
  772MOL0     H 1900   3.727   0.835   3.324 -0.1646 -1.0691 -1.5034
  772MOL0     H 1901   3.782   0.674   3.388  1.0612 -0.6680  1.7299
  772MOL0     H 1902   3.787   0.905   3.747 -2.2489 -0.3743 -0.4327
  772MOL0     H 1903   4.376   0.892   3.545 -0.3419 -3.0165  0.0898
  772MOL0     H 1904   4.627   0.858   3.524  0.6981 -1.9671 -0.9979
  773MOL0     O 1905   2.624   4.966   7.326 -0.3626  0.5521 -0.8229
  773MOL0     C 1906   2.710   5.004   7.409  0.1467  0.2931 -0.2075
  773MOL0     O 1907   2.763   5.123   7.425  0.5477  0.1527 -0.5275
  773MOL0     C 1908   2.712   5.231   7.345 -0.1384 -0.1083 -0.4582
  773MOL0     C 1909   2.576   5.261   7.323  0.2213  0.4014  0.3374
  773MOL0     C 1910   2.547   5.374   7.242  0.7576 -0.5168 -0.1878
  773MOL0     C 1911   2.648   5.462   7.183 -0.8576  1.4713 -0.8759
  773MOL0     O 1912   2.617   5.565   7.098  0.0651  0.3026 -0.0764
  773MOL0     C 1913   2.484   5.590   7.059  0.6385  0.3011 -0.1397
  773MOL0     C 1914   2.463   5.707   6.962 -0.9255  0.3626 -0.4488
  773MOL0     C 1915   2.545   5.836   6.984  0.4654 -0.5632  0.5698
  773MOL0     C 1916   2.487   5.943   6.893  0.2794  0.3714 -0.5276
  773MOL0     C 1917   2.559   6.080   6.884 -0.3086  1.5641  1.1420
  773MOL0     C 1918   2.470   6.189   6.825 -0.2186 -0.4554  0.2883
  773MOL0     C 1919   2.557   6.312   6.781 -0.1841 -0.4444 -0.6869
  773MOL0     C 1920   2.483   6.441   6.748  0.4785 -0.2525  0.0324
  773MOL0     N 1921   2.432   6.430   6.615  1.3902 -0.0052  0.3509
  773MOL0     C 1922   2.496   6.465   6.495  0.1245  1.0280  0.0068
  773MOL0     C 1923   2.398   6.466   6.405 -0.2271  0.0728 -0.8534
  773MOL0     C 1924   2.413   6.507   6.255 -0.5542  0.0573  0.1544
  773MOL0     C 1925   2.425   6.380   6.168  0.5752 -0.0563 -0.6354
  773MOL0     C 1926   2.383   6.416   6.023 -0.7121 -0.5984  0.5059
  773MOL0     C 1927   2.461   6.519   5.960 -0.2366  0.0884 -0.1304
  773MOL0     O 1928   2.590   6.469   5.924  0.2279 -0.2720  0.5462
  773MOL0     C 1929   2.651   6.491   5.804 -0.0758  0.1131  0.9372
  773MOL0     C 1930   2.593   6.543   5.694 -0.6839 -0.6832 -0.6790
  773MOL0     C 1931   2.665   6.541   5.575  0.2931 -0.3968 -0.9744
  773MOL0     C 1932   2.800   6.491   5.565  0.1332 -0.3504 -0.0737
  773MOL0     C 1933   2.862   6.476   5.435  0.6951  0.2868  0.5528
  773MOL0     O 1934   2.792   6.511   5.331  0.1728 -0.1341  1.4452
  773MOL0     C 1935   2.827   6.461   5.201 -0.1572 -0.0086 -0.6970
  773MOL0     C 1936   2.900   6.343   5.178  0.4881  0.0616 -0.1260
  773MOL0     C 1937   2.945   6.320   5.048 -0.3565 -0.3898 -0.8140
  773MOL0     C 1938   2.931   6.416   4.948 -0.3613 -0.5776  0.2317
  773MOL0     O 1939   2.995   6.411   4.827  0.9108  0.3015 -0.2121
  773MOL0     C 1940   3.091   6.306   4.792  0.4945  0.1798  0.5389
  773MOL0     C 1941   3.227   6.322   4.870 -0.7450  0.3907 -0.5446
  773MOL0     C 1942   3.334   6.226   4.814 -0.6245  0.4244 -0.6167
  773MOL0     C 1943   3.474   6.246   4.886 -1.5045  0.4559 -0.9385
  773MOL0     C 1944   3.595   6.213   4.792 -0.5517 -0.0186 -0.2420
  773MOL0     C 1945   3.728   6.230   4.851 -0.0753 -1.1049 -0.8082
  773MOL0     C 1946   3.841   6.211   4.737 -0.0948  0.1223 -1.1573
  773MOL0     C 1947   3.981   6.201   4.812  0.2672  0.1127 -0.7270
  773MOL0    Cl 1948   4.106   6.176   4.697 -0.1416 -0.6391  0.2278
  773MOL0     C 1949   2.844   6.522   4.973 -0.3179  0.0099  1.0288
  773MOL0     C 1950   2.790   6.542   5.096  0.2328  0.8258  0.6295
  773MOL0     O 1951   2.977   6.438   5.439  0.4313  0.2544  0.2843
  773MOL0     C 1952   2.860   6.444   5.679  0.1492  0.0656  0.9796
  773MOL0     C 1953   2.783   6.435   5.799 -0.7177 -1.1010  0.7800
  773MOL0     N 1954   2.278   6.434   6.462 -0.1290 -0.3642  0.2620
  773MOL0     N 1955   2.297   6.408   6.583 -0.0906  0.4662 -0.3731
  773MOL0     C 1956   2.781   5.425   7.209 -0.6457  1.0389  0.7118
  773MOL0     C 1957   2.807   5.309   7.282 -0.7264  0.3312  0.5869
  773MOL0     C 1958   2.803   4.899   7.453 -0.3017  0.5871  0.3970
  773MOL0     C 1959   2.785   4.764   7.409 -0.1839 -0.0396 -0.4679
  773MOL0     C 1960   2.876   4.659   7.446 -0.2540  0.2426  0.8533
  773MOL0     C 1961   2.989   4.694   7.528  0.1356 -1.2575  0.1788
  773MOL0     O 1962   3.095   4.615   7.569  0.2359 -0.4310  0.6702
  773MOL0     C 1963   3.072   4.532   7.683 -0.4876  0.3738  0.2524
  773MOL0     C 1964   3.189   4.553   7.773  0.3601  0.8971  0.4782
  773MOL0     C 1965   3.313   4.468   7.734  0.6233 -0.1346  1.0167
  773MOL0     C 1966   3.416   4.470   7.848 -0.3012  0.6165 -0.3945
  773MOL0     C 1967   3.449   4.339   7.902 -0.0530  0.1949  0.3970
  773MOL0     C 1968   3.469   4.226   7.944  0.0376  0.9199  0.0097
  773MOL0     C 1969   3.001   4.824   7.568 -0.3202  0.1207  0.2108
  773MOL0     C 1970   2.914   4.922   7.538 -0.0713 -0.7555  0.7595
  773MOL0     H 1971   2.504   5.197   7.373  2.5292 -1.9169  0.8915
  773MOL0     H 1972   2.441   5.374   7.220  0.9415 -3.8802 -1.7200
  773MOL0     H 1973   2.419   5.619   7.142  0.4322 -0.3442 -0.0736
  773MOL0     H 1974   2.443   5.501   7.010  2.8548 -1.3331  0.7676
  773MOL0     H 1975   2.358   5.721   6.988  0.1923  1.5943  4.4397
  773MOL0     H 1976   2.488   5.674   6.861  0.5824 -0.4748  0.1534
  773MOL0     H 1977   2.652   5.821   6.966  0.6147 -0.0731  0.9987
  773MOL0     H 1978   2.539   5.879   7.085  0.2333  1.4951 -0.2735
  773MOL0     H 1979   2.473   5.901   6.793 -0.3600 -0.3984 -0.1217
  773MOL0     H 1980   2.386   5.973   6.919 -0.1741 -0.5316 -1.1908
  773MOL0     H 1981   2.643   6.069   6.815 -0.7160 -0.4136  0.8962
  773MOL0     H 1982   2.596   6.116   6.981  2.7495 -1.8550  1.4935
  773MOL0     H 1983   2.392   6.208   6.899  0.4636  2.0246  0.4435
  773MOL0     H 1984   2.427   6.158   6.729 -0.1842 -0.2147  0.1935
  773MOL0     H 1985   2.647   6.325   6.842  0.1490 -2.7647 -0.5876
  773MOL0     H 1986   2.604   6.283   6.686  0.8266  0.1765 -0.3975
  773MOL0     H 1987   2.549   6.528   6.752 -0.0883  0.1590  0.6142
  773MOL0     H 1988   2.408   6.450   6.827  2.6513 -2.7573  2.5996
  773MOL0     H 1989   2.601   6.487   6.477  1.2869 -3.0668  0.5717
  773MOL0     H 1990   2.490   6.584   6.242 -0.1436 -0.3467  0.1669
  773MOL0     H 1991   2.329   6.567   6.218  4.1133  5.0656 -3.9626
  773MOL0     H 1992   2.355   6.304   6.203 -1.9467  1.6390 -1.6473
  773MOL0     H 1993   2.524   6.336   6.184  0.3498 -0.1996  0.4440
  773MOL0     H 1994   2.388   6.326   5.960 -3.4138  0.5055 -1.4794
  773MOL0     H 1995   2.276   6.435   6.010 -1.1221 -3.3683 -0.9838
  773MOL0     H 1996   2.489   6.596   6.032  0.6973  0.4140 -0.8304
  773MOL0     H 1997   2.405   6.562   5.876  0.3082  2.5027  0.6574
  773MOL0     H 1998   2.489   6.575   5.694 -0.5247 -0.1549 -0.4890
  773MOL0     H 1999   2.603   6.579   5.494 -1.1172 -3.0533 -1.2504
  773MOL0     H 2000   2.907   6.264   5.253 -0.5320 -1.9331 -2.0247
  773MOL0     H 2001   3.009   6.232   5.037  0.1449  0.0213 -1.2512
  773MOL0     H 2002   3.121   6.321   4.688  1.2320 -1.7283  0.4207
  773MOL0     H 2003   3.052   6.204   4.802 -0.7332  0.7749  2.2435
  773MOL0     H 2004   3.209   6.310   4.977  1.2881 -1.9621 -0.3604
  773MOL0     H 2005   3.258   6.427   4.869  1.2230 -0.1444 -0.2302
  773MOL0     H 2006   3.370   6.241   4.712  1.3179  0.9254  0.0922
  773MOL0     H 2007   3.296   6.124   4.820  2.4068 -0.7430  1.3170
  773MOL0     H 2008   3.489   6.345   4.930 -1.0796 -0.6748  1.6437
  773MOL0     H 2009   3.477   6.182   4.975 -1.6423 -0.7611 -1.7882
  773MOL0     H 2010   3.602   6.260   4.693 -3.1243  2.2011  0.5165
  773MOL0     H 2011   3.571   6.108   4.775 -0.8020  0.0846 -0.5296
  773MOL0     H 2012   3.742   6.150   4.924 -3.4382 -3.4713 -2.4882
  773MOL0     H 2013   3.722   6.330   4.894 -2.7261 -0.1026 -3.1542
  773MOL0     H 2014   3.840   6.120   4.677 -2.8434 -0.2885 -0.6074
  773MOL0     H 2015   3.841   6.297   4.669 -3.4448 -1.8865 -4.0427
  773MOL0     H 2016   3.982   6.103   4.862  2.4673 -0.9417 -2.6371
  773MOL0     H 2017   4.003   6.285   4.878  1.7686 -0.7396 -0.1100
  773MOL0     H 2018   2.820   6.587   4.889  0.0815 -0.2364  0.7172
  773MOL0     H 2019   2.721   6.626   5.102 -1.0818 -0.0095 -1.5331
  773MOL0     H 2020   2.962   6.407   5.671  0.8404  1.9891  0.2657
  773MOL0     H 2021   2.833   6.409   5.892  1.1398 -1.2538 -0.2283
  773MOL0     H 2022   2.857   5.485   7.160 -2.0515  0.4503 -2.4309
  773MOL0     H 2023   2.911   5.282   7.300 -0.5512  0.0253 -0.8004
  773MOL0     H 2024   2.717   4.743   7.327 -1.0686  0.1502  0.2085
  773MOL0     H 2025   2.867   4.554   7.422 -1.7612  0.1815  1.5705
  773MOL0     H 2026   3.057   4.425   7.664  4.3260 -0.0580 -3.0300
  773MOL0     H 2027   2.978   4.559   7.732 -0.9328 -2.0791  0.8868
  773MOL0     H 2028   3.210   4.661   7.778 -1.8857  1.4183 -0.1247
  773MOL0     H 2029   3.164   4.530   7.877 -0.7717  1.1754  0.2854
  773MOL0     H 2030   3.355   4.493   7.636 -0.7453  0.4390  0.5605
  773MOL0     H 2031   3.281   4.364   7.718 -1.7104  0.4576  1.5219
  773MOL0     H 2032   3.514   4.503   7.812  0.8869 -4.4637 -2.6263
  773MOL0     H 2033   3.370   4.525   7.930 -2.7637 -0.6758 -0.8338
  773MOL0     H 2034   3.501   4.140   8.000  0.1263  0.0437 -1.3391
  773MOL0     H 2035   3.088   4.861   7.622  0.1799  2.5652 -2.0159
  773MOL0     H 2036   2.927   5.021   7.581 -4.7672  0.0255  0.8725
  774MOL0     O 2037   0.098   0.833   2.007  1.0058  0.1523 -0.2854
  774MOL0     C 2038   0.151   0.913   1.933  0.2071  0.2578 -0.5298
  774MOL0     O 2039   0.092   1.007   1.849 -0.0753  0.2017  0.1305
  774MOL0     C 2040  -0.024   0.957   1.785  0.4097 -0.3487  0.1812
  774MOL0     C 2041  -0.024   0.978   1.644  0.1710  0.7640  0.1256
  774MOL0     C 2042  -0.135   0.935   1.565  0.2227  0.2977 -0.2371
  774MOL0     C 2043  -0.246   0.873   1.635  1.7155 -0.0257 -0.0498
  774MOL0     O 2044  -0.357   0.829   1.561 -0.8335  0.1337  0.6604
  774MOL0     C 2045  -0.483   0.827   1.621  0.3834  0.0017  1.0323
  774MOL0     C 2046  -0.616   0.822   1.538 -0.1846  0.5647  0.5701
  774MOL0     C 2047  -0.747   0.815   1.632 -0.6273  0.3375  0.4916
  774MOL0     C 2048  -0.872   0.802   1.540 -0.6061  0.2178  0.0960
  774MOL0     C 2049  -1.000   0.791   1.614  0.0624 -0.2357 -0.3509
  774MOL0     C 2050  -1.126   0.797   1.526 -0.2213  0.1634  0.2987
  774MOL0     C 2051  -1.252   0.776   1.589  0.3285  0.3007  0.2268
  774MOL0     C 2052  -1.369   0.820   1.496  0.5869  0.1581  0.6997
  774MOL0     N 2053  -1.426   0.957   1.538  0.1321  0.0537 -0.0846
  774MOL0     C 2054  -1.521   0.972   1.634  1.3848  0.1066  0.5514
  774MOL0     C 2055  -1.520   1.103   1.663  0.7213  0.3208  0.5053
  774MOL0     C 2056  -1.619   1.173   1.746 -0.4358  0.6398  0.5652
  774MOL0     C 2057  -1.745   1.212   1.657 -0.5786  0.2641 -0.9695
  774MOL0     C 2058  -1.824   1.090   1.588  0.0594  0.2555  1.1681
  774MOL0     C 2059  -1.966   1.139   1.553  0.1799  0.0546  0.0808
  774MOL0     O 2060  -1.958   1.263   1.477  0.9987  0.4734 -0.5125
  774MOL0     C 2061  -2.077   1.322   1.442 -1.3559 -0.1031  0.1406
  774MOL0     C 2062  -2.148   1.398   1.533 -0.8609 -0.3699  0.7373
  774MOL0     C 2063  -2.269   1.456   1.485 -0.5499 -0.3675 -0.0524
  774MOL0     C 2064  -2.324   1.445   1.360 -0.3755  0.1891 -0.8634
  774MOL0     C 2065  -2.452   1.514   1.328  0.4602 -0.7516  0.2333
  774MOL0     O 2066  -2.523   1.590   1.422  1.1313  0.1754  0.0481
  774MOL0     C 2067  -2.650   1.622   1.404  0.5480 -0.1821 -0.1726
  774MOL0     C 2068  -2.732   1.615   1.289  0.3114 -0.6892  0.1280
  774MOL0     C 2069  -2.870   1.639   1.288 -0.7575 -0.2960  0.1619
  774MOL0     C 2070  -2.931   1.658   1.406  0.3723  0.7671  0.6615
  774MOL0     O 2071  -3.068   1.649   1.420  0.0254  0.0809  0.2596
  774MOL0     C 2072  -3.138   1.717   1.528 -0.0145  0.1332 -0.8365
  774MOL0     C 2073  -3.285   1.675   1.544 -0.3122 -0.0023  0.4051
  774MOL0     C 2074  -3.370   1.725   1.428 -0.9361 -0.8914 -0.9034
  774MOL0     C 2075  -3.509   1.737   1.466 -0.3039  0.1853 -0.0786
  774MOL0     C 2076  -3.552   1.878   1.510  0.3698 -0.0643 -0.5261
  774MOL0     C 2077  -3.705   1.881   1.532  0.4652  0.8441  0.3322
  774MOL0     C 2078  -3.760   2.011   1.594 -0.1082 -0.3568 -0.5002
  774MOL0     C 2079  -3.869   1.973   1.696  0.4061  0.3497 -0.3068
  774MOL0    Cl 2080  -3.932   2.128   1.766 -0.6356 -0.6849 -0.3653
  774MOL0     C 2081  -2.852   1.690   1.515  0.2048  0.1529  0.8181
  774MOL0     C 2082  -2.715   1.663   1.518 -0.9513 -0.2957  0.1747
  774MOL0     O 2083  -2.504   1.465   1.222 -0.9627 -0.2965 -0.4391
  774MOL0     C 2084  -2.258   1.350   1.278  0.7683  0.5524  0.3884
  774MOL0     C 2085  -2.141   1.289   1.318 -0.8566  1.0679  0.8155
  774MOL0     N 2086  -1.423   1.171   1.593 -0.5770  0.0547  0.1429
  774MOL0     N 2087  -1.369   1.079   1.520 -1.0096  0.4568  0.5196
  774MOL0     C 2088  -0.250   0.861   1.774  0.5343  0.4249  0.5254
  774MOL0     C 2089  -0.141   0.902   1.847 -0.4613  0.2293  0.3502
  774MOL0     C 2090   0.295   0.932   1.961 -0.2727  0.3177  1.2272
  774MOL0     C 2091   0.373   1.029   1.904 -0.7134 -0.1311 -0.3015
  774MOL0     C 2092   0.506   1.049   1.940  0.2521  0.3564  0.5442
  774MOL0     C 2093   0.560   0.978   2.041 -1.0031 -0.0910  0.2503
  774MOL0     O 2094   0.689   0.986   2.064 -0.3077  0.3960 -0.0568
  774MOL0     C 2095   0.752   0.938   2.187  0.8936 -0.6816  0.2663
  774MOL0     C 2096   0.713   1.035   2.305 -1.0720 -0.4570  1.2409
  774MOL0     C 2097   0.787   0.995   2.429  0.4465  0.7181 -0.4896
  774MOL0     C 2098   0.777   1.096   2.540  0.4379  0.2766  0.1890
  774MOL0     C 2099   0.787   1.015   2.665  0.5420 -0.4577  0.1278
  774MOL0     C 2100   0.792   0.957   2.775 -0.1266  0.6539 -0.0896
  774MOL0     C 2101   0.477   0.890   2.115 -0.1212 -0.6874  0.9767
  774MOL0     C 2102   0.349   0.865   2.075 -0.1356 -0.5604  0.5585
  774MOL0     H 2103   0.055   1.025   1.588 -0.1637 -0.8522 -1.8139
  774MOL0     H 2104  -0.116   0.957   1.460 -2.4869 -0.9934 -1.0910
  774MOL0     H 2105  -0.504   0.909   1.690 -1.3703  0.2974  0.2252
  774MOL0     H 2106  -0.492   0.732   1.675 -2.1154 -2.5866 -3.2550
  774MOL0     H 2107  -0.604   0.728   1.483  0.0446  0.7111  0.3608
  774MOL0     H 2108  -0.615   0.896   1.456  1.5143 -1.0022 -0.9254
  774MOL0     H 2109  -0.746   0.905   1.694 -0.8636 -0.5920  1.9036
  774MOL0     H 2110  -0.745   0.724   1.693  1.4899  1.7235  2.7081
  774MOL0     H 2111  -0.866   0.886   1.470 -2.2654 -0.9466 -1.5479
  774MOL0     H 2112  -0.866   0.712   1.478 -0.2856 -1.8564  2.9323
  774MOL0     H 2113  -1.007   0.884   1.671 -2.9255 -0.0670 -0.8436
  774MOL0     H 2114  -1.004   0.697   1.671  0.5775 -0.0674 -0.0317
  774MOL0     H 2115  -1.123   0.728   1.441 -2.9558 -1.3047  1.2814
  774MOL0     H 2116  -1.124   0.899   1.486  3.3058  0.3005  0.4474
  774MOL0     H 2117  -1.264   0.671   1.619  0.4865  0.0718 -0.4919
  774MOL0     H 2118  -1.260   0.830   1.684 -3.0562 -0.3898  0.4763
  774MOL0     H 2119  -1.445   0.745   1.516  0.3655  1.1007  3.9725
  774MOL0     H 2120  -1.343   0.813   1.390 -1.6718  0.0979  0.0947
  774MOL0     H 2121  -1.597   0.899   1.661 -0.1178  1.0221 -0.9605
  774MOL0     H 2122  -1.582   1.262   1.797 -0.0765 -0.3221  2.0526
  774MOL0     H 2123  -1.654   1.105   1.825  1.8525  0.3107  1.3732
  774MOL0     H 2124  -1.713   1.282   1.579 -3.5280  4.7470  1.4468
  774MOL0     H 2125  -1.819   1.264   1.718 -1.2127 -4.2568  2.7536
  774MOL0     H 2126  -1.785   1.065   1.488 -0.2250 -0.7544  1.2950
  774MOL0     H 2127  -1.829   0.995   1.643  0.7987 -1.9925 -2.3107
  774MOL0     H 2128  -2.027   1.151   1.643  1.9246 -0.5940  1.4191
  774MOL0     H 2129  -2.013   1.065   1.487  0.8887  0.4788 -0.9294
  774MOL0     H 2130  -2.115   1.403   1.636 -0.3999  3.0263  0.5232
  774MOL0     H 2131  -2.307   1.527   1.558  0.0683 -0.0428 -0.0425
  774MOL0     H 2132  -2.694   1.608   1.187 -1.7476  0.4529 -0.7846
  774MOL0     H 2133  -2.930   1.621   1.199 -0.9054  0.3195  0.1299
  774MOL0     H 2134  -3.122   1.825   1.530 -2.3722  0.5769  2.5262
  774MOL0     H 2135  -3.098   1.681   1.624  0.2160 -0.8662 -1.2931
  774MOL0     H 2136  -3.316   1.708   1.643  2.0570 -1.2983  1.6542
  774MOL0     H 2137  -3.300   1.567   1.538 -0.0777 -0.0121 -0.0411
  774MOL0     H 2138  -3.354   1.669   1.336 -2.2647  0.4311 -1.9983
  774MOL0     H 2139  -3.343   1.827   1.399 -1.2413 -0.8072 -0.8958
  774MOL0     H 2140  -3.579   1.710   1.386 -1.8390 -0.9089  1.5571
  774MOL0     H 2141  -3.531   1.669   1.548  0.1907  0.5463  0.3549
  774MOL0     H 2142  -3.524   1.948   1.430  0.3372 -0.3658 -0.8048
  774MOL0     H 2143  -3.502   1.894   1.606 -0.3346 -2.5998  0.3452
  774MOL0     H 2144  -3.724   1.789   1.587  2.3156 -0.8577 -1.6997
  774MOL0     H 2145  -3.746   1.863   1.432 -0.9825  1.2496  0.8226
  774MOL0     H 2146  -3.686   2.068   1.650 -1.6826  0.7008  0.5995
  774MOL0     H 2147  -3.800   2.075   1.515 -1.9097 -1.0305 -0.2012
  774MOL0     H 2148  -3.824   1.909   1.773 -4.1689 -1.7222  1.0472
  774MOL0     H 2149  -3.942   1.903   1.653 -0.7732 -0.1545  2.3019
  774MOL0     H 2150  -2.884   1.735   1.609 -1.1125  2.0953 -0.4678
  774MOL0     H 2151  -2.662   1.682   1.611  1.6786  1.1224 -1.4873
  774MOL0     H 2152  -2.289   1.327   1.177  0.2910  1.0368  0.4226
  774MOL0     H 2153  -2.096   1.229   1.240  2.5253  3.0017  1.0718
  774MOL0     H 2154  -0.341   0.823   1.820  1.4969 -0.4122  1.8018
  774MOL0     H 2155  -0.138   0.887   1.954 -1.4212  0.6262  0.4416
  774MOL0     H 2156   0.345   1.092   1.821 -0.7960 -0.8672 -0.8437
  774MOL0     H 2157   0.560   1.132   1.895 -0.6551  1.3522  1.2195
  774MOL0     H 2158   0.860   0.940   2.171  0.9886 -0.8088  0.8479
  774MOL0     H 2159   0.719   0.836   2.209  0.0263 -0.9483 -2.0805
  774MOL0     H 2160   0.745   1.135   2.275  4.3064 -1.6818  1.9014
  774MOL0     H 2161   0.607   1.035   2.333 -1.1962 -4.5322  1.4129
  774MOL0     H 2162   0.894   0.980   2.412  0.7097  1.3065  0.5596
  774MOL0     H 2163   0.739   0.902   2.459  1.1530  0.1817 -0.9902
  774MOL0     H 2164   0.850   1.177   2.529 -0.4323  1.8120  4.2177
  774MOL0     H 2165   0.675   1.137   2.547 -0.1641 -1.0274 -0.6501
  774MOL0     H 2166   0.790   0.900   2.865 -1.5607 -2.5507 -1.9418
  774MOL0     H 2167   0.521   0.833   2.197  1.0189  0.7552  1.4277
  774MOL0     H 2168   0.292   0.794   2.134  0.4174 -0.6346  1.0134
  775MOL0     O 2169   6.677   2.776   6.358 -0.1631  0.4830  0.1123
  775MOL0     C 2170   6.625   2.885   6.350 -0.9444  0.8750 -0.6982
  775MOL0     O 2171   6.692   3.006   6.354 -1.2343 -0.3197 -0.3218
  775MOL0     C 2172   6.829   3.005   6.355  0.7722 -0.1609 -0.0523
  775MOL0     C 2173   6.880   3.073   6.461 -0.0025  0.1726 -0.2793
  775MOL0     C 2174   7.014   3.083   6.477 -0.0768  1.5704 -0.5843
  775MOL0     C 2175   7.101   3.036   6.370 -0.8228  0.0555  0.6672
  775MOL0     O 2176   7.240   3.043   6.356 -0.0915  0.2404 -0.2581
  775MOL0     C 2177   7.311   3.125   6.445 -0.6834  0.4645  0.2517
  775MOL0     C 2178   7.289   3.273   6.422 -0.3675 -0.5900 -0.6043
  775MOL0     C 2179   7.370   3.363   6.518  0.2729 -0.3222 -1.1601
  775MOL0     C 2180   7.353   3.507   6.476 -0.8590  0.0912  0.8969
  775MOL0     C 2181   7.392   3.616   6.585  1.0458 -0.0172  0.2127
  775MOL0     C 2182   7.417   3.758   6.521  0.1461  0.0821  0.2663
  775MOL0     C 2183   7.429   3.854   6.639  0.1840  0.1108 -0.4911
  775MOL0     C 2184   7.504   3.975   6.594  0.4163 -0.0993  0.4277
  775MOL0     N 2185   7.432   4.091   6.536  0.0520 -0.0596 -0.0758
  775MOL0     C 2186   7.335   4.170   6.595 -0.6416 -0.5230  1.2272
  775MOL0     C 2187   7.296   4.254   6.497 -0.2900 -0.2770 -0.4491
  775MOL0     C 2188   7.189   4.371   6.502  0.3275  0.2891  0.3910
  775MOL0     C 2189   7.245   4.511   6.540 -0.3809 -0.0741  0.1515
  775MOL0     C 2190   7.349   4.499   6.646 -0.7157  0.0304  0.5899
  775MOL0     C 2191   7.408   4.634   6.703 -0.3154  1.1377  0.2091
  775MOL0     O 2192   7.313   4.717   6.770 -0.1831 -0.2966  0.5600
  775MOL0     C 2193   7.278   4.842   6.709  0.5927 -0.3121  0.0060
  775MOL0     C 2194   7.224   4.935   6.801 -0.0144 -0.3484 -0.1535
  775MOL0     C 2195   7.200   5.066   6.767 -0.1832 -1.0597  0.7190
  775MOL0     C 2196   7.207   5.101   6.627  0.1744  0.1977 -0.5750
  775MOL0     C 2197   7.186   5.238   6.582  0.4357 -0.5240  0.2644
  775MOL0     O 2198   7.221   5.268   6.453 -0.1586  0.5421  0.4983
  775MOL0     C 2199   7.188   5.378   6.377  0.6435 -0.4595 -0.6050
  775MOL0     C 2200   7.252   5.381   6.258  0.4279  1.2177 -0.7502
  775MOL0     C 2201   7.224   5.483   6.171 -0.1240 -0.1952  1.0462
  775MOL0     C 2202   7.128   5.583   6.188 -0.9398 -0.4700 -1.0374
  775MOL0     O 2203   7.099   5.681   6.098 -0.0558 -0.3109 -0.1111
  775MOL0     C 2204   7.061   5.819   6.143 -0.5053  0.8425  0.3713
  775MOL0     C 2205   7.089   5.933   6.043 -0.9079 -0.5460  0.4900
  775MOL0     C 2206   7.236   5.940   6.004 -0.7096  0.9656 -0.0958
  775MOL0     C 2207   7.263   6.027   5.884  0.6825 -1.0823 -0.1873
  775MOL0     C 2208   7.412   6.057   5.863  0.3682 -0.7962  0.4147
  775MOL0     C 2209   7.493   5.936   5.814 -0.9325  0.1695 -0.2698
  775MOL0     C 2210   7.609   5.970   5.708 -0.3232  0.6680 -0.5964
  775MOL0     C 2211   7.622   5.874   5.591 -0.2107 -0.0463  0.0204
  775MOL0    Cl 2212   7.478   5.899   5.485  0.2551 -0.4080 -0.3470
  775MOL0     C 2213   7.056   5.583   6.311 -0.0893 -0.6312 -0.6153
  775MOL0     C 2214   7.090   5.481   6.403  0.0171  0.2128  0.2128
  775MOL0     O 2215   7.128   5.320   6.652  0.4109  0.4389 -0.0478
  775MOL0     C 2216   7.255   4.998   6.532  0.6728 -0.5530  0.3617
  775MOL0     C 2217   7.290   4.875   6.577 -0.1988  0.5759 -0.4840
  775MOL0     N 2218   7.364   4.221   6.381  0.1831  0.1612  0.6616
  775MOL0     N 2219   7.446   4.125   6.405 -0.7240  0.3113 -0.8221
  775MOL0     C 2220   7.047   2.978   6.258 -0.0013  0.4399  0.4450
  775MOL0     C 2221   6.910   2.950   6.258 -0.5408 -0.3928  0.3266
  775MOL0     C 2222   6.480   2.891   6.335  0.2561 -0.6392  0.1166
  775MOL0     C 2223   6.405   3.007   6.352  1.2911  0.6835  0.7018
  775MOL0     C 2224   6.266   3.028   6.337 -0.2267  0.0999 -0.8690
  775MOL0     C 2225   6.191   2.916   6.314 -0.1303 -0.4154 -0.2803
  775MOL0     O 2226   6.060   2.926   6.308 -0.9734  0.5494  0.1396
  775MOL0     C 2227   6.001   2.919   6.437  0.6932 -1.4057 -0.3126
  775MOL0     C 2228   5.945   2.781   6.482  0.9728 -1.0930 -0.8024
  775MOL0     C 2229   5.844   2.729   6.384  0.0022 -0.1961 -0.1149
  775MOL0     C 2230   5.782   2.603   6.439 -0.4294  0.2650 -0.4053
  775MOL0     C 2231   5.879   2.492   6.460 -0.2766 -0.6387 -0.0340
  775MOL0     C 2232   5.928   2.388   6.487 -0.3890 -0.9250  0.4631
  775MOL0     C 2233   6.259   2.803   6.306  0.0874  0.0908 -0.1143
  775MOL0     C 2234   6.403   2.792   6.312 -0.4471 -0.0229 -0.4017
  775MOL0     H 2235   6.809   3.097   6.539 -3.3402 -0.5396 -2.8630
  775MOL0     H 2236   7.055   3.113   6.573  4.8800 -2.2237 -1.0848
  775MOL0     H 2237   7.416   3.103   6.422 -1.0837 -0.9711 -0.2860
  775MOL0     H 2238   7.286   3.103   6.549  0.0545 -0.4299  0.2559
  775MOL0     H 2239   7.186   3.296   6.451 -0.9968  1.1503 -3.7533
  775MOL0     H 2240   7.297   3.295   6.316 -0.3522  0.6583 -0.3545
  775MOL0     H 2241   7.475   3.335   6.506  0.8439  0.6577  0.9436
  775MOL0     H 2242   7.332   3.352   6.620  0.8372 -0.7966 -0.9956
  775MOL0     H 2243   7.422   3.519   6.392 -1.5765 -2.0904 -0.0774
  775MOL0     H 2244   7.252   3.522   6.437 -0.3525 -0.1233 -0.5514
  775MOL0     H 2245   7.480   3.582   6.640  0.0477 -2.5956  0.3622
  775MOL0     H 2246   7.312   3.629   6.658  2.4282  1.2900  1.5750
  775MOL0     H 2247   7.337   3.809   6.464 -0.8852 -0.3711  1.2642
  775MOL0     H 2248   7.504   3.747   6.456 -0.7697 -0.8414 -0.8396
  775MOL0     H 2249   7.335   3.860   6.694  1.3419  2.1846  1.3926
  775MOL0     H 2250   7.501   3.798   6.700 -1.9148 -2.0655  0.1730
  775MOL0     H 2251   7.592   3.945   6.536  0.9037 -2.5765  2.2921
  775MOL0     H 2252   7.543   4.026   6.683  2.0118 -0.7220  0.1176
  775MOL0     H 2253   7.305   4.176   6.699  0.7658 -2.5469  1.8027
  775MOL0     H 2254   7.118   4.356   6.584 -0.1305 -1.1147 -0.2437
  775MOL0     H 2255   7.129   4.367   6.411  0.2504  3.0628  0.2266
  775MOL0     H 2256   7.158   4.568   6.574  0.4978  1.6095 -0.3577
  775MOL0     H 2257   7.290   4.561   6.454  0.5181 -2.4109 -0.8205
  775MOL0     H 2258   7.308   4.445   6.732 -0.0926 -2.9226 -0.8407
  775MOL0     H 2259   7.435   4.439   6.613 -2.0661 -1.5895 -0.1461
  775MOL0     H 2260   7.473   4.678   6.626  1.5918  0.1766  1.1933
  775MOL0     H 2261   7.483   4.611   6.779 -3.6016 -0.1943  3.3672
  775MOL0     H 2262   7.204   4.900   6.902 -0.3261 -1.2724 -0.5201
  775MOL0     H 2263   7.167   5.129   6.849  1.1367  0.1952  0.3310
  775MOL0     H 2264   7.333   5.311   6.242  0.7815  1.5757 -0.5687
  775MOL0     H 2265   7.275   5.475   6.075  0.3986 -2.0648  1.4250
  775MOL0     H 2266   7.123   5.836   6.231  0.2767  0.1198 -0.0307
  775MOL0     H 2267   6.956   5.809   6.174 -1.7824 -2.0018 -3.9152
  775MOL0     H 2268   7.052   6.022   6.095 -0.4366 -2.6401  4.7987
  775MOL0     H 2269   7.028   5.926   5.952 -0.6813  1.2369  0.1625
  775MOL0     H 2270   7.257   5.836   5.979 -1.1623  1.3167 -2.1725
  775MOL0     H 2271   7.300   5.969   6.088  0.0363  2.2554 -1.0574
  775MOL0     H 2272   7.222   5.985   5.792 -0.3120 -0.1834 -0.1663
  775MOL0     H 2273   7.209   6.120   5.903  1.1990 -0.8858  0.3420
  775MOL0     H 2274   7.471   6.086   5.951 -0.6897  3.0799  0.0227
  775MOL0     H 2275   7.415   6.143   5.796 -2.4503  1.0556  2.4570
  775MOL0     H 2276   7.429   5.858   5.772  1.7466 -1.3688 -1.7268
  775MOL0     H 2277   7.536   5.882   5.898 -2.2873 -2.3904 -1.1112
  775MOL0     H 2278   7.595   6.072   5.671  1.5945  0.7839 -1.0888
  775MOL0     H 2279   7.702   5.974   5.765 -0.5751  2.9459 -0.2627
  775MOL0     H 2280   7.628   5.774   5.636 -2.1894  0.7102  2.0911
  775MOL0     H 2281   7.706   5.890   5.522 -0.2360  0.6816  0.1594
  775MOL0     H 2282   6.975   5.650   6.339 -0.5065 -2.1022  1.9632
  775MOL0     H 2283   7.028   5.455   6.488 -0.2766  0.8530  0.2020
  775MOL0     H 2284   7.266   5.023   6.427 -4.5345 -2.2776 -0.9079
  775MOL0     H 2285   7.328   4.803   6.506 -1.2244 -1.1779  0.6766
  775MOL0     H 2286   7.113   2.946   6.177  0.7845 -0.2016  1.3197
  775MOL0     H 2287   6.874   2.892   6.174 -1.5519  1.5175 -0.6263
  775MOL0     H 2288   6.470   3.088   6.383 -0.4298  2.5048 -0.2057
  775MOL0     H 2289   6.221   3.126   6.344 -1.6259 -0.2508 -3.6387
  775MOL0     H 2290   5.918   2.990   6.441  1.3321 -0.6777  0.1525
  775MOL0     H 2291   6.075   2.950   6.511  1.5395  0.1635 -1.7319
  775MOL0     H 2292   6.031   2.716   6.499 -0.5947 -3.3764 -1.0425
  775MOL0     H 2293   5.889   2.793   6.576 -1.0555 -2.4693 -1.7469
  775MOL0     H 2294   5.886   2.699   6.287 -2.2272  0.7215 -1.4333
  775MOL0     H 2295   5.772   2.809   6.363  2.5215  2.1250 -0.5202
  775MOL0     H 2296   5.737   2.626   6.536  1.8796  0.9575  0.5890
  775MOL0     H 2297   5.707   2.567   6.368  2.1349 -1.4471 -2.4257
  775MOL0     H 2298   5.971   2.293   6.513 -4.7705 -2.8862  1.3761
  775MOL0     H 2299   6.202   2.712   6.289  2.0367 -0.5236 -4.8658
  775MOL0     H 2300   6.448   2.694   6.302  0.7778  0.1933  2.1053
  776MOL0     O 2301   8.697   1.779   0.568  0.9998 -0.8330  0.1968
  776MOL0     C 2302   8.638   1.820   0.673  0.1790  0.4724  0.1814
  776MOL0     O 2303   8.689   1.816   0.797  0.1764 -0.9087 -1.2277
  776MOL0     C 2304   8.816   1.769   0.812 -0.1534 -0.4066 -0.7479
  776MOL0     C 2305   8.929   1.829   0.752  0.5998 -0.0093  0.3555
  776MOL0     C 2306   9.053   1.765   0.776 -0.2415 -0.4896 -0.1222
  776MOL0     C 2307   9.064   1.650   0.854  0.1190 -0.7468 -0.2100
  776MOL0     O 2308   9.178   1.583   0.875  1.1577 -0.6567 -0.1094
  776MOL0     C 2309   9.296   1.654   0.841  0.2139  0.6518 -0.5283
  776MOL0     C 2310   9.404   1.538   0.863  0.1962 -0.0709 -0.0024
  776MOL0     C 2311   9.434   1.510   1.009  0.4866  0.0010  0.2620
  776MOL0     C 2312   9.568   1.432   1.038 -0.2448  0.2176  0.5010
  776MOL0     C 2313   9.685   1.522   1.071 -0.2813 -0.3298  0.1641
  776MOL0     C 2314   9.814   1.447   1.048  0.3062 -0.2986  0.0092
  776MOL0     C 2315   9.935   1.523   1.094  0.2150  0.6657  0.6001
  776MOL0     C 2316  10.035   1.435   1.158  0.3168 -0.9245 -0.3299
  776MOL0     N 2317  10.170   1.498   1.167 -0.0258  0.0086  0.2583
  776MOL0     C 2318  10.255   1.512   1.057 -0.2591  0.8604 -0.0426
  776MOL0     C 2319  10.378   1.474   1.101  0.1865  0.3107  0.9146
  776MOL0     C 2320  10.505   1.474   1.017 -0.7025 -0.8140  0.7932
  776MOL0     C 2321  10.568   1.607   0.991  0.3915  0.4198 -0.5375
  776MOL0     C 2322  10.640   1.679   1.108 -1.2377  0.1905  0.4372
  776MOL0     C 2323  10.750   1.593   1.167  0.3670  0.4069 -0.5676
  776MOL0     O 2324  10.820   1.699   1.232 -1.3020  0.0174 -0.3634
  776MOL0     C 2325  10.892   1.680   1.352  0.6598  0.6224  0.1110
  776MOL0     C 2326  10.971   1.781   1.399  0.2333  0.2194 -0.0640
  776MOL0     C 2327  11.052   1.767   1.508 -0.3641  0.5181  0.3807
  776MOL0     C 2328  11.060   1.647   1.575  0.2991  0.0504 -0.3518
  776MOL0     C 2329  11.153   1.634   1.686  0.1103 -0.3845  0.2693
  776MOL0     O 2330  11.164   1.514   1.739 -0.1916  0.2266 -0.8091
  776MOL0     C 2331  11.284   1.496   1.814  0.0628  0.0908 -0.1664
  776MOL0     C 2332  11.281   1.501   1.958 -0.4623 -0.1265 -0.1538
  776MOL0     C 2333  11.398   1.479   2.034  0.5051  0.5873 -0.0959
  776MOL0     C 2334  11.510   1.441   1.972  0.1688  0.3349 -0.0440
  776MOL0     O 2335  11.616   1.421   2.045  0.0385 -0.3270  0.9588
  776MOL0     C 2336  11.614   1.282   2.076 -0.8917 -0.3749 -0.5476
  776MOL0     C 2337  11.734   1.239   2.159 -0.4162  0.9087  0.0205
  776MOL0     C 2338  11.730   1.315   2.290  0.6987 -0.1762 -1.1379
  776MOL0     C 2339  11.847   1.273   2.375 -0.5683 -0.2261  0.1973
  776MOL0     C 2340  11.831   1.311   2.521 -0.1203 -0.1636 -0.2707
  776MOL0     C 2341  11.795   1.452   2.549 -0.3834  0.0808 -0.7573
  776MOL0     C 2342  11.884   1.559   2.486 -0.4903  0.3889  0.3143
  776MOL0     C 2343  11.845   1.697   2.519  0.5365 -0.7801 -0.2637
  776MOL0    Cl 2344  11.709   1.738   2.401 -0.3322  0.1444 -0.2300
  776MOL0     C 2345  11.514   1.425   1.835  0.1882 -0.8430 -0.4829
  776MOL0     C 2346  11.407   1.461   1.756  0.4387  0.3050 -0.2982
  776MOL0     O 2347  11.199   1.738   1.734 -0.7578 -0.3999  0.0589
  776MOL0     C 2348  10.988   1.547   1.527  0.0829  0.8347 -1.1985
  776MOL0     C 2349  10.917   1.556   1.411  1.3390 -0.3236  0.0687
  776MOL0     N 2350  10.364   1.425   1.221 -1.0342 -0.6329 -0.5143
  776MOL0     N 2351  10.250   1.459   1.268 -0.7033  0.5311  0.5742
  776MOL0     C 2352   8.951   1.612   0.919 -0.4355  0.3424 -0.3962
  776MOL0     C 2353   8.830   1.662   0.898  0.3955  0.5189  0.4625
  776MOL0     C 2354   8.489   1.844   0.647 -0.5534 -0.4178  0.8582
  776MOL0     C 2355   8.408   1.859   0.765  0.8250  0.1882 -1.1470
  776MOL0     C 2356   8.270   1.879   0.745  0.2265  0.8184  0.3732
  776MOL0     C 2357   8.209   1.888   0.621 -0.1326  0.2643 -0.0624
  776MOL0     O 2358   8.076   1.921   0.593 -0.6806 -0.2908  0.5616
  776MOL0     C 2359   7.987   1.951   0.701 -1.2890 -0.8199  0.4032
  776MOL0     C 2360   7.894   2.050   0.646 -0.4298 -0.6116 -0.1642
  776MOL0     C 2361   7.812   2.018   0.521 -0.1258  0.0937  0.3329
  776MOL0     C 2362   7.658   2.020   0.556 -0.0056  1.0918 -0.1282
  776MOL0     C 2363   7.571   1.958   0.451  0.2308 -0.3355  0.4763
  776MOL0     C 2364   7.503   1.918   0.362  0.0482 -0.5147  0.9612
  776MOL0     C 2365   8.297   1.884   0.511 -0.4049  0.9809  0.8740
  776MOL0     C 2366   8.435   1.854   0.514  0.6133 -0.2614  0.3108
  776MOL0     H 2367   8.933   1.913   0.683  0.2308 -1.1169 -1.0579
  776MOL0     H 2368   9.134   1.811   0.720  0.1101 -2.9569 -1.8627
  776MOL0     H 2369   9.311   1.741   0.905 -1.1813  0.7992 -0.3762
  776MOL0     H 2370   9.302   1.686   0.737  2.4321  1.3878 -0.2378
  776MOL0     H 2371   9.488   1.580   0.807  0.1284  0.0009 -0.0505
  776MOL0     H 2372   9.368   1.448   0.812 -3.2201  0.2280  1.5785
  776MOL0     H 2373   9.351   1.455   1.053 -0.0365 -1.1654 -2.0106
  776MOL0     H 2374   9.446   1.610   1.052  0.8275  1.6270 -3.2386
  776MOL0     H 2375   9.534   1.383   1.130 -0.8155  0.9089  0.6743
  776MOL0     H 2376   9.589   1.364   0.955  0.7237  0.2528  0.7079
  776MOL0     H 2377   9.676   1.564   1.172 -2.5162  0.7514 -0.4168
  776MOL0     H 2378   9.682   1.609   1.005 -4.3853 -0.6631 -0.3495
  776MOL0     H 2379   9.821   1.432   0.940  0.0566 -2.0933  0.2263
  776MOL0     H 2380   9.801   1.355   1.106 -1.6599  1.4459  2.6074
  776MOL0     H 2381   9.979   1.556   0.999  0.3979 -1.1173  0.0302
  776MOL0     H 2382   9.902   1.604   1.159  3.4393  2.2625  0.4428
  776MOL0     H 2383  10.030   1.334   1.116 -1.5560 -0.8024 -0.4595
  776MOL0     H 2384   9.997   1.421   1.259 -0.1074 -1.2647 -0.5322
  776MOL0     H 2385  10.232   1.562   0.963 -2.2452 -0.3932 -0.2933
  776MOL0     H 2386  10.465   1.424   0.928 -2.0914 -0.5236  1.2373
  776MOL0     H 2387  10.574   1.406   1.069 -1.4892 -0.1528  2.8167
  776MOL0     H 2388  10.490   1.677   0.961  0.2895  0.5019 -0.0882
  776MOL0     H 2389  10.641   1.589   0.911 -0.0859  0.3232 -0.9565
  776MOL0     H 2390  10.687   1.759   1.050  1.2525 -2.0006 -0.8099
  776MOL0     H 2391  10.573   1.723   1.182  1.0177  2.9870  0.9956
  776MOL0     H 2392  10.817   1.545   1.095  1.7681  0.0743  0.8986
  776MOL0     H 2393  10.698   1.527   1.237  1.6466  0.5372  0.5385
  776MOL0     H 2394  10.973   1.875   1.343  0.4001 -0.1873 -0.7540
  776MOL0     H 2395  11.102   1.854   1.550  2.5267 -0.3285 -1.0260
  776MOL0     H 2396  11.193   1.531   2.014 -1.0211  1.2132 -1.6857
  776MOL0     H 2397  11.406   1.487   2.142  1.9942 -0.9373 -0.0554
  776MOL0     H 2398  11.586   1.220   1.990  1.6842 -0.0124 -1.7479
  776MOL0     H 2399  11.529   1.276   2.145 -2.0037 -1.4986 -1.9567
  776MOL0     H 2400  11.829   1.250   2.105  0.2359 -2.1391  0.3493
  776MOL0     H 2401  11.717   1.134   2.185 -0.7555  0.9566 -0.0043
  776MOL0     H 2402  11.634   1.287   2.334  0.9480 -3.6303 -2.5173
  776MOL0     H 2403  11.725   1.424   2.283 -3.0686  0.0224  1.6272
  776MOL0     H 2404  11.860   1.165   2.379 -0.3364 -0.3060 -1.6520
  776MOL0     H 2405  11.941   1.310   2.333 -0.1238 -0.7063  0.7628
  776MOL0     H 2406  11.916   1.286   2.587  0.8978  1.1392 -1.0350
  776MOL0     H 2407  11.745   1.252   2.553  0.7307 -2.1457 -1.3772
  776MOL0     H 2408  11.815   1.457   2.657  1.8753 -2.1631 -0.9964
  776MOL0     H 2409  11.689   1.473   2.528 -0.3144 -1.3767 -2.8289
  776MOL0     H 2410  11.989   1.557   2.516 -0.6675  1.2149  1.0492
  776MOL0     H 2411  11.895   1.538   2.379  1.3920  0.0377  0.5482
  776MOL0     H 2412  11.928   1.766   2.506 -0.9897  0.8930 -1.6516
  776MOL0     H 2413  11.811   1.707   2.622 -3.8213  5.5851 -1.7610
  776MOL0     H 2414  11.599   1.388   1.779  1.5861 -0.9489  1.6031
  776MOL0     H 2415  11.407   1.440   1.650 -0.6028 -0.2262 -0.2083
  776MOL0     H 2416  10.990   1.451   1.578  1.6729  2.7381  2.6880
  776MOL0     H 2417  10.860   1.466   1.389  0.7731 -0.6427  2.5305
  776MOL0     H 2418   8.963   1.529   0.988 -0.5293 -2.0256 -3.0689
  776MOL0     H 2419   8.748   1.621   0.955  1.5274 -3.6278 -0.5784
  776MOL0     H 2420   8.436   1.866   0.869 -2.4743  2.4624 -0.2709
  776MOL0     H 2421   8.209   1.889   0.834 -1.6022 -1.4655 -0.5250
  776MOL0     H 2422   8.035   1.994   0.789  0.0876 -0.1664 -0.6195
  776MOL0     H 2423   7.934   1.860   0.729 -2.9814  0.0848  0.2454
  776MOL0     H 2424   7.817   2.063   0.722 -0.6991 -2.1776 -0.1295
  776MOL0     H 2425   7.949   2.144   0.641 -0.6579 -0.4348  0.5505
  776MOL0     H 2426   7.850   1.920   0.491  4.2815  1.1262  1.7677
  776MOL0     H 2427   7.834   2.090   0.441 -4.6076 -0.1994 -1.4176
  776MOL0     H 2428   7.631   1.981   0.654 -1.6114 -2.2142 -1.7174
  776MOL0     H 2429   7.642   2.127   0.567  0.8137  1.0881  1.3659
  776MOL0     H 2430   7.424   1.872   0.306  0.1589  0.5516 -0.0998
  776MOL0     H 2431   8.248   1.903   0.415  1.1888 -2.0840 -0.6785
  776MOL0     H 2432   8.499   1.854   0.426  0.1200 -0.7985 -0.0505
  777MOL0     O 2433   3.154   3.888  10.836  0.2016  0.0176  0.0618
  777MOL0     C 2434   3.203   3.783  10.864  0.4720  0.5704 -0.6180
  777MOL0     O 2435   3.226   3.731  10.987 -0.9747  0.1732  0.2368
  777MOL0     C 2436   3.213   3.805  11.102 -0.2436  0.2099 -0.4430
  777MOL0     C 2437   3.155   3.742  11.215 -1.0904  0.2733 -0.0605
  777MOL0     C 2438   3.134   3.800  11.339 -0.5899 -0.9302  0.2034
  777MOL0     C 2439   3.157   3.940  11.353  0.2175  0.0307 -0.1079
  777MOL0     O 2440   3.125   3.998  11.466  1.0132 -0.2714  0.0900
  777MOL0     C 2441   3.054   4.118  11.463 -0.3832  0.4676  0.3844
  777MOL0     C 2442   2.983   4.143  11.599  0.8030  0.2214 -0.0545
  777MOL0     C 2443   2.884   4.029  11.639  0.7085  0.5188 -0.4026
  777MOL0     C 2444   2.765   4.016  11.541 -1.0106 -1.1040 -0.8743
  777MOL0     C 2445   2.642   3.959  11.609  0.4946  0.0766  0.0014
  777MOL0     C 2446   2.548   4.071  11.648 -1.2869  0.2771 -0.4128
  777MOL0     C 2447   2.514   4.164  11.525  0.2439 -0.5070 -0.4038
  777MOL0     C 2448   2.376   4.210  11.521 -0.2628  0.2791 -0.9073
  777MOL0     N 2449   2.352   4.321  11.614  0.2560  0.5245  0.9280
  777MOL0     C 2450   2.346   4.319  11.748  0.1637  0.2255  0.1472
  777MOL0     C 2451   2.320   4.446  11.791 -0.5246 -0.5859  0.9622
  777MOL0     C 2452   2.295   4.516  11.914  0.0537  0.4158  0.2274
  777MOL0     C 2453   2.174   4.444  11.970  0.9581 -0.8380 -0.6539
  777MOL0     C 2454   2.124   4.519  12.096 -1.5901  0.5751  1.0513
  777MOL0     C 2455   2.025   4.429  12.170 -0.0992  0.6006  0.3126
  777MOL0     O 2456   1.910   4.403  12.090  0.4701  0.0119  0.5594
  777MOL0     C 2457   1.789   4.461  12.117 -1.1718 -0.1666 -0.1245
  777MOL0     C 2458   1.671   4.387  12.103 -0.9538 -0.3138 -0.1053
  777MOL0     C 2459   1.549   4.466  12.115 -0.4312  0.0180  0.4068
  777MOL0     C 2460   1.535   4.602  12.149 -0.6968 -0.0439  0.4310
  777MOL0     C 2461   1.403   4.680  12.161  0.0785 -0.5022 -0.5520
  777MOL0     O 2462   1.402   4.773  12.257 -0.8425 -0.1543  0.1557
  777MOL0     C 2463   1.288   4.823  12.313 -0.5638  0.4993 -0.4442
  777MOL0     C 2464   1.279   4.957  12.336  0.2318 -0.2658 -0.3364
  777MOL0     C 2465   1.165   5.020  12.391  0.2220  0.6641 -0.1805
  777MOL0     C 2466   1.050   4.942  12.415  0.0424  0.4099 -0.4518
  777MOL0     O 2467   0.931   5.003  12.433  0.2249  0.4124 -0.0034
  777MOL0     C 2468   0.812   4.921  12.409  0.3473 -0.7448  1.2782
  777MOL0     C 2469   0.699   5.002  12.350  0.2797 -0.2611 -0.5679
  777MOL0     C 2470   0.569   4.925  12.305 -0.5344 -0.3511 -0.0328
  777MOL0     C 2471   0.468   4.927  12.421 -0.4193  0.4521  0.6199
  777MOL0     C 2472   0.346   4.836  12.394  0.2344  0.6592  0.1145
  777MOL0     C 2473   0.214   4.898  12.412 -0.1958 -0.0923  0.3197
  777MOL0     C 2474   0.179   4.965  12.279  0.4626  0.3305 -0.2726
  777MOL0     C 2475   0.059   5.063  12.285  0.0930 -0.9569 -0.1518
  777MOL0    Cl 2476   0.065   5.211  12.385  0.5072 -0.0051  0.1358
  777MOL0     C 2477   1.060   4.797  12.403  0.7138 -0.3647  0.7252
  777MOL0     C 2478   1.174   4.743  12.344 -0.2583 -0.5307 -0.1723
  777MOL0     O 2479   1.304   4.641  12.102  0.7927  0.2060 -0.9445
  777MOL0     C 2480   1.658   4.656  12.182 -0.1770 -0.8476 -0.0867
  777MOL0     C 2481   1.777   4.590  12.166 -0.6616  0.4045  0.1067
  777MOL0     N 2482   2.311   4.522  11.669  0.4990  0.3602  0.2430
  777MOL0     N 2483   2.339   4.448  11.571 -0.1619  0.5131 -0.2287
  777MOL0     C 2484   3.195   4.006  11.233  0.0957  0.4200 -0.1144
  777MOL0     C 2485   3.223   3.943  11.109  0.3823  0.1492 -0.5809
  777MOL0     C 2486   3.215   3.688  10.750 -0.2534 -0.8473 -0.4660
  777MOL0     C 2487   3.264   3.559  10.773  0.8526 -0.8086  0.3433
  777MOL0     C 2488   3.272   3.468  10.667  0.1150 -0.1587 -0.3401
  777MOL0     C 2489   3.243   3.502  10.539 -0.8052  0.2781 -0.2564
  777MOL0     O 2490   3.238   3.404  10.445  0.7014  0.1074  0.2354
  777MOL0     C 2491   3.369   3.362  10.406 -1.2987  0.2440 -0.5346
  777MOL0     C 2492   3.381   3.206  10.420 -0.1111 -0.3283 -0.5384
  777MOL0     C 2493   3.268   3.132  10.337 -0.5724  0.0025  0.1945
  777MOL0     C 2494   3.291   3.134  10.183 -0.1976  0.6659 -0.2710
  777MOL0     C 2495   3.426   3.087  10.129  0.4767  0.4512  0.7315
  777MOL0     C 2496   3.517   3.040  10.070  0.0390  0.5427  0.6073
  777MOL0     C 2497   3.190   3.630  10.512 -0.1608  1.1059  0.1864
  777MOL0     C 2498   3.186   3.725  10.614  0.0716  0.4432  1.0437
  777MOL0     H 2499   3.136   3.637  11.199  3.1211 -0.5049 -1.1914
  777MOL0     H 2500   3.101   3.742  11.425 -0.6547 -1.9234 -0.4796
  777MOL0     H 2501   2.981   4.110  11.383 -0.7663  0.8022  0.6956
  777MOL0     H 2502   3.122   4.199  11.437 -0.0363 -0.1284 -0.6260
  777MOL0     H 2503   2.917   4.229  11.586 -1.3124 -1.2255  0.5745
  777MOL0     H 2504   3.060   4.149  11.677  1.8450 -1.7914 -0.8457
  777MOL0     H 2505   2.846   4.040  11.741  0.3303 -2.6510 -0.1097
  777MOL0     H 2506   2.939   3.935  11.636  2.9569  1.7374  0.6227
  777MOL0     H 2507   2.747   4.116  11.500  1.3916  0.5900  1.8250
  777MOL0     H 2508   2.791   3.950  11.457  0.9751  0.4881 -1.6070
  777MOL0     H 2509   2.682   3.898  11.690 -1.4741  2.0859  2.6901
  777MOL0     H 2510   2.582   3.898  11.541  0.2117  1.2491 -0.8394
  777MOL0     H 2511   2.590   4.125  11.733 -0.5641 -0.6201 -0.1781
  777MOL0     H 2512   2.458   4.019  11.684 -0.9417  0.0192  0.0794
  777MOL0     H 2513   2.585   4.247  11.535 -1.3796  1.1773 -1.9977
  777MOL0     H 2514   2.512   4.097  11.438 -0.2135 -1.9031  0.6587
  777MOL0     H 2515   2.299   4.133  11.532  2.1789 -2.0829  1.3410
  777MOL0     H 2516   2.363   4.267  11.429  0.8031  2.5352  0.2419
  777MOL0     H 2517   2.352   4.224  11.799  1.0156 -0.5134 -1.2790
  777MOL0     H 2518   2.285   4.623  11.899 -0.7910  0.5155  1.3069
  777MOL0     H 2519   2.378   4.508  11.985 -1.4735 -1.0976  1.9466
  777MOL0     H 2520   2.189   4.338  11.993  0.4899 -0.5935  0.8782
  777MOL0     H 2521   2.097   4.444  11.892 -1.3259 -1.9662  1.4543
  777MOL0     H 2522   2.211   4.556  12.150 -0.4271  3.2594 -2.3337
  777MOL0     H 2523   2.080   4.612  12.058 -1.3374  0.3043  0.0778
  777MOL0     H 2524   1.999   4.477  12.265 -0.5526 -0.3058  0.6608
  777MOL0     H 2525   2.069   4.334  12.199  1.8338  1.4040  0.1375
  777MOL0     H 2526   1.682   4.284  12.071 -1.1666 -0.1267 -0.8150
  777MOL0     H 2527   1.452   4.429  12.083 -1.4461  1.4852  1.6504
  777MOL0     H 2528   1.363   5.021  12.311 -0.5019  1.1456  0.6386
  777MOL0     H 2529   1.150   5.125  12.414 -0.3312  0.5661 -0.0666
  777MOL0     H 2530   0.775   4.869  12.498 -0.9751 -0.9009  0.6635
  777MOL0     H 2531   0.834   4.844  12.335 -1.6740 -1.0807  0.9686
  777MOL0     H 2532   0.743   5.052  12.263 -0.9413  2.7433  0.4329
  777MOL0     H 2533   0.671   5.087  12.413 -0.2384  0.2608 -1.4714
  777MOL0     H 2534   0.584   4.818  12.290  0.2834 -0.5612  1.9758
  777MOL0     H 2535   0.528   4.987  12.224  1.0624 -1.7903 -2.0296
  777MOL0     H 2536   0.523   4.894  12.509 -0.0294 -0.3828  0.0798
  777MOL0     H 2537   0.442   5.031  12.442 -0.5497  0.8675 -1.3462
  777MOL0     H 2538   0.357   4.758  12.470 -1.1616 -0.4559 -0.7596
  777MOL0     H 2539   0.365   4.782  12.300  2.2771 -0.8168  1.2808
  777MOL0     H 2540   0.203   4.959  12.502 -3.6279  2.2976 -1.4607
  777MOL0     H 2541   0.157   4.809  12.436 -1.5195  1.0971  1.8017
  777MOL0     H 2542   0.264   5.020  12.237  2.0087 -1.3186  0.5759
  777MOL0     H 2543   0.152   4.878  12.219 -1.2475  1.8000 -1.7663
  777MOL0     H 2544  -0.032   5.014  12.318  0.3195  0.5072  2.9791
  777MOL0     H 2545   0.025   5.093  12.186  1.2757  2.6097  0.3800
  777MOL0     H 2546   0.977   4.735  12.434  0.4059 -1.3552 -1.8208
  777MOL0     H 2547   1.195   4.637  12.336  0.4576 -0.5503  1.5776
  777MOL0     H 2548   1.667   4.754  12.227  0.0556 -1.8243  2.0920
  777MOL0     H 2549   1.866   4.650  12.177  0.7677 -1.5527 -0.3645
  777MOL0     H 2550   3.207   4.114  11.237 -2.1872  0.7397 -0.6670
  777MOL0     H 2551   3.278   3.996  11.032  0.1978 -0.1458 -0.9175
  777MOL0     H 2552   3.311   3.529  10.866  1.9398  2.3123  0.9050
  777MOL0     H 2553   3.295   3.365  10.692  0.3435  0.1173  0.6350
  777MOL0     H 2554   3.446   3.393  10.477 -0.5649 -1.3689 -0.5907
  777MOL0     H 2555   3.390   3.391  10.303  2.1680 -1.6942 -0.5213
  777MOL0     H 2556   3.483   3.178  10.393 -0.3848 -2.2629  0.2698
  777MOL0     H 2557   3.367   3.189  10.527  2.8234  0.9804  0.1421
  777MOL0     H 2558   3.168   3.169  10.357 -0.6126  0.0119 -0.0194
  777MOL0     H 2559   3.259   3.026  10.363  1.3398 -0.8848 -2.3666
  777MOL0     H 2560   3.200   3.089  10.142 -0.1932 -1.6844  2.0627
  777MOL0     H 2561   3.287   3.241  10.160 -1.3067  0.9161  0.9602
  777MOL0     H 2562   3.598   2.990  10.021 -1.0180 -1.1546  0.5159
  777MOL0     H 2563   3.165   3.644  10.407 -0.0392 -3.7447 -0.7220
  777MOL0     H 2564   3.160   3.830  10.603  0.6584  0.4198 -0.9999
  778MOL0     O 2565   8.636   3.346  10.044  1.3424 -0.5566 -0.2870
  778MOL0     C 2566   8.649   3.405   9.935  0.4007  0.5751  0.2819
  778MOL0     O 2567   8.574   3.515   9.902 -0.2064 -0.0868 -0.1698
  778MOL0     C 2568   8.478   3.545   9.994  0.0073 -0.0386 -0.4438
  778MOL0     C 2569   8.345   3.528   9.958  0.1867  1.1030  0.6258
  778MOL0     C 2570   8.241   3.571  10.041 -0.2140 -0.8157 -0.3121
  778MOL0     C 2571   8.267   3.636  10.166 -0.6608  0.8416 -0.0106
  778MOL0     O 2572   8.173   3.692  10.248  0.2698  0.0716 -0.5224
  778MOL0     C 2573   8.040   3.722  10.213  0.5578 -0.2765  0.1926
  778MOL0     C 2574   7.959   3.747  10.340 -0.8229  0.6121 -0.6544
  778MOL0     C 2575   7.806   3.753  10.303 -0.1322  0.0329 -0.0932
  778MOL0     C 2576   7.724   3.760  10.437  0.1856  0.4738 -0.4058
  778MOL0     C 2577   7.583   3.727  10.376 -0.9225  0.6543  0.1408
  778MOL0     C 2578   7.477   3.755  10.486 -0.2533  0.4220  0.5820
  778MOL0     C 2579   7.337   3.755  10.421  0.3777 -1.0264  0.0311
  778MOL0     C 2580   7.223   3.820  10.504 -0.2169 -0.6184 -0.2988
  778MOL0     N 2581   7.135   3.917  10.442  0.2386  0.5899  0.2934
  778MOL0     C 2582   7.025   3.870  10.379  0.1516 -0.1010 -0.0685
  778MOL0     C 2583   6.984   3.974  10.306 -0.3940  0.2712 -0.5809
  778MOL0     C 2584   6.869   3.985  10.197 -0.3754 -0.5327 -0.1235
  778MOL0     C 2585   6.728   3.998  10.255  0.2128  0.1867 -0.3224
  778MOL0     C 2586   6.686   4.134  10.300  0.0187 -0.8781 -0.3958
  778MOL0     C 2587   6.532   4.160  10.314  0.7812  0.4953  0.5906
  778MOL0     O 2588   6.490   4.037  10.377  0.0248 -0.6312  0.0671
  778MOL0     C 2589   6.356   4.017  10.348  0.9697 -0.4817  0.9005
  778MOL0     C 2590   6.262   4.125  10.342  0.3008 -0.6656 -0.3975
  778MOL0     C 2591   6.130   4.103  10.313  0.9259  0.2277 -0.3795
  778MOL0     C 2592   6.090   3.966  10.289  0.4838  0.4702  0.1710
  778MOL0     C 2593   5.947   3.943  10.274 -1.0356 -0.1017 -0.5582
  778MOL0     O 2594   5.862   4.033  10.321 -0.0310  0.3701  0.2700
  778MOL0     C 2595   5.725   4.016  10.333 -0.0485 -1.0159  0.3089
  778MOL0     C 2596   5.654   4.075  10.442  0.2075 -0.9788 -0.0463
  778MOL0     C 2597   5.526   4.039  10.470  0.4924  0.4773 -0.0929
  778MOL0     C 2598   5.459   3.947  10.396  1.0755  0.6793  0.5441
  778MOL0     O 2599   5.331   3.917  10.443 -0.4314 -0.0053 -0.1006
  778MOL0     C 2600   5.240   3.884  10.333  1.0568 -0.1298 -0.1821
  778MOL0     C 2601   5.096   3.921  10.370 -0.1031  0.7374 -0.7230
  778MOL0     C 2602   5.068   3.872  10.518  0.0865  0.9445  0.1134
  778MOL0     C 2603   5.064   3.718  10.526  0.4574  0.3199 -1.1257
  778MOL0     C 2604   5.012   3.683  10.661 -0.0909  0.6541  0.4913
  778MOL0     C 2605   5.026   3.528  10.705 -0.2107 -0.0127 -0.1232
  778MOL0     C 2606   5.176   3.476  10.675 -0.1618 -0.0477 -0.3639
  778MOL0     C 2607   5.210   3.342  10.723  1.1704 -0.2598 -0.5297
  778MOL0    Cl 2608   5.298   3.377  10.885 -0.9255 -0.3716  0.3280
  778MOL0     C 2609   5.522   3.897  10.280  0.1151  0.4331  0.4722
  778MOL0     C 2610   5.650   3.940  10.240  0.5177  0.4854 -0.2718
  778MOL0     O 2611   5.927   3.847  10.208 -0.2231  0.5738  0.1965
  778MOL0     C 2612   6.182   3.857  10.285 -0.6249 -1.2586 -0.0423
  778MOL0     C 2613   6.315   3.887  10.319  0.4092 -0.0054  0.0740
  778MOL0     N 2614   7.070   4.082  10.339  0.4704  0.1360  0.2652
  778MOL0     N 2615   7.152   4.049  10.429 -1.0404  1.5040  0.0650
  778MOL0     C 2616   8.401   3.647  10.204 -0.4071 -0.5029 -1.0543
  778MOL0     C 2617   8.507   3.606  10.124  0.4027  0.4900 -0.3866
  778MOL0     C 2618   8.728   3.337   9.840 -0.5435  0.1071 -0.1442
  778MOL0     C 2619   8.760   3.200   9.846  0.1468  0.4314  0.3028
  778MOL0     C 2620   8.840   3.141   9.750 -0.3595 -0.2144  0.4762
  778MOL0     C 2621   8.893   3.212   9.641  0.6890 -0.2547 -0.0641
  778MOL0     O 2622   8.955   3.155   9.530  0.0372 -0.3483 -0.7737
  778MOL0     C 2623   9.002   3.018   9.538  0.2179 -0.1408  0.4405
  778MOL0     C 2624   8.910   2.898   9.516 -0.4216 -0.3349 -0.0715
  778MOL0     C 2625   8.993   2.771   9.491 -0.2861  0.3507  0.3596
  778MOL0     C 2626   8.942   2.692   9.371 -0.2950  0.2058 -0.3057
  778MOL0     C 2627   8.971   2.773   9.257  0.5409  0.2358  0.0459
  778MOL0     C 2628   8.998   2.849   9.165  0.6823 -0.2083  0.5149
  778MOL0     C 2629   8.864   3.352   9.641 -0.2058  0.0827 -0.7264
  778MOL0     C 2630   8.782   3.411   9.732 -0.1213 -0.2984  0.1188
  778MOL0     H 2631   8.310   3.465   9.877 -0.8688  3.0258 -0.4792
  778MOL0     H 2632   8.142   3.542  10.008  0.6545 -1.9469 -2.1079
  778MOL0     H 2633   7.986   3.658  10.143 -3.4970  0.6134  2.1830
  778MOL0     H 2634   8.034   3.821  10.165 -0.5624 -1.7347 -2.9289
  778MOL0     H 2635   7.993   3.836  10.393  4.0421 -1.6806  0.6546
  778MOL0     H 2636   7.977   3.665  10.410 -2.7353  0.2753 -0.5047
  778MOL0     H 2637   7.776   3.669  10.240 -2.7019 -0.4328  1.6000
  778MOL0     H 2638   7.789   3.846  10.248 -0.4237  0.9600  1.4985
  778MOL0     H 2639   7.754   3.683  10.509  1.7741 -1.9858 -3.4419
  778MOL0     H 2640   7.739   3.854  10.491 -0.8205  0.4372 -0.0429
  778MOL0     H 2641   7.584   3.627  10.331  0.5880  1.8204 -2.6825
  778MOL0     H 2642   7.573   3.798  10.293  1.2812  0.1719 -0.6092
  778MOL0     H 2643   7.509   3.847  10.537  0.4293  0.1999  0.5676
  778MOL0     H 2644   7.487   3.671  10.556  3.3223  0.0514 -0.1656
  778MOL0     H 2645   7.337   3.828  10.341 -0.3856 -0.0151  0.9314
  778MOL0     H 2646   7.321   3.660  10.369  0.2527  0.4503 -2.8291
  778MOL0     H 2647   7.261   3.863  10.597  3.3929 -0.0982 -1.8559
  778MOL0     H 2648   7.174   3.730  10.543  1.2847 -1.7735 -0.9510
  778MOL0     H 2649   6.979   3.772  10.390 -1.2471  0.7648  2.9490
  778MOL0     H 2650   6.871   3.894  10.137 -0.8719 -0.5102 -0.1754
  778MOL0     H 2651   6.864   4.072  10.131 -3.3130 -0.7983 -0.3892
  778MOL0     H 2652   6.712   3.921  10.331 -3.5549  1.7727  0.7036
  778MOL0     H 2653   6.665   3.963  10.173  2.3298 -3.1186 -0.7300
  778MOL0     H 2654   6.737   4.163  10.393 -0.6077  1.0934 -0.6276
  778MOL0     H 2655   6.729   4.209  10.234  0.0557 -0.4729  0.0799
  778MOL0     H 2656   6.496   4.176  10.212  2.0243  4.6894  0.6207
  778MOL0     H 2657   6.515   4.246  10.380 -0.4620  1.4545 -0.9324
  778MOL0     H 2658   6.300   4.225  10.359  0.8556 -1.1873  1.6976
  778MOL0     H 2659   6.061   4.187  10.305  1.7970  1.1547  1.2842
  778MOL0     H 2660   5.702   4.152  10.501 -1.5794  1.0768 -1.1355
  778MOL0     H 2661   5.484   4.095  10.553  2.5886  2.3559 -0.2169
  778MOL0     H 2662   5.240   3.780  10.300 -0.2308 -0.1680 -0.1059
  778MOL0     H 2663   5.253   3.947  10.245 -4.1515  0.1643 -1.0496
  778MOL0     H 2664   5.020   3.873  10.308 -0.2081  0.6603 -0.5375
  778MOL0     H 2665   5.066   4.026  10.362 -2.0709  0.1158 -2.1624
  778MOL0     H 2666   4.973   3.920  10.543 -0.9357 -1.6523  1.5213
  778MOL0     H 2667   5.140   3.912  10.591 -1.4761 -0.6712  2.6869
  778MOL0     H 2668   4.992   3.684  10.451 -1.4684  1.3095  0.1774
  778MOL0     H 2669   5.165   3.678  10.524  0.8724  1.0550  1.4970
  778MOL0     H 2670   4.911   3.721  10.678  0.3914  3.0674 -1.4937
  778MOL0     H 2671   5.055   3.743  10.742  2.8522 -2.5184  1.5436
  778MOL0     H 2672   4.951   3.476  10.644 -0.3154  1.6527 -1.4875
  778MOL0     H 2673   5.012   3.511  10.812  1.0835  1.6234  0.3609
  778MOL0     H 2674   5.192   3.471  10.567  1.9900  2.9906 -0.3080
  778MOL0     H 2675   5.246   3.553  10.709  1.2851 -1.0502 -0.9615
  778MOL0     H 2676   5.280   3.289  10.658  0.3967 -0.3243 -1.3299
  778MOL0     H 2677   5.126   3.273  10.730  2.7504 -2.2096  0.1160
  778MOL0     H 2678   5.456   3.834  10.221 -0.8168  4.4446 -3.3148
  778MOL0     H 2679   5.690   3.909  10.145  0.4193  3.0988 -1.2655
  778MOL0     H 2680   6.167   3.754  10.254  0.9738 -0.9126 -2.1489
  778MOL0     H 2681   6.395   3.813  10.325 -0.7605 -1.2452  0.9052
  778MOL0     H 2682   8.423   3.708  10.291 -0.4679  2.1393 -2.7706
  778MOL0     H 2683   8.601   3.631  10.172 -0.7002  4.5620  0.0461
  778MOL0     H 2684   8.703   3.134   9.910 -0.4199 -0.0270 -0.6484
  778MOL0     H 2685   8.825   3.033   9.751  1.3130 -0.4902 -0.5334
  778MOL0     H 2686   9.058   3.011   9.632  0.1952 -0.0066  0.4652
  778MOL0     H 2687   9.080   3.017   9.462 -0.2012  2.5288 -0.1200
  778MOL0     H 2688   8.844   2.877   9.600 -0.2407  1.4357  0.5410
  778MOL0     H 2689   8.844   2.930   9.435 -1.2045  2.3345  1.5264
  778MOL0     H 2690   8.981   2.709   9.580 -0.7734 -1.0869 -0.6631
  778MOL0     H 2691   9.101   2.790   9.490 -0.5813  2.2242 -0.6574
  778MOL0     H 2692   8.988   2.594   9.358  0.2332  0.4404 -0.2403
  778MOL0     H 2693   8.835   2.671   9.367 -0.5186  0.8058  1.4546
  778MOL0     H 2694   8.995   2.912   9.079 -1.7935 -2.1990 -1.0191
  778MOL0     H 2695   8.891   3.413   9.556  0.2710 -1.4838 -1.7428
  778MOL0     H 2696   8.759   3.517   9.726  0.5665 -0.1788 -0.4308
  779MOL0     O 2697   3.003   4.498   9.815  0.6129  0.4751 -0.9861
  779MOL0     C 2698   3.087   4.414   9.780  0.8515 -0.2601 -0.1972
  779MOL0     O 2699   3.076   4.282   9.819 -0.6064  0.5057 -0.1768
  779MOL0     C 2700   2.969   4.240   9.892 -0.5254 -0.0624 -0.3552
  779MOL0     C 2701   2.851   4.194   9.822 -0.4636 -0.5490 -0.6305
  779MOL0     C 2702   2.739   4.149   9.893 -1.0933  0.3863 -0.0316
  779MOL0     C 2703   2.733   4.158  10.037  0.4964 -1.1153  1.5046
  779MOL0     O 2704   2.626   4.132  10.121  0.2131 -0.1755 -0.6085
  779MOL0     C 2705   2.489   4.109  10.078 -0.2153 -0.2617 -0.0284
  779MOL0     C 2706   2.425   4.245  10.025 -0.9432  1.2767 -0.4445
  779MOL0     C 2707   2.366   4.342  10.132 -0.0856  0.4116 -0.0986
  779MOL0     C 2708   2.292   4.457  10.054 -0.0951  0.4901 -0.1517
  779MOL0     C 2709   2.242   4.561  10.158  0.0451 -0.3186 -0.1118
  779MOL0     C 2710   2.160   4.660  10.079  0.4026  0.1243  0.1713
  779MOL0     C 2711   2.192   4.798  10.121 -0.4607 -1.1393 -0.6298
  779MOL0     C 2712   2.066   4.893  10.096  0.0064 -0.0365  1.2069
  779MOL0     N 2713   2.011   4.876   9.953  0.1712 -0.3551 -0.1960
  779MOL0     C 2714   2.078   4.925   9.846  0.6032  0.0494 -0.0980
  779MOL0     C 2715   2.018   4.864   9.740  0.0068  0.5847  0.6733
  779MOL0     C 2716   2.057   4.885   9.601 -0.2548  0.0874 -0.2172
  779MOL0     C 2717   1.950   4.968   9.526  0.2782  0.1374  0.5777
  779MOL0     C 2718   1.984   4.974   9.374 -0.1223  0.0705  0.0981
  779MOL0     C 2719   1.890   5.073   9.303 -0.3023 -0.3807 -0.2646
  779MOL0     O 2720   1.763   5.016   9.279 -0.0678  0.8829  0.0065
  779MOL0     C 2721   1.643   5.081   9.275  0.2770 -0.5266 -0.3650
  779MOL0     C 2722   1.531   5.003   9.234  0.1398  0.2756 -0.1565
  779MOL0     C 2723   1.409   5.064   9.214  0.1278 -0.9108  0.0662
  779MOL0     C 2724   1.384   5.204   9.237  0.5938 -0.5509 -0.5420
  779MOL0     C 2725   1.249   5.254   9.226  0.8083 -0.1542 -0.3081
  779MOL0     O 2726   1.143   5.169   9.211  1.2487 -0.3408 -0.4021
  779MOL0     C 2727   1.029   5.226   9.167 -0.0802  0.4288 -0.3473
  779MOL0     C 2728   0.955   5.317   9.243  0.4050 -0.9295 -0.1166
  779MOL0     C 2729   0.822   5.356   9.216  0.6706 -0.0549 -0.0541
  779MOL0     C 2730   0.759   5.296   9.098 -0.0487 -0.3134 -0.1530
  779MOL0     O 2731   0.627   5.304   9.067 -0.1345 -0.0550  0.6440
  779MOL0     C 2732   0.558   5.429   9.082  0.7161  0.3515 -0.6213
  779MOL0     C 2733   0.589   5.533   8.970 -0.2295  0.3397 -0.6904
  779MOL0     C 2734   0.538   5.495   8.833  0.2043 -0.3527 -0.3865
  779MOL0     C 2735   0.382   5.517   8.811 -0.4127  0.5665  0.1510
  779MOL0     C 2736   0.331   5.440   8.686 -1.5377  0.3938 -0.0897
  779MOL0     C 2737   0.336   5.526   8.557  1.1094  0.5190 -0.1613
  779MOL0     C 2738   0.313   5.453   8.418  0.0615 -0.4327 -0.0702
  779MOL0     C 2739   0.293   5.551   8.302 -0.7891  0.8576  0.2097
  779MOL0    Cl 2740   0.266   5.434   8.167  0.4147 -0.6136  0.2052
  779MOL0     C 2741   0.837   5.213   9.017 -0.3631  0.8203  0.1727
  779MOL0     C 2742   0.975   5.182   9.052  0.1152  0.4794 -0.0038
  779MOL0     O 2743   1.232   5.376   9.232  0.1756 -0.3779  0.0406
  779MOL0     C 2744   1.493   5.283   9.267  0.1370  0.8184  0.3210
  779MOL0     C 2745   1.624   5.221   9.277  0.7396  0.1023  0.8218
  779MOL0     N 2746   1.905   4.797   9.790 -0.0926  0.4050  0.5825
  779MOL0     N 2747   1.907   4.797   9.912  0.0439 -0.5638 -0.0203
  779MOL0     C 2748   2.849   4.209  10.103 -0.2045  0.6481  0.2002
  779MOL0     C 2749   2.954   4.260  10.028 -0.6606 -0.1371  0.2037
  779MOL0     C 2750   3.216   4.457   9.724  0.2133 -1.0968  1.0092
  779MOL0     C 2751   3.305   4.368   9.662 -0.1977  0.2367  0.9488
  779MOL0     C 2752   3.429   4.425   9.608  0.1764  0.3443 -0.4348
  779MOL0     C 2753   3.452   4.566   9.614  0.0867  0.6738  0.5307
  779MOL0     O 2754   3.569   4.621   9.573  0.6796  1.0154 -0.0501
  779MOL0     C 2755   3.662   4.629   9.681 -0.1509  0.7411  0.4438
  779MOL0     C 2756   3.708   4.769   9.675 -0.7824  0.1197  0.1712
  779MOL0     C 2757   3.798   4.807   9.805  0.5342 -0.0239  1.2549
  779MOL0     C 2758   3.946   4.780   9.789 -0.3092  0.1537  0.1985
  779MOL0     C 2759   3.980   4.644   9.801 -0.1847 -0.0332  0.5718
  779MOL0     C 2760   3.996   4.524   9.820 -0.2395  0.2842  1.0972
  779MOL0     C 2761   3.348   4.644   9.654 -0.6355 -0.0081 -0.2579
  779MOL0     C 2762   3.243   4.596   9.719 -0.0344 -0.1141  0.4022
  779MOL0     H 2763   2.860   4.171   9.716 -2.5951 -1.6213 -0.6251
  779MOL0     H 2764   2.657   4.101   9.840  0.5226 -0.9027 -1.4608
  779MOL0     H 2765   2.431   4.078  10.165 -0.8620  0.3121 -0.2489
  779MOL0     H 2766   2.487   4.029  10.003 -4.0613 -1.4075  1.0699
  779MOL0     H 2767   2.351   4.207   9.954 -0.6512  0.2813 -0.2215
  779MOL0     H 2768   2.491   4.299   9.957 -1.0440  4.0057  1.4222
  779MOL0     H 2769   2.450   4.384  10.189 -1.2210 -0.6721  2.5598
  779MOL0     H 2770   2.300   4.295  10.206  0.6983 -0.5769 -0.0226
  779MOL0     H 2771   2.355   4.494   9.973  2.8076 -2.4405  0.5319
  779MOL0     H 2772   2.207   4.407  10.008  1.1939 -0.3569 -1.6819
  779MOL0     H 2773   2.325   4.612  10.208 -0.0509  0.9172 -1.1767
  779MOL0     H 2774   2.177   4.514  10.232 -0.8113 -2.5046 -2.1052
  779MOL0     H 2775   2.054   4.638  10.094 -0.2772  3.7059  1.4336
  779MOL0     H 2776   2.177   4.667   9.971 -1.0509  2.9467  0.0493
  779MOL0     H 2777   2.208   4.790  10.229 -1.3881  0.5536 -0.3393
  779MOL0     H 2778   2.283   4.838  10.076  0.3345 -2.3966 -0.1930
  779MOL0     H 2779   2.093   4.998  10.108 -1.8391  0.7433 -0.7373
  779MOL0     H 2780   1.987   4.864  10.166 -2.0088  0.0329 -0.9322
  779MOL0     H 2781   2.163   4.992   9.849  2.5243 -2.2758  0.5840
  779MOL0     H 2782   2.077   4.781   9.574  1.6153 -0.5604  3.0396
  779MOL0     H 2783   2.145   4.949   9.596 -2.7882  4.0402  0.6682
  779MOL0     H 2784   1.939   5.065   9.574 -2.8076 -1.9163  4.6696
  779MOL0     H 2785   1.854   4.917   9.542  0.8998 -0.9446  0.9739
  779MOL0     H 2786   2.083   5.018   9.359 -0.1326  0.7485  1.8420
  779MOL0     H 2787   1.981   4.881   9.317  1.5160 -0.1400  0.3185
  779MOL0     H 2788   1.925   5.109   9.205  2.2839 -0.3213  0.6151
  779MOL0     H 2789   1.886   5.164   9.363  0.8837  0.2219 -1.0591
  779MOL0     H 2790   1.533   4.895   9.226 -2.3129 -0.1560  3.0273
  779MOL0     H 2791   1.319   5.005   9.199 -2.2073  2.3609  0.2073
  779MOL0     H 2792   1.005   5.357   9.331  1.8244 -1.5958 -0.5768
  779MOL0     H 2793   0.765   5.421   9.282 -2.5856 -0.7704 -1.9135
  779MOL0     H 2794   0.594   5.479   9.172  0.3980 -1.2769  0.4524
  779MOL0     H 2795   0.450   5.417   9.096  1.0370 -1.6538  0.5960
  779MOL0     H 2796   0.694   5.561   8.955 -0.3443  0.7411 -0.7614
  779MOL0     H 2797   0.530   5.621   8.998 -2.8060  0.5310 -5.6401
  779MOL0     H 2798   0.571   5.390   8.824  2.4285  0.1777  0.6627
  779MOL0     H 2799   0.588   5.552   8.755 -0.4878 -0.1940 -0.7129
  779MOL0     H 2800   0.332   5.471   8.897 -1.1223  0.8625 -0.0925
  779MOL0     H 2801   0.352   5.621   8.803  0.2064  0.5795 -3.9178
  779MOL0     H 2802   0.226   5.423   8.713 -1.7105  0.5202 -0.6813
  779MOL0     H 2803   0.379   5.343   8.676  0.0082  1.0068  0.9426
  779MOL0     H 2804   0.441   5.557   8.559  0.5846  3.0565 -3.3395
  779MOL0     H 2805   0.259   5.602   8.572  1.5329  0.9531 -0.1572
  779MOL0     H 2806   0.394   5.387   8.387 -0.7880  0.1895 -4.2392
  779MOL0     H 2807   0.220   5.396   8.429 -1.3900  2.1182  2.3187
  779MOL0     H 2808   0.377   5.618   8.282  1.8875 -2.3550 -0.1004
  779MOL0     H 2809   0.199   5.607   8.313 -0.0156  1.7868  2.7234
  779MOL0     H 2810   0.797   5.176   8.924  1.1921 -2.4505  0.6553
  779MOL0     H 2811   1.033   5.118   8.987  3.8979  2.7393  0.8600
  779MOL0     H 2812   1.484   5.387   9.294 -1.7906  1.0665 -1.0567
  779MOL0     H 2813   1.710   5.286   9.287  2.6042 -2.4257  2.5022
  779MOL0     H 2814   2.854   4.208  10.212  0.7480  0.4661  0.1639
  779MOL0     H 2815   3.031   4.310  10.087 -3.8122  1.4072  3.4049
  779MOL0     H 2816   3.279   4.262   9.669  0.0848  0.1077  0.1930
  779MOL0     H 2817   3.497   4.357   9.558 -1.2614 -0.4681 -1.3638
  779MOL0     H 2818   3.745   4.560   9.659 -0.0470  1.5146 -1.8780
  779MOL0     H 2819   3.611   4.592   9.770 -1.7094  0.4505 -0.5450
  779MOL0     H 2820   3.766   4.784   9.583 -0.3633  1.3505  0.6080
  779MOL0     H 2821   3.620   4.835   9.671 -2.4296 -1.9513  0.4061
  779MOL0     H 2822   3.756   4.755   9.891 -1.8441  0.3884  0.4037
  779MOL0     H 2823   3.771   4.913   9.808  0.4602  0.2412 -2.7990
  779MOL0     H 2824   3.984   4.814   9.692 -0.3392 -2.8396 -0.9799
  779MOL0     H 2825   4.008   4.831   9.863  1.6446 -2.7299  0.7503
  779MOL0     H 2826   4.019   4.421   9.836  2.5806  0.9164  1.5953
  779MOL0     H 2827   3.360   4.751   9.669 -0.2590 -0.1485  0.5155
  779MOL0     H 2828   3.165   4.667   9.746  1.0391  1.4988 -0.5890
  780MOL0     O 2829   8.345   6.581   9.034 -0.5623 -0.7674 -0.8454
  780MOL0     C 2830   8.239   6.526   9.008 -0.7462  1.0980 -0.2425
  780MOL0     O 2831   8.208   6.387   9.017 -0.8564  0.0824 -0.0689
  780MOL0     C 2832   8.326   6.306   9.026 -0.2359 -1.3219  0.4779
  780MOL0     C 2833   8.391   6.250   8.909 -0.5492  0.9394  0.3548
  780MOL0     C 2834   8.512   6.180   8.920  0.3848 -0.5997 -1.1374
  780MOL0     C 2835   8.571   6.160   9.044 -0.3158  0.5486  0.6689
  780MOL0     O 2836   8.667   6.068   9.074  0.2840  0.2909 -0.7066
  780MOL0     C 2837   8.681   5.952   8.987 -0.3436 -0.6743  0.5463
  780MOL0     C 2838   8.566   5.853   9.012  0.6330  0.7015 -1.0341
  780MOL0     C 2839   8.598   5.757   9.129  0.5107 -0.2545 -0.7175
  780MOL0     C 2840   8.485   5.651   9.148 -0.5771 -0.1047  0.3493
  780MOL0     C 2841   8.552   5.550   9.241  0.0442  0.6496  0.0846
  780MOL0     C 2842   8.439   5.461   9.304  0.2290 -0.0575 -0.8829
  780MOL0     C 2843   8.484   5.368   9.416 -0.3766  0.4882  0.5598
  780MOL0     C 2844   8.386   5.268   9.486 -0.2502  1.1496 -0.3765
  780MOL0     N 2845   8.301   5.191   9.390  0.4951  0.1151  0.9494
  780MOL0     C 2846   8.172   5.215   9.360  0.1189  0.7135 -0.3873
  780MOL0     C 2847   8.129   5.109   9.283  0.2265  0.4274  0.0485
  780MOL0     C 2848   7.995   5.093   9.212 -0.4873 -0.4031  0.2685
  780MOL0     C 2849   8.017   4.992   9.099 -0.3419 -0.2324  0.0731
  780MOL0     C 2850   8.125   5.032   8.982  0.1723  0.5350 -0.3652
  780MOL0     C 2851   8.124   5.172   8.930 -0.5054 -0.0889 -0.1869
  780MOL0     O 2852   8.223   5.201   8.830  0.2317  0.6267  0.3881
  780MOL0     C 2853   8.354   5.189   8.867  0.2037 -0.4190  0.2701
  780MOL0     C 2854   8.455   5.154   8.778 -0.1320 -0.0884 -0.0689
  780MOL0     C 2855   8.593   5.152   8.812 -1.2390 -0.3019 -0.0570
  780MOL0     C 2856   8.642   5.188   8.942  0.4093  0.2203  0.2313
  780MOL0     C 2857   8.782   5.187   8.989 -0.5552  0.1115 -0.3936
  780MOL0     O 2858   8.867   5.117   8.905  0.3468  0.2836  0.0362
  780MOL0     C 2859   8.997   5.124   8.925 -0.6147  0.1671 -1.0169
  780MOL0     C 2860   9.063   5.116   9.046  0.6312 -1.0181  0.3759
  780MOL0     C 2861   9.196   5.111   9.051 -0.8531 -0.7406 -0.0252
  780MOL0     C 2862   9.273   5.112   8.938  0.2128 -0.7562  0.5272
  780MOL0     O 2863   9.417   5.129   8.954  0.2097 -0.4311 -0.5062
  780MOL0     C 2864   9.503   5.138   8.839  0.3350  0.1455  0.4187
  780MOL0     C 2865   9.641   5.079   8.872 -0.5322 -0.0541  0.1966
  780MOL0     C 2866   9.729   5.190   8.941  0.5556  0.0239  0.8897
  780MOL0     C 2867   9.876   5.150   8.960 -0.3452  0.3425 -0.4243
  780MOL0     C 2868   9.965   5.274   8.979  0.3531 -0.4614 -0.2614
  780MOL0     C 2869   9.966   5.372   8.855 -0.1222 -0.0525  0.5343
  780MOL0     C 2870  10.097   5.447   8.854 -1.3070  0.3932  0.5446
  780MOL0     C 2871  10.101   5.522   8.712 -0.7231  1.2631 -0.6974
  780MOL0    Cl 2872  10.000   5.663   8.720  0.2435  0.1618 -0.4768
  780MOL0     C 2873   9.212   5.116   8.814  0.1210  0.6173 -0.4699
  780MOL0     C 2874   9.074   5.130   8.810 -0.2415 -0.3390 -0.6836
  780MOL0     O 2875   8.812   5.243   9.090  0.1934  0.2681  0.6003
  780MOL0     C 2876   8.538   5.202   9.039 -0.1770  0.0356  0.0503
  780MOL0     C 2877   8.402   5.195   9.001  0.6013 -1.3138  1.0936
  780MOL0     N 2878   8.244   5.031   9.257 -0.1662  0.2764  0.3247
  780MOL0     N 2879   8.342   5.073   9.327 -0.3785 -0.4139 -0.2548
  780MOL0     C 2880   8.513   6.226   9.150 -0.1364 -0.1295  0.7277
  780MOL0     C 2881   8.395   6.292   9.141 -0.0415 -0.1078 -0.2487
  780MOL0     C 2882   8.135   6.616   8.957 -0.0750 -0.5759  0.3805
  780MOL0     C 2883   8.005   6.558   8.942  1.2466 -0.9516  0.2623
  780MOL0     C 2884   7.898   6.647   8.901  0.0888  1.2313  0.0525
  780MOL0     C 2885   7.918   6.779   8.880  0.6407  0.1823  0.3009
  780MOL0     O 2886   7.808   6.860   8.846  0.6341 -0.6067 -0.7231
  780MOL0     C 2887   7.827   6.979   8.768 -0.9328  0.2223 -0.0388
  780MOL0     C 2888   7.902   6.937   8.637 -0.6603  0.2491  0.1789
  780MOL0     C 2889   7.891   7.047   8.527 -0.4439 -0.6520 -0.1849
  780MOL0     C 2890   7.920   6.994   8.384  0.4391 -0.6930  0.3386
  780MOL0     C 2891   7.808   6.919   8.332  0.4327  0.3984 -0.3061
  780MOL0     C 2892   7.722   6.859   8.274  0.6468  0.7871  0.0129
  780MOL0     C 2893   8.044   6.839   8.910  0.1876  0.1926  0.9445
  780MOL0     C 2894   8.148   6.757   8.939  0.2378  0.8162  0.3882
  780MOL0     H 2895   8.340   6.256   8.814 -0.7355 -3.0426  0.0464
  780MOL0     H 2896   8.549   6.132   8.830  0.6992  0.7617 -1.7676
  780MOL0     H 2897   8.773   5.893   8.994  0.9763  0.7870 -2.3921
  780MOL0     H 2898   8.676   5.995   8.887 -0.3880  2.9020  1.9532
  780MOL0     H 2899   8.544   5.786   8.928 -0.3525 -3.2880  2.1342
  780MOL0     H 2900   8.483   5.918   9.039  0.9538 -0.0815  2.1941
  780MOL0     H 2901   8.604   5.820   9.219 -2.6584  2.6330 -2.2738
  780MOL0     H 2902   8.690   5.702   9.108  3.6965  2.9257  3.2124
  780MOL0     H 2903   8.397   5.698   9.193 -0.2398 -1.3811  2.4461
  780MOL0     H 2904   8.458   5.611   9.050 -2.0194  0.9657  0.2713
  780MOL0     H 2905   8.609   5.606   9.316  0.1205  0.9726 -0.2145
  780MOL0     H 2906   8.633   5.499   9.190  0.0275 -0.4843  1.1254
  780MOL0     H 2907   8.385   5.407   9.226 -1.3497  1.0854 -0.6262
  780MOL0     H 2908   8.360   5.524   9.347 -0.7133 -0.7603 -1.5580
  780MOL0     H 2909   8.565   5.307   9.374 -0.2348  2.2009 -1.8720
  780MOL0     H 2910   8.523   5.438   9.490  3.4602  2.0355 -2.5671
  780MOL0     H 2911   8.334   5.336   9.554  0.7747 -0.1116  1.8053
  780MOL0     H 2912   8.433   5.198   9.556 -3.3113  0.0040  0.7385
  780MOL0     H 2913   8.107   5.299   9.382 -2.2220 -0.5875 -1.9057
  780MOL0     H 2914   7.958   5.191   9.182  1.6668  0.3227 -0.1844
  780MOL0     H 2915   7.918   5.059   9.282 -1.1665  1.9136  0.7227
  780MOL0     H 2916   7.918   4.991   9.053 -0.9480  0.4294  1.3151
  780MOL0     H 2917   8.035   4.890   9.137  0.0800 -0.2539 -0.1761
  780MOL0     H 2918   8.226   5.003   9.011 -0.1030 -0.7272 -0.6270
  780MOL0     H 2919   8.093   4.971   8.897 -0.2214 -1.3465  1.0907
  780MOL0     H 2920   8.135   5.238   9.017 -3.5909 -2.3728  2.1553
  780MOL0     H 2921   8.024   5.188   8.889 -1.9817 -1.3451  2.5902
  780MOL0     H 2922   8.435   5.134   8.674 -0.8348  1.3251 -0.2371
  780MOL0     H 2923   8.660   5.129   8.730 -1.2970  1.8821 -0.7780
  780MOL0     H 2924   9.005   5.116   9.138  1.5610 -3.3832  1.0298
  780MOL0     H 2925   9.245   5.115   9.148  0.7437  0.0897 -0.8232
  780MOL0     H 2926   9.519   5.233   8.787 -2.3629 -0.9705 -2.8330
  780MOL0     H 2927   9.464   5.091   8.748 -0.1657 -1.4890  1.4355
  780MOL0     H 2928   9.682   5.045   8.776 -0.4451 -0.0702  0.2387
  780MOL0     H 2929   9.647   4.993   8.940 -0.1082 -0.5426 -0.4430
  780MOL0     H 2930   9.684   5.210   9.039  0.3909  0.0349  0.8127
  780MOL0     H 2931   9.729   5.286   8.888  2.1189 -1.6931 -2.5714
  780MOL0     H 2932   9.875   5.096   9.055 -0.6898  0.3013 -0.4496
  780MOL0     H 2933   9.913   5.096   8.872  2.0168  0.5109  0.3868
  780MOL0     H 2934  10.066   5.248   9.012  1.4836  4.6751  1.2326
  780MOL0     H 2935   9.911   5.338   9.049 -2.1128  0.8883 -3.1721
  780MOL0     H 2936   9.879   5.438   8.852 -3.0187 -3.5958 -1.8732
  780MOL0     H 2937   9.953   5.304   8.771 -1.0579  0.5862  0.1457
  780MOL0     H 2938  10.094   5.522   8.933  2.1242  1.7992 -0.4578
  780MOL0     H 2939  10.186   5.383   8.868 -0.4807  0.9584 -1.7188
  780MOL0     H 2940  10.067   5.450   8.637 -0.4777 -4.6934  4.1295
  780MOL0     H 2941  10.199   5.554   8.674 -0.0871 -2.1959 -2.3715
  780MOL0     H 2942   9.253   5.101   8.715 -0.5893  1.3290 -0.8827
  780MOL0     H 2943   9.026   5.120   8.713 -1.3354 -2.4211 -0.0116
  780MOL0     H 2944   8.559   5.213   9.145  0.4906 -1.4164  0.0877
  780MOL0     H 2945   8.332   5.198   9.084  0.4349 -0.3974  0.9362
  780MOL0     H 2946   8.557   6.192   9.244  2.1005 -1.0712 -0.5693
  780MOL0     H 2947   8.346   6.342   9.224  2.6520 -0.0800  1.4309
  780MOL0     H 2948   7.982   6.453   8.956 -1.0488 -0.4112  1.1510
  780MOL0     H 2949   7.801   6.603   8.887  0.4686  1.2717 -3.7856
  780MOL0     H 2950   7.881   7.059   8.821  0.1396  0.2656 -1.1510
  780MOL0     H 2951   7.722   7.006   8.754 -0.9042 -0.5228 -1.9763
  780MOL0     H 2952   8.009   6.916   8.649 -0.5977  0.6662  0.3977
  780MOL0     H 2953   7.843   6.853   8.600 -2.9060  0.9926  1.8470
  780MOL0     H 2954   7.957   7.131   8.550 -1.6433  0.4490 -0.6518
  780MOL0     H 2955   7.791   7.090   8.529 -0.8911 -1.6757  0.1193
  780MOL0     H 2956   7.932   7.086   8.326 -2.9097  0.3859  1.1153
  780MOL0     H 2957   8.009   6.932   8.385 -0.8022 -2.6008 -0.8367
  780MOL0     H 2958   7.637   6.806   8.235 -0.5236  2.0127  0.8049
  780MOL0     H 2959   8.052   6.945   8.887  0.3104  0.4717  2.2271
  780MOL0     H 2960   8.243   6.809   8.944  0.6932  0.3959 -2.3470
  781MOL0     O 2961   6.346   5.587   7.484 -0.5765  0.2640 -0.5052
  781MOL0     C 2962   6.233   5.611   7.513  0.5557  0.6543  0.8751
  781MOL0     O 2963   6.190   5.673   7.631 -0.7106 -0.3094  0.5252
  781MOL0     C 2964   6.273   5.711   7.732 -0.2185  0.2159 -0.0251
  781MOL0     C 2965   6.231   5.828   7.796  1.2609  0.7889 -0.1842
  781MOL0     C 2966   6.307   5.882   7.903  0.6236 -0.4943 -0.2349
  781MOL0     C 2967   6.421   5.816   7.953  1.1783  1.0291  0.7026
  781MOL0     O 2968   6.499   5.865   8.057  0.2522 -0.4484  0.1252
  781MOL0     C 2969   6.579   5.981   8.029 -0.3992 -1.0273  0.2833
  781MOL0     C 2970   6.662   6.043   8.145 -1.1539 -0.2966  0.4121
  781MOL0     C 2971   6.800   5.970   8.186  0.5824  0.1820 -0.8433
  781MOL0     C 2972   6.784   5.823   8.236  0.1296  1.6761  0.6101
  781MOL0     C 2973   6.873   5.807   8.362 -0.2853  0.0932 -0.1353
  781MOL0     C 2974   7.024   5.825   8.319 -0.1739 -1.0055  0.0750
  781MOL0     C 2975   7.098   5.722   8.399  0.7053  0.2077 -0.4012
  781MOL0     C 2976   7.247   5.739   8.369 -0.4974 -0.2572 -0.4068
  781MOL0     N 2977   7.290   5.700   8.234 -0.2427  0.6895 -0.2635
  781MOL0     C 2978   7.406   5.626   8.212 -0.1708 -0.1214  0.2659
  781MOL0     C 2979   7.451   5.669   8.097 -0.7657 -0.2721 -0.4517
  781MOL0     C 2980   7.574   5.630   8.018 -0.1459  1.0778 -0.2588
  781MOL0     C 2981   7.679   5.731   8.064  0.1288 -0.3421 -0.2673
  781MOL0     C 2982   7.820   5.694   8.013  0.4044 -0.3003 -0.4058
  781MOL0     C 2983   7.841   5.716   7.862 -0.5319  0.9433 -0.6621
  781MOL0     O 2984   7.787   5.848   7.816  0.2015  0.9927 -0.0362
  781MOL0     C 2985   7.852   5.958   7.866  0.2772 -0.2507  0.0779
  781MOL0     C 2986   7.984   5.978   7.915 -0.5121 -0.3080 -1.1537
  781MOL0     C 2987   8.027   6.098   7.965 -0.0719  0.0253  0.3851
  781MOL0     C 2988   7.937   6.210   7.981  0.2247 -0.4486  0.2999
  781MOL0     C 2989   7.987   6.331   8.044  0.3395  0.0500  0.7094
  781MOL0     O 2990   7.935   6.442   8.000  0.5459 -0.6493 -0.2143
  781MOL0     C 2991   7.958   6.574   8.047 -0.5176 -0.2525  1.1192
  781MOL0     C 2992   8.074   6.617   8.118  0.4665  0.9794  0.0012
  781MOL0     C 2993   8.114   6.755   8.114 -0.1367 -0.0504  0.6135
  781MOL0     C 2994   8.029   6.845   8.049 -0.5812 -0.1511 -0.5609
  781MOL0     O 2995   8.065   6.979   8.021  0.1837  0.3879 -0.5012
  781MOL0     C 2996   8.179   7.034   8.092  0.4965  0.4536  0.3443
  781MOL0     C 2997   8.231   7.153   8.015 -0.8191  0.0986 -1.0235
  781MOL0     C 2998   8.133   7.267   7.991  0.3486 -0.2245  0.1650
  781MOL0     C 2999   8.187   7.368   7.879  0.5846  0.6075 -0.1335
  781MOL0     C 3000   8.066   7.438   7.821 -1.0148  0.4903  0.4186
  781MOL0     C 3001   7.995   7.360   7.700  0.0889  0.6780 -0.8354
  781MOL0     C 3002   7.894   7.446   7.627 -0.1091  0.0844 -0.0056
  781MOL0     C 3003   7.948   7.538   7.516  0.9563  0.1288 -0.4977
  781MOL0    Cl 3004   8.021   7.699   7.589 -0.4243  0.3973 -0.2015
  781MOL0     C 3005   7.914   6.798   7.992  0.6096  0.6953  0.6606
  781MOL0     C 3006   7.876   6.667   7.989 -0.6771 -0.7159 -0.5062
  781MOL0     O 3007   8.084   6.318   8.118  0.4895 -0.8355 -0.3511
  781MOL0     C 3008   7.797   6.188   7.952 -0.2620  0.0970  0.9391
  781MOL0     C 3009   7.766   6.067   7.892  1.0247  0.7353  0.5565
  781MOL0     N 3010   7.351   5.753   8.046  0.5192 -0.1359 -0.0102
  781MOL0     N 3011   7.253   5.762   8.122  0.6718  0.6306 -0.4923
  781MOL0     C 3012   6.449   5.685   7.913  1.1472  0.7368  0.9855
  781MOL0     C 3013   6.375   5.629   7.800  0.5746 -0.9013 -0.4707
  781MOL0     C 3014   6.123   5.580   7.415  0.2888  0.4579 -0.2406
  781MOL0     C 3015   5.990   5.635   7.431 -0.8328  1.2881  0.9780
  781MOL0     C 3016   5.889   5.582   7.344  0.0045  0.4251 -0.3607
  781MOL0     C 3017   5.914   5.489   7.248  1.1471 -0.9173 -0.1070
  781MOL0     O 3018   5.800   5.447   7.185 -0.0609 -0.0401  0.8236
  781MOL0     C 3019   5.818   5.368   7.068 -0.0291  0.2594 -0.9386
  781MOL0     C 3020   5.679   5.319   7.023  1.1121  0.5504 -0.0003
  781MOL0     C 3021   5.604   5.221   7.119  0.4407 -0.4063 -0.4778
  781MOL0     C 3022   5.476   5.171   7.052  0.4140 -0.2026  0.2651
  781MOL0     C 3023   5.432   5.053   7.120 -0.0755 -0.4376  0.2451
  781MOL0     C 3024   5.420   4.938   7.159  0.1408 -0.1660 -0.0686
  781MOL0     C 3025   6.048   5.450   7.226  0.5509  0.0737  0.3530
  781MOL0     C 3026   6.153   5.494   7.310  0.2689  1.2172  0.1960
  781MOL0     H 3027   6.144   5.885   7.764 -0.1739 -1.0361  0.2674
  781MOL0     H 3028   6.279   5.978   7.944  0.5110 -0.9350  0.7516
  781MOL0     H 3029   6.511   6.063   8.003  1.4956  1.6377  3.0030
  781MOL0     H 3030   6.636   5.949   7.941 -4.8566 -1.4020 -2.8097
  781MOL0     H 3031   6.598   6.055   8.234  0.4351  0.2297  1.5328
  781MOL0     H 3032   6.683   6.143   8.105  1.4122 -1.5800 -1.6772
  781MOL0     H 3033   6.856   6.036   8.254  0.0264 -0.7630  0.5765
  781MOL0     H 3034   6.855   5.963   8.092 -0.6617 -0.1698 -1.5571
  781MOL0     H 3035   6.683   5.782   8.244  1.4675 -2.7824 -1.8678
  781MOL0     H 3036   6.823   5.759   8.157 -2.0535  0.2007  0.6354
  781MOL0     H 3037   6.866   5.700   8.386  0.3544  0.3049  1.0757
  781MOL0     H 3038   6.858   5.883   8.439  1.6979  2.1010 -1.5901
  781MOL0     H 3039   7.059   5.924   8.349  2.0687 -2.3273  2.2752
  781MOL0     H 3040   7.027   5.806   8.212 -0.0044  0.3985 -0.1852
  781MOL0     H 3041   7.077   5.734   8.505  1.9625 -0.6743 -0.0279
  781MOL0     H 3042   7.054   5.625   8.376  0.6417  0.2327 -0.3814
  781MOL0     H 3043   7.293   5.670   8.441 -1.0064  0.0785  0.2515
  781MOL0     H 3044   7.278   5.843   8.382  2.5523 -0.6832 -3.0294
  781MOL0     H 3045   7.460   5.566   8.285  0.1551 -0.0430  0.0909
  781MOL0     H 3046   7.548   5.646   7.913 -1.4481  0.6955 -0.0170
  781MOL0     H 3047   7.601   5.532   8.059 -1.2413  1.7994  2.3536
  781MOL0     H 3048   7.669   5.722   8.172  0.1349  1.2060 -0.1065
  781MOL0     H 3049   7.658   5.834   8.033 -1.5523 -0.4132  0.5625
  781MOL0     H 3050   7.898   5.755   8.059  0.7509  0.8461 -2.3976
  781MOL0     H 3051   7.845   5.589   8.033 -1.4356 -0.6223  0.4469
  781MOL0     H 3052   7.804   5.638   7.795 -1.1264  1.9769 -1.5769
  781MOL0     H 3053   7.949   5.711   7.843 -0.7089 -1.9230 -1.4569
  781MOL0     H 3054   8.056   5.896   7.907 -1.2375 -0.9830 -0.9101
  781MOL0     H 3055   8.132   6.117   7.985  0.7558 -2.3549 -1.3280
  781MOL0     H 3056   8.130   6.548   8.181 -1.0106  1.4812  1.9821
  781MOL0     H 3057   8.216   6.780   8.141 -0.7810 -0.6647  4.0899
  781MOL0     H 3058   8.264   6.966   8.106  0.0327 -0.2451 -0.1777
  781MOL0     H 3059   8.147   7.073   8.189  2.3543 -0.2760  1.3140
  781MOL0     H 3060   8.271   7.123   7.918 -0.0361  1.8871 -1.3168
  781MOL0     H 3061   8.319   7.188   8.070 -1.3115  0.2838 -0.3358
  781MOL0     H 3062   8.113   7.320   8.085 -1.2638 -1.4085  0.5448
  781MOL0     H 3063   8.038   7.225   7.955 -0.1643  1.2522 -0.2721
  781MOL0     H 3064   8.275   7.425   7.911  0.6147 -0.8841  2.7677
  781MOL0     H 3065   8.226   7.303   7.800  0.9096 -0.5044  0.9066
  781MOL0     H 3066   8.105   7.532   7.781 -1.4191 -0.6529 -2.9603
  781MOL0     H 3067   7.999   7.464   7.903 -0.7059  0.1167  0.7973
  781MOL0     H 3068   7.947   7.272   7.744 -0.6699  2.5274  2.3985
  781MOL0     H 3069   8.069   7.322   7.629  1.5356 -0.3420  1.1385
  781MOL0     H 3070   7.816   7.384   7.582 -1.7110  1.5589  0.6644
  781MOL0     H 3071   7.843   7.497   7.709  0.3344 -3.0087  2.4273
  781MOL0     H 3072   7.872   7.559   7.440  1.5730  4.6797 -0.1172
  781MOL0     H 3073   8.029   7.487   7.465  2.5407  1.4272  0.6038
  781MOL0     H 3074   7.860   6.875   7.937  3.8799  3.6164  1.1770
  781MOL0     H 3075   7.781   6.635   7.948 -2.4195  3.5661 -0.2612
  781MOL0     H 3076   7.724   6.265   7.973 -0.1256  0.7995 -0.9732
  781MOL0     H 3077   7.663   6.051   7.863  0.9977  1.5866  0.1243
  781MOL0     H 3078   6.526   5.632   7.967  2.3869 -0.5571 -1.8243
  781MOL0     H 3079   6.418   5.541   7.753  4.5964  0.2681  0.6406
  781MOL0     H 3080   5.971   5.724   7.490  0.9062  1.9659  0.5718
  781MOL0     H 3081   5.791   5.628   7.353  0.2158  0.9751 -0.7778
  781MOL0     H 3082   5.881   5.281   7.088 -0.5758  0.0182 -0.2113
  781MOL0     H 3083   5.873   5.427   6.994  2.4114  1.6249  1.7780
  781MOL0     H 3084   5.626   5.412   7.003 -0.2138 -0.0220  0.7061
  781MOL0     H 3085   5.686   5.260   6.930 -0.5103  0.6056 -0.1771
  781MOL0     H 3086   5.572   5.270   7.212  1.9145 -1.7852  0.8078
  781MOL0     H 3087   5.667   5.135   7.143 -0.1128 -1.5083 -2.6551
  781MOL0     H 3088   5.395   5.243   7.069  2.0419  1.2822  2.2891
  781MOL0     H 3089   5.490   5.156   6.944 -0.2298  1.8900 -0.1468
  781MOL0     H 3090   5.398   4.841   7.199 -1.7640  0.6115  0.8690
  781MOL0     H 3091   6.068   5.393   7.135 -3.4322 -1.6948  0.3811
  781MOL0     H 3092   6.256   5.463   7.295  1.0716  3.5006  0.5300
  782MOL0     O 3093   4.084   8.345   5.674 -1.2348  0.3477 -1.2573
  782MOL0     C 3094   4.165   8.352   5.771  0.1324  0.5722  0.6735
  782MOL0     O 3095   4.297   8.319   5.753 -0.4737  0.5690  0.2107
  782MOL0     C 3096   4.372   8.291   5.631 -0.3589  0.9012  0.0653
  782MOL0     C 3097   4.520   8.310   5.643  0.4239  0.2738  0.5546
  782MOL0     C 3098   4.601   8.289   5.522 -0.8013  0.5032 -0.2673
  782MOL0     C 3099   4.542   8.240   5.406 -0.7887 -0.4939 -0.1670
  782MOL0     O 3100   4.627   8.200   5.303 -0.3574 -0.1975 -0.5633
  782MOL0     C 3101   4.583   8.225   5.164  1.0020 -0.5174 -0.7655
  782MOL0     C 3102   4.667   8.171   5.064 -0.0238  0.4469 -0.4423
  782MOL0     C 3103   4.765   8.275   5.005  0.4659 -0.0285  0.7475
  782MOL0     C 3104   4.836   8.209   4.890 -0.7616 -0.4538 -0.2354
  782MOL0     C 3105   4.938   8.301   4.819 -0.7672  0.2631 -0.2806
  782MOL0     C 3106   4.984   8.220   4.695  0.0754 -0.1396 -0.0691
  782MOL0     C 3107   5.099   8.286   4.614  0.0687 -1.3149  0.1302
  782MOL0     C 3108   5.234   8.275   4.688  0.0551 -0.9657  0.3844
  782MOL0     N 3109   5.339   8.336   4.601 -0.5150  0.2542 -0.4639
  782MOL0     C 3110   5.470   8.346   4.652  0.0721 -0.2340  0.9901
  782MOL0     C 3111   5.544   8.369   4.544 -0.2961 -0.4013  0.2076
  782MOL0     C 3112   5.698   8.370   4.542  0.8860  0.6662 -0.0066
  782MOL0     C 3113   5.765   8.237   4.571 -0.2059  0.1461  0.8413
  782MOL0     C 3114   5.912   8.272   4.586 -1.6875  0.0250 -0.1191
  782MOL0     C 3115   5.999   8.141   4.590  0.1775  0.4190  0.2761
  782MOL0     O 3116   5.964   8.051   4.698  0.2741 -0.3368  0.4786
  782MOL0     C 3117   5.854   7.977   4.700 -0.0610  0.5218 -0.0075
  782MOL0     C 3118   5.794   7.923   4.587  0.6577 -1.6445 -0.6548
  782MOL0     C 3119   5.664   7.878   4.602 -0.3360  0.0453  0.4327
  782MOL0     C 3120   5.592   7.897   4.717 -0.0044 -0.2986 -0.4931
  782MOL0     C 3121   5.454   7.852   4.722  0.2910 -0.6825  0.4185
  782MOL0     O 3122   5.378   7.836   4.605 -0.6464 -0.0106 -0.1020
  782MOL0     C 3123   5.257   7.773   4.611  0.3481 -0.5206 -0.2431
  782MOL0     C 3124   5.157   7.834   4.681 -0.3414 -0.1000  0.1960
  782MOL0     C 3125   5.032   7.785   4.666  0.7108 -0.3843  0.9561
  782MOL0     C 3126   5.008   7.670   4.588  0.5286  0.9028 -0.5278
  782MOL0     O 3127   4.876   7.630   4.585  0.0869  0.5821  0.3710
  782MOL0     C 3128   4.841   7.509   4.508  0.4620  0.0707  0.4715
  782MOL0     C 3129   4.687   7.489   4.498  0.6306 -0.9672 -0.5023
  782MOL0     C 3130   4.617   7.581   4.405  0.5175  0.3952 -0.7389
  782MOL0     C 3131   4.459   7.592   4.409 -0.1494 -0.1552  0.1138
  782MOL0     C 3132   4.395   7.480   4.331  0.3187 -0.5315 -1.1383
  782MOL0     C 3133   4.243   7.510   4.329  0.1699 -0.2024  0.1054
  782MOL0     C 3134   4.179   7.392   4.266 -0.0239  0.1693  0.9677
  782MOL0     C 3135   4.035   7.384   4.329 -0.7542  0.0046 -0.2726
  782MOL0    Cl 3136   3.943   7.265   4.222 -0.2626  0.1280 -0.7790
  782MOL0     C 3137   5.116   7.611   4.520 -0.3441  1.1286  0.8312
  782MOL0     C 3138   5.238   7.673   4.523 -0.2056  0.3864 -0.1474
  782MOL0     O 3139   5.419   7.811   4.837 -0.3430 -0.0946  0.1587
  782MOL0     C 3140   5.653   7.955   4.834 -1.0540  0.1863  0.5902
  782MOL0     C 3141   5.790   7.985   4.826 -0.2177  0.3742 -0.7491
  782MOL0     N 3142   5.461   8.382   4.434 -0.2455  0.7408  0.1506
  782MOL0     N 3143   5.339   8.357   4.469  0.2816  0.2972  1.0565
  782MOL0     C 3144   4.401   8.218   5.402 -0.3082  0.2532 -0.4634
  782MOL0     C 3145   4.315   8.252   5.506  0.0317  0.0524  0.2348
  782MOL0     C 3146   4.126   8.424   5.896  0.4938  0.6884 -0.4205
  782MOL0     C 3147   4.216   8.447   6.003 -0.2974 -0.4184  0.2437
  782MOL0     C 3148   4.169   8.511   6.123 -0.1727  0.5500  0.7053
  782MOL0     C 3149   4.037   8.527   6.132  0.9162  0.3739  0.0968
  782MOL0     O 3150   3.972   8.568   6.244 -0.0749  1.1648 -0.3452
  782MOL0     C 3151   4.051   8.571   6.366 -0.3186 -0.7811 -0.4659
  782MOL0     C 3152   3.957   8.620   6.476 -0.8507 -0.4230 -0.9209
  782MOL0     C 3153   4.012   8.589   6.612 -0.2315  0.2752 -0.1387
  782MOL0     C 3154   3.916   8.662   6.711 -0.0984  0.2851  0.1179
  782MOL0     C 3155   3.961   8.622   6.844  0.3201 -0.9571 -0.3686
  782MOL0     C 3156   4.003   8.580   6.947 -0.0529  0.4413 -0.8314
  782MOL0     C 3157   3.947   8.507   6.025 -0.1400 -0.3376  0.2762
  782MOL0     C 3158   3.996   8.464   5.901  0.5202  1.0146  0.1745
  782MOL0     H 3159   4.567   8.332   5.739 -2.7556  2.7878  1.7345
  782MOL0     H 3160   4.708   8.302   5.533 -0.8209 -0.1542  0.8211
  782MOL0     H 3161   4.583   8.335   5.162  2.9233 -0.4873 -2.7592
  782MOL0     H 3162   4.478   8.205   5.141  0.8803 -2.1765  1.0257
  782MOL0     H 3163   4.593   8.139   4.991 -2.5739  1.1771  1.6598
  782MOL0     H 3164   4.722   8.084   5.099  0.5112  0.9070 -0.1137
  782MOL0     H 3165   4.840   8.310   5.077  3.8352  1.9014 -3.2339
  782MOL0     H 3166   4.706   8.362   4.974  1.3924 -0.4614 -2.6532
  782MOL0     H 3167   4.898   8.128   4.929 -0.1653 -0.3759 -0.9931
  782MOL0     H 3168   4.762   8.166   4.822 -2.1198  2.5766 -0.8151
  782MOL0     H 3169   5.021   8.317   4.889 -0.7953 -0.5103 -0.0595
  782MOL0     H 3170   4.894   8.398   4.796  2.0490  1.1791 -2.4719
  782MOL0     H 3171   4.904   8.213   4.620 -1.0443 -2.0935  1.2125
  782MOL0     H 3172   5.014   8.118   4.722  1.4890  0.6223  1.4004
  782MOL0     H 3173   5.115   8.246   4.514  0.3658  0.6176 -0.6302
  782MOL0     H 3174   5.070   8.387   4.585  1.5283 -1.2458 -1.2036
  782MOL0     H 3175   5.254   8.170   4.711  1.8136 -0.6687  0.3388
  782MOL0     H 3176   5.234   8.334   4.780 -0.9101  1.0808 -0.8556
  782MOL0     H 3177   5.513   8.332   4.751  0.3017  0.3961  0.9870
  782MOL0     H 3178   5.731   8.435   4.623 -1.5007 -1.3764  2.8262
  782MOL0     H 3179   5.725   8.402   4.441 -0.8436  2.4062  0.0336
  782MOL0     H 3180   5.751   8.176   4.481  2.2024  3.2295 -1.8989
  782MOL0     H 3181   5.738   8.193   4.667  3.1145 -1.1326  1.3294
  782MOL0     H 3182   5.953   8.333   4.504 -0.3858  1.2287  1.3602
  782MOL0     H 3183   5.919   8.328   4.680 -0.4829 -1.0913  0.4887
  782MOL0     H 3184   6.101   8.174   4.612  0.0141  0.2607  1.3483
  782MOL0     H 3185   5.981   8.085   4.498  0.0658  0.4195  0.2975
  782MOL0     H 3186   5.844   7.915   4.491  2.9801  0.2569  0.2834
  782MOL0     H 3187   5.629   7.849   4.504  5.1723 -0.8411 -1.6230
  782MOL0     H 3188   5.190   7.915   4.745  0.5340  0.4162 -0.8543
  782MOL0     H 3189   4.955   7.829   4.728 -3.7901 -0.8158 -3.5639
  782MOL0     H 3190   4.879   7.420   4.559  1.8304  0.2639 -0.1741
  782MOL0     H 3191   4.879   7.509   4.405  0.9041  0.7045  0.6273
  782MOL0     H 3192   4.642   7.489   4.598  0.4481 -1.0531 -0.5836
  782MOL0     H 3193   4.657   7.389   4.466 -1.1217 -1.4807  2.3300
  782MOL0     H 3194   4.656   7.557   4.305 -0.5871 -1.3513 -0.7852
  782MOL0     H 3195   4.641   7.685   4.430  0.0536  1.0120 -2.6418
  782MOL0     H 3196   4.420   7.606   4.511 -0.3430  1.4642 -0.1579
  782MOL0     H 3197   4.434   7.681   4.351 -2.4634 -3.2816 -4.2822
  782MOL0     H 3198   4.418   7.384   4.379  0.3554  0.3101  0.5990
  782MOL0     H 3199   4.439   7.482   4.231  2.3183  0.1169 -0.2995
  782MOL0     H 3200   4.221   7.595   4.263 -1.4244  0.6693  1.6862
  782MOL0     H 3201   4.202   7.525   4.429 -1.8139 -1.2345 -0.4992
  782MOL0     H 3202   4.171   7.384   4.157  2.4481 -3.5801  0.8885
  782MOL0     H 3203   4.234   7.300   4.290 -1.4737 -0.2747  2.8872
  782MOL0     H 3204   3.976   7.474   4.306  0.9891  2.1067  2.7337
  782MOL0     H 3205   4.025   7.366   4.436  3.9697  0.9621  0.5362
  782MOL0     H 3206   5.104   7.517   4.466 -5.4422  1.6187  0.5771
  782MOL0     H 3207   5.323   7.629   4.472 -0.9125 -1.5942  0.3178
  782MOL0     H 3208   5.601   7.977   4.927  0.0876 -1.4403  1.6870
  782MOL0     H 3209   5.841   8.013   4.918  2.1611 -3.3501 -0.7429
  782MOL0     H 3210   4.351   8.173   5.317 -0.0112 -1.7668  0.3572
  782MOL0     H 3211   4.208   8.251   5.490  0.1299  1.0174 -0.6442
  782MOL0     H 3212   4.323   8.432   5.998 -0.2401  0.3547 -4.2588
  782MOL0     H 3213   4.238   8.524   6.206 -2.6399  1.1135  2.8142
  782MOL0     H 3214   4.135   8.639   6.351  1.7761 -2.8564  1.2076
  782MOL0     H 3215   4.093   8.470   6.371  0.1767 -0.9268 -4.2800
  782MOL0     H 3216   3.959   8.728   6.460 -0.7355  0.1379  2.1807
  782MOL0     H 3217   3.853   8.587   6.463 -1.4480  0.9931  0.0409
  782MOL0     H 3218   4.112   8.632   6.624 -0.4320  0.7363 -0.1016
  782MOL0     H 3219   4.032   8.484   6.634  0.3237  0.0923 -1.4219
  782MOL0     H 3220   3.917   8.771   6.698  2.9153  0.2177 -1.1395
  782MOL0     H 3221   3.815   8.624   6.697  0.0550  0.2719 -1.0056
  782MOL0     H 3222   4.037   8.531   7.036 -0.8920  0.8033 -0.2947
  782MOL0     H 3223   3.842   8.533   6.031 -0.3185  1.5641 -5.4671
  782MOL0     H 3224   3.925   8.452   5.820  1.3590 -1.5918 -0.2457
  783MOL0     O 3225   9.511   3.625   1.018 -0.3678  0.0745  0.4337
  783MOL0     C 3226   9.505   3.747   1.004  0.9861 -0.1262  0.5996
  783MOL0     O 3227   9.414   3.833   1.066  0.7948  0.4463  0.1967
  783MOL0     C 3228   9.304   3.781   1.133  0.2278  0.3933  0.6467
  783MOL0     C 3229   9.285   3.797   1.274  1.1796 -0.3258  0.7786
  783MOL0     C 3230   9.170   3.745   1.338 -0.7138 -1.2277  0.0041
  783MOL0     C 3231   9.090   3.653   1.269  0.8729 -0.1260  0.2245
  783MOL0     O 3232   8.975   3.602   1.330  0.3181  0.5427  0.2675
  783MOL0     C 3233   8.922   3.645   1.458 -0.8335  0.0281  1.2261
  783MOL0     C 3234   8.831   3.758   1.421  0.1220  0.2668  0.1444
  783MOL0     C 3235   8.743   3.790   1.549  0.0475  0.0364  0.6059
  783MOL0     C 3236   8.680   3.929   1.533  0.1629  0.2771 -0.8140
  783MOL0     C 3237   8.549   3.938   1.629 -0.2632 -1.0335  0.5592
  783MOL0     C 3238   8.560   3.953   1.781  0.2932 -0.0218 -0.1968
  783MOL0     C 3239   8.617   4.095   1.804 -0.4578 -1.0367  0.2990
  783MOL0     C 3240   8.667   4.130   1.943  0.6159  0.1831  0.0721
  783MOL0     N 3241   8.699   4.277   1.944  0.4854 -0.2787  0.3410
  783MOL0     C 3242   8.615   4.388   1.971  0.0983  0.6870 -0.2575
  783MOL0     C 3243   8.697   4.491   2.005 -0.2568 -0.6191  0.1315
  783MOL0     C 3244   8.646   4.627   2.050 -0.5894  0.4550  0.9783
  783MOL0     C 3245   8.700   4.720   1.937 -0.0224  0.6620 -0.0340
  783MOL0     C 3246   8.660   4.865   1.959  0.2893  0.7582 -0.5296
  783MOL0     C 3247   8.519   4.894   1.950  0.1855 -0.2481 -1.1481
  783MOL0     O 3248   8.514   5.032   1.968 -0.3177 -0.7155  0.1581
  783MOL0     C 3249   8.397   5.098   1.944 -0.4282  0.3727 -0.5001
  783MOL0     C 3250   8.406   5.227   1.888  0.4882  0.0938 -0.2074
  783MOL0     C 3251   8.306   5.315   1.873  0.4404 -0.4003 -0.7647
  783MOL0     C 3252   8.184   5.278   1.920  0.9446 -0.0337 -0.0139
  783MOL0     C 3253   8.066   5.373   1.908  0.0321 -0.2356 -0.4828
  783MOL0     O 3254   8.092   5.490   1.834  0.1372  0.3023 -0.1339
  783MOL0     C 3255   7.991   5.590   1.831 -0.8479  0.5826 -0.8451
  783MOL0     C 3256   7.893   5.595   1.736  0.1234  0.5941 -0.2203
  783MOL0     C 3257   7.803   5.702   1.737  0.0119  1.1840 -0.4976
  783MOL0     C 3258   7.796   5.796   1.839  0.3564  0.3522  0.2486
  783MOL0     O 3259   7.703   5.894   1.854 -0.9956 -0.5415 -0.2888
  783MOL0     C 3260   7.620   5.925   1.745  0.6646  0.1756 -0.3132
  783MOL0     C 3261   7.493   5.841   1.736  0.9725 -0.5878  0.3780
  783MOL0     C 3262   7.415   5.866   1.614  0.6302  0.3648 -1.0181
  783MOL0     C 3263   7.270   5.827   1.634 -0.3131  0.0618  0.2573
  783MOL0     C 3264   7.201   5.816   1.497 -0.0347  0.5733  0.3282
  783MOL0     C 3265   7.067   5.746   1.515 -0.0261 -0.1939 -0.2708
  783MOL0     C 3266   6.990   5.731   1.385  0.2686 -0.4878 -0.7210
  783MOL0     C 3267   7.029   5.608   1.311 -0.4015  0.4794  0.5653
  783MOL0    Cl 3268   6.893   5.555   1.199 -0.3299 -0.5315  0.1341
  783MOL0     C 3269   7.880   5.775   1.947 -0.2457 -0.8800  0.4269
  783MOL0     C 3270   7.976   5.677   1.944 -0.9119 -0.5298 -0.5237
  783MOL0     O 3271   7.954   5.346   1.956 -0.7014 -0.4811  0.1590
  783MOL0     C 3272   8.170   5.143   1.979 -0.5296 -0.3348 -0.3754
  783MOL0     C 3273   8.276   5.051   1.995  0.1628 -0.2686 -0.1505
  783MOL0     N 3274   8.828   4.438   2.000 -0.4261  0.1489  0.1148
  783MOL0     N 3275   8.824   4.316   1.961 -0.7129 -0.8448 -0.0509
  783MOL0     C 3276   9.112   3.627   1.136  0.4868 -0.1463 -0.6147
  783MOL0     C 3277   9.222   3.688   1.070  0.6248  0.3161 -0.4081
  783MOL0     C 3278   9.580   3.823   0.905 -0.6632 -1.0604  0.0949
  783MOL0     C 3279   9.682   3.754   0.840 -0.8171  1.1473 -0.3967
  783MOL0     C 3280   9.773   3.821   0.761  0.2957 -0.3239  0.3846
  783MOL0     C 3281   9.755   3.956   0.735  0.0092 -0.5439  0.8954
  783MOL0     O 3282   9.842   4.007   0.639  0.4185  0.5398  0.2103
  783MOL0     C 3283   9.873   4.145   0.650  0.1037  0.1188 -0.1120
  783MOL0     C 3284  10.009   4.177   0.584 -0.3187 -0.0247 -0.4092
  783MOL0     C 3285  10.119   4.083   0.636  0.1206 -0.4156 -0.3763
  783MOL0     C 3286  10.267   4.126   0.605  0.7043 -0.2571  0.5366
  783MOL0     C 3287  10.358   4.014   0.615 -0.5532 -0.4784  0.6571
  783MOL0     C 3288  10.414   3.899   0.604  0.4957 -0.4216 -0.0297
  783MOL0     C 3289   9.654   4.028   0.798 -0.5969 -0.2848  0.5736
  783MOL0     C 3290   9.560   3.966   0.885  0.0523  0.6263  0.2324
  783MOL0     H 3291   9.349   3.859   1.336  0.0019  1.4812  0.2542
  783MOL0     H 3292   9.157   3.751   1.445  0.3326 -4.1387  0.4063
  783MOL0     H 3293   8.993   3.680   1.533  1.4959 -4.1512  1.2594
  783MOL0     H 3294   8.873   3.555   1.497 -0.1089 -3.9305 -5.4455
  783MOL0     H 3295   8.759   3.724   1.346 -1.2051 -3.6222  2.8442
  783MOL0     H 3296   8.890   3.844   1.390  3.2908 -2.0913 -0.9277
  783MOL0     H 3297   8.801   3.783   1.641 -0.9070  1.1910  1.3123
  783MOL0     H 3298   8.663   3.715   1.548 -0.5046  0.2704 -4.7223
  783MOL0     H 3299   8.749   4.012   1.549  1.1473  0.0928 -3.5775
  783MOL0     H 3300   8.636   3.944   1.434 -1.7474 -2.0881 -0.4125
  783MOL0     H 3301   8.492   3.846   1.613 -1.8408 -0.1292  0.7847
  783MOL0     H 3302   8.487   4.020   1.594  0.2657 -0.8163  0.1152
  783MOL0     H 3303   8.633   3.876   1.808 -1.1967 -1.1849  0.7594
  783MOL0     H 3304   8.465   3.930   1.832  1.4735  0.2876  2.3144
  783MOL0     H 3305   8.708   4.116   1.748 -1.2649  0.5808 -0.4457
  783MOL0     H 3306   8.547   4.173   1.773 -2.8754 -2.2958  2.2005
  783MOL0     H 3307   8.754   4.072   1.974  1.3055  1.1101 -0.1169
  783MOL0     H 3308   8.586   4.107   2.013 -0.0067  1.5713 -0.1689
  783MOL0     H 3309   8.506   4.387   1.975  0.0967 -1.4951  0.5797
  783MOL0     H 3310   8.701   4.664   2.138  2.5561 -1.3956 -0.0342
  783MOL0     H 3311   8.537   4.635   2.048 -0.5587  0.9244  1.0224
  783MOL0     H 3312   8.652   4.693   1.843  3.1096  0.5867 -1.7592
  783MOL0     H 3313   8.806   4.701   1.920  0.0946  0.1926  1.0961
  783MOL0     H 3314   8.695   4.885   2.061  1.3549 -1.1348 -0.4873
  783MOL0     H 3315   8.712   4.936   1.894  2.3339 -0.6571 -0.5482
  783MOL0     H 3316   8.462   4.843   2.027  0.6570  0.1689 -0.5093
  783MOL0     H 3317   8.483   4.874   1.849  0.1264  1.6813 -1.5632
  783MOL0     H 3318   8.506   5.253   1.853  0.0258 -1.1795 -2.7289
  783MOL0     H 3319   8.327   5.409   1.822 -0.0191  0.6002  0.8031
  783MOL0     H 3320   7.875   5.522   1.657 -0.7313  1.7391 -1.1085
  783MOL0     H 3321   7.721   5.683   1.669  0.5862  0.4698 -1.0234
  783MOL0     H 3322   7.669   5.929   1.647 -2.5176 -2.7558 -2.2565
  783MOL0     H 3323   7.586   6.029   1.755  1.0913  0.3078 -0.2342
  783MOL0     H 3324   7.441   5.855   1.831 -0.1126  1.0410 -0.4130
  783MOL0     H 3325   7.517   5.734   1.741  2.8570 -0.1539  1.4600
  783MOL0     H 3326   7.459   5.796   1.542 -1.3359 -1.6026 -0.4401
  783MOL0     H 3327   7.414   5.973   1.593 -0.6398  0.6321  0.2728
  783MOL0     H 3328   7.266   5.728   1.680  0.7856 -0.1573 -0.0794
  783MOL0     H 3329   7.218   5.908   1.685 -0.4836  0.8223 -1.0819
  783MOL0     H 3330   7.261   5.756   1.429 -0.9151  0.5377 -0.4457
  783MOL0     H 3331   7.196   5.915   1.452 -0.2752  0.3617 -0.1083
  783MOL0     H 3332   7.000   5.795   1.587  0.5968  2.8613 -1.6230
  783MOL0     H 3333   7.082   5.644   1.549 -2.2218  0.0551  1.7181
  783MOL0     H 3334   6.883   5.728   1.406 -0.0103 -0.4732 -2.0551
  783MOL0     H 3335   7.007   5.825   1.332  0.0598 -0.7881 -1.3196
  783MOL0     H 3336   7.040   5.520   1.375 -1.4663 -0.9023 -1.0980
  783MOL0     H 3337   7.120   5.628   1.254 -0.1630  3.0081  1.6794
  783MOL0     H 3338   7.885   5.839   2.035 -1.1104 -2.0405  1.3582
  783MOL0     H 3339   8.038   5.659   2.031 -1.3377 -0.4692 -0.2030
  783MOL0     H 3340   8.074   5.122   2.024 -0.6317 -1.6941 -1.1923
  783MOL0     H 3341   8.264   4.956   2.046  0.9717 -1.3568 -1.8783
  783MOL0     H 3342   9.050   3.554   1.085 -0.2149 -1.2004  1.6573
  783MOL0     H 3343   9.254   3.665   0.969  1.2755  3.5604 -1.0498
  783MOL0     H 3344   9.701   3.648   0.854 -1.0378  1.0324 -0.9342
  783MOL0     H 3345   9.853   3.779   0.701  0.8189  0.3310  0.6084
  783MOL0     H 3346   9.872   4.169   0.757 -3.0368 -1.3569  0.2924
  783MOL0     H 3347   9.800   4.215   0.609  1.6610  1.8230 -0.0958
  783MOL0     H 3348   9.994   4.167   0.476  0.8684 -0.2755 -0.5629
  783MOL0     H 3349  10.037   4.281   0.605 -0.4564  0.8849 -4.1663
  783MOL0     H 3350  10.094   3.991   0.584 -1.6176  2.5364 -5.5179
  783MOL0     H 3351  10.107   4.073   0.745 -1.2118  0.6526 -0.3963
  783MOL0     H 3352  10.267   4.161   0.501  0.0165 -1.4270  0.1286
  783MOL0     H 3353  10.297   4.207   0.673  1.2645  1.7640 -1.9558
  783MOL0     H 3354  10.462   3.803   0.607  1.0119 -0.1980  3.2608
  783MOL0     H 3355   9.646   4.136   0.792 -1.5623 -0.4055 -0.9671
  783MOL0     H 3356   9.477   4.026   0.919 -0.4650  0.7014 -1.0979
  784MOL0     O 3357  11.177   4.426   6.337  0.3193 -0.0676  0.5200
  784MOL0     C 3358  11.214   4.436   6.222  0.6415  0.4649  1.0620
  784MOL0     O 3359  11.145   4.420   6.101 -0.4186 -0.2122  0.4361
  784MOL0     C 3360  11.005   4.404   6.109 -0.2716 -0.4033  0.1207
  784MOL0     C 3361  10.941   4.358   5.990  0.2314 -0.2548  0.4245
  784MOL0     C 3362  10.804   4.337   5.977  0.2830 -0.1035 -0.3586
  784MOL0     C 3363  10.726   4.373   6.092 -0.3297 -0.2155 -0.5990
  784MOL0     O 3364  10.596   4.326   6.108 -0.1892 -0.9274 -0.5869
  784MOL0     C 3365  10.517   4.277   5.998  0.1580 -0.2161  0.0545
  784MOL0     C 3366  10.368   4.335   6.022  0.1877 -0.5644  1.0173
  784MOL0     C 3367  10.365   4.488   6.039  0.1541  0.4567  0.6341
  784MOL0     C 3368  10.217   4.542   6.022  0.2076 -0.5028  0.1697
  784MOL0     C 3369  10.207   4.691   6.019  0.4820 -0.5872  0.2857
  784MOL0     C 3370  10.060   4.721   5.999  0.2833  0.0995 -0.9627
  784MOL0     C 3371  10.041   4.872   6.021 -0.1108 -0.4537 -0.7189
  784MOL0     C 3372   9.890   4.900   6.011 -0.4282  0.3997 -0.4016
  784MOL0     N 3373   9.803   4.849   6.121 -1.5774  0.5406  0.5175
  784MOL0     C 3374   9.786   4.912   6.248  1.0254 -0.2890  0.2010
  784MOL0     C 3375   9.654   4.879   6.284  0.1571 -0.1809 -0.7099
  784MOL0     C 3376   9.586   4.932   6.404  0.6206 -0.4989 -0.1408
  784MOL0     C 3377   9.628   4.862   6.539 -0.5880  1.0771  0.0518
  784MOL0     C 3378   9.542   4.740   6.579 -0.2266  0.2572  0.3523
  784MOL0     C 3379   9.595   4.673   6.703  0.4099  0.2458 -0.6429
  784MOL0     O 3380   9.634   4.774   6.796 -0.5045  0.7717  0.4417
  784MOL0     C 3381   9.768   4.769   6.848 -0.5022 -0.7620  0.1214
  784MOL0     C 3382   9.819   4.882   6.914 -0.4375 -0.6767  0.1868
  784MOL0     C 3383   9.943   4.887   6.966 -1.3576 -0.2732 -0.3065
  784MOL0     C 3384  10.026   4.777   6.955 -0.8108  0.2326 -0.1830
  784MOL0     C 3385  10.165   4.787   7.004 -0.8570 -1.4344 -0.5535
  784MOL0     O 3386  10.240   4.680   6.998 -0.1854  0.4087  0.1399
  784MOL0     C 3387  10.342   4.679   7.094  0.5974  0.2616  0.7630
  784MOL0     C 3388  10.323   4.730   7.223 -0.1806 -0.2229 -0.4404
  784MOL0     C 3389  10.404   4.710   7.330 -0.8860  0.4292  0.2383
  784MOL0     C 3390  10.515   4.622   7.311 -0.3587 -0.4449  0.0577
  784MOL0     O 3391  10.603   4.626   7.420  0.3052 -0.2396  0.9914
  784MOL0     C 3392  10.691   4.511   7.430  0.1735  0.3860  0.7780
  784MOL0     C 3393  10.757   4.513   7.572  0.4438  0.2749  0.0273
  784MOL0     C 3394  10.876   4.410   7.580 -0.1704  0.1013  0.4584
  784MOL0     C 3395  10.941   4.431   7.722  0.2879 -0.0067  0.5448
  784MOL0     C 3396  11.078   4.368   7.738  0.7885  0.1327 -0.2266
  784MOL0     C 3397  11.056   4.218   7.761 -0.4244  1.3084  0.4688
  784MOL0     C 3398  11.201   4.173   7.778  0.2775  0.1892 -0.2237
  784MOL0     C 3399  11.210   4.027   7.817 -0.3260  1.0808 -1.0338
  784MOL0    Cl 3400  11.109   3.930   7.702 -0.0864  0.4776 -0.1115
  784MOL0     C 3401  10.535   4.567   7.179 -0.5229 -0.2805 -0.3520
  784MOL0     C 3402  10.457   4.604   7.067 -0.1138  0.5429 -0.4731
  784MOL0     O 3403  10.199   4.899   7.060 -0.0997  0.8818  0.5174
  784MOL0     C 3404   9.983   4.664   6.892 -0.3442  0.4781  0.9620
  784MOL0     C 3405   9.851   4.660   6.843  0.1888  1.0311 -0.4699
  784MOL0     N 3406   9.599   4.807   6.189 -0.7375  0.1757  0.9577
  784MOL0     N 3407   9.687   4.778   6.098 -0.3845  0.0133 -0.0002
  784MOL0     C 3408  10.786   4.423   6.212  0.1394 -0.7306  0.0598
  784MOL0     C 3409  10.922   4.440   6.214  0.4967 -1.6618 -0.0766
  784MOL0     C 3410  11.361   4.473   6.215  0.0317 -0.4119  0.0280
  784MOL0     C 3411  11.434   4.482   6.101 -0.3370  0.0999 -0.2086
  784MOL0     C 3412  11.575   4.502   6.105 -0.1528  0.9622  0.2190
  784MOL0     C 3413  11.638   4.541   6.223 -1.1371  0.2310 -0.9485
  784MOL0     O 3414  11.771   4.565   6.215 -0.2321  0.1118 -0.4275
  784MOL0     C 3415  11.855   4.609   6.323 -0.5572 -0.0254  0.0214
  784MOL0     C 3416  11.925   4.483   6.369 -0.3977  0.8245 -0.2082
  784MOL0     C 3417  12.018   4.427   6.251  1.6308 -0.0715  0.0744
  784MOL0     C 3418  12.089   4.300   6.289  1.3344  1.0359  0.0810
  784MOL0     C 3419  12.191   4.333   6.389 -0.2309 -0.5567  0.9614
  784MOL0     C 3420  12.293   4.345   6.452  0.8486  0.2636  0.0057
  784MOL0     C 3421  11.563   4.548   6.344  0.4142 -0.7367  0.8509
  784MOL0     C 3422  11.424   4.509   6.333 -0.6210 -1.2900 -0.0579
  784MOL0     H 3423  11.000   4.327   5.904  1.5585  0.3694  1.0858
  784MOL0     H 3424  10.756   4.306   5.885  0.8891  0.6951 -0.9615
  784MOL0     H 3425  10.526   4.169   6.010 -1.7103 -0.5247 -0.9680
  784MOL0     H 3426  10.559   4.313   5.904 -1.4364  0.9795 -0.2343
  784MOL0     H 3427  10.304   4.289   6.098 -2.1779  1.4037  0.3400
  784MOL0     H 3428  10.325   4.309   5.925  1.2060 -3.8893  1.3419
  784MOL0     H 3429  10.426   4.534   5.960 -2.0556  0.0595 -1.4044
  784MOL0     H 3430  10.396   4.520   6.139  1.7948  2.0601 -0.3270
  784MOL0     H 3431  10.174   4.487   5.938 -0.0796 -0.7235  0.4586
  784MOL0     H 3432  10.165   4.504   6.111 -0.2301 -0.4497 -0.0613
  784MOL0     H 3433  10.257   4.732   5.930 -2.3738 -0.5690 -1.4278
  784MOL0     H 3434  10.258   4.729   6.109 -2.0099  2.4560  0.5821
  784MOL0     H 3435  10.010   4.652   6.068  2.6778 -0.0378  0.7564
  784MOL0     H 3436  10.032   4.701   5.895  0.1613 -0.0890 -0.8937
  784MOL0     H 3437  10.075   4.909   6.118 -2.5128  3.7755 -1.2391
  784MOL0     H 3438  10.083   4.942   5.948 -0.9459  1.0310  0.1633
  784MOL0     H 3439   9.864   4.853   5.916  1.6539 -1.0830 -0.2998
  784MOL0     H 3440   9.866   5.007   6.009 -0.1999  0.4515 -0.4694
  784MOL0     H 3441   9.848   4.986   6.296 -1.7603  0.4186  3.0180
  784MOL0     H 3442   9.477   4.931   6.394  0.4503 -1.1712  1.5265
  784MOL0     H 3443   9.621   5.035   6.419 -0.9754  0.5101 -2.6775
  784MOL0     H 3444   9.625   4.943   6.613  0.9141  2.0933 -0.9389
  784MOL0     H 3445   9.725   4.812   6.542 -1.6656 -1.1073  1.2249
  784MOL0     H 3446   9.440   4.774   6.595 -0.2290  1.5953 -2.0315
  784MOL0     H 3447   9.539   4.664   6.500  1.2779  0.1739  0.3383
  784MOL0     H 3448   9.692   4.632   6.674  0.8116 -0.4339  1.5006
  784MOL0     H 3449   9.533   4.593   6.745  2.0569 -2.6864 -3.3746
  784MOL0     H 3450   9.764   4.976   6.913 -1.7543 -1.3989  1.0376
  784MOL0     H 3451   9.978   4.970   7.026  1.4320  0.8386 -3.1702
  784MOL0     H 3452  10.238   4.792   7.250 -0.2614  0.1749 -1.5619
  784MOL0     H 3453  10.386   4.752   7.428  0.0132  0.1000  0.5644
  784MOL0     H 3454  10.767   4.527   7.353  0.7878  0.2448  1.3471
  784MOL0     H 3455  10.639   4.417   7.407  0.1342  1.2490 -3.3451
  784MOL0     H 3456  10.683   4.482   7.647  2.0834 -3.0740  0.4339
  784MOL0     H 3457  10.797   4.609   7.604  3.4178  0.2600 -3.0926
  784MOL0     H 3458  10.945   4.429   7.497  0.6746  1.0074  1.3327
  784MOL0     H 3459  10.845   4.306   7.566  1.5540 -0.3157 -0.4623
  784MOL0     H 3460  10.949   4.536   7.751 -1.8296 -0.4655  3.2878
  784MOL0     H 3461  10.875   4.400   7.804  1.6543 -0.7815  1.3820
  784MOL0     H 3462  11.126   4.413   7.826 -1.0796 -0.9126  1.4310
  784MOL0     H 3463  11.142   4.381   7.651 -0.7315  2.6264 -1.1050
  784MOL0     H 3464  11.025   4.170   7.667  2.3189  1.4342 -0.5877
  784MOL0     H 3465  10.994   4.197   7.849 -0.7370  0.2900  0.0250
  784MOL0     H 3466  11.255   4.193   7.684  0.6040  1.7236  0.2650
  784MOL0     H 3467  11.255   4.225   7.858 -1.0189 -2.0625  2.2617
  784MOL0     H 3468  11.186   4.010   7.922  2.1575  0.6292 -0.4647
  784MOL0     H 3469  11.313   3.990   7.816 -1.2419 -1.6790 -0.3812
  784MOL0     H 3470  10.622   4.505   7.162 -0.6387 -0.2815 -0.9652
  784MOL0     H 3471  10.476   4.557   6.972 -1.6446  1.0938 -1.0910
  784MOL0     H 3472  10.051   4.581   6.877  1.3521  2.1303 -1.1000
  784MOL0     H 3473   9.831   4.558   6.813  1.9504  0.6476 -0.4299
  784MOL0     H 3474  10.727   4.458   6.296  4.0213  2.3606  1.8467
  784MOL0     H 3475  10.964   4.488   6.303  0.9877 -0.5495 -0.8816
  784MOL0     H 3476  11.394   4.459   6.002  1.5242  2.4157 -1.6081
  784MOL0     H 3477  11.629   4.499   6.011  0.7084 -0.5266  0.7250
  784MOL0     H 3478  11.815   4.660   6.411 -0.3154 -1.1825  0.8264
  784MOL0     H 3479  11.928   4.678   6.281 -0.3125  0.9144  1.9133
  784MOL0     H 3480  11.983   4.521   6.453 -0.3782  2.2545 -0.8360
  784MOL0     H 3481  11.861   4.400   6.402  2.3936 -0.4881  2.3383
  784MOL0     H 3482  12.086   4.506   6.216  0.9052 -0.6447 -2.8131
  784MOL0     H 3483  11.958   4.400   6.165 -0.8340 -0.8807  1.9350
  784MOL0     H 3484  12.026   4.219   6.325  3.1555 -0.4033  0.1588
  784MOL0     H 3485  12.141   4.251   6.205  2.0553  2.6946 -0.4936
  784MOL0     H 3486  12.383   4.354   6.510  0.1896  0.7201  0.9869
  784MOL0     H 3487  11.618   4.589   6.429  2.2047 -2.6241  0.6943
  784MOL0     H 3488  11.382   4.508   6.433 -1.5612 -2.2541 -0.4354
  785MOL0     O 3489   7.318   6.715   3.671  0.3156 -0.1189 -0.1671
  785MOL0     C 3490   7.401   6.675   3.749  1.0358  0.8064  0.4613
  785MOL0     O 3491   7.426   6.544   3.773  0.1068  0.0965 -0.6439
  785MOL0     C 3492   7.339   6.443   3.725  0.1647 -0.1880  0.9700
  785MOL0     C 3493   7.319   6.441   3.580 -0.8138  0.6933  0.0743
  785MOL0     C 3494   7.272   6.329   3.519  0.1115 -0.0074  0.9642
  785MOL0     C 3495   7.220   6.227   3.600 -0.6390 -0.7484  0.4576
  785MOL0     O 3496   7.143   6.138   3.521 -0.4031 -0.1765  0.4648
  785MOL0     C 3497   7.076   6.035   3.587  0.7139 -0.0251 -1.0593
  785MOL0     C 3498   6.963   5.979   3.505 -0.1013 -0.6348  0.6732
  785MOL0     C 3499   6.942   6.002   3.354 -0.5504 -0.0469 -0.1953
  785MOL0     C 3500   6.843   5.916   3.289 -0.8826 -1.0459  0.4984
  785MOL0     C 3501   6.893   5.775   3.279 -0.1123 -0.0822  0.1265
  785MOL0     C 3502   6.791   5.696   3.195  0.1525 -0.0911  1.1656
  785MOL0     C 3503   6.827   5.549   3.201 -0.4668  0.5883  0.3404
  785MOL0     C 3504   6.766   5.473   3.079  0.9974 -0.7111  0.1122
  785MOL0     N 3505   6.630   5.518   3.054  0.6556 -1.2554 -0.2835
  785MOL0     C 3506   6.571   5.584   2.952 -0.2178 -0.7673 -0.1724
  785MOL0     C 3507   6.441   5.610   2.986 -0.5746 -0.1864 -0.4480
  785MOL0     C 3508   6.329   5.677   2.906 -0.0401 -0.2362  0.7758
  785MOL0     C 3509   6.295   5.819   2.959  0.4558  0.0878 -0.1632
  785MOL0     C 3510   6.151   5.860   2.918 -1.2734 -0.0177  0.4811
  785MOL0     C 3511   6.132   5.890   2.768  0.1643  0.6357  0.1095
  785MOL0     O 3512   6.002   5.951   2.737 -0.2167  0.5214 -0.4690
  785MOL0     C 3513   5.967   5.961   2.604 -0.5786 -0.8034 -0.6304
  785MOL0     C 3514   5.851   6.037   2.580 -0.6073 -0.3702 -0.3695
  785MOL0     C 3515   5.802   6.053   2.456  1.2251 -0.0857 -0.5366
  785MOL0     C 3516   5.865   5.992   2.346 -0.6117 -0.2975 -1.0493
  785MOL0     C 3517   5.820   6.009   2.204  0.2098 -0.8380  0.0743
  785MOL0     O 3518   5.687   6.034   2.198  0.0522  0.7806 -0.0356
  785MOL0     C 3519   5.608   6.023   2.083  0.0800  1.3421  0.6728
  785MOL0     C 3520   5.621   5.923   1.977 -0.0066 -0.1009 -0.5201
  785MOL0     C 3521   5.548   5.923   1.854  0.2388 -0.3249 -0.1582
  785MOL0     C 3522   5.448   6.024   1.840 -1.4565 -0.6323  0.4662
  785MOL0     O 3523   5.375   6.046   1.724 -0.3715 -0.7362  0.0002
  785MOL0     C 3524   5.338   5.923   1.659 -1.0616 -0.1762 -1.0310
  785MOL0     C 3525   5.431   5.897   1.538  0.2592 -0.7145 -0.4300
  785MOL0     C 3526   5.393   5.769   1.460 -0.6575 -0.2692 -0.2515
  785MOL0     C 3527   5.453   5.643   1.522 -0.0638 -0.3673 -1.2217
  785MOL0     C 3528   5.613   5.643   1.539  0.7907  0.8604  0.1535
  785MOL0     C 3529   5.655   5.521   1.616 -0.1582  0.2446 -0.3427
  785MOL0     C 3530   5.804   5.506   1.639 -0.9258 -0.7291 -0.1963
  785MOL0     C 3531   5.888   5.628   1.657  0.2650 -0.4926 -0.1739
  785MOL0    Cl 3532   5.808   5.722   1.786 -0.2226  0.1863 -0.0593
  785MOL0     C 3533   5.431   6.115   1.941 -0.0125 -0.8102  0.4337
  785MOL0     C 3534   5.510   6.126   2.062 -1.0334  0.2149 -0.5330
  785MOL0     O 3535   5.900   6.019   2.115  0.3526 -0.4545  0.3560
  785MOL0     C 3536   5.989   5.931   2.361  0.6699 -1.2035  0.1358
  785MOL0     C 3537   6.039   5.908   2.490 -0.0510  0.3724 -0.8104
  785MOL0     N 3538   6.419   5.541   3.109  0.5334  0.1538 -0.2415
  785MOL0     N 3539   6.532   5.484   3.144 -0.7510 -0.1204  0.0804
  785MOL0     C 3540   7.230   6.226   3.738  0.3530 -0.6585 -0.1464
  785MOL0     C 3541   7.297   6.335   3.803 -0.0286  1.3629  0.3449
  785MOL0     C 3542   7.474   6.771   3.832  0.2549 -0.5065 -0.3000
  785MOL0     C 3543   7.505   6.903   3.784  0.2750 -0.2860  0.4763
  785MOL0     C 3544   7.554   6.992   3.876 -0.5100  0.1770 -0.0329
  785MOL0     C 3545   7.583   6.971   4.008  0.1877 -0.0167  0.6824
  785MOL0     O 3546   7.631   7.073   4.075 -0.0078 -0.3844  0.0215
  785MOL0     C 3547   7.661   7.082   4.217 -0.0584  0.3522  0.2553
  785MOL0     C 3548   7.526   7.099   4.284 -0.5617 -0.0080 -0.1509
  785MOL0     C 3549   7.444   7.227   4.231 -0.1904 -0.6240 -0.6671
  785MOL0     C 3550   7.530   7.356   4.262  0.9480  0.7285  0.3211
  785MOL0     C 3551   7.432   7.470   4.264  0.6456  0.0998 -0.8599
  785MOL0     C 3552   7.349   7.560   4.305 -0.1843 -0.1962  0.7770
  785MOL0     C 3553   7.560   6.844   4.047  0.0837 -0.2119 -0.7150
  785MOL0     C 3554   7.501   6.742   3.966 -0.8010 -0.3152 -0.0018
  785MOL0     H 3555   7.352   6.528   3.524  0.0962  0.2958 -0.0137
  785MOL0     H 3556   7.248   6.323   3.414  3.6340  0.7899 -0.0229
  785MOL0     H 3557   7.029   6.063   3.681  0.2830 -1.0780 -0.9442
  785MOL0     H 3558   7.142   5.956   3.622 -0.7622  0.7442  4.3227
  785MOL0     H 3559   6.872   6.026   3.543  0.6122 -0.0694  1.7354
  785MOL0     H 3560   6.959   5.871   3.525  0.1006 -1.3243 -2.4755
  785MOL0     H 3561   7.038   5.988   3.302 -1.3576 -1.4714 -1.3615
  785MOL0     H 3562   6.905   6.105   3.345 -0.2604  0.1175  0.3930
  785MOL0     H 3563   6.756   5.927   3.355 -0.0250  0.4682  1.4423
  785MOL0     H 3564   6.814   5.955   3.192 -0.4451  1.9383  1.4780
  785MOL0     H 3565   6.901   5.727   3.377 -0.5688 -1.1338 -0.3313
  785MOL0     H 3566   6.992   5.774   3.234  0.5790 -0.6917  1.5893
  785MOL0     H 3567   6.805   5.727   3.091  0.2659 -3.4414  0.0491
  785MOL0     H 3568   6.687   5.710   3.225 -0.8185  1.4555 -2.3423
  785MOL0     H 3569   6.936   5.542   3.202 -0.3121  1.6462 -1.9232
  785MOL0     H 3570   6.788   5.512   3.296  1.1063 -0.8377  0.4720
  785MOL0     H 3571   6.780   5.368   3.105 -4.0043 -1.6484 -0.0102
  785MOL0     H 3572   6.813   5.502   2.985  1.2571 -1.3474  0.0390
  785MOL0     H 3573   6.629   5.604   2.863  1.7052 -2.6035  0.5748
  785MOL0     H 3574   6.252   5.599   2.898  2.7568 -3.0499 -2.1659
  785MOL0     H 3575   6.349   5.685   2.798 -5.3137 -3.0027 -0.7675
  785MOL0     H 3576   6.359   5.906   2.939 -1.1862  1.8795  1.7993
  785MOL0     H 3577   6.294   5.816   3.069  2.1110 -3.6504 -0.1097
  785MOL0     H 3578   6.087   5.775   2.944 -2.1652  0.2371 -0.7449
  785MOL0     H 3579   6.123   5.947   2.978  0.5212  1.6573 -0.9564
  785MOL0     H 3580   6.137   5.802   2.703 -2.6602  1.3449 -1.2320
  785MOL0     H 3581   6.210   5.957   2.729 -1.8257  1.8082 -2.0986
  785MOL0     H 3582   5.800   6.071   2.670 -0.0626 -0.8534  0.1309
  785MOL0     H 3583   5.703   6.097   2.461  0.5203 -0.9137 -4.3936
  785MOL0     H 3584   5.710   5.862   1.981 -0.9586 -1.5356 -0.6271
  785MOL0     H 3585   5.571   5.844   1.783 -1.5318 -1.9189  0.9304
  785MOL0     H 3586   5.240   5.938   1.613 -1.1035  2.0367 -0.3126
  785MOL0     H 3587   5.341   5.839   1.729 -0.2830 -1.6685 -2.7894
  785MOL0     H 3588   5.536   5.915   1.562  0.5660 -3.9989  1.1618
  785MOL0     H 3589   5.415   5.986   1.476  0.1702  0.6450  1.4630
  785MOL0     H 3590   5.423   5.788   1.357  0.3749 -3.7190 -0.6954
  785MOL0     H 3591   5.283   5.769   1.460 -0.7271  2.1567 -0.1650
  785MOL0     H 3592   5.399   5.641   1.617  1.0552  0.3588 -0.5445
  785MOL0     H 3593   5.431   5.549   1.469  2.3546 -2.7216  1.5672
  785MOL0     H 3594   5.651   5.731   1.592 -0.8983  2.4956 -1.2128
  785MOL0     H 3595   5.657   5.638   1.439  1.9916  2.6220  0.5492
  785MOL0     H 3596   5.614   5.429   1.572 -2.9231 -0.3293  3.0159
  785MOL0     H 3597   5.596   5.532   1.708  0.0504 -1.4292  0.0185
  785MOL0     H 3598   5.823   5.450   1.732 -3.1386  2.0164  2.1005
  785MOL0     H 3599   5.844   5.444   1.558 -2.9870 -2.4118 -0.0141
  785MOL0     H 3600   5.909   5.686   1.566 -3.1288  1.2184 -0.0341
  785MOL0     H 3601   5.981   5.591   1.702 -0.5452 -0.8895  1.2196
  785MOL0     H 3602   5.357   6.194   1.942 -0.8647 -1.5545 -0.6079
  785MOL0     H 3603   5.487   6.203   2.134 -0.3407 -0.8983  0.9286
  785MOL0     H 3604   6.050   5.894   2.279  1.8221 -0.8039  0.7820
  785MOL0     H 3605   6.134   5.857   2.500 -1.7016 -2.5488  2.3380
  785MOL0     H 3606   7.194   6.146   3.802 -3.1707  0.9601  0.1490
  785MOL0     H 3607   7.336   6.332   3.904  2.3670 -0.3072 -0.5555
  785MOL0     H 3608   7.483   6.943   3.685  1.7688 -0.9164 -0.1304
  785MOL0     H 3609   7.585   7.091   3.844 -1.6705 -0.2724 -2.8513
  785MOL0     H 3610   7.725   7.170   4.228  0.8829 -0.1505 -0.9514
  785MOL0     H 3611   7.718   6.996   4.256  2.0346  1.3575 -0.4377
  785MOL0     H 3612   7.465   7.009   4.273  2.3271 -2.0812 -0.5170
  785MOL0     H 3613   7.552   7.102   4.391  0.8131  0.8929 -0.4768
  785MOL0     H 3614   7.347   7.229   4.282  1.3770 -1.9803  2.7053
  785MOL0     H 3615   7.422   7.216   4.125 -2.4098  0.0132 -0.3314
  785MOL0     H 3616   7.578   7.357   4.361  2.4080 -0.2746 -0.3444
  785MOL0     H 3617   7.615   7.364   4.193 -0.3017  1.3318 -1.2021
  785MOL0     H 3618   7.273   7.632   4.328  0.5578  0.6179  0.7389
  785MOL0     H 3619   7.586   6.830   4.152  2.0784  1.6805 -0.8893
  785MOL0     H 3620   7.456   6.654   4.012 -0.1551 -0.2574  0.7755
  786MOL0     O 3621   7.575   7.264   0.226  0.3785 -0.0208  0.6120
  786MOL0     C 3622   7.686   7.303   0.194 -0.0350  0.2929 -0.8453
  786MOL0     O 3623   7.752   7.244   0.087  0.0059 -0.4665 -0.8647
  786MOL0     C 3624   7.687   7.151   0.013  0.0218 -0.5463  0.0881
  786MOL0     C 3625   7.654   7.173  -0.123 -0.0002 -0.0984 -0.1722
  786MOL0     C 3626   7.589   7.070  -0.197 -1.1816 -0.4209  0.7725
  786MOL0     C 3627   7.569   6.940  -0.147  0.1093  0.4964 -0.1629
  786MOL0     O 3628   7.531   6.847  -0.232  0.9328 -0.1115 -0.3070
  786MOL0     C 3629   7.442   6.735  -0.187 -0.1425 -0.3532 -0.0685
  786MOL0     C 3630   7.382   6.654  -0.296  0.6910  0.1395  0.1866
  786MOL0     C 3631   7.481   6.573  -0.383  0.4004 -0.7450  0.2226
  786MOL0     C 3632   7.398   6.527  -0.501  0.0503 -0.4494  0.1720
  786MOL0     C 3633   7.491   6.463  -0.601 -0.0841 -0.6321 -0.1187
  786MOL0     C 3634   7.405   6.412  -0.730 -0.6778 -0.2096 -0.0191
  786MOL0     C 3635   7.300   6.312  -0.708  0.3726 -0.2246  0.3820
  786MOL0     C 3636   7.219   6.261  -0.825 -0.1888  0.0729  0.0371
  786MOL0     N 3637   7.148   6.136  -0.785  0.2181  0.2338 -0.4482
  786MOL0     C 3638   7.029   6.122  -0.713 -0.1231  0.8010 -0.4361
  786MOL0     C 3639   7.025   5.988  -0.684  0.6120 -0.7184  0.5676
  786MOL0     C 3640   6.907   5.925  -0.611 -0.3489  0.2048 -0.0835
  786MOL0     C 3641   6.786   5.880  -0.701  0.5964 -0.6011  1.1559
  786MOL0     C 3642   6.652   5.847  -0.630 -0.7845  0.7476 -0.7312
  786MOL0     C 3643   6.668   5.758  -0.505 -0.7872  0.9105  0.0652
  786MOL0     O 3644   6.543   5.732  -0.452 -0.2042  0.7790 -0.3703
  786MOL0     C 3645   6.517   5.642  -0.352 -0.2835 -0.2447  0.5440
  786MOL0     C 3646   6.602   5.540  -0.307 -0.8527 -0.8265 -0.1049
  786MOL0     C 3647   6.565   5.439  -0.220 -0.8262  0.6120 -1.1292
  786MOL0     C 3648   6.437   5.444  -0.165  0.5936  0.0360  0.6360
  786MOL0     C 3649   6.391   5.347  -0.068  0.2619  0.2859  0.6836
  786MOL0     O 3650   6.275   5.386   0.002  0.5578  0.1736 -0.6084
  786MOL0     C 3651   6.186   5.297   0.059  0.0594 -0.6219 -0.5145
  786MOL0     C 3652   6.173   5.162   0.028 -0.8304 -1.0649 -0.4768
  786MOL0     C 3653   6.075   5.092   0.107 -1.1497 -1.2675  0.7621
  786MOL0     C 3654   5.991   5.150   0.198 -0.5896 -0.5062 -0.3785
  786MOL0     O 3655   5.898   5.073   0.263  0.0092  0.5567  0.2174
  786MOL0     C 3656   5.798   5.016   0.169 -0.7424 -0.1842 -0.1859
  786MOL0     C 3657   5.679   4.969   0.243 -0.3545  0.1197  1.1055
  786MOL0     C 3658   5.569   4.922   0.147  0.2961  0.5227 -0.8252
  786MOL0     C 3659   5.503   5.046   0.076 -0.4168 -1.3116  0.4364
  786MOL0     C 3660   5.374   5.007   0.023  0.5319  0.1357  0.0088
  786MOL0     C 3661   5.294   5.121  -0.040  0.0692 -0.5275 -0.6361
  786MOL0     C 3662   5.353   5.187  -0.169 -0.2540  0.4499  0.2824
  786MOL0     C 3663   5.263   5.302  -0.227  0.4412  0.1264  0.0286
  786MOL0    Cl 3664   5.108   5.244  -0.277 -0.6219 -0.1174 -0.0271
  786MOL0     C 3665   5.997   5.281   0.221 -0.2205  0.2037 -0.3342
  786MOL0     C 3666   6.088   5.363   0.150 -0.7335  0.0366 -0.2240
  786MOL0     O 3667   6.447   5.240  -0.059 -0.4494 -0.5206  0.2331
  786MOL0     C 3668   6.347   5.546  -0.200 -0.1732 -0.7811  0.4660
  786MOL0     C 3669   6.391   5.635  -0.295 -0.2214  0.6539 -0.2595
  786MOL0     N 3670   7.120   5.920  -0.761  0.8469 -0.4612 -0.4496
  786MOL0     N 3671   7.201   6.016  -0.804  0.2763 -0.0025 -0.6522
  786MOL0     C 3672   7.592   6.924  -0.004 -0.6651  0.1075  0.4761
  786MOL0     C 3673   7.653   7.029   0.063 -0.0487 -0.5423 -0.7867
  786MOL0     C 3674   7.736   7.417   0.268  0.2504  0.1493 -0.1173
  786MOL0     C 3675   7.670   7.462   0.388  0.6777 -0.4473  0.3653
  786MOL0     C 3676   7.723   7.567   0.460 -0.1301 -1.0297  0.4295
  786MOL0     C 3677   7.841   7.631   0.415  0.6024 -0.1537 -0.8971
  786MOL0     O 3678   7.876   7.753   0.459 -0.1176 -0.2302 -0.4226
  786MOL0     C 3679   7.829   7.801   0.587  0.3194  0.3748 -0.2038
  786MOL0     C 3680   7.904   7.927   0.631 -0.6256  0.0932  0.7050
  786MOL0     C 3681   7.863   8.059   0.561 -0.8506  0.6718  0.1191
  786MOL0     C 3682   7.974   8.155   0.580 -0.3467 -1.0914 -0.0935
  786MOL0     C 3683   7.970   8.210   0.723 -0.0399  0.6982  0.2681
  786MOL0     C 3684   7.972   8.248   0.833  0.1601 -0.6876 -0.5042
  786MOL0     C 3685   7.904   7.585   0.303  0.5889  0.6695  0.4733
  786MOL0     C 3686   7.859   7.474   0.235  0.6198 -0.2311  0.4869
  786MOL0     H 3687   7.659   7.272  -0.167 -2.5867  1.3439  2.4491
  786MOL0     H 3688   7.555   7.096  -0.296 -0.0759  2.1717  1.0083
  786MOL0     H 3689   7.364   6.782  -0.126 -0.2455  2.5370 -2.2302
  786MOL0     H 3690   7.506   6.670  -0.127  0.6494  0.2620 -0.2293
  786MOL0     H 3691   7.325   6.718  -0.365  2.1518  0.8349 -0.4160
  786MOL0     H 3692   7.307   6.595  -0.242 -0.8017  0.5646 -1.3128
  786MOL0     H 3693   7.520   6.480  -0.341 -1.4864 -1.0647  1.3806
  786MOL0     H 3694   7.566   6.628  -0.425  0.3216 -2.2342 -2.0165
  786MOL0     H 3695   7.328   6.448  -0.473 -1.7973  1.3418  0.8926
  786MOL0     H 3696   7.349   6.610  -0.552  0.1604 -1.5588 -1.8551
  786MOL0     H 3697   7.550   6.375  -0.573 -1.3981 -1.1117  1.2892
  786MOL0     H 3698   7.560   6.541  -0.632 -0.3612  0.1229  1.0739
  786MOL0     H 3699   7.473   6.364  -0.801 -1.4475 -3.4087  1.2366
  786MOL0     H 3700   7.382   6.502  -0.787  2.8242 -0.7790 -2.5921
  786MOL0     H 3701   7.360   6.234  -0.660  2.6092  1.4377  0.4622
  786MOL0     H 3702   7.228   6.347  -0.633  1.6458 -0.8851  1.9879
  786MOL0     H 3703   7.274   6.242  -0.917  1.2316 -2.4557  1.2983
  786MOL0     H 3704   7.140   6.334  -0.847 -1.7583 -1.7399 -0.5706
  786MOL0     H 3705   6.960   6.199  -0.679 -1.9864 -1.8961  2.4334
  786MOL0     H 3706   6.876   5.990  -0.529  1.1206 -0.5764  1.1419
  786MOL0     H 3707   6.951   5.837  -0.564 -0.5875 -0.0171 -0.2750
  786MOL0     H 3708   6.822   5.795  -0.760 -2.1326 -0.2924 -1.1752
  786MOL0     H 3709   6.756   5.946  -0.783 -2.5074 -1.3344  1.5796
  786MOL0     H 3710   6.595   5.939  -0.612  0.1476  1.4581 -1.3265
  786MOL0     H 3711   6.602   5.786  -0.706  2.4590 -2.1358 -0.7816
  786MOL0     H 3712   6.719   5.830  -0.439  2.5523  2.3659 -3.6949
  786MOL0     H 3713   6.728   5.668  -0.522 -0.9343  0.8507 -0.1365
  786MOL0     H 3714   6.698   5.530  -0.357 -1.6909 -1.9439 -1.5362
  786MOL0     H 3715   6.629   5.352  -0.211 -1.1444  0.5639  1.1775
  786MOL0     H 3716   6.247   5.112  -0.034 -0.3527 -1.1920  0.1876
  786MOL0     H 3717   6.073   4.985   0.087  0.8430 -0.9596 -1.6793
  786MOL0     H 3718   5.851   4.929   0.129  2.7151 -0.0325  3.4446
  786MOL0     H 3719   5.778   5.082   0.084 -0.5170 -1.2522 -1.0925
  786MOL0     H 3720   5.629   5.039   0.312 -4.1623 -1.3607  0.1157
  786MOL0     H 3721   5.708   4.888   0.310 -1.1761 -0.2654  1.0049
  786MOL0     H 3722   5.504   4.862   0.211 -0.3063  1.0555 -0.9334
  786MOL0     H 3723   5.617   4.854   0.076  5.3217  0.3331  2.2591
  786MOL0     H 3724   5.476   5.122   0.150 -0.6301  1.5326 -2.3997
  786MOL0     H 3725   5.569   5.089   0.001  2.1128 -3.3297  1.3422
  786MOL0     H 3726   5.309   4.961   0.098  1.0501 -0.7059 -0.0378
  786MOL0     H 3727   5.386   4.937  -0.061 -2.9935  0.5154 -0.9718
  786MOL0     H 3728   5.300   5.204   0.032 -2.8670 -0.9442  0.2135
  786MOL0     H 3729   5.195   5.078  -0.056  1.2565 -3.9346  0.3686
  786MOL0     H 3730   5.446   5.236  -0.139 -0.3759  0.3324  0.8594
  786MOL0     H 3731   5.369   5.107  -0.242 -0.7729  0.6265 -0.0332
  786MOL0     H 3732   5.311   5.342  -0.317 -1.1561 -2.9457 -2.3666
  786MOL0     H 3733   5.250   5.372  -0.143 -2.5738  0.2892 -0.4616
  786MOL0     H 3734   5.936   5.331   0.295  2.0741  0.6265  1.3807
  786MOL0     H 3735   6.095   5.469   0.173  0.1191 -0.4688  2.0933
  786MOL0     H 3736   6.243   5.552  -0.170 -0.6959 -1.0507 -1.1934
  786MOL0     H 3737   6.322   5.705  -0.341  1.1970  3.2241  1.2985
  786MOL0     H 3738   7.568   6.825   0.034 -1.3958 -0.0521 -0.3622
  786MOL0     H 3739   7.664   7.004   0.169 -5.7244 -4.2712 -0.6681
  786MOL0     H 3740   7.577   7.414   0.416 -0.2249  0.8962 -0.1960
  786MOL0     H 3741   7.671   7.591   0.551  1.1002 -1.5570  1.2985
  786MOL0     H 3742   7.832   7.718   0.659 -1.4284  1.4845  1.2474
  786MOL0     H 3743   7.724   7.829   0.572 -0.0067 -1.3165 -1.3384
  786MOL0     H 3744   7.883   7.959   0.734  0.2422  4.9637 -0.3886
  786MOL0     H 3745   8.009   7.909   0.606 -1.4055 -1.6097 -1.6538
  786MOL0     H 3746   7.767   8.095   0.600 -1.2958  2.9127 -2.7145
  786MOL0     H 3747   7.834   8.040   0.457 -1.8144  0.5119  0.4057
  786MOL0     H 3748   8.074   8.115   0.561 -0.8853 -1.6478 -2.0486
  786MOL0     H 3749   7.957   8.239   0.511  2.5951 -1.2000 -1.0913
  786MOL0     H 3750   7.979   8.299   0.927 -3.2721  1.2350 -1.1277
  786MOL0     H 3751   7.990   7.635   0.261 -0.3827  0.1990 -2.2744
  786MOL0     H 3752   7.927   7.447   0.155  0.0541  1.9691 -0.8370
  787MOL0     O 3753   6.387   1.964  11.082 -0.1428  0.0064  0.0170
  787MOL0     C 3754   6.397   2.071  11.023  0.5766  0.7377 -0.4969
  787MOL0     O 3755   6.495   2.112  10.946 -0.2416  0.3740  0.7575
  787MOL0     C 3756   6.633   2.078  10.961  0.2423  1.0334  0.0601
  787MOL0     C 3757   6.675   2.034  11.091 -0.3194 -0.6710  0.1794
  787MOL0     C 3758   6.809   2.017  11.117 -0.0792  0.2075 -0.8635
  787MOL0     C 3759   6.900   2.029  11.016 -0.3706 -0.9930 -0.2926
  787MOL0     O 3760   7.031   2.012  11.034 -0.7151 -0.2942  0.0125
  787MOL0     C 3761   7.087   2.017  11.170  0.1381 -0.5548 -0.8319
  787MOL0     C 3762   7.241   2.044  11.171  0.5345 -0.2923 -1.0195
  787MOL0     C 3763   7.299   2.104  11.303 -0.8616 -0.2469 -0.7886
  787MOL0     C 3764   7.449   2.136  11.278 -0.5675 -0.7613 -0.0405
  787MOL0     C 3765   7.528   2.126  11.414 -0.1529 -0.8900  0.3659
  787MOL0     C 3766   7.675   2.096  11.373 -0.6325  0.5172  0.0044
  787MOL0     C 3767   7.768   2.118  11.487  0.3750  0.5160  0.7682
  787MOL0     C 3768   7.913   2.115  11.441 -0.0178 -0.6411 -0.7781
  787MOL0     N 3769   7.947   2.249  11.378  0.3597  0.2883  0.7756
  787MOL0     C 3770   7.983   2.364  11.441  0.2837 -0.2860 -0.6987
  787MOL0     C 3771   8.006   2.454  11.350 -0.4142 -0.2499 -0.2717
  787MOL0     C 3772   8.053   2.603  11.365 -0.0803  0.6611 -1.2332
  787MOL0     C 3773   8.204   2.616  11.336  0.2302  0.5845 -0.7763
  787MOL0     C 3774   8.246   2.761  11.362  0.2300 -0.4070  0.4102
  787MOL0     C 3775   8.390   2.790  11.315  0.1180  0.4799  0.3506
  787MOL0     O 3776   8.482   2.763  11.417  0.9191 -0.7829 -0.3603
  787MOL0     C 3777   8.600   2.829  11.409  0.6234 -0.2622  0.0325
  787MOL0     C 3778   8.666   2.846  11.537 -0.0687 -0.2701  0.4605
  787MOL0     C 3779   8.797   2.900  11.536  0.7894  0.4279 -1.0545
  787MOL0     C 3780   8.851   2.957  11.421  0.1504 -0.8931  0.1991
  787MOL0     C 3781   8.977   3.033  11.423  0.0476 -0.2159 -0.8941
  787MOL0     O 3782   9.055   3.019  11.527  0.6844 -0.2010 -0.3208
  787MOL0     C 3783   9.156   3.102  11.561 -0.7093 -0.6489 -0.0422
  787MOL0     C 3784   9.173   3.156  11.692  0.1281 -0.1163  0.0337
  787MOL0     C 3785   9.278   3.231  11.720  0.8481 -0.3690 -0.4629
  787MOL0     C 3786   9.382   3.257  11.630 -0.3999  0.8780 -0.1998
  787MOL0     O 3787   9.472   3.357  11.667  0.1462 -0.0873 -0.2153
  787MOL0     C 3788   9.608   3.313  11.639 -0.6625 -0.6586  0.2495
  787MOL0     C 3789   9.663   3.405  11.527  0.1365 -0.6790  0.2833
  787MOL0     C 3790   9.814   3.379  11.512 -0.0322  0.0839 -0.1690
  787MOL0     C 3791   9.874   3.419  11.375  0.7487 -0.3045  0.2520
  787MOL0     C 3792  10.023   3.449  11.395 -0.1382 -0.3714  1.4358
  787MOL0     C 3793  10.106   3.420  11.269 -0.1221  0.5971  0.7471
  787MOL0     C 3794  10.254   3.438  11.302  0.2040  1.7838 -0.2774
  787MOL0     C 3795  10.311   3.346  11.412  1.2246 -0.4407 -0.3751
  787MOL0    Cl 3796  10.473   3.370  11.440 -0.5697 -0.5383 -0.2490
  787MOL0     C 3797   9.356   3.227  11.496 -0.0218  0.3246 -0.2763
  787MOL0     C 3798   9.248   3.147  11.463 -0.2369  0.0496 -0.2515
  787MOL0     O 3799   8.976   3.131  11.353  0.1526 -0.1311  0.2395
  787MOL0     C 3800   8.777   2.944  11.300 -0.5825 -0.2825  0.0206
  787MOL0     C 3801   8.660   2.878  11.291  0.6344  0.7787 -0.3722
  787MOL0     N 3802   7.991   2.395  11.231 -0.3993 -0.1849 -0.5318
  787MOL0     N 3803   7.965   2.268  11.245  0.2502 -0.4211  0.3356
  787MOL0     C 3804   6.858   2.071  10.887  0.8037  0.5677 -0.3028
  787MOL0     C 3805   6.723   2.104  10.860 -0.6215  0.1542 -0.0384
  787MOL0     C 3806   6.272   2.158  11.021 -0.7770  0.1292 -0.7985
  787MOL0     C 3807   6.139   2.119  11.056  0.3507 -0.5392 -0.5251
  787MOL0     C 3808   6.042   2.204  11.058 -0.0096 -0.7671 -1.1973
  787MOL0     C 3809   6.045   2.335  11.015 -0.4022  0.0027 -0.1770
  787MOL0     O 3810   5.933   2.411  11.036 -1.0508  0.1549  0.3295
  787MOL0     C 3811   5.916   2.522  10.953  0.2160 -0.4665  0.2437
  787MOL0     C 3812   5.794   2.484  10.863  0.3409  0.2797 -0.1380
  787MOL0     C 3813   5.652   2.470  10.949 -0.5938  0.1112 -0.6489
  787MOL0     C 3814   5.546   2.422  10.852  0.5542 -0.0131  0.4569
  787MOL0     C 3815   5.413   2.461  10.898  0.1822 -0.7345  0.3311
  787MOL0     C 3816   5.310   2.493  10.945  0.3653 -0.8491  0.0614
  787MOL0     C 3817   6.179   2.383  10.988 -0.6382 -0.2271 -0.5565
  787MOL0     C 3818   6.283   2.294  10.999  0.4259  0.6328 -0.4159
  787MOL0     H 3819   6.606   2.028  11.174 -0.8504  0.9597 -0.1033
  787MOL0     H 3820   6.827   1.989  11.220 -3.8934 -1.1375 -0.3939
  787MOL0     H 3821   7.072   1.929  11.233  1.2971 -0.1980 -0.0315
  787MOL0     H 3822   7.035   2.101  11.217  2.7376  2.2761 -2.6060
  787MOL0     H 3823   7.265   2.112  11.089 -1.0880  1.6239 -0.0094
  787MOL0     H 3824   7.275   1.943  11.147 -0.7773 -0.8251 -0.7676
  787MOL0     H 3825   7.280   2.038  11.389 -0.1085  2.5657  1.7272
  787MOL0     H 3826   7.251   2.199  11.326  0.7775  0.4129  0.1193
  787MOL0     H 3827   7.481   2.060  11.206  0.2257  0.4679 -1.0184
  787MOL0     H 3828   7.465   2.232  11.228 -0.8470 -0.4170  0.5207
  787MOL0     H 3829   7.484   2.047  11.476 -1.2516 -1.0233 -0.5455
  787MOL0     H 3830   7.530   2.227  11.456 -1.0297 -0.1534 -1.2807
  787MOL0     H 3831   7.713   2.154  11.288  0.0979  0.3461  0.2085
  787MOL0     H 3832   7.680   1.991  11.345  0.5760 -0.0176  2.0209
  787MOL0     H 3833   7.746   2.218  11.526  0.3573  1.3609 -1.3117
  787MOL0     H 3834   7.741   2.042  11.562 -1.2739  0.0153 -0.2843
  787MOL0     H 3835   7.921   2.026  11.378 -0.8251  0.1167 -2.0157
  787MOL0     H 3836   7.975   2.104  11.530 -2.1551 -2.8945  0.5577
  787MOL0     H 3837   7.986   2.381  11.548  0.6867 -1.8927 -0.4326
  787MOL0     H 3838   8.039   2.637  11.468  1.6231  1.0185 -1.0894
  787MOL0     H 3839   7.992   2.666  11.300 -0.6654  1.3311 -0.0828
  787MOL0     H 3840   8.214   2.582  11.232 -0.3970 -0.9970 -0.3535
  787MOL0     H 3841   8.265   2.541  11.388 -1.4565  0.9899  2.0184
  787MOL0     H 3842   8.169   2.819  11.310 -1.4269  0.1364  3.2506
  787MOL0     H 3843   8.247   2.779  11.470 -0.1967  0.6261  0.2469
  787MOL0     H 3844   8.405   2.890  11.273  0.2452 -0.4815 -2.0641
  787MOL0     H 3845   8.406   2.724  11.230 -2.5393 -0.1211  0.2468
  787MOL0     H 3846   8.629   2.815  11.634 -0.6849  3.0571  1.3813
  787MOL0     H 3847   8.860   2.917  11.623  0.4864  1.6976 -1.0608
  787MOL0     H 3848   9.089   3.148  11.761 -1.2179  2.5286 -1.1663
  787MOL0     H 3849   9.276   3.271  11.821  4.4777 -2.3408  0.5980
  787MOL0     H 3850   9.610   3.209  11.607  0.8245 -0.5332 -0.1242
  787MOL0     H 3851   9.665   3.313  11.732 -1.0748 -1.8291  0.5232
  787MOL0     H 3852   9.637   3.508  11.551  0.2054  0.3965 -3.5921
  787MOL0     H 3853   9.602   3.395  11.436 -0.0765 -1.1992  0.4772
  787MOL0     H 3854   9.831   3.275  11.539  1.8994  0.9973  2.5515
  787MOL0     H 3855   9.876   3.432  11.585  1.9596 -3.4793  0.9236
  787MOL0     H 3856   9.868   3.339  11.301  1.6093  1.0144 -1.3090
  787MOL0     H 3857   9.823   3.506  11.332 -0.5492 -1.9460 -1.7173
  787MOL0     H 3858  10.050   3.369  11.464 -1.4990 -4.8213 -2.6294
  787MOL0     H 3859  10.043   3.552  11.429 -3.5532  0.4610  1.2917
  787MOL0     H 3860  10.070   3.489  11.193 -1.7038  1.1616  1.9689
  787MOL0     H 3861  10.095   3.320  11.226  0.3759 -0.1331  2.2410
  787MOL0     H 3862  10.304   3.408  11.209 -1.0712 -0.1165 -0.3902
  787MOL0     H 3863  10.275   3.540  11.337  1.2277  0.2458  4.1720
  787MOL0     H 3864  10.316   3.242  11.379  3.3668  0.3061 -2.7565
  787MOL0     H 3865  10.261   3.365  11.507  0.3301 -0.4959 -0.8200
  787MOL0     H 3866   9.406   3.273  11.411 -1.5096  2.0153 -0.2776
  787MOL0     H 3867   9.239   3.123  11.358  2.2142  2.9607 -1.2720
  787MOL0     H 3868   8.827   2.981  11.211  2.9184  0.3301  2.0642
  787MOL0     H 3869   8.630   2.871  11.187  2.3790  1.7930 -0.9898
  787MOL0     H 3870   6.939   2.071  10.815  2.3024  0.5176  1.3164
  787MOL0     H 3871   6.681   2.130  10.764 -2.3238 -0.8735  0.3759
  787MOL0     H 3872   6.122   2.016  11.085  1.7841 -0.7093 -0.2215
  787MOL0     H 3873   5.948   2.167  11.099  0.1262  0.4775  0.3196
  787MOL0     H 3874   5.997   2.556  10.887 -0.4593  0.9808  0.1133
  787MOL0     H 3875   5.892   2.602  11.024 -0.5342 -0.4271 -0.0502
  787MOL0     H 3876   5.791   2.560  10.784 -2.6220 -2.9934 -3.5171
  787MOL0     H 3877   5.804   2.392  10.805 -0.7755  1.3132 -2.0685
  787MOL0     H 3878   5.616   2.564  10.992 -0.0049  0.4998 -0.9843
  787MOL0     H 3879   5.688   2.401  11.026  1.0014  0.4922 -1.0034
  787MOL0     H 3880   5.562   2.471  10.756  0.4423  0.2687  0.5802
  787MOL0     H 3881   5.554   2.313  10.841  1.0328  0.1246 -0.7175
  787MOL0     H 3882   5.217   2.533  10.980  1.6681  1.9044  0.6505
  787MOL0     H 3883   6.184   2.490  10.968 -0.2654  0.3721  2.3871
  787MOL0     H 3884   6.380   2.338  10.977 -0.4321  2.6089 -0.4993
  788MOL0     O 3885   0.574   4.364   7.755 -0.2452 -0.5965  0.5311
  788MOL0     C 3886   0.585   4.290   7.654  1.4285  0.6479  0.1213
  788MOL0     O 3887   0.547   4.321   7.512 -0.5789  0.1738 -0.2773
  788MOL0     C 3888   0.502   4.442   7.472 -0.1774  0.0439  0.7221
  788MOL0     C 3889   0.421   4.522   7.551 -0.1076 -0.6894 -0.5763
  788MOL0     C 3890   0.369   4.637   7.493  0.2219  0.1877 -0.4999
  788MOL0     C 3891   0.402   4.670   7.358  0.0066  0.1688  0.4925
  788MOL0     O 3892   0.354   4.775   7.298 -0.8031 -0.6037  0.6996
  788MOL0     C 3893   0.228   4.844   7.340  0.1862  0.1421 -0.0586
  788MOL0     C 3894   0.207   4.980   7.276 -0.0075  0.2035 -0.0219
  788MOL0     C 3895   0.305   5.084   7.322  0.1521  0.3268  0.5941
  788MOL0     C 3896   0.247   5.219   7.270 -0.5986  0.6113  0.4129
  788MOL0     C 3897   0.320   5.335   7.337  0.0244  0.1270 -0.1476
  788MOL0     C 3898   0.305   5.462   7.255 -0.4544 -0.9760 -0.2667
  788MOL0     C 3899   0.379   5.561   7.335 -0.3723 -0.1306  0.1826
  788MOL0     C 3900   0.396   5.699   7.276 -0.7328  0.3523  0.3142
  788MOL0     N 3901   0.270   5.781   7.295  0.6487 -0.9971 -0.5729
  788MOL0     C 3902   0.193   5.844   7.192  0.0725 -0.7421 -0.6515
  788MOL0     C 3903   0.093   5.916   7.261  0.0175  0.4905  0.0750
  788MOL0     C 3904  -0.021   5.979   7.195 -0.4785  0.7256  1.1014
  788MOL0     C 3905  -0.097   5.882   7.107 -0.2356  0.8861 -0.0257
  788MOL0     C 3906  -0.199   5.960   7.022 -0.2828 -0.4318  0.0032
  788MOL0     C 3907  -0.323   5.874   6.986  0.1307 -1.2586  0.1790
  788MOL0     O 3908  -0.406   5.954   6.893  0.6357  0.2231 -0.1712
  788MOL0     C 3909  -0.519   5.893   6.857 -0.4803 -0.3493  0.0591
  788MOL0     C 3910  -0.575   5.781   6.922 -0.0595  0.4422 -0.5993
  788MOL0     C 3911  -0.701   5.725   6.891  0.7504 -0.6311 -0.2867
  788MOL0     C 3912  -0.773   5.793   6.784  0.1147 -0.3136  0.0813
  788MOL0     C 3913  -0.911   5.733   6.747 -0.4226  0.2069 -0.6619
  788MOL0     O 3914  -1.007   5.745   6.850  0.1874 -0.5195 -1.0729
  788MOL0     C 3915  -1.135   5.709   6.833 -0.5255 -0.3799  0.6577
  788MOL0     C 3916  -1.239   5.774   6.901 -0.2393 -0.8694  0.1793
  788MOL0     C 3917  -1.374   5.739   6.895 -0.2618  1.4589  0.6277
  788MOL0     C 3918  -1.413   5.631   6.808 -0.1894 -0.4838 -0.5853
  788MOL0     O 3919  -1.547   5.596   6.823 -0.1625 -0.2430 -0.1478
  788MOL0     C 3920  -1.585   5.458   6.826 -0.0167  0.8059  0.4633
  788MOL0     C 3921  -1.704   5.437   6.731 -0.5665 -0.6743  0.3470
  788MOL0     C 3922  -1.836   5.505   6.789 -0.4475  0.4191  0.0426
  788MOL0     C 3923  -1.936   5.534   6.675 -0.2141  0.3922 -0.6243
  788MOL0     C 3924  -2.060   5.611   6.731  0.5349 -0.5800 -0.1362
  788MOL0     C 3925  -2.164   5.514   6.800  0.0651  0.5362  0.0331
  788MOL0     C 3926  -2.143   5.521   6.953  0.7205 -0.0406 -0.8304
  788MOL0     C 3927  -2.234   5.614   7.028  0.4865 -0.1484 -0.9893
  788MOL0    Cl 3928  -2.410   5.580   7.008 -0.1183  0.0609 -0.5474
  788MOL0     C 3929  -1.313   5.558   6.738 -0.3492  0.3050  0.4060
  788MOL0     C 3930  -1.179   5.599   6.751 -0.2757  0.0393 -1.0069
  788MOL0     O 3931  -0.931   5.687   6.635  0.3266  0.3385 -0.7788
  788MOL0     C 3932  -0.715   5.875   6.699 -0.6715  0.1088 -0.5095
  788MOL0     C 3933  -0.595   5.937   6.740  0.2778 -0.9441 -0.1050
  788MOL0     N 3934   0.114   5.890   7.398 -0.7013 -0.2792  0.0232
  788MOL0     N 3935   0.213   5.810   7.418  0.5703  0.1283  1.4736
  788MOL0     C 3936   0.484   4.588   7.285  0.1159 -0.2309  0.5391
  788MOL0     C 3937   0.536   4.477   7.339 -0.7860  0.2776 -0.4154
  788MOL0     C 3938   0.637   4.152   7.685 -0.7023  0.4664  0.7857
  788MOL0     C 3939   0.710   4.082   7.579  0.0535 -0.2665 -0.0125
  788MOL0     C 3940   0.762   3.959   7.615 -0.7560  0.5603  0.1031
  788MOL0     C 3941   0.773   3.914   7.746  0.3694  0.0517 -0.7952
  788MOL0     O 3942   0.821   3.789   7.785 -0.0716  0.4850  0.6330
  788MOL0     C 3943   0.951   3.745   7.731  0.2556 -0.1887 -0.2250
  788MOL0     C 3944   0.945   3.605   7.669 -0.0964 -0.3072  0.0411
  788MOL0     C 3945   1.093   3.554   7.649 -0.5302 -0.8139  0.8269
  788MOL0     C 3946   1.099   3.496   7.512 -0.2097 -0.2616  0.2535
  788MOL0     C 3947   1.222   3.411   7.483  0.1535  0.0441  0.6290
  788MOL0     C 3948   1.313   3.336   7.471 -0.5019 -0.2782  0.1547
  788MOL0     C 3949   0.696   3.976   7.840  0.9582 -0.0405  0.6972
  788MOL0     C 3950   0.631   4.097   7.814  1.0070  0.4190  0.5179
  788MOL0     H 3951   0.386   4.497   7.651  0.8575  0.5767  0.1085
  788MOL0     H 3952   0.299   4.693   7.554 -3.6165 -3.4514 -1.1135
  788MOL0     H 3953   0.224   4.851   7.449  0.1840 -0.0597 -0.0453
  788MOL0     H 3954   0.141   4.783   7.314  0.8386  0.2549 -2.7880
  788MOL0     H 3955   0.103   5.011   7.290 -0.4727 -0.5666 -1.5341
  788MOL0     H 3956   0.210   4.972   7.167 -2.7354  1.4978 -0.2633
  788MOL0     H 3957   0.396   5.053   7.270  0.1927  1.6344 -0.1551
  788MOL0     H 3958   0.322   5.083   7.430  4.7999  1.9386  0.1317
  788MOL0     H 3959   0.264   5.235   7.163  1.1716 -0.9395  0.4030
  788MOL0     H 3960   0.139   5.230   7.282 -0.6186  0.2680  0.5609
  788MOL0     H 3961   0.424   5.310   7.358  0.1650 -0.2250 -1.1984
  788MOL0     H 3962   0.272   5.340   7.435 -3.3964 -1.7099 -1.5417
  788MOL0     H 3963   0.202   5.499   7.258  0.6334  3.0385  5.5104
  788MOL0     H 3964   0.346   5.445   7.155  0.3029 -2.5205  0.2714
  788MOL0     H 3965   0.319   5.590   7.422 -2.0060  1.1502 -1.3105
  788MOL0     H 3966   0.481   5.527   7.359 -0.6823 -0.8251  0.5510
  788MOL0     H 3967   0.426   5.688   7.171 -0.8723 -0.7233  0.3850
  788MOL0     H 3968   0.474   5.755   7.329  0.1804  0.2822 -0.9164
  788MOL0     H 3969   0.214   5.850   7.085 -1.5292 -1.0887 -1.0121
  788MOL0     H 3970   0.017   6.071   7.150  1.8463 -0.0089  1.4452
  788MOL0     H 3971  -0.089   6.022   7.270  0.6597  2.3267  1.2776
  788MOL0     H 3972  -0.143   5.801   7.164  0.0312 -0.1971 -1.2721
  788MOL0     H 3973  -0.032   5.824   7.039 -0.9264 -0.9061  0.7737
  788MOL0     H 3974  -0.227   6.047   7.082  0.8464 -0.6078  0.8152
  788MOL0     H 3975  -0.169   5.991   6.922 -1.4227  1.4372  0.1731
  788MOL0     H 3976  -0.383   5.838   7.070 -0.0150 -1.2980  0.0596
  788MOL0     H 3977  -0.306   5.781   6.931  0.8374 -0.0800 -1.6902
  788MOL0     H 3978  -0.536   5.728   7.009  1.1619  0.9665 -0.7978
  788MOL0     H 3979  -0.739   5.638   6.946 -0.2474  0.4152  0.7425
  788MOL0     H 3980  -1.200   5.850   6.967  0.3517 -2.3503  1.5989
  788MOL0     H 3981  -1.439   5.788   6.967  0.7747  0.7498  2.0911
  788MOL0     H 3982  -1.625   5.442   6.926 -2.6505 -2.8714 -0.9386
  788MOL0     H 3983  -1.506   5.394   6.785  2.1649  2.1060  2.4119
  788MOL0     H 3984  -1.717   5.332   6.705 -1.5445 -1.0381  2.1343
  788MOL0     H 3985  -1.685   5.483   6.633 -1.4613 -0.0723  0.4440
  788MOL0     H 3986  -1.810   5.605   6.826 -0.3458  0.6707 -0.6790
  788MOL0     H 3987  -1.876   5.438   6.865  0.9228  1.5814  1.8715
  788MOL0     H 3988  -1.895   5.597   6.596 -1.5444  0.4332 -1.3144
  788MOL0     H 3989  -1.974   5.435   6.647 -0.9019  0.9690 -1.8055
  788MOL0     H 3990  -2.100   5.662   6.643  2.2800  0.1997 -0.5212
  788MOL0     H 3991  -2.028   5.692   6.797  6.3887  0.0167 -3.0557
  788MOL0     H 3992  -2.132   5.414   6.768  2.1426  1.2364 -0.2273
  788MOL0     H 3993  -2.269   5.540   6.785  0.7273  4.8194  1.5579
  788MOL0     H 3994  -2.170   5.424   6.993 -1.5409 -0.4656 -3.0982
  788MOL0     H 3995  -2.040   5.548   6.978  0.2731  1.4115 -0.4252
  788MOL0     H 3996  -2.222   5.714   6.985  1.1319 -0.0939 -0.6926
  788MOL0     H 3997  -2.212   5.639   7.133  1.5739  0.9986 -1.4643
  788MOL0     H 3998  -1.346   5.475   6.677  2.1755 -1.9901  1.9735
  788MOL0     H 3999  -1.100   5.546   6.699 -2.1531 -1.2254 -2.7408
  788MOL0     H 4000  -0.775   5.904   6.613  2.0713  0.8712 -2.3169
  788MOL0     H 4001  -0.545   6.011   6.678  0.2668 -2.0057 -1.4270
  788MOL0     H 4002   0.516   4.632   7.191 -1.7749 -2.2650 -1.1742
  788MOL0     H 4003   0.611   4.421   7.285  1.5033  2.6925  0.0326
  788MOL0     H 4004   0.714   4.110   7.474 -1.2140 -0.2038 -0.0630
  788MOL0     H 4005   0.809   3.910   7.530 -0.2062  1.7133 -0.2837
  788MOL0     H 4006   1.022   3.759   7.813  0.3488  1.2183 -0.5190
  788MOL0     H 4007   0.992   3.808   7.652  0.6833  0.8751  0.8032
  788MOL0     H 4008   0.903   3.545   7.750 -1.1506  0.7257  0.2890
  788MOL0     H 4009   0.880   3.605   7.581  0.3302  0.2544 -0.2813
  788MOL0     H 4010   1.126   3.477   7.719 -0.7602 -2.1920 -0.5518
  788MOL0     H 4011   1.169   3.633   7.651  2.7607 -3.5527 -2.4672
  788MOL0     H 4012   1.017   3.429   7.487  0.3492 -0.6546 -0.5768
  788MOL0     H 4013   1.088   3.576   7.439 -0.2554 -0.5016 -0.0050
  788MOL0     H 4014   1.396   3.269   7.463 -0.6223 -0.3409 -0.6286
  788MOL0     H 4015   0.692   3.934   7.940  0.9490  1.1827  1.2223
  788MOL0     H 4016   0.573   4.157   7.884 -0.5094  0.8950 -1.0785
  789MOL0     O 4017   5.966   8.346   8.325 -0.3765 -0.7270  0.3460
  789MOL0     C 4018   6.002   8.335   8.204  0.3190  0.7244  0.2028
  789MOL0     O 4019   6.135   8.318   8.160 -0.2875 -0.8331 -0.3576
  789MOL0     C 4020   6.234   8.312   8.253 -0.6546  0.0955  0.3596
  789MOL0     C 4021   6.237   8.380   8.367 -0.7243 -0.5917 -0.9623
  789MOL0     C 4022   6.351   8.372   8.452  0.2751  0.3240  1.0909
  789MOL0     C 4023   6.456   8.294   8.419  0.8052  0.4221 -0.5750
  789MOL0     O 4024   6.543   8.277   8.516 -0.0006  0.1490  0.0168
  789MOL0     C 4025   6.665   8.207   8.478 -0.3936 -0.5792 -0.5034
  789MOL0     C 4026   6.770   8.214   8.585  0.9205  0.8133  0.1230
  789MOL0     C 4027   6.908   8.264   8.547 -0.6316 -0.4391  0.1524
  789MOL0     C 4028   6.914   8.421   8.535 -0.7740 -0.3109 -0.8096
  789MOL0     C 4029   7.061   8.473   8.518 -0.5237  0.4166 -0.1187
  789MOL0     C 4030   7.100   8.618   8.514  0.6057  0.1827 -1.3537
  789MOL0     C 4031   7.050   8.706   8.631  0.4066 -0.0537 -0.1167
  789MOL0     C 4032   7.129   8.668   8.753 -0.2294 -0.1304 -0.1535
  789MOL0     N 4033   7.067   8.749   8.862  0.2452 -1.1321 -0.0098
  789MOL0     C 4034   6.936   8.739   8.900 -0.5976 -0.5756 -0.0539
  789MOL0     C 4035   6.920   8.825   9.003 -0.4365  0.3338  0.8951
  789MOL0     C 4036   6.802   8.855   9.091  0.2675 -0.3047  0.1730
  789MOL0     C 4037   6.798   8.999   9.137  0.5730  0.1433  0.2292
  789MOL0     C 4038   6.751   9.106   9.032  0.1472  0.2042 -0.9054
  789MOL0     C 4039   6.817   9.123   8.895 -0.1687 -0.3077 -0.5907
  789MOL0     O 4040   6.754   9.066   8.778 -0.3902 -0.2582  0.4648
  789MOL0     C 4041   6.835   9.059   8.665  0.4028 -0.3043  0.1232
  789MOL0     C 4042   6.814   8.944   8.585  0.4080 -0.4239 -0.8890
  789MOL0     C 4043   6.892   8.942   8.466  0.1654 -0.4838 -0.0569
  789MOL0     C 4044   6.977   9.055   8.411 -0.6766  0.2378 -0.5159
  789MOL0     C 4045   7.069   9.047   8.289  1.1067 -0.3953  0.4956
  789MOL0     O 4046   7.073   9.166   8.213 -0.2530  0.2692  0.5787
  789MOL0     C 4047   7.176   9.180   8.122 -1.2353 -0.0700  0.0326
  789MOL0     C 4048   7.173   9.152   7.996  0.8391  0.6038  0.1623
  789MOL0     C 4049   7.275   9.167   7.911 -0.6841 -0.3759  0.9582
  789MOL0     C 4050   7.402   9.218   7.963 -0.1014  0.4560  0.2604
  789MOL0     O 4051   7.519   9.242   7.888 -0.0594 -0.0479  0.5579
  789MOL0     C 4052   7.517   9.233   7.751 -0.2431 -0.4299  0.7438
  789MOL0     C 4053   7.464   9.355   7.674 -0.8082  0.0146  0.4410
  789MOL0     C 4054   7.490   9.332   7.525 -0.1313 -0.4730 -0.1836
  789MOL0     C 4055   7.422   9.441   7.442  0.6585  0.6453  0.0409
  789MOL0     C 4056   7.498   9.432   7.308  0.3321 -0.9093 -0.5093
  789MOL0     C 4057   7.469   9.547   7.201  0.3383 -0.0286 -0.2498
  789MOL0     C 4058   7.568   9.527   7.080 -0.0139 -0.0687  0.0091
  789MOL0     C 4059   7.558   9.632   6.975 -0.5692 -0.2110  0.3844
  789MOL0    Cl 4060   7.403   9.619   6.890  0.2532  0.0246  0.0312
  789MOL0     C 4061   7.416   9.252   8.095 -0.1878  0.8866  0.5487
  789MOL0     C 4062   7.299   9.234   8.176 -0.2724 -0.0133  0.0367
  789MOL0     O 4063   7.126   8.947   8.266  0.5156  0.3787 -0.3972
  789MOL0     C 4064   6.978   9.165   8.495 -0.1941 -0.0553 -0.4666
  789MOL0     C 4065   6.914   9.170   8.616 -0.7238  0.0635  0.2671
  789MOL0     N 4066   7.045   8.882   9.031 -0.1708 -1.0015  0.0604
  789MOL0     N 4067   7.130   8.833   8.939  0.1833  0.4306 -0.3796
  789MOL0     C 4068   6.450   8.215   8.302  0.7462  0.3061 -0.1068
  789MOL0     C 4069   6.338   8.234   8.218 -0.8036  0.1582 -0.1171
  789MOL0     C 4070   5.895   8.357   8.100 -0.8066  0.0618 -0.0542
  789MOL0     C 4071   5.934   8.338   7.969  0.0701 -0.0952 -0.1966
  789MOL0     C 4072   5.842   8.346   7.862 -0.7145 -0.6373  0.1710
  789MOL0     C 4073   5.716   8.387   7.877  0.5667 -0.5510  0.0730
  789MOL0     O 4074   5.629   8.401   7.774 -0.2988 -0.5625 -0.3190
  789MOL0     C 4075   5.510   8.322   7.791  0.0272  0.4524  0.3607
  789MOL0     C 4076   5.431   8.325   7.656  0.3522 -0.4900 -0.3932
  789MOL0     C 4077   5.391   8.469   7.631 -0.5407 -0.0669  0.5833
  789MOL0     C 4078   5.308   8.487   7.505  0.1813  0.1807  0.2789
  789MOL0     C 4079   5.184   8.404   7.482 -1.1834 -0.8989  0.3252
  789MOL0     C 4080   5.081   8.353   7.449 -0.1477  0.2400 -0.0297
  789MOL0     C 4081   5.680   8.419   8.006  1.1150  0.6966 -0.8485
  789MOL0     C 4082   5.768   8.409   8.120  0.1954 -0.8278 -0.5421
  789MOL0     H 4083   6.158   8.451   8.392  0.8390  1.0166 -0.3609
  789MOL0     H 4084   6.356   8.428   8.545 -2.0713  0.5745  1.1324
  789MOL0     H 4085   6.706   8.241   8.382  0.0475 -1.5084 -0.6482
  789MOL0     H 4086   6.645   8.101   8.464  0.1517 -1.0702  1.9516
  789MOL0     H 4087   6.799   8.111   8.610  2.0796  1.9325  4.0154
  789MOL0     H 4088   6.732   8.259   8.677  1.1830 -1.2760  1.3340
  789MOL0     H 4089   6.930   8.225   8.447  2.2484  1.8486 -0.2272
  789MOL0     H 4090   6.990   8.223   8.606 -0.5418 -0.8587 -0.2610
  789MOL0     H 4091   6.855   8.457   8.450 -0.5644  0.7846 -0.5084
  789MOL0     H 4092   6.856   8.459   8.619 -0.7252  2.5963 -1.9786
  789MOL0     H 4093   7.116   8.422   8.438  3.8260  3.3357  0.6869
  789MOL0     H 4094   7.108   8.440   8.611  0.9920  0.6254 -0.7710
  789MOL0     H 4095   7.062   8.660   8.420 -0.0159  0.7981 -0.8328
  789MOL0     H 4096   7.209   8.628   8.513  0.4349  3.0071 -0.2686
  789MOL0     H 4097   7.080   8.809   8.605  1.6036 -0.1980  0.5941
  789MOL0     H 4098   6.942   8.691   8.636  0.3004  1.0374  2.4780
  789MOL0     H 4099   7.233   8.701   8.742 -0.7740  2.0065  0.4659
  789MOL0     H 4100   7.121   8.562   8.779  1.7192  0.0646  1.4179
  789MOL0     H 4101   6.858   8.672   8.865 -2.2268  1.6822 -0.9324
  789MOL0     H 4102   6.813   8.787   9.177  1.0815 -3.2031 -2.0474
  789MOL0     H 4103   6.709   8.827   9.041  0.1669  2.1043 -1.1029
  789MOL0     H 4104   6.897   9.030   9.173  0.0651  6.7166 -2.5358
  789MOL0     H 4105   6.736   8.998   9.227 -0.6938  1.0867 -0.6079
  789MOL0     H 4106   6.647   9.082   9.009 -0.8437  3.2962 -0.0626
  789MOL0     H 4107   6.761   9.195   9.095  4.2916  1.0598 -2.4028
  789MOL0     H 4108   6.924   9.102   8.906 -0.0824  1.0795  2.1804
  789MOL0     H 4109   6.821   9.231   8.880 -0.9905 -0.5276 -2.7472
  789MOL0     H 4110   6.735   8.877   8.617 -0.8321  1.0214 -0.8338
  789MOL0     H 4111   6.891   8.845   8.417  1.5743  0.4021 -1.9311
  789MOL0     H 4112   7.084   9.104   7.955  0.2722  1.1440  0.7213
  789MOL0     H 4113   7.272   9.133   7.808 -0.4921  0.2762  0.7284
  789MOL0     H 4114   7.466   9.141   7.720  1.3161 -0.8074 -0.8604
  789MOL0     H 4115   7.618   9.219   7.711 -0.7939  2.1446 -1.8949
  789MOL0     H 4116   7.522   9.444   7.703 -2.2752  0.8291  0.9846
  789MOL0     H 4117   7.355   9.361   7.684 -1.1170 -2.2565 -0.9229
  789MOL0     H 4118   7.476   9.230   7.489  4.8784 -0.9501 -1.4249
  789MOL0     H 4119   7.598   9.340   7.509 -0.3194  3.2726 -0.6041
  789MOL0     H 4120   7.313   9.425   7.445  0.7169  0.1772 -0.2219
  789MOL0     H 4121   7.443   9.540   7.483  1.7306 -0.6429  2.8671
  789MOL0     H 4122   7.472   9.333   7.270 -0.1239 -0.4661 -1.4081
  789MOL0     H 4123   7.601   9.439   7.344 -0.7039  0.7844  2.4104
  789MOL0     H 4124   7.500   9.640   7.251  0.0720  0.7341 -1.4664
  789MOL0     H 4125   7.362   9.547   7.175  0.1071  1.3776  0.5375
  789MOL0     H 4126   7.670   9.530   7.121 -0.1190  0.6441  0.2260
  789MOL0     H 4127   7.544   9.432   7.033 -1.6052 -1.3225  3.0811
  789MOL0     H 4128   7.644   9.614   6.909  1.5495  0.7175  2.7163
  789MOL0     H 4129   7.560   9.731   7.022 -0.1313  0.5838 -1.2317
  789MOL0     H 4130   7.510   9.274   8.143  0.2165 -2.4535  1.5213
  789MOL0     H 4131   7.298   9.263   8.281  0.4483  0.1936 -0.0018
  789MOL0     H 4132   7.038   9.251   8.468 -0.1557  0.7898  2.0569
  789MOL0     H 4133   6.923   9.267   8.665  0.4441  0.6717 -1.0716
  789MOL0     H 4134   6.530   8.145   8.279 -0.7862 -0.7764 -2.4689
  789MOL0     H 4135   6.339   8.189   8.119 -0.0836 -1.4956  0.6051
  789MOL0     H 4136   6.030   8.289   7.956 -1.0982 -2.5822 -0.0553
  789MOL0     H 4137   5.882   8.328   7.763  0.0251  0.9253  0.1702
  789MOL0     H 4138   5.453   8.356   7.878 -3.6157 -3.8360  0.0166
  789MOL0     H 4139   5.532   8.216   7.809 -0.0872 -0.1760 -2.6405
  789MOL0     H 4140   5.490   8.275   7.579 -0.4638 -0.6681 -0.9109
  789MOL0     H 4141   5.339   8.266   7.659 -0.2650  0.4718  0.7771
  789MOL0     H 4142   5.487   8.519   7.615 -0.8784  0.2168 -0.7183
  789MOL0     H 4143   5.342   8.511   7.720  0.0512  0.1789  0.7978
  789MOL0     H 4144   5.277   8.590   7.489  2.6965  1.0366  0.4366
  789MOL0     H 4145   5.369   8.456   7.419 -1.9356 -0.6838 -1.0080
  789MOL0     H 4146   4.980   8.329   7.421  0.4037  1.1505 -3.2372
  789MOL0     H 4147   5.579   8.454   8.026  0.6251 -1.4169  0.7375
  789MOL0     H 4148   5.735   8.435   8.220  0.2875 -0.5076 -0.5927
  790MOL0     O 4149   5.291   0.617   6.779 -0.7827 -0.0493  0.5324
  790MOL0     C 4150   5.338   0.724   6.740  0.2420 -0.7628 -0.3157
  790MOL0     O 4151   5.462   0.784   6.781 -0.9232 -0.7299  0.4702
  790MOL0     C 4152   5.543   0.708   6.863 -0.8709 -0.1854  0.3777
  790MOL0     C 4153   5.653   0.657   6.806 -0.3318 -0.6108  0.4240
  790MOL0     C 4154   5.736   0.562   6.873 -0.6098  0.3069  0.2576
  790MOL0     C 4155   5.699   0.520   7.005  0.2948  0.0613 -0.1024
  790MOL0     O 4156   5.780   0.424   7.069  0.3911 -0.2632  0.3147
  790MOL0     C 4157   5.861   0.328   6.995 -0.1541  0.7238 -0.3294
  790MOL0     C 4158   5.898   0.216   7.090 -0.0739 -0.8856  0.4570
  790MOL0     C 4159   5.970   0.119   7.002 -0.1734  0.2016  0.4233
  790MOL0     C 4160   6.021  -0.006   7.062  0.3049  0.0757 -0.3133
  790MOL0     C 4161   6.103  -0.070   6.951  0.7607  0.5727  0.4443
  790MOL0     C 4162   6.168  -0.184   7.010 -0.7210 -0.1217 -0.4723
  790MOL0     C 4163   6.242  -0.261   6.892 -0.1152 -0.3659 -0.1539
  790MOL0     C 4164   6.380  -0.219   6.857  0.5978 -0.8130 -0.2683
  790MOL0     N 4165   6.432  -0.245   6.722 -0.3621  0.0633 -0.3261
  790MOL0     C 4166   6.352  -0.233   6.609 -0.0906  1.1120  0.2936
  790MOL0     C 4167   6.436  -0.241   6.500 -0.1523  0.2446 -0.3368
  790MOL0     C 4168   6.383  -0.215   6.362 -0.7374 -0.1203 -0.1742
  790MOL0     C 4169   6.483  -0.117   6.295 -0.4282 -0.3656  0.2532
  790MOL0     C 4170   6.417  -0.057   6.167  0.5202  1.1599 -0.6635
  790MOL0     C 4171   6.441  -0.139   6.042  0.3483  0.2059  0.4033
  790MOL0     O 4172   6.408  -0.282   6.055 -0.1398 -0.3959 -0.1798
  790MOL0     C 4173   6.452  -0.362   5.943  0.4300 -0.0991 -0.6269
  790MOL0     C 4174   6.523  -0.317   5.833 -0.9576  0.0463 -0.7184
  790MOL0     C 4175   6.571  -0.406   5.735  0.7751 -1.7238 -0.1921
  790MOL0     C 4176   6.543  -0.547   5.748  0.2288  0.4202 -0.8218
  790MOL0     C 4177   6.609  -0.646   5.661 -0.5951  0.1206  1.1886
  790MOL0     O 4178   6.621  -0.769   5.711 -0.3147 -0.2587  0.5173
  790MOL0     C 4179   6.691  -0.864   5.645 -0.0626  0.2175 -0.7935
  790MOL0     C 4180   6.797  -0.924   5.714 -0.4576 -0.9971 -0.0024
  790MOL0     C 4181   6.890  -0.994   5.640  0.3507  1.0033  0.0116
  790MOL0     C 4182   6.876  -1.030   5.509  0.4515 -0.8329  0.0017
  790MOL0     O 4183   6.969  -1.100   5.429  0.1574  0.1391  0.0854
  790MOL0     C 4184   7.017  -1.224   5.475  0.1766  0.3323  0.7351
  790MOL0     C 4185   7.029  -1.324   5.361 -0.5364 -0.0821 -0.0187
  790MOL0     C 4186   7.170  -1.310   5.289  0.6579 -0.6900 -0.3577
  790MOL0     C 4187   7.182  -1.417   5.187  0.8163  0.6685 -0.9983
  790MOL0     C 4188   7.322  -1.455   5.145  1.0000  0.1739  0.0828
  790MOL0     C 4189   7.428  -1.344   5.089 -0.4290  0.2801  0.4177
  790MOL0     C 4190   7.381  -1.288   4.954  0.6284 -0.2647 -0.8937
  790MOL0     C 4191   7.488  -1.215   4.877 -0.1144  0.1544 -0.4542
  790MOL0    Cl 4192   7.416  -1.144   4.730  0.2924  0.2222  0.0771
  790MOL0     C 4193   6.766  -0.969   5.442  0.4827  0.8765 -0.5206
  790MOL0     C 4194   6.677  -0.887   5.512 -0.6216 -0.6746  0.4135
  790MOL0     O 4195   6.647  -0.612   5.547 -0.1193  0.6057 -0.0572
  790MOL0     C 4196   6.467  -0.596   5.851 -0.3171 -0.4865  0.0627
  790MOL0     C 4197   6.420  -0.501   5.949  0.1827 -0.6092  0.1034
  790MOL0     N 4198   6.561  -0.257   6.553 -0.4203 -0.3567 -0.1818
  790MOL0     N 4199   6.560  -0.264   6.684 -0.7208 -0.1850 -0.2514
  790MOL0     C 4200   5.592   0.578   7.067 -0.9514 -0.7416  0.5033
  790MOL0     C 4201   5.512   0.675   6.991  0.0353 -0.4034  0.5312
  790MOL0     C 4202   5.267   0.801   6.634 -0.2877 -0.2365 -0.1051
  790MOL0     C 4203   5.311   0.921   6.575  0.2227  0.4843  0.0510
  790MOL0     C 4204   5.244   0.984   6.467 -0.2720 -0.3728 -0.3479
  790MOL0     C 4205   5.130   0.924   6.407  0.2312 -0.1459 -0.5792
  790MOL0     O 4206   5.081   0.975   6.294  1.0878  0.3742 -0.7125
  790MOL0     C 4207   4.932   0.975   6.290 -1.2074  0.1655 -0.2524
  790MOL0     C 4208   4.878   1.016   6.157  0.4758 -0.2011 -1.0459
  790MOL0     C 4209   4.793   0.914   6.077 -0.5129 -0.1214 -0.1703
  790MOL0     C 4210   4.643   0.922   6.114 -0.3248  0.9193  0.4529
  790MOL0     C 4211   4.621   0.870   6.244 -1.0084 -0.0125 -0.5900
  790MOL0     C 4212   4.613   0.833   6.360  0.6504 -0.1725 -0.6545
  790MOL0     C 4213   5.089   0.804   6.459  0.8480  0.4187 -0.4670
  790MOL0     C 4214   5.146   0.752   6.581 -1.3154 -0.1480 -0.0271
  790MOL0     H 4215   5.682   0.697   6.710 -1.1914 -3.2874 -1.0414
  790MOL0     H 4216   5.819   0.521   6.817  0.3875  1.6773  0.6747
  790MOL0     H 4217   5.949   0.379   6.957  0.2542  1.0497  0.9924
  790MOL0     H 4218   5.790   0.298   6.917  0.9769  1.7750 -1.8186
  790MOL0     H 4219   5.807   0.171   7.132 -1.0733  1.4365  0.9588
  790MOL0     H 4220   5.947   0.258   7.179 -0.6100 -1.6450  1.1315
  790MOL0     H 4221   6.053   0.176   6.961 -1.9763  0.7653 -2.7702
  790MOL0     H 4222   5.910   0.079   6.920 -0.6215  0.8871  0.4154
  790MOL0     H 4223   6.068   0.020   7.157 -1.7730  1.9484  0.2982
  790MOL0     H 4224   5.933  -0.067   7.084  2.1364 -2.2636  0.9477
  790MOL0     H 4225   6.178  -0.004   6.907 -0.6041 -0.6689 -4.3715
  790MOL0     H 4226   6.036  -0.095   6.867  2.0187  1.5431 -0.9039
  790MOL0     H 4227   6.098  -0.248   7.064  2.3318 -2.0480  1.5363
  790MOL0     H 4228   6.238  -0.153   7.088  0.5489 -2.6598 -0.4914
  790MOL0     H 4229   6.243  -0.367   6.918 -0.6643 -0.4313 -0.3826
  790MOL0     H 4230   6.172  -0.270   6.808  0.1779 -2.1978 -0.2436
  790MOL0     H 4231   6.454  -0.259   6.928  0.8939  0.2833  0.0573
  790MOL0     H 4232   6.384  -0.115   6.891 -1.9830 -0.8482  0.3628
  790MOL0     H 4233   6.247  -0.209   6.620 -0.4149 -0.2612  0.3717
  790MOL0     H 4234   6.277  -0.190   6.353 -1.0909 -1.1983  0.7556
  790MOL0     H 4235   6.393  -0.311   6.311 -0.8374 -1.4496  2.2014
  790MOL0     H 4236   6.579  -0.168   6.282  0.0849  0.4619  0.7503
  790MOL0     H 4237   6.495  -0.036   6.367  2.8749  0.4338 -1.0523
  790MOL0     H 4238   6.310  -0.049   6.185  0.7367  1.3254  0.7399
  790MOL0     H 4239   6.461   0.044   6.169  0.8790  1.0743 -2.7170
  790MOL0     H 4240   6.548  -0.137   6.017  0.2766  1.8129  0.1061
  790MOL0     H 4241   6.393  -0.097   5.954 -1.6037 -2.8082 -0.1199
  790MOL0     H 4242   6.545  -0.211   5.822 -0.4667 -0.0435 -0.6495
  790MOL0     H 4243   6.620  -0.374   5.644 -1.0976 -2.2842 -1.4618
  790MOL0     H 4244   6.823  -0.911   5.818  1.9546 -1.8011 -0.4253
  790MOL0     H 4245   6.972  -1.045   5.690  0.5114  0.8538 -0.4085
  790MOL0     H 4246   6.947  -1.271   5.545  0.7675 -4.1447 -1.3447
  790MOL0     H 4247   7.120  -1.221   5.512  1.3336 -0.2677 -2.1961
  790MOL0     H 4248   6.954  -1.304   5.283  0.6203 -0.1322 -1.1834
  790MOL0     H 4249   7.017  -1.424   5.405 -2.2424  1.1838  2.6609
  790MOL0     H 4250   7.248  -1.321   5.365  1.5049 -0.0117 -1.1112
  790MOL0     H 4251   7.182  -1.210   5.249  5.5946 -0.0862  1.9071
  790MOL0     H 4252   7.141  -1.513   5.218 -0.8254  1.6774  0.1602
  790MOL0     H 4253   7.118  -1.385   5.103  0.2234  0.6596 -0.5598
  790MOL0     H 4254   7.309  -1.535   5.071 -0.6917 -0.0556  0.5798
  790MOL0     H 4255   7.365  -1.508   5.230 -2.1154 -1.4562  0.7940
  790MOL0     H 4256   7.529  -1.385   5.087  0.3694  2.0984  0.5851
  790MOL0     H 4257   7.430  -1.254   5.153 -1.4650  0.4007  0.2938
  790MOL0     H 4258   7.340  -1.361   4.884 -0.0883 -0.2002 -0.5533
  790MOL0     H 4259   7.301  -1.219   4.983 -1.3107 -2.5222 -0.5557
  790MOL0     H 4260   7.568  -1.288   4.860  1.1251  0.7431  2.3358
  790MOL0     H 4261   7.535  -1.142   4.943 -1.6561  0.0674  0.8112
  790MOL0     H 4262   6.735  -0.987   5.340 -1.9926  0.2651  0.2706
  790MOL0     H 4263   6.601  -0.846   5.446 -1.3461  0.3105  1.8174
  790MOL0     H 4264   6.439  -0.700   5.868  2.6370 -0.8456  4.0671
  790MOL0     H 4265   6.345  -0.527   6.024 -2.8447 -0.4859 -2.6479
  790MOL0     H 4266   5.585   0.546   7.170  3.0535 -2.1988  0.5103
  790MOL0     H 4267   5.433   0.720   7.051 -0.9138 -0.8384 -0.3753
  790MOL0     H 4268   5.406   0.963   6.605 -0.5740  2.6774 -0.3108
  790MOL0     H 4269   5.290   1.078   6.436 -0.4467  0.5510  2.0089
  790MOL0     H 4270   4.885   1.037   6.367 -0.0732  0.0145  0.5767
  790MOL0     H 4271   4.906   0.869   6.299  1.5829 -0.6985 -1.3262
  790MOL0     H 4272   4.813   1.103   6.165  0.1996 -0.2274 -2.6999
  790MOL0     H 4273   4.964   1.039   6.092  1.6491 -5.5082 -1.8698
  790MOL0     H 4274   4.849   0.820   6.081 -0.5585 -0.1005  2.0599
  790MOL0     H 4275   4.800   0.952   5.974  1.0776  1.8170  0.5993
  790MOL0     H 4276   4.605   1.023   6.094 -2.1553 -0.2145 -2.4142
  790MOL0     H 4277   4.587   0.862   6.042 -0.2192  1.4431 -0.0821
  790MOL0     H 4278   4.587   0.801   6.460 -4.2358  1.1232 -1.2496
  790MOL0     H 4279   5.002   0.754   6.417  2.6440 -2.6136 -0.9163
  790MOL0     H 4280   5.101   0.660   6.617  3.1570 -2.2546  0.9369
  791MOL0     O 4281   5.263   9.752   3.162  0.0878 -0.6343  0.2149
  791MOL0     C 4282   5.180   9.712   3.075 -0.7100 -0.3194  0.1638
  791MOL0     O 4283   5.212   9.625   2.974  0.2852 -0.0276 -0.4909
  791MOL0     C 4284   5.344   9.596   2.953 -0.1563 -0.3072  0.6288
  791MOL0     C 4285   5.434   9.689   2.886 -1.0096  0.3767 -0.1436
  791MOL0     C 4286   5.569   9.648   2.884 -0.4723  0.2134 -0.4279
  791MOL0     C 4287   5.617   9.533   2.944 -0.2322 -0.0545  0.4532
  791MOL0     O 4288   5.755   9.524   2.923  0.6608  0.8117 -0.3823
  791MOL0     C 4289   5.828   9.398   2.969  0.6356  0.2348 -0.0765
  791MOL0     C 4290   5.963   9.379   2.914 -0.2241 -0.5748  0.2387
  791MOL0     C 4291   5.968   9.379   2.754 -0.2243 -1.3213  1.0238
  791MOL0     C 4292   6.112   9.399   2.705 -0.0991 -0.3796  0.4765
  791MOL0     C 4293   6.142   9.549   2.691 -0.9807 -0.2076  0.0349
  791MOL0     C 4294   6.265   9.582   2.614  0.2281  0.8220 -0.7498
  791MOL0     C 4295   6.400   9.521   2.672  0.6000 -0.2720  0.8935
  791MOL0     C 4296   6.526   9.576   2.608  0.6294 -0.9653  0.3657
  791MOL0     N 4297   6.540   9.714   2.654 -0.4457  0.0233  0.3186
  791MOL0     C 4298   6.593   9.754   2.776  0.3129  0.8632  0.1695
  791MOL0     C 4299   6.570   9.887   2.781  0.5115 -0.3632 -1.0090
  791MOL0     C 4300   6.597   9.983   2.888 -0.3149 -0.5593  0.1298
  791MOL0     C 4301   6.711  10.083   2.849  0.8740  0.3296  0.2183
  791MOL0     C 4302   6.843  10.002   2.826 -0.7944 -0.2036  0.7040
  791MOL0     C 4303   6.888   9.900   2.922 -0.0545 -0.0676  0.3187
  791MOL0     O 4304   6.892   9.935   3.059 -0.2654 -0.0439  0.3743
  791MOL0     C 4305   6.958  10.052   3.106  0.0033  0.0763  0.4836
  791MOL0     C 4306   7.096  10.056   3.113  0.9730  0.2651 -0.4316
  791MOL0     C 4307   7.155  10.177   3.147  0.0064 -0.4807  0.0401
  791MOL0     C 4308   7.083  10.293   3.189  0.3044  0.2599 -0.6705
  791MOL0     C 4309   7.144  10.416   3.227 -1.7469  0.0417  0.4219
  791MOL0     O 4310   7.065  10.520   3.263 -0.2495 -0.3934 -0.2490
  791MOL0     C 4311   7.103  10.643   3.321 -0.6625 -0.0163 -0.3953
  791MOL0     C 4312   7.230  10.662   3.397 -0.1617  0.1447  0.1222
  791MOL0     C 4313   7.250  10.785   3.458 -0.3891  0.6596 -0.3047
  791MOL0     C 4314   7.154  10.889   3.455 -0.1563  0.2114 -0.1569
  791MOL0     O 4315   7.166  11.012   3.525  0.7032 -0.1502  0.2531
  791MOL0     C 4316   7.287  11.040   3.601 -0.5223 -0.3591  0.7893
  791MOL0     C 4317   7.263  11.178   3.657 -0.0902  0.0797  0.0526
  791MOL0     C 4318   7.247  11.286   3.547  0.5281 -0.3963 -0.3417
  791MOL0     C 4319   7.192  11.413   3.617  0.1874 -1.0027 -0.4300
  791MOL0     C 4320   7.127  11.504   3.521 -0.3185  0.3607 -0.0384
  791MOL0     C 4321   7.099  11.646   3.585 -0.3124 -0.5978  0.8860
  791MOL0     C 4322   7.024  11.725   3.469  0.2809  0.7837 -0.4702
  791MOL0     C 4323   6.992  11.876   3.504  0.1766  0.3604 -0.4816
  791MOL0    Cl 4324   6.870  11.932   3.384 -0.2208  0.1808 -0.1042
  791MOL0     C 4325   7.042  10.869   3.387  0.4935 -0.1599 -0.3317
  791MOL0     C 4326   7.011  10.748   3.321  0.8636  0.4706  0.9172
  791MOL0     O 4327   7.272  10.417   3.215 -0.4381 -0.1100 -0.4822
  791MOL0     C 4328   6.943  10.276   3.206 -0.4778  0.1669 -0.2186
  791MOL0     C 4329   6.884  10.155   3.158 -0.3384  0.4544 -0.0133
  791MOL0     N 4330   6.509   9.930   2.664 -0.5131  0.7607  0.7112
  791MOL0     N 4331   6.484   9.822   2.589  1.2764 -0.0141  0.2599
  791MOL0     C 4332   5.528   9.454   3.009 -0.0611  0.7839 -0.5991
  791MOL0     C 4333   5.397   9.489   3.011 -0.0143  0.1820 -0.2807
  791MOL0     C 4334   5.039   9.761   3.080 -0.1668  0.3032  0.1346
  791MOL0     C 4335   4.956   9.778   2.962 -0.3039 -0.0490 -1.8035
  791MOL0     C 4336   4.823   9.825   2.972 -0.1240  0.1615  0.2408
  791MOL0     C 4337   4.775   9.878   3.092 -0.4832 -0.5029 -0.4774
  791MOL0     O 4338   4.661   9.948   3.082 -0.5556 -0.0420 -0.6533
  791MOL0     C 4339   4.614  10.000   3.208 -0.0923 -0.2190 -0.2279
  791MOL0     C 4340   4.482  10.067   3.198  0.2366  0.3194 -0.4912
  791MOL0     C 4341   4.498  10.197   3.129  0.1149 -0.3203  0.3774
  791MOL0     C 4342   4.368  10.272   3.144 -0.1002 -0.1366  0.8461
  791MOL0     C 4343   4.382  10.391   3.046 -0.8058 -0.7902 -0.1850
  791MOL0     C 4344   4.387  10.487   2.972 -0.4262 -0.7187  0.2843
  791MOL0     C 4345   4.857   9.864   3.208 -0.5645  0.4630 -0.4411
  791MOL0     C 4346   4.985   9.803   3.203 -0.3915 -1.1201  1.0144
  791MOL0     H 4347   5.405   9.782   2.838  0.0325 -0.3944 -2.3922
  791MOL0     H 4348   5.636   9.714   2.830  1.5357 -1.5111 -0.1517
  791MOL0     H 4349   5.772   9.309   2.941  1.9456  0.0203 -2.2049
  791MOL0     H 4350   5.853   9.413   3.074  2.3473  2.2734 -0.6986
  791MOL0     H 4351   5.996   9.281   2.950 -1.1315 -0.5323  1.2582
  791MOL0     H 4352   6.012   9.471   2.949 -2.7909  1.0047 -0.0089
  791MOL0     H 4353   5.898   9.454   2.717  0.5194 -0.7704  0.7226
  791MOL0     H 4354   5.941   9.279   2.716 -1.9348 -0.5519  0.1057
  791MOL0     H 4355   6.178   9.351   2.777 -0.5406  1.0610  1.9158
  791MOL0     H 4356   6.114   9.344   2.611 -1.0195  2.3887 -1.2837
  791MOL0     H 4357   6.139   9.597   2.789 -0.7845 -0.5282  0.1999
  791MOL0     H 4358   6.060   9.593   2.633 -1.9138 -0.0748  1.4110
  791MOL0     H 4359   6.268   9.691   2.602  0.2581  1.1983  1.9855
  791MOL0     H 4360   6.249   9.542   2.514  1.9047 -1.9605  0.0009
  791MOL0     H 4361   6.397   9.528   2.782 -0.4989  0.1949  0.8519
  791MOL0     H 4362   6.407   9.415   2.646 -1.8046 -0.1908 -0.2798
  791MOL0     H 4363   6.516   9.575   2.499  1.9725  3.8354 -0.0311
  791MOL0     H 4364   6.621   9.527   2.633  2.5770  1.0070 -2.6193
  791MOL0     H 4365   6.618   9.685   2.856  0.4090  1.3260  0.5445
  791MOL0     H 4366   6.621   9.924   2.977  2.1251 -1.1014 -0.7843
  791MOL0     H 4367   6.511  10.038   2.925  0.5904 -0.5955  2.4898
  791MOL0     H 4368   6.724  10.160   2.926 -1.4038  1.8565 -0.8116
  791MOL0     H 4369   6.687  10.140   2.759  1.1909  1.2953  0.7349
  791MOL0     H 4370   6.815   9.952   2.733 -0.4818  1.0940 -0.1149
  791MOL0     H 4371   6.931  10.061   2.801  1.1146 -2.8819  0.7324
  791MOL0     H 4372   6.986   9.865   2.889  0.4848  1.9523 -0.3906
  791MOL0     H 4373   6.815   9.819   2.923 -2.3672  1.9006  0.8456
  791MOL0     H 4374   7.143   9.959   3.103  1.7385  0.1706  2.8309
  791MOL0     H 4375   7.263  10.179   3.151  0.4082 -6.1945  1.1634
  791MOL0     H 4376   7.307  10.585   3.394 -2.2725 -2.0241 -1.7358
  791MOL0     H 4377   7.338  10.802   3.520  0.2367  1.2726 -1.3147
  791MOL0     H 4378   7.370  11.045   3.529 -3.2974  0.9243 -2.6004
  791MOL0     H 4379   7.311  10.967   3.679  0.5799 -3.2545 -2.0511
  791MOL0     H 4380   7.343  11.207   3.726 -1.4860 -0.3179  1.9107
  791MOL0     H 4381   7.170  11.184   3.714  0.1574  2.9389  0.3099
  791MOL0     H 4382   7.189  11.253   3.461  1.9705 -1.8404 -0.8016
  791MOL0     H 4383   7.345  11.307   3.504  0.3465 -0.3755 -0.7481
  791MOL0     H 4384   7.125  11.387   3.700  0.6956  1.9496  1.0654
  791MOL0     H 4385   7.273  11.471   3.662 -2.1746  2.9185 -0.7434
  791MOL0     H 4386   7.042  11.454   3.473 -0.7272  2.2041 -1.3669
  791MOL0     H 4387   7.200  11.515   3.440  1.6836 -1.4720  1.4029
  791MOL0     H 4388   7.194  11.692   3.616 -0.2895 -1.6392  2.5038
  791MOL0     H 4389   7.038  11.640   3.675  0.6895 -2.0504  1.5159
  791MOL0     H 4390   7.079  11.729   3.374  0.4355  2.2862 -0.3413
  791MOL0     H 4391   6.927  11.678   3.454  1.0247 -1.1947  0.5711
  791MOL0     H 4392   7.085  11.929   3.482  0.2884 -0.4463 -2.1203
  791MOL0     H 4393   6.961  11.888   3.608  2.4177 -1.8172  0.5735
  791MOL0     H 4394   6.971  10.949   3.371  1.9903  1.0789 -1.1301
  791MOL0     H 4395   6.936  10.735   3.244  3.4651  1.0872 -1.9732
  791MOL0     H 4396   6.872  10.346   3.248 -1.0670 -0.8891  0.6179
  791MOL0     H 4397   6.777  10.140   3.168 -0.5754  2.4854  1.0280
  791MOL0     H 4398   5.563   9.362   3.055  1.7468  1.4597 -0.5727
  791MOL0     H 4399   5.327   9.421   3.060  0.9494 -0.2973  0.4682
  791MOL0     H 4400   4.997   9.737   2.871  2.2328 -3.3584  0.5900
  791MOL0     H 4401   4.754   9.837   2.889 -1.7715 -0.9673  1.3878
  791MOL0     H 4402   4.691  10.064   3.252  2.5221 -0.3724 -4.0500
  791MOL0     H 4403   4.597   9.917   3.276 -1.7230 -0.3736 -0.7861
  791MOL0     H 4404   4.419  10.000   3.139  0.3878 -1.6881  1.4740
  791MOL0     H 4405   4.436  10.088   3.295  0.1642  2.2504 -0.8941
  791MOL0     H 4406   4.511  10.173   3.023 -2.2516 -1.4526  0.2899
  791MOL0     H 4407   4.583  10.258   3.161 -1.0718  1.7878 -0.2624
  791MOL0     H 4408   4.278  10.213   3.124  1.3069 -2.0611 -0.0576
  791MOL0     H 4409   4.372  10.306   3.248  0.1559  1.2557  0.4000
  791MOL0     H 4410   4.400  10.575   2.912  3.4274  0.3799  2.4030
  791MOL0     H 4411   4.823   9.894   3.307  2.9638  2.2724  0.4059
  791MOL0     H 4412   5.046   9.795   3.291  1.8844 -1.2135 -0.4982
  792MOL0     O 4413   1.884   6.420   1.801 -0.0025  0.0660 -0.3729
  792MOL0     C 4414   1.849   6.520   1.862 -0.3526 -0.1461 -0.3251
  792MOL0     O 4415   1.883   6.538   1.988  0.5386 -0.2211  0.7895
  792MOL0     C 4416   1.959   6.442   2.045  0.0572  1.0515 -0.6215
  792MOL0     C 4417   1.901   6.353   2.131  0.2467  0.1227 -0.7556
  792MOL0     C 4418   1.973   6.242   2.180  0.6991 -0.9375 -1.7603
  792MOL0     C 4419   2.104   6.224   2.137 -0.5563  0.1211  1.2607
  792MOL0     O 4420   2.188   6.120   2.182 -0.7142 -1.1436  0.4278
  792MOL0     C 4421   2.290   6.153   2.276 -0.0064  0.4487  0.9750
  792MOL0     C 4422   2.336   6.032   2.360  0.8055 -0.3368  0.1560
  792MOL0     C 4423   2.422   6.078   2.479 -0.0923  0.0229  0.6816
  792MOL0     C 4424   2.569   6.087   2.437  0.3786  1.4603  0.9143
  792MOL0     C 4425   2.646   6.191   2.520  0.5198 -1.1686 -0.0789
  792MOL0     C 4426   2.764   6.245   2.445  0.5247  1.4779  0.6821
  792MOL0     C 4427   2.846   6.338   2.534  0.1116  0.3160  0.5411
  792MOL0     C 4428   2.997   6.328   2.523  0.9299 -0.9839 -0.0597
  792MOL0     N 4429   3.044   6.198   2.574 -0.1317 -0.9456  0.1154
  792MOL0     C 4430   3.076   6.186   2.701  0.2232 -0.5346 -0.1799
  792MOL0     C 4431   3.165   6.085   2.709  0.6424  0.1249 -0.0370
  792MOL0     C 4432   3.233   6.035   2.839  0.0215  0.7473 -0.0822
  792MOL0     C 4433   3.323   6.145   2.887 -0.0071 -0.5415  0.7067
  792MOL0     C 4434   3.403   6.125   3.006 -0.0320  1.1312 -1.1031
  792MOL0     C 4435   3.318   6.106   3.129 -0.4372 -0.0670  0.1531
  792MOL0     O 4436   3.317   5.968   3.164 -0.0355  0.8871 -2.0444
  792MOL0     C 4437   3.271   5.930   3.290 -0.8665 -0.8754 -0.9986
  792MOL0     C 4438   3.234   6.020   3.395  0.2578 -0.5944  0.0787
  792MOL0     C 4439   3.226   5.971   3.530 -0.3334  0.1933 -0.5461
  792MOL0     C 4440   3.248   5.836   3.557 -0.6479  0.1730  0.1892
  792MOL0     C 4441   3.253   5.790   3.702  0.6329 -0.3670 -0.0149
  792MOL0     O 4442   3.217   5.886   3.799  0.7407 -0.0366  0.1786
  792MOL0     C 4443   3.243   5.868   3.934  0.3939  0.1531 -0.5517
  792MOL0     C 4444   3.192   5.964   4.023  0.2839 -0.5146  0.5741
  792MOL0     C 4445   3.200   5.935   4.157  0.4134  0.6591  0.2563
  792MOL0     C 4446   3.277   5.834   4.208  0.1669 -0.6941 -0.4220
  792MOL0     O 4447   3.298   5.822   4.348 -0.0699 -0.9836  0.2525
  792MOL0     C 4448   3.396   5.909   4.401  0.5576  0.0214  0.3360
  792MOL0     C 4449   3.538   5.858   4.377  0.1714  0.3648  0.1829
  792MOL0     C 4450   3.623   5.910   4.503  0.7266  1.0518  0.8750
  792MOL0     C 4451   3.771   5.883   4.504  0.1866 -0.8672 -0.3620
  792MOL0     C 4452   3.840   5.932   4.384  0.3586 -1.3602 -0.0579
  792MOL0     C 4453   3.993   5.907   4.401  0.3233 -0.4194 -0.2297
  792MOL0     C 4454   4.077   5.922   4.265  1.4803 -0.3767  0.5382
  792MOL0     C 4455   4.105   6.071   4.219  0.1706 -0.3673  0.4771
  792MOL0    Cl 4456   4.262   6.109   4.273 -0.0795  0.2492  0.3653
  792MOL0     C 4457   3.340   5.735   4.126  0.4781  0.1936  0.5523
  792MOL0     C 4458   3.309   5.749   3.987 -0.6664  0.3469 -0.4814
  792MOL0     O 4459   3.279   5.670   3.715  0.4799  0.2076  0.8475
  792MOL0     C 4460   3.286   5.751   3.452 -0.1165  0.2072  0.0944
  792MOL0     C 4461   3.304   5.804   3.323 -0.3999 -0.0967 -0.0509
  792MOL0     N 4462   3.177   6.028   2.580  0.1605 -0.2766 -0.7982
  792MOL0     N 4463   3.104   6.101   2.502 -0.0256  1.0223  0.3100
  792MOL0     C 4464   2.165   6.325   2.054 -0.6006 -0.0432  0.1890
  792MOL0     C 4465   2.092   6.431   2.008  0.0437 -0.1748 -0.7665
  792MOL0     C 4466   1.752   6.620   1.806 -0.9091  0.1723  0.8154
  792MOL0     C 4467   1.756   6.656   1.669  0.8637  0.3108 -0.8270
  792MOL0     C 4468   1.705   6.771   1.616  0.3829  0.3358  0.2577
  792MOL0     C 4469   1.633   6.857   1.698 -0.3654  1.2185 -0.5565
  792MOL0     O 4470   1.574   6.966   1.649 -0.4808  0.2663 -0.3375
  792MOL0     C 4471   1.437   6.965   1.663  0.1881 -0.2024 -0.0272
  792MOL0     C 4472   1.370   6.845   1.610 -0.4382 -0.3707  0.0343
  792MOL0     C 4473   1.360   6.853   1.452 -0.0708  0.2965  0.1293
  792MOL0     C 4474   1.314   6.735   1.381 -0.9935 -0.1066 -0.7889
  792MOL0     C 4475   1.399   6.621   1.417 -0.0976 -0.1968  0.9455
  792MOL0     C 4476   1.476   6.532   1.454 -0.4482  0.0252  0.0088
  792MOL0     C 4477   1.624   6.826   1.834 -0.9354 -0.5953  0.4112
  792MOL0     C 4478   1.687   6.711   1.892 -0.2246 -0.2712  0.3804
  792MOL0     H 4479   1.800   6.377   2.163 -0.1308  0.4382 -2.0888
  792MOL0     H 4480   1.922   6.179   2.252  0.2159  0.5989 -0.6956
  792MOL0     H 4481   2.254   6.236   2.337  1.6312  0.1150  2.4920
  792MOL0     H 4482   2.380   6.187   2.224 -1.5495  1.3242 -1.2278
  792MOL0     H 4483   2.379   5.952   2.300  2.6451  1.5410 -1.1444
  792MOL0     H 4484   2.247   5.999   2.414  1.5780 -0.6154  1.3000
  792MOL0     H 4485   2.426   5.996   2.551  3.3903 -2.6214 -2.1530
  792MOL0     H 4486   2.372   6.167   2.518  0.0784 -0.7135  2.7038
  792MOL0     H 4487   2.616   5.988   2.435 -1.6626  0.4536  0.8122
  792MOL0     H 4488   2.579   6.111   2.330 -0.3427  0.0012  0.5044
  792MOL0     H 4489   2.683   6.137   2.607 -0.5969  0.0176  1.1933
  792MOL0     H 4490   2.580   6.272   2.553  0.2268 -1.3068 -0.3138
  792MOL0     H 4491   2.732   6.300   2.356 -3.5274  0.1947  1.1179
  792MOL0     H 4492   2.831   6.164   2.415  1.5415  2.3514  0.5614
  792MOL0     H 4493   2.815   6.438   2.503 -0.2734  0.3652  1.0814
  792MOL0     H 4494   2.824   6.322   2.639  1.7843 -4.6681  0.3813
  792MOL0     H 4495   3.048   6.412   2.572 -2.0190  1.5499 -0.9725
  792MOL0     H 4496   3.017   6.330   2.415  1.6600  0.9078  0.0608
  792MOL0     H 4497   3.049   6.257   2.778 -1.1895  1.1465 -2.1354
  792MOL0     H 4498   3.276   5.936   2.818  0.6213  1.3862 -2.0725
  792MOL0     H 4499   3.166   6.004   2.920  0.0457 -1.7925 -0.9489
  792MOL0     H 4500   3.262   6.236   2.886 -3.7887 -2.7777 -1.6665
  792MOL0     H 4501   3.396   6.171   2.810 -0.9422  1.9276  0.5665
  792MOL0     H 4502   3.462   6.032   3.000  0.2158  1.1899  0.2126
  792MOL0     H 4503   3.477   6.204   3.017  0.6020  0.2986  1.0342
  792MOL0     H 4504   3.220   6.150   3.109 -0.7460 -2.1222 -3.9286
  792MOL0     H 4505   3.368   6.150   3.216  2.4907 -0.0293 -1.4342
  792MOL0     H 4506   3.219   6.125   3.376 -2.0466 -0.6427  1.1607
  792MOL0     H 4507   3.209   6.040   3.613 -1.1210 -2.2587  1.4540
  792MOL0     H 4508   3.143   6.047   3.973 -0.0909 -1.0882 -0.0408
  792MOL0     H 4509   3.157   6.012   4.220  1.3928 -0.3827  2.3198
  792MOL0     H 4510   3.371   5.918   4.507 -0.3968  2.5462 -0.0199
  792MOL0     H 4511   3.387   6.006   4.350 -2.8227 -0.8039 -0.9169
  792MOL0     H 4512   3.588   5.909   4.294  1.4617  0.8098  1.2087
  792MOL0     H 4513   3.542   5.752   4.352  2.0756  0.9032 -2.2057
  792MOL0     H 4514   3.576   5.869   4.593 -0.2278 -1.2019 -0.5827
  792MOL0     H 4515   3.618   6.017   4.524  0.7360  0.7898  2.3282
  792MOL0     H 4516   3.793   5.950   4.588 -1.7485  3.5759 -3.0488
  792MOL0     H 4517   3.800   5.779   4.522  4.1090 -0.0651 -1.1278
  792MOL0     H 4518   3.812   6.036   4.370  1.0077 -1.2547 -0.5999
  792MOL0     H 4519   3.808   5.874   4.297  0.1539 -2.9616  1.0336
  792MOL0     H 4520   3.998   5.802   4.431 -0.7228 -0.9219 -1.7025
  792MOL0     H 4521   4.046   5.965   4.477  0.2786  2.8905 -2.5016
  792MOL0     H 4522   4.175   5.875   4.264  1.7695  0.1969 -1.0688
  792MOL0     H 4523   4.001   5.879   4.198 -0.2677  1.3507  1.2854
  792MOL0     H 4524   4.030   6.140   4.258 -0.3583 -0.0571 -0.9926
  792MOL0     H 4525   4.099   6.080   4.110 -1.9318 -0.4491  0.5440
  792MOL0     H 4526   3.395   5.649   4.165 -1.1439 -0.9832  0.3322
  792MOL0     H 4527   3.363   5.686   3.916  0.3612  1.4625 -0.7317
  792MOL0     H 4528   3.323   5.650   3.466  1.3793  0.8784  1.3489
  792MOL0     H 4529   3.348   5.734   3.252 -1.3163 -2.0548  1.2208
  792MOL0     H 4530   2.272   6.318   2.036 -0.5281  1.4756 -0.0742
  792MOL0     H 4531   2.126   6.506   1.938  0.9819  0.4994  0.3860
  792MOL0     H 4532   1.819   6.608   1.594 -1.4149 -1.9382 -1.4449
  792MOL0     H 4533   1.721   6.781   1.509  0.7166  0.8687  0.3520
  792MOL0     H 4534   1.404   7.044   1.595 -0.0871 -1.0591 -0.9313
  792MOL0     H 4535   1.402   6.983   1.765 -0.8228  2.5477 -0.7741
  792MOL0     H 4536   1.420   6.750   1.631 -0.7346 -1.1760 -2.5290
  792MOL0     H 4537   1.274   6.830   1.660 -0.3095 -1.7939 -0.0954
  792MOL0     H 4538   1.461   6.877   1.419  0.0268  0.1367  0.3138
  792MOL0     H 4539   1.296   6.938   1.424 -0.6912 -0.2800 -0.2382
  792MOL0     H 4540   1.210   6.713   1.407 -0.3913 -2.2818  0.0436
  792MOL0     H 4541   1.321   6.748   1.273 -1.1435 -1.5136 -0.9817
  792MOL0     H 4542   1.531   6.450   1.496 -2.2294 -1.5598 -0.5992
  792MOL0     H 4543   1.582   6.895   1.907  2.9472  1.0093  1.3670
  792MOL0     H 4544   1.672   6.694   1.998 -2.3113 -0.7155  0.0707
  793MOL0     O 4545  11.232  11.199   8.316 -0.4111 -0.1733  0.3333
  793MOL0     C 4546  11.299  11.096   8.341 -0.4952 -0.1246  0.1264
  793MOL0     O 4547  11.427  11.088   8.332  0.0101 -0.0459 -0.7082
  793MOL0     C 4548  11.515  11.193   8.295  0.5578 -1.1152 -0.8067
  793MOL0     C 4549  11.639  11.229   8.360 -0.3851 -0.4339 -0.3371
  793MOL0     C 4550  11.733  11.331   8.326 -0.5618 -0.2145  0.9417
  793MOL0     C 4551  11.705  11.395   8.201 -0.2809  0.0030 -0.0105
  793MOL0     O 4552  11.803  11.474   8.135 -0.0246  0.5382  0.0294
  793MOL0     C 4553  11.940  11.474   8.190  0.2181  0.6453 -0.8579
  793MOL0     C 4554  12.048  11.508   8.075 -0.2788  0.5350 -0.7614
  793MOL0     C 4555  11.996  11.627   7.987  0.7788 -0.3381 -1.5921
  793MOL0     C 4556  12.117  11.674   7.906 -0.1717 -0.2224  0.7676
  793MOL0     C 4557  12.103  11.806   7.829 -0.0300  0.2153 -0.3599
  793MOL0     C 4558  12.024  11.789   7.700  0.1092 -0.2379 -1.0840
  793MOL0     C 4559  12.011  11.922   7.625  0.5337  0.1718 -0.2038
  793MOL0     C 4560  11.932  11.927   7.487  1.2415 -0.1195  0.3325
  793MOL0     N 4561  11.798  11.861   7.484  1.3278 -0.6173 -1.0588
  793MOL0     C 4562  11.778  11.752   7.403  0.4153 -0.5352 -0.5907
  793MOL0     C 4563  11.644  11.719   7.420 -0.6948  0.2686  0.2364
  793MOL0     C 4564  11.577  11.600   7.343  0.1767  0.2425 -0.0105
  793MOL0     C 4565  11.536  11.477   7.423 -0.3639  0.0567 -0.0178
  793MOL0     C 4566  11.432  11.515   7.533  1.0198  0.3313  0.6489
  793MOL0     C 4567  11.395  11.383   7.596 -0.1587  0.0840  0.2432
  793MOL0     O 4568  11.326  11.402   7.719  0.7126 -0.4503 -0.0020
  793MOL0     C 4569  11.235  11.299   7.767  0.8575  0.2059 -0.6640
  793MOL0     C 4570  11.146  11.339   7.869 -0.2805  0.1818 -0.1091
  793MOL0     C 4571  11.047  11.251   7.917  0.1136  0.0430 -0.1586
  793MOL0     C 4572  11.041  11.120   7.870 -0.0904 -0.7563  0.6274
  793MOL0     C 4573  10.931  11.040   7.910  0.6939 -0.6616  0.2266
  793MOL0     O 4574  10.853  11.093   8.009  1.1670 -0.0997  0.7900
  793MOL0     C 4575  10.765  11.016   8.079 -1.3119 -0.0164  0.5332
  793MOL0     C 4576  10.760  11.049   8.218 -0.6886  1.2111  0.3474
  793MOL0     C 4577  10.669  10.986   8.295 -0.1987  1.2889 -0.0414
  793MOL0     C 4578  10.599  10.872   8.249 -0.5903 -0.1846 -0.0984
  793MOL0     O 4579  10.507  10.808   8.330 -0.2676 -0.6887  0.0882
  793MOL0     C 4580  10.555  10.789   8.461 -0.1247  0.0755  0.0894
  793MOL0     C 4581  10.479  10.668   8.511 -0.2726  0.9979 -0.1239
  793MOL0     C 4582  10.515  10.528   8.452 -0.1579 -0.1167  0.0373
  793MOL0     C 4583  10.430  10.409   8.503  1.1832 -0.1001  0.2424
  793MOL0     C 4584  10.442  10.403   8.654 -0.5247 -0.4492  0.2183
  793MOL0     C 4585  10.356  10.292   8.710  0.1736 -0.6064 -0.4441
  793MOL0     C 4586  10.389  10.256   8.860 -0.1556  0.0099  0.5239
  793MOL0     C 4587  10.492  10.141   8.881 -0.2802  0.3073  0.7790
  793MOL0    Cl 4588  10.444   9.990   8.800  0.2002  0.0476 -0.0153
  793MOL0     C 4589  10.614  10.838   8.113  0.4277  0.3558  0.2961
  793MOL0     C 4590  10.685  10.909   8.030 -1.0006  0.0799 -0.0378
  793MOL0     O 4591  10.930  10.924   7.859 -0.5642  0.1632 -0.0637
  793MOL0     C 4592  11.141  11.072   7.788 -0.6742 -0.5058  0.3441
  793MOL0     C 4593  11.233  11.161   7.731 -0.5661  0.4651  0.1272
  793MOL0     N 4594  11.597  11.806   7.519 -0.3434 -0.5619 -0.6196
  793MOL0     N 4595  11.685  11.895   7.555 -0.1719 -0.0429  0.2646
  793MOL0     C 4596  11.585  11.371   8.130  0.0974  0.1819 -0.3675
  793MOL0     C 4597  11.490  11.278   8.186 -0.0843 -0.7610 -0.4736
  793MOL0     C 4598  11.223  10.974   8.392  0.2562  0.3022  0.7280
  793MOL0     C 4599  11.092  10.945   8.354 -0.9319  0.5546 -0.5935
  793MOL0     C 4600  11.024  10.837   8.409 -0.3162 -0.0207  0.2183
  793MOL0     C 4601  11.072  10.757   8.509  0.2348  0.1166  0.1071
  793MOL0     O 4602  10.993  10.658   8.543  0.3334  0.8693  0.4115
  793MOL0     C 4603  11.026  10.579   8.653 -0.0611 -0.0120  0.8211
  793MOL0     C 4604  10.940  10.463   8.667  0.4077  0.3757  0.6422
  793MOL0     C 4605  10.965  10.383   8.802 -0.6213 -0.3659  0.7406
  793MOL0     C 4606  10.833  10.323   8.856  0.1585  0.2273  1.0795
  793MOL0     C 4607  10.845  10.236   8.973 -0.1664 -0.0978 -0.5301
  793MOL0     C 4608  10.865  10.186   9.085  0.2560 -0.6647  0.7076
  793MOL0     C 4609  11.199  10.791   8.563  0.0178 -0.3057 -0.2754
  793MOL0     C 4610  11.274  10.900   8.501  0.0779 -0.4861 -0.4604
  793MOL0     H 4611  11.664  11.178   8.452 -2.9419 -0.0552  0.6600
  793MOL0     H 4612  11.830  11.336   8.374  0.5049 -2.7032 -0.7508
  793MOL0     H 4613  11.962  11.373   8.225  0.6739  1.5894  1.8122
  793MOL0     H 4614  11.953  11.548   8.270  1.9307 -0.5473  0.0130
  793MOL0     H 4615  12.048  11.425   8.004 -2.8352  0.0831 -0.3072
  793MOL0     H 4616  12.145  11.513   8.125 -0.4264 -3.0478  0.1687
  793MOL0     H 4617  11.952  11.702   8.053  0.3140 -0.5097 -1.7031
  793MOL0     H 4618  11.918  11.588   7.922  0.7149 -2.6458 -0.2427
  793MOL0     H 4619  12.211  11.673   7.961  1.1987 -1.5053 -1.4753
  793MOL0     H 4620  12.140  11.600   7.829  1.0334 -1.4578  2.2512
  793MOL0     H 4621  12.204  11.840   7.803  1.5819 -3.0439  1.0267
  793MOL0     H 4622  12.051  11.872   7.900 -2.1256 -2.3223  0.6416
  793MOL0     H 4623  11.926  11.752   7.734  1.4487 -2.1301  0.9655
  793MOL0     H 4624  12.071  11.712   7.638  1.7764  0.7558 -1.0919
  793MOL0     H 4625  11.962  11.989   7.696 -0.8427 -2.1484  1.1958
  793MOL0     H 4626  12.112  11.957   7.603 -0.1903  2.4479 -0.0957
  793MOL0     H 4627  11.994  11.890   7.405 -0.2565  2.2220 -2.0072
  793MOL0     H 4628  11.924  12.035   7.468  0.9725 -0.7310 -3.8866
  793MOL0     H 4629  11.856  11.708   7.342  1.7951  0.3970  0.4309
  793MOL0     H 4630  11.649  11.567   7.267  3.5556  3.1565  1.6328
  793MOL0     H 4631  11.490  11.648   7.297  2.1772  3.4265 -0.7277
  793MOL0     H 4632  11.628  11.450   7.475  1.2809  3.0508 -1.1452
  793MOL0     H 4633  11.504  11.400   7.352  0.7455  0.0118 -0.4878
  793MOL0     H 4634  11.472  11.582   7.609 -0.4382 -0.2515  1.9925
  793MOL0     H 4635  11.343  11.545   7.476  1.2545  0.9690  0.6076
  793MOL0     H 4636  11.488  11.326   7.604  0.3489  0.8285 -0.1906
  793MOL0     H 4637  11.339  11.316   7.531 -2.2508  2.4037 -0.5230
  793MOL0     H 4638  11.134  11.441   7.903  2.4238  1.1769 -1.8505
  793MOL0     H 4639  10.974  11.309   7.973  0.5164  0.2680  0.1452
  793MOL0     H 4640  10.827  11.131   8.243 -0.2451  0.8592  0.3198
  793MOL0     H 4641  10.643  11.016   8.396 -0.5746  1.5247 -0.2071
  793MOL0     H 4642  10.518  10.875   8.518 -0.7180 -1.0585  1.4896
  793MOL0     H 4643  10.662  10.785   8.479  0.1721  3.2653 -0.3871
  793MOL0     H 4644  10.374  10.696   8.506 -0.7695 -0.8729 -0.9209
  793MOL0     H 4645  10.503  10.672   8.618  3.6454  2.4115 -0.8913
  793MOL0     H 4646  10.621  10.506   8.465  0.5328  1.6376 -1.9976
  793MOL0     H 4647  10.513  10.539   8.343  4.0121  1.4949 -0.0861
  793MOL0     H 4648  10.324  10.427   8.482  0.7155 -2.1675  0.5887
  793MOL0     H 4649  10.463  10.317   8.454  0.9693 -0.4908  0.8232
  793MOL0     H 4650  10.420  10.498   8.703 -1.5932  0.0934 -1.2370
  793MOL0     H 4651  10.546  10.382   8.682 -1.0049 -0.1988  2.3925
  793MOL0     H 4652  10.363  10.197   8.656 -3.5518 -1.7278  0.7411
  793MOL0     H 4653  10.254  10.318   8.678  0.5427 -0.8554 -1.9041
  793MOL0     H 4654  10.415  10.347   8.914 -4.4904  3.2503 -2.1675
  793MOL0     H 4655  10.298  10.213   8.904 -0.2743  0.5332  0.7974
  793MOL0     H 4656  10.520  10.118   8.984  3.7049 -2.3062 -0.6341
  793MOL0     H 4657  10.586  10.180   8.840  0.1161  1.4092  2.6377
  793MOL0     H 4658  10.558  10.755   8.071  1.2739 -0.1750  0.1913
  793MOL0     H 4659  10.694  10.883   7.925 -0.2778 -2.9718  0.7065
  793MOL0     H 4660  11.141  10.966   7.769 -1.1272 -1.2721  3.8692
  793MOL0     H 4661  11.298  11.128   7.651 -1.7396 -0.8202 -0.3290
  793MOL0     H 4662  11.572  11.406   8.028 -3.8211 -1.1310 -0.5148
  793MOL0     H 4663  11.400  11.251   8.130 -2.2655  1.6604  1.5822
  793MOL0     H 4664  11.046  11.000   8.274  2.5106 -1.2887 -4.1733
  793MOL0     H 4665  10.928  10.827   8.360  0.2508 -0.4258 -0.8415
  793MOL0     H 4666  11.012  10.639   8.743 -3.1194  0.0278  0.3914
  793MOL0     H 4667  11.129  10.551   8.627 -0.5315  0.0098 -1.2014
  793MOL0     H 4668  10.844  10.514   8.652  1.2361  2.0542  0.8708
  793MOL0     H 4669  10.969  10.396   8.586  2.6966  2.2379 -0.1705
  793MOL0     H 4670  11.005  10.448   8.880  2.5835 -1.3985  0.1317
  793MOL0     H 4671  11.049  10.313   8.791 -0.8500 -1.3102  3.9072
  793MOL0     H 4672  10.762  10.404   8.877 -0.0534  2.2926 -5.4812
  793MOL0     H 4673  10.784  10.257   8.784 -2.3213  1.7477  1.2491
  793MOL0     H 4674  10.879  10.145   9.184 -3.1304 -3.3712  0.2222
  793MOL0     H 4675  11.231  10.741   8.654 -1.6586  1.3009  1.2941
  793MOL0     H 4676  11.377  10.908   8.534  1.2024 -1.3290 -3.4606
  794MOL0     O 4677   6.647   7.009   1.987 -0.2294 -0.7169 -0.3578
  794MOL0     C 4678   6.608   6.908   2.055 -0.1828 -0.3142  0.4878
  794MOL0     O 4679   6.680   6.837   2.151  0.0718  0.0936 -0.1746
  794MOL0     C 4680   6.814   6.866   2.175 -0.1402  0.4706 -0.7444
  794MOL0     C 4681   6.910   6.776   2.132  0.0498  0.0362 -0.9089
  794MOL0     C 4682   7.044   6.799   2.182  0.1361 -0.0604 -0.1792
  794MOL0     C 4683   7.088   6.912   2.256 -0.5809  0.5018 -0.2354
  794MOL0     O 4684   7.219   6.927   2.298 -0.3416 -0.8852  0.0361
  794MOL0     C 4685   7.333   6.911   2.215 -0.0905 -0.1343 -0.1085
  794MOL0     C 4686   7.338   7.027   2.116  0.2647 -0.2304  0.1076
  794MOL0     C 4687   7.471   7.015   2.038  0.2016 -0.2220  0.5894
  794MOL0     C 4688   7.462   6.907   1.927  0.2163 -0.9580  0.0794
  794MOL0     C 4689   7.599   6.865   1.874  1.2376 -0.1693  0.3773
  794MOL0     C 4690   7.589   6.750   1.766 -0.4284 -0.1065  0.2102
  794MOL0     C 4691   7.737   6.700   1.734 -0.2476  0.3414 -0.4136
  794MOL0     C 4692   7.742   6.576   1.643 -0.3226  0.0667 -0.4863
  794MOL0     N 4693   7.684   6.460   1.707  0.3182 -0.7318  0.4947
  794MOL0     C 4694   7.643   6.443   1.840  0.3481  0.4893  0.9099
  794MOL0     C 4695   7.584   6.328   1.844 -0.4538 -0.0739 -0.4922
  794MOL0     C 4696   7.512   6.248   1.947 -0.0794  0.3199 -0.3512
  794MOL0     C 4697   7.612   6.180   2.039  0.5143  0.2786 -1.4214
  794MOL0     C 4698   7.543   6.077   2.132  0.2835  1.0692  0.6425
  794MOL0     C 4699   7.660   6.010   2.219 -0.7155  1.3525 -0.6677
  794MOL0     O 4700   7.774   6.095   2.241  0.1718 -0.5237 -0.0517
  794MOL0     C 4701   7.875   6.070   2.337  0.1747 -0.3030 -0.4490
  794MOL0     C 4702   7.883   5.933   2.378  0.2011  0.3605 -0.8675
  794MOL0     C 4703   7.976   5.910   2.486  0.4510 -0.9677 -0.3652
  794MOL0     C 4704   8.059   6.009   2.542  0.0606  0.2428 -0.5322
  794MOL0     C 4705   8.133   5.980   2.670 -0.3121  0.0573 -0.3601
  794MOL0     O 4706   8.121   5.855   2.726 -0.3339  0.0593 -0.9948
  794MOL0     C 4707   8.207   5.830   2.834 -0.5987 -0.0061 -0.5187
  794MOL0     C 4708   8.308   5.727   2.822 -1.2982 -0.2653  0.0085
  794MOL0     C 4709   8.404   5.700   2.919 -0.0661  0.1430  0.3140
  794MOL0     C 4710   8.397   5.759   3.043  1.8666 -0.2394 -0.1694
  794MOL0     O 4711   8.490   5.737   3.144 -0.0719  0.1900  0.1791
  794MOL0     C 4712   8.530   5.844   3.236  0.4318 -0.9653  0.1813
  794MOL0     C 4713   8.621   5.784   3.341 -0.2043 -0.2197  0.3195
  794MOL0     C 4714   8.533   5.711   3.446 -0.2255 -0.9065  0.0693
  794MOL0     C 4715   8.467   5.797   3.557 -0.4162 -0.2020  0.4800
  794MOL0     C 4716   8.347   5.722   3.616  0.2125 -0.0605  0.2616
  794MOL0     C 4717   8.355   5.586   3.677 -0.3492 -0.4387  0.1807
  794MOL0     C 4718   8.228   5.527   3.737  0.0929  1.7169 -0.4080
  794MOL0     C 4719   8.242   5.369   3.755  0.4291 -1.1684  0.0144
  794MOL0    Cl 4720   8.103   5.299   3.842  0.0373 -0.5307 -0.1163
  794MOL0     C 4721   8.298   5.864   3.050  0.4966  0.0943  0.6700
  794MOL0     C 4722   8.210   5.903   2.950  0.0551 -0.5378 -0.7354
  794MOL0     O 4723   8.218   6.063   2.699 -0.8790  0.8628  0.6840
  794MOL0     C 4724   8.048   6.139   2.488  0.4346  0.6864 -0.7480
  794MOL0     C 4725   7.951   6.173   2.390 -0.2126 -0.3582  0.7789
  794MOL0     N 4726   7.593   6.265   1.721  0.2330 -1.1716  0.9321
  794MOL0     N 4727   7.650   6.349   1.637  0.0351 -0.1084 -0.3389
  794MOL0     C 4728   6.985   7.005   2.284 -0.6390  0.0365 -0.3433
  794MOL0     C 4729   6.849   6.986   2.247 -0.4208 -0.5341 -0.4305
  794MOL0     C 4730   6.479   6.853   2.031 -0.6582  0.2031 -0.3356
  794MOL0     C 4731   6.434   6.844   1.900 -0.0828  0.5103  1.0894
  794MOL0     C 4732   6.312   6.795   1.865  0.5194  1.0932 -0.3703
  794MOL0     C 4733   6.228   6.745   1.967 -0.3475  0.3245 -0.6493
  794MOL0     O 4734   6.103   6.703   1.953 -0.7350  0.2750 -0.7355
  794MOL0     C 4735   6.042   6.739   1.837 -0.1705  1.1316 -0.2330
  794MOL0     C 4736   5.899   6.740   1.888 -0.3970  0.0749  0.3911
  794MOL0     C 4737   5.866   6.799   2.020 -0.0176 -0.0125 -1.3793
  794MOL0     C 4738   5.716   6.838   2.027 -0.2510 -0.3372 -0.4287
  794MOL0     C 4739   5.684   6.974   1.977 -0.2953 -0.8546 -0.5100
  794MOL0     C 4740   5.676   7.088   1.928 -0.8599 -0.3609  0.5278
  794MOL0     C 4741   6.271   6.745   2.100 -0.6719  0.1748 -0.8762
  794MOL0     C 4742   6.398   6.797   2.133 -0.8051  0.5562 -0.0910
  794MOL0     H 4743   6.877   6.695   2.068 -2.6508  0.0506  0.3073
  794MOL0     H 4744   7.109   6.717   2.154 -0.7256 -0.1704 -2.0310
  794MOL0     H 4745   7.336   6.812   2.167  3.3552 -0.7537  1.0784
  794MOL0     H 4746   7.420   6.915   2.282 -1.4713  4.2570  1.8019
  794MOL0     H 4747   7.330   7.130   2.153 -1.5538  0.0722 -0.9564
  794MOL0     H 4748   7.252   7.024   2.048 -1.4075 -0.1264  2.1313
  794MOL0     H 4749   7.560   6.994   2.098  0.9333  1.8151  0.3070
  794MOL0     H 4750   7.492   7.107   1.982  0.3325 -0.0618  0.8959
  794MOL0     H 4751   7.406   6.820   1.962 -0.9088 -0.1391  0.3592
  794MOL0     H 4752   7.410   6.954   1.842  1.9387  3.1763  1.0658
  794MOL0     H 4753   7.665   6.837   1.957 -1.2381 -2.3154  1.7483
  794MOL0     H 4754   7.644   6.958   1.839  0.8965  1.0739  3.0128
  794MOL0     H 4755   7.531   6.786   1.680 -0.2138  0.6978  0.3947
  794MOL0     H 4756   7.527   6.671   1.810 -0.2892 -0.8147 -0.8563
  794MOL0     H 4757   7.802   6.781   1.702  0.6051 -0.0950  0.1601
  794MOL0     H 4758   7.791   6.677   1.827 -0.9038  1.2774  0.2187
  794MOL0     H 4759   7.845   6.550   1.618  0.8024  0.4058  3.1413
  794MOL0     H 4760   7.696   6.595   1.546  1.7349  4.0102 -0.8927
  794MOL0     H 4761   7.637   6.515   1.922 -0.7480  0.8318  0.5528
  794MOL0     H 4762   7.440   6.180   1.901 -1.4550  1.0271  0.6773
  794MOL0     H 4763   7.449   6.313   2.009  2.7850 -0.6011  3.9477
  794MOL0     H 4764   7.656   6.262   2.097  0.8034  1.5678 -3.3936
  794MOL0     H 4765   7.678   6.131   1.968 -2.0198 -0.1877 -3.6384
  794MOL0     H 4766   7.474   6.122   2.204 -0.6094 -1.0215  1.2027
  794MOL0     H 4767   7.487   6.005   2.072  2.0338 -0.6507  0.9569
  794MOL0     H 4768   7.707   5.928   2.163  0.3217  0.8283  0.8959
  794MOL0     H 4769   7.619   5.974   2.314  3.6236 -1.4321  0.4790
  794MOL0     H 4770   7.817   5.856   2.340 -2.5669  1.3967  1.5119
  794MOL0     H 4771   7.988   5.808   2.523  3.2431 -0.9304 -0.9583
  794MOL0     H 4772   8.325   5.664   2.735  0.4325 -0.3141  0.3427
  794MOL0     H 4773   8.473   5.617   2.908 -2.0276 -1.3538 -1.2471
  794MOL0     H 4774   8.442   5.896   3.276  0.1982  1.4548 -3.1005
  794MOL0     H 4775   8.568   5.923   3.172 -2.8557  0.0597 -0.7168
  794MOL0     H 4776   8.675   5.867   3.387 -1.3945  1.3957 -1.0665
  794MOL0     H 4777   8.686   5.711   3.293  4.0706  1.0318  3.5979
  794MOL0     H 4778   8.593   5.647   3.511 -0.4098  1.7108  3.0182
  794MOL0     H 4779   8.453   5.657   3.394  0.6006 -1.2855 -0.8586
  794MOL0     H 4780   8.541   5.825   3.632  3.5505  0.4920 -3.2467
  794MOL0     H 4781   8.426   5.880   3.499 -3.8446 -3.1521 -1.7533
  794MOL0     H 4782   8.259   5.724   3.550 -0.1506 -3.1367  0.4893
  794MOL0     H 4783   8.306   5.774   3.703  2.0892 -1.0517  1.8173
  794MOL0     H 4784   8.424   5.587   3.761  1.6210 -2.6996 -1.2811
  794MOL0     H 4785   8.393   5.517   3.601  3.4079 -0.1484  1.6010
  794MOL0     H 4786   8.206   5.577   3.831 -0.2749  0.8588 -0.0272
  794MOL0     H 4787   8.139   5.543   3.675  0.2935  1.4635 -0.7655
  794MOL0     H 4788   8.337   5.353   3.807 -0.4460  0.5207  2.2893
  794MOL0     H 4789   8.250   5.324   3.656 -3.8178 -0.7731 -0.6997
  794MOL0     H 4790   8.268   5.927   3.133  0.3877 -1.4193  1.8273
  794MOL0     H 4791   8.129   5.974   2.958 -1.4003 -2.0830 -1.1788
  794MOL0     H 4792   8.103   6.222   2.531 -1.0729  1.9704 -1.2288
  794MOL0     H 4793   7.946   6.272   2.347 -0.1276 -0.8743 -0.4429
  794MOL0     H 4794   7.002   7.098   2.337 -3.1570  2.0546 -2.7290
  794MOL0     H 4795   6.777   7.064   2.269  1.0867  1.2796 -1.6025
  794MOL0     H 4796   6.502   6.860   1.818  0.0095 -0.8700  0.8644
  794MOL0     H 4797   6.290   6.798   1.758 -1.2994  0.5329 -0.0513
  794MOL0     H 4798   6.054   6.662   1.761 -3.4152 -0.1233  0.3592
  794MOL0     H 4799   6.072   6.834   1.791 -0.0134  1.5453  0.7064
  794MOL0     H 4800   5.851   6.801   1.811 -4.5028 -0.0976  2.5220
  794MOL0     H 4801   5.849   6.642   1.884 -1.3004  0.4635  1.6025
  794MOL0     H 4802   5.921   6.893   2.035 -0.0037 -0.1652 -0.4007
  794MOL0     H 4803   5.874   6.729   2.104 -0.9569  1.5014  0.0436
  794MOL0     H 4804   5.667   6.760   1.967  2.1964  0.4747 -3.7964
  794MOL0     H 4805   5.673   6.817   2.125  1.3266 -1.2718  0.0935
  794MOL0     H 4806   5.665   7.183   1.879 -2.7183 -0.8413 -0.0398
  794MOL0     H 4807   6.209   6.716   2.184  0.8336  1.1042  0.6143
  794MOL0     H 4808   6.440   6.800   2.233  0.6807 -0.9307 -0.6105
  795MOL0     O 4809  10.879  10.033   3.466 -0.6604 -0.1240 -0.0549
  795MOL0     C 4810  10.817  10.079   3.375  0.2324 -0.5626 -1.0368
  795MOL0     O 4811  10.819  10.217   3.341 -0.2649  0.8637  0.6472
  795MOL0     C 4812  10.910  10.301   3.396  0.2446 -1.2637 -1.5287
  795MOL0     C 4813  10.872  10.423   3.463  0.2156 -0.5587 -0.3232
  795MOL0     C 4814  10.972  10.510   3.512 -0.2616 -0.6801  1.1767
  795MOL0     C 4815  11.102  10.475   3.499 -0.0314  0.0402  0.7086
  795MOL0     O 4816  11.192  10.554   3.573  0.8023  0.0945  0.3451
  795MOL0     C 4817  11.261  10.479   3.677  0.3450 -0.2822  0.1913
  795MOL0     C 4818  11.179  10.461   3.801 -0.9542 -0.5874 -0.4007
  795MOL0     C 4819  11.229  10.340   3.879  0.4478 -0.6303 -0.0687
  795MOL0     C 4820  11.124  10.294   3.994 -0.5918  0.8185 -0.6527
  795MOL0     C 4821  11.172  10.161   4.054  0.1073 -0.4234  0.2685
  795MOL0     C 4822  11.287  10.184   4.146  0.2560  0.7005  0.8755
  795MOL0     C 4823  11.267  10.269   4.267  0.5937 -0.6062 -0.4205
  795MOL0     C 4824  11.312  10.412   4.256  1.2995 -0.8332  0.2674
  795MOL0     N 4825  11.441  10.440   4.190 -0.3377  0.2982 -0.4041
  795MOL0     C 4826  11.553  10.362   4.203 -0.2577  0.6935 -0.2514
  795MOL0     C 4827  11.654  10.413   4.139 -0.8232 -0.9989 -0.1174
  795MOL0     C 4828  11.797  10.364   4.115  0.0886 -0.0476 -0.5023
  795MOL0     C 4829  11.822  10.218   4.146 -0.3131  0.2525 -0.2269
  795MOL0     C 4830  11.762  10.117   4.050  0.9351 -0.1950 -0.7788
  795MOL0     C 4831  11.786   9.973   4.086  0.7551 -0.7552 -0.8402
  795MOL0     O 4832  11.847   9.894   3.984  0.7785 -0.6176 -0.3700
  795MOL0     C 4833  11.983   9.897   3.963 -0.7475 -0.9469 -0.7081
  795MOL0     C 4834  12.028   9.823   3.853  0.5841  1.1538  0.0037
  795MOL0     C 4835  12.165   9.827   3.823  0.1277  0.1222  0.3594
  795MOL0     C 4836  12.259   9.881   3.909  0.5694 -0.3481 -0.3714
  795MOL0     C 4837  12.397   9.875   3.867 -0.2582 -0.4799 -0.1977
  795MOL0     O 4838  12.480   9.937   3.949 -0.6359 -0.4095  0.2509
  795MOL0     C 4839  12.615   9.945   3.914 -0.1206 -0.5890  1.0216
  795MOL0     C 4840  12.653  10.012   3.800  0.1472 -0.1975 -0.5060
  795MOL0     C 4841  12.786  10.008   3.763  0.0565  0.2325 -0.1952
  795MOL0     C 4842  12.886   9.934   3.837 -0.2018  1.1293 -0.5181
  795MOL0     O 4843  13.019   9.945   3.804 -0.0438 -0.0771 -0.5372
  795MOL0     C 4844  13.123   9.890   3.884  0.0640  0.7202 -1.1449
  795MOL0     C 4845  13.266   9.913   3.825 -0.0725  0.2785 -0.4750
  795MOL0     C 4846  13.290   9.863   3.682 -0.1254 -0.4177  0.1023
  795MOL0     C 4847  13.434   9.909   3.637 -0.3383  0.1624  0.1906
  795MOL0     C 4848  13.452  10.055   3.626  0.0487 -0.5136  1.1235
  795MOL0     C 4849  13.597  10.087   3.592  0.6130 -1.0785  0.6652
  795MOL0     C 4850  13.599  10.244   3.567  0.2741  0.6750  0.0612
  795MOL0     C 4851  13.731  10.286   3.480  0.3457 -0.0747  0.1268
  795MOL0    Cl 4852  13.695  10.456   3.417 -0.2886 -0.1264 -0.0256
  795MOL0     C 4853  12.836   9.865   3.949 -0.6604  0.6174  0.0939
  795MOL0     C 4854  12.704   9.863   3.981  0.1687 -0.3238 -0.1085
  795MOL0     O 4855  12.432   9.803   3.771  0.2027  0.0646 -1.3347
  795MOL0     C 4856  12.218   9.955   4.010  0.2152  0.1271  0.5155
  795MOL0     C 4857  12.084   9.957   4.039  0.0313 -0.6798  0.1905
  795MOL0     N 4858  11.607  10.537   4.091  1.7885  0.3171 -0.2430
  795MOL0     N 4859  11.481  10.546   4.113  1.1584 -0.3378  0.4865
  795MOL0     C 4860  11.142  10.354   3.441 -1.3202 -0.7236 -0.5628
  795MOL0     C 4861  11.044  10.275   3.381  0.1224 -0.1816 -0.0182
  795MOL0     C 4862  10.738   9.980   3.309 -0.0631  0.7085  1.1004
  795MOL0     C 4863  10.738   9.842   3.339 -0.0989  0.2881 -0.9936
  795MOL0     C 4864  10.670   9.757   3.258  0.6426  0.1569 -0.2928
  795MOL0     C 4865  10.595   9.802   3.146 -0.3447 -0.7720 -0.5488
  795MOL0     O 4866  10.525   9.717   3.061  0.1378  1.0584  1.1825
  795MOL0     C 4867  10.518   9.582   3.079 -0.0620  0.0143 -0.4836
  795MOL0     C 4868  10.476   9.505   2.954  1.2666  0.2983  0.9298
  795MOL0     C 4869  10.352   9.567   2.878  0.0908 -0.4212  0.3018
  795MOL0     C 4870  10.231   9.582   2.972 -0.6751  0.2430 -1.1621
  795MOL0     C 4871  10.124   9.629   2.897  1.0175  1.0642 -0.0534
  795MOL0     C 4872  10.039   9.688   2.846 -0.3163 -0.7427 -0.2396
  795MOL0     C 4873  10.593   9.940   3.117 -1.3309  0.1851 -0.0108
  795MOL0     C 4874  10.663  10.028   3.201 -0.7005  0.0794  0.7845
  795MOL0     H 4875  10.764  10.432   3.471  0.3148 -0.8839  2.1694
  795MOL0     H 4876  10.964  10.605   3.563  0.6260 -1.6474  3.2025
  795MOL0     H 4877  11.336  10.553   3.708 -0.8358  0.7786  0.5813
  795MOL0     H 4878  11.302  10.381   3.651 -1.9010 -0.5286 -2.8741
  795MOL0     H 4879  11.071  10.461   3.781 -1.3993  2.3302  1.2882
  795MOL0     H 4880  11.192  10.537   3.879  0.6357 -2.0146  0.7847
  795MOL0     H 4881  11.326  10.354   3.927 -0.9679  1.8494  2.4027
  795MOL0     H 4882  11.237  10.254   3.813  1.5177  0.0685 -0.8905
  795MOL0     H 4883  11.110  10.370   4.072 -0.1377  1.1374 -0.8758
  795MOL0     H 4884  11.027  10.273   3.949 -0.4044  0.0309 -0.7139
  795MOL0     H 4885  11.198  10.095   3.971  3.2509  0.1733  0.6572
  795MOL0     H 4886  11.087  10.121   4.109 -1.9936  2.5399 -0.5346
  795MOL0     H 4887  11.372  10.216   4.085  0.2856  0.7826  0.9598
  795MOL0     H 4888  11.326  10.091   4.189  2.9216  1.3660  0.1136
  795MOL0     H 4889  11.161  10.264   4.295 -0.4533  0.2898 -3.7309
  795MOL0     H 4890  11.331  10.220   4.340 -1.1748 -1.9346  0.3153
  795MOL0     H 4891  11.337  10.459   4.352 -2.1390  1.7139  0.1155
  795MOL0     H 4892  11.247  10.488   4.211  3.8482  0.6196 -1.2464
  795MOL0     H 4893  11.558  10.271   4.262 -3.3874  0.2980 -0.4364
  795MOL0     H 4894  11.864  10.419   4.182  0.0444 -2.3598  1.5625
  795MOL0     H 4895  11.813  10.385   4.009 -2.3402  0.2210 -0.8585
  795MOL0     H 4896  11.777  10.184   4.240 -0.7112  0.0296 -0.4955
  795MOL0     H 4897  11.930  10.211   4.161 -0.0417 -0.7471 -2.2461
  795MOL0     H 4898  11.657  10.135   4.027  0.2511  1.8279  3.0352
  795MOL0     H 4899  11.812  10.120   3.953  1.4444 -0.2367 -0.5212
  795MOL0     H 4900  11.694   9.918   4.104  0.0469  0.5520 -0.3594
  795MOL0     H 4901  11.850   9.981   4.175  1.1087  2.1565 -1.2702
  795MOL0     H 4902  11.962   9.768   3.787 -1.2246 -0.4919  2.9592
  795MOL0     H 4903  12.207   9.767   3.743 -1.6201 -0.7717  0.0411
  795MOL0     H 4904  12.584  10.078   3.748 -3.2478 -0.8533  2.7271
  795MOL0     H 4905  12.823  10.072   3.684 -2.6656  1.2915 -0.7042
  795MOL0     H 4906  13.114   9.784   3.909 -0.3895  1.6853  3.8914
  795MOL0     H 4907  13.124   9.945   3.979  1.0648 -2.5891  0.9337
  795MOL0     H 4908  13.340   9.863   3.888  1.6176  1.3982 -1.4792
  795MOL0     H 4909  13.271  10.022   3.830 -2.9414  0.4436  1.9999
  795MOL0     H 4910  13.222   9.912   3.612 -2.7492  2.6188  4.3154
  795MOL0     H 4911  13.266   9.757   3.695 -2.4581  0.2685  2.1960
  795MOL0     H 4912  13.499   9.875   3.719 -0.3743 -2.5374 -0.7934
  795MOL0     H 4913  13.458   9.849   3.549  0.1537 -0.4224  0.7040
  795MOL0     H 4914  13.439  10.112   3.719  1.4594  0.7704  0.5822
  795MOL0     H 4915  13.390  10.087   3.542  1.2494  1.1851  0.8342
  795MOL0     H 4916  13.614  10.040   3.495 -2.9395  1.1786 -1.2379
  795MOL0     H 4917  13.673  10.057   3.665  1.2653  0.2169  0.5496
  795MOL0     H 4918  13.513  10.266   3.504  1.9374  0.2544 -2.5190
  795MOL0     H 4919  13.589  10.301   3.660  0.1600  2.6618 -1.1147
  795MOL0     H 4920  13.740  10.213   3.400 -2.9121 -0.3907 -0.0723
  795MOL0     H 4921  13.818  10.283   3.547 -0.0339  0.1990  0.6375
  795MOL0     H 4922  12.909   9.807   4.006 -0.9518  1.6903  1.6086
  795MOL0     H 4923  12.670   9.794   4.057 -0.4169  2.7404  2.6374
  795MOL0     H 4924  12.292  10.013   4.064  2.6750  0.1035 -2.5636
  795MOL0     H 4925  12.061  10.017   4.126 -4.7441 -1.0858 -0.5315
  795MOL0     H 4926  11.247  10.329   3.437 -0.7023  1.8019 -2.8197
  795MOL0     H 4927  11.077  10.195   3.315  0.7971  1.6400 -1.9982
  795MOL0     H 4928  10.798   9.801   3.419 -3.0443  0.4213  1.4602
  795MOL0     H 4929  10.677   9.655   3.295 -2.7280  0.3069  1.1192
  795MOL0     H 4930  10.449   9.559   3.160  0.6951  1.5444  0.6358
  795MOL0     H 4931  10.611   9.537   3.112  0.5590  2.1563  0.9124
  795MOL0     H 4932  10.562   9.504   2.886  2.2607  0.5703  2.1300
  795MOL0     H 4933  10.437   9.403   2.966 -3.8378  1.7285 -1.0571
  795MOL0     H 4934  10.320   9.506   2.793 -1.4794 -1.7538  1.7698
  795MOL0     H 4935  10.387   9.664   2.841  2.0533 -0.9165  0.7281
  795MOL0     H 4936  10.213   9.495   3.036 -0.8936  0.9852 -0.1857
  795MOL0     H 4937  10.261   9.656   3.046 -2.6022  0.8029 -0.8955
  795MOL0     H 4938   9.960   9.748   2.804 -0.9432 -2.5298 -1.7569
  795MOL0     H 4939  10.549   9.972   3.023  3.6668  1.4635 -2.2826
  795MOL0     H 4940  10.662  10.132   3.167  1.9654  0.2642  1.0664
  796MOL0     O 4941   2.243   3.212   3.218  0.0304  0.2064  0.5086
  796MOL0     C 4942   2.146   3.160   3.268  0.5302 -0.3056  0.9249
  796MOL0     O 4943   2.134   3.126   3.399 -0.3080 -0.3739 -0.2651
  796MOL0     C 4944   2.242   3.134   3.481  0.0585 -0.1975 -0.0607
  796MOL0     C 4945   2.264   3.037   3.570 -0.7818  0.5383 -1.2716
  796MOL0     C 4946   2.370   3.031   3.670  0.0877 -0.4161 -0.2198
  796MOL0     C 4947   2.459   3.137   3.675  0.7474  0.5463  0.0056
  796MOL0     O 4948   2.557   3.129   3.769  0.3631 -0.4623 -1.1626
  796MOL0     C 4949   2.645   3.238   3.792  0.5936  0.3211  0.2752
  796MOL0     C 4950   2.755   3.200   3.891  0.0324  0.0972  0.9103
  796MOL0     C 4951   2.839   3.081   3.835  0.4602  0.9847 -0.0562
  796MOL0     C 4952   2.971   3.038   3.910 -0.1704 -1.0155 -0.4159
  796MOL0     C 4953   3.076   2.995   3.817  0.5099  0.3974 -0.0043
  796MOL0     C 4954   3.183   2.922   3.917 -0.2889 -0.0763 -0.0064
  796MOL0     C 4955   3.307   2.920   3.833  0.2577  0.6693  0.4680
  796MOL0     C 4956   3.293   2.838   3.703 -0.3527  0.8479  0.0175
  796MOL0     N 4957   3.425   2.792   3.654 -1.0982 -0.0440  0.3957
  796MOL0     C 4958   3.450   2.682   3.571  0.2505 -0.8483 -0.4748
  796MOL0     C 4959   3.582   2.686   3.547  0.7856  0.1771  0.1881
  796MOL0     C 4960   3.653   2.604   3.441  0.0488  0.4218  1.1548
  796MOL0     C 4961   3.739   2.485   3.481  0.2105 -0.0391  0.8555
  796MOL0     C 4962   3.664   2.374   3.534  0.4996  0.1354  0.2183
  796MOL0     C 4963   3.756   2.247   3.543  0.1271  0.5718  0.0076
  796MOL0     O 4964   3.674   2.129   3.536  0.0166  0.2234  0.3384
  796MOL0     C 4965   3.672   2.043   3.428  0.0579  0.2880 -0.7949
  796MOL0     C 4966   3.609   1.920   3.440  0.3077 -0.1473 -0.1338
  796MOL0     C 4967   3.586   1.843   3.327 -0.4331  0.1309 -0.7365
  796MOL0     C 4968   3.654   1.871   3.214 -0.2077 -0.0752 -0.5633
  796MOL0     C 4969   3.640   1.779   3.091  0.2890 -1.1708  0.3193
  796MOL0     O 4970   3.661   1.843   2.960  0.7047 -0.2755 -0.8061
  796MOL0     C 4971   3.643   1.768   2.848 -0.5375 -0.6942  0.3098
  796MOL0     C 4972   3.626   1.836   2.729  0.5568  0.4810 -0.1731
  796MOL0     C 4973   3.614   1.769   2.607  0.2467 -0.4468  0.5426
  796MOL0     C 4974   3.628   1.627   2.603  0.7641 -0.8769 -0.6263
  796MOL0     O 4975   3.606   1.539   2.502  0.7660 -0.1831  0.2675
  796MOL0     C 4976   3.634   1.599   2.373 -0.1666  0.2212 -0.6136
  796MOL0     C 4977   3.524   1.549   2.281 -0.4262  0.2750  0.5397
  796MOL0     C 4978   3.551   1.583   2.130  0.2887 -0.3697 -0.5237
  796MOL0     C 4979   3.655   1.493   2.061  0.2705 -0.4655 -0.4386
  796MOL0     C 4980   3.687   1.554   1.921  0.6295 -0.0630 -0.6207
  796MOL0     C 4981   3.564   1.559   1.827 -0.8040 -0.2145 -0.1797
  796MOL0     C 4982   3.470   1.437   1.814  0.1221 -0.5434  0.1291
  796MOL0     C 4983   3.562   1.311   1.771 -0.4944  0.2728 -0.2676
  796MOL0    Cl 4984   3.604   1.289   1.598  0.8161 -0.0214 -0.0967
  796MOL0     C 4985   3.676   1.559   2.726  0.3578 -0.5823  0.4261
  796MOL0     C 4986   3.680   1.633   2.842 -0.7187 -0.0316  0.4681
  796MOL0     O 4987   3.592   1.669   3.115 -0.4972 -0.4279 -0.0228
  796MOL0     C 4988   3.726   1.986   3.201 -0.2747 -0.4825  0.4940
  796MOL0     C 4989   3.738   2.068   3.312 -0.5821 -0.6161  0.6163
  796MOL0     N 4990   3.630   2.800   3.607 -0.1492  0.0662 -0.1047
  796MOL0     N 4991   3.537   2.862   3.674 -0.6746  0.1558  1.1031
  796MOL0     C 4992   2.441   3.244   3.581  0.5638 -0.3378 -0.1127
  796MOL0     C 4993   2.334   3.240   3.494 -0.4147 -0.9831  0.3479
  796MOL0     C 4994   2.029   3.144   3.179 -0.2919  0.0388  0.0173
  796MOL0     C 4995   2.020   3.205   3.044  0.0685 -0.1551  0.4631
  796MOL0     C 4996   1.911   3.188   2.955  0.0893 -0.3959 -0.1192
  796MOL0     C 4997   1.799   3.110   3.002  0.1718 -0.7140 -0.0346
  796MOL0     O 4998   1.689   3.090   2.925  0.7984 -0.7208 -0.4015
  796MOL0     C 4999   1.637   3.207   2.846 -0.3463 -0.0415 -0.4963
  796MOL0     C 5000   1.490   3.176   2.821 -0.0669 -0.2375  0.0118
  796MOL0     C 5001   1.421   3.082   2.928 -0.2128 -0.2071  1.0816
  796MOL0     C 5002   1.263   3.083   2.940  0.1194  1.1173 -0.8812
  796MOL0     C 5003   1.213   3.091   3.074 -0.4069 -0.0605  0.1872
  796MOL0     C 5004   1.185   3.098   3.191  0.9721 -0.2923 -1.0856
  796MOL0     C 5005   1.807   3.059   3.132 -0.8271  0.4757 -0.7727
  796MOL0     C 5006   1.918   3.066   3.219  0.0599  0.3892 -0.0535
  796MOL0     H 5007   2.200   2.949   3.578 -1.5957  1.2026  5.0973
  796MOL0     H 5008   2.385   2.941   3.728  3.4486  1.2046  1.6944
  796MOL0     H 5009   2.581   3.315   3.836 -3.3690 -2.1139 -0.6544
  796MOL0     H 5010   2.690   3.273   3.699  1.9790 -1.9437  0.0094
  796MOL0     H 5011   2.706   3.176   3.985  2.0590  0.5384  2.1275
  796MOL0     H 5012   2.822   3.283   3.913 -1.2719  1.3298  0.4380
  796MOL0     H 5013   2.860   3.107   3.731 -1.3360  1.8908 -0.2471
  796MOL0     H 5014   2.784   2.987   3.835  0.2767  1.0632 -1.7574
  796MOL0     H 5015   3.003   3.126   3.966 -2.8198  0.8111 -1.5829
  796MOL0     H 5016   2.941   2.964   3.984 -0.6465  1.3370  1.8862
  796MOL0     H 5017   3.116   3.073   3.753  0.7967  0.0877 -0.2066
  796MOL0     H 5018   3.042   2.915   3.751  0.2004 -0.7022  1.4238
  796MOL0     H 5019   3.148   2.820   3.936  0.4487 -0.3435 -0.0664
  796MOL0     H 5020   3.210   2.974   4.009  2.4737  0.3508 -0.9832
  796MOL0     H 5021   3.336   3.022   3.806 -2.8547  2.1606  2.2554
  796MOL0     H 5022   3.392   2.879   3.889 -0.7233 -0.7748  0.9496
  796MOL0     H 5023   3.250   2.906   3.629  2.4112  2.9813  0.1936
  796MOL0     H 5024   3.217   2.761   3.716 -0.8924  1.8016  3.6718
  796MOL0     H 5025   3.373   2.609   3.550 -1.0996  0.8871 -1.8823
  796MOL0     H 5026   3.714   2.673   3.382  0.8014 -0.1958  1.1934
  796MOL0     H 5027   3.574   2.571   3.374  0.9322  0.7731 -0.0987
  796MOL0     H 5028   3.808   2.524   3.557  0.0365  2.8931 -0.3410
  796MOL0     H 5029   3.788   2.459   3.386 -2.8588  4.7957 -2.5374
  796MOL0     H 5030   3.623   2.399   3.633 -0.7155 -0.6526 -0.0561
  796MOL0     H 5031   3.580   2.352   3.468 -0.1484  3.9427 -0.4152
  796MOL0     H 5032   3.807   2.244   3.640 -0.6475  1.6290  0.4645
  796MOL0     H 5033   3.837   2.235   3.471  0.6307 -0.8865  0.7701
  796MOL0     H 5034   3.555   1.897   3.531 -2.1131 -1.0920 -1.7107
  796MOL0     H 5035   3.530   1.752   3.344  2.1182 -1.7467 -1.7244
  796MOL0     H 5036   3.596   1.941   2.731 -2.1966 -0.2371  1.0169
  796MOL0     H 5037   3.578   1.828   2.523 -4.1003 -2.2163  0.9043
  796MOL0     H 5038   3.731   1.569   2.333 -0.3860  1.3049 -2.0428
  796MOL0     H 5039   3.632   1.708   2.382 -5.2480  0.2589  1.1483
  796MOL0     H 5040   3.431   1.598   2.312  1.0385  2.4553  1.7931
  796MOL0     H 5041   3.520   1.440   2.285  1.2428  0.1309 -0.5382
  796MOL0     H 5042   3.582   1.687   2.128 -1.9574  0.3548 -0.8503
  796MOL0     H 5043   3.458   1.573   2.073 -1.2642 -0.0102  1.7956
  796MOL0     H 5044   3.741   1.491   2.129 -0.6681 -1.7429  0.7722
  796MOL0     H 5045   3.625   1.391   2.038  0.8701 -0.2642 -2.2725
  796MOL0     H 5046   3.763   1.488   1.878 -0.8091 -2.9694  0.9832
  796MOL0     H 5047   3.730   1.655   1.926 -0.7657  0.4771  1.5304
  796MOL0     H 5048   3.595   1.568   1.722 -2.9128 -4.7176 -1.4473
  796MOL0     H 5049   3.494   1.641   1.837  0.7450  1.4254 -1.9236
  796MOL0     H 5050   3.423   1.419   1.911  2.0719 -0.4681  1.1219
  796MOL0     H 5051   3.390   1.447   1.740 -1.6492 -1.6188  1.7930
  796MOL0     H 5052   3.499   1.223   1.785  3.1114 -2.2484  1.7720
  796MOL0     H 5053   3.652   1.287   1.828 -0.8233 -3.0947 -0.9579
  796MOL0     H 5054   3.714   1.457   2.726  1.8928 -0.0476  1.0522
  796MOL0     H 5055   3.715   1.584   2.932  0.0519  1.8218  1.2282
  796MOL0     H 5056   3.776   2.020   3.110  0.2292  3.3855  2.0105
  796MOL0     H 5057   3.780   2.164   3.284 -0.1494 -0.6956  0.9793
  796MOL0     H 5058   2.520   3.317   3.567  1.5040 -1.5546 -1.4804
  796MOL0     H 5059   2.336   3.322   3.423  2.5110 -1.1190  0.1551
  796MOL0     H 5060   2.104   3.258   2.999 -1.1737  0.8434 -0.7497
  796MOL0     H 5061   1.916   3.224   2.853  2.6786 -4.2148 -1.5537
  796MOL0     H 5062   1.691   3.203   2.751 -2.6747  0.2434 -1.9151
  796MOL0     H 5063   1.652   3.306   2.891 -3.1829 -0.6912  2.2207
  796MOL0     H 5064   1.441   3.273   2.825  0.7681  0.1908  0.0897
  796MOL0     H 5065   1.480   3.122   2.726 -0.3135 -4.5517  2.2344
  796MOL0     H 5066   1.468   3.111   3.022  2.7052  2.0061 -0.8777
  796MOL0     H 5067   1.457   2.980   2.910  1.8963  0.6973 -0.2599
  796MOL0     H 5068   1.223   3.166   2.881  4.2295  2.0312 -2.7840
  796MOL0     H 5069   1.233   2.991   2.889  0.6627  0.3730  0.1032
  796MOL0     H 5070   1.149   3.106   3.292 -2.4567 -0.8110 -2.1341
  796MOL0     H 5071   1.720   3.016   3.180  0.4543 -0.5377  0.7227
  796MOL0     H 5072   1.923   3.020   3.317 -3.4444 -0.7680 -0.2767
  797MOL0     O 5073   9.761   9.212  11.271  0.4480 -0.9742  0.0812
  797MOL0     C 5074   9.710   9.107  11.255 -0.7633  0.3273 -0.1681
  797MOL0     O 5075   9.655   9.063  11.143  0.4025  1.3468  0.7806
  797MOL0     C 5076   9.622   9.146  11.034  0.6470  0.6322  0.7015
  797MOL0     C 5077   9.565   9.089  10.918  0.3618  0.1485 -0.0988
  797MOL0     C 5078   9.526   9.154  10.805 -0.7826 -0.1181 -0.2166
  797MOL0     C 5079   9.534   9.295  10.799 -0.3861  0.0896  0.5051
  797MOL0     O 5080   9.482   9.358  10.696  1.1659 -0.7823 -0.7645
  797MOL0     C 5081   9.559   9.462  10.649  0.0533  0.3623  0.8955
  797MOL0     C 5082   9.530   9.527  10.510  0.3888  0.1184  0.8048
  797MOL0     C 5083   9.532   9.424  10.398  1.4014  0.4049  0.1829
  797MOL0     C 5084   9.454   9.477  10.268  0.3668 -0.4437 -0.2181
  797MOL0     C 5085   9.398   9.360  10.188  0.0006 -0.2184 -0.3522
  797MOL0     C 5086   9.523   9.274  10.148  0.1737  0.0143  1.1360
  797MOL0     C 5087   9.489   9.140  10.084 -0.5852  0.1043 -0.1340
  797MOL0     C 5088   9.400   9.146   9.956  0.7652  0.6911 -0.1187
  797MOL0     N 5089   9.394   9.012   9.898  0.3055 -0.0253 -0.5962
  797MOL0     C 5090   9.307   8.910   9.939  0.3050  0.6809 -0.0506
  797MOL0     C 5091   9.325   8.817   9.843  1.2616  0.2876  0.8508
  797MOL0     C 5092   9.234   8.701   9.827  0.2004  0.0414 -1.0546
  797MOL0     C 5093   9.294   8.572   9.894 -0.6212  0.6074 -0.2043
  797MOL0     C 5094   9.372   8.487   9.786 -0.0626  0.2135 -0.2138
  797MOL0     C 5095   9.510   8.550   9.755 -0.1593  0.0082 -0.3693
  797MOL0     O 5096   9.629   8.469   9.741 -0.2989 -0.7317  0.1095
  797MOL0     C 5097   9.654   8.378   9.838  0.4731 -0.7457 -0.2020
  797MOL0     C 5098   9.623   8.401   9.970  0.0314  0.6140 -0.1330
  797MOL0     C 5099   9.651   8.301  10.069  0.3186 -0.2227 -0.1985
  797MOL0     C 5100   9.723   8.182  10.041 -0.2816  0.5774  0.7276
  797MOL0     C 5101   9.768   8.083  10.143 -0.4647 -0.4810  0.2417
  797MOL0     O 5102   9.835   7.981  10.097 -0.3246 -0.4330  0.6676
  797MOL0     C 5103   9.941   7.914  10.165 -0.1319  0.8382 -0.3525
  797MOL0     C 5104  10.040   7.976  10.237 -0.3937  0.1830  0.6346
  797MOL0     C 5105  10.127   7.898  10.321  0.0870  0.0190  0.4616
  797MOL0     C 5106  10.111   7.756  10.325  0.7983 -0.5226 -0.9768
  797MOL0     O 5107  10.185   7.670  10.407 -0.8483 -0.2442  0.3002
  797MOL0     C 5108  10.307   7.705  10.466  0.6135 -0.5908  0.8087
  797MOL0     C 5109  10.282   7.768  10.602 -0.5929  0.3598  0.9254
  797MOL0     C 5110  10.248   7.677  10.720  0.3339 -0.1627  0.3268
  797MOL0     C 5111  10.159   7.556  10.690 -0.8557 -1.2223 -0.4468
  797MOL0     C 5112  10.125   7.476  10.812 -0.4447 -0.8212 -0.1389
  797MOL0     C 5113  10.234   7.402  10.885 -0.3707 -0.6589  0.1731
  797MOL0     C 5114  10.197   7.352  11.021  0.1927  0.0394 -0.3810
  797MOL0     C 5115  10.091   7.240  11.044 -0.0527 -0.3288  0.1870
  797MOL0    Cl 5116  10.080   7.123  10.901 -0.2572  0.2727  0.3183
  797MOL0     C 5117   9.999   7.699  10.253 -0.1182 -0.5811  0.2121
  797MOL0     C 5118   9.927   7.776  10.165  0.5211  0.9782 -0.0966
  797MOL0     O 5119   9.753   8.106  10.263  0.6710 -0.6243  0.9083
  797MOL0     C 5120   9.751   8.157   9.903  0.6259  0.2896 -0.2196
  797MOL0     C 5121   9.719   8.256   9.802  0.6359 -0.6344  0.1346
  797MOL0     N 5122   9.408   8.863   9.748  1.1083  0.4290  0.0553
  797MOL0     N 5123   9.454   8.972   9.781 -1.6483  0.3020 -1.0216
  797MOL0     C 5124   9.577   9.364  10.915 -0.2548 -0.2179 -0.2198
  797MOL0     C 5125   9.624   9.288  11.036 -1.3094 -0.4951  0.2233
  797MOL0     C 5126   9.698   9.004  11.365  0.5874  0.5358  0.3136
  797MOL0     C 5127   9.640   8.878  11.354  0.4997 -0.0301 -0.4594
  797MOL0     C 5128   9.600   8.796  11.459 -0.2554 -0.6449  0.0595
  797MOL0     C 5129   9.623   8.833  11.592  0.3507 -0.5234 -0.2462
  797MOL0     O 5130   9.594   8.757  11.707  0.2105 -0.5452  0.6580
  797MOL0     C 5131   9.486   8.666  11.696  0.3261 -0.3858 -1.0013
  797MOL0     C 5132   9.350   8.704  11.764 -0.6190  0.7247  0.6887
  797MOL0     C 5133   9.381   8.750  11.903  0.4159  0.1367 -0.9728
  797MOL0     C 5134   9.245   8.770  11.987  0.9689 -0.5705 -0.4998
  797MOL0     C 5135   9.181   8.642  12.007 -1.0532 -0.8355 -0.1808
  797MOL0     C 5136   9.124   8.537  12.015  1.3875 -0.0291  0.2026
  797MOL0     C 5137   9.681   8.960  11.607 -0.5116  0.3122 -0.5539
  797MOL0     C 5138   9.718   9.044  11.499  1.0833 -0.4086  0.1516
  797MOL0     H 5139   9.557   8.981  10.912 -3.9179  0.3245 -0.5816
  797MOL0     H 5140   9.492   9.089  10.726  0.4790 -0.3886 -0.5630
  797MOL0     H 5141   9.666   9.439  10.642 -0.1911 -0.6059  0.1827
  797MOL0     H 5142   9.544   9.545  10.718 -3.0764  1.4726 -0.9008
  797MOL0     H 5143   9.599   9.604  10.474  0.9327  0.2736  2.1201
  797MOL0     H 5144   9.434   9.577  10.522 -0.9294 -2.2494  0.6828
  797MOL0     H 5145   9.462   9.347  10.430  1.7396 -0.0868 -0.2426
  797MOL0     H 5146   9.635   9.388  10.387  1.5998  0.3410  1.9539
  797MOL0     H 5147   9.363   9.530  10.298  0.1643 -0.0167 -1.5215
  797MOL0     H 5148   9.508   9.552  10.210 -2.6377  2.2264  0.1598
  797MOL0     H 5149   9.337   9.387  10.101 -0.0353 -2.7457 -1.2008
  797MOL0     H 5150   9.342   9.294  10.254 -0.3346  0.2612 -0.1509
  797MOL0     H 5151   9.576   9.243  10.238 -2.5848 -1.6190  2.3094
  797MOL0     H 5152   9.588   9.326  10.077 -2.5636 -1.2876 -2.6493
  797MOL0     H 5153   9.579   9.083  10.062 -1.2347 -0.4753 -1.3837
  797MOL0     H 5154   9.430   9.088  10.161 -1.1609  0.7304 -0.1476
  797MOL0     H 5155   9.448   9.208   9.880  1.7236 -1.0250 -0.9690
  797MOL0     H 5156   9.302   9.193   9.968 -0.1045  0.0717 -3.5547
  797MOL0     H 5157   9.244   8.896  10.026  1.2495 -1.3363  0.3517
  797MOL0     H 5158   9.216   8.686   9.720  1.2804  2.7883 -1.6989
  797MOL0     H 5159   9.140   8.729   9.874 -1.7510  0.4259 -4.7971
  797MOL0     H 5160   9.220   8.502   9.933  1.2706 -1.5676 -0.2376
  797MOL0     H 5161   9.357   8.602   9.979  1.0463  3.3773 -2.2513
  797MOL0     H 5162   9.388   8.388   9.828  2.2794  0.9275  0.7501
  797MOL0     H 5163   9.308   8.483   9.697  0.4121 -1.5850 -0.5001
  797MOL0     H 5164   9.536   8.619   9.835 -0.2701 -0.0936 -0.2475
  797MOL0     H 5165   9.494   8.617   9.670 -1.0559  1.1864  0.6907
  797MOL0     H 5166   9.585   8.497  10.002  1.3531  0.7588  1.1104
  797MOL0     H 5167   9.634   8.335  10.171 -0.3543 -1.2228  0.0471
  797MOL0     H 5168  10.057   8.083  10.232  1.6609 -0.0674  1.2841
  797MOL0     H 5169  10.208   7.935  10.382  0.4810 -3.1158  1.9967
  797MOL0     H 5170  10.374   7.767  10.405 -0.3905  0.8067  1.0791
  797MOL0     H 5171  10.365   7.615  10.488 -1.1123 -1.3519  2.4429
  797MOL0     H 5172  10.207   7.847  10.593  3.6477  4.7721 -0.0006
  797MOL0     H 5173  10.379   7.815  10.621  0.1981 -0.8210 -0.0242
  797MOL0     H 5174  10.214   7.736  10.806  0.8480 -1.5948  1.5641
  797MOL0     H 5175  10.344   7.646  10.761  1.5157  1.8518 -0.7601
  797MOL0     H 5176  10.069   7.599  10.644 -0.0195  1.9319  0.5759
  797MOL0     H 5177  10.214   7.483  10.630 -1.3384 -0.0882 -2.3685
  797MOL0     H 5178  10.038   7.417  10.782 -2.1015  1.6197 -0.3706
  797MOL0     H 5179  10.083   7.550  10.880  2.0734 -2.0918  3.0729
  797MOL0     H 5180  10.322   7.466  10.898 -0.5006 -0.6694  1.1753
  797MOL0     H 5181  10.272   7.320  10.824  0.2857 -0.8405  0.8145
  797MOL0     H 5182  10.291   7.325  11.071 -0.9349  0.1664  1.9471
  797MOL0     H 5183  10.170   7.441  11.078 -2.5884 -1.3078  0.5966
  797MOL0     H 5184   9.992   7.286  11.040 -0.4057 -1.1266 -0.3015
  797MOL0     H 5185  10.104   7.174  11.130 -1.2124  1.4643  1.8336
  797MOL0     H 5186   9.973   7.593  10.257  0.0297 -0.6091  0.4921
  797MOL0     H 5187   9.848   7.720  10.117  2.4661 -2.2127  0.1710
  797MOL0     H 5188   9.797   8.064   9.872 -2.3232 -2.0547  1.8308
  797MOL0     H 5189   9.734   8.241   9.696 -0.5581 -0.9205 -0.0057
  797MOL0     H 5190   9.575   9.472  10.929  0.8605 -0.2119 -0.0719
  797MOL0     H 5191   9.669   9.347  11.115 -0.6309 -0.5416 -0.1197
  797MOL0     H 5192   9.603   8.859  11.254  0.6576 -3.6851  0.0551
  797MOL0     H 5193   9.553   8.703  11.428 -1.2532  0.1383 -0.8263
  797MOL0     H 5194   9.527   8.588  11.761  2.4572  1.3216 -0.1436
  797MOL0     H 5195   9.471   8.629  11.595  1.9588  0.7865 -1.7333
  797MOL0     H 5196   9.283   8.769  11.707 -1.5071  1.1278  2.1390
  797MOL0     H 5197   9.308   8.603  11.767  1.7273 -0.4260 -1.3523
  797MOL0     H 5198   9.416   8.854  11.905 -1.1614  0.6989 -0.5307
  797MOL0     H 5199   9.443   8.677  11.956 -0.9878 -1.9386 -2.0518
  797MOL0     H 5200   9.274   8.797  12.089 -0.9265 -0.4514  0.0438
  797MOL0     H 5201   9.177   8.842  11.941  2.2977  0.5368 -0.8036
  797MOL0     H 5202   9.058   8.453  12.020 -0.0748  1.1553  2.7177
  797MOL0     H 5203   9.692   9.006  11.704 -1.2238  1.1484 -0.8658
  797MOL0     H 5204   9.776   9.134  11.516  1.7351 -0.4985 -1.3627
  798MOL0     O 5205   5.687   0.051   0.553 -0.7097  0.1812 -0.0778
  798MOL0     C 5206   5.688   0.171   0.575  0.6961 -0.2814  0.3502
  798MOL0     O 5207   5.781   0.251   0.515  0.4424 -0.1411 -0.2642
  798MOL0     C 5208   5.872   0.217   0.421 -1.0645  1.0384 -0.2160
  798MOL0     C 5209   5.901   0.089   0.367 -0.2868 -1.3457 -0.7747
  798MOL0     C 5210   6.015   0.069   0.287  0.0629 -0.4044  0.3085
  798MOL0     C 5211   6.097   0.174   0.238 -0.3388 -0.8703  0.1257
  798MOL0     O 5212   6.214   0.155   0.162 -0.0780 -0.0274 -0.6048
  798MOL0     C 5213   6.233   0.029   0.104  0.4203  0.9246  1.0453
  798MOL0     C 5214   6.352   0.041   0.008 -0.6221  0.5683 -0.0894
  798MOL0     C 5215   6.487   0.070   0.066  0.8955  0.6776 -0.0010
  798MOL0     C 5216   6.597   0.101  -0.039  0.1074 -0.8378 -0.3211
  798MOL0     C 5217   6.724   0.152   0.014 -0.5193 -0.3909  0.6956
  798MOL0     C 5218   6.723   0.302   0.042  0.5248 -1.0171  0.3759
  798MOL0     C 5219   6.848   0.374   0.075  0.1354 -0.7034 -0.7924
  798MOL0     C 5220   6.966   0.356  -0.026 -0.6377 -0.0064  0.4008
  798MOL0     N 5221   7.094   0.413   0.020 -0.2260  0.2981 -0.2075
  798MOL0     C 5222   7.148   0.541  -0.015 -0.1266  0.0028 -0.2755
  798MOL0     C 5223   7.275   0.533   0.037 -0.0852 -0.9818 -0.4738
  798MOL0     C 5224   7.385   0.640   0.026  0.3121 -0.6902 -0.5158
  798MOL0     C 5225   7.434   0.664   0.168  0.1415 -0.0573  0.4936
  798MOL0     C 5226   7.344   0.765   0.242  0.8452 -0.0298 -1.0123
  798MOL0     C 5227   7.408   0.796   0.381  0.3942 -0.8008  0.6692
  798MOL0     O 5228   7.437   0.683   0.459  0.6167  0.2964 -0.2401
  798MOL0     C 5229   7.337   0.640   0.550 -0.0465  0.9100  0.8730
  798MOL0     C 5230   7.359   0.516   0.617 -0.2512 -0.2830 -0.6845
  798MOL0     C 5231   7.255   0.452   0.687  0.3366  0.2363  0.0168
  798MOL0     C 5232   7.117   0.508   0.684 -0.2376  0.3709 -0.3987
  798MOL0     C 5233   7.016   0.436   0.755  0.9005 -1.1083 -0.4377
  798MOL0     O 5234   6.901   0.505   0.788 -0.5537 -0.4200 -0.2771
  798MOL0     C 5235   6.805   0.466   0.884  0.4832  1.3661 -0.3604
  798MOL0     C 5236   6.684   0.537   0.875 -0.3479  0.4491  0.1938
  798MOL0     C 5237   6.579   0.516   0.968 -0.0125 -0.7846 -0.1479
  798MOL0     C 5238   6.592   0.418   1.069  0.1277  0.0256 -0.7900
  798MOL0     O 5239   6.502   0.413   1.172 -0.3650 -0.4468  0.1215
  798MOL0     C 5240   6.468   0.531   1.238 -0.6959 -0.6699 -0.1405
  798MOL0     C 5241   6.462   0.509   1.399  0.1861  0.1449 -0.0349
  798MOL0     C 5242   6.382   0.388   1.447  0.3759  0.1470 -0.0783
  798MOL0     C 5243   6.368   0.381   1.600  0.7760  0.2236 -0.5074
  798MOL0     C 5244   6.283   0.273   1.667 -0.9621  0.1206  0.8697
  798MOL0     C 5245   6.320   0.135   1.605 -0.9283  0.0679 -0.4459
  798MOL0     C 5246   6.237   0.016   1.676 -0.1253 -0.1099  0.4978
  798MOL0     C 5247   6.313  -0.031   1.795 -0.4991 -0.0973 -0.2263
  798MOL0    Cl 5248   6.228  -0.181   1.866 -0.4410 -0.0941  0.5551
  798MOL0     C 5249   6.711   0.343   1.075  0.8493  0.3212  0.9274
  798MOL0     C 5250   6.814   0.358   0.984  0.1338 -0.0183  0.2321
  798MOL0     O 5251   7.040   0.312   0.778 -0.9209 -0.0468  0.2257
  798MOL0     C 5252   7.104   0.642   0.623  0.4915  1.0864  0.5646
  798MOL0     C 5253   7.207   0.698   0.556 -0.2486 -0.9354 -0.0150
  798MOL0     N 5254   7.299   0.407   0.086 -0.1366  0.3611 -0.2920
  798MOL0     N 5255   7.191   0.337   0.074  0.5218 -0.9448  0.3473
  798MOL0     C 5256   6.061   0.300   0.275 -0.2381 -0.5802  0.1891
  798MOL0     C 5257   5.960   0.322   0.372  0.5369  0.2277  0.4606
  798MOL0     C 5258   5.591   0.227   0.676  0.8875 -0.7337 -0.1663
  798MOL0     C 5259   5.560   0.357   0.669  0.4841 -0.4390  0.3632
  798MOL0     C 5260   5.469   0.422   0.751 -0.0900  0.5227  1.1386
  798MOL0     C 5261   5.416   0.344   0.854  0.4225 -0.1596 -0.1308
  798MOL0     O 5262   5.360   0.420   0.955  0.0943  0.1691  0.4882
  798MOL0     C 5263   5.242   0.502   0.929 -0.9427 -0.1772  0.7937
  798MOL0     C 5264   5.118   0.416   0.960 -0.2905 -0.4788 -0.2935
  798MOL0     C 5265   4.986   0.507   0.967 -1.3827 -0.7682 -0.1409
  798MOL0     C 5266   4.877   0.480   0.863 -0.3036  0.1671  0.7361
  798MOL0     C 5267   4.823   0.343   0.866 -0.1070  0.7719  0.3940
  798MOL0     C 5268   4.785   0.226   0.859  0.0839 -0.0719 -0.1685
  798MOL0     C 5269   5.452   0.209   0.872 -0.1681 -0.1177  0.5008
  798MOL0     C 5270   5.540   0.143   0.782  0.5224 -0.0591 -0.0565
  798MOL0     H 5271   5.848   0.002   0.404 -1.1169 -0.5015  0.0816
  798MOL0     H 5272   6.038  -0.032   0.253  1.0309  0.5865 -2.2578
  798MOL0     H 5273   6.144  -0.019   0.062 -0.3212  1.4944  1.9098
  798MOL0     H 5274   6.257  -0.053   0.173 -1.8670 -1.6445 -0.9781
  798MOL0     H 5275   6.329   0.120  -0.065  0.8159 -1.0715 -2.4735
  798MOL0     H 5276   6.351  -0.052  -0.050  2.4393  0.8974 -0.8014
  798MOL0     H 5277   6.513  -0.013   0.133 -2.3226  0.1860  0.8496
  798MOL0     H 5278   6.474   0.164   0.121  0.8584  1.2546 -0.9875
  798MOL0     H 5279   6.601   0.009  -0.097 -1.8794  0.1686 -2.1761
  798MOL0     H 5280   6.553   0.174  -0.107 -1.4355 -0.2990  1.1825
  798MOL0     H 5281   6.793   0.146  -0.071 -0.9528  0.6986  0.2429
  798MOL0     H 5282   6.754   0.097   0.104 -0.7882 -0.7140  0.5862
  798MOL0     H 5283   6.649   0.337   0.115 -0.4557  3.1025 -2.2338
  798MOL0     H 5284   6.700   0.353  -0.052  0.7017  0.8672  1.2964
  798MOL0     H 5285   6.828   0.481   0.070  2.9735 -0.1576 -3.3696
  798MOL0     H 5286   6.871   0.334   0.175 -1.1413  1.0057  0.2202
  798MOL0     H 5287   6.953   0.397  -0.126  3.1179 -0.3619 -0.4097
  798MOL0     H 5288   6.987   0.249  -0.036  1.9307  0.3484  1.1286
  798MOL0     H 5289   7.090   0.626  -0.048  0.3991  0.4672 -0.0121
  798MOL0     H 5290   7.338   0.730  -0.016 -1.6932 -1.2434  0.4134
  798MOL0     H 5291   7.471   0.604  -0.031  1.1972  3.1567 -1.9188
  798MOL0     H 5292   7.537   0.701   0.161 -0.2785  0.8541 -1.4033
  798MOL0     H 5293   7.446   0.566   0.216  2.0420 -0.7354 -1.2477
  798MOL0     H 5294   7.336   0.857   0.185  0.5761  2.8950  3.2532
  798MOL0     H 5295   7.245   0.722   0.258  0.8803 -0.2441 -1.3742
  798MOL0     H 5296   7.350   0.871   0.436  0.0148 -1.3290  1.0059
  798MOL0     H 5297   7.504   0.842   0.357 -0.1840  1.5688  2.5370
  798MOL0     H 5298   7.456   0.468   0.622  1.4650  3.0020  1.2612
  798MOL0     H 5299   7.272   0.362   0.745  2.8470 -0.4123 -1.5647
  798MOL0     H 5300   6.671   0.609   0.795 -1.4499 -3.2367 -3.2742
  798MOL0     H 5301   6.480   0.561   0.958 -0.3799 -1.5377  0.0377
  798MOL0     H 5302   6.368   0.564   1.211 -0.4185  1.4054  1.1621
  798MOL0     H 5303   6.542   0.611   1.226  0.6559 -2.1326 -2.0671
  798MOL0     H 5304   6.422   0.597   1.450  1.5634 -0.8565  2.9850
  798MOL0     H 5305   6.566   0.504   1.433  0.0895  0.2672  0.2882
  798MOL0     H 5306   6.426   0.292   1.419  1.6685 -0.7786  4.4011
  798MOL0     H 5307   6.284   0.403   1.400  0.1256 -1.6508 -0.1774
  798MOL0     H 5308   6.469   0.357   1.634  0.4763  0.0298  0.2682
  798MOL0     H 5309   6.331   0.477   1.638  1.2165 -0.5974  2.2245
  798MOL0     H 5310   6.177   0.295   1.652 -0.7625  1.9784  1.9287
  798MOL0     H 5311   6.302   0.278   1.774 -0.8398 -0.9238  0.9083
  798MOL0     H 5312   6.425   0.105   1.614 -1.7481 -3.6380 -1.4428
  798MOL0     H 5313   6.289   0.137   1.500 -1.7714  2.0969 -0.2057
  798MOL0     H 5314   6.134   0.041   1.703 -0.7763 -0.3982 -1.5124
  798MOL0     H 5315   6.234  -0.062   1.599  1.5397  0.0872  0.1771
  798MOL0     H 5316   6.325   0.051   1.867  2.2929 -0.9080  0.3629
  798MOL0     H 5317   6.412  -0.054   1.755 -0.5000  1.1684 -1.0155
  798MOL0     H 5318   6.721   0.287   1.168 -3.6736 -3.2568 -0.4002
  798MOL0     H 5319   6.903   0.295   0.990 -0.1790 -1.3638 -4.9696
  798MOL0     H 5320   7.005   0.682   0.642 -0.5806 -1.7649  1.6550
  798MOL0     H 5321   7.182   0.789   0.503  3.1820  1.1275  1.5219
  798MOL0     H 5322   6.130   0.380   0.250 -0.6265 -0.1599  0.4348
  798MOL0     H 5323   5.937   0.422   0.405  2.1575  1.6249 -2.3015
  798MOL0     H 5324   5.591   0.416   0.583 -0.9332 -1.2057 -0.7187
  798MOL0     H 5325   5.460   0.530   0.747 -3.0430  0.3292 -0.0874
  798MOL0     H 5326   5.242   0.540   0.827 -4.0828  2.3765  1.5750
  798MOL0     H 5327   5.242   0.588   0.998  0.3418  0.0422  0.5422
  798MOL0     H 5328   5.108   0.344   0.879 -3.4063 -0.2767 -0.2240
  798MOL0     H 5329   5.131   0.362   1.054 -1.9210  0.3823  0.4799
  798MOL0     H 5330   5.004   0.615   0.959 -2.3329 -0.5511  0.4481
  798MOL0     H 5331   4.942   0.500   1.067  0.7049 -1.1463  0.7920
  798MOL0     H 5332   4.800   0.556   0.872  0.1714  0.5521  1.6753
  798MOL0     H 5333   4.913   0.496   0.761 -2.8410 -0.2873 -0.2913
  798MOL0     H 5334   4.773   0.120   0.846 -2.2211  0.4188 -3.1670
  798MOL0     H 5335   5.430   0.159   0.966  5.1419 -1.9321  1.1092
  798MOL0     H 5336   5.569   0.042   0.805  1.6433  0.1048 -0.6779
  799MOL0     O 5337  10.908   2.577   3.908 -0.0835  0.5649 -0.0215
  799MOL0     C 5338  10.893   2.702   3.887  0.4221  0.1605 -1.4081
  799MOL0     O 5339  10.775   2.766   3.859  0.6534 -0.3642  0.7649
  799MOL0     C 5340  10.661   2.698   3.888  0.7954 -0.5129  0.2393
  799MOL0     C 5341  10.554   2.735   3.799  0.3743  0.3307  0.1034
  799MOL0     C 5342  10.426   2.668   3.816 -0.0674  0.5008 -0.1978
  799MOL0     C 5343  10.400   2.576   3.922 -0.7974 -0.2380 -0.3523
  799MOL0     O 5344  10.289   2.506   3.954 -0.3194 -0.1225 -0.9640
  799MOL0     C 5345  10.168   2.583   3.917 -0.0411 -0.0838 -0.4566
  799MOL0     C 5346  10.046   2.525   3.993 -0.5737  0.3538  1.1319
  799MOL0     C 5347  10.067   2.510   4.136 -0.1678 -0.6458 -0.5648
  799MOL0     C 5348   9.941   2.480   4.221 -0.7907  0.2660 -0.4865
  799MOL0     C 5349   9.999   2.443   4.363  0.2352 -0.2328 -0.5663
  799MOL0     C 5350  10.026   2.567   4.453 -0.2634  0.0188  0.8224
  799MOL0     C 5351  10.093   2.521   4.586 -0.2953 -0.3276 -0.3693
  799MOL0     C 5352  10.116   2.640   4.680 -0.0854 -0.0406 -0.1520
  799MOL0     N 5353  10.207   2.737   4.612 -0.2007 -0.0789  0.2261
  799MOL0     C 5354  10.331   2.700   4.558  1.1284  0.4138  0.1558
  799MOL0     C 5355  10.361   2.803   4.483 -0.5872 -0.1498 -0.2756
  799MOL0     C 5356  10.490   2.805   4.413  1.0160 -0.2470 -0.3056
  799MOL0     C 5357  10.459   2.815   4.267  0.7203  0.7361  0.8486
  799MOL0     C 5358  10.561   2.910   4.200  0.2505  0.1771 -0.5523
  799MOL0     C 5359  10.535   3.054   4.230  0.2668 -0.6077  0.3145
  799MOL0     O 5360  10.651   3.140   4.251 -0.2901 -0.0877  0.0953
  799MOL0     C 5361  10.721   3.192   4.141  0.1942  0.0998 -0.3783
  799MOL0     C 5362  10.697   3.174   4.002 -0.2886  1.6805 -0.8443
  799MOL0     C 5363  10.787   3.219   3.909 -0.1901  0.7732 -0.8574
  799MOL0     C 5364  10.898   3.302   3.942  0.0696  0.5203  0.9108
  799MOL0     C 5365  10.999   3.347   3.843 -0.4165 -0.6786 -0.3215
  799MOL0     O 5366  11.095   3.445   3.889 -0.2200 -0.2725  0.8532
  799MOL0     C 5367  11.170   3.525   3.801  0.5361 -0.2477 -1.1055
  799MOL0     C 5368  11.185   3.502   3.663  0.3302 -0.0360  0.5809
  799MOL0     C 5369  11.257   3.587   3.576 -0.6843 -0.2108 -0.3172
  799MOL0     C 5370  11.314   3.696   3.631  0.4578 -0.7187 -0.3453
  799MOL0     O 5371  11.367   3.786   3.540 -0.1692 -0.1940 -0.3186
  799MOL0     C 5372  11.459   3.877   3.591  0.2865 -0.1167 -0.1671
  799MOL0     C 5373  11.535   3.954   3.480  0.2167  0.7030  0.2155
  799MOL0     C 5374  11.653   3.881   3.408  0.4202  0.6375 -0.6720
  799MOL0     C 5375  11.718   3.979   3.305  0.6078 -0.1604  0.4506
  799MOL0     C 5376  11.622   4.025   3.198  0.2026  0.1167  0.4014
  799MOL0     C 5377  11.697   4.057   3.069 -0.1617  0.2154 -0.5034
  799MOL0     C 5378  11.748   3.942   2.976  0.9140  0.0842 -0.2559
  799MOL0     C 5379  11.798   4.012   2.851  0.1311  0.0892  0.1929
  799MOL0    Cl 5380  11.966   4.077   2.889  0.0625  0.1870  0.2251
  799MOL0     C 5381  11.299   3.720   3.774 -0.1952  0.4803  0.0243
  799MOL0     C 5382  11.237   3.635   3.861 -0.5406  0.2301 -0.1252
  799MOL0     O 5383  10.982   3.307   3.732  0.1727  0.1024  0.8284
  799MOL0     C 5384  10.912   3.333   4.079 -0.1528  0.0423 -0.3825
  799MOL0     C 5385  10.824   3.281   4.176 -0.6737  1.2089 -0.1501
  799MOL0     N 5386  10.266   2.894   4.498 -0.0654  0.7509  0.1870
  799MOL0     N 5387  10.172   2.863   4.571 -0.3648  0.5728  0.0816
  799MOL0     C 5388  10.503   2.549   4.005  0.2384  0.4675  1.2361
  799MOL0     C 5389  10.630   2.604   3.987 -0.2935 -0.8672 -0.4710
  799MOL0     C 5390  11.021   2.788   3.878  1.0049  0.1588 -0.1433
  799MOL0     C 5391  11.142   2.755   3.938 -0.2421  0.0022 -0.3927
  799MOL0     C 5392  11.254   2.839   3.925  0.4428  0.5070 -1.0043
  799MOL0     C 5393  11.241   2.955   3.851 -0.6984 -0.6151 -0.1909
  799MOL0     O 5394  11.354   3.030   3.848 -0.3490 -0.0359  0.0579
  799MOL0     C 5395  11.359   3.142   3.764 -0.2690 -0.6059  0.0139
  799MOL0     C 5396  11.495   3.222   3.774  0.1145  0.6204 -0.0826
  799MOL0     C 5397  11.499   3.292   3.909  0.2179 -0.5255  0.0309
  799MOL0     C 5398  11.601   3.401   3.893 -0.4805 -0.7069  0.1614
  799MOL0     C 5399  11.615   3.483   4.014 -0.1426 -1.0926 -0.7329
  799MOL0     C 5400  11.608   3.564   4.113 -0.1406  0.7890  0.4824
  799MOL0     C 5401  11.122   2.985   3.787 -0.5955 -0.4247 -0.8840
  799MOL0     C 5402  11.016   2.900   3.800 -0.9438 -0.2874 -0.2867
  799MOL0     H 5403  10.563   2.810   3.722 -2.2738 -0.3408 -0.9620
  799MOL0     H 5404  10.349   2.692   3.744 -0.7384 -0.9064  0.0113
  799MOL0     H 5405  10.152   2.572   3.810  0.1851  3.9458 -1.0455
  799MOL0     H 5406  10.187   2.689   3.932 -1.1862  0.2243 -1.1066
  799MOL0     H 5407  10.019   2.430   3.947 -3.2782  1.3393  0.5409
  799MOL0     H 5408   9.960   2.586   3.967 -0.8632 -0.9436 -1.1928
  799MOL0     H 5409  10.124   2.594   4.174  0.1635 -1.3316  0.4893
  799MOL0     H 5410  10.127   2.419   4.134 -2.1678 -2.0225 -0.6199
  799MOL0     H 5411   9.879   2.569   4.228 -0.2496  0.7476 -1.5708
  799MOL0     H 5412   9.889   2.388   4.190  0.7324 -1.3189  1.3917
  799MOL0     H 5413  10.079   2.370   4.375  0.7785  0.8638  4.3059
  799MOL0     H 5414   9.913   2.397   4.411  1.0475 -1.5566 -0.3150
  799MOL0     H 5415   9.931   2.620   4.469 -0.6698 -1.2825  3.2163
  799MOL0     H 5416  10.106   2.627   4.410  2.7404 -3.0127  1.7551
  799MOL0     H 5417  10.035   2.454   4.651  0.5283  0.8416  1.6773
  799MOL0     H 5418  10.187   2.469   4.563  1.2785  1.4031  1.7017
  799MOL0     H 5419  10.168   2.608   4.771 -0.8277 -1.0553 -0.0637
  799MOL0     H 5420  10.023   2.687   4.713 -0.7035 -1.0712 -0.3888
  799MOL0     H 5421  10.394   2.613   4.576 -0.7059 -1.4095 -1.6894
  799MOL0     H 5422  10.544   2.712   4.438 -0.2634 -0.4228  2.1519
  799MOL0     H 5423  10.541   2.894   4.451 -1.7804  0.5870  1.8819
  799MOL0     H 5424  10.360   2.856   4.246  0.8574  0.5592 -0.1798
  799MOL0     H 5425  10.459   2.713   4.227 -0.7840  1.0236  0.0638
  799MOL0     H 5426  10.659   2.867   4.223 -0.2488 -1.3455 -1.1486
  799MOL0     H 5427  10.549   2.896   4.093 -1.4210  0.8491 -0.4803
  799MOL0     H 5428  10.475   3.065   4.321 -1.3500 -2.3439 -0.4811
  799MOL0     H 5429  10.471   3.092   4.150 -1.1781  0.9505  2.1185
  799MOL0     H 5430  10.609   3.117   3.977  0.5869  0.2750 -0.8472
  799MOL0     H 5431  10.770   3.199   3.804 -2.3297  3.6408 -1.1764
  799MOL0     H 5432  11.138   3.423   3.606  1.6071  0.0253 -0.6024
  799MOL0     H 5433  11.265   3.562   3.471  3.3688 -1.0344  0.0402
  799MOL0     H 5434  11.539   3.827   3.645  0.0056 -2.6565 -1.9398
  799MOL0     H 5435  11.417   3.956   3.656  2.0549  1.7726 -1.2097
  799MOL0     H 5436  11.568   4.049   3.522  1.5194  0.4393 -0.1825
  799MOL0     H 5437  11.455   3.969   3.406 -0.3353 -0.8584  0.4427
  799MOL0     H 5438  11.611   3.786   3.373 -0.6447  1.6179 -2.1678
  799MOL0     H 5439  11.735   3.843   3.469 -0.2658 -0.2388 -0.2602
  799MOL0     H 5440  11.745   4.073   3.353  0.5263 -0.0623  0.3044
  799MOL0     H 5441  11.807   3.926   3.269 -0.2274 -2.8859  2.1431
  799MOL0     H 5442  11.557   4.106   3.232 -2.8662 -2.5425  1.4339
  799MOL0     H 5443  11.546   3.953   3.167 -0.6245  2.0169 -2.3786
  799MOL0     H 5444  11.783   4.118   3.099 -1.3267  0.4881  2.6011
  799MOL0     H 5445  11.638   4.130   3.013 -0.4965 -0.7413 -1.4270
  799MOL0     H 5446  11.814   3.874   3.029 -1.7679 -1.3580  1.4711
  799MOL0     H 5447  11.661   3.881   2.949  1.7700 -1.2139 -0.1718
  799MOL0     H 5448  11.737   4.098   2.818  2.0327  0.6734 -2.0842
  799MOL0     H 5449  11.810   3.944   2.766 -1.2905 -1.4660  1.1789
  799MOL0     H 5450  11.355   3.805   3.813  0.8464 -1.4515  3.1253
  799MOL0     H 5451  11.240   3.653   3.968  3.8597 -1.3511  0.2264
  799MOL0     H 5452  10.990   3.391   4.127 -1.1351  1.3340 -0.2744
  799MOL0     H 5453  10.847   3.314   4.277  3.2038  3.8829 -1.6716
  799MOL0     H 5454  10.495   2.472   4.081 -3.1415  1.4587  2.0460
  799MOL0     H 5455  10.722   2.576   4.037  2.1003 -1.1153 -4.5676
  799MOL0     H 5456  11.157   2.675   4.010 -1.4144  0.9156  0.9172
  799MOL0     H 5457  11.341   2.806   3.980  0.1694 -0.6518 -1.2482
  799MOL0     H 5458  11.283   3.220   3.777  0.6321  0.5519 -1.4009
  799MOL0     H 5459  11.354   3.106   3.661 -1.4544  0.2819 -0.2534
  799MOL0     H 5460  11.568   3.141   3.780 -1.0662 -0.6333 -1.7396
  799MOL0     H 5461  11.515   3.283   3.685  1.2571  0.6604  0.1905
  799MOL0     H 5462  11.544   3.232   3.989  2.6576 -3.2419 -3.0990
  799MOL0     H 5463  11.402   3.337   3.931 -0.2432  0.4841 -3.5141
  799MOL0     H 5464  11.693   3.351   3.859 -1.2222 -3.1896  1.5200
  799MOL0     H 5465  11.569   3.475   3.820  2.7409  0.2823 -0.4063
  799MOL0     H 5466  11.600   3.635   4.193  3.4833 -0.6067  2.3070
  799MOL0     H 5467  11.087   3.075   3.737  0.7521 -1.8965 -4.8601
  799MOL0     H 5468  10.925   2.929   3.748  0.1756 -0.2567 -2.3317
  800MOL0     O 5469  10.403   9.433   2.370  0.4947 -0.1557 -0.2947
  800MOL0     C 5470  10.352   9.516   2.445  0.9127  0.5200 -0.5658
  800MOL0     O 5471  10.424   9.601   2.528  0.4753 -0.0385  0.1772
  800MOL0     C 5472  10.563   9.580   2.520  0.2668  1.3259  0.0530
  800MOL0     C 5473  10.625   9.477   2.598 -0.7696 -0.1972 -0.2272
  800MOL0     C 5474  10.764   9.460   2.595 -0.0350 -0.3914  0.3656
  800MOL0     C 5475  10.845   9.538   2.511  0.2685 -0.5713 -0.3087
  800MOL0     O 5476  10.975   9.493   2.512 -0.1461 -0.2851 -1.0804
  800MOL0     C 5477  11.059   9.538   2.408 -0.3569 -0.1096  0.7413
  800MOL0     C 5478  11.201   9.479   2.426  1.3368 -1.0896 -0.3829
  800MOL0     C 5479  11.272   9.546   2.552 -0.2373  0.2973  0.3390
  800MOL0     C 5480  11.300   9.687   2.533  1.0171  0.4317  0.4248
  800MOL0     C 5481  11.416   9.731   2.619  0.6213 -0.7484  0.2555
  800MOL0     C 5482  11.388   9.736   2.774  0.4947 -0.5021  0.3778
  800MOL0     C 5483  11.508   9.748   2.873 -0.7406 -0.2839  0.0288
  800MOL0     C 5484  11.533   9.869   2.964 -0.6880  0.1828 -0.2099
  800MOL0     N 5485  11.422   9.893   3.051  0.3905 -0.5116 -0.8418
  800MOL0     C 5486  11.379   9.832   3.169 -0.2305 -0.1183 -0.2961
  800MOL0     C 5487  11.264   9.886   3.201  0.1568 -0.2701 -1.1080
  800MOL0     C 5488  11.178   9.869   3.323  0.6803  0.3769 -0.3148
  800MOL0     C 5489  11.209   9.747   3.408  0.7760  0.8367 -0.3216
  800MOL0     C 5490  11.086   9.707   3.486 -0.7427  0.0066 -0.3084
  800MOL0     C 5491  11.121   9.592   3.583 -0.0324 -0.4679 -0.3410
  800MOL0     O 5492  11.101   9.469   3.520  0.5350 -0.9748  0.1632
  800MOL0     C 5493  11.025   9.374   3.580  0.4939 -0.3947  0.1951
  800MOL0     C 5494  10.969   9.274   3.497 -0.2074  0.2586  0.4889
  800MOL0     C 5495  10.872   9.175   3.541  0.3862 -0.2605 -0.0163
  800MOL0     C 5496  10.837   9.169   3.677 -0.5854 -0.4588 -0.0667
  800MOL0     C 5497  10.728   9.084   3.735 -0.2586 -0.1483  0.8211
  800MOL0     O 5498  10.682   9.116   3.856  0.0156  0.3237 -0.2155
  800MOL0     C 5499  10.580   9.043   3.915 -0.1814  0.2844  0.1536
  800MOL0     C 5500  10.529   9.111   4.028 -0.0961  0.2492  0.1020
  800MOL0     C 5501  10.432   9.044   4.102 -0.3446 -0.5924  0.7393
  800MOL0     C 5502  10.376   8.917   4.067  1.1759  0.4742  0.0203
  800MOL0     O 5503  10.270   8.879   4.134  0.1146 -0.5802 -0.5770
  800MOL0     C 5504  10.295   8.745   4.195 -0.9541  0.4408 -0.2784
  800MOL0     C 5505  10.193   8.699   4.304 -0.8138  0.1134  0.3410
  800MOL0     C 5506  10.179   8.794   4.429 -0.8735  0.6992  1.3815
  800MOL0     C 5507  10.056   8.758   4.511  0.4960 -0.4155 -0.5885
  800MOL0     C 5508   9.922   8.822   4.462 -0.6642 -0.2911  0.4231
  800MOL0     C 5509   9.923   8.974   4.439 -0.0345  0.3144 -0.4646
  800MOL0     C 5510   9.922   9.028   4.578  0.4197  0.3707 -0.3317
  800MOL0     C 5511   9.941   9.179   4.558 -1.1309  0.1135 -0.8032
  800MOL0    Cl 5512  10.121   9.196   4.547 -0.2655 -0.0896  0.5802
  800MOL0     C 5513  10.437   8.853   3.950 -0.0014 -0.2717 -0.4048
  800MOL0     C 5514  10.536   8.912   3.873  0.5889 -0.2921 -0.4139
  800MOL0     O 5515  10.673   9.013   3.650 -0.6273  0.3020 -0.7253
  800MOL0     C 5516  10.897   9.271   3.757  0.3318  0.9056  0.2841
  800MOL0     C 5517  10.987   9.366   3.712  0.0338 -0.8366 -0.3159
  800MOL0     N 5518  11.239   9.985   3.107  0.0582 -0.7894 -0.1716
  800MOL0     N 5519  11.334   9.985   3.019  0.4062  0.0466 -0.2809
  800MOL0     C 5520  10.784   9.632   2.425 -0.0905  0.3563 -0.3841
  800MOL0     C 5521  10.645   9.655   2.432  0.8193 -0.0841  1.3347
  800MOL0     C 5522  10.204   9.542   2.450  0.0561 -0.1035  0.8122
  800MOL0     C 5523  10.123   9.443   2.393 -0.1165 -0.4563  0.0515
  800MOL0     C 5524   9.990   9.460   2.368  0.1876 -0.2458  0.8972
  800MOL0     C 5525   9.929   9.578   2.408 -0.7901 -0.2949  0.4322
  800MOL0     O 5526   9.801   9.603   2.373 -0.0302  0.3353 -0.8824
  800MOL0     C 5527   9.708   9.497   2.407 -0.4252  0.1720 -0.8374
  800MOL0     C 5528   9.592   9.550   2.488  1.1033 -0.3195 -0.9709
  800MOL0     C 5529   9.490   9.430   2.540 -0.0267  0.4415  0.2074
  800MOL0     C 5530   9.408   9.368   2.426  0.8998  0.0260 -0.1661
  800MOL0     C 5531   9.314   9.458   2.373 -0.5947  0.2334 -0.5440
  800MOL0     C 5532   9.244   9.538   2.309  0.2253  0.2938  0.1056
  800MOL0     C 5533   9.998   9.672   2.485  0.1983 -0.5968 -0.2351
  800MOL0     C 5534  10.137   9.656   2.497 -0.0191 -0.0071  0.3307
  800MOL0     H 5535  10.574   9.410   2.666 -1.8513 -2.8564 -3.4386
  800MOL0     H 5536  10.821   9.385   2.648  1.0002 -0.0749 -0.2660
  800MOL0     H 5537  11.067   9.647   2.413 -1.8465 -0.0254  1.7873
  800MOL0     H 5538  11.004   9.518   2.316 -5.6904 -0.7033  3.6620
  800MOL0     H 5539  11.265   9.499   2.339  1.6280  2.3239  0.4595
  800MOL0     H 5540  11.201   9.371   2.443  2.7566 -1.7370 -3.7203
  800MOL0     H 5541  11.366   9.504   2.590  0.3430  1.1139 -0.1723
  800MOL0     H 5542  11.203   9.556   2.636  0.3134  0.8418  0.7354
  800MOL0     H 5543  11.306   9.716   2.428 -2.3286  1.1093  0.2802
  800MOL0     H 5544  11.209   9.734   2.573  0.4127 -0.8978  0.6792
  800MOL0     H 5545  11.438   9.833   2.585  0.0746 -1.1929 -1.5726
  800MOL0     H 5546  11.508   9.675   2.601 -0.3961 -2.1037 -0.9285
  800MOL0     H 5547  11.340   9.643   2.804  2.0161 -2.1079 -1.8051
  800MOL0     H 5548  11.314   9.815   2.786  0.4146 -0.8199  2.2845
  800MOL0     H 5549  11.489   9.679   2.956 -2.1739 -0.3482 -0.3180
  800MOL0     H 5550  11.599   9.708   2.829  0.4771  2.7249 -0.3763
  800MOL0     H 5551  11.549   9.964   2.911 -0.2378  3.0982  4.5400
  800MOL0     H 5552  11.624   9.854   3.022  0.4056 -1.1019 -2.1515
  800MOL0     H 5553  11.424   9.752   3.228  1.7395  1.5760  0.6469
  800MOL0     H 5554  11.078   9.868   3.281  1.5061 -1.6650 -2.4296
  800MOL0     H 5555  11.194   9.959   3.383 -1.6553 -1.3810  3.3496
  800MOL0     H 5556  11.289   9.769   3.479 -0.4869 -2.0056  2.2043
  800MOL0     H 5557  11.238   9.667   3.339  0.4283  2.1986 -2.1348
  800MOL0     H 5558  11.057   9.801   3.534 -2.0256 -0.8714  0.6839
  800MOL0     H 5559  10.999   9.683   3.425  0.8784  0.0426 -2.7928
  800MOL0     H 5560  11.042   9.611   3.656  0.1408  2.5180 -0.8094
  800MOL0     H 5561  11.220   9.597   3.629 -0.1198 -6.1479  1.1396
  800MOL0     H 5562  11.007   9.274   3.396  3.7411  3.3407  1.7107
  800MOL0     H 5563  10.831   9.099   3.475 -0.4680  0.4632 -0.3457
  800MOL0     H 5564  10.565   9.207   4.064  0.3076 -0.8498  2.9567
  800MOL0     H 5565  10.395   9.099   4.188  1.2605  0.5819  0.7217
  800MOL0     H 5566  10.395   8.747   4.240 -0.2270 -1.9837 -1.5986
  800MOL0     H 5567  10.293   8.670   4.115 -1.9039 -2.2451  2.0516
  800MOL0     H 5568  10.228   8.604   4.346 -0.5856  0.2121  0.3787
  800MOL0     H 5569  10.096   8.683   4.258 -0.2721 -0.3038 -0.6914
  800MOL0     H 5570  10.189   8.901   4.410  0.2183  1.3211  4.6953
  800MOL0     H 5571  10.264   8.774   4.495 -0.4371  1.0043  0.9256
  800MOL0     H 5572  10.051   8.653   4.539  4.0580  0.0752  2.6219
  800MOL0     H 5573  10.078   8.811   4.604 -4.4635  1.2726 -0.0775
  800MOL0     H 5574   9.831   8.800   4.520 -0.5759 -1.6930  0.0616
  800MOL0     H 5575   9.915   8.785   4.359 -2.1583  2.7634 -0.6899
  800MOL0     H 5576   9.828   9.016   4.404 -0.1795  1.4842  1.2000
  800MOL0     H 5577  10.011   8.991   4.378  0.9703 -1.8185  0.2846
  800MOL0     H 5578   9.826   8.998   4.621 -0.3470  0.8100 -1.6764
  800MOL0     H 5579  10.001   8.989   4.643  0.5524  0.9737 -0.1261
  800MOL0     H 5580   9.914   9.227   4.652  0.7859 -0.6848  0.2297
  800MOL0     H 5581   9.896   9.220   4.467 -1.6843 -1.3480 -1.2346
  800MOL0     H 5582  10.402   8.754   3.925  0.4872 -1.1650  2.0969
  800MOL0     H 5583  10.572   8.846   3.793  0.3398 -0.6827 -0.2073
  800MOL0     H 5584  10.860   9.276   3.858 -1.5405  4.5251 -0.4129
  800MOL0     H 5585  11.023   9.434   3.789 -2.0366  1.3643 -1.1549
  800MOL0     H 5586  10.851   9.694   2.366  0.8659  0.4756  0.8061
  800MOL0     H 5587  10.591   9.722   2.366  1.0426 -1.4681 -0.3359
  800MOL0     H 5588  10.170   9.348   2.368 -1.1228 -0.1439 -3.5078
  800MOL0     H 5589   9.935   9.380   2.320  1.4444  0.9488 -2.9189
  800MOL0     H 5590   9.761   9.434   2.479 -4.5021 -1.2419  1.2092
  800MOL0     H 5591   9.677   9.431   2.326  2.3637  1.1158 -2.8294
  800MOL0     H 5592   9.633   9.606   2.572  0.9225  0.8478 -1.6500
  800MOL0     H 5593   9.533   9.614   2.422  1.6003 -0.0873 -1.1917
  800MOL0     H 5594   9.429   9.483   2.613  1.5274  0.7334  1.3463
  800MOL0     H 5595   9.556   9.348   2.570  1.7629  2.3680  1.8274
  800MOL0     H 5596   9.471   9.324   2.348 -1.1256 -1.1006 -1.2583
  800MOL0     H 5597   9.347   9.285   2.463  1.6526 -0.3159  0.3324
  800MOL0     H 5598   9.166   9.578   2.247  1.3140  0.6235 -1.1058
  800MOL0     H 5599   9.959   9.763   2.529  2.4466  0.1420  0.4003
  800MOL0     H 5600  10.197   9.737   2.539  1.3947  1.2228 -3.6447
  801MOL0     O 5601   1.196  10.949   7.609 -0.2334  0.5342 -0.1136
  801MOL0     C 5602   1.291  10.938   7.526 -0.2660  0.6331  0.1688
  801MOL0     O 5603   1.355  10.822   7.480  0.3268 -0.2639 -0.8719
  801MOL0     C 5604   1.296  10.696   7.473  0.0009 -0.1059 -0.1616
  801MOL0     C 5605   1.166  10.669   7.512  0.0126  0.1775 -0.0403
  801MOL0     C 5606   1.121  10.540   7.502 -0.7594  0.7417 -1.5171
  801MOL0     C 5607   1.202  10.435   7.475  0.7261  0.4204 -0.2765
  801MOL0     O 5608   1.148  10.308   7.468 -0.0129  0.6313  0.2432
  801MOL0     C 5609   1.233  10.190   7.468  0.7945 -0.2433 -0.2766
  801MOL0     C 5610   1.148  10.066   7.482  0.1009 -0.2433  0.0771
  801MOL0     C 5611   1.114  10.006   7.345  0.0044  0.2591 -0.5633
  801MOL0     C 5612   1.046   9.871   7.375 -0.3657 -0.1612  0.5337
  801MOL0     C 5613   0.896   9.848   7.398  0.6548 -1.4776  1.2878
  801MOL0     C 5614   0.875   9.697   7.407  0.1961 -0.3042 -0.0109
  801MOL0     C 5615   0.725   9.675   7.429  0.2838 -0.0508  0.0718
  801MOL0     C 5616   0.697   9.528   7.418  0.0840 -0.1817  0.0821
  801MOL0     N 5617   0.578   9.475   7.496 -0.0833  0.0865  0.0912
  801MOL0     C 5618   0.446   9.520   7.488 -0.2324  0.0115  0.9037
  801MOL0     C 5619   0.375   9.444   7.572  0.1072 -0.0464  0.2192
  801MOL0     C 5620   0.221   9.457   7.610 -0.1306  0.0113 -0.0234
  801MOL0     C 5621   0.179   9.418   7.759  0.3251  0.2969 -0.2226
  801MOL0     C 5622   0.168   9.266   7.779 -0.3633 -0.0519 -0.1861
  801MOL0     C 5623   0.065   9.220   7.886 -0.6657 -0.2291  0.2045
  801MOL0     O 5624  -0.064   9.289   7.855 -0.2725 -0.7628 -0.8184
  801MOL0     C 5625  -0.172   9.225   7.916  0.0195  0.4906 -0.8155
  801MOL0     C 5626  -0.175   9.161   8.043  0.4252 -0.5715 -0.1953
  801MOL0     C 5627  -0.300   9.106   8.093 -0.3234  0.3316 -0.1483
  801MOL0     C 5628  -0.410   9.087   8.003 -0.6473  0.9332 -0.0079
  801MOL0     C 5629  -0.539   9.024   8.051 -0.2459 -0.0734  0.8156
  801MOL0     O 5630  -0.629   9.001   7.957 -0.3967 -0.4142  0.1882
  801MOL0     C 5631  -0.735   8.928   7.981  0.3148  0.6724  0.2230
  801MOL0     C 5632  -0.825   8.961   8.076  0.7564 -0.1831  0.2279
  801MOL0     C 5633  -0.943   8.886   8.087 -0.3274  0.3430  0.9747
  801MOL0     C 5634  -0.966   8.785   7.996 -0.4031  0.0833  1.1191
  801MOL0     O 5635  -1.085   8.716   7.985 -0.2511  0.4927  0.6604
  801MOL0     C 5636  -1.143   8.669   8.109 -0.7070  0.2794  0.2003
  801MOL0     C 5637  -1.289   8.629   8.107  0.6072 -0.3093 -0.6718
  801MOL0     C 5638  -1.336   8.571   8.243  0.7421  0.1520  0.6788
  801MOL0     C 5639  -1.485   8.525   8.236  0.5188 -0.1804  0.4801
  801MOL0     C 5640  -1.514   8.455   8.366 -0.5289  0.8039 -0.3492
  801MOL0     C 5641  -1.541   8.552   8.481 -0.1291  0.1819 -0.3783
  801MOL0     C 5642  -1.591   8.459   8.598 -0.3656 -0.3273 -0.1108
  801MOL0     C 5643  -1.609   8.536   8.723 -0.5517 -0.6179 -0.7052
  801MOL0    Cl 5644  -1.707   8.440   8.843  0.0358 -0.4126  0.0561
  801MOL0     C 5645  -0.874   8.750   7.902 -0.1650 -0.1162  0.4439
  801MOL0     C 5646  -0.757   8.823   7.891  0.4001 -0.2157 -0.0692
  801MOL0     O 5647  -0.539   8.997   8.170  0.0256 -0.5189  0.4995
  801MOL0     C 5648  -0.392   9.131   7.872  0.7724  0.8793 -0.4236
  801MOL0     C 5649  -0.278   9.205   7.826 -0.2065 -0.4512  0.5720
  801MOL0     N 5650   0.463   9.354   7.641 -0.3888 -0.7052 -0.2329
  801MOL0     N 5651   0.574   9.365   7.583 -0.3665 -0.4608 -0.4707
  801MOL0     C 5652   1.331  10.462   7.434  0.0842 -0.9040 -0.1258
  801MOL0     C 5653   1.373  10.594   7.421 -0.6932  0.2075 -0.1851
  801MOL0     C 5654   1.336  11.066   7.471 -0.4760  0.1432 -0.1250
  801MOL0     C 5655   1.273  11.190   7.476  0.3550 -0.6309 -0.2758
  801MOL0     C 5656   1.321  11.311   7.418 -0.6082  0.4322  0.5653
  801MOL0     C 5657   1.446  11.314   7.361 -0.4554 -0.9714  0.3875
  801MOL0     O 5658   1.490  11.412   7.280  0.3322 -1.0919  0.3763
  801MOL0     C 5659   1.419  11.413   7.154  1.1507 -0.8320  0.1533
  801MOL0     C 5660   1.517  11.400   7.041 -0.9143  0.6705  0.1210
  801MOL0     C 5661   1.460  11.415   6.893 -0.1415  0.4144  0.2089
  801MOL0     C 5662   1.389  11.548   6.862 -0.0363 -0.1234  0.9242
  801MOL0     C 5663   1.447  11.683   6.899  0.3195  0.1684  1.1403
  801MOL0     C 5664   1.477  11.796   6.929  0.5932  0.4952  0.6651
  801MOL0     C 5665   1.520  11.197   7.364 -0.9022  0.4114  0.1398
  801MOL0     C 5666   1.465  11.075   7.412  0.1790  0.0269 -0.4371
  801MOL0     H 5667   1.104  10.749   7.552  0.6043  1.2724 -1.2528
  801MOL0     H 5668   1.017  10.516   7.525 -0.2475 -0.4493 -0.3773
  801MOL0     H 5669   1.310  10.198   7.545  0.8878  0.4047 -0.4374
  801MOL0     H 5670   1.293  10.194   7.377 -1.5677 -1.1033 -1.9805
  801MOL0     H 5671   1.060  10.082   7.546  0.7036  0.2575  0.8028
  801MOL0     H 5672   1.217   9.997   7.532  0.8236  0.9397  0.7656
  801MOL0     H 5673   1.209  10.003   7.292  1.1993  1.2836  1.3859
  801MOL0     H 5674   1.039  10.074   7.303 -0.9413 -0.7437 -0.5436
  801MOL0     H 5675   1.082   9.804   7.296  2.5456  1.0415  0.7255
  801MOL0     H 5676   1.090   9.828   7.466  3.2851 -3.8091 -2.5504
  801MOL0     H 5677   0.843   9.882   7.308  0.6974 -1.6466  1.1984
  801MOL0     H 5678   0.856   9.904   7.483 -1.2246  3.6650 -2.4299
  801MOL0     H 5679   0.928   9.657   7.494 -0.5881  0.0655  0.6520
  801MOL0     H 5680   0.903   9.645   7.315 -3.6168  3.7438 -3.9368
  801MOL0     H 5681   0.706   9.707   7.531  1.8946  2.5874 -0.3752
  801MOL0     H 5682   0.659   9.731   7.362  0.6740 -0.5811 -0.7814
  801MOL0     H 5683   0.777   9.455   7.432  0.4172 -1.1933 -5.1002
  801MOL0     H 5684   0.674   9.524   7.311 -1.3565 -0.3184  0.3781
  801MOL0     H 5685   0.401   9.593   7.421  2.0831 -0.1055 -0.8925
  801MOL0     H 5686   0.160   9.395   7.544 -1.0718 -0.3214  1.1182
  801MOL0     H 5687   0.188   9.559   7.591 -2.6037 -1.2121 -3.1668
  801MOL0     H 5688   0.083   9.461   7.790 -0.0604 -0.5153 -0.2605
  801MOL0     H 5689   0.257   9.454   7.826 -0.6466 -1.7376  2.1636
  801MOL0     H 5690   0.144   9.224   7.681 -1.9154  1.8486 -0.6810
  801MOL0     H 5691   0.267   9.234   7.813  2.0801  2.5886 -3.8670
  801MOL0     H 5692   0.091   9.264   7.982  2.4953  3.8980 -2.1984
  801MOL0     H 5693   0.054   9.111   7.896 -1.6273  0.0880  3.7659
  801MOL0     H 5694  -0.094   9.175   8.114 -1.9280  0.8690  2.3841
  801MOL0     H 5695  -0.293   9.056   8.189 -0.7650 -2.4684 -1.4654
  801MOL0     H 5696  -0.811   9.052   8.134  0.6571  0.8707 -1.3478
  801MOL0     H 5697  -1.017   8.923   8.158  1.5232  2.3242  2.0103
  801MOL0     H 5698  -1.124   8.737   8.193  0.4973  1.2726 -0.8266
  801MOL0     H 5699  -1.084   8.583   8.142 -0.1522  0.2919 -0.7179
  801MOL0     H 5700  -1.317   8.564   8.023  1.0836 -3.0972  1.1846
  801MOL0     H 5701  -1.348   8.717   8.078  0.6006 -1.0855 -3.2974
  801MOL0     H 5702  -1.307   8.642   8.321 -1.0283  3.6828 -1.6095
  801MOL0     H 5703  -1.279   8.479   8.256  0.8505  0.2845  1.1728
  801MOL0     H 5704  -1.552   8.611   8.222  3.2388  2.0676  0.3695
  801MOL0     H 5705  -1.480   8.457   8.151  0.5378 -1.3014  1.3482
  801MOL0     H 5706  -1.432   8.387   8.389  0.3618  1.6285 -1.0200
  801MOL0     H 5707  -1.598   8.385   8.353 -0.7572  1.1213 -0.6157
  801MOL0     H 5708  -1.619   8.619   8.445 -0.1826 -0.6279 -1.8585
  801MOL0     H 5709  -1.455   8.613   8.511 -0.8197  1.7137 -1.4059
  801MOL0     H 5710  -1.685   8.411   8.572 -0.1683  0.7095 -3.1433
  801MOL0     H 5711  -1.513   8.384   8.617  0.2791  0.4464  0.3819
  801MOL0     H 5712  -1.660   8.632   8.707  0.6376  0.7236  2.6491
  801MOL0     H 5713  -1.507   8.550   8.763 -0.2031 -3.3147 -0.5025
  801MOL0     H 5714  -0.901   8.672   7.832 -1.4604  2.0972 -1.6362
  801MOL0     H 5715  -0.682   8.803   7.815 -0.5426 -1.9626 -0.6022
  801MOL0     H 5716  -0.473   9.103   7.805 -2.2554 -3.9266  4.3671
  801MOL0     H 5717  -0.271   9.233   7.721 -0.9173  2.5073  1.2162
  801MOL0     H 5718   1.402  10.385   7.405  2.0502  1.3496 -1.5957
  801MOL0     H 5719   1.479  10.612   7.401 -0.5638 -1.0108 -0.6919
  801MOL0     H 5720   1.179  11.192   7.531  1.4459 -5.6109  2.4610
  801MOL0     H 5721   1.247  11.390   7.409 -2.4025 -0.6745  3.9250
  801MOL0     H 5722   1.366  11.509   7.152  1.8576 -0.2907  3.0806
  801MOL0     H 5723   1.344  11.334   7.154  2.8418 -2.5065  0.7750
  801MOL0     H 5724   1.602  11.468   7.048  2.0025 -2.5877 -1.0536
  801MOL0     H 5725   1.563  11.301   7.049 -2.2967 -0.1219 -1.2043
  801MOL0     H 5726   1.382  11.339   6.897  2.9000 -2.9168  2.4394
  801MOL0     H 5727   1.538  11.401   6.818 -1.6874  1.3325 -1.6719
  801MOL0     H 5728   1.382  11.568   6.754  0.1620  2.2415  1.2989
  801MOL0     H 5729   1.286  11.543   6.897  0.2001 -0.3816  1.5856
  801MOL0     H 5730   1.502  11.889   6.977 -2.7993  0.5988  2.4986
  801MOL0     H 5731   1.621  11.195   7.324 -0.6689  0.0297  0.7180
  801MOL0     H 5732   1.527  10.988   7.396  0.0218  0.4309 -3.9566
  802MOL0     O 5733   0.254   5.705   3.238 -0.0969  0.1979  0.4877
  802MOL0     C 5734   0.285   5.687   3.118  0.1611  1.4362 -0.1661
  802MOL0     O 5735   0.401   5.634   3.076  0.2650  0.6280 -0.2410
  802MOL0     C 5736   0.469   5.557   3.163 -0.1205 -0.2301 -0.3813
  802MOL0     C 5737   0.418   5.471   3.260 -0.5045  0.6950  0.3537
  802MOL0     C 5738   0.488   5.393   3.353 -0.2819  0.8780 -0.0517
  802MOL0     C 5739   0.622   5.420   3.364 -0.0879 -0.1078  0.0122
  802MOL0     O 5740   0.679   5.364   3.477 -0.1065  0.4529 -0.1608
  802MOL0     C 5741   0.791   5.431   3.526 -0.5183  0.5163 -0.4530
  802MOL0     C 5742   0.827   5.374   3.659 -1.1963  0.3982  0.1147
  802MOL0     C 5743   0.723   5.377   3.772 -0.3666  0.1678 -0.1575
  802MOL0     C 5744   0.770   5.307   3.896 -0.3012 -0.2930  0.7562
  802MOL0     C 5745   0.678   5.338   4.019 -0.5739  0.2285  0.6015
  802MOL0     C 5746   0.557   5.244   4.020  0.1094  0.8005  1.1296
  802MOL0     C 5747   0.484   5.229   4.146  0.8373  0.0961  0.2489
  802MOL0     C 5748   0.560   5.194   4.283 -0.7454  0.5159  0.0751
  802MOL0     N 5749   0.679   5.109   4.266  0.1790  0.0539  0.2789
  802MOL0     C 5750   0.686   4.978   4.223  0.2644 -0.3397 -0.8065
  802MOL0     C 5751   0.816   4.944   4.235  0.1935 -1.0767  0.1818
  802MOL0     C 5752   0.877   4.818   4.191  0.4291  0.6743 -0.1429
  802MOL0     C 5753   1.008   4.791   4.260  0.0233  0.4324 -0.5165
  802MOL0     C 5754   1.138   4.874   4.214  0.2824  0.2545 -0.2599
  802MOL0     C 5755   1.267   4.809   4.269 -0.0073  0.3053  1.1410
  802MOL0     O 5756   1.370   4.847   4.178  0.1687  0.6021 -0.1408
  802MOL0     C 5757   1.395   4.760   4.069  1.0493  0.0912 -0.4822
  802MOL0     C 5758   1.376   4.807   3.940 -0.2761 -0.9989  1.3007
  802MOL0     C 5759   1.398   4.727   3.824 -0.3969  0.3206 -0.2855
  802MOL0     C 5760   1.445   4.595   3.848  0.0753  0.1581  0.8873
  802MOL0     C 5761   1.453   4.494   3.730  0.0151 -0.2705 -0.0601
  802MOL0     O 5762   1.466   4.362   3.773 -0.2029 -0.6335 -0.0563
  802MOL0     C 5763   1.485   4.278   3.672  1.0749 -0.0661  0.1570
  802MOL0     C 5764   1.602   4.260   3.605  0.0046 -0.5756  1.1710
  802MOL0     C 5765   1.628   4.160   3.515  0.9298  0.5287 -0.0390
  802MOL0     C 5766   1.526   4.070   3.477  0.0774 -0.2850  0.1054
  802MOL0     O 5767   1.547   3.960   3.402 -0.3415  0.1517  0.6194
  802MOL0     C 5768   1.631   3.981   3.289  0.4045 -1.1944 -0.1050
  802MOL0     C 5769   1.614   3.881   3.180  0.8761  0.0321 -0.4089
  802MOL0     C 5770   1.465   3.860   3.132  0.0139 -0.9143  0.0138
  802MOL0     C 5771   1.401   3.979   3.066 -1.1522  0.1895  0.4217
  802MOL0     C 5772   1.257   3.959   3.007 -0.6790 -0.9394 -0.0446
  802MOL0     C 5773   1.141   3.949   3.113 -0.2048  0.0808  0.4909
  802MOL0     C 5774   1.007   3.921   3.039  0.9570  1.0063  0.2560
  802MOL0     C 5775   0.893   3.921   3.133  0.7259  0.5017 -0.5208
  802MOL0    Cl 5776   0.771   3.795   3.091  0.1649 -0.1509 -0.2867
  802MOL0     C 5777   1.402   4.087   3.537  0.2963 -0.6411 -1.0200
  802MOL0     C 5778   1.379   4.192   3.631 -0.5039 -0.0905  0.6382
  802MOL0     O 5779   1.461   4.546   3.615 -0.1392  0.6136  0.5111
  802MOL0     C 5780   1.473   4.554   3.977 -0.4711 -0.7902 -0.7498
  802MOL0     C 5781   1.431   4.634   4.087 -0.2485 -0.3393 -0.2258
  802MOL0     N 5782   0.887   5.054   4.288 -0.0457  0.4266 -0.9227
  802MOL0     N 5783   0.798   5.149   4.319 -0.4565  0.0100  0.0978
  802MOL0     C 5784   0.686   5.496   3.267 -0.0934  0.3346  0.1135
  802MOL0     C 5785   0.608   5.572   3.175  0.4929  0.9644  0.5777
  802MOL0     C 5786   0.181   5.720   3.015  0.7528 -0.3938  0.0045
  802MOL0     C 5787   0.220   5.743   2.884 -0.6223 -0.1294 -0.5354
  802MOL0     C 5788   0.130   5.778   2.788 -0.0914  0.2536 -0.2893
  802MOL0     C 5789  -0.010   5.792   2.810 -0.0122 -1.1243  0.1161
  802MOL0     O 5790  -0.098   5.840   2.714 -0.2923 -0.3319  0.1577
  802MOL0     C 5791  -0.048   5.879   2.584  0.4581 -0.0674 -1.0206
  802MOL0     C 5792  -0.150   5.977   2.524  0.8669  0.1531 -0.0459
  802MOL0     C 5793  -0.302   5.957   2.524  0.3929  0.1480  0.7263
  802MOL0     C 5794  -0.379   6.081   2.493  1.1491  0.3533  0.0035
  802MOL0     C 5795  -0.406   6.086   2.350  0.3259  0.1871 -0.5852
  802MOL0     C 5796  -0.432   6.108   2.236  0.2108 -0.2907 -0.3183
  802MOL0     C 5797  -0.055   5.766   2.944 -0.4296 -0.8049  0.1350
  802MOL0     C 5798   0.039   5.729   3.042  0.7537 -0.0498  0.1758
  802MOL0     H 5799   0.312   5.451   3.263 -0.8022  2.2399  1.1466
  802MOL0     H 5800   0.444   5.323   3.423 -0.5760 -0.8440 -1.8631
  802MOL0     H 5801   0.761   5.536   3.538  1.4605  0.8777  2.1483
  802MOL0     H 5802   0.879   5.404   3.468  0.2260 -2.6726  1.8679
  802MOL0     H 5803   0.912   5.433   3.694 -2.3754  2.3613 -0.1550
  802MOL0     H 5804   0.875   5.280   3.632  2.1261  1.8526  0.4869
  802MOL0     H 5805   0.641   5.320   3.728  1.4486 -1.5087 -1.5369
  802MOL0     H 5806   0.698   5.481   3.796  3.6854  1.5996 -1.2317
  802MOL0     H 5807   0.783   5.199   3.889  0.8339 -0.1529  0.4635
  802MOL0     H 5808   0.866   5.359   3.907 -1.5802  2.5294 -0.3599
  802MOL0     H 5809   0.651   5.444   4.014  0.8268  0.5491 -0.8853
  802MOL0     H 5810   0.747   5.331   4.104  1.3179 -1.4196 -0.9692
  802MOL0     H 5811   0.567   5.138   3.995 -2.5211  1.1005 -1.7440
  802MOL0     H 5812   0.488   5.264   3.937  0.4628 -1.5224  0.2114
  802MOL0     H 5813   0.421   5.315   4.171 -1.5632 -1.4595 -0.1030
  802MOL0     H 5814   0.412   5.150   4.125  1.6932 -0.6390  0.0117
  802MOL0     H 5815   0.499   5.135   4.351 -0.2017  0.8286  0.8459
  802MOL0     H 5816   0.584   5.271   4.357 -1.3236 -2.6044  3.7625
  802MOL0     H 5817   0.599   4.921   4.191  0.6768 -1.1960 -0.4285
  802MOL0     H 5818   0.890   4.808   4.083  0.0450  3.9869 -0.6112
  802MOL0     H 5819   0.809   4.737   4.221  2.3645 -0.3487  1.7313
  802MOL0     H 5820   1.028   4.685   4.241 -3.4329 -0.0750 -2.0490
  802MOL0     H 5821   0.994   4.799   4.368  2.4601 -1.2641  0.0105
  802MOL0     H 5822   1.139   4.875   4.105 -0.8944  2.4827 -0.3068
  802MOL0     H 5823   1.127   4.971   4.262  0.0552  0.8095 -1.4253
  802MOL0     H 5824   1.262   4.700   4.276  1.6480  0.0937 -0.3854
  802MOL0     H 5825   1.289   4.854   4.367  0.9889  2.9220 -0.1798
  802MOL0     H 5826   1.341   4.909   3.923  0.9700 -0.8164 -0.3184
  802MOL0     H 5827   1.390   4.766   3.723 -3.0602  1.6174  0.3403
  802MOL0     H 5828   1.681   4.327   3.638  1.0986 -1.3496  0.1772
  802MOL0     H 5829   1.731   4.137   3.491  1.1316 -0.2924  1.4767
  802MOL0     H 5830   1.734   3.987   3.325  0.5833  4.5093 -0.5857
  802MOL0     H 5831   1.613   4.086   3.261 -1.0043 -0.6220  2.5285
  802MOL0     H 5832   1.657   3.793   3.228 -1.9452  0.2369  2.9336
  802MOL0     H 5833   1.672   3.912   3.093 -2.8753  0.8626 -2.8648
  802MOL0     H 5834   1.406   3.819   3.214  0.8357 -3.5861 -0.6247
  802MOL0     H 5835   1.455   3.769   3.072  1.0602 -1.2123  0.2645
  802MOL0     H 5836   1.418   4.065   3.132  1.9457  0.5684 -0.6731
  802MOL0     H 5837   1.454   4.000   2.972 -0.4511  1.3509  1.0482
  802MOL0     H 5838   1.281   3.865   2.957  3.3357 -0.6817  1.0539
  802MOL0     H 5839   1.240   4.042   2.937 -0.4410 -2.3156 -1.8188
  802MOL0     H 5840   1.141   4.027   3.190 -1.5472 -1.0059  1.6459
  802MOL0     H 5841   1.159   3.855   3.166  2.1218 -0.6825 -1.4747
  802MOL0     H 5842   0.996   3.988   2.952 -2.3263  0.8351  0.4134
  802MOL0     H 5843   1.004   3.823   2.991  3.0118  2.3161 -2.9895
  802MOL0     H 5844   0.850   4.022   3.131  0.7676  0.5205 -2.8726
  802MOL0     H 5845   0.923   3.891   3.234 -3.9903  1.9718  1.6447
  802MOL0     H 5846   1.324   4.016   3.510 -0.4948 -0.1744 -0.0455
  802MOL0     H 5847   1.288   4.214   3.686 -0.7951  1.0733 -0.2656
  802MOL0     H 5848   1.511   4.454   3.993 -2.9699 -1.9321 -1.3787
  802MOL0     H 5849   1.452   4.587   4.182 -3.0357 -0.0911  0.5970
  802MOL0     H 5850   0.794   5.506   3.258  0.0306 -2.2166 -5.4003
  802MOL0     H 5851   0.660   5.645   3.114 -1.2721  0.8863 -1.1310
  802MOL0     H 5852   0.326   5.737   2.859 -0.9000  0.2110 -1.8552
  802MOL0     H 5853   0.168   5.794   2.688 -2.1260  2.0190 -0.8545
  802MOL0     H 5854  -0.017   5.790   2.527 -0.7590 -0.9674 -0.3332
  802MOL0     H 5855   0.043   5.938   2.599 -0.1917  1.2312 -1.9793
  802MOL0     H 5856  -0.131   6.071   2.577  0.9542 -0.2008  0.5505
  802MOL0     H 5857  -0.123   5.984   2.418 -2.3629 -1.3495 -1.1091
  802MOL0     H 5858  -0.335   5.938   2.626 -0.1765 -0.7858  0.3858
  802MOL0     H 5859  -0.346   5.877   2.463 -1.6298  1.1650  0.7560
  802MOL0     H 5860  -0.479   6.080   2.539  0.1002 -0.8753 -2.1443
  802MOL0     H 5861  -0.323   6.166   2.533 -2.7093  2.0162  2.4793
  802MOL0     H 5862  -0.437   6.108   2.129 -0.0336  0.1770 -0.3106
  802MOL0     H 5863  -0.151   5.785   2.990  0.4068  1.5649  1.0296
  802MOL0     H 5864  -0.002   5.708   3.141 -0.7618  2.9919  0.3156
  803MOL0     O 5865   5.110  10.907   9.109  0.2348 -0.2629 -0.5546
  803MOL0     C 5866   5.041  11.010   9.088 -0.0590  0.3760  0.3085
  803MOL0     O 5867   4.924  11.013   9.008 -0.5480 -0.7436  0.5373
  803MOL0     C 5868   4.903  10.909   8.917  0.2648 -0.1675  1.0650
  803MOL0     C 5869   4.768  10.885   8.896 -0.6516  0.6155  0.5343
  803MOL0     C 5870   4.737  10.799   8.787 -0.4210 -0.0045 -0.1069
  803MOL0     C 5871   4.833  10.739   8.706 -1.0437  0.2708  0.0697
  803MOL0     O 5872   4.802  10.652   8.611  0.9461  0.1469  0.2560
  803MOL0     C 5873   4.839  10.512   8.624  0.7132  0.6414 -0.2679
  803MOL0     C 5874   4.760  10.427   8.529  0.2657 -0.1386  0.2618
  803MOL0     C 5875   4.789  10.279   8.528  0.7576 -0.1543 -0.6961
  803MOL0     C 5876   4.692  10.200   8.630 -0.5114  0.7844 -0.3823
  803MOL0     C 5877   4.687  10.047   8.609  0.1988 -1.1323 -0.0220
  803MOL0     C 5878   4.573   9.973   8.688  0.0419  0.7386  0.1133
  803MOL0     C 5879   4.429   9.987   8.649 -0.2480  0.0669  0.8992
  803MOL0     C 5880   4.402   9.954   8.506  0.1977 -0.1243  0.2603
  803MOL0     N 5881   4.270   9.991   8.461 -0.2799  0.6947  0.1583
  803MOL0     C 5882   4.151   9.947   8.513  0.4809  0.6185 -0.3709
  803MOL0     C 5883   4.055  10.043   8.487  0.7711  0.6822 -0.1695
  803MOL0     C 5884   3.903  10.028   8.504 -0.8361 -0.0039  0.8768
  803MOL0     C 5885   3.845  10.131   8.600  0.4648  0.0726  0.3230
  803MOL0     C 5886   3.886  10.078   8.748 -0.3094 -0.2841 -0.5655
  803MOL0     C 5887   3.915  10.214   8.829  1.6580  0.1838 -0.1641
  803MOL0     O 5888   4.046  10.270   8.807  0.8853  0.4261  0.8457
  803MOL0     C 5889   4.162  10.235   8.870  0.3448 -0.2041 -1.0411
  803MOL0     C 5890   4.276  10.295   8.828 -0.4432 -0.8504 -0.1641
  803MOL0     C 5891   4.406  10.253   8.885 -0.5096 -0.0150  0.5194
  803MOL0     C 5892   4.414  10.152   8.980 -0.5503 -0.1839 -0.5416
  803MOL0     C 5893   4.537  10.112   9.053 -0.2371  0.4947 -0.4701
  803MOL0     O 5894   4.530  10.008   9.144 -0.0773  0.1498  0.2175
  803MOL0     C 5895   4.648   9.991   9.207  0.8235 -0.2917  0.6861
  803MOL0     C 5896   4.660  10.060   9.324 -0.5978  0.0416 -0.2259
  803MOL0     C 5897   4.786  10.058   9.391  0.1895  0.6373  0.4538
  803MOL0     C 5898   4.887   9.976   9.343 -0.2974  0.2396  1.1510
  803MOL0     O 5899   5.014   9.976   9.395 -0.0499 -0.2949 -0.5726
  803MOL0     C 5900   5.068  10.086   9.467  0.0800  0.2805 -0.1408
  803MOL0     C 5901   5.210  10.069   9.508 -0.4025 -0.4779 -0.3860
  803MOL0     C 5902   5.246   9.932   9.566  0.0799 -0.7937 -0.3007
  803MOL0     C 5903   5.384   9.951   9.629 -0.6902  0.2919  0.2034
  803MOL0     C 5904   5.446   9.817   9.666 -0.0583  0.0706 -0.6073
  803MOL0     C 5905   5.589   9.836   9.726 -0.3266 -0.7353  0.2606
  803MOL0     C 5906   5.658   9.705   9.771  0.0179 -0.8308 -0.4900
  803MOL0     C 5907   5.810   9.721   9.817 -0.1501  0.6901  0.3815
  803MOL0    Cl 5908   5.919   9.702   9.674 -0.1514  0.1874  0.2547
  803MOL0     C 5909   4.869   9.905   9.219 -0.1295  0.2862  0.1855
  803MOL0     C 5910   4.747   9.906   9.156  1.4792 -0.7417 -0.0215
  803MOL0     O 5911   4.636  10.166   9.009  0.7565 -0.4070 -0.2297
  803MOL0     C 5912   4.287  10.094   9.012  0.6114  0.0587  0.3262
  803MOL0     C 5913   4.162  10.135   8.961 -0.8751  0.1129  0.4271
  803MOL0     N 5914   4.121  10.149   8.429 -0.5374  0.2872  0.0553
  803MOL0     N 5915   4.246  10.120   8.424 -0.1357  0.7142  0.2359
  803MOL0     C 5916   4.970  10.767   8.735  0.2182  0.3177 -0.3466
  803MOL0     C 5917   5.003  10.845   8.840 -0.0943 -0.6413  0.1634
  803MOL0     C 5918   5.101  11.133   9.143  0.7581  0.7482  0.6979
  803MOL0     C 5919   5.232  11.159   9.127 -0.2025  0.2532  0.0347
  803MOL0     C 5920   5.294  11.264   9.206 -0.9806  0.4887 -0.7768
  803MOL0     C 5921   5.216  11.338   9.302 -0.7749 -0.1124  0.2358
  803MOL0     O 5922   5.266  11.437   9.376 -0.8406  0.0621  0.1455
  803MOL0     C 5923   5.267  11.400   9.517  0.2547  0.4551 -0.1965
  803MOL0     C 5924   5.320  11.511   9.605 -0.6348 -0.3469 -0.9918
  803MOL0     C 5925   5.239  11.644   9.611 -0.3555  0.2779  0.5549
  803MOL0     C 5926   5.108  11.652   9.703 -0.5092  0.5925 -0.1579
  803MOL0     C 5927   4.994  11.728   9.649 -0.2791 -0.0455  0.8678
  803MOL0     C 5928   4.906  11.786   9.588  0.4181 -0.4161  0.6527
  803MOL0     C 5929   5.082  11.324   9.291 -0.0418  0.2166  1.5875
  803MOL0     C 5930   5.014  11.225   9.206 -0.0811 -1.0172  0.6690
  803MOL0     H 5931   4.687  10.923   8.958 -0.6933  2.4831 -0.6034
  803MOL0     H 5932   4.634  10.774   8.763 -0.3492 -4.2989  2.8639
  803MOL0     H 5933   4.814  10.469   8.722  0.4596 -1.2678 -1.1234
  803MOL0     H 5934   4.944  10.498   8.597  1.3903  1.6602  1.6322
  803MOL0     H 5935   4.789  10.461   8.429 -2.2793  4.5455  0.8289
  803MOL0     H 5936   4.654  10.443   8.550  0.1465 -1.8902  1.1875
  803MOL0     H 5937   4.891  10.246   8.550  0.8227 -0.5589 -1.5666
  803MOL0     H 5938   4.754  10.250   8.429  0.1949  0.9204 -0.8277
  803MOL0     H 5939   4.729  10.212   8.732  1.1478 -1.3672 -0.6685
  803MOL0     H 5940   4.594  10.246   8.612 -0.0090  1.4095 -1.6317
  803MOL0     H 5941   4.786  10.014   8.642  0.9192  0.9377  0.0180
  803MOL0     H 5942   4.676  10.028   8.502 -0.2739  1.1246 -0.4263
  803MOL0     H 5943   4.594   9.993   8.793  0.2142 -1.8932  0.6389
  803MOL0     H 5944   4.581   9.864   8.685  0.1828  0.6282  2.6691
  803MOL0     H 5945   4.356   9.941   8.716  0.9804 -1.3516  1.3141
  803MOL0     H 5946   4.421  10.096   8.655 -2.6461 -0.0902  1.5573
  803MOL0     H 5947   4.416   9.847   8.490 -1.9622 -0.2680 -1.2433
  803MOL0     H 5948   4.476  10.008   8.447  0.3855 -0.8635 -0.1979
  803MOL0     H 5949   4.142   9.841   8.534  1.9763  0.6689  0.6925
  803MOL0     H 5950   3.875   9.930   8.544  0.6127  0.1668  2.4371
  803MOL0     H 5951   3.867  10.027   8.401 -0.7210 -3.2569  0.7638
  803MOL0     H 5952   3.738  10.135   8.576  0.3504  0.9527  0.9153
  803MOL0     H 5953   3.874  10.234   8.578 -1.6414  0.4937 -0.7523
  803MOL0     H 5954   3.818  10.021   8.812 -0.3960  0.7607  0.3092
  803MOL0     H 5955   3.980  10.023   8.737  0.7314  1.3304 -0.0569
  803MOL0     H 5956   3.899  10.199   8.936  0.5558 -0.1932 -0.3611
  803MOL0     H 5957   3.841  10.286   8.792  0.6755 -0.4755  0.4776
  803MOL0     H 5958   4.291  10.360   8.743  1.6265 -0.8207  0.1781
  803MOL0     H 5959   4.496  10.304   8.855  1.4015 -1.3681  3.4716
  803MOL0     H 5960   4.588  10.137   9.351 -0.5314  1.6362 -3.9556
  803MOL0     H 5961   4.819  10.114   9.477  2.1477 -0.8017  0.7220
  803MOL0     H 5962   5.005  10.107   9.553  1.4522 -3.0384  1.8315
  803MOL0     H 5963   5.059  10.181   9.412 -1.6467 -0.2712 -0.8829
  803MOL0     H 5964   5.230  10.150   9.579  0.4141  3.9395 -5.1082
  803MOL0     H 5965   5.275  10.084   9.421  1.4196  1.5939  1.2204
  803MOL0     H 5966   5.246   9.860   9.483  1.2333 -1.5174  0.3101
  803MOL0     H 5967   5.164   9.914   9.636  1.2418  1.7415  1.8713
  803MOL0     H 5968   5.441  10.002   9.550 -2.5376  2.6633  0.2926
  803MOL0     H 5969   5.375  10.015   9.717  0.6805  1.8564 -0.7261
  803MOL0     H 5970   5.468   9.751   9.581  0.0792 -1.0883  0.3093
  803MOL0     H 5971   5.369   9.765   9.724 -2.4489  3.7174 -0.1465
  803MOL0     H 5972   5.566   9.905   9.809  1.0124 -0.0040  0.0700
  803MOL0     H 5973   5.661   9.879   9.655 -1.7407  2.0620  0.3544
  803MOL0     H 5974   5.594   9.663   9.850 -2.0171 -0.7003 -1.9776
  803MOL0     H 5975   5.655   9.638   9.684 -2.8375  0.2993 -1.3670
  803MOL0     H 5976   5.818   9.651   9.901 -0.4475  0.1222 -0.0565
  803MOL0     H 5977   5.835   9.822   9.852 -0.2627  1.5013 -1.7428
  803MOL0     H 5978   4.949   9.846   9.175 -0.7068  0.8992 -1.7846
  803MOL0     H 5979   4.726   9.853   9.063 -3.0125  0.8406 -0.1158
  803MOL0     H 5980   4.278  10.015   9.086  0.4106 -0.6288 -0.4150
  803MOL0     H 5981   4.073  10.090   9.005 -1.3994  0.3041 -0.4157
  803MOL0     H 5982   5.045  10.721   8.670 -0.4717 -0.2962 -0.7330
  803MOL0     H 5983   5.103  10.883   8.858 -0.4227 -0.3765  1.5753
  803MOL0     H 5984   5.285  11.097   9.056 -1.6189  0.8504 -1.6304
  803MOL0     H 5985   5.400  11.280   9.189 -0.0818 -3.6851  0.0334
  803MOL0     H 5986   5.328  11.310   9.524  1.0384  0.8384 -1.7536
  803MOL0     H 5987   5.164  11.369   9.539 -0.5697  0.6895 -3.2088
  803MOL0     H 5988   5.318  11.473   9.708  1.0085  1.7782 -0.0971
  803MOL0     H 5989   5.422  11.524   9.566  0.5447 -0.5320  1.7946
  803MOL0     H 5990   5.210  11.670   9.509 -2.4773 -1.7069  0.5678
  803MOL0     H 5991   5.305  11.725   9.644 -0.6869  0.2833  1.2143
  803MOL0     H 5992   5.077  11.550   9.728 -0.7439  0.8922  0.8042
  803MOL0     H 5993   5.138  11.693   9.800  0.2862 -2.6127  1.0886
  803MOL0     H 5994   4.829  11.836   9.532  3.5695 -0.1908 -4.1032
  803MOL0     H 5995   5.029  11.392   9.358  0.2740  0.9803  1.0635
  803MOL0     H 5996   4.906  11.237   9.209 -0.0349 -0.6478  0.9187
  804MOL0     O 5997   7.833   5.155   2.634 -0.0146 -0.5240  0.3057
  804MOL0     C 5998   7.879   5.257   2.691 -1.2498  0.4096 -0.1733
  804MOL0     O 5999   7.802   5.362   2.731 -0.4436  0.2165  0.0911
  804MOL0     C 6000   7.665   5.347   2.734 -0.1331 -0.8299 -0.0900
  804MOL0     C 6001   7.601   5.403   2.624  0.3743 -0.4030 -0.4880
  804MOL0     C 6002   7.453   5.409   2.621  0.1033 -0.4372  0.5218
  804MOL0     C 6003   7.379   5.351   2.734  1.1223  0.1486 -0.3867
  804MOL0     O 6004   7.235   5.354   2.742 -0.2868  0.0529 -1.3012
  804MOL0     C 6005   7.171   5.485   2.720  0.1598 -0.4432 -0.3628
  804MOL0     C 6006   7.131   5.548   2.856 -0.0930 -0.6339 -0.0515
  804MOL0     C 6007   7.247   5.600   2.950 -0.7658 -0.0843 -0.3148
  804MOL0     C 6008   7.200   5.661   3.084  0.3265 -0.4072 -1.1824
  804MOL0     C 6009   7.322   5.688   3.170 -1.4291  0.5308  0.2613
  804MOL0     C 6010   7.283   5.735   3.305 -0.4015 -0.4179  0.6366
  804MOL0     C 6011   7.392   5.804   3.378 -0.1681  0.6560 -0.0266
  804MOL0     C 6012   7.409   5.946   3.331  0.3494 -0.3030 -0.0179
  804MOL0     N 6013   7.512   6.015   3.412  0.4863 -0.2571  0.4887
  804MOL0     C 6014   7.488   6.072   3.531  0.5599  0.7813 -0.3788
  804MOL0     C 6015   7.606   6.137   3.553 -0.3250  0.5355 -0.4519
  804MOL0     C 6016   7.639   6.194   3.686  0.2373  0.0999 -0.5232
  804MOL0     C 6017   7.684   6.342   3.687  0.3671  1.0122 -1.1902
  804MOL0     C 6018   7.691   6.377   3.835 -0.0150  0.1773 -0.4125
  804MOL0     C 6019   7.761   6.506   3.869  0.0404  0.5504 -1.1450
  804MOL0     O 6020   7.794   6.496   4.010 -1.5349 -0.1183  0.3898
  804MOL0     C 6021   7.902   6.568   4.058 -0.0632 -0.6012 -0.2051
  804MOL0     C 6022   7.975   6.508   4.160  0.3536 -0.3283  0.0732
  804MOL0     C 6023   8.071   6.575   4.224  0.0526  0.4686  0.9225
  804MOL0     C 6024   8.116   6.701   4.179 -0.2468 -0.2319 -0.2985
  804MOL0     C 6025   8.225   6.774   4.249  0.6945  0.4128 -0.1369
  804MOL0     O 6026   8.281   6.725   4.363 -0.4436 -0.0868  0.2978
  804MOL0     C 6027   8.365   6.786   4.442  0.4593  0.0438  0.0934
  804MOL0     C 6028   8.404   6.924   4.445  0.1391  0.0828  0.2988
  804MOL0     C 6029   8.510   6.966   4.527 -0.0356  0.6232 -0.3934
  804MOL0     C 6030   8.561   6.886   4.627 -0.4189  0.9469 -0.4068
  804MOL0     O 6031   8.671   6.937   4.698  0.1887 -0.1639 -0.1113
  804MOL0     C 6032   8.731   6.873   4.808 -0.3638 -0.4793  0.0241
  804MOL0     C 6033   8.644   6.862   4.936  0.1412  0.1089 -0.9570
  804MOL0     C 6034   8.606   6.998   4.981 -0.5685 -0.4126  0.6269
  804MOL0     C 6035   8.551   6.986   5.123 -0.3396 -0.9731 -0.0690
  804MOL0     C 6036   8.485   7.120   5.173 -0.0640 -0.2638  0.0680
  804MOL0     C 6037   8.589   7.231   5.185  0.1836  0.1156 -0.8149
  804MOL0     C 6038   8.523   7.355   5.233  0.0224 -0.2607 -0.7339
  804MOL0     C 6039   8.620   7.467   5.272 -1.2177  0.6351  0.3646
  804MOL0    Cl 6040   8.716   7.418   5.417  0.1612 -0.4935  0.3907
  804MOL0     C 6041   8.527   6.752   4.613  0.0321  0.2225 -0.1311
  804MOL0     C 6042   8.430   6.697   4.529 -0.2317 -0.4949 -0.1595
  804MOL0     O 6043   8.264   6.875   4.191 -0.5416 -0.1006 -0.0957
  804MOL0     C 6044   8.063   6.760   4.063  0.0932  0.2016 -0.8550
  804MOL0     C 6045   7.952   6.690   4.002  0.9689  0.1876 -0.3455
  804MOL0     N 6046   7.692   6.119   3.450  0.3282 -0.0763  0.0840
  804MOL0     N 6047   7.643   6.028   3.371  0.3882 -1.3634 -0.3627
  804MOL0     C 6048   7.449   5.295   2.838  0.2056  0.2288  1.0385
  804MOL0     C 6049   7.589   5.295   2.835 -0.1227  0.2570 -1.1548
  804MOL0     C 6050   8.021   5.277   2.718 -0.6515 -0.1798 -0.0015
  804MOL0     C 6051   8.056   5.382   2.816 -1.0118  0.5643 -0.3729
  804MOL0     C 6052   8.193   5.408   2.840  0.1120  0.2164 -0.0435
  804MOL0     C 6053   8.293   5.329   2.784  0.0137 -0.2187 -0.3952
  804MOL0     O 6054   8.432   5.352   2.793 -0.4043 -0.6268  0.8249
  804MOL0     C 6055   8.488   5.257   2.883 -0.1964 -0.2627 -0.2106
  804MOL0     C 6056   8.585   5.336   2.968  0.1523 -0.1789 -0.2888
  804MOL0     C 6057   8.649   5.262   3.088  1.2473 -0.3238  1.0291
  804MOL0     C 6058   8.737   5.354   3.170 -0.2313  0.0899  0.6314
  804MOL0     C 6059   8.839   5.297   3.266  0.4553  0.3457  0.1409
  804MOL0     C 6060   8.921   5.250   3.332 -0.2979  0.3516 -0.2263
  804MOL0     C 6061   8.258   5.245   2.680  0.1356  0.2810  0.3763
  804MOL0     C 6062   8.126   5.219   2.646 -0.1048 -0.7148 -0.5099
  804MOL0     H 6063   7.651   5.438   2.534  1.1176 -1.0569 -0.3412
  804MOL0     H 6064   7.398   5.442   2.533  2.0067 -1.6452 -1.2461
  804MOL0     H 6065   7.076   5.477   2.666 -2.1141  2.6951  2.7892
  804MOL0     H 6066   7.250   5.546   2.675  2.3088 -2.0240  1.0555
  804MOL0     H 6067   7.079   5.471   2.915 -0.4318  0.5588  1.2667
  804MOL0     H 6068   7.060   5.631   2.853  0.5416  0.3754  4.7210
  804MOL0     H 6069   7.311   5.656   2.881 -0.5503 -3.6059 -3.2484
  804MOL0     H 6070   7.299   5.505   2.968  2.9061  1.5680 -1.2316
  804MOL0     H 6071   7.147   5.755   3.069 -1.7503 -1.3540 -0.2099
  804MOL0     H 6072   7.133   5.598   3.144  1.8212 -2.6511 -1.7385
  804MOL0     H 6073   7.389   5.756   3.117  1.4661 -3.2808 -1.4320
  804MOL0     H 6074   7.380   5.599   3.196  2.3457  1.8840 -2.6424
  804MOL0     H 6075   7.256   5.652   3.372 -1.5277  1.1058  2.1858
  804MOL0     H 6076   7.206   5.811   3.294  0.7895  1.0772  2.0535
  804MOL0     H 6077   7.374   5.802   3.486  1.9606 -1.3516  0.3602
  804MOL0     H 6078   7.488   5.758   3.353 -0.4528  0.0204  0.0078
  804MOL0     H 6079   7.315   5.999   3.349  1.1531  1.1029  0.1274
  804MOL0     H 6080   7.442   5.954   3.227  2.6542 -0.0975  0.6690
  804MOL0     H 6081   7.401   6.064   3.596 -0.4182  3.7095 -1.1507
  804MOL0     H 6082   7.710   6.134   3.744 -1.5500 -1.1013  0.4821
  804MOL0     H 6083   7.554   6.179   3.753  1.8089  1.1875  1.8746
  804MOL0     H 6084   7.615   6.405   3.630 -2.8943 -1.1102  0.1575
  804MOL0     H 6085   7.782   6.345   3.638  1.7620 -2.4665  1.0597
  804MOL0     H 6086   7.589   6.383   3.874  0.0440 -0.6929 -0.0794
  804MOL0     H 6087   7.736   6.300   3.899 -1.7582 -0.1330  0.4810
  804MOL0     H 6088   7.699   6.594   3.852 -1.5268 -0.0093  1.1844
  804MOL0     H 6089   7.853   6.520   3.811  0.4400  2.4953 -0.1185
  804MOL0     H 6090   7.957   6.404   4.188  0.1906 -0.4878 -0.5966
  804MOL0     H 6091   8.131   6.514   4.290 -0.9603 -0.2790  1.1566
  804MOL0     H 6092   8.355   6.988   4.373 -1.9260  1.8887  3.0610
  804MOL0     H 6093   8.534   7.072   4.518  0.0543  0.4449 -3.1899
  804MOL0     H 6094   8.823   6.929   4.825 -0.9051 -0.2499  2.4984
  804MOL0     H 6095   8.751   6.769   4.781 -2.4724 -0.9482  0.0845
  804MOL0     H 6096   8.706   6.824   5.017 -2.1852 -0.2925  0.7277
  804MOL0     H 6097   8.554   6.800   4.925 -1.4337  2.2089 -0.4107
  804MOL0     H 6098   8.533   7.046   4.914 -0.1330  1.4496  1.4192
  804MOL0     H 6099   8.691   7.067   4.988 -0.9058 -0.1223  2.1103
  804MOL0     H 6100   8.467   6.915   5.124 -1.2431  0.0498  0.7658
  804MOL0     H 6101   8.631   6.959   5.193  1.2207 -0.0695 -1.4363
  804MOL0     H 6102   8.424   7.105   5.263 -0.3638  0.1027 -0.0737
  804MOL0     H 6103   8.412   7.147   5.096  0.3757 -3.5605 -1.6845
  804MOL0     H 6104   8.627   7.265   5.088 -4.2228  0.2938 -2.6734
  804MOL0     H 6105   8.666   7.209   5.260 -2.4481 -0.8328  1.8063
  804MOL0     H 6106   8.436   7.391   5.178 -2.4771  1.5096  3.8461
  804MOL0     H 6107   8.482   7.333   5.333 -1.1652  0.8668 -0.9498
  804MOL0     H 6108   8.565   7.561   5.283 -3.4104 -0.3518 -1.3359
  804MOL0     H 6109   8.698   7.477   5.196  1.4470 -2.8906  2.3454
  804MOL0     H 6110   8.571   6.680   4.682  0.1808  1.7871  1.4937
  804MOL0     H 6111   8.417   6.589   4.522 -0.9838 -0.3575 -1.1082
  804MOL0     H 6112   8.092   6.859   4.027  2.9337  0.9269  2.8225
  804MOL0     H 6113   7.886   6.732   3.927  0.5071  0.6077  0.2809
  804MOL0     H 6114   7.395   5.247   2.919 -5.2772  1.9211 -1.1470
  804MOL0     H 6115   7.630   5.269   2.932 -2.7931  2.2334  0.6656
  804MOL0     H 6116   7.983   5.433   2.877 -2.3200 -0.1986 -1.2343
  804MOL0     H 6117   8.223   5.498   2.892  1.4068 -0.1156 -0.1996
  804MOL0     H 6118   8.554   5.177   2.850  0.5268  0.8533 -1.5734
  804MOL0     H 6119   8.418   5.212   2.954  0.1519 -1.8474 -0.8469
  804MOL0     H 6120   8.660   5.362   2.893 -0.0970  0.6264 -0.2680
  804MOL0     H 6121   8.528   5.427   2.989  0.1248  0.2698 -2.0977
  804MOL0     H 6122   8.697   5.171   3.050  0.1766  0.3016 -2.0952
  804MOL0     H 6123   8.563   5.230   3.147  1.1416 -0.2831  0.8962
  804MOL0     H 6124   8.792   5.417   3.099 -1.7110 -0.2863 -0.8914
  804MOL0     H 6125   8.674   5.430   3.219  0.1450  2.2714 -2.0424
  804MOL0     H 6126   8.991   5.200   3.397 -1.5096  0.4600  1.2205
  804MOL0     H 6127   8.339   5.195   2.626 -0.5948 -0.3464 -0.1622
  804MOL0     H 6128   8.111   5.154   2.560  1.9609 -0.1853 -1.3169
  805MOL0     O 6129  11.230   3.953   5.023 -0.1570 -0.0870 -0.2030
  805MOL0     C 6130  11.230   3.970   5.144  0.2356  0.8307 -0.5387
  805MOL0     O 6131  11.125   4.008   5.218  0.4715 -0.3868  0.1003
  805MOL0     C 6132  10.999   4.011   5.163  0.2558 -0.4419  0.6126
  805MOL0     C 6133  10.925   4.133   5.136  0.4751  0.0334  0.3810
  805MOL0     C 6134  10.806   4.133   5.074  0.2449  0.7142 -0.3477
  805MOL0     C 6135  10.738   4.012   5.033 -0.4909 -0.0471  0.5387
  805MOL0     O 6136  10.609   4.023   4.991  0.5511  0.5445  0.6054
  805MOL0     C 6137  10.564   3.921   4.892  0.2682  0.0728 -0.3559
  805MOL0     C 6138  10.551   3.986   4.750 -1.1511  0.2895 -0.8706
  805MOL0     C 6139  10.443   4.098   4.754  1.1527 -0.5191  0.1028
  805MOL0     C 6140  10.306   4.048   4.783 -0.2620 -1.1046  0.2745
  805MOL0     C 6141  10.210   4.165   4.791  0.4746  0.6635  0.5026
  805MOL0     C 6142  10.153   4.205   4.650  0.8575  0.1725  0.1768
  805MOL0     C 6143  10.013   4.153   4.611 -0.0108  0.2008  0.1887
  805MOL0     C 6144  10.005   4.005   4.581  0.4780 -0.5787  0.7419
  805MOL0     N 6145  10.066   3.968   4.452 -0.1429 -0.5448 -0.3735
  805MOL0     C 6146  10.005   3.954   4.329  0.1077  1.1184  0.1293
  805MOL0     C 6147  10.099   3.922   4.239 -0.1616 -0.2936 -1.0507
  805MOL0     C 6148  10.091   3.898   4.102 -0.0886  0.2243  0.6907
  805MOL0     C 6149  10.101   3.751   4.069 -0.2352 -0.1652  0.0847
  805MOL0     C 6150  10.153   3.729   3.922  0.7612 -0.3695 -0.2262
  805MOL0     C 6151  10.128   3.596   3.857  0.1956 -1.0842  0.1071
  805MOL0     O 6152  10.177   3.586   3.724  0.2820  0.5119 -0.2416
  805MOL0     C 6153  10.157   3.463   3.659  0.6376 -0.1777  1.0169
  805MOL0     C 6154  10.075   3.354   3.683  0.1941 -0.1665  0.5402
  805MOL0     C 6155  10.075   3.240   3.603  0.3384 -0.3901  0.4957
  805MOL0     C 6156  10.144   3.238   3.476 -0.3032 -0.0881 -1.0307
  805MOL0     C 6157  10.141   3.127   3.374  1.5332  0.8787  0.0812
  805MOL0     O 6158  10.205   3.150   3.252  0.2516  0.1206  0.7192
  805MOL0     C 6159  10.182   3.047   3.167  0.3037  0.2483 -0.3518
  805MOL0     C 6160  10.079   3.042   3.074 -0.0691  0.2622  0.7686
  805MOL0     C 6161  10.076   2.932   2.983  0.4113 -0.0185 -0.4575
  805MOL0     C 6162  10.155   2.819   2.987  0.5997 -0.2392  0.0033
  805MOL0     O 6163  10.149   2.727   2.895  0.0119  0.2265  0.6531
  805MOL0     C 6164  10.077   2.603   2.932  0.7271 -0.7654 -0.0882
  805MOL0     C 6165  10.075   2.504   2.818  0.9903 -0.0164  0.9585
  805MOL0     C 6166  10.214   2.455   2.775  0.0073 -0.4133 -0.8703
  805MOL0     C 6167  10.212   2.385   2.634 -0.2205  0.9585 -0.0585
  805MOL0     C 6168  10.320   2.282   2.621  0.0997  0.0260 -0.1483
  805MOL0     C 6169  10.449   2.335   2.544  0.5538 -0.3408 -0.0115
  805MOL0     C 6170  10.554   2.389   2.642 -0.6561 -0.9034 -0.3255
  805MOL0     C 6171  10.692   2.434   2.576 -0.0713  0.4455  0.1159
  805MOL0    Cl 6172  10.712   2.404   2.408 -0.2493 -0.0610  0.3805
  805MOL0     C 6173  10.247   2.812   3.086 -0.5561  0.4413 -0.1948
  805MOL0     C 6174  10.259   2.926   3.175  0.1540 -0.6495 -0.0073
  805MOL0     O 6175  10.063   3.036   3.400 -0.2675 -0.0581  0.2609
  805MOL0     C 6176  10.217   3.348   3.452  0.5013  0.4371  0.6250
  805MOL0     C 6177  10.225   3.456   3.541 -0.1193 -0.1574  0.3192
  805MOL0     N 6178  10.221   3.912   4.317 -0.2806 -0.6660 -0.4400
  805MOL0     N 6179  10.196   3.935   4.446 -0.2824  0.6620  0.8822
  805MOL0     C 6180  10.806   3.890   5.062  0.5206 -0.1098  0.0512
  805MOL0     C 6181  10.927   3.894   5.126 -0.2592  1.2571 -1.0996
  805MOL0     C 6182  11.351   3.940   5.228  0.1705  0.1560 -0.1886
  805MOL0     C 6183  11.353   3.953   5.369  0.2486 -0.5013  0.8971
  805MOL0     C 6184  11.472   3.937   5.446 -1.2823  0.0994  0.7234
  805MOL0     C 6185  11.594   3.915   5.383 -0.7039  0.3076  0.0582
  805MOL0     O 6186  11.704   3.933   5.469 -0.1228  0.0410 -0.8951
  805MOL0     C 6187  11.832   3.940   5.422  0.3195 -0.3235  0.3738
  805MOL0     C 6188  11.939   3.977   5.519 -0.3924  0.2590  0.0578
  805MOL0     C 6189  12.066   3.983   5.422  0.7484  0.0054 -0.2559
  805MOL0     C 6190  12.189   3.998   5.503  0.2151 -0.9582 -0.2242
  805MOL0     C 6191  12.309   4.000   5.422 -0.5946 -0.2156  0.1370
  805MOL0     C 6192  12.401   4.005   5.347 -0.0534  0.5238  0.1572
  805MOL0     C 6193  11.591   3.887   5.240  0.5266 -0.2415  0.0754
  805MOL0     C 6194  11.472   3.895   5.162 -0.3151 -0.3367 -0.6553
  805MOL0     H 6195  10.961   4.230   5.170  1.5396 -0.3154  0.2994
  805MOL0     H 6196  10.753   4.226   5.057 -1.1006  0.0321 -0.1133
  805MOL0     H 6197  10.466   3.884   4.926  0.2193 -1.8438 -2.3485
  805MOL0     H 6198  10.628   3.834   4.877  3.7802  2.1990  1.1041
  805MOL0     H 6199  10.531   3.915   4.669  1.0535 -1.6301  0.1171
  805MOL0     H 6200  10.650   4.031   4.737 -0.7705  0.1733  1.2463
  805MOL0     H 6201  10.452   4.169   4.671 -1.6932 -1.6817 -1.3088
  805MOL0     H 6202  10.468   4.151   4.847 -0.8353  0.5727  0.0747
  805MOL0     H 6203  10.257   3.988   4.706  2.4627 -2.7657 -0.3223
  805MOL0     H 6204  10.301   3.991   4.876 -0.9630 -1.0143  0.2955
  805MOL0     H 6205  10.258   4.254   4.834 -0.8212  0.2194  3.0404
  805MOL0     H 6206  10.131   4.140   4.862  2.6590 -0.3412  2.7372
  805MOL0     H 6207  10.221   4.184   4.568 -0.7388  2.0330 -1.7477
  805MOL0     H 6208  10.150   4.315   4.653 -0.8059  0.2421 -1.7844
  805MOL0     H 6209   9.941   4.170   4.692  0.8297 -0.3175  1.0654
  805MOL0     H 6210   9.964   4.205   4.528  0.6764 -0.4298 -0.6166
  805MOL0     H 6211   9.901   3.975   4.566  0.9612 -1.3691 -1.4753
  805MOL0     H 6212  10.050   3.938   4.655  2.5378 -0.0101  0.0953
  805MOL0     H 6213   9.899   3.943   4.311  0.2006 -0.5456  0.4218
  805MOL0     H 6214  10.169   3.957   4.054  1.2940 -2.2466 -0.3079
  805MOL0     H 6215   9.989   3.931   4.079 -0.6798  2.2171  5.1277
  805MOL0     H 6216  10.007   3.698   4.085 -0.4407 -0.3584 -1.5480
  805MOL0     H 6217  10.171   3.701   4.136 -1.6318  1.9573  3.3611
  805MOL0     H 6218  10.101   3.799   3.855  0.2409 -2.4354 -2.1038
  805MOL0     H 6219  10.260   3.750   3.926  0.3041  3.3212 -2.6131
  805MOL0     H 6220  10.019   3.601   3.866  0.1108  4.0083 -1.0317
  805MOL0     H 6221  10.171   3.504   3.898 -1.1954 -1.8268 -0.0489
  805MOL0     H 6222  10.006   3.355   3.766 -0.8703 -1.8617 -0.2772
  805MOL0     H 6223  10.023   3.145   3.614  1.2835 -1.1209 -1.0013
  805MOL0     H 6224   9.994   3.109   3.078 -1.5575 -1.1853 -2.6215
  805MOL0     H 6225   9.996   2.945   2.911 -1.3391 -1.0300  1.2459
  805MOL0     H 6226   9.977   2.619   2.973  0.4822 -3.7534  0.6677
  805MOL0     H 6227  10.131   2.543   3.005 -0.3324 -1.5559  0.0698
  805MOL0     H 6228  10.034   2.552   2.729 -2.0142 -1.2829  1.5326
  805MOL0     H 6229  10.003   2.426   2.843 -0.0599  0.8183  0.6283
  805MOL0     H 6230  10.255   2.380   2.843 -2.3810 -1.3367 -0.3366
  805MOL0     H 6231  10.284   2.539   2.780 -0.6089  0.0321  0.5761
  805MOL0     H 6232  10.117   2.341   2.605  1.3306 -1.9559 -1.0894
  805MOL0     H 6233  10.238   2.473   2.573  3.3847  1.1346  1.4718
  805MOL0     H 6234  10.268   2.211   2.556 -0.1551  0.7619 -0.7578
  805MOL0     H 6235  10.343   2.235   2.717 -0.0160 -0.3806 -0.3166
  805MOL0     H 6236  10.413   2.406   2.469  2.3901  0.8898  0.2025
  805MOL0     H 6237  10.488   2.248   2.490 -3.4375 -0.1600 -3.7386
  805MOL0     H 6238  10.520   2.478   2.695  1.5547  0.9761 -1.8800
  805MOL0     H 6239  10.574   2.312   2.718 -0.1810 -1.9604 -1.4834
  805MOL0     H 6240  10.763   2.370   2.629 -2.0767 -2.8918 -0.9477
  805MOL0     H 6241  10.717   2.537   2.605 -0.0311 -0.1718  2.4605
  805MOL0     H 6242  10.315   2.727   3.086  0.0117  0.8902 -0.2347
  805MOL0     H 6243  10.327   2.920   3.260  0.4100 -1.1622 -0.2401
  805MOL0     H 6244  10.278   3.355   3.362 -3.5143 -1.2818 -2.5806
  805MOL0     H 6245  10.297   3.538   3.542  1.1884 -1.0690  5.0294
  805MOL0     H 6246  10.759   3.796   5.036 -0.0116  0.3662 -0.7361
  805MOL0     H 6247  10.969   3.796   5.144 -1.1675  0.5253 -2.7106
  805MOL0     H 6248  11.260   3.982   5.417 -0.4179 -0.9529 -0.0931
  805MOL0     H 6249  11.452   3.954   5.551 -1.5994 -0.6287  0.7846
  805MOL0     H 6250  11.834   4.022   5.350 -2.9665 -1.5408 -1.2976
  805MOL0     H 6251  11.858   3.850   5.365  0.9634  0.4520 -0.6011
  805MOL0     H 6252  11.918   4.064   5.582 -0.3433  0.8039 -0.6682
  805MOL0     H 6253  11.950   3.887   5.580  0.9096 -2.1358 -3.3786
  805MOL0     H 6254  12.056   4.067   5.352  1.0401 -0.5296 -0.9536
  805MOL0     H 6255  12.076   3.892   5.361 -0.3238 -0.0065 -0.4480
  805MOL0     H 6256  12.182   4.086   5.567 -1.8126  0.6863 -2.5636
  805MOL0     H 6257  12.197   3.911   5.570  0.0211 -0.2062  0.7880
  805MOL0     H 6258  12.492   4.003   5.290  0.9812 -2.1531  1.7428
  805MOL0     H 6259  11.687   3.863   5.195 -0.4993 -3.6324 -0.6173
  805MOL0     H 6260  11.486   3.873   5.057  2.3829 -1.1189 -0.1953
  806MOL0     O 6261   7.795   5.069   1.645 -0.2176 -0.3658 -0.7047
  806MOL0     C 6262   7.841   5.181   1.612 -1.9425  0.9133 -1.0735
  806MOL0     O 6263   7.770   5.295   1.607  0.7922  0.2273  0.0788
  806MOL0     C 6264   7.652   5.293   1.665  0.5783 -0.2964  0.7084
  806MOL0     C 6265   7.634   5.264   1.798 -0.1713 -0.7285 -0.8450
  806MOL0     C 6266   7.510   5.295   1.857  0.3430 -0.3925  0.0171
  806MOL0     C 6267   7.398   5.336   1.779  0.4309  0.2472  0.1035
  806MOL0     O 6268   7.277   5.361   1.822  0.2311 -0.3452  0.8882
  806MOL0     C 6269   7.235   5.340   1.964  0.8753  0.9260  0.0490
  806MOL0     C 6270   7.152   5.211   1.969 -0.4314  0.4842 -1.0395
  806MOL0     C 6271   7.249   5.089   1.964  0.0604 -0.0857  0.7015
  806MOL0     C 6272   7.189   4.951   1.995 -0.3448  0.8388  0.7584
  806MOL0     C 6273   7.302   4.849   1.958 -0.4586 -0.1542 -0.1053
  806MOL0     C 6274   7.299   4.716   2.037 -0.0919  0.5099 -1.0534
  806MOL0     C 6275   7.384   4.618   1.960  0.6824  1.3641  0.5740
  806MOL0     C 6276   7.534   4.651   1.968 -0.5474  0.7873 -0.0471
  806MOL0     N 6277   7.607   4.540   1.907 -0.4825  0.7032  0.2155
  806MOL0     C 6278   7.593   4.485   1.778 -0.7924  0.3940 -0.3927
  806MOL0     C 6279   7.683   4.381   1.766  0.5766 -0.1191 -0.6565
  806MOL0     C 6280   7.735   4.322   1.652 -0.0036 -0.2504 -0.1560
  806MOL0     C 6281   7.629   4.244   1.575  0.0784  0.2094 -0.7301
  806MOL0     C 6282   7.703   4.122   1.519  0.2971 -0.2789 -1.0959
  806MOL0     C 6283   7.610   4.067   1.411 -0.0529  0.2959 -0.3884
  806MOL0     O 6284   7.488   4.015   1.474  0.6505 -0.3632 -0.2729
  806MOL0     C 6285   7.388   3.952   1.408 -0.2964 -0.2142  0.2689
  806MOL0     C 6286   7.383   3.953   1.268 -0.0617  0.6850  0.1549
  806MOL0     C 6287   7.278   3.893   1.204 -0.0115  0.6806 -0.6410
  806MOL0     C 6288   7.168   3.845   1.272  0.3534 -0.0221 -0.1511
  806MOL0     C 6289   7.036   3.816   1.200 -0.5322  0.6238 -0.2669
  806MOL0     O 6290   7.044   3.770   1.068 -0.2616  0.2255 -0.1389
  806MOL0     C 6291   6.940   3.794   0.990  1.4702 -0.2662 -0.0208
  806MOL0     C 6292   6.817   3.722   0.996  0.1967  1.5256 -0.0633
  806MOL0     C 6293   6.706   3.760   0.916 -1.0051  0.3729 -0.4217
  806MOL0     C 6294   6.718   3.864   0.821  1.1736 -0.2361  1.1092
  806MOL0     O 6295   6.628   3.907   0.731  0.3965  1.2696 -0.2515
  806MOL0     C 6296   6.492   3.851   0.746 -0.1222 -1.0555  0.3018
  806MOL0     C 6297   6.411   3.913   0.640  0.3003  0.2332 -0.4887
  806MOL0     C 6298   6.257   3.884   0.627  0.0957 -0.9236  0.8430
  806MOL0     C 6299   6.197   3.882   0.758  1.2795 -0.6555  0.1848
  806MOL0     C 6300   6.043   3.900   0.770  0.8598 -0.5656  0.7084
  806MOL0     C 6301   5.961   3.799   0.696 -0.5871  0.0329 -0.1666
  806MOL0     C 6302   5.812   3.795   0.742 -0.8506  0.3508  0.1203
  806MOL0     C 6303   5.743   3.938   0.715  0.1499  0.4806  0.0492
  806MOL0    Cl 6304   5.577   3.904   0.677  0.2143  0.1037 -0.3629
  806MOL0     C 6305   6.839   3.933   0.812 -0.4667  0.2087  0.0040
  806MOL0     C 6306   6.943   3.902   0.901 -0.1621 -0.5566 -0.4005
  806MOL0     O 6307   6.930   3.847   1.253 -0.2212 -0.8942 -0.0250
  806MOL0     C 6308   7.172   3.857   1.412  0.5312  0.0887 -0.1561
  806MOL0     C 6309   7.287   3.899   1.482  0.4577  0.5630  0.2845
  806MOL0     N 6310   7.736   4.376   1.893  0.1908 -0.3310 -0.5372
  806MOL0     N 6311   7.685   4.451   1.980  0.2099 -0.1006  0.1020
  806MOL0     C 6312   7.425   5.364   1.646  0.6258 -0.4816 -0.3025
  806MOL0     C 6313   7.546   5.354   1.593  1.2844 -0.3196  0.3078
  806MOL0     C 6314   7.994   5.190   1.581  1.1843 -0.5511 -0.3688
  806MOL0     C 6315   8.033   5.309   1.527 -0.2006 -1.0765 -0.1095
  806MOL0     C 6316   8.168   5.338   1.516  0.3294  0.8292  0.5384
  806MOL0     C 6317   8.265   5.239   1.530  0.1218  0.4176 -0.0803
  806MOL0     O 6318   8.396   5.266   1.504 -0.0739  0.5491 -0.2991
  806MOL0     C 6319   8.486   5.155   1.486  0.2909 -0.6523 -0.3769
  806MOL0     C 6320   8.617   5.207   1.432 -0.2113  0.2129  0.6182
  806MOL0     C 6321   8.750   5.209   1.519 -0.0296  0.1660 -0.2458
  806MOL0     C 6322   8.783   5.110   1.633 -0.5727  0.1548 -0.7731
  806MOL0     C 6323   8.802   4.973   1.580  0.1002  1.1236 -0.5632
  806MOL0     C 6324   8.805   4.854   1.546  0.2277 -0.6639  0.2625
  806MOL0     C 6325   8.217   5.114   1.590  0.0763 -0.2328  0.5133
  806MOL0     C 6326   8.082   5.090   1.621  0.7527  0.5412  0.0459
  806MOL0     H 6327   7.708   5.223   1.866  0.8604  0.6405 -1.1012
  806MOL0     H 6328   7.517   5.315   1.964  3.0451  0.7639 -0.2932
  806MOL0     H 6329   7.181   5.417   2.019  1.1297  0.2588  1.2664
  806MOL0     H 6330   7.322   5.337   2.030  1.3433 -0.2249 -0.5753
  806MOL0     H 6331   7.088   5.205   1.881  0.1853  3.1077 -1.7449
  806MOL0     H 6332   7.092   5.200   2.060  1.0032  4.6880  0.6290
  806MOL0     H 6333   7.329   5.107   2.036  2.1301 -0.9132 -1.2615
  806MOL0     H 6334   7.300   5.095   1.866 -0.7787  4.2800  0.3238
  806MOL0     H 6335   7.151   4.935   2.096  0.6645 -3.6559  0.6142
  806MOL0     H 6336   7.111   4.936   1.920 -0.4031 -0.4950  1.0690
  806MOL0     H 6337   7.396   4.901   1.975  0.4056 -1.8976  0.7599
  806MOL0     H 6338   7.296   4.827   1.851  0.4555  1.3458 -0.4800
  806MOL0     H 6339   7.198   4.680   2.058  0.6370 -0.3279  1.2520
  806MOL0     H 6340   7.336   4.728   2.139 -1.2084  1.6880 -0.7689
  806MOL0     H 6341   7.366   4.517   1.999 -1.7794  0.8325 -1.6337
  806MOL0     H 6342   7.362   4.612   1.853  0.9498 -0.9076  0.5876
  806MOL0     H 6343   7.561   4.662   2.073 -1.1044 -1.2820  0.3559
  806MOL0     H 6344   7.554   4.739   1.905  0.9931 -0.0366 -0.7678
  806MOL0     H 6345   7.532   4.524   1.698 -2.5610  0.4828  0.9414
  806MOL0     H 6346   7.821   4.260   1.677  2.4943  2.2952 -1.8050
  806MOL0     H 6347   7.769   4.401   1.584 -2.5674  0.1298 -1.1267
  806MOL0     H 6348   7.592   4.309   1.495  1.4388 -0.2029 -1.7419
  806MOL0     H 6349   7.554   4.192   1.636  1.4477 -1.5451 -0.4593
  806MOL0     H 6350   7.801   4.146   1.477  0.3599  2.0763  0.1885
  806MOL0     H 6351   7.719   4.052   1.602 -1.4835  2.0473  1.3993
  806MOL0     H 6352   7.661   3.988   1.355 -0.7930 -0.7611  0.3843
  806MOL0     H 6353   7.581   4.147   1.343 -1.2063 -1.2466 -1.7785
  806MOL0     H 6354   7.471   3.985   1.214  2.3718 -1.5355  2.4911
  806MOL0     H 6355   7.277   3.896   1.096  1.9643  3.8448 -0.6985
  806MOL0     H 6356   6.814   3.634   1.059  1.1650 -0.4537 -2.5950
  806MOL0     H 6357   6.621   3.694   0.926 -0.2277 -0.6920 -0.6311
  806MOL0     H 6358   6.463   3.889   0.844  1.5930  2.5374 -0.4233
  806MOL0     H 6359   6.484   3.743   0.729 -2.1415 -1.2298  2.0548
  806MOL0     H 6360   6.458   3.902   0.542  0.6014 -0.4179 -0.2792
  806MOL0     H 6361   6.425   4.013   0.682 -1.0503  0.4119 -0.4278
  806MOL0     H 6362   6.236   3.792   0.570  3.6353 -1.2904 -0.1035
  806MOL0     H 6363   6.222   3.970   0.569  3.1551 -0.3475 -0.3514
  806MOL0     H 6364   6.223   3.792   0.815 -2.6652 -4.5996 -3.4796
  806MOL0     H 6365   6.237   3.968   0.813  1.2104  0.7093 -1.7505
  806MOL0     H 6366   6.005   3.999   0.742  0.9454 -0.6307  0.3575
  806MOL0     H 6367   6.031   3.892   0.878 -1.6120 -1.0817  0.4436
  806MOL0     H 6368   6.018   3.707   0.711 -0.6886  0.0540  0.3552
  806MOL0     H 6369   5.969   3.818   0.589 -0.4117  2.7027  0.2496
  806MOL0     H 6370   5.772   3.728   0.666 -0.6174  0.5652 -0.1934
  806MOL0     H 6371   5.797   3.758   0.844 -0.3288 -0.5878 -0.1319
  806MOL0     H 6372   5.797   3.982   0.631  2.8848 -1.4020  0.6580
  806MOL0     H 6373   5.770   3.999   0.802 -2.1891  4.1444 -1.5466
  806MOL0     H 6374   6.837   4.019   0.746 -2.5685 -0.3264 -0.7308
  806MOL0     H 6375   7.030   3.966   0.900  1.0998 -2.1362  1.5432
  806MOL0     H 6376   7.084   3.848   1.475  0.5754 -2.2363 -0.3467
  806MOL0     H 6377   7.282   3.904   1.590 -2.7833  3.3521  0.1503
  806MOL0     H 6378   7.336   5.399   1.594 -0.4334 -0.4455  1.4434
  806MOL0     H 6379   7.548   5.381   1.488 -0.5602  0.3528  0.4132
  806MOL0     H 6380   7.956   5.382   1.503 -2.1969 -2.7579  0.8725
  806MOL0     H 6381   8.202   5.434   1.479 -1.0712  0.8651 -0.7556
  806MOL0     H 6382   8.435   5.094   1.412 -2.6332 -0.2171  1.0958
  806MOL0     H 6383   8.498   5.095   1.577 -1.0247 -0.2529  0.0911
  806MOL0     H 6384   8.649   5.159   1.339  0.9004  2.4651 -0.2263
  806MOL0     H 6385   8.585   5.306   1.399 -1.2198 -0.9840 -2.3463
  806MOL0     H 6386   8.736   5.310   1.559 -3.7434 -0.4119  0.3386
  806MOL0     H 6387   8.837   5.213   1.453  0.7852  1.7011  0.8581
  806MOL0     H 6388   8.870   5.148   1.688 -1.8966  1.7956  0.2790
  806MOL0     H 6389   8.707   5.110   1.711  0.8481 -3.8383  0.9293
  806MOL0     H 6390   8.823   4.753   1.516  2.0631 -1.2093  2.8302
  806MOL0     H 6391   8.292   5.045   1.629 -0.3347 -1.8207 -1.3518
  806MOL0     H 6392   8.043   5.004   1.674 -1.6701 -0.3755 -2.9160
  807MOL0     O 6393   0.669   1.217   8.469 -0.3299  0.1672 -0.4431
  807MOL0     C 6394   0.726   1.180   8.569  0.7185  0.4319  0.2901
  807MOL0     O 6395   0.823   1.248   8.642  0.5235  0.4138  0.1840
  807MOL0     C 6396   0.871   1.368   8.600  0.3682  0.6713 -0.8243
  807MOL0     C 6397   0.799   1.485   8.574  1.1118  0.5167 -0.2366
  807MOL0     C 6398   0.865   1.613   8.558  0.0943  0.0277  0.3957
  807MOL0     C 6399   1.004   1.616   8.539  0.1424 -0.7200  1.0820
  807MOL0     O 6400   1.050   1.739   8.527  0.2227  0.8064 -0.4294
  807MOL0     C 6401   1.187   1.745   8.545  0.7884  0.7279  1.8089
  807MOL0     C 6402   1.212   1.886   8.512  0.5309  0.3015 -0.2232
  807MOL0     C 6403   1.355   1.915   8.537  0.1250  0.1614  0.3758
  807MOL0     C 6404   1.382   2.061   8.500 -0.7223  0.4168  1.4401
  807MOL0     C 6405   1.370   2.094   8.353  0.0720  0.1481 -0.5723
  807MOL0     C 6406   1.459   2.208   8.307  0.1461 -1.0822 -0.4142
  807MOL0     C 6407   1.595   2.169   8.270  0.1232  1.1620  1.0639
  807MOL0     C 6408   1.677   2.273   8.201  0.0132  0.5124 -0.1630
  807MOL0     N 6409   1.817   2.232   8.193 -0.8242 -0.0708  0.1017
  807MOL0     C 6410   1.882   2.216   8.072  0.0441  0.3132 -0.1849
  807MOL0     C 6411   2.007   2.165   8.109  0.5875  0.4079 -0.0323
  807MOL0     C 6412   2.116   2.136   8.017 -0.8909  1.2024  0.4330
  807MOL0     C 6413   2.082   2.155   7.868 -0.3757  0.6319 -0.2623
  807MOL0     C 6414   2.186   2.111   7.773 -0.3660  0.0084 -0.8318
  807MOL0     C 6415   2.305   2.207   7.758 -0.6941 -0.2225  0.1636
  807MOL0     O 6416   2.282   2.327   7.673  0.6888  0.1843  0.3459
  807MOL0     C 6417   2.293   2.459   7.721 -0.2304  0.3756  0.3619
  807MOL0     C 6418   2.348   2.495   7.854  0.4830 -0.1691  0.6710
  807MOL0     C 6419   2.344   2.636   7.891  0.8794 -0.3626  0.5577
  807MOL0     C 6420   2.282   2.734   7.815 -0.9717 -0.2761  0.1022
  807MOL0     C 6421   2.245   2.861   7.868  0.2890  0.1330  0.3449
  807MOL0     O 6422   2.296   2.902   7.993 -0.8397  0.1454 -0.0205
  807MOL0     C 6423   2.243   3.019   8.048  0.7109 -0.9774  0.3822
  807MOL0     C 6424   2.271   3.156   8.016 -0.1153  0.1575 -0.1461
  807MOL0     C 6425   2.220   3.264   8.092  1.0266  0.0623  0.8074
  807MOL0     C 6426   2.147   3.239   8.212  0.8423 -0.6000  0.2947
  807MOL0     O 6427   2.094   3.339   8.297 -0.0595 -0.6249 -0.5129
  807MOL0     C 6428   2.015   3.452   8.233 -0.7647 -0.1711 -0.8016
  807MOL0     C 6429   1.908   3.482   8.331 -0.1065 -0.4879  0.6891
  807MOL0     C 6430   1.779   3.399   8.318 -0.1957  0.8978  0.0240
  807MOL0     C 6431   1.692   3.427   8.439 -0.1422 -0.0997 -0.4525
  807MOL0     C 6432   1.558   3.349   8.434  0.3359 -0.3735 -0.4704
  807MOL0     C 6433   1.468   3.380   8.308  0.1168 -0.2674 -0.4485
  807MOL0     C 6434   1.424   3.527   8.299 -0.7946 -0.0897 -0.2115
  807MOL0     C 6435   1.292   3.551   8.221 -0.2434  0.3809  0.8553
  807MOL0    Cl 6436   1.151   3.467   8.289 -0.4136 -0.0858  0.3493
  807MOL0     C 6437   2.123   3.107   8.248 -0.5361  1.0028 -0.3029
  807MOL0     C 6438   2.176   3.000   8.167 -0.8295  0.4600  0.3865
  807MOL0     O 6439   2.157   2.924   7.814 -0.3381  0.7523 -0.0748
  807MOL0     C 6440   2.240   2.699   7.688  0.5830 -0.1030 -0.1440
  807MOL0     C 6441   2.251   2.568   7.642 -0.4168  0.1145  0.3075
  807MOL0     N 6442   2.010   2.145   8.246  0.0783 -1.2404 -0.2325
  807MOL0     N 6443   1.890   2.185   8.296  0.3094 -1.2272  0.1522
  807MOL0     C 6444   1.071   1.488   8.551 -0.7018  0.1046  0.2999
  807MOL0     C 6445   1.003   1.373   8.587 -0.9663 -0.2410  1.0836
  807MOL0     C 6446   0.692   1.049   8.621 -0.3672  0.0552  0.5282
  807MOL0     C 6447   0.777   0.985   8.708  0.4437 -1.1546  0.4948
  807MOL0     C 6448   0.735   0.878   8.783 -0.5136 -0.1896  0.7239
  807MOL0     C 6449   0.609   0.822   8.755  0.5356  0.2776 -0.6749
  807MOL0     O 6450   0.572   0.711   8.836 -0.1533  0.4930  0.6252
  807MOL0     C 6451   0.456   0.647   8.785  0.2584 -0.2731  0.0900
  807MOL0     C 6452   0.401   0.540   8.874  0.4634 -0.3661 -0.1675
  807MOL0     C 6453   0.501   0.426   8.871  0.9587  0.6387  0.8874
  807MOL0     C 6454   0.459   0.324   8.980  0.8065  0.0370  0.8032
  807MOL0     C 6455   0.354   0.235   8.926 -0.3567 -0.9498  0.8844
  807MOL0     C 6456   0.271   0.167   8.877  0.8986 -1.2921  0.0340
  807MOL0     C 6457   0.529   0.872   8.649 -0.7532  0.8305 -0.2968
  807MOL0     C 6458   0.569   0.990   8.589 -0.1429  0.1643  0.6386
  807MOL0     H 6459   0.690   1.486   8.574  0.9748 -2.4245  1.5072
  807MOL0     H 6460   0.810   1.707   8.552  0.5231  0.2360 -0.5531
  807MOL0     H 6461   1.236   1.675   8.477 -4.4994  0.2185 -2.1722
  807MOL0     H 6462   1.237   1.725   8.640  2.0371 -0.4436  0.9516
  807MOL0     H 6463   1.149   1.947   8.578 -0.6810 -0.5052 -0.6068
  807MOL0     H 6464   1.179   1.919   8.413 -3.9920  0.5615  1.1554
  807MOL0     H 6465   1.412   1.851   8.469 -0.4937 -0.9588  0.8816
  807MOL0     H 6466   1.390   1.901   8.639  2.7923 -0.3852 -0.5409
  807MOL0     H 6467   1.313   2.129   8.550  1.3689  4.2458 -0.5037
  807MOL0     H 6468   1.486   2.066   8.531 -0.1885 -2.4099  0.4527
  807MOL0     H 6469   1.268   2.134   8.348  0.1604  0.7871  1.6905
  807MOL0     H 6470   1.373   2.002   8.294  4.3623 -0.3130  0.0570
  807MOL0     H 6471   1.459   2.282   8.387 -0.9950 -1.7142  0.1996
  807MOL0     H 6472   1.412   2.250   8.217  0.4561  2.5994  0.9853
  807MOL0     H 6473   1.649   2.129   8.356  0.5217  1.5025  0.9733
  807MOL0     H 6474   1.583   2.084   8.203 -2.0871  1.4631  1.0066
  807MOL0     H 6475   1.678   2.370   8.252  2.1321  0.6370 -0.3493
  807MOL0     H 6476   1.633   2.286   8.102  3.3723 -0.6924 -1.9581
  807MOL0     H 6477   1.840   2.230   7.973 -0.4678 -0.9170 -0.1610
  807MOL0     H 6478   2.151   2.034   8.037 -1.8671  0.3618 -1.7566
  807MOL0     H 6479   2.202   2.201   8.035  0.1476  0.2554 -0.8372
  807MOL0     H 6480   2.050   2.259   7.857 -4.0313  0.4210  4.7021
  807MOL0     H 6481   1.996   2.088   7.858  0.3949 -0.8965  2.2651
  807MOL0     H 6482   2.218   2.008   7.789  2.9100  1.4119  4.1192
  807MOL0     H 6483   2.135   2.116   7.676 -1.1745  2.0494 -0.3480
  807MOL0     H 6484   2.387   2.149   7.714 -1.4996 -1.2601 -0.0031
  807MOL0     H 6485   2.352   2.232   7.853  0.0290  1.4005 -0.5806
  807MOL0     H 6486   2.408   2.423   7.908 -0.3965 -0.8815  0.7255
  807MOL0     H 6487   2.385   2.669   7.986  0.4335  0.8342  0.3461
  807MOL0     H 6488   2.330   3.162   7.926 -0.8038 -0.6445 -0.6630
  807MOL0     H 6489   2.246   3.358   8.045  3.3955 -1.5637 -1.4019
  807MOL0     H 6490   1.967   3.423   8.139 -0.5778  0.7975 -1.2135
  807MOL0     H 6491   2.078   3.541   8.218 -2.0400  1.0783  0.8975
  807MOL0     H 6492   1.889   3.588   8.312 -1.0380 -0.5119  1.4405
  807MOL0     H 6493   1.944   3.475   8.434  0.3866  2.8403  0.8455
  807MOL0     H 6494   1.788   3.292   8.300 -2.8437  0.4350  0.9669
  807MOL0     H 6495   1.721   3.431   8.231 -1.3521  0.6700  0.6890
  807MOL0     H 6496   1.746   3.390   8.527  0.2663  1.2428 -0.1220
  807MOL0     H 6497   1.688   3.534   8.460  3.1386  0.0611 -0.2206
  807MOL0     H 6498   1.514   3.373   8.531 -0.1301 -2.9608  0.0294
  807MOL0     H 6499   1.577   3.242   8.442 -0.0199 -0.4992 -1.2018
  807MOL0     H 6500   1.376   3.322   8.324  0.8784 -1.2889  0.3547
  807MOL0     H 6501   1.518   3.353   8.215  0.2058 -0.8462 -0.2411
  807MOL0     H 6502   1.397   3.555   8.402 -0.8308 -1.8744  0.2896
  807MOL0     H 6503   1.500   3.598   8.266 -0.4608  0.5621  1.8151
  807MOL0     H 6504   1.304   3.538   8.113 -1.4284  0.5058  0.6988
  807MOL0     H 6505   1.259   3.655   8.226 -0.5816  0.2771  0.8318
  807MOL0     H 6506   2.067   3.093   8.340  0.8234  2.3171  0.7807
  807MOL0     H 6507   2.163   2.900   8.207  3.6030 -0.4088  0.1029
  807MOL0     H 6508   2.190   2.775   7.629 -3.1020 -0.9461  1.5669
  807MOL0     H 6509   2.230   2.553   7.536  0.1616  2.2045 -0.1344
  807MOL0     H 6510   1.179   1.482   8.539 -0.9733 -0.1622 -3.1689
  807MOL0     H 6511   1.049   1.276   8.609 -2.5094 -1.4077 -0.5578
  807MOL0     H 6512   0.870   1.035   8.732  0.2814 -0.8018  0.3940
  807MOL0     H 6513   0.793   0.825   8.857 -0.6126 -1.7396 -0.2740
  807MOL0     H 6514   0.481   0.607   8.686  1.9412 -2.0415  1.1896
  807MOL0     H 6515   0.372   0.717   8.774 -0.0440 -0.7611 -0.8396
  807MOL0     H 6516   0.393   0.586   8.973 -0.6875  2.3273 -1.4048
  807MOL0     H 6517   0.304   0.501   8.843  0.5962  0.0384 -1.1119
  807MOL0     H 6518   0.608   0.444   8.887  1.1127 -1.9206  3.6035
  807MOL0     H 6519   0.489   0.371   8.777  2.6694  1.3333  0.2231
  807MOL0     H 6520   0.549   0.265   9.002  0.3352 -0.8470  0.4103
  807MOL0     H 6521   0.431   0.373   9.073  0.7614  0.4600  0.5676
  807MOL0     H 6522   0.197   0.094   8.853 -2.9171  2.0062  0.5825
  807MOL0     H 6523   0.425   0.843   8.635 -0.9480 -0.0881  2.3119
  807MOL0     H 6524   0.509   1.022   8.504  1.3388 -0.0212 -0.5356
  808MOL0     O 6525   2.799   4.658   8.940 -0.4609 -0.1608 -0.2270
  808MOL0     C 6526   2.697   4.660   9.009 -0.2651 -1.2757  0.1239
  808MOL0     O 6527   2.575   4.625   8.969  0.0960 -0.3546 -0.2661
  808MOL0     C 6528   2.540   4.626   8.831 -0.9045  0.4210 -0.0123
  808MOL0     C 6529   2.406   4.669   8.795 -0.6658 -0.4608  0.3187
  808MOL0     C 6530   2.368   4.661   8.663 -0.6026 -0.0251  0.3837
  808MOL0     C 6531   2.447   4.609   8.562 -1.4749  0.9501  0.6819
  808MOL0     O 6532   2.395   4.601   8.437  0.5124  0.3337  0.1762
  808MOL0     C 6533   2.469   4.667   8.344 -0.2412  0.0608  0.9560
  808MOL0     C 6534   2.475   4.824   8.372  0.0060 -0.1490 -0.4267
  808MOL0     C 6535   2.592   4.891   8.297 -0.1321 -0.4753 -0.5641
  808MOL0     C 6536   2.717   4.839   8.350 -0.0143  0.0085  0.6307
  808MOL0     C 6537   2.759   4.867   8.495  0.7755  0.2702  0.9985
  808MOL0     C 6538   2.898   4.815   8.510  0.3548  0.1318 -0.0841
  808MOL0     C 6539   2.935   4.811   8.655 -0.0148  0.2345  0.4081
  808MOL0     C 6540   3.085   4.781   8.672  0.7217 -0.7070  0.2967
  808MOL0     N 6541   3.128   4.641   8.688 -0.1790 -0.6093  0.7539
  808MOL0     C 6542   3.074   4.561   8.783 -0.3614 -0.2135 -0.1391
  808MOL0     C 6543   3.145   4.445   8.775 -0.1489  0.1950  0.2009
  808MOL0     C 6544   3.121   4.327   8.864  0.1210 -0.6766  1.0930
  808MOL0     C 6545   3.251   4.281   8.929 -0.9971 -0.5514 -0.2665
  808MOL0     C 6546   3.213   4.162   9.025  0.6782  1.2034 -0.2666
  808MOL0     C 6547   3.334   4.117   9.107 -0.5908 -0.1262 -0.3929
  808MOL0     O 6548   3.333   3.973   9.121 -0.0259 -0.8611  0.2669
  808MOL0     C 6549   3.440   3.913   9.187 -0.4708 -0.1414  0.3019
  808MOL0     C 6550   3.456   3.774   9.194  0.2979 -0.1093 -0.7230
  808MOL0     C 6551   3.566   3.712   9.260 -0.0846 -0.5687  0.1847
  808MOL0     C 6552   3.671   3.793   9.315 -0.5663 -0.0175 -0.0818
  808MOL0     C 6553   3.790   3.729   9.368  0.0631 -0.2604 -0.1817
  808MOL0     O 6554   3.775   3.596   9.400 -0.0398  0.0208  0.2728
  808MOL0     C 6555   3.890   3.528   9.441  0.5090 -1.2100 -0.1909
  808MOL0     C 6556   3.931   3.418   9.369  0.5361  0.2247  0.1958
  808MOL0     C 6557   4.038   3.341   9.406  0.2322 -0.6963  0.4827
  808MOL0     C 6558   4.110   3.372   9.523 -2.3647 -1.0021  0.4321
  808MOL0     O 6559   4.212   3.294   9.579 -0.1758 -0.3242  0.8250
  808MOL0     C 6560   4.262   3.183   9.512  0.3646 -0.1152 -0.1182
  808MOL0     C 6561   4.368   3.137   9.600  0.3251  0.3772  0.2800
  808MOL0     C 6562   4.408   2.989   9.572 -0.4089 -0.5259 -0.5777
  808MOL0     C 6563   4.539   2.958   9.647  0.5600  0.3852  1.0130
  808MOL0     C 6564   4.595   2.822   9.621  0.4197  0.6106  1.0340
  808MOL0     C 6565   4.696   2.795   9.727  0.8141  0.9068 -0.2626
  808MOL0     C 6566   4.808   2.698   9.685 -0.4635 -1.0675 -0.2147
  808MOL0     C 6567   4.868   2.634   9.804 -0.2062  0.2799  0.7062
  808MOL0    Cl 6568   5.005   2.528   9.764  0.1694 -0.5986  0.0378
  808MOL0     C 6569   4.084   3.496   9.592 -0.8401  0.7513  0.3104
  808MOL0     C 6570   3.968   3.571   9.550 -0.2559  0.5102  0.2191
  808MOL0     O 6571   3.885   3.801   9.381  0.0082  0.2980 -0.4854
  808MOL0     C 6572   3.662   3.935   9.294 -1.0638  0.6420  1.0347
  808MOL0     C 6573   3.550   3.990   9.227 -0.0654 -0.1677 -0.2028
  808MOL0     N 6574   3.237   4.460   8.672  0.3850  0.3991 -0.2169
  808MOL0     N 6575   3.230   4.580   8.633 -0.0918 -0.0563 -0.2928
  808MOL0     C 6576   2.571   4.550   8.600 -0.0658  0.6783 -0.4964
  808MOL0     C 6577   2.617   4.556   8.736 -0.1272  0.2344  1.3419
  808MOL0     C 6578   2.715   4.721   9.140 -0.2412 -0.3085 -0.1052
  808MOL0     C 6579   2.612   4.727   9.229  0.4808  0.4688 -0.5598
  808MOL0     C 6580   2.638   4.781   9.354  0.7918 -0.5932  0.0316
  808MOL0     C 6581   2.755   4.825   9.404  0.1622  0.0780 -0.2815
  808MOL0     O 6582   2.769   4.865   9.536  0.5086  0.5127  0.3677
  808MOL0     C 6583   2.886   4.932   9.584 -0.1500  0.0061 -0.1473
  808MOL0     C 6584   2.876   4.961   9.733  0.0092 -0.2842  0.3649
  808MOL0     C 6585   2.992   5.043   9.773  0.2277 -0.1015 -0.9741
  808MOL0     C 6586   3.033   5.036   9.922 -0.5307  0.9659 -0.1218
  808MOL0     C 6587   2.934   5.084  10.009  0.1580 -0.4623 -1.0329
  808MOL0     C 6588   2.843   5.124  10.071 -0.0425 -0.1380 -0.8576
  808MOL0     C 6589   2.856   4.832   9.308 -0.0398 -0.1061  0.2745
  808MOL0     C 6590   2.843   4.779   9.181 -0.5633  0.2137 -0.4257
  808MOL0     H 6591   2.347   4.720   8.872  0.2117 -0.3024  0.9065
  808MOL0     H 6592   2.266   4.682   8.631 -0.1969 -0.4317 -1.2334
  808MOL0     H 6593   2.431   4.651   8.243 -1.0706  0.5456  1.1794
  808MOL0     H 6594   2.568   4.621   8.353 -0.2076  0.0958  0.7567
  808MOL0     H 6595   2.468   4.855   8.477 -0.5814  0.3128 -0.5965
  808MOL0     H 6596   2.390   4.870   8.320 -0.0414 -1.0675 -1.1801
  808MOL0     H 6597   2.585   4.999   8.312  0.2528 -0.3866 -0.9816
  808MOL0     H 6598   2.577   4.872   8.190 -2.5409 -1.0374 -0.1846
  808MOL0     H 6599   2.718   4.732   8.329 -2.0144  0.4424 -2.0645
  808MOL0     H 6600   2.799   4.875   8.287  1.1319 -1.0091  1.4759
  808MOL0     H 6601   2.686   4.821   8.562  0.5458  1.5832  1.6917
  808MOL0     H 6602   2.755   4.973   8.522  1.4587  0.0437  2.0826
  808MOL0     H 6603   2.971   4.881   8.462 -0.4440  0.2984 -1.0838
  808MOL0     H 6604   2.917   4.714   8.473  1.0135  0.1430  0.1953
  808MOL0     H 6605   2.908   4.895   8.720  1.0914 -0.9725  2.5227
  808MOL0     H 6606   2.881   4.723   8.691  1.7234 -1.3004 -0.5859
  808MOL0     H 6607   3.124   4.838   8.758 -1.7378 -1.1130  1.7768
  808MOL0     H 6608   3.136   4.832   8.590 -0.8845  2.3229  1.0264
  808MOL0     H 6609   2.985   4.580   8.842 -0.8496  1.4780 -1.3615
  808MOL0     H 6610   3.095   4.243   8.799 -0.8192 -0.7842  1.5824
  808MOL0     H 6611   3.037   4.337   8.933  0.0363  1.7309  0.7074
  808MOL0     H 6612   3.309   4.353   8.987 -0.8806 -1.7731  1.1811
  808MOL0     H 6613   3.329   4.253   8.858  1.3728 -0.5439  2.1698
  808MOL0     H 6614   3.142   4.195   9.102  2.6936  1.8002  1.4387
  808MOL0     H 6615   3.164   4.081   8.970  0.9490 -0.4186  1.7772
  808MOL0     H 6616   3.348   4.161   9.206  2.9638 -2.2868  0.2405
  808MOL0     H 6617   3.420   4.145   9.045 -0.6069 -0.4440 -0.5570
  808MOL0     H 6618   3.370   3.715   9.162 -0.4748  0.6344 -0.0859
  808MOL0     H 6619   3.569   3.605   9.275 -1.2843 -0.6921 -0.3850
  808MOL0     H 6620   3.879   3.386   9.280  1.1915 -3.3104  0.9354
  808MOL0     H 6621   4.065   3.264   9.335 -5.4897 -1.6809 -1.1015
  808MOL0     H 6622   4.312   3.223   9.423  2.3173 -1.0611  0.4939
  808MOL0     H 6623   4.191   3.104   9.487  0.8946 -0.7206  0.2340
  808MOL0     H 6624   4.335   3.138   9.704 -1.3477 -0.6402 -0.1972
  808MOL0     H 6625   4.454   3.203   9.584 -0.5951  1.9035  1.3989
  808MOL0     H 6626   4.423   2.977   9.464  1.8911  0.0543 -0.3808
  808MOL0     H 6627   4.335   2.917   9.611  0.8480 -1.5772 -0.1018
  808MOL0     H 6628   4.611   3.031   9.609  2.5709 -1.8092  0.3838
  808MOL0     H 6629   4.517   2.979   9.752 -4.5819 -1.0667  0.5060
  808MOL0     H 6630   4.630   2.810   9.518 -0.9927  0.1637  0.5803
  808MOL0     H 6631   4.512   2.751   9.629  0.4527  0.2791 -0.9901
  808MOL0     H 6632   4.644   2.755   9.815  1.3710 -0.4019 -0.4979
  808MOL0     H 6633   4.733   2.894   9.754 -3.1967  2.9278 -1.5391
  808MOL0     H 6634   4.783   2.614   9.620  2.9276 -1.5627 -1.0695
  808MOL0     H 6635   4.878   2.756   9.623 -0.0362  0.6581  1.7722
  808MOL0     H 6636   4.789   2.590   9.866 -1.4954  0.5578 -0.6734
  808MOL0     H 6637   4.910   2.715   9.863  2.5675 -1.0797  0.7664
  808MOL0     H 6638   4.139   3.531   9.679 -1.5774  1.6390  0.4354
  808MOL0     H 6639   3.938   3.650   9.617 -1.0687  0.4225 -0.0312
  808MOL0     H 6640   3.744   3.994   9.333  0.3605 -1.7011  1.7903
  808MOL0     H 6641   3.557   4.098   9.219 -0.9734  0.2323  2.9097
  808MOL0     H 6642   2.635   4.494   8.531  1.2854  0.7592  0.6513
  808MOL0     H 6643   2.707   4.504   8.767  1.0761  0.5260 -1.4101
  808MOL0     H 6644   2.517   4.681   9.199  1.2732 -0.6714 -1.4289
  808MOL0     H 6645   2.559   4.782   9.428  0.2575  1.1173 -0.5002
  808MOL0     H 6646   2.912   5.024   9.531 -0.6430 -1.3632 -2.9640
  808MOL0     H 6647   2.967   4.858   9.580 -0.7562 -1.2035  4.0985
  808MOL0     H 6648   2.791   5.029   9.735  0.4562  0.5386 -2.9498
  808MOL0     H 6649   2.856   4.871   9.792 -0.2322  0.5895  1.6367
  808MOL0     H 6650   2.976   5.146   9.742  3.9493  0.8492 -0.1880
  808MOL0     H 6651   3.075   4.995   9.720  0.1425 -0.1899 -1.0275
  808MOL0     H 6652   3.063   4.932   9.938 -0.6116  1.2729  2.3223
  808MOL0     H 6653   3.120   5.100   9.943  0.5429 -1.0277  1.8465
  808MOL0     H 6654   2.747   5.147  10.112 -0.7030 -3.2414 -0.3839
  808MOL0     H 6655   2.949   4.865   9.353  1.1808 -4.4423  1.3662
  808MOL0     H 6656   2.928   4.775   9.115 -0.9239 -0.5702 -0.8640
  809MOL0     O 6657   5.433   3.919   8.355  0.0571  0.1755  0.6243
  809MOL0     C 6658   5.484   4.010   8.424 -0.1732 -0.4791 -2.1769
  809MOL0     O 6659   5.577   3.998   8.527 -0.4285  1.4132 -0.5630
  809MOL0     C 6660   5.652   3.876   8.546  0.3250  0.0159 -0.2992
  809MOL0     C 6661   5.765   3.898   8.626 -0.7951 -0.5768  0.1288
  809MOL0     C 6662   5.853   3.797   8.671 -0.2500 -0.1179  0.0412
  809MOL0     C 6663   5.831   3.671   8.619 -0.7590 -0.2574  0.0389
  809MOL0     O 6664   5.902   3.575   8.679  0.6244 -0.1021  0.3370
  809MOL0     C 6665   5.946   3.468   8.589 -0.8202 -0.1626 -0.2962
  809MOL0     C 6666   6.082   3.421   8.640 -0.3121 -0.2437  0.2003
  809MOL0     C 6667   6.178   3.543   8.646  0.1669  0.5112  0.4771
  809MOL0     C 6668   6.316   3.476   8.690  0.6514 -0.1182  1.0622
  809MOL0     C 6669   6.414   3.595   8.697  0.2381 -0.0182  0.3139
  809MOL0     C 6670   6.558   3.560   8.765 -0.1750 -0.1937 -0.6829
  809MOL0     C 6671   6.663   3.464   8.692  0.7745  0.3382  1.4540
  809MOL0     C 6672   6.681   3.489   8.541  0.3941 -0.3390  0.4678
  809MOL0     N 6673   6.793   3.412   8.504  0.1300 -1.1618 -0.1065
  809MOL0     C 6674   6.787   3.317   8.402  0.0687 -0.6019  0.6840
  809MOL0     C 6675   6.918   3.295   8.354  0.7188 -0.1310 -0.6945
  809MOL0     C 6676   6.982   3.201   8.246  0.8571 -0.4857  0.1665
  809MOL0     C 6677   7.050   3.084   8.295  0.4481 -0.3757  0.6850
  809MOL0     C 6678   6.970   2.992   8.381  0.1874  0.6436  0.5029
  809MOL0     C 6679   6.859   2.917   8.317  0.7030 -0.6974  0.3122
  809MOL0     O 6680   6.735   2.994   8.326 -0.5691 -0.2406  0.4005
  809MOL0     C 6681   6.649   2.983   8.217  0.2092 -0.0588  0.0253
  809MOL0     C 6682   6.656   2.876   8.118  0.4788 -0.5513 -0.2035
  809MOL0     C 6683   6.560   2.874   8.016 -0.1617 -0.0702 -0.0438
  809MOL0     C 6684   6.464   2.978   8.000  0.8198 -0.2364 -0.8922
  809MOL0     C 6685   6.378   2.980   7.897  0.5822 -0.2453 -0.5073
  809MOL0     O 6686   6.378   2.880   7.810  0.9922  0.3282  0.1302
  809MOL0     C 6687   6.322   2.887   7.683  0.0406  0.1993  0.7498
  809MOL0     C 6688   6.357   2.979   7.586 -0.0563  0.6803  0.8554
  809MOL0     C 6689   6.287   2.968   7.458 -0.0090 -0.3047  0.3992
  809MOL0     C 6690   6.198   2.865   7.425  0.3782 -0.0096 -0.0860
  809MOL0     O 6691   6.161   2.832   7.299 -0.6878  0.3358  0.6629
  809MOL0     C 6692   6.137   2.936   7.205  0.1541  0.5650 -0.8159
  809MOL0     C 6693   5.987   2.985   7.214 -1.2286  0.5268  1.3142
  809MOL0     C 6694   5.884   2.870   7.238 -0.1439 -0.3889 -0.3136
  809MOL0     C 6695   5.888   2.748   7.153 -0.3059  0.8119 -0.5185
  809MOL0     C 6696   5.779   2.633   7.179 -0.3717 -0.3683 -0.3659
  809MOL0     C 6697   5.806   2.578   7.320 -0.6057 -0.5672 -0.4182
  809MOL0     C 6698   5.708   2.461   7.347 -0.7925  0.7356 -0.2536
  809MOL0     C 6699   5.709   2.417   7.493  0.1547 -0.6893 -0.7499
  809MOL0    Cl 6700   5.883   2.401   7.546  0.4340  0.3276 -0.1200
  809MOL0     C 6701   6.166   2.779   7.526 -0.0556  0.0487  0.3763
  809MOL0     C 6702   6.216   2.798   7.656  0.5603 -0.8268 -1.4479
  809MOL0     O 6703   6.303   3.076   7.884 -0.1293  0.7085 -0.2222
  809MOL0     C 6704   6.455   3.069   8.103  0.0807  1.5742 -0.5154
  809MOL0     C 6705   6.544   3.066   8.215  1.0611 -0.3586 -0.3662
  809MOL0     N 6706   6.992   3.378   8.435 -0.2730 -0.3626 -1.1046
  809MOL0     N 6707   6.924   3.439   8.525  0.3043  0.2537 -0.4163
  809MOL0     C 6708   5.711   3.642   8.535 -0.3236 -0.6739  0.2111
  809MOL0     C 6709   5.631   3.748   8.496 -0.5586 -1.0609  1.2077
  809MOL0     C 6710   5.435   4.143   8.390 -0.0226 -0.4544 -0.0302
  809MOL0     C 6711   5.482   4.255   8.457  0.0569 -0.7400  0.6658
  809MOL0     C 6712   5.430   4.381   8.418 -0.1220  0.3450 -0.2690
  809MOL0     C 6713   5.349   4.401   8.303 -0.7520  0.6137 -0.7261
  809MOL0     O 6714   5.312   4.530   8.278 -0.2511  0.2094 -0.4945
  809MOL0     C 6715   5.197   4.552   8.192  0.5407  0.3033 -0.9513
  809MOL0     C 6716   5.068   4.513   8.260  1.4422  0.1826  0.1969
  809MOL0     C 6717   4.979   4.435   8.163  0.2422  0.5063 -0.1720
  809MOL0     C 6718   4.901   4.522   8.073  0.6523  0.7785 -0.4693
  809MOL0     C 6719   4.875   4.460   7.943 -0.4095  0.3762  1.0466
  809MOL0     C 6720   4.862   4.430   7.825  0.0174 -0.4720 -1.0046
  809MOL0     C 6721   5.325   4.288   8.225  1.1603 -0.3051 -0.0790
  809MOL0     C 6722   5.361   4.168   8.272 -0.4001  0.5559  0.3980
  809MOL0     H 6723   5.789   3.997   8.663 -1.3812 -0.3157 -0.1632
  809MOL0     H 6724   5.940   3.821   8.732 -0.6082 -1.6740  1.2229
  809MOL0     H 6725   5.971   3.504   8.489 -1.6938  0.4909 -0.2880
  809MOL0     H 6726   5.866   3.393   8.596  0.0356 -0.9729  1.8332
  809MOL0     H 6727   6.124   3.355   8.565  1.2617 -0.3667  1.1610
  809MOL0     H 6728   6.070   3.372   8.737 -1.6314  0.6136  0.5124
  809MOL0     H 6729   6.143   3.630   8.703  0.4333  2.1008 -1.6595
  809MOL0     H 6730   6.212   3.596   8.556  5.7493 -2.4113  0.4587
  809MOL0     H 6731   6.306   3.418   8.782 -1.0737 -2.9121 -0.7474
  809MOL0     H 6732   6.351   3.412   8.608 -1.2726 -0.2652  0.3142
  809MOL0     H 6733   6.353   3.663   8.756 -3.5629 -2.7429 -0.0812
  809MOL0     H 6734   6.434   3.635   8.597 -0.6183  1.2549  0.6385
  809MOL0     H 6735   6.551   3.530   8.870  0.6830  3.2978  0.5013
  809MOL0     H 6736   6.610   3.655   8.777 -1.4172  0.3157  0.8881
  809MOL0     H 6737   6.757   3.458   8.747  1.6613  1.1241  0.0962
  809MOL0     H 6738   6.606   3.371   8.694 -1.9860  1.5108 -4.0308
  809MOL0     H 6739   6.711   3.592   8.522 -3.4290  0.8249 -0.1857
  809MOL0     H 6740   6.585   3.466   8.494 -0.0805  2.4971 -0.1201
  809MOL0     H 6741   6.696   3.291   8.349 -0.0706 -1.9497  1.5378
  809MOL0     H 6742   7.059   3.258   8.193  1.7820  0.3515  2.2637
  809MOL0     H 6743   6.905   3.180   8.172  2.1791  1.7803 -2.0070
  809MOL0     H 6744   7.138   3.122   8.347  0.1913 -0.3758  1.1228
  809MOL0     H 6745   7.089   3.023   8.213 -0.7325  0.3888 -0.4875
  809MOL0     H 6746   7.041   2.912   8.406 -1.3422 -0.7423  0.6617
  809MOL0     H 6747   6.939   3.040   8.474 -2.8469  0.7964 -0.4673
  809MOL0     H 6748   6.843   2.819   8.362  0.5646 -0.5834  0.5157
  809MOL0     H 6749   6.887   2.900   8.213  0.7446 -0.5343  0.2952
  809MOL0     H 6750   6.727   2.796   8.135  4.8899  2.9464 -0.3417
  809MOL0     H 6751   6.552   2.791   7.946 -0.7342  1.6370 -2.1124
  809MOL0     H 6752   6.436   3.053   7.590  0.4026  0.4874 -2.2494
  809MOL0     H 6753   6.309   3.039   7.378 -1.7217 -0.6308 -0.4060
  809MOL0     H 6754   6.142   2.901   7.102 -1.6317  0.1797 -0.8035
  809MOL0     H 6755   6.218   3.008   7.220  1.2270 -1.1893  2.9573
  809MOL0     H 6756   5.959   3.036   7.122  0.3190  0.0515  0.5431
  809MOL0     H 6757   5.968   3.041   7.306  0.2702  0.2146  1.8397
  809MOL0     H 6758   5.784   2.913   7.223  0.8875  2.2337 -0.0898
  809MOL0     H 6759   5.900   2.837   7.341 -4.8944  0.4357  0.9400
  809MOL0     H 6760   5.891   2.780   7.048  1.2233  0.2896 -0.6605
  809MOL0     H 6761   5.986   2.700   7.163 -0.4845  0.7589  1.3630
  809MOL0     H 6762   5.794   2.553   7.105 -4.5336  1.0729 -3.0747
  809MOL0     H 6763   5.677   2.670   7.167  0.3165  1.3421 -1.1805
  809MOL0     H 6764   5.779   2.663   7.384  2.1719  1.2062 -1.4489
  809MOL0     H 6765   5.910   2.553   7.341 -0.6746 -0.3809  0.1853
  809MOL0     H 6766   5.604   2.485   7.319 -0.2671  1.7095 -1.4864
  809MOL0     H 6767   5.744   2.373   7.292 -1.0422  0.0014  0.7318
  809MOL0     H 6768   5.654   2.323   7.504  0.0877 -0.4809  1.1712
  809MOL0     H 6769   5.665   2.494   7.558  1.2604 -0.5780 -0.1151
  809MOL0     H 6770   6.095   2.698   7.510  0.9972 -2.1159  5.0204
  809MOL0     H 6771   6.187   2.731   7.736 -0.1834  1.6332  0.4613
  809MOL0     H 6772   6.380   3.146   8.095  0.5033  1.9641 -0.7517
  809MOL0     H 6773   6.525   3.145   8.287 -1.0264 -1.6190  0.5376
  809MOL0     H 6774   5.693   3.543   8.495 -0.7586 -1.3847  2.0797
  809MOL0     H 6775   5.555   3.736   8.420  0.4764  2.4728 -0.6096
  809MOL0     H 6776   5.546   4.247   8.544 -0.7167 -1.4218  1.1787
  809MOL0     H 6777   5.448   4.467   8.482  0.8938 -1.1850  1.5995
  809MOL0     H 6778   5.202   4.492   8.101 -4.3697 -1.8068 -0.1457
  809MOL0     H 6779   5.199   4.659   8.167 -2.2438  1.2625  2.2315
  809MOL0     H 6780   5.093   4.450   8.346  3.2826  1.7182  0.8458
  809MOL0     H 6781   5.013   4.595   8.309  3.1938  1.2607  0.4260
  809MOL0     H 6782   4.909   4.376   8.222  0.8604 -1.9593 -1.7691
  809MOL0     H 6783   5.048   4.367   8.112  2.6220  0.5611  2.6884
  809MOL0     H 6784   4.804   4.543   8.120 -0.2851 -1.0552 -1.4824
  809MOL0     H 6785   4.944   4.622   8.067 -0.9228  1.4072 -2.1853
  809MOL0     H 6786   4.859   4.397   7.723 -5.7590 -2.5297 -0.5289
  809MOL0     H 6787   5.277   4.296   8.128  1.5306 -3.5364 -0.6423
  809MOL0     H 6788   5.343   4.078   8.213 -0.0029  0.5674  0.2564
  810MOL0     O 6789  10.607   8.027   5.478  0.9200 -0.5914  0.3904
  810MOL0     C 6790  10.648   7.916   5.472 -0.3604 -0.2637  0.7777
  810MOL0     O 6791  10.579   7.811   5.505 -0.5574 -0.2250  0.1450
  810MOL0     C 6792  10.443   7.805   5.518  0.0815 -1.2803 -0.4032
  810MOL0     C 6793  10.348   7.887   5.453  0.6497 -0.0358 -0.2625
  810MOL0     C 6794  10.207   7.871   5.484 -0.3402  0.1977  0.5145
  810MOL0     C 6795  10.169   7.777   5.583 -0.7042  1.3814 -0.7302
  810MOL0     O 6796  10.033   7.761   5.612  0.0563 -0.0858 -1.1914
  810MOL0     C 6797   9.997   7.776   5.753  0.4732 -0.0201  0.3680
  810MOL0     C 6798   9.894   7.678   5.778 -0.1268  0.5916 -0.5281
  810MOL0     C 6799   9.862   7.657   5.930  0.0511  0.3522  0.4207
  810MOL0     C 6800   9.749   7.735   5.977 -0.1504  0.7305  0.0916
  810MOL0     C 6801   9.729   7.713   6.125  0.3024  0.2188 -0.0960
  810MOL0     C 6802   9.673   7.847   6.175 -0.3322  0.4347  0.5495
  810MOL0     C 6803   9.666   7.827   6.325  1.2864 -0.4967  0.1522
  810MOL0     C 6804   9.603   7.936   6.396  0.4445 -0.4961 -0.0230
  810MOL0     N 6805   9.582   7.916   6.541 -0.4903  0.4208  0.6059
  810MOL0     C 6806   9.449   7.879   6.584 -0.3481  0.3964 -0.6764
  810MOL0     C 6807   9.463   7.870   6.716 -0.4763 -0.5314  0.0735
  810MOL0     C 6808   9.347   7.840   6.806  0.7434 -0.1369  0.5078
  810MOL0     C 6809   9.197   7.828   6.766 -0.2386  0.6880 -0.4754
  810MOL0     C 6810   9.133   7.770   6.901  0.0904 -0.4105  0.1043
  810MOL0     C 6811   8.986   7.731   6.879  0.4673  0.3724  0.3933
  810MOL0     O 6812   8.951   7.634   6.987  0.4045 -0.0373 -0.6762
  810MOL0     C 6813   8.861   7.663   7.083 -0.0527  0.7805  0.5215
  810MOL0     C 6814   8.772   7.778   7.090 -0.5299  0.5959 -0.5465
  810MOL0     C 6815   8.684   7.796   7.206 -0.1019  0.2634 -0.0169
  810MOL0     C 6816   8.672   7.689   7.301  0.0057 -0.7768 -0.7115
  810MOL0     C 6817   8.567   7.710   7.404  0.7195 -0.8173 -0.4392
  810MOL0     O 6818   8.544   7.844   7.448 -0.1592 -0.6233  0.5100
  810MOL0     C 6819   8.480   7.899   7.561  0.4565 -0.4426 -0.2836
  810MOL0     C 6820   8.515   8.037   7.576 -0.0196 -0.8881 -0.5103
  810MOL0     C 6821   8.437   8.111   7.669  0.7811  0.2271 -0.5813
  810MOL0     C 6822   8.344   8.042   7.750  0.8788  0.5363 -0.7249
  810MOL0     O 6823   8.278   8.123   7.837  0.9049 -0.4112  0.8155
  810MOL0     C 6824   8.161   8.080   7.912  0.2685 -0.2264 -0.1532
  810MOL0     C 6825   8.128   8.185   8.018  1.4876 -0.6955  0.0589
  810MOL0     C 6826   8.232   8.218   8.117 -0.2610  0.8251 -0.1787
  810MOL0     C 6827   8.194   8.325   8.224 -0.2468 -0.3098 -0.8064
  810MOL0     C 6828   8.332   8.367   8.285  0.2015 -0.1947  0.3615
  810MOL0     C 6829   8.411   8.258   8.373  0.1714  0.5018  0.0683
  810MOL0     C 6830   8.320   8.198   8.487  0.2823 -0.8132  0.9786
  810MOL0     C 6831   8.270   8.293   8.586 -0.1919 -0.6853 -1.0173
  810MOL0    Cl 6832   8.197   8.185   8.706 -0.1784  0.3159  0.1534
  810MOL0     C 6833   8.308   7.903   7.734 -0.8979 -0.2463 -0.4036
  810MOL0     C 6834   8.382   7.834   7.637  0.6850 -0.0641 -0.9571
  810MOL0     O 6835   8.517   7.615   7.460  0.8475 -0.2372  0.0549
  810MOL0     C 6836   8.768   7.589   7.295  0.1546  0.4039 -0.0884
  810MOL0     C 6837   8.860   7.575   7.193  0.0700  0.3003  0.9655
  810MOL0     N 6838   9.589   7.910   6.762  0.3251 -0.4160  0.2952
  810MOL0     N 6839   9.659   7.939   6.652 -0.0999 -0.2974  0.3603
  810MOL0     C 6840  10.265   7.699   5.651  0.0866 -0.4008  0.2175
  810MOL0     C 6841  10.403   7.720   5.622  1.5055  0.2109 -0.5846
  810MOL0     C 6842  10.773   7.892   5.393 -0.1722 -0.0126  0.1586
  810MOL0     C 6843  10.838   8.000   5.317  0.6311  0.7419  0.8268
  810MOL0     C 6844  10.950   7.972   5.240  0.2693 -0.3084  0.0997
  810MOL0     C 6845  11.018   7.852   5.257  0.4018 -0.0641 -0.1430
  810MOL0     O 6846  11.141   7.853   5.206 -0.9825 -0.0695  0.1187
  810MOL0     C 6847  11.236   7.757   5.254 -0.5974  0.9428  0.1013
  810MOL0     C 6848  11.364   7.776   5.183  0.3500  0.5470  0.2604
  810MOL0     C 6849  11.466   7.727   5.276 -0.8075  0.2299 -0.9822
  810MOL0     C 6850  11.605   7.748   5.215 -0.2196 -0.0323 -0.7017
  810MOL0     C 6851  11.706   7.672   5.287 -1.2737 -0.2814  0.5930
  810MOL0     C 6852  11.783   7.618   5.367 -0.9495  0.3649  0.4328
  810MOL0     C 6853  10.954   7.747   5.324  0.1573  0.5736 -0.3198
  810MOL0     C 6854  10.840   7.765   5.398 -0.2601 -0.7391 -0.8445
  810MOL0     H 6855  10.372   7.964   5.381  2.5509  3.0576  3.3019
  810MOL0     H 6856  10.132   7.934   5.437  0.4409 -1.9254 -4.1875
  810MOL0     H 6857   9.959   7.877   5.773 -1.8682  0.6713 -5.4112
  810MOL0     H 6858  10.078   7.760   5.823  0.1158 -0.8603  0.6008
  810MOL0     H 6859   9.927   7.584   5.732  0.1536  1.6055 -2.4998
  810MOL0     H 6860   9.800   7.698   5.727  0.6395 -0.4661 -2.4693
  810MOL0     H 6861   9.949   7.688   5.989 -1.1849 -0.0345  2.5106
  810MOL0     H 6862   9.843   7.550   5.938  1.1977  0.0613 -0.5243
  810MOL0     H 6863   9.756   7.839   5.944 -0.1101  0.2335 -1.5558
  810MOL0     H 6864   9.654   7.705   5.931 -1.7624  3.1452  1.6195
  810MOL0     H 6865   9.816   7.681   6.183 -0.2778 -0.0277  0.6631
  810MOL0     H 6866   9.651   7.636   6.135  3.5941 -3.2801  0.8729
  810MOL0     H 6867   9.573   7.878   6.143  0.3399  3.0989  0.7354
  810MOL0     H 6868   9.749   7.921   6.147  0.1337  0.8173  2.6313
  810MOL0     H 6869   9.608   7.741   6.362 -0.2969  1.1909  1.8084
  810MOL0     H 6870   9.766   7.820   6.368 -0.2225 -0.3071  4.0868
  810MOL0     H 6871   9.519   7.982   6.343 -0.1248 -0.3844  0.9629
  810MOL0     H 6872   9.683   8.010   6.391  0.6126 -0.7544 -1.4472
  810MOL0     H 6873   9.365   7.858   6.518 -0.0792 -1.5177 -0.4580
  810MOL0     H 6874   9.360   7.917   6.882  2.0074  0.9405 -0.7389
  810MOL0     H 6875   9.369   7.740   6.846  2.4297 -0.5827 -1.3384
  810MOL0     H 6876   9.191   7.760   6.681  1.7922  1.1340 -1.0298
  810MOL0     H 6877   9.158   7.925   6.733 -1.6589  0.7601  1.2431
  810MOL0     H 6878   9.188   7.682   6.936  0.8241 -0.6451 -1.5138
  810MOL0     H 6879   9.136   7.845   6.980 -1.1706 -0.1559 -0.0638
  810MOL0     H 6880   8.968   7.680   6.784  0.3177  0.5565  0.3230
  810MOL0     H 6881   8.915   7.814   6.875  0.7315  0.7653  2.4081
  810MOL0     H 6882   8.791   7.864   7.027  1.1389  0.4471 -0.2856
  810MOL0     H 6883   8.626   7.887   7.218  1.3107  1.2708 -0.5626
  810MOL0     H 6884   8.588   8.084   7.511 -2.1897  0.4475 -2.1214
  810MOL0     H 6885   8.442   8.218   7.681  1.1236  0.0035  1.7256
  810MOL0     H 6886   8.182   7.986   7.964 -3.1283 -1.5532 -0.9280
  810MOL0     H 6887   8.083   8.061   7.837  2.0031  1.8487 -2.6449
  810MOL0     H 6888   8.054   8.142   8.085  0.3140  0.9117 -0.1646
  810MOL0     H 6889   8.091   8.274   7.967 -1.9821 -1.7559  0.5035
  810MOL0     H 6890   8.317   8.254   8.059  0.3335  0.9837  0.7723
  810MOL0     H 6891   8.260   8.124   8.165  0.2425  0.4562 -1.1783
  810MOL0     H 6892   8.153   8.411   8.169  0.6524 -0.3419 -1.5404
  810MOL0     H 6893   8.126   8.292   8.303 -0.4694  3.0668  0.5658
  810MOL0     H 6894   8.298   8.448   8.351  1.1339 -1.9258  3.1381
  810MOL0     H 6895   8.402   8.408   8.212 -0.7924 -0.2117 -0.6285
  810MOL0     H 6896   8.505   8.299   8.411 -0.4131  2.0173 -0.0728
  810MOL0     H 6897   8.436   8.171   8.312 -0.5682  0.8636 -0.7731
  810MOL0     H 6898   8.235   8.137   8.455 -0.9322  1.0771  0.4618
  810MOL0     H 6899   8.388   8.132   8.543 -0.2682 -1.6616  0.6745
  810MOL0     H 6900   8.195   8.354   8.535  0.5211  3.4082  2.2986
  810MOL0     H 6901   8.350   8.346   8.639 -0.6570 -0.8411 -0.1262
  810MOL0     H 6902   8.223   7.862   7.787  1.4884  0.4755  4.6728
  810MOL0     H 6903   8.362   7.728   7.622  1.1423 -0.0598 -1.6231
  810MOL0     H 6904   8.749   7.518   7.374 -2.6466  0.2918 -0.7544
  810MOL0     H 6905   8.911   7.480   7.197 -2.5719 -1.4364 -2.1656
  810MOL0     H 6906  10.242   7.619   5.720  1.2720 -1.4606 -0.5586
  810MOL0     H 6907  10.469   7.658   5.681  1.9281  2.6046  1.6000
  810MOL0     H 6908  10.802   8.103   5.324 -0.5332  0.4958 -0.8455
  810MOL0     H 6909  10.996   8.043   5.172 -1.4204 -0.2358 -1.0296
  810MOL0     H 6910  11.199   7.659   5.225  1.4714  0.7641 -2.3285
  810MOL0     H 6911  11.237   7.749   5.363 -3.2226  1.8034  0.2584
  810MOL0     H 6912  11.366   7.740   5.080  0.6547  2.0659 -0.2786
  810MOL0     H 6913  11.377   7.881   5.157 -0.2799  0.1010 -2.0620
  810MOL0     H 6914  11.449   7.620   5.288  0.5756  0.0986  0.1382
  810MOL0     H 6915  11.460   7.770   5.376 -2.1187 -1.0194 -0.4965
  810MOL0     H 6916  11.607   7.724   5.109  0.2426 -0.5891 -0.5744
  810MOL0     H 6917  11.627   7.855   5.221  0.1055 -0.1553  1.1249
  810MOL0     H 6918  11.854   7.569   5.431 -0.5011 -0.3390 -0.5788
  810MOL0     H 6919  11.001   7.649   5.316 -2.5728 -0.7086 -2.0362
  810MOL0     H 6920  10.793   7.681   5.449  0.5276 -0.7433 -0.1136
  811MOL0     O 6921   1.798   1.073   0.548 -0.0189  0.3581  1.2593
  811MOL0     C 6922   1.736   1.004   0.468 -0.1197 -0.2247  0.0512
  811MOL0     O 6923   1.659   1.060   0.372  1.2101  0.0867 -0.1784
  811MOL0     C 6924   1.686   1.190   0.330  0.2677 -0.5325  0.5900
  811MOL0     C 6925   1.635   1.295   0.403  0.5438  0.1503 -0.8546
  811MOL0     C 6926   1.648   1.423   0.355  0.4214 -0.0096 -0.0244
  811MOL0     C 6927   1.710   1.454   0.233 -0.3178 -0.3370 -1.0728
  811MOL0     O 6928   1.708   1.579   0.175  0.5041  0.6066  0.9426
  811MOL0     C 6929   1.730   1.693   0.258 -0.4741 -0.4233 -0.8755
  811MOL0     C 6930   1.688   1.827   0.181 -1.0093  0.9027 -0.4911
  811MOL0     C 6931   1.806   1.854   0.078  1.7089 -0.1373 -0.7652
  811MOL0     C 6932   1.749   1.841  -0.062 -0.7051 -0.2875  0.6167
  811MOL0     C 6933   1.839   1.918  -0.164 -0.1636  0.1937 -1.2247
  811MOL0     C 6934   1.953   1.832  -0.222 -0.0711 -0.2770  0.0596
  811MOL0     C 6935   2.005   1.886  -0.345 -0.0063  0.2432  0.6472
  811MOL0     C 6936   2.117   1.798  -0.414  0.3383 -0.6917 -0.3538
  811MOL0     N 6937   2.243   1.791  -0.339  0.0221 -0.7177 -0.2486
  811MOL0     C 6938   2.335   1.898  -0.319 -0.1328  0.3260 -0.4228
  811MOL0     C 6939   2.433   1.840  -0.239 -0.2330  0.4995 -0.2370
  811MOL0     C 6940   2.565   1.911  -0.192  0.2432  0.0360 -0.4715
  811MOL0     C 6941   2.640   1.970  -0.312 -0.7815  0.1442 -0.6274
  811MOL0     C 6942   2.773   2.039  -0.276 -0.2396 -0.2385  0.8337
  811MOL0     C 6943   2.836   2.108  -0.401 -0.0666  0.2153  0.1631
  811MOL0     O 6944   2.942   2.207  -0.355 -0.1922  0.2816  0.7465
  811MOL0     C 6945   3.008   2.282  -0.447  0.3029 -0.1151  0.0073
  811MOL0     C 6946   3.094   2.380  -0.392  0.6674 -0.5439 -0.4302
  811MOL0     C 6947   3.151   2.476  -0.477  0.1119 -0.2507  0.2551
  811MOL0     C 6948   3.149   2.461  -0.617  0.5197  0.7488 -0.7801
  811MOL0     C 6949   3.218   2.561  -0.705  0.3124 -0.4522 -0.8609
  811MOL0     O 6950   3.267   2.677  -0.636 -0.0065  0.3705  0.3253
  811MOL0     C 6951   3.334   2.769  -0.711  0.1648 -0.4447  0.0028
  811MOL0     C 6952   3.446   2.730  -0.786  0.0175 -0.2004  0.9856
  811MOL0     C 6953   3.554   2.818  -0.833 -0.0734 -0.5520  0.6059
  811MOL0     C 6954   3.536   2.957  -0.787 -0.7272  0.7478 -0.8410
  811MOL0     O 6955   3.633   3.054  -0.807  0.2625  0.5262 -0.2011
  811MOL0     C 6956   3.738   3.012  -0.906 -0.2731  0.5643 -0.2265
  811MOL0     C 6957   3.842   3.129  -0.929  0.0432  0.1199 -0.3396
  811MOL0     C 6958   3.784   3.252  -0.992 -0.9791 -0.6387 -0.1961
  811MOL0     C 6959   3.898   3.346  -1.048 -0.5545  0.2781 -0.3951
  811MOL0     C 6960   3.849   3.480  -1.099 -0.2081 -0.0266  0.3918
  811MOL0     C 6961   3.934   3.556  -1.199 -0.4999  0.4944  0.5572
  811MOL0     C 6962   3.875   3.682  -1.266  0.3844 -0.1079  0.2961
  811MOL0     C 6963   3.938   3.722  -1.403  0.0388 -0.3930  0.6107
  811MOL0    Cl 6964   4.113   3.745  -1.400 -0.5660  0.0164 -0.3571
  811MOL0     C 6965   3.428   2.996  -0.702  0.1147 -0.1165 -0.0698
  811MOL0     C 6966   3.331   2.900  -0.667  0.3246  0.2864 -0.4649
  811MOL0     O 6967   3.215   2.558  -0.828  1.0511  0.0016 -0.1511
  811MOL0     C 6968   3.059   2.363  -0.670 -0.0972 -0.2624 -0.9035
  811MOL0     C 6969   2.998   2.276  -0.584  0.0590 -0.0540 -1.2550
  811MOL0     N 6970   2.395   1.709  -0.208 -0.0675  0.4502  0.5167
  811MOL0     N 6971   2.289   1.682  -0.265  0.0861  0.5353  1.1786
  811MOL0     C 6972   1.758   1.344   0.159  0.8857 -1.5146  0.7666
  811MOL0     C 6973   1.752   1.213   0.210  0.3031  0.4777  0.5338
  811MOL0     C 6974   1.716   0.858   0.479 -0.2405  1.3256 -0.6195
  811MOL0     C 6975   1.642   0.791   0.383  0.8556  1.0269 -0.0822
  811MOL0     C 6976   1.626   0.650   0.397  0.2171 -0.4241  0.7472
  811MOL0     C 6977   1.687   0.576   0.494  0.1613 -0.0053 -0.0728
  811MOL0     O 6978   1.664   0.437   0.516 -0.4595 -0.0598  0.4858
  811MOL0     C 6979   1.626   0.361   0.397  0.0196 -0.2997  0.0680
  811MOL0     C 6980   1.474   0.339   0.386  0.4965 -0.4732  0.4072
  811MOL0     C 6981   1.433   0.257   0.273  0.5173  1.0991  0.5388
  811MOL0     C 6982   1.432   0.105   0.299 -0.1655  0.6110 -0.1044
  811MOL0     C 6983   1.569   0.049   0.305  0.3927  1.1990  0.7305
  811MOL0     C 6984   1.681   0.000   0.309  0.6708  1.2319  0.8614
  811MOL0     C 6985   1.752   0.646   0.602 -0.0939  0.5397 -1.1451
  811MOL0     C 6986   1.766   0.787   0.589  0.0751 -1.2913  0.2257
  811MOL0     H 6987   1.582   1.269   0.494  1.7806  1.5975  0.3358
  811MOL0     H 6988   1.596   1.498   0.414 -0.5342 -1.4837  1.0852
  811MOL0     H 6989   1.830   1.699   0.302 -0.6118 -1.7828 -0.3406
  811MOL0     H 6990   1.658   1.681   0.339  0.1543 -1.9638 -0.5193
  811MOL0     H 6991   1.672   1.906   0.255 -1.8491 -0.0311  0.3730
  811MOL0     H 6992   1.593   1.812   0.129 -0.8257  0.2182 -0.6429
  811MOL0     H 6993   1.885   1.781   0.097  1.8350  0.6530  2.3067
  811MOL0     H 6994   1.849   1.952   0.103 -0.8987 -0.0176  4.8975
  811MOL0     H 6995   1.740   1.735  -0.088 -3.6801  0.7250 -3.5751
  811MOL0     H 6996   1.650   1.887  -0.071  0.8116  3.3907  1.2347
  811MOL0     H 6997   1.867   2.017  -0.127 -0.7238 -1.2923  3.8758
  811MOL0     H 6998   1.776   1.935  -0.252 -0.1659 -0.8665 -1.4320
  811MOL0     H 6999   1.914   1.738  -0.260 -3.7917  2.2220 -3.0039
  811MOL0     H 7000   2.034   1.818  -0.150  0.0455  1.2201  0.2579
  811MOL0     H 7001   1.924   1.913  -0.413 -0.9511  0.4924  1.8355
  811MOL0     H 7002   2.048   1.979  -0.307 -0.6188  0.6752  0.3030
  811MOL0     H 7003   2.144   1.848  -0.507  1.7414 -2.0189 -0.6802
  811MOL0     H 7004   2.079   1.702  -0.448  0.9050  0.0048 -3.1928
  811MOL0     H 7005   2.320   2.004  -0.331 -0.3456  0.1836 -1.4812
  811MOL0     H 7006   2.618   1.825  -0.148  0.8725  1.6059  2.0641
  811MOL0     H 7007   2.546   1.979  -0.108 -2.5425  0.7058 -1.5601
  811MOL0     H 7008   2.582   2.050  -0.359  0.9272  1.5305 -0.5122
  811MOL0     H 7009   2.651   1.886  -0.381 -3.9453 -2.1577  1.4178
  811MOL0     H 7010   2.752   2.121  -0.207 -0.7465 -0.8187  1.3831
  811MOL0     H 7011   2.837   1.964  -0.230  0.4664  0.3133  0.7591
  811MOL0     H 7012   2.762   2.151  -0.470  1.2949  1.1624 -0.7442
  811MOL0     H 7013   2.896   2.027  -0.443 -1.9137 -0.8144 -0.6072
  811MOL0     H 7014   3.088   2.386  -0.284  0.0366  3.4196 -0.5416
  811MOL0     H 7015   3.212   2.552  -0.430 -0.2161  0.9815 -1.2296
  811MOL0     H 7016   3.471   2.624  -0.787  0.0358 -0.2220 -1.4049
  811MOL0     H 7017   3.636   2.775  -0.889  0.8012 -1.7524  2.6633
  811MOL0     H 7018   3.695   2.977  -1.000  1.1559  1.6758 -1.3394
  811MOL0     H 7019   3.808   2.939  -0.863  0.4954  1.9081  0.8800
  811MOL0     H 7020   3.931   3.108  -0.989  0.2802  1.2121 -0.3865
  811MOL0     H 7021   3.884   3.152  -0.831  2.6055  2.0835 -1.7770
  811MOL0     H 7022   3.732   3.306  -0.912  0.4890 -1.1714  1.1609
  811MOL0     H 7023   3.721   3.225  -1.078  0.2769 -1.4234 -0.8903
  811MOL0     H 7024   3.973   3.373  -0.973  3.8672 -2.2334 -3.4375
  811MOL0     H 7025   3.953   3.291  -1.125  2.2935  0.7816  1.1398
  811MOL0     H 7026   3.829   3.544  -1.012  1.8200  0.6566  0.4086
  811MOL0     H 7027   3.755   3.475  -1.155 -0.4861  1.8257  0.6303
  811MOL0     H 7028   3.981   3.490  -1.272 -0.2143 -1.0077  2.0270
  811MOL0     H 7029   4.023   3.581  -1.140 -0.1318  2.8990 -0.8584
  811MOL0     H 7030   3.766   3.686  -1.273  0.5085  1.8951 -1.3070
  811MOL0     H 7031   3.894   3.771  -1.206  2.0096  0.3377 -0.8148
  811MOL0     H 7032   3.897   3.819  -1.430 -0.6425 -0.6364  0.7491
  811MOL0     H 7033   3.919   3.637  -1.469 -0.8311 -1.2664  1.9194
  811MOL0     H 7034   3.435   3.091  -0.651  0.1110 -0.0925 -0.1137
  811MOL0     H 7035   3.251   2.921  -0.598 -0.7256 -2.5717 -0.6612
  811MOL0     H 7036   3.022   2.360  -0.772 -1.3136 -0.1825 -0.4763
  811MOL0     H 7037   2.928   2.206  -0.629 -4.4443  3.1472 -0.0230
  811MOL0     H 7038   1.791   1.377   0.061  1.2383  3.1967  2.1889
  811MOL0     H 7039   1.792   1.131   0.151  2.8116  0.6971  1.7914
  811MOL0     H 7040   1.588   0.837   0.300 -1.3319 -3.3179 -1.3312
  811MOL0     H 7041   1.557   0.609   0.323 -0.0931  0.7760  0.3547
  811MOL0     H 7042   1.671   0.261   0.398 -0.8488 -0.8556 -3.2748
  811MOL0     H 7043   1.649   0.413   0.304 -0.0765  0.3730  0.4179
  811MOL0     H 7044   1.453   0.292   0.483 -0.8048 -0.7660  0.0053
  811MOL0     H 7045   1.411   0.429   0.389  3.2193  1.5315  1.6658
  811MOL0     H 7046   1.500   0.282   0.190 -1.2763 -2.4509 -2.2917
  811MOL0     H 7047   1.333   0.288   0.239 -0.2458 -1.4222  0.2894
  811MOL0     H 7048   1.373   0.084   0.388 -1.6316  1.2551 -0.9005
  811MOL0     H 7049   1.378   0.061   0.215  1.5825 -2.4193  0.2019
  811MOL0     H 7050   1.778  -0.043   0.315 -0.2313 -2.1758 -3.6549
  811MOL0     H 7051   1.804   0.590   0.679  1.2112  0.2752 -2.1754
  811MOL0     H 7052   1.823   0.829   0.672  1.4764 -0.6288 -1.0392
  812MOL0     O 7053  10.851   7.115   1.462 -0.2193  0.5288  0.6595
  812MOL0     C 7054  10.779   7.205   1.506  0.2771  0.0290  0.2353
  812MOL0     O 7055  10.665   7.255   1.453  0.3072  0.6364 -0.4962
  812MOL0     C 7056  10.606   7.231   1.328 -0.2622  0.0762 -0.8525
  812MOL0     C 7057  10.642   7.133   1.235  0.1419  0.0530  1.0436
  812MOL0     C 7058  10.571   7.126   1.107 -0.0575 -0.0660  0.1715
  812MOL0     C 7059  10.462   7.206   1.072  0.6549 -0.4302 -0.4199
  812MOL0     O 7060  10.388   7.180   0.965  0.5677  0.3097  0.0236
  812MOL0     C 7061  10.463   7.192   0.837  0.5319  0.7190 -0.3729
  812MOL0     C 7062  10.397   7.313   0.768  0.3182  0.0357 -0.6069
  812MOL0     C 7063  10.455   7.350   0.627  0.3285 -0.0111 -0.7112
  812MOL0     C 7064  10.394   7.478   0.560  0.6859 -0.3040  0.2536
  812MOL0     C 7065  10.440   7.617   0.627 -1.1332  0.1572  0.3597
  812MOL0     C 7066  10.602   7.626   0.633 -0.2908  0.7110  0.3202
  812MOL0     C 7067  10.648   7.764   0.648  0.7257 -0.0954 -0.3950
  812MOL0     C 7068  10.795   7.790   0.635  1.4411  0.6542 -0.1748
  812MOL0     N 7069  10.876   7.710   0.730  0.8346  0.5260  1.0389
  812MOL0     C 7070  10.845   7.681   0.864  1.1142 -0.0219 -0.0138
  812MOL0     C 7071  10.946   7.610   0.916 -0.8413 -0.1691 -0.0688
  812MOL0     C 7072  10.979   7.561   1.056 -0.3987 -0.6783 -0.6465
  812MOL0     C 7073  10.880   7.447   1.096  0.3030 -0.2991  1.0519
  812MOL0     C 7074  10.917   7.308   1.060 -0.6451  0.4831 -0.7758
  812MOL0     C 7075  10.918   7.296   0.912  1.0463  0.1581  0.4990
  812MOL0     O 7076  10.900   7.159   0.874  0.0278 -0.1653  0.4186
  812MOL0     C 7077  10.876   7.127   0.749  0.0254 -0.6718  0.9223
  812MOL0     C 7078  10.843   6.991   0.720 -0.1919 -0.5954 -0.6960
  812MOL0     C 7079  10.790   6.956   0.598 -0.3056  0.1611 -0.3718
  812MOL0     C 7080  10.781   7.046   0.492  0.1225 -0.2376 -0.2039
  812MOL0     C 7081  10.741   6.988   0.362  1.4835 -0.5338 -0.6055
  812MOL0     O 7082  10.730   6.849   0.346 -0.6979 -0.4085 -0.1447
  812MOL0     C 7083  10.650   6.794   0.248 -0.3683 -0.9425 -0.2149
  812MOL0     C 7084  10.537   6.848   0.196 -0.1201 -0.2237  1.2277
  812MOL0     C 7085  10.470   6.777   0.090 -0.0885 -0.5303 -0.9841
  812MOL0     C 7086  10.512   6.647   0.046  1.4761 -1.2445 -0.2497
  812MOL0     O 7087  10.439   6.578  -0.049 -0.0842  0.6329 -0.6989
  812MOL0     C 7088  10.351   6.644  -0.145 -0.3340  1.2588 -0.3670
  812MOL0     C 7089  10.347   6.560  -0.281 -0.0787 -0.2598 -0.6682
  812MOL0     C 7090  10.327   6.411  -0.248  0.3696 -0.4910  0.2255
  812MOL0     C 7091  10.291   6.328  -0.374 -0.2202  0.1111 -0.3684
  812MOL0     C 7092  10.341   6.187  -0.362  0.7032  1.0674  0.0300
  812MOL0     C 7093  10.272   6.137  -0.232  0.1503  0.0443 -0.4741
  812MOL0     C 7094  10.330   6.003  -0.199  0.3862  0.1045 -0.0950
  812MOL0     C 7095  10.282   5.948  -0.071 -0.4599 -0.0239 -0.4135
  812MOL0    Cl 7096  10.337   6.034   0.070  0.3904  0.6448  0.4655
  812MOL0     C 7097  10.620   6.589   0.104  0.2996 -0.2493 -0.5745
  812MOL0     C 7098  10.692   6.662   0.208 -0.0750  0.1751  0.8634
  812MOL0     O 7099  10.694   7.073   0.289 -0.0927 -0.0318  0.0097
  812MOL0     C 7100  10.813   7.182   0.509 -0.7895 -0.0045  0.6238
  812MOL0     C 7101  10.874   7.211   0.634 -0.0976 -0.1672 -0.4353
  812MOL0     N 7102  11.049   7.600   0.818  0.2763  0.0519  0.0704
  812MOL0     N 7103  11.001   7.654   0.707  0.6347 -0.0282  1.0429
  812MOL0     C 7104  10.430   7.292   1.168 -1.0037 -0.5769  0.2334
  812MOL0     C 7105  10.494   7.308   1.293 -0.9809  0.3859 -1.0455
  812MOL0     C 7106  10.826   7.277   1.628 -0.5014  0.3962  0.0723
  812MOL0     C 7107  10.937   7.223   1.690 -0.7082  0.2671 -0.2166
  812MOL0     C 7108  10.990   7.288   1.806  0.7441  1.0391  1.1514
  812MOL0     C 7109  10.932   7.395   1.872 -0.3723 -0.6923 -0.6952
  812MOL0     O 7110  10.988   7.461   1.975 -0.3415 -0.4307  0.4581
  812MOL0     C 7111  11.028   7.602   1.946 -0.6185  0.8164  0.7206
  812MOL0     C 7112  11.161   7.659   2.013 -0.0079  0.4560  0.9636
  812MOL0     C 7113  11.194   7.805   1.996  0.6771  0.7026  0.4964
  812MOL0     C 7114  11.329   7.844   2.054 -0.4186 -0.7131  0.0717
  812MOL0     C 7115  11.441   7.793   1.982 -0.4270 -0.3913  0.5141
  812MOL0     C 7116  11.544   7.744   1.936  0.8901 -0.7179  0.5740
  812MOL0     C 7117  10.806   7.419   1.826  0.0757  0.1720  0.3437
  812MOL0     C 7118  10.758   7.375   1.700 -1.1078 -0.0778 -0.4888
  812MOL0     H 7119  10.740   7.086   1.241 -0.4252 -1.1527  1.3146
  812MOL0     H 7120  10.613   7.051   1.041 -1.6734 -1.4318  0.6255
  812MOL0     H 7121  10.455   7.099   0.780 -0.6191 -1.9083  3.6404
  812MOL0     H 7122  10.568   7.213   0.861  0.5136  0.1974  0.1783
  812MOL0     H 7123  10.402   7.401   0.832  3.8735 -1.9560  2.2751
  812MOL0     H 7124  10.295   7.281   0.747  0.5330  0.0726 -1.7797
  812MOL0     H 7125  10.452   7.267   0.556  1.4348 -1.3820  0.7914
  812MOL0     H 7126  10.556   7.375   0.659 -0.7234  1.5483  1.7621
  812MOL0     H 7127  10.424   7.466   0.455 -2.5374 -1.2601 -0.6930
  812MOL0     H 7128  10.285   7.476   0.563  0.6703 -1.3785 -0.4150
  812MOL0     H 7129  10.404   7.619   0.730  0.7273  0.0010  1.0683
  812MOL0     H 7130  10.405   7.703   0.569 -3.5641  0.4747  2.1740
  812MOL0     H 7131  10.637   7.595   0.533 -3.5201 -0.8973 -0.4631
  812MOL0     H 7132  10.644   7.565   0.713  2.2500 -1.0974 -2.1631
  812MOL0     H 7133  10.608   7.830   0.570  2.1340  1.3733  0.0721
  812MOL0     H 7134  10.611   7.806   0.742 -1.7821 -2.7064 -0.0923
  812MOL0     H 7135  10.792   7.894   0.669 -0.0611  0.0015  1.9427
  812MOL0     H 7136  10.823   7.765   0.533  0.6732 -0.2863 -0.1711
  812MOL0     H 7137  10.755   7.708   0.918  0.1920  0.9263 -1.9082
  812MOL0     H 7138  10.976   7.639   1.133  0.4500 -1.4704  0.2146
  812MOL0     H 7139  11.080   7.521   1.052 -0.8761 -1.9900 -0.1809
  812MOL0     H 7140  10.788   7.475   1.044  1.5992  3.3527  0.4505
  812MOL0     H 7141  10.871   7.439   1.204 -2.2811 -0.3105  0.8980
  812MOL0     H 7142  11.014   7.275   1.100 -0.5413  1.7459  0.0789
  812MOL0     H 7143  10.840   7.238   1.093  1.2381 -2.0697 -1.4380
  812MOL0     H 7144  11.011   7.341   0.878  2.1075 -2.0848  0.2547
  812MOL0     H 7145  10.837   7.342   0.855  0.1143 -0.9630  0.8666
  812MOL0     H 7146  10.851   6.919   0.802 -1.2164  2.5787  2.4562
  812MOL0     H 7147  10.772   6.849   0.591 -2.4409  0.5025 -0.7082
  812MOL0     H 7148  10.502   6.950   0.205  2.1155  0.7836 -0.6371
  812MOL0     H 7149  10.379   6.816   0.045 -1.9390  0.6400  3.2996
  812MOL0     H 7150  10.387   6.744  -0.170 -1.7873  2.7424  2.8863
  812MOL0     H 7151  10.250   6.651  -0.102 -0.5091  0.0920 -0.5736
  812MOL0     H 7152  10.435   6.586  -0.340 -0.7203  1.1582 -1.0607
  812MOL0     H 7153  10.256   6.594  -0.333 -0.2030  5.5431  2.4359
  812MOL0     H 7154  10.246   6.397  -0.175 -1.1281 -1.3781 -1.5108
  812MOL0     H 7155  10.422   6.384  -0.203  1.8573  3.2215 -0.3335
  812MOL0     H 7156  10.188   6.319  -0.409  0.8526 -3.8374 -3.1864
  812MOL0     H 7157  10.329   6.378  -0.464 -2.1421 -0.7996 -1.7481
  812MOL0     H 7158  10.450   6.190  -0.357  1.4084 -2.4106 -4.9536
  812MOL0     H 7159  10.314   6.133  -0.454 -3.2829 -0.0210  1.6223
  812MOL0     H 7160  10.163   6.138  -0.241  0.2073  0.5196 -1.1453
  812MOL0     H 7161  10.301   6.202  -0.149  2.5760 -1.6249  0.1065
  812MOL0     H 7162  10.307   5.940  -0.285 -2.1222 -0.3027  0.7878
  812MOL0     H 7163  10.439   6.015  -0.192  0.1703  1.9715  0.8185
  812MOL0     H 7164  10.316   5.845  -0.053 -0.5061  0.3794  2.5994
  812MOL0     H 7165  10.173   5.934  -0.073 -0.2540 -2.3437  0.8230
  812MOL0     H 7166  10.658   6.491   0.078  0.0884 -0.0779 -1.5830
  812MOL0     H 7167  10.770   6.594   0.239 -2.3343 -3.5208 -0.8512
  812MOL0     H 7168  10.813   7.250   0.424  1.5587  0.1622  0.6847
  812MOL0     H 7169  10.902   7.316   0.644  0.2575 -0.2273 -0.7833
  812MOL0     H 7170  10.345   7.358   1.150 -1.2854 -1.0310 -0.1249
  812MOL0     H 7171  10.470   7.388   1.362 -2.9842 -0.9493 -0.0941
  812MOL0     H 7172  10.999   7.150   1.638  0.1419  0.7441  0.1085
  812MOL0     H 7173  11.088   7.264   1.845  0.5776 -1.9760  0.0254
  812MOL0     H 7174  10.952   7.671   1.984 -0.3674  1.9146 -0.6601
  812MOL0     H 7175  11.039   7.629   1.840  0.8502 -2.3357 -0.0541
  812MOL0     H 7176  11.159   7.641   2.121  0.5209  0.3832  0.9597
  812MOL0     H 7177  11.238   7.605   1.958 -0.0609  1.2189  0.1127
  812MOL0     H 7178  11.114   7.861   2.045  0.4863  0.4375  0.4917
  812MOL0     H 7179  11.195   7.834   1.891 -1.0312 -1.8139 -0.2932
  812MOL0     H 7180  11.318   7.952   2.072 -2.6648 -1.0138  0.8256
  812MOL0     H 7181  11.345   7.800   2.152 -0.4239 -0.4789  0.1796
  812MOL0     H 7182  11.628   7.696   1.890  0.4211  0.1833 -1.3168
  812MOL0     H 7183  10.749   7.490   1.885  2.5105  0.7577  2.1918
  812MOL0     H 7184  10.671   7.421   1.655 -4.0573 -1.7327  3.0058
  813MOL0     O 7185   2.479   6.001   1.672 -0.2283  0.8977 -0.0446
  813MOL0     C 7186   2.466   5.953   1.783 -0.0194  0.4119 -0.7089
  813MOL0     O 7187   2.342   5.926   1.846  0.1553  0.3818  1.5155
  813MOL0     C 7188   2.235   5.954   1.758 -0.6278 -0.9347 -0.6354
  813MOL0     C 7189   2.202   5.895   1.639  0.2563 -0.0204  0.1934
  813MOL0     C 7190   2.115   5.956   1.545  0.1221  0.3628 -0.1667
  813MOL0     C 7191   2.065   6.085   1.559 -0.1986 -1.0987  0.6768
  813MOL0     O 7192   1.974   6.147   1.469 -0.6475  0.0969 -0.0373
  813MOL0     C 7193   1.898   6.261   1.513  0.4096 -0.8532 -0.2833
  813MOL0     C 7194   1.810   6.319   1.399 -0.7364  0.3259  0.5663
  813MOL0     C 7195   1.890   6.390   1.291 -0.1898  0.8832  0.4205
  813MOL0     C 7196   1.818   6.488   1.194 -0.3536  0.7217  0.5493
  813MOL0     C 7197   1.904   6.535   1.076 -1.3197 -0.3390 -0.2354
  813MOL0     C 7198   1.975   6.444   0.976  0.2083 -0.0979  0.6013
  813MOL0     C 7199   1.876   6.394   0.870 -0.0486  0.5890 -0.2276
  813MOL0     C 7200   1.922   6.452   0.739  0.3395  0.5775  0.6890
  813MOL0     N 7201   1.927   6.600   0.745  0.4811  0.6728  0.2161
  813MOL0     C 7202   1.813   6.675   0.754 -0.6352  0.2309 -0.3072
  813MOL0     C 7203   1.862   6.800   0.763 -1.6200 -0.3752 -1.2099
  813MOL0     C 7204   1.777   6.923   0.767  0.4829  0.1966  0.7103
  813MOL0     C 7205   1.798   6.995   0.890  0.4541 -0.8849 -0.2271
  813MOL0     C 7206   1.723   7.128   0.895 -0.5875 -0.0612 -0.4474
  813MOL0     C 7207   1.819   7.248   0.910  0.5046  0.0200  0.4446
  813MOL0     O 7208   1.752   7.356   0.979 -0.2043  0.2542 -0.9486
  813MOL0     C 7209   1.661   7.441   0.930 -0.3547 -0.4544 -0.0171
  813MOL0     C 7210   1.601   7.544   1.002 -0.4271  0.0355  0.3177
  813MOL0     C 7211   1.499   7.626   0.965  0.4135 -0.1840  0.0561
  813MOL0     C 7212   1.443   7.612   0.842 -1.0069  0.3071  0.0034
  813MOL0     C 7213   1.326   7.693   0.802  0.8936 -1.0550 -0.2501
  813MOL0     O 7214   1.269   7.776   0.904 -0.8708  0.3234 -0.4731
  813MOL0     C 7215   1.194   7.882   0.862 -0.8226  0.0240  0.3784
  813MOL0     C 7216   1.237   7.978   0.773  0.7912  0.1413  0.4008
  813MOL0     C 7217   1.151   8.081   0.739 -0.6567 -0.8316 -0.2052
  813MOL0     C 7218   1.030   8.107   0.805  0.1388 -0.0841 -0.6436
  813MOL0     O 7219   0.951   8.216   0.777  0.5349  0.0107 -1.0557
  813MOL0     C 7220   0.882   8.276   0.890 -0.0301 -0.3146 -0.1381
  813MOL0     C 7221   0.870   8.426   0.884  0.6114  0.1714 -0.3927
  813MOL0     C 7222   0.999   8.496   0.887 -0.7038 -0.4569 -1.6229
  813MOL0     C 7223   0.995   8.645   0.852 -0.3355  0.2096  0.0940
  813MOL0     C 7224   1.133   8.707   0.849  0.4830 -0.4342  0.4292
  813MOL0     C 7225   1.205   8.708   0.988 -0.0398 -0.5808  1.3627
  813MOL0     C 7226   1.185   8.842   1.050  1.6909 -0.5834 -1.5084
  813MOL0     C 7227   1.273   8.861   1.177  0.4935 -0.1747 -0.5078
  813MOL0    Cl 7228   1.428   8.950   1.156 -0.6134  0.6052 -0.3612
  813MOL0     C 7229   0.991   8.012   0.909 -0.5605 -0.7426 -0.0543
  813MOL0     C 7230   1.061   7.892   0.921 -0.4318  0.5098 -0.3538
  813MOL0     O 7231   1.287   7.689   0.684  0.3053  0.4489 -0.1990
  813MOL0     C 7232   1.503   7.514   0.758  0.1603 -0.1250 -0.1586
  813MOL0     C 7233   1.607   7.427   0.797  0.2115 -0.2383 -0.2402
  813MOL0     N 7234   2.001   6.796   0.752  0.4435 -0.4550 -0.0862
  813MOL0     N 7235   2.036   6.677   0.748 -0.3185  0.5638  0.5656
  813MOL0     C 7236   2.095   6.138   1.688  0.5080 -0.6891  0.1710
  813MOL0     C 7237   2.180   6.083   1.787 -0.1048  0.4243  0.3192
  813MOL0     C 7238   2.585   5.933   1.868 -0.9992 -0.4819 -0.3661
  813MOL0     C 7239   2.578   5.920   2.009  0.7937  0.7447  0.2759
  813MOL0     C 7240   2.689   5.890   2.086 -0.6993  0.1620  0.1717
  813MOL0     C 7241   2.810   5.866   2.026  0.1497 -0.1677  0.1804
  813MOL0     O 7242   2.917   5.827   2.112  0.1146 -0.8201  0.2790
  813MOL0     C 7243   3.036   5.896   2.079  1.1144  0.1003 -0.0349
  813MOL0     C 7244   3.143   5.890   2.187  0.4540 -0.1615 -0.3062
  813MOL0     C 7245   3.174   5.740   2.219 -0.2454  0.0311  0.6485
  813MOL0     C 7246   3.289   5.711   2.315 -0.7669  0.1552 -0.0716
  813MOL0     C 7247   3.315   5.568   2.339  0.4056  0.6131  0.4268
  813MOL0     C 7248   3.335   5.451   2.360 -0.1923  0.0032 -0.0346
  813MOL0     C 7249   2.815   5.884   1.890  0.4633 -0.1178 -0.3940
  813MOL0     C 7250   2.709   5.919   1.815  0.5480 -0.2435 -0.7086
  813MOL0     H 7251   2.230   5.796   1.604 -1.3022  0.1901 -1.9251
  813MOL0     H 7252   2.090   5.899   1.456 -1.1078 -0.9501  0.9549
  813MOL0     H 7253   1.954   6.346   1.553 -1.2975  0.2780 -0.1633
  813MOL0     H 7254   1.830   6.231   1.594  1.4448  1.4051  1.5533
  813MOL0     H 7255   1.746   6.398   1.439  0.6224  0.9338  1.6163
  813MOL0     H 7256   1.752   6.233   1.366  0.8619 -0.6165  0.1213
  813MOL0     H 7257   1.939   6.310   1.236  1.0835  1.0183  1.3188
  813MOL0     H 7258   1.973   6.441   1.340  2.3959  0.0884 -2.8224
  813MOL0     H 7259   1.729   6.433   1.161 -0.0680 -1.4191  3.0058
  813MOL0     H 7260   1.788   6.575   1.253  0.8427  1.0599  0.6816
  813MOL0     H 7261   1.994   6.577   1.121 -0.3836 -2.3942 -0.0653
  813MOL0     H 7262   1.847   6.613   1.025 -0.0822  2.2947  2.1386
  813MOL0     H 7263   2.010   6.360   1.038 -0.4307 -1.5478 -0.9257
  813MOL0     H 7264   2.062   6.486   0.925 -1.0325 -1.5794 -3.0706
  813MOL0     H 7265   1.863   6.286   0.863  1.8922  0.4151 -2.3945
  813MOL0     H 7266   1.781   6.436   0.904  0.6736  0.4337  2.1800
  813MOL0     H 7267   1.856   6.422   0.656 -0.4629  0.0962  1.4878
  813MOL0     H 7268   2.023   6.423   0.709  0.1403  1.1907 -0.6833
  813MOL0     H 7269   1.712   6.636   0.760  0.1004 -1.6589  0.2880
  813MOL0     H 7270   1.673   6.891   0.766  0.3068  0.6465 -1.3357
  813MOL0     H 7271   1.791   6.990   0.681 -1.3135  0.6766  0.7506
  813MOL0     H 7272   1.904   7.009   0.911 -0.6369  2.1992  4.8623
  813MOL0     H 7273   1.748   6.936   0.968 -2.7880 -0.3917 -1.7826
  813MOL0     H 7274   1.667   7.127   0.801  0.1557 -3.1160 -0.9609
  813MOL0     H 7275   1.649   7.124   0.976 -0.9374  1.1241 -0.6861
  813MOL0     H 7276   1.848   7.274   0.808  0.7572  0.0179  0.5139
  813MOL0     H 7277   1.912   7.213   0.957  0.6098  0.9964  0.9903
  813MOL0     H 7278   1.640   7.562   1.102 -0.5331 -0.0400  0.3736
  813MOL0     H 7279   1.456   7.695   1.038  0.3760  1.4473 -1.4373
  813MOL0     H 7280   1.338   7.974   0.733 -0.1672  2.9459 -2.7160
  813MOL0     H 7281   1.168   8.145   0.653 -3.3547 -2.9862 -2.5625
  813MOL0     H 7282   0.933   8.267   0.986 -0.2748  2.9281  0.4142
  813MOL0     H 7283   0.782   8.232   0.900 -0.6650  1.2934  1.0381
  813MOL0     H 7284   0.803   8.456   0.965 -0.0044 -0.7776 -0.5367
  813MOL0     H 7285   0.821   8.437   0.787 -0.9271 -4.1219 -0.3147
  813MOL0     H 7286   1.062   8.446   0.812  1.9758  0.1065  0.1180
  813MOL0     H 7287   1.052   8.471   0.979 -0.4195 -2.0939 -2.1921
  813MOL0     H 7288   0.945   8.638   0.755 -2.7868 -4.3286  1.4159
  813MOL0     H 7289   0.929   8.694   0.924  0.2025 -1.6489  1.9391
  813MOL0     H 7290   1.123   8.807   0.806 -2.4237 -1.5241 -1.7270
  813MOL0     H 7291   1.199   8.656   0.778  0.6468  0.7268 -0.2779
  813MOL0     H 7292   1.313   8.699   0.972  0.1215 -0.7311  2.4502
  813MOL0     H 7293   1.184   8.623   1.054 -1.7194 -1.0242  0.3246
  813MOL0     H 7294   1.202   8.921   0.977  1.2542  1.5627  0.6141
  813MOL0     H 7295   1.078   8.849   1.075  0.7978 -5.1682 -3.0250
  813MOL0     H 7296   1.297   8.763   1.220 -0.2952 -0.3835 -0.5288
  813MOL0     H 7297   1.214   8.917   1.251  1.0601 -0.8262  0.4669
  813MOL0     H 7298   0.891   8.007   0.951 -0.9399 -1.9603 -1.0199
  813MOL0     H 7299   1.020   7.809   0.976 -0.5869  0.9783  0.2511
  813MOL0     H 7300   1.467   7.508   0.656  0.3033  2.4365 -0.4352
  813MOL0     H 7301   1.639   7.342   0.738 -0.5010 -0.0769 -0.8794
  813MOL0     H 7302   2.031   6.216   1.728 -1.3357 -0.6876 -2.4847
  813MOL0     H 7303   2.218   6.138   1.872 -0.8655 -0.1505  1.0506
  813MOL0     H 7304   2.478   5.929   2.049  0.2735  2.7886 -1.2601
  813MOL0     H 7305   2.698   5.879   2.194  2.0427 -2.2630 -0.1956
  813MOL0     H 7306   3.007   6.000   2.061 -1.4930 -0.5250  0.0403
  813MOL0     H 7307   3.079   5.859   1.986 -0.9694 -4.3955  0.4914
  813MOL0     H 7308   3.234   5.935   2.147  1.2433 -0.9646  0.5671
  813MOL0     H 7309   3.100   5.928   2.280  2.9134 -4.6295  3.0757
  813MOL0     H 7310   3.211   5.695   2.126  1.7213  0.0437  1.3671
  813MOL0     H 7311   3.090   5.677   2.251 -1.8228  1.1259 -1.1387
  813MOL0     H 7312   3.379   5.756   2.272  0.0229 -0.8462  0.4754
  813MOL0     H 7313   3.266   5.756   2.412 -0.0218  0.1462  0.1177
  813MOL0     H 7314   3.371   5.351   2.376 -0.3925 -0.1605 -0.5497
  813MOL0     H 7315   2.912   5.862   1.847  0.8695 -1.1939  0.9760
  813MOL0     H 7316   2.730   5.923   1.708  0.9134  3.3095 -0.6046
  814MOL0     O 7317   5.778   7.511   1.266 -0.3831 -0.0541  0.4627
  814MOL0     C 7318   5.781   7.403   1.206  0.3883 -0.0725 -0.3495
  814MOL0     O 7319   5.723   7.383   1.085  1.1926  0.0925 -0.6878
  814MOL0     C 7320   5.634   7.481   1.057  0.6255 -0.5846  0.6241
  814MOL0     C 7321   5.500   7.472   1.099  1.0005 -0.6788  0.1287
  814MOL0     C 7322   5.421   7.578   1.060 -0.8141  0.3400 -0.1590
  814MOL0     C 7323   5.460   7.679   0.979  0.5958  0.7562 -0.2584
  814MOL0     O 7324   5.365   7.781   0.963 -0.1726 -0.4322 -0.9356
  814MOL0     C 7325   5.416   7.916   0.990  0.1438 -0.7124  0.0074
  814MOL0     C 7326   5.345   7.943   1.119  0.3709 -0.5626 -0.3726
  814MOL0     C 7327   5.197   7.989   1.110  0.2168  0.5730 -0.7356
  814MOL0     C 7328   5.181   8.124   1.019  0.2000  0.4098 -0.1200
  814MOL0     C 7329   5.065   8.214   1.055 -0.4636 -0.6966  0.7740
  814MOL0     C 7330   4.933   8.149   1.049  0.3613  0.2238  0.0276
  814MOL0     C 7331   4.811   8.243   1.054 -0.1262 -0.2341  0.5653
  814MOL0     C 7332   4.829   8.350   1.149 -0.6073 -0.8001 -0.4750
  814MOL0     N 7333   4.702   8.418   1.163  0.6050 -0.2431 -0.5974
  814MOL0     C 7334   4.662   8.471   1.277 -0.6509  0.2797  0.1022
  814MOL0     C 7335   4.563   8.562   1.247 -0.4454 -1.2504  0.3021
  814MOL0     C 7336   4.489   8.643   1.345 -0.6229 -1.1335 -0.8966
  814MOL0     C 7337   4.364   8.579   1.369 -1.3122  0.0984  0.2106
  814MOL0     C 7338   4.261   8.686   1.393  0.6292  1.3726  0.1257
  814MOL0     C 7339   4.135   8.633   1.462  0.1469  0.2011  0.0929
  814MOL0     O 7340   4.035   8.733   1.433 -0.0610 -0.2534  0.0075
  814MOL0     C 7341   3.909   8.709   1.480  0.1189  0.4812  0.8712
  814MOL0     C 7342   3.862   8.604   1.561  0.1390  0.0637  0.0107
  814MOL0     C 7343   3.737   8.607   1.610  0.6463 -0.7027  0.6954
  814MOL0     C 7344   3.649   8.713   1.579  1.2778  0.7471  0.0780
  814MOL0     C 7345   3.513   8.717   1.618  0.4894 -0.0296  0.0782
  814MOL0     O 7346   3.432   8.798   1.543 -0.9819  0.1561 -0.2314
  814MOL0     C 7347   3.304   8.765   1.528  0.0328  0.0433  1.1160
  814MOL0     C 7348   3.262   8.704   1.408  0.8836  0.0243 -0.4319
  814MOL0     C 7349   3.132   8.651   1.385 -0.6956  0.1555 -0.0990
  814MOL0     C 7350   3.043   8.669   1.494  0.1431 -1.0206  0.7865
  814MOL0     O 7351   2.914   8.618   1.495  0.6232 -0.4638 -1.0503
  814MOL0     C 7352   2.817   8.721   1.530  1.0302  0.2067 -0.5836
  814MOL0     C 7353   2.712   8.679   1.428  0.8038  0.0011  0.0655
  814MOL0     C 7354   2.597   8.781   1.411  0.6277  0.8393 -0.9715
  814MOL0     C 7355   2.469   8.731   1.347 -1.7544 -0.1241 -0.4870
  814MOL0     C 7356   2.361   8.838   1.339 -0.6251  0.5970 -0.9873
  814MOL0     C 7357   2.236   8.785   1.260 -0.1367 -1.0027 -0.5080
  814MOL0     C 7358   2.113   8.869   1.296 -0.1704  0.0321 -0.2446
  814MOL0     C 7359   1.986   8.853   1.208  0.2832 -0.0042 -1.0190
  814MOL0    Cl 7360   1.973   8.955   1.061  0.0058  0.1966 -0.2997
  814MOL0     C 7361   3.087   8.723   1.607 -0.1518 -1.0967 -0.1257
  814MOL0     C 7362   3.212   8.773   1.630  0.4132  0.5478 -0.8549
  814MOL0     O 7363   3.479   8.647   1.713 -0.3017 -0.1092 -0.1692
  814MOL0     C 7364   3.699   8.822   1.505 -0.1305  0.4250 -0.1600
  814MOL0     C 7365   3.829   8.815   1.456  0.2251 -1.0437 -0.0637
  814MOL0     N 7366   4.543   8.557   1.108 -0.7648 -1.0413 -0.7161
  814MOL0     N 7367   4.627   8.474   1.066  0.6887 -0.3748  0.5340
  814MOL0     C 7368   5.587   7.685   0.930 -0.4334 -0.9370  0.2174
  814MOL0     C 7369   5.678   7.588   0.986 -1.0582  0.8047 -0.2101
  814MOL0     C 7370   5.859   7.295   1.266 -0.0807  0.1543 -0.6587
  814MOL0     C 7371   5.865   7.168   1.203 -0.5871  0.8706 -0.1197
  814MOL0     C 7372   5.954   7.069   1.258  0.0152  0.0610  0.0126
  814MOL0     C 7373   6.028   7.091   1.373 -0.1612 -0.1419 -0.5086
  814MOL0     O 7374   6.107   6.989   1.416  0.1910 -0.0207 -0.0116
  814MOL0     C 7375   6.245   7.005   1.385  0.5895 -0.1139 -0.4295
  814MOL0     C 7376   6.279   6.893   1.285  0.2709 -0.9348  0.3379
  814MOL0     C 7377   6.303   6.766   1.361 -0.1773  0.2322  0.2610
  814MOL0     C 7378   6.178   6.692   1.393 -0.2397  0.2742  1.0593
  814MOL0     C 7379   6.212   6.570   1.465 -0.0560 -0.7358  0.2729
  814MOL0     C 7380   6.245   6.463   1.512 -0.2959  0.1177 -0.5546
  814MOL0     C 7381   6.027   7.221   1.425 -0.2793 -0.6946  0.6699
  814MOL0     C 7382   5.942   7.316   1.379 -0.2076  0.9772  0.1231
  814MOL0     H 7383   5.464   7.388   1.157 -4.2512  1.7439  0.9503
  814MOL0     H 7384   5.325   7.587   1.108 -0.7097  3.3136 -0.3203
  814MOL0     H 7385   5.386   7.995   0.920  3.2096  1.5893  1.0995
  814MOL0     H 7386   5.525   7.921   1.001  0.1175 -0.2090  0.0295
  814MOL0     H 7387   5.402   8.011   1.183  2.7083 -0.4479 -2.4524
  814MOL0     H 7388   5.329   7.851   1.175 -0.9281  0.6901  1.4520
  814MOL0     H 7389   5.154   8.007   1.209  0.9413 -1.3434 -0.0439
  814MOL0     H 7390   5.147   7.900   1.072  0.8803 -0.9025  1.6947
  814MOL0     H 7391   5.272   8.185   1.023  2.5387 -2.6663 -1.2540
  814MOL0     H 7392   5.172   8.081   0.919  2.8206 -4.2558  1.3266
  814MOL0     H 7393   5.067   8.303   0.992 -2.7504  1.3407  3.3291
  814MOL0     H 7394   5.082   8.256   1.155  0.0951  0.1937  0.3189
  814MOL0     H 7395   4.932   8.077   1.131  0.8277  0.6494  0.4184
  814MOL0     H 7396   4.920   8.094   0.955 -3.7819 -0.6407  0.9127
  814MOL0     H 7397   4.799   8.300   0.961 -1.4460 -0.1623  0.7566
  814MOL0     H 7398   4.724   8.175   1.054 -0.0459 -0.3780 -1.2052
  814MOL0     H 7399   4.906   8.425   1.129 -0.5248  0.7463  4.4616
  814MOL0     H 7400   4.862   8.311   1.246 -1.1601  1.4673  0.6801
  814MOL0     H 7401   4.698   8.437   1.373 -2.3597  0.5059  0.8614
  814MOL0     H 7402   4.477   8.745   1.307 -2.5160 -0.3457  1.6011
  814MOL0     H 7403   4.544   8.648   1.439 -0.5387 -0.2978 -0.9822
  814MOL0     H 7404   4.375   8.530   1.467  3.9270  0.5490  0.1689
  814MOL0     H 7405   4.330   8.501   1.301 -0.4695  0.2687 -0.4239
  814MOL0     H 7406   4.289   8.763   1.466 -0.2324 -1.6316  4.0044
  814MOL0     H 7407   4.232   8.715   1.292 -0.5323 -0.5509 -0.1549
  814MOL0     H 7408   4.157   8.639   1.569  2.6645  3.3784 -0.4429
  814MOL0     H 7409   4.112   8.530   1.435 -0.7438  0.1772  0.8819
  814MOL0     H 7410   3.921   8.517   1.587 -2.5900 -0.9949  3.3603
  814MOL0     H 7411   3.699   8.518   1.660 -3.4658  0.1732 -0.4828
  814MOL0     H 7412   3.347   8.706   1.341  1.4794  0.9309  0.3308
  814MOL0     H 7413   3.114   8.604   1.288  0.7703 -2.0676  0.6426
  814MOL0     H 7414   2.851   8.823   1.512  1.0241  0.1258 -1.0604
  814MOL0     H 7415   2.781   8.712   1.633  2.1325 -1.4885 -0.3131
  814MOL0     H 7416   2.676   8.583   1.465 -1.8586  1.0049  0.3027
  814MOL0     H 7417   2.761   8.660   1.332 -1.3090 -0.4827 -0.9870
  814MOL0     H 7418   2.626   8.861   1.343 -1.1899  1.6293 -0.8766
  814MOL0     H 7419   2.561   8.813   1.510  2.3400 -3.3456  1.2896
  814MOL0     H 7420   2.487   8.696   1.245  0.2774  0.4810 -0.3792
  814MOL0     H 7421   2.430   8.646   1.405  1.6144  0.2617  2.7146
  814MOL0     H 7422   2.389   8.932   1.291 -2.8308  0.8427 -1.9199
  814MOL0     H 7423   2.329   8.856   1.441  1.7013 -2.1328  0.3907
  814MOL0     H 7424   2.212   8.681   1.284 -1.4106 -0.3410  1.3817
  814MOL0     H 7425   2.257   8.803   1.154  2.6604  1.1678  0.2902
  814MOL0     H 7426   2.099   8.839   1.400  2.1111  0.3238  0.2038
  814MOL0     H 7427   2.154   8.970   1.302 -0.4145  0.2355 -1.5695
  814MOL0     H 7428   1.892   8.857   1.264 -0.1978  0.6639 -1.8432
  814MOL0     H 7429   1.988   8.748   1.178 -0.0761 -1.5710  3.6205
  814MOL0     H 7430   3.030   8.731   1.699  0.9165  0.9994  0.4162
  814MOL0     H 7431   3.251   8.813   1.723  3.2019 -3.7835  0.1204
  814MOL0     H 7432   3.634   8.905   1.480 -1.7691 -0.8376 -0.2599
  814MOL0     H 7433   3.868   8.898   1.399  0.9582 -1.3665 -0.0510
  814MOL0     H 7434   5.614   7.772   0.870 -0.2671 -1.2524 -0.1758
  814MOL0     H 7435   5.784   7.582   0.963 -1.1466  1.0929 -0.7000
  814MOL0     H 7436   5.814   7.139   1.111  0.8567  2.2086 -1.4139
  814MOL0     H 7437   5.940   6.974   1.208  0.3511  1.0622 -2.0927
  814MOL0     H 7438   6.303   7.003   1.478  1.5857 -0.9557 -1.0536
  814MOL0     H 7439   6.278   7.097   1.336  3.4185 -1.5755 -1.5175
  814MOL0     H 7440   6.199   6.884   1.210 -2.1270 -0.7199  2.6962
  814MOL0     H 7441   6.372   6.920   1.235 -0.7289  0.3982 -0.8792
  814MOL0     H 7442   6.360   6.790   1.452  1.7523 -1.8476 -0.3169
  814MOL0     H 7443   6.376   6.698   1.316 -1.0738  0.0539 -0.9437
  814MOL0     H 7444   6.118   6.750   1.464 -1.7134  1.9603 -1.3846
  814MOL0     H 7445   6.124   6.689   1.298  0.5776 -1.3005  0.6070
  814MOL0     H 7446   6.278   6.373   1.561 -0.6814  2.1910  4.0952
  814MOL0     H 7447   6.098   7.248   1.503  1.2851  0.1283 -0.9739
  814MOL0     H 7448   5.937   7.407   1.437 -1.9331  0.1828  1.2795
  815MOL0     O 7449   2.896   6.860   4.140 -0.4275 -1.1564  1.6586
  815MOL0     C 7450   2.982   6.824   4.053  1.2857  0.3682 -0.2754
  815MOL0     O 7451   2.951   6.763   3.930  0.0021 -0.0370 -0.6065
  815MOL0     C 7452   2.826   6.747   3.892  0.1296 -0.6578  0.3142
  815MOL0     C 7453   2.741   6.657   3.952 -0.0039  0.1089  1.0114
  815MOL0     C 7454   2.606   6.651   3.912 -0.1249 -0.0901  0.2279
  815MOL0     C 7455   2.554   6.745   3.812 -0.6200  0.0464  0.2337
  815MOL0     O 7456   2.418   6.739   3.793 -0.6252 -0.1050  0.2525
  815MOL0     C 7457   2.341   6.856   3.756  0.0078  0.8119 -0.5109
  815MOL0     C 7458   2.278   6.853   3.623 -1.0735 -0.4370  0.6177
  815MOL0     C 7459   2.184   6.977   3.601 -0.5309  0.4787 -0.0206
  815MOL0     C 7460   2.160   7.005   3.448 -0.3151 -0.1857  0.3511
  815MOL0     C 7461   2.049   7.105   3.436 -0.3543  0.1532  0.4981
  815MOL0     C 7462   2.072   7.247   3.490 -0.3312 -0.0499 -0.2764
  815MOL0     C 7463   2.194   7.315   3.420  0.1520  0.1083 -0.5610
  815MOL0     C 7464   2.192   7.463   3.424  0.2737 -0.0411  0.6469
  815MOL0     N 7465   2.300   7.513   3.339 -0.1320 -0.7049 -0.3841
  815MOL0     C 7466   2.277   7.561   3.210  0.0467 -0.0464 -0.2228
  815MOL0     C 7467   2.396   7.618   3.182  0.4653 -0.7115  0.0496
  815MOL0     C 7468   2.439   7.723   3.087  0.4716  0.6122 -0.1148
  815MOL0     C 7469   2.316   7.781   3.009  0.4691  0.5503 -0.2404
  815MOL0     C 7470   2.338   7.918   2.949 -0.3831  1.7091  0.7519
  815MOL0     C 7471   2.201   7.969   2.895  0.7653  0.1583 -0.0781
  815MOL0     O 7472   2.102   7.990   3.000  0.1583  0.1312 -0.2951
  815MOL0     C 7473   1.968   8.006   2.968 -0.2228 -0.4814  0.0936
  815MOL0     C 7474   1.916   8.029   2.838 -0.4669 -0.8994  0.3638
  815MOL0     C 7475   1.785   8.032   2.817  0.7787  0.0149 -0.2324
  815MOL0     C 7476   1.694   7.995   2.923 -0.3184  0.5432  0.3573
  815MOL0     C 7477   1.546   7.991   2.907  0.2786 -0.0782 -0.8023
  815MOL0     O 7478   1.479   7.946   3.019  0.8416 -0.1981  0.4598
  815MOL0     C 7479   1.346   7.907   3.019 -0.4492 -1.1680  0.4175
  815MOL0     C 7480   1.254   7.976   2.932 -0.2350 -0.2593  0.3753
  815MOL0     C 7481   1.119   7.939   2.939 -0.0359 -0.4559  0.2584
  815MOL0     C 7482   1.075   7.842   3.026  0.6391  0.7599 -0.9566
  815MOL0     O 7483   0.939   7.803   3.033 -0.0009 -0.6002 -0.1459
  815MOL0     C 7484   0.907   7.667   3.035  0.0259 -0.0702  0.2064
  815MOL0     C 7485   0.758   7.650   3.064 -0.5427 -0.0454  0.1366
  815MOL0     C 7486   0.715   7.512   3.103  0.0258  0.3430 -0.1444
  815MOL0     C 7487   0.569   7.478   3.077 -0.8612 -0.3870 -0.8200
  815MOL0     C 7488   0.544   7.332   3.118 -0.4310  1.1286 -0.0545
  815MOL0     C 7489   0.546   7.313   3.266  0.3272 -0.8191  0.4255
  815MOL0     C 7490   0.502   7.168   3.308  0.1108 -0.0009  0.0863
  815MOL0     C 7491   0.485   7.139   3.464  0.5739  0.4023  0.2534
  815MOL0    Cl 7492   0.416   7.262   3.552 -0.1626 -0.0880  0.1479
  815MOL0     C 7493   1.165   7.778   3.111  0.3732  0.1185 -1.0240
  815MOL0     C 7494   1.301   7.805   3.100 -0.0425 -0.8998  0.2152
  815MOL0     O 7495   1.502   8.017   2.798 -0.0450  0.4707  0.5393
  815MOL0     C 7496   1.748   7.967   3.051  0.2310 -0.4388 -0.3707
  815MOL0     C 7497   1.881   7.979   3.073 -0.2141  1.2980 -0.5157
  815MOL0     N 7498   2.485   7.601   3.288 -0.9892  0.8362 -0.2879
  815MOL0     N 7499   2.423   7.540   3.385  0.5729 -0.4657 -0.2824
  815MOL0     C 7500   2.641   6.836   3.746 -0.5818  0.2505 -0.8146
  815MOL0     C 7501   2.773   6.824   3.788 -0.0595  0.0685 -0.2902
  815MOL0     C 7502   3.129   6.835   4.087  0.8057 -0.0012  0.0501
  815MOL0     C 7503   3.168   6.891   4.204 -0.3263 -1.3250  0.6123
  815MOL0     C 7504   3.304   6.885   4.244  0.2606  0.7836  0.1040
  815MOL0     C 7505   3.395   6.825   4.164 -0.1582  0.3200  0.5404
  815MOL0     O 7506   3.527   6.824   4.214  0.0932 -0.1821 -0.0568
  815MOL0     C 7507   3.622   6.729   4.181 -0.4087  0.0632  0.4071
  815MOL0     C 7508   3.749   6.801   4.135 -0.1270  0.2299 -0.8468
  815MOL0     C 7509   3.739   6.898   4.016 -0.4904  0.1422  0.0079
  815MOL0     C 7510   3.876   6.953   3.976  0.4846  1.3412 -0.2839
  815MOL0     C 7511   3.887   6.973   3.827 -0.2766  0.2574  0.1646
  815MOL0     C 7512   3.911   6.996   3.706  0.2153  0.1048  0.7636
  815MOL0     C 7513   3.355   6.777   4.045 -0.1075  0.3541 -0.5837
  815MOL0     C 7514   3.222   6.776   4.006 -0.7614  0.5502  0.0657
  815MOL0     H 7515   2.775   6.581   4.022 -1.3701 -1.1827  0.3432
  815MOL0     H 7516   2.546   6.583   3.970  0.5823 -0.8833  0.0458
  815MOL0     H 7517   2.401   6.947   3.767 -1.3473  1.5149  1.4588
  815MOL0     H 7518   2.271   6.864   3.839  1.4849  1.5379  0.7305
  815MOL0     H 7519   2.225   6.759   3.607 -0.7193 -0.4473 -0.5530
  815MOL0     H 7520   2.362   6.863   3.554 -1.2078  0.7312  0.5943
  815MOL0     H 7521   2.240   7.066   3.631 -0.3332  0.1363  0.6454
  815MOL0     H 7522   2.089   6.967   3.654 -0.6201  2.6584  0.3211
  815MOL0     H 7523   2.256   7.040   3.410 -0.3183  0.7364  1.1518
  815MOL0     H 7524   2.140   6.909   3.400 -1.3785  0.5514 -0.7494
  815MOL0     H 7525   1.961   7.063   3.486 -0.3324 -2.1086 -1.1856
  815MOL0     H 7526   2.015   7.104   3.332 -1.0121  0.2356  0.7114
  815MOL0     H 7527   2.094   7.238   3.597 -0.1254  1.0948 -0.2085
  815MOL0     H 7528   1.978   7.303   3.486 -0.7680 -0.5641  1.6793
  815MOL0     H 7529   2.285   7.292   3.476 -1.0385 -0.4170  1.2276
  815MOL0     H 7530   2.202   7.273   3.319 -3.3841  0.2581 -1.0275
  815MOL0     H 7531   2.195   7.511   3.523 -0.6996  2.4746 -0.4439
  815MOL0     H 7532   2.099   7.497   3.379 -0.1114  0.0568  1.4963
  815MOL0     H 7533   2.188   7.554   3.148  0.4627 -2.1549 -0.6441
  815MOL0     H 7534   2.507   7.669   3.020 -1.9478 -0.5768 -1.7231
  815MOL0     H 7535   2.502   7.803   3.128 -0.5985  1.5929 -0.3395
  815MOL0     H 7536   2.233   7.774   3.079  1.2353  0.7640  0.7021
  815MOL0     H 7537   2.288   7.716   2.925 -1.9743  0.3843  0.6241
  815MOL0     H 7538   2.367   7.987   3.028 -2.1584 -0.2658  3.3019
  815MOL0     H 7539   2.417   7.920   2.873 -2.0469  1.9155 -1.0469
  815MOL0     H 7540   2.160   7.902   2.819  1.3934  0.1290 -0.3943
  815MOL0     H 7541   2.225   8.061   2.842 -1.1953  0.9266  0.2963
  815MOL0     H 7542   1.978   8.046   2.750 -4.1449  1.0922 -2.1496
  815MOL0     H 7543   1.734   8.062   2.726  0.4761 -0.3026 -0.1686
  815MOL0     H 7544   1.288   8.049   2.860  2.1797 -2.7194 -1.1930
  815MOL0     H 7545   1.049   7.986   2.872  2.8679 -0.7530 -3.3130
  815MOL0     H 7546   0.964   7.605   3.104  2.2730 -1.2871 -2.5219
  815MOL0     H 7547   0.922   7.615   2.939 -1.4467  0.9950 -0.6536
  815MOL0     H 7548   0.729   7.695   2.968  1.7424  1.6959  0.1544
  815MOL0     H 7549   0.733   7.723   3.141 -2.2745  0.9924 -1.3286
  815MOL0     H 7550   0.743   7.498   3.208  1.0749 -0.4355 -0.5116
  815MOL0     H 7551   0.772   7.433   3.054 -0.4610 -0.1277  0.0375
  815MOL0     H 7552   0.503   7.542   3.136  0.2301 -2.0348  2.4182
  815MOL0     H 7553   0.544   7.494   2.971  0.8084 -5.8330 -2.3746
  815MOL0     H 7554   0.615   7.259   3.078  0.3765  0.7870  1.8903
  815MOL0     H 7555   0.443   7.302   3.088  0.9517 -3.6517 -0.6838
  815MOL0     H 7556   0.483   7.390   3.310  0.4885 -0.9730  0.9244
  815MOL0     H 7557   0.640   7.323   3.321  1.4074  0.7384 -1.5738
  815MOL0     H 7558   0.407   7.146   3.258  2.0682 -0.8984 -3.5950
  815MOL0     H 7559   0.573   7.094   3.271 -0.2574  0.1555 -0.9457
  815MOL0     H 7560   0.588   7.133   3.498  2.0194  1.6252 -3.4117
  815MOL0     H 7561   0.437   7.041   3.476  0.2849  0.8240  3.2505
  815MOL0     H 7562   1.128   7.709   3.186 -4.0966  1.4134 -1.7775
  815MOL0     H 7563   1.367   7.753   3.168 -0.0596  0.8135  1.5918
  815MOL0     H 7564   1.681   7.952   3.135 -1.4422  0.3791 -1.5233
  815MOL0     H 7565   1.920   7.961   3.173 -2.1996  0.3123  0.1334
  815MOL0     H 7566   2.617   6.909   3.670  1.5580  1.1093 -0.7366
  815MOL0     H 7567   2.845   6.896   3.751 -0.5955 -0.0861 -1.6730
  815MOL0     H 7568   3.095   6.930   4.274 -0.5860 -2.5495  1.0442
  815MOL0     H 7569   3.335   6.927   4.339  0.0023 -1.0123  1.0445
  815MOL0     H 7570   3.588   6.654   4.110 -0.3648 -0.2429  0.7046
  815MOL0     H 7571   3.654   6.676   4.272 -1.6379 -0.8684  0.3127
  815MOL0     H 7572   3.796   6.861   4.214 -3.9032  1.6636  0.5245
  815MOL0     H 7573   3.824   6.724   4.109  0.5352  0.6767 -0.2923
  815MOL0     H 7574   3.674   6.983   4.041 -1.8718 -1.2648  1.4657
  815MOL0     H 7575   3.697   6.844   3.930  2.8618 -0.9915 -1.0602
  815MOL0     H 7576   3.893   7.049   4.026 -0.8465  1.1082  0.6911
  815MOL0     H 7577   3.944   6.875   4.010 -4.1907 -2.1145  2.3078
  815MOL0     H 7578   3.918   7.008   3.599 -0.5238  1.5782  0.8635
  815MOL0     H 7579   3.433   6.741   3.979 -0.2961  0.7968 -1.0541
  815MOL0     H 7580   3.191   6.736   3.910  1.6304 -3.6827  0.8189
  816MOL0     O 7581   6.021  10.254   9.265 -0.2703  0.6898 -0.6778
  816MOL0     C 7582   5.923  10.186   9.289  0.2699 -0.7620 -0.2733
  816MOL0     O 7583   5.921  10.069   9.356  1.0985  0.0843  0.4371
  816MOL0     C 7584   6.049  10.006   9.379 -0.5402 -0.2197 -0.1719
  816MOL0     C 7585   6.162  10.071   9.438  0.1185 -0.7870 -0.6008
  816MOL0     C 7586   6.263   9.994   9.499  0.4683 -0.0975  0.0759
  816MOL0     C 7587   6.258   9.856   9.520  0.8721  0.1978  0.0065
  816MOL0     O 7588   6.368   9.797   9.577  0.4358 -0.5364 -0.7140
  816MOL0     C 7589   6.404   9.665   9.522  0.1909  0.2844 -0.1637
  816MOL0     C 7590   6.534   9.624   9.590  0.1017 -0.0009  0.0663
  816MOL0     C 7591   6.649   9.717   9.539 -0.3409 -0.4242 -0.7574
  816MOL0     C 7592   6.787   9.644   9.567  0.1414 -0.6109  0.2925
  816MOL0     C 7593   6.808   9.609   9.712 -0.4091  0.7330 -0.0511
  816MOL0     C 7594   6.948   9.545   9.740  0.4693  0.9978  0.6211
  816MOL0     C 7595   6.957   9.462   9.874  0.4429  0.4936 -0.9914
  816MOL0     C 7596   7.003   9.542   9.998 -0.1319 -0.1177  1.1387
  816MOL0     N 7597   7.035   9.463  10.114 -0.1400 -0.0437 -0.0741
  816MOL0     C 7598   7.138   9.379  10.136 -1.0959  0.0314 -0.2617
  816MOL0     C 7599   7.098   9.317  10.248  0.9698  0.2170  0.3149
  816MOL0     C 7600   7.159   9.184  10.281 -0.2723  0.3340  0.6363
  816MOL0     C 7601   7.122   9.068  10.184 -0.1176  0.8431  1.2168
  816MOL0     C 7602   7.181   8.932  10.245  0.6203  0.0904  0.8896
  816MOL0     C 7603   7.130   8.815  10.166  0.8542  0.3158  0.1271
  816MOL0     O 7604   7.162   8.836  10.030  0.0606 -0.2488  0.7573
  816MOL0     C 7605   7.091   8.793   9.924 -0.1017  1.4491  1.6005
  816MOL0     C 7606   7.155   8.818   9.805 -0.8736  0.4442  0.2853
  816MOL0     C 7607   7.103   8.771   9.687 -0.9917  0.9862  0.5704
  816MOL0     C 7608   6.995   8.684   9.687  0.0475 -0.4011  0.1498
  816MOL0     C 7609   6.962   8.597   9.574 -1.0856  0.6548 -0.1446
  816MOL0     O 7610   7.046   8.602   9.465 -0.5054  0.4955  0.3114
  816MOL0     C 7611   7.032   8.493   9.377 -0.6657  0.0208  0.6531
  816MOL0     C 7612   7.039   8.526   9.242  0.3567 -0.4622  0.3007
  816MOL0     C 7613   7.033   8.423   9.145  0.0847 -0.2204  0.2492
  816MOL0     C 7614   7.024   8.283   9.173  0.5369 -0.2410 -0.3326
  816MOL0     O 7615   7.010   8.203   9.060 -0.3563  0.5197  0.0518
  816MOL0     C 7616   7.020   8.055   9.082 -0.6286  0.2305  0.9214
  816MOL0     C 7617   6.877   7.998   9.097 -0.0514  0.2452 -0.7595
  816MOL0     C 7618   6.787   8.028   8.980  0.8547  0.0539 -0.6888
  816MOL0     C 7619   6.657   7.965   9.017  0.5277  0.2496  0.6919
  816MOL0     C 7620   6.561   8.009   8.905  0.8860  0.2824  0.2374
  816MOL0     C 7621   6.413   7.961   8.931  0.5361 -0.1704 -0.1879
  816MOL0     C 7622   6.411   7.813   8.918 -0.4937 -0.0463 -0.7097
  816MOL0     C 7623   6.288   7.757   8.830  0.4166  0.1493  0.6330
  816MOL0    Cl 7624   6.136   7.777   8.935 -0.0455  0.1445 -0.1003
  816MOL0     C 7625   7.020   8.259   9.314 -0.2331  0.9201  0.6113
  816MOL0     C 7626   7.032   8.359   9.415  0.6201  0.3894 -1.3386
  816MOL0     O 7627   6.861   8.523   9.583 -0.3466 -0.0379  0.1304
  816MOL0     C 7628   6.927   8.657   9.810 -0.3806 -0.3352 -0.1040
  816MOL0     C 7629   6.972   8.715   9.930 -0.0172  0.4997 -0.5473
  816MOL0     N 7630   6.968   9.358  10.280  0.6366 -0.0218 -0.1633
  816MOL0     N 7631   6.940   9.441  10.197 -0.4637 -0.0981  0.3878
  816MOL0     C 7632   6.142   9.790   9.472  0.3315  0.6403  0.4327
  816MOL0     C 7633   6.035   9.872   9.415 -0.1579  0.1328  0.1090
  816MOL0     C 7634   5.788  10.261   9.280 -0.0127  0.7934 -0.1363
  816MOL0     C 7635   5.790  10.397   9.265 -0.0346 -2.1025 -1.1607
  816MOL0     C 7636   5.670  10.472   9.259  0.2701 -0.4012 -1.0091
  816MOL0     C 7637   5.553  10.399   9.262  0.3110 -0.4244  1.0414
  816MOL0     O 7638   5.443  10.470   9.256  0.8317 -0.1122 -0.1527
  816MOL0     C 7639   5.342  10.446   9.361  0.2956  0.4001  0.5356
  816MOL0     C 7640   5.284  10.580   9.411  0.2321 -1.1944 -0.8150
  816MOL0     C 7641   5.171  10.556   9.529 -0.0882 -0.4420 -0.4029
  816MOL0     C 7642   5.043  10.503   9.457 -0.1468 -0.1062  0.2183
  816MOL0     C 7643   4.944  10.435   9.537  0.6297  0.6708 -0.5977
  816MOL0     C 7644   4.870  10.377   9.605 -0.4039  0.1956 -0.2322
  816MOL0     C 7645   5.547  10.261   9.261  0.0136 -0.0178  0.1034
  816MOL0     C 7646   5.666  10.186   9.279 -0.0530  0.4926  0.5124
  816MOL0     H 7647   6.176  10.178   9.432 -3.9349 -0.1412 -1.3567
  816MOL0     H 7648   6.347  10.041   9.550 -2.1072  2.5874  2.2164
  816MOL0     H 7649   6.420   9.683   9.416 -0.4285 -0.5352 -0.4053
  816MOL0     H 7650   6.323   9.594   9.538  1.8052 -1.6884 -0.3803
  816MOL0     H 7651   6.547   9.521   9.557  0.3533  0.4033 -1.1510
  816MOL0     H 7652   6.521   9.620   9.698  1.1199  0.3457  0.2182
  816MOL0     H 7653   6.651   9.813   9.591 -1.9249 -0.8845  0.1903
  816MOL0     H 7654   6.646   9.733   9.431 -0.9204 -1.9738 -0.9933
  816MOL0     H 7655   6.783   9.552   9.508 -0.8527  1.6133 -3.4888
  816MOL0     H 7656   6.870   9.701   9.524 -0.0320  0.2770  1.1098
  816MOL0     H 7657   6.730   9.538   9.739 -1.1612  1.9473  1.1280
  816MOL0     H 7658   6.807   9.696   9.778  0.0975 -1.6858  3.3784
  816MOL0     H 7659   7.026   9.621   9.746 -0.4130  1.9864 -0.0634
  816MOL0     H 7660   6.965   9.478   9.655 -4.0966  0.5918 -0.2324
  816MOL0     H 7661   6.863   9.410   9.899  1.1329 -1.4525 -2.1990
  816MOL0     H 7662   7.027   9.382   9.849  0.6666  0.8614 -1.5656
  816MOL0     H 7663   6.922   9.611  10.024  2.0761  3.4774 -0.7136
  816MOL0     H 7664   7.083   9.610   9.967 -0.7962  0.8868  1.5541
  816MOL0     H 7665   7.214   9.351  10.064 -2.2879 -0.6774 -1.2955
  816MOL0     H 7666   7.134   9.155  10.384  1.6603  2.3043  1.7384
  816MOL0     H 7667   7.268   9.186  10.282 -0.1433 -2.1212  3.0443
  816MOL0     H 7668   7.173   9.092  10.091 -0.1534  1.9152  1.4589
  816MOL0     H 7669   7.016   9.056  10.161 -0.2122  1.8484  1.1026
  816MOL0     H 7670   7.289   8.931  10.230  0.3631 -4.4992 -2.4981
  816MOL0     H 7671   7.149   8.921  10.349 -0.1879  1.0821  0.7707
  816MOL0     H 7672   7.021   8.819  10.168  0.4862 -3.0086 -3.1220
  816MOL0     H 7673   7.174   8.728  10.217  1.8846  2.2556  2.8049
  816MOL0     H 7674   7.250   8.870   9.803 -0.5423 -0.1351 -2.2204
  816MOL0     H 7675   7.175   8.788   9.607  1.2157  0.4759  2.3501
  816MOL0     H 7676   7.047   8.630   9.215 -1.2753 -0.1628  0.8655
  816MOL0     H 7677   7.031   8.453   9.041  1.2137 -2.5914 -0.5296
  816MOL0     H 7678   7.095   8.036   9.160  1.0128 -1.5778 -0.9872
  816MOL0     H 7679   7.063   8.012   8.991  0.5238  0.2573  1.4310
  816MOL0     H 7680   6.834   8.038   9.189  0.7022  1.3194 -0.8533
  816MOL0     H 7681   6.890   7.889   9.102  2.0380  0.4400  3.8786
  816MOL0     H 7682   6.828   7.996   8.883  1.7127 -1.4088  0.1180
  816MOL0     H 7683   6.780   8.137   8.972 -2.9250 -0.1483 -2.4672
  816MOL0     H 7684   6.660   7.855   9.021 -1.6554  0.1207  0.2644
  816MOL0     H 7685   6.618   7.995   9.115 -1.2641 -0.9308  0.3852
  816MOL0     H 7686   6.601   7.969   8.811  2.1575  0.3554  0.7235
  816MOL0     H 7687   6.556   8.117   8.914 -1.4599  0.3485 -0.9637
  816MOL0     H 7688   6.348   7.999   8.852 -0.6503 -0.1513  0.7622
  816MOL0     H 7689   6.387   8.002   9.029  2.6873  1.9301 -0.4261
  816MOL0     H 7690   6.507   7.772   8.884 -0.1787  0.5466 -0.5425
  816MOL0     H 7691   6.401   7.764   9.015  0.4041  0.4622 -0.3527
  816MOL0     H 7692   6.296   7.651   8.803  2.3631  1.0193 -2.6903
  816MOL0     H 7693   6.263   7.800   8.733 -0.7948 -2.3663 -0.2589
  816MOL0     H 7694   7.024   8.153   9.338 -0.0433  1.0610  1.2346
  816MOL0     H 7695   7.036   8.335   9.521  2.9900 -0.5236 -1.5640
  816MOL0     H 7696   6.836   8.600   9.821 -2.3492  2.9426  3.4133
  816MOL0     H 7697   6.925   8.691  10.025  1.1200 -0.0354 -0.1048
  816MOL0     H 7698   6.121   9.687   9.500  2.1691  0.1478  0.1130
  816MOL0     H 7699   5.939   9.821   9.418 -0.5793  0.7927 -1.4044
  816MOL0     H 7700   5.884  10.452   9.265 -0.0425 -2.0491  0.0608
  816MOL0     H 7701   5.671  10.579   9.239 -0.5534 -0.1371  0.2886
  816MOL0     H 7702   5.382  10.390   9.446 -0.9873 -3.7636 -1.3228
  816MOL0     H 7703   5.267  10.390   9.304  3.2194 -0.2901 -2.9614
  816MOL0     H 7704   5.371  10.636   9.445 -0.1174 -1.4726  0.6342
  816MOL0     H 7705   5.238  10.632   9.328 -4.2560 -1.7903  1.0047
  816MOL0     H 7706   5.143  10.653   9.572 -3.7519 -0.5018 -2.2285
  816MOL0     H 7707   5.203  10.483   9.603  0.1068 -1.4240 -1.4208
  816MOL0     H 7708   4.989  10.595   9.432 -1.1380 -0.1158  2.1897
  816MOL0     H 7709   5.063  10.434   9.374 -1.1666 -0.5763  0.3534
  816MOL0     H 7710   4.800  10.315   9.658 -1.2890  1.3642  0.0116
  816MOL0     H 7711   5.454  10.205   9.262  0.3255 -0.5641  1.5766
  816MOL0     H 7712   5.659  10.078   9.268  0.0680  0.5500 -0.1446
  817MOL0     O 7713   1.011   7.389   4.566 -0.5148 -0.1179  0.1806
  817MOL0     C 7714   1.114   7.331   4.546 -0.2619 -0.2551  0.4785
  817MOL0     O 7715   1.227   7.355   4.612 -0.1547  0.9412  0.6170
  817MOL0     C 7716   1.264   7.457   4.699  0.5278  0.2663 -0.2522
  817MOL0     C 7717   1.393   7.450   4.753 -1.2935  0.0652 -0.3562
  817MOL0     C 7718   1.442   7.540   4.850 -0.1523  0.7285 -0.4480
  817MOL0     C 7719   1.363   7.651   4.892  0.3241  0.5320  0.3066
  817MOL0     O 7720   1.411   7.734   4.987  0.0401 -0.1410 -0.0248
  817MOL0     C 7721   1.480   7.671   5.107  1.0099  0.2025 -0.7678
  817MOL0     C 7722   1.455   7.772   5.228 -0.1154 -0.6986 -0.3212
  817MOL0     C 7723   1.533   7.900   5.201 -0.1360 -0.0111  0.8225
  817MOL0     C 7724   1.484   8.034   5.271  1.0146  0.2459  0.0698
  817MOL0     C 7725   1.590   8.142   5.231  0.0784 -0.6406 -0.2492
  817MOL0     C 7726   1.577   8.265   5.314  0.1891  0.2802 -0.7140
  817MOL0     C 7727   1.675   8.382   5.267  0.0418  1.0738 -0.2254
  817MOL0     C 7728   1.612   8.467   5.152 -0.9603 -0.9271 -0.3612
  817MOL0     N 7729   1.693   8.593   5.130 -0.3321  0.4640 -0.6251
  817MOL0     C 7730   1.716   8.696   5.218  0.5996  0.7838 -0.7388
  817MOL0     C 7731   1.829   8.761   5.178  1.1707 -0.1748 -0.7642
  817MOL0     C 7732   1.914   8.855   5.261 -0.3865 -0.9225  0.0270
  817MOL0     C 7733   1.834   8.966   5.330  0.0074  0.2765 -0.0336
  817MOL0     C 7734   1.752   9.057   5.236  0.2945 -0.3182 -0.5349
  817MOL0     C 7735   1.667   9.156   5.320  0.1508 -0.7359  0.0920
  817MOL0     O 7736   1.573   9.096   5.406  0.3300 -0.0252  0.1136
  817MOL0     C 7737   1.482   9.010   5.353  0.5660 -0.2304 -0.2496
  817MOL0     C 7738   1.457   8.893   5.430  0.0343 -0.3888  0.1578
  817MOL0     C 7739   1.377   8.796   5.387 -0.8225 -0.4452  0.4870
  817MOL0     C 7740   1.323   8.794   5.265 -1.2539  0.4903  0.4330
  817MOL0     C 7741   1.238   8.682   5.215 -0.3971 -0.2728 -0.1509
  817MOL0     O 7742   1.218   8.669   5.082  0.2577 -0.1263  0.1043
  817MOL0     C 7743   1.158   8.555   5.021  0.3218  0.2694 -1.3968
  817MOL0     C 7744   1.235   8.467   4.947 -0.4617 -0.3247  0.1057
  817MOL0     C 7745   1.173   8.370   4.865  0.5936  0.2674  0.3939
  817MOL0     C 7746   1.034   8.345   4.873  0.0470 -0.9508  0.9111
  817MOL0     O 7747   0.976   8.264   4.782  0.3978 -0.9873 -0.2070
  817MOL0     C 7748   0.939   8.139   4.835  0.0563  0.7365  0.2153
  817MOL0     C 7749   0.969   8.026   4.739  1.1476  0.1636  1.4479
  817MOL0     C 7750   0.925   7.885   4.767  0.1885  0.2759 -0.7576
  817MOL0     C 7751   0.773   7.859   4.793  0.0064  0.9600  0.0104
  817MOL0     C 7752   0.747   7.710   4.797  0.1597  0.3446  0.3113
  817MOL0     C 7753   0.745   7.638   4.648  0.1402 -0.7948 -0.1143
  817MOL0     C 7754   0.668   7.503   4.647 -0.6266 -0.6172 -0.2658
  817MOL0     C 7755   0.674   7.437   4.508  0.0155  0.1846  0.3973
  817MOL0    Cl 7756   0.580   7.275   4.532  0.1950 -0.3242 -0.1099
  817MOL0     C 7757   0.962   8.426   4.959 -0.0111  0.1959  0.3135
  817MOL0     C 7758   1.021   8.535   5.033  1.5250  0.1944  0.7318
  817MOL0     O 7759   1.202   8.597   5.295  0.6684 -0.4599  0.1266
  817MOL0     C 7760   1.326   8.918   5.185  0.3223  0.6530  0.3532
  817MOL0     C 7761   1.404   9.028   5.232 -0.5649  0.8868 -0.9100
  817MOL0     N 7762   1.862   8.708   5.056 -0.4516 -0.0788 -0.0116
  817MOL0     N 7763   1.790   8.606   5.033 -0.0920  0.7006  0.0154
  817MOL0     C 7764   1.239   7.673   4.831  0.3513  0.2623 -0.5299
  817MOL0     C 7765   1.191   7.573   4.735  0.0098 -0.7212  0.2922
  817MOL0     C 7766   1.123   7.252   4.421 -0.0684  1.0099 -1.2945
  817MOL0     C 7767   1.243   7.196   4.386  0.1263  0.5217  0.0944
  817MOL0     C 7768   1.251   7.099   4.289  0.8682 -0.8564 -0.3832
  817MOL0     C 7769   1.136   7.062   4.211 -0.1788 -0.0089  0.9170
  817MOL0     O 7770   1.142   7.002   4.092 -0.1731 -0.3126 -0.4300
  817MOL0     C 7771   1.233   6.891   4.075  0.5498 -0.4453 -0.1266
  817MOL0     C 7772   1.215   6.818   3.952  0.0939  0.3971 -0.0425
  817MOL0     C 7773   1.190   6.904   3.826 -0.4823  0.6264 -0.2435
  817MOL0     C 7774   1.294   7.008   3.788  0.1732  0.5976  0.1131
  817MOL0     C 7775   1.422   6.942   3.778 -0.4371 -0.0452 -0.7148
  817MOL0     C 7776   1.532   6.888   3.773  0.0686 -0.8861  0.4833
  817MOL0     C 7777   1.019   7.136   4.232  0.9450  1.1115 -0.0617
  817MOL0     C 7778   1.001   7.225   4.342  0.3824  0.2067 -0.5425
  817MOL0     H 7779   1.444   7.359   4.724 -0.9526  0.7994 -2.1880
  817MOL0     H 7780   1.545   7.524   4.882 -0.0197 -1.1999 -1.6589
  817MOL0     H 7781   1.587   7.649   5.101  0.4152 -3.6346  0.1642
  817MOL0     H 7782   1.419   7.588   5.140  3.2472 -2.0059 -1.8554
  817MOL0     H 7783   1.476   7.733   5.328  0.2660 -3.0986 -1.2612
  817MOL0     H 7784   1.348   7.798   5.227  0.3551  1.4582  0.6127
  817MOL0     H 7785   1.544   7.935   5.098  2.2548  1.4487  1.4975
  817MOL0     H 7786   1.627   7.867   5.245 -1.3582 -4.2700  0.6442
  817MOL0     H 7787   1.382   8.046   5.234  1.3315 -2.2840 -1.8475
  817MOL0     H 7788   1.479   8.020   5.380  2.3813  1.0582  0.2631
  817MOL0     H 7789   1.570   8.156   5.125 -1.5793  1.3270  0.2554
  817MOL0     H 7790   1.690   8.103   5.252 -1.5642 -2.7973  5.4678
  817MOL0     H 7791   1.596   8.238   5.419  2.6315  1.0790 -0.8957
  817MOL0     H 7792   1.476   8.301   5.296  0.3859 -0.0517 -2.6704
  817MOL0     H 7793   1.698   8.450   5.349 -3.1408  1.4131  0.5505
  817MOL0     H 7794   1.769   8.333   5.239  0.2495 -1.0853  3.5755
  817MOL0     H 7795   1.510   8.501   5.173 -1.0653 -1.1469 -0.5157
  817MOL0     H 7796   1.611   8.417   5.055 -4.9187  1.1127 -1.5795
  817MOL0     H 7797   1.675   8.697   5.319  3.5808 -0.2108  0.5854
  817MOL0     H 7798   1.991   8.899   5.196 -1.3248 -1.5509 -1.5712
  817MOL0     H 7799   1.969   8.790   5.329  1.5680  0.9293  0.3250
  817MOL0     H 7800   1.894   9.033   5.392  1.2054 -0.6811 -0.1290
  817MOL0     H 7801   1.769   8.912   5.399  1.0507  0.6033  1.2374
  817MOL0     H 7802   1.817   9.114   5.169  0.8480  1.0452  1.0985
  817MOL0     H 7803   1.696   9.003   5.158  1.3978  2.4839 -3.4942
  817MOL0     H 7804   1.606   9.214   5.250 -3.4090 -1.9944  1.8939
  817MOL0     H 7805   1.737   9.214   5.382 -1.3325 -1.2811  2.4431
  817MOL0     H 7806   1.509   8.877   5.524  0.8052 -0.1364 -0.2152
  817MOL0     H 7807   1.375   8.707   5.450 -1.2088 -2.6452 -2.3845
  817MOL0     H 7808   1.342   8.478   4.953 -0.5190  1.8420 -1.5071
  817MOL0     H 7809   1.239   8.305   4.808 -0.2474  1.1270 -1.6398
  817MOL0     H 7810   0.834   8.136   4.863  0.4808 -0.7556  1.8271
  817MOL0     H 7811   0.997   8.112   4.924 -1.0290 -2.1802  0.1277
  817MOL0     H 7812   1.079   8.026   4.743  1.3085 -1.9906 -0.7564
  817MOL0     H 7813   0.933   8.042   4.637  1.2724 -2.4191  0.9238
  817MOL0     H 7814   0.973   7.858   4.861 -1.5612 -0.4002 -0.0062
  817MOL0     H 7815   0.957   7.819   4.686 -1.6059 -1.0121 -0.4838
  817MOL0     H 7816   0.731   7.906   4.882 -1.6477 -2.8112  1.4641
  817MOL0     H 7817   0.724   7.900   4.705  1.9297  0.1843 -1.4935
  817MOL0     H 7818   0.643   7.702   4.830  0.2845 -1.4001  0.3886
  817MOL0     H 7819   0.796   7.658   4.879 -1.9853  0.7314  1.9152
  817MOL0     H 7820   0.851   7.631   4.622  0.2295  2.4715 -1.0380
  817MOL0     H 7821   0.690   7.714   4.592 -1.5668 -2.1455 -0.3304
  817MOL0     H 7822   0.731   7.444   4.715  1.4318 -0.3018 -1.8106
  817MOL0     H 7823   0.564   7.503   4.681 -1.0477 -3.0329 -1.3355
  817MOL0     H 7824   0.776   7.414   4.477  0.4291 -1.1499  2.5368
  817MOL0     H 7825   0.619   7.506   4.443 -1.9801 -0.8096  0.9385
  817MOL0     H 7826   0.854   8.420   4.951  0.1257 -2.4528 -0.7011
  817MOL0     H 7827   0.969   8.607   5.095  2.6366 -0.4586  2.4875
  817MOL0     H 7828   1.281   8.921   5.086  0.2527 -2.0947  0.2174
  817MOL0     H 7829   1.423   9.117   5.173  4.0149  3.5789  3.7404
  817MOL0     H 7830   1.184   7.763   4.855  2.2073  1.7456 -1.5958
  817MOL0     H 7831   1.088   7.588   4.705 -0.4991 -1.8742  1.3903
  817MOL0     H 7832   1.334   7.225   4.438  0.9856 -2.0552  0.1925
  817MOL0     H 7833   1.349   7.055   4.275  2.9495  2.2301  2.9628
  817MOL0     H 7834   1.231   6.829   4.165  0.2052 -0.3021 -0.0309
  817MOL0     H 7835   1.336   6.921   4.056  1.7416 -2.9981  1.6968
  817MOL0     H 7836   1.291   6.744   3.925  0.5351  0.9876 -0.4718
  817MOL0     H 7837   1.125   6.757   3.967  0.1276  0.2790 -0.3100
  817MOL0     H 7838   1.092   6.948   3.849 -1.5613 -1.5084 -0.4899
  817MOL0     H 7839   1.168   6.845   3.737  0.3322 -1.8863  1.1204
  817MOL0     H 7840   1.272   7.051   3.690  1.4292 -0.6868 -0.7794
  817MOL0     H 7841   1.285   7.094   3.855  0.9912  0.8958 -0.1509
  817MOL0     H 7842   1.628   6.845   3.751  0.6612  0.6438 -0.0942
  817MOL0     H 7843   0.952   7.133   4.146  1.2457 -0.4021 -0.2773
  817MOL0     H 7844   0.909   7.281   4.357  0.8623  0.4576  1.6436
  818MOL0     O 7845   6.667   9.167  10.419  0.1133 -0.4686  0.1486
  818MOL0     C 7846   6.722   9.083  10.350  0.0483  0.0060 -0.5526
  818MOL0     O 7847   6.773   8.960  10.404  0.0666 -0.4797  0.0622
  818MOL0     C 7848   6.772   8.926  10.538  0.2070 -0.9549  1.0026
  818MOL0     C 7849   6.882   8.850  10.588 -0.1168  1.2416 -0.6920
  818MOL0     C 7850   6.877   8.804  10.719 -0.3012 -0.3701  0.7444
  818MOL0     C 7851   6.781   8.843  10.805 -0.4288 -0.5964  0.7863
  818MOL0     O 7852   6.776   8.779  10.925  0.9993  0.4154 -0.6337
  818MOL0     C 7853   6.720   8.843  11.048 -1.2351 -0.0133 -0.8453
  818MOL0     C 7854   6.778   8.974  11.087  0.1688  0.9551  0.5827
  818MOL0     C 7855   6.936   8.968  11.114  0.4822  0.3715  0.0809
  818MOL0     C 7856   6.998   9.099  11.142  0.6700 -0.3421 -1.0352
  818MOL0     C 7857   7.147   9.098  11.124 -0.1488  0.6390 -0.8806
  818MOL0     C 7858   7.213   9.224  11.190 -0.3209  1.1502  0.6382
  818MOL0     C 7859   7.366   9.219  11.131  0.5928  0.6533 -0.1366
  818MOL0     C 7860   7.455   9.321  11.201  0.2162  0.5101  0.3420
  818MOL0     N 7861   7.583   9.336  11.139 -0.2009 -0.3532 -0.7577
  818MOL0     C 7862   7.671   9.230  11.108 -0.3133  0.4732 -0.6177
  818MOL0     C 7863   7.790   9.293  11.075 -0.5206  0.8709 -0.9844
  818MOL0     C 7864   7.926   9.222  11.045 -0.3147  0.0642  0.5174
  818MOL0     C 7865   8.043   9.307  11.088 -0.2970  0.2647 -0.5381
  818MOL0     C 7866   8.163   9.233  11.044 -0.1966 -0.3117 -0.2493
  818MOL0     C 7867   8.299   9.303  11.075  0.4450  0.1725  1.1098
  818MOL0     O 7868   8.301   9.433  11.020  0.1948  0.0269  0.2071
  818MOL0     C 7869   8.418   9.499  11.051 -0.0523 -0.0242 -0.1457
  818MOL0     C 7870   8.538   9.454  10.989 -0.1014  0.1486 -0.3631
  818MOL0     C 7871   8.665   9.501  11.027 -0.8413  0.0834 -0.0077
  818MOL0     C 7872   8.685   9.595  11.124  1.1334 -1.0006 -0.4032
  818MOL0     C 7873   8.820   9.649  11.156 -0.5660 -0.6270 -0.6367
  818MOL0     O 7874   8.823   9.756  11.239  0.7763 -0.5427 -0.3392
  818MOL0     C 7875   8.943   9.827  11.251  0.3439 -0.7358  0.7252
  818MOL0     C 7876   8.995   9.906  11.148  0.0100 -0.0385 -0.0471
  818MOL0     C 7877   9.126   9.962  11.166  0.7237 -0.0629 -0.5436
  818MOL0     C 7878   9.190   9.947  11.286  0.2134  0.2650  0.8933
  818MOL0     O 7879   9.314  10.003  11.310 -0.6690 -0.1385 -0.5062
  818MOL0     C 7880   9.357  10.107  11.232 -0.4196  0.6298  0.3639
  818MOL0     C 7881   9.481  10.155  11.294 -0.6522 -0.8000 -0.2321
  818MOL0     C 7882   9.509  10.293  11.259  0.2320 -0.4821 -0.0786
  818MOL0     C 7883   9.626  10.361  11.327  0.0365  0.2795  0.7495
  818MOL0     C 7884   9.641  10.513  11.282  0.2076  0.1959  0.5471
  818MOL0     C 7885   9.708  10.597  11.390 -0.7595  0.4345 -1.3980
  818MOL0     C 7886   9.753  10.728  11.336  0.9030 -0.0487 -0.1882
  818MOL0     C 7887   9.800  10.825  11.439 -0.6184 -0.0218  0.4130
  818MOL0    Cl 7888   9.762  11.004  11.390 -0.2140  0.0345 -0.5625
  818MOL0     C 7889   9.130   9.872  11.390  0.0573 -0.6281 -0.2759
  818MOL0     C 7890   9.007   9.813  11.375 -0.6269  0.9422  0.3313
  818MOL0     O 7891   8.916   9.587  11.108 -0.0783 -0.4361 -0.0830
  818MOL0     C 7892   8.564   9.649  11.183  0.5084  0.0714 -0.3051
  818MOL0     C 7893   8.437   9.592  11.153  0.1690  0.5976  0.5497
  818MOL0     N 7894   7.772   9.433  11.106  0.8364 -0.0519  0.7259
  818MOL0     N 7895   7.649   9.454  11.140 -0.2288 -0.7639  0.1087
  818MOL0     C 7896   6.669   8.920  10.754 -0.4296  0.1542 -0.3455
  818MOL0     C 7897   6.663   8.956  10.619  0.8406  0.7233  0.2812
  818MOL0     C 7898   6.730   9.098  10.195  0.0646  0.6051  0.4134
  818MOL0     C 7899   6.688   9.212  10.142 -0.0356  0.3375 -0.6626
  818MOL0     C 7900   6.681   9.238  10.004  0.5434 -0.2098  0.6914
  818MOL0     C 7901   6.722   9.140   9.912  0.2563 -0.4129 -0.6187
  818MOL0     O 7902   6.722   9.166   9.779  0.6255  0.5310 -0.2853
  818MOL0     C 7903   6.767   9.064   9.684  0.0063 -0.1658  0.3878
  818MOL0     C 7904   6.768   9.113   9.533  0.4008 -0.3012  0.1853
  818MOL0     C 7905   6.862   9.234   9.507  0.2785 -0.0128 -0.2865
  818MOL0     C 7906   7.007   9.191   9.527 -1.9381 -0.0980 -0.0259
  818MOL0     C 7907   7.041   9.074   9.450 -0.7085 -0.6158 -0.4744
  818MOL0     C 7908   7.068   8.981   9.386 -0.0001  1.2689 -0.5212
  818MOL0     C 7909   6.756   9.012   9.965 -0.1770 -0.1199  0.6172
  818MOL0     C 7910   6.762   8.994  10.103 -0.3220  0.1002 -0.0523
  818MOL0     H 7911   6.961   8.823  10.519 -0.5775 -0.1444 -0.6960
  818MOL0     H 7912   6.957   8.735  10.745 -0.7266 -0.0641  3.0911
  818MOL0     H 7913   6.714   8.775  11.134  0.1320  1.2031  0.2505
  818MOL0     H 7914   6.613   8.850  11.023 -0.9877  2.7849 -1.3969
  818MOL0     H 7915   6.726   9.004  11.178 -2.0373  0.7438 -0.5334
  818MOL0     H 7916   6.761   9.050  11.010 -1.1424  2.7043  2.5028
  818MOL0     H 7917   6.993   8.929  11.029  1.5337  1.8128  0.0786
  818MOL0     H 7918   6.945   8.897  11.196  1.7056  1.9486  1.3859
  818MOL0     H 7919   6.957   9.173  11.073 -0.5551 -0.4045 -0.3908
  818MOL0     H 7920   6.970   9.130  11.244  0.9826  1.2033 -1.3854
  818MOL0     H 7921   7.166   9.096  11.016  0.7194  0.7671 -0.7367
  818MOL0     H 7922   7.192   9.008  11.167  1.5574  2.0529  0.3899
  818MOL0     H 7923   7.229   9.211  11.298  1.1122  1.5491  0.4930
  818MOL0     H 7924   7.164   9.318  11.163  0.2388  0.7363 -2.0562
  818MOL0     H 7925   7.398   9.119  11.161 -3.2656 -1.2357 -1.6759
  818MOL0     H 7926   7.387   9.217  11.024 -0.1192 -0.4818 -0.2668
  818MOL0     H 7927   7.472   9.302  11.307 -0.4821 -1.9863  0.0691
  818MOL0     H 7928   7.408   9.419  11.202 -1.4418 -0.2501  0.2924
  818MOL0     H 7929   7.653   9.123  11.097  0.8218 -0.0727  1.8315
  818MOL0     H 7930   7.923   9.189  10.940 -1.6380 -0.4444  0.6929
  818MOL0     H 7931   7.921   9.129  11.102  2.1819  0.0847  0.8697
  818MOL0     H 7932   8.048   9.291  11.196  0.0353 -1.1557 -0.7385
  818MOL0     H 7933   8.046   9.413  11.062  1.2300  0.4030  0.0810
  818MOL0     H 7934   8.164   9.127  11.073  0.3362  0.3494  2.3358
  818MOL0     H 7935   8.155   9.230  10.935 -1.0293 -2.4551 -0.1808
  818MOL0     H 7936   8.371   9.243  11.019  1.2806 -0.1321  2.4665
  818MOL0     H 7937   8.315   9.312  11.183 -0.0683 -0.3915  1.2368
  818MOL0     H 7938   8.524   9.375  10.915  0.9477 -1.8591  1.4563
  818MOL0     H 7939   8.748   9.455  10.974 -1.5318 -1.4832  0.2175
  818MOL0     H 7940   8.945   9.922  11.053  1.5381 -0.1262 -0.8939
  818MOL0     H 7941   9.166  10.026  11.088  1.8838 -1.4948 -1.1788
  818MOL0     H 7942   9.280  10.184  11.232 -2.6868 -1.4643  2.1436
  818MOL0     H 7943   9.382  10.083  11.128  0.1329 -1.7830  0.9826
  818MOL0     H 7944   9.566  10.106  11.246  0.4636  0.0785  0.7963
  818MOL0     H 7945   9.477  10.146  11.403  0.8987  0.1286 -0.0742
  818MOL0     H 7946   9.419  10.349  11.287  2.6650  3.7151  0.1468
  818MOL0     H 7947   9.528  10.292  11.152 -1.3896 -1.9726 -0.4046
  818MOL0     H 7948   9.631  10.352  11.436 -1.5026  0.0886  0.8244
  818MOL0     H 7949   9.714  10.304  11.296 -2.0129 -2.8528  0.1926
  818MOL0     H 7950   9.536  10.543  11.276 -0.0125 -0.4694  1.0243
  818MOL0     H 7951   9.697  10.537  11.191 -0.3826  2.4562  0.7064
  818MOL0     H 7952   9.795  10.544  11.431 -1.8544  0.4867  1.1661
  818MOL0     H 7953   9.636  10.612  11.470  0.6680  1.4198 -0.2546
  818MOL0     H 7954   9.832  10.711  11.262  1.5130 -0.3578  0.5212
  818MOL0     H 7955   9.667  10.774  11.288  0.2787 -1.9613 -1.0243
  818MOL0     H 7956   9.905  10.814  11.470 -1.4557 -0.9688  3.1221
  818MOL0     H 7957   9.745  10.807  11.531  3.2031 -2.1819  2.5386
  818MOL0     H 7958   9.183   9.853  11.482  0.0347 -5.6783 -1.0239
  818MOL0     H 7959   8.964   9.761  11.461 -1.1758  1.7832  0.5812
  818MOL0     H 7960   8.582   9.719  11.264  0.5701 -2.4144  1.9513
  818MOL0     H 7961   8.349   9.610  11.214 -0.1729  1.0010 -0.0476
  818MOL0     H 7962   6.592   8.952  10.823 -0.2387 -1.6149  0.7577
  818MOL0     H 7963   6.583   9.017  10.580 -0.6662  0.0308  2.1562
  818MOL0     H 7964   6.667   9.296  10.206  1.0777 -1.0427  1.6673
  818MOL0     H 7965   6.649   9.339   9.977  2.4678 -0.1591 -1.7722
  818MOL0     H 7966   6.702   8.976   9.685  1.4869 -1.3447  3.1579
  818MOL0     H 7967   6.871   9.043   9.707  0.4275  2.6683  1.4915
  818MOL0     H 7968   6.789   9.025   9.471 -1.0709 -0.0529 -0.7210
  818MOL0     H 7969   6.669   9.158   9.528  0.6431  0.4605  1.7617
  818MOL0     H 7970   6.837   9.322   9.568 -3.1946 -0.8465 -0.2669
  818MOL0     H 7971   6.845   9.258   9.401  1.0849  1.0233 -0.1965
  818MOL0     H 7972   7.063   9.276   9.485 -2.2170  0.3993  0.5978
  818MOL0     H 7973   7.052   9.182   9.626  1.2201  4.2455 -0.7501
  818MOL0     H 7974   7.093   8.889   9.338  2.1689  1.6416 -0.1982
  818MOL0     H 7975   6.792   8.926   9.910  0.0422 -1.3953  2.6363
  818MOL0     H 7976   6.780   8.899  10.153  1.9419  0.6803  0.3353
  819MOL0     O 7977   6.989   6.409  10.806 -0.2038  0.8533  0.2240
  819MOL0     C 7978   6.897   6.469  10.867 -0.2364  0.7777 -0.8779
  819MOL0     O 7979   6.763   6.463  10.830  0.7938 -0.5597 -0.0085
  819MOL0     C 7980   6.729   6.375  10.729  1.2378 -0.8638 -0.1038
  819MOL0     C 7981   6.797   6.386  10.610 -0.2525 -0.4119  0.0582
  819MOL0     C 7982   6.751   6.308  10.499 -0.7089  0.5849 -0.1734
  819MOL0     C 7983   6.644   6.222  10.512 -0.6816 -0.4330  0.1625
  819MOL0     O 7984   6.605   6.125  10.417  0.2479 -0.5096 -0.0406
  819MOL0     C 7985   6.608   6.161  10.276  0.7413 -0.0021 -0.2502
  819MOL0     C 7986   6.472   6.145  10.204 -0.7730  0.3568 -0.1234
  819MOL0     C 7987   6.500   6.088  10.060 -0.6606 -0.4013 -0.4292
  819MOL0     C 7988   6.368   6.095   9.970 -0.5411  0.7017  0.1185
  819MOL0     C 7989   6.364   6.194   9.865  0.4628  0.0963  0.5399
  819MOL0     C 7990   6.467   6.177   9.753 -0.0908 -0.0971  0.7695
  819MOL0     C 7991   6.433   6.286   9.648 -0.4555 -0.4484 -0.2791
  819MOL0     C 7992   6.535   6.273   9.528 -0.5444  0.1996  0.8291
  819MOL0     N 7993   6.643   6.383   9.517  0.8395  0.3952 -0.5009
  819MOL0     C 7994   6.713   6.420   9.631 -0.0991  1.4079  0.6184
  819MOL0     C 7995   6.788   6.521   9.589 -0.1535 -0.5650  0.0500
  819MOL0     C 7996   6.894   6.608   9.649  0.7157  0.3493  0.0890
  819MOL0     C 7997   7.027   6.604   9.567  0.8558 -0.0294 -0.0610
  819MOL0     C 7998   7.138   6.679   9.646  1.1458 -0.1289  0.3533
  819MOL0     C 7999   7.123   6.832   9.660  0.3832 -0.7654 -0.3820
  819MOL0     O 8000   7.233   6.882   9.736  0.1260  0.7237 -0.4015
  819MOL0     C 8001   7.272   7.005   9.729  0.0461  0.0846 -0.3949
  819MOL0     C 8002   7.381   7.035   9.809 -1.2875 -0.5251 -0.2877
  819MOL0     C 8003   7.425   7.161   9.820 -0.6393 -0.6234 -1.0080
  819MOL0     C 8004   7.354   7.264   9.754 -0.8811  0.7402 -0.9435
  819MOL0     C 8005   7.400   7.405   9.768 -0.2870  0.3752  0.7876
  819MOL0     O 8006   7.521   7.422   9.825 -0.2170  0.3177 -0.5420
  819MOL0     C 8007   7.573   7.549   9.847  0.0342  0.0987  0.2755
  819MOL0     C 8008   7.678   7.598   9.767  0.0087  0.0115  0.7606
  819MOL0     C 8009   7.728   7.723   9.786  0.2368  0.4079  0.2525
  819MOL0     C 8010   7.669   7.809   9.879 -0.7071 -0.4507  0.8408
  819MOL0     O 8011   7.715   7.932   9.913  0.6308  0.0435  0.0007
  819MOL0     C 8012   7.773   8.007   9.805 -0.2082 -0.6810 -1.1806
  819MOL0     C 8013   7.793   8.150   9.856  0.3747  0.6649  0.6489
  819MOL0     C 8014   7.672   8.225   9.922  0.1180 -0.8003  1.2059
  819MOL0     C 8015   7.702   8.358   9.996 -0.1506  0.0275  0.0986
  819MOL0     C 8016   7.751   8.462   9.913 -0.6807  0.4790  0.0319
  819MOL0     C 8017   7.726   8.602   9.978 -0.1373  0.3263 -1.0510
  819MOL0     C 8018   7.580   8.640   9.982 -0.3380 -0.8394  1.6398
  819MOL0     C 8019   7.556   8.753  10.079 -0.2105 -0.5617 -0.0697
  819MOL0    Cl 8020   7.657   8.889  10.001  0.3302 -0.0140  0.2409
  819MOL0     C 8021   7.565   7.765   9.956  0.6612  0.2269 -0.3140
  819MOL0     C 8022   7.510   7.637   9.931 -0.2001  0.0356 -1.2842
  819MOL0     O 8023   7.337   7.488   9.709  0.2819  0.1884  0.0215
  819MOL0     C 8024   7.230   7.240   9.685  0.6616  0.8920 -0.3618
  819MOL0     C 8025   7.192   7.106   9.685  0.1960 -0.3685  0.2922
  819MOL0     N 8026   6.759   6.538   9.452  0.0191  0.6357 -0.4322
  819MOL0     N 8027   6.670   6.455   9.411  0.8453  0.4957  0.3358
  819MOL0     C 8028   6.581   6.224  10.632 -0.1368  0.2336 -0.7278
  819MOL0     C 8029   6.611   6.307  10.742 -0.1406 -0.2122  0.7305
  819MOL0     C 8030   6.925   6.529  10.998 -0.5565 -0.2667 -0.0001
  819MOL0     C 8031   6.817   6.545  11.085 -0.4331 -0.3984 -0.1589
  819MOL0     C 8032   6.824   6.619  11.205 -0.0845 -0.3235 -1.0417
  819MOL0     C 8033   6.942   6.694  11.234  0.8715 -0.6058 -0.4723
  819MOL0     O 8034   6.955   6.793  11.331  0.3546  0.1128 -0.0071
  819MOL0     C 8035   6.837   6.821  11.408 -0.0780 -1.1430  0.6284
  819MOL0     C 8036   6.874   6.917  11.524 -0.7549 -0.5300  0.2518
  819MOL0     C 8037   6.923   6.841  11.647  0.1314 -0.2877 -0.6137
  819MOL0     C 8038   6.981   6.927  11.764 -1.3104 -0.7982 -1.2081
  819MOL0     C 8039   6.891   7.029  11.809  0.7613  0.1364 -0.9687
  819MOL0     C 8040   6.823   7.123  11.853  0.3112  0.1284  0.2436
  819MOL0     C 8041   7.052   6.684  11.151 -0.3557 -0.7617  0.4149
  819MOL0     C 8042   7.043   6.603  11.035 -0.8018  0.0866 -0.1833
  819MOL0     H 8043   6.873   6.464  10.607 -1.7215  1.0314 -0.5850
  819MOL0     H 8044   6.804   6.331  10.407  0.7391  2.5238  1.0480
  819MOL0     H 8045   6.680   6.094  10.228  1.1086  1.1562 -1.3568
  819MOL0     H 8046   6.646   6.263  10.262  0.5288 -0.1004 -1.6753
  819MOL0     H 8047   6.425   6.243  10.197  0.2518  0.9949  1.4549
  819MOL0     H 8048   6.410   6.070  10.254  1.0532 -2.0012 -1.1504
  819MOL0     H 8049   6.540   5.987  10.063  2.1270  0.6130 -0.3101
  819MOL0     H 8050   6.585   6.133  10.008 -0.5393 -1.5352 -1.2450
  819MOL0     H 8051   6.346   6.007   9.909  0.8767  1.3740 -1.4469
  819MOL0     H 8052   6.294   6.112  10.049  0.4981 -3.3436  2.2962
  819MOL0     H 8053   6.379   6.288   9.919  0.6014 -0.8559  2.2233
  819MOL0     H 8054   6.261   6.187   9.829  0.7668 -0.7571 -0.1903
  819MOL0     H 8055   6.462   6.076   9.710 -1.7087 -0.2758  1.3094
  819MOL0     H 8056   6.571   6.194   9.783  0.1060 -1.1791  0.7349
  819MOL0     H 8057   6.333   6.260   9.611  0.0560 -1.2992 -1.1257
  819MOL0     H 8058   6.438   6.387   9.689 -1.2069 -0.1820 -0.7996
  819MOL0     H 8059   6.481   6.255   9.435 -1.9054 -3.7210  2.1689
  819MOL0     H 8060   6.586   6.177   9.541  1.3595  1.1810  0.8168
  819MOL0     H 8061   6.706   6.373   9.729 -0.9643 -0.9716 -0.4881
  819MOL0     H 8062   6.914   6.579   9.753 -0.8359 -0.9323  0.0719
  819MOL0     H 8063   6.855   6.710   9.653 -1.1910 -0.3739  2.3449
  819MOL0     H 8064   7.015   6.648   9.467 -1.8400 -1.9155 -0.6883
  819MOL0     H 8065   7.069   6.504   9.555 -0.2117 -0.2628 -2.7910
  819MOL0     H 8066   7.138   6.645   9.750  0.4168 -2.2807 -0.3112
  819MOL0     H 8067   7.230   6.667   9.590 -1.3430 -0.1890 -4.1721
  819MOL0     H 8068   7.021   6.853   9.693 -1.4942 -2.0816 -4.6604
  819MOL0     H 8069   7.118   6.870   9.557  2.2006  2.7644  0.6948
  819MOL0     H 8070   7.437   6.962   9.866  0.5560  1.4709  0.6038
  819MOL0     H 8071   7.518   7.185   9.872  0.2904 -0.0974 -2.8056
  819MOL0     H 8072   7.721   7.541   9.685  1.3425  0.8654  0.8390
  819MOL0     H 8073   7.792   7.756   9.705 -2.9507  0.6788 -2.3853
  819MOL0     H 8074   7.700   8.003   9.724 -0.3634  2.7888 -1.3612
  819MOL0     H 8075   7.863   7.955   9.772 -0.9963 -0.8067 -3.2387
  819MOL0     H 8076   7.834   8.205   9.771  0.6346  0.2754  0.5200
  819MOL0     H 8077   7.871   8.135   9.930 -1.1622 -3.1477  1.7202
  819MOL0     H 8078   7.617   8.169   9.998 -2.2080  1.1215  1.0669
  819MOL0     H 8079   7.599   8.249   9.844  0.7316 -0.0905  0.8323
  819MOL0     H 8080   7.609   8.382  10.047 -0.2460  2.0857 -0.9619
  819MOL0     H 8081   7.773   8.353  10.079  0.8655  3.8673 -0.3817
  819MOL0     H 8082   7.712   8.458   9.811 -0.1595 -0.4381 -0.1417
  819MOL0     H 8083   7.857   8.442   9.898 -1.1137 -0.1401 -2.8468
  819MOL0     H 8084   7.787   8.673   9.921  1.2936  1.1604  1.3749
  819MOL0     H 8085   7.765   8.604  10.080 -0.6302 -0.4364 -0.8411
  819MOL0     H 8086   7.553   8.660   9.878 -3.0457 -0.8716  2.2625
  819MOL0     H 8087   7.507   8.568  10.019 -1.8096 -0.5118 -0.4253
  819MOL0     H 8088   7.586   8.730  10.181  0.4160  0.2334 -0.0703
  819MOL0     H 8089   7.455   8.792  10.069  1.5823  4.4525 -1.4326
  819MOL0     H 8090   7.528   7.834  10.031 -5.0696  0.3461 -2.7249
  819MOL0     H 8091   7.417   7.617   9.983 -2.4396  3.6802 -3.4111
  819MOL0     H 8092   7.168   7.305   9.625  0.4625  0.6157 -0.4578
  819MOL0     H 8093   7.095   7.086   9.643  1.4412 -0.3459 -2.8339
  819MOL0     H 8094   6.503   6.148  10.634  1.8961 -1.9442  1.1011
  819MOL0     H 8095   6.550   6.318  10.831 -1.1033  0.2612  0.0324
  819MOL0     H 8096   6.727   6.494  11.053 -0.1925 -0.3613 -0.9080
  819MOL0     H 8097   6.733   6.626  11.264  1.0657 -0.8658  0.8614
  819MOL0     H 8098   6.802   6.730  11.456  0.7513 -1.7038  0.1996
  819MOL0     H 8099   6.751   6.862  11.355  0.3120  0.2168  1.0086
  819MOL0     H 8100   6.962   6.974  11.494 -0.9812  1.0390  2.3235
  819MOL0     H 8101   6.803   6.999  11.540  0.3276  0.7772 -1.3574
  819MOL0     H 8102   6.994   6.762  11.623 -1.2455 -1.6278 -0.4018
  819MOL0     H 8103   6.837   6.785  11.683  0.0519  1.3633  2.0728
  819MOL0     H 8104   7.015   6.881  11.857  0.8990  1.2850 -0.8792
  819MOL0     H 8105   7.070   6.975  11.723 -0.3515  1.5612  3.0871
  819MOL0     H 8106   6.758   7.207  11.873  0.7260  0.6992 -0.7390
  819MOL0     H 8107   7.138   6.738  11.190 -1.4281  2.4856 -1.2859
  819MOL0     H 8108   7.119   6.602  10.957 -1.6140 -0.6174 -0.9925
  820MOL0     O 8109  11.176   4.961   7.036 -0.7751  0.2365  0.3602
  820MOL0     C 8110  11.150   4.847   7.064 -0.3455  0.4530 -1.2096
  820MOL0     O 8111  11.027   4.805   7.121 -0.7791  0.8021 -0.0634
  820MOL0     C 8112  10.922   4.897   7.113  0.8599  0.8787 -0.3693
  820MOL0     C 8113  10.942   5.017   7.167 -0.0917 -0.6171  0.4807
  820MOL0     C 8114  10.825   5.096   7.203 -0.9821  0.3798 -0.2156
  820MOL0     C 8115  10.693   5.042   7.173 -0.4191  0.2140  1.0943
  820MOL0     O 8116  10.587   5.117   7.197  1.0843  0.5774 -1.1049
  820MOL0     C 8117  10.499   5.062   7.298  0.0312  0.0355  0.0029
  820MOL0     C 8118  10.533   5.102   7.449 -0.5926 -0.3104 -0.3541
  820MOL0     C 8119  10.525   5.257   7.472 -0.5198 -0.0615  0.9490
  820MOL0     C 8120  10.529   5.292   7.619  0.0540 -0.0160 -0.6735
  820MOL0     C 8121  10.515   5.437   7.653  0.5838  0.9135 -0.0470
  820MOL0     C 8122  10.646   5.521   7.633  0.3655 -0.4196  0.3256
  820MOL0     C 8123  10.617   5.665   7.658 -0.4560  0.0702 -0.2417
  820MOL0     C 8124  10.752   5.730   7.707  0.2478  0.4454 -1.0064
  820MOL0     N 8125  10.789   5.698   7.848  0.3414  0.3106 -0.3999
  820MOL0     C 8126  10.923   5.688   7.892  0.8424  0.6140  1.0218
  820MOL0     C 8127  10.912   5.648   8.028  0.1033 -0.0101 -0.0511
  820MOL0     C 8128  11.019   5.612   8.129 -0.0652 -1.6024  0.2685
  820MOL0     C 8129  11.023   5.698   8.250  0.0060  0.2578 -0.1078
  820MOL0     C 8130  11.035   5.844   8.217  0.0824  0.2407 -0.2324
  820MOL0     C 8131  10.970   5.941   8.322 -0.7215  0.4544  0.0463
  820MOL0     O 8132  11.008   5.897   8.460 -0.5341  0.2311  0.0040
  820MOL0     C 8133  11.138   5.898   8.504  0.6499  1.0756 -0.1144
  820MOL0     C 8134  11.165   5.835   8.628 -0.7014  0.3468 -0.1227
  820MOL0     C 8135  11.290   5.844   8.693 -0.6709  0.1922 -0.0324
  820MOL0     C 8136  11.403   5.902   8.627  0.2948 -0.6194 -0.1983
  820MOL0     C 8137  11.537   5.926   8.686  0.2796 -0.1219 -1.2565
  820MOL0     O 8138  11.636   5.965   8.604 -0.2601  0.2885 -1.3504
  820MOL0     C 8139  11.759   5.921   8.643 -0.0411  0.6528  1.1628
  820MOL0     C 8140  11.827   5.840   8.553 -0.1709 -0.2998  0.4655
  820MOL0     C 8141  11.965   5.811   8.570 -0.1930 -0.1251 -0.3974
  820MOL0     C 8142  12.035   5.870   8.680 -0.3556 -0.0625  0.6628
  820MOL0     O 8143  12.169   5.841   8.709  0.1403  0.5475 -0.2905
  820MOL0     C 8144  12.268   5.869   8.616  0.4766 -0.2847 -0.3879
  820MOL0     C 8145  12.407   5.824   8.677  1.7024  0.0457  0.6331
  820MOL0     C 8146  12.443   5.886   8.807 -0.5535 -0.1899  0.5039
  820MOL0     C 8147  12.411   6.036   8.820  0.3446 -0.0108  0.4013
  820MOL0     C 8148  12.492   6.123   8.729  0.2632  0.4290  0.1917
  820MOL0     C 8149  12.643   6.091   8.705  0.2903  0.9755  0.1403
  820MOL0     C 8150  12.698   6.151   8.574  0.0125  0.4337 -0.2071
  820MOL0     C 8151  12.822   6.246   8.599 -0.1462 -0.2212 -0.4839
  820MOL0    Cl 8152  12.773   6.396   8.671 -0.2602 -0.2852 -0.1559
  820MOL0     C 8153  11.963   5.942   8.777 -0.1500 -0.7065  0.4393
  820MOL0     C 8154  11.827   5.972   8.757  0.6261 -0.1203  0.2925
  820MOL0     O 8155  11.543   5.892   8.804  0.4125 -1.0214 -0.4063
  820MOL0     C 8156  11.378   5.964   8.505  0.6107  0.0388  0.0542
  820MOL0     C 8157  11.258   5.956   8.440  0.4030 -0.4925 -0.1829
  820MOL0     N 8158  10.768   5.637   8.050 -0.9354  0.5078 -0.6544
  820MOL0     N 8159  10.697   5.677   7.949 -0.1675  0.7293 -0.2344
  820MOL0     C 8160  10.686   4.920   7.098  0.3559  0.8783  0.1813
  820MOL0     C 8161  10.795   4.849   7.072 -0.7029  0.1517  0.3425
  820MOL0     C 8162  11.265   4.756   7.058  0.2371  0.7935 -0.9116
  820MOL0     C 8163  11.259   4.613   7.080  0.3517 -0.0624 -1.3467
  820MOL0     C 8164  11.373   4.528   7.085  1.2150  0.7052 -0.4922
  820MOL0     C 8165  11.503   4.587   7.080 -1.0380  0.7409 -0.1937
  820MOL0     O 8166  11.624   4.522   7.097  0.0211 -0.4711  0.6794
  820MOL0     C 8167  11.633   4.383   7.116  0.2543  0.4535  0.1673
  820MOL0     C 8168  11.612   4.302   6.985  0.6333  0.2165  0.7505
  820MOL0     C 8169  11.638   4.150   7.000  0.0624 -0.3373  0.8672
  820MOL0     C 8170  11.536   4.058   6.944  1.0592  0.0113  0.3120
  820MOL0     C 8171  11.410   4.075   7.020  0.4205 -1.0867  0.2107
  820MOL0     C 8172  11.302   4.093   7.074 -0.9975 -0.7344  0.4075
  820MOL0     C 8173  11.508   4.726   7.060 -0.8193 -0.9085 -0.3436
  820MOL0     C 8174  11.393   4.805   7.049 -0.3626 -0.1511  0.0823
  820MOL0     H 8175  11.039   5.037   7.213  2.5337  1.0201 -4.9814
  820MOL0     H 8176  10.848   5.187   7.257 -0.7080 -0.5735  1.3477
  820MOL0     H 8177  10.496   4.953   7.295  0.1649  0.0074  0.7694
  820MOL0     H 8178  10.396   5.098   7.283  0.4324  0.5297 -1.7370
  820MOL0     H 8179  10.638   5.075   7.469 -1.2796 -2.5486  0.5619
  820MOL0     H 8180  10.468   5.050   7.520  0.9343 -1.0195  0.5898
  820MOL0     H 8181  10.443   5.301   7.414  1.3359 -0.3030 -2.0489
  820MOL0     H 8182  10.603   5.316   7.423 -0.3372  0.2986  1.6594
  820MOL0     H 8183  10.440   5.246   7.663 -0.9090  0.5273 -2.0000
  820MOL0     H 8184  10.622   5.259   7.667  0.0003  1.9698  0.9080
  820MOL0     H 8185  10.481   5.443   7.757 -0.8020 -2.8331 -0.1171
  820MOL0     H 8186  10.436   5.488   7.598  1.6767  0.3375 -2.2459
  820MOL0     H 8187  10.686   5.509   7.532  1.0025  0.8837  0.4107
  820MOL0     H 8188  10.717   5.479   7.705  0.9653 -0.2775 -0.1790
  820MOL0     H 8189  10.577   5.715   7.569  4.0118  1.4010 -1.7825
  820MOL0     H 8190  10.543   5.676   7.738 -1.3661 -1.4090 -0.8356
  820MOL0     H 8191  10.741   5.838   7.688 -1.7201  0.0552 -2.4882
  820MOL0     H 8192  10.838   5.702   7.646  0.6458  2.6599 -1.5433
  820MOL0     H 8193  11.020   5.683   7.843  0.1300 -0.6239 -0.3466
  820MOL0     H 8194  11.118   5.625   8.083 -0.1797  2.2160  0.7854
  820MOL0     H 8195  11.015   5.510   8.169  2.3988 -1.4939  0.9412
  820MOL0     H 8196  11.098   5.654   8.316 -0.2505 -0.0999 -0.0495
  820MOL0     H 8197  10.936   5.676   8.311  1.4306 -2.7328  1.0632
  820MOL0     H 8198  11.139   5.864   8.189 -0.3311 -0.3965 -2.3965
  820MOL0     H 8199  10.975   5.867   8.128  0.2341  0.5904 -0.2489
  820MOL0     H 8200  10.862   5.929   8.318 -0.6819 -0.2547  0.7599
  820MOL0     H 8201  11.001   6.044   8.303 -2.0427  0.8584  0.0104
  820MOL0     H 8202  11.083   5.788   8.681  0.2690 -4.5990 -2.3719
  820MOL0     H 8203  11.315   5.790   8.784  2.1610  2.8552  0.9191
  820MOL0     H 8204  11.782   5.792   8.467 -1.1604 -1.7783  1.7356
  820MOL0     H 8205  12.023   5.754   8.499 -0.1391  1.6259 -1.8369
  820MOL0     H 8206  12.273   5.976   8.597  0.4677 -0.2150  0.0001
  820MOL0     H 8207  12.249   5.829   8.516  2.4241  0.8930 -1.2912
  820MOL0     H 8208  12.490   5.861   8.616  3.1248 -1.6883  1.4551
  820MOL0     H 8209  12.412   5.715   8.682  0.4967 -0.3766 -3.2860
  820MOL0     H 8210  12.547   5.876   8.841 -0.5968 -2.2370  0.1743
  820MOL0     H 8211  12.370   5.838   8.872 -1.6665  0.2250 -0.4124
  820MOL0     H 8212  12.306   6.065   8.826  0.2904 -0.4497  3.3107
  820MOL0     H 8213  12.449   6.071   8.917 -1.7266  2.1863  0.5096
  820MOL0     H 8214  12.478   6.227   8.760 -0.6746  0.1552  0.7059
  820MOL0     H 8215  12.452   6.120   8.627 -0.7549 -1.8855  0.6069
  820MOL0     H 8216  12.667   5.985   8.694 -1.0739  0.5539  1.0837
  820MOL0     H 8217  12.692   6.121   8.798 -1.8349 -2.6625  2.6990
  820MOL0     H 8218  12.721   6.067   8.508  1.9828  0.8181 -0.0707
  820MOL0     H 8219  12.614   6.213   8.541 -0.3611  1.2826  2.1668
  820MOL0     H 8220  12.864   6.270   8.500  0.6780  2.3690  0.4138
  820MOL0     H 8221  12.898   6.200   8.662 -1.7401 -1.5705  0.5525
  820MOL0     H 8222  12.018   5.990   8.858 -0.4065  1.2244 -0.4611
  820MOL0     H 8223  11.772   6.044   8.816 -0.6523  0.0352 -1.0261
  820MOL0     H 8224  11.462   6.012   8.456  0.2915  0.2464 -0.2844
  820MOL0     H 8225  11.255   5.997   8.340 -2.1540  2.8241  1.0730
  820MOL0     H 8226  10.587   4.884   7.072  1.3154  0.0708 -2.8084
  820MOL0     H 8227  10.793   4.748   7.035 -1.0305  0.0124  0.7251
  820MOL0     H 8228  11.164   4.562   7.092  0.5419  0.0203  0.7632
  820MOL0     H 8229  11.360   4.420   7.086 -0.0177  0.8392 -0.3849
  820MOL0     H 8230  11.552   4.362   7.186 -0.1041 -0.3158 -0.4536
  820MOL0     H 8231  11.726   4.347   7.161 -0.9589  0.3544  2.8063
  820MOL0     H 8232  11.506   4.314   6.961  0.4345 -0.4863  1.2205
  820MOL0     H 8233  11.667   4.336   6.897 -2.7312  1.1256 -1.1888
  820MOL0     H 8234  11.648   4.129   7.107 -0.2371 -2.6803  0.4660
  820MOL0     H 8235  11.732   4.123   6.950  0.1594 -1.1357  1.4682
  820MOL0     H 8236  11.521   4.074   6.837  1.6396 -0.9850  0.0695
  820MOL0     H 8237  11.577   3.958   6.961  3.2476  1.2286  2.8271
  820MOL0     H 8238  11.205   4.113   7.114  0.4096  0.6385  3.4036
  820MOL0     H 8239  11.607   4.770   7.056 -2.8699  4.5603 -0.3922
  820MOL0     H 8240  11.418   4.903   7.008  4.0842 -0.6559  1.0360
  821MOL0     O 8241  10.690   1.828   3.182 -0.4020  0.2851  0.2131
  821MOL0     C 8242  10.642   1.804   3.070 -0.5504  0.2084  0.1122
  821MOL0     O 8243  10.706   1.837   2.948  0.1624  0.1624 -0.8396
  821MOL0     C 8244  10.823   1.904   2.952 -0.0787 -0.0333  0.2715
  821MOL0     C 8245  10.952   1.846   2.965 -1.0609 -0.1321  0.3596
  821MOL0     C 8246  11.062   1.932   2.994 -0.6008  0.6684 -0.0577
  821MOL0     C 8247  11.049   2.067   2.970  0.0436 -0.0574  0.2975
  821MOL0     O 8248  11.169   2.137   2.969  0.2172 -0.5687 -0.1994
  821MOL0     C 8249  11.180   2.266   3.043 -0.1446 -0.0111 -1.1093
  821MOL0     C 8250  11.327   2.281   3.095 -0.1317 -0.1273  0.1737
  821MOL0     C 8251  11.362   2.170   3.201  0.3078 -0.3237 -0.7812
  821MOL0     C 8252  11.516   2.163   3.217  0.3274  0.0452 -0.0720
  821MOL0     C 8253  11.552   2.091   3.345  0.0271 -0.8117  0.4181
  821MOL0     C 8254  11.690   2.121   3.395 -0.4037  0.5138  0.4463
  821MOL0     C 8255  11.797   2.030   3.332  0.6383  0.4117 -0.0153
  821MOL0     C 8256  11.919   2.119   3.290 -0.7514  0.4839  0.1124
  821MOL0     N 8257  12.006   2.046   3.194 -0.0058 -0.1960 -0.1377
  821MOL0     C 8258  12.049   1.913   3.208 -0.1145  0.2143 -0.3183
  821MOL0     C 8259  12.119   1.882   3.101 -0.7954 -0.0178  0.4023
  821MOL0     C 8260  12.195   1.751   3.091  0.8373 -0.7251  0.1303
  821MOL0     C 8261  12.299   1.741   2.978  0.3219  0.1923 -0.8041
  821MOL0     C 8262  12.434   1.805   3.012  0.0469  0.1691  0.2321
  821MOL0     C 8263  12.539   1.689   3.014 -0.0534 -0.4738  0.4714
  821MOL0     O 8264  12.665   1.756   3.033  0.2599 -0.9184  0.2071
  821MOL0     C 8265  12.773   1.685   3.006 -0.5373 -0.1341  0.2225
  821MOL0     C 8266  12.789   1.542   3.022  1.0593 -0.0459  0.3877
  821MOL0     C 8267  12.907   1.487   3.003 -0.1569 -0.4116  0.1561
  821MOL0     C 8268  13.020   1.563   2.977 -0.0918  0.3254 -0.9229
  821MOL0     C 8269  13.148   1.505   2.968  0.0524 -0.3125 -0.1686
  821MOL0     O 8270  13.158   1.378   3.003 -0.1121  0.0306 -0.0019
  821MOL0     C 8271  13.292   1.340   3.013 -0.1219  0.7971 -0.0564
  821MOL0     C 8272  13.329   1.244   2.925 -0.0347  0.1267 -0.2902
  821MOL0     C 8273  13.463   1.209   2.909 -0.6940 -0.0551  0.1422
  821MOL0     C 8274  13.554   1.268   2.993 -0.5327 -0.2622 -1.3678
  821MOL0     O 8275  13.692   1.249   2.982  0.4784 -0.5612 -0.5199
  821MOL0     C 8276  13.755   1.157   2.889 -0.4060 -0.4455  0.6337
  821MOL0     C 8277  13.897   1.204   2.862  0.3686 -0.8862 -0.4924
  821MOL0     C 8278  13.948   1.117   2.749 -1.2488 -0.7044  0.0145
  821MOL0     C 8279  13.996   0.977   2.795 -0.9364 -0.8855 -1.0577
  821MOL0     C 8280  14.041   0.908   2.659  0.9582 -0.5566 -0.3347
  821MOL0     C 8281  14.127   0.783   2.675  0.1870  0.1606 -0.6681
  821MOL0     C 8282  14.190   0.738   2.541  0.5454 -0.0129  0.1902
  821MOL0     C 8283  14.248   0.598   2.570 -0.7822  0.0366  0.2417
  821MOL0    Cl 8284  14.402   0.599   2.653  0.0062  0.0886 -0.0349
  821MOL0     C 8285  13.512   1.350   3.104 -0.5482 -0.0816  0.5901
  821MOL0     C 8286  13.378   1.390   3.114 -0.4066 -0.4065  0.5356
  821MOL0     O 8287  13.240   1.583   2.935 -0.2726 -0.8568  0.6996
  821MOL0     C 8288  13.011   1.703   2.976 -0.1086  0.2253 -0.4737
  821MOL0     C 8289  12.881   1.761   2.980 -0.6725  0.3120 -1.3147
  821MOL0     N 8290  12.111   1.990   3.010  0.1495 -0.0568  0.3983
  821MOL0     N 8291  12.047   2.086   3.066  0.2006 -0.0713  0.1201
  821MOL0     C 8292  10.926   2.125   2.950 -0.0258 -0.0380 -0.2736
  821MOL0     C 8293  10.815   2.044   2.945  0.5724 -0.9699 -1.0102
  821MOL0     C 8294  10.495   1.761   3.058  0.5111 -0.8500 -0.2519
  821MOL0     C 8295  10.438   1.727   2.939  0.8915 -0.4408  0.1210
  821MOL0     C 8296  10.325   1.644   2.947 -0.4260  1.1285 -0.5943
  821MOL0     C 8297  10.259   1.610   3.074  0.3198 -0.4107  0.1803
  821MOL0     O 8298  10.166   1.512   3.066 -0.1765 -0.1337  0.1730
  821MOL0     C 8299  10.126   1.445   3.179 -0.3115  0.2982  0.1130
  821MOL0     C 8300  10.018   1.348   3.158  0.9380  0.4074  0.3498
  821MOL0     C 8301   9.903   1.396   3.238  0.4619  0.4309 -0.0228
  821MOL0     C 8302   9.764   1.332   3.192  0.0348  0.8940 -0.1094
  821MOL0     C 8303   9.766   1.187   3.183 -0.7344  1.3880  0.3506
  821MOL0     C 8304   9.756   1.066   3.185  0.3504  0.8713  0.5576
  821MOL0     C 8305  10.306   1.681   3.190  0.1906  1.2092 -0.3635
  821MOL0     C 8306  10.418   1.759   3.180 -0.2017 -0.8713 -0.4402
  821MOL0     H 8307  10.959   1.739   2.979 -0.7935 -0.3494 -1.2085
  821MOL0     H 8308  11.145   1.866   3.015 -2.7584 -3.0244 -2.1134
  821MOL0     H 8309  11.093   2.279   3.107 -0.4557  1.4943 -1.8073
  821MOL0     H 8310  11.187   2.355   2.980 -0.4801  0.4830 -0.4549
  821MOL0     H 8311  11.337   2.378   3.144 -4.0006  1.1163 -1.1666
  821MOL0     H 8312  11.394   2.284   3.009  1.8991 -1.3412  1.6212
  821MOL0     H 8313  11.342   2.066   3.172  1.5724 -1.1989  1.1837
  821MOL0     H 8314  11.304   2.190   3.292 -1.8206 -0.3536 -2.0887
  821MOL0     H 8315  11.573   2.111   3.140 -2.4934 -4.5643  0.5255
  821MOL0     H 8316  11.536   2.269   3.230  0.6695 -0.0692  0.3512
  821MOL0     H 8317  11.530   1.984   3.344 -1.5123 -0.5207 -0.7628
  821MOL0     H 8318  11.495   2.135   3.428 -0.3409 -2.8130  1.2821
  821MOL0     H 8319  11.692   2.113   3.504 -2.8106 -0.5824  0.4697
  821MOL0     H 8320  11.713   2.227   3.381  2.8255 -0.1749 -0.3136
  821MOL0     H 8321  11.824   1.958   3.410  0.5453  1.0014  0.5700
  821MOL0     H 8322  11.749   1.973   3.252 -0.7371  1.4684  0.0198
  821MOL0     H 8323  11.977   2.136   3.381 -1.4512 -2.3364  1.1906
  821MOL0     H 8324  11.882   2.215   3.255 -2.1827  0.3364  1.1774
  821MOL0     H 8325  12.019   1.844   3.285 -1.7541  0.3331 -0.8084
  821MOL0     H 8326  12.119   1.673   3.087  1.2870 -1.2145  0.8759
  821MOL0     H 8327  12.245   1.734   3.187 -1.0523 -1.2041  1.0908
  821MOL0     H 8328  12.256   1.777   2.884 -2.7779  0.2336  0.5118
  821MOL0     H 8329  12.318   1.636   2.954 -1.2447 -1.1267  2.9042
  821MOL0     H 8330  12.456   1.880   2.936  1.4909  0.0601  0.5175
  821MOL0     H 8331  12.427   1.861   3.106  0.0200  1.5915 -0.6045
  821MOL0     H 8332  12.553   1.642   2.917  4.4415  1.3563 -0.0507
  821MOL0     H 8333  12.515   1.619   3.095 -3.9126  0.1136  0.0272
  821MOL0     H 8334  12.699   1.483   3.042  2.2037 -2.1688 -0.4498
  821MOL0     H 8335  12.908   1.378   2.999  1.2180 -0.3876 -1.0718
  821MOL0     H 8336  13.254   1.205   2.858  0.1995 -3.1724  1.1898
  821MOL0     H 8337  13.491   1.137   2.833  3.1612  0.5444  0.7935
  821MOL0     H 8338  13.707   1.173   2.792  0.2966  0.3218  0.3963
  821MOL0     H 8339  13.750   1.052   2.919  1.0357  0.1557  3.3326
  821MOL0     H 8340  13.957   1.214   2.952  1.7922  0.4979 -1.5274
  821MOL0     H 8341  13.877   1.303   2.820 -3.6123 -1.6832 -0.8640
  821MOL0     H 8342  14.036   1.165   2.706 -0.8936 -0.7307  0.6991
  821MOL0     H 8343  13.879   1.122   2.664  0.9411  3.8324 -1.8685
  821MOL0     H 8344  14.075   0.989   2.869 -0.4449 -2.2530 -1.3467
  821MOL0     H 8345  13.925   0.910   2.844 -0.6415 -0.1075  0.5136
  821MOL0     H 8346  14.081   0.973   2.581 -0.2218  0.1993 -0.3462
  821MOL0     H 8347  13.944   0.875   2.619  0.6452 -0.0895  0.0220
  821MOL0     H 8348  14.073   0.696   2.712  1.6906 -0.4627  0.1496
  821MOL0     H 8349  14.212   0.791   2.743  1.2572 -3.9056 -1.2540
  821MOL0     H 8350  14.118   0.727   2.460 -1.2782 -0.9228  1.8467
  821MOL0     H 8351  14.276   0.800   2.515  2.5698 -2.3580  0.8877
  821MOL0     H 8352  14.272   0.551   2.474 -2.0159 -1.9927  0.8704
  821MOL0     H 8353  14.186   0.533   2.632 -0.1439 -0.1020  0.7398
  821MOL0     H 8354  13.586   1.405   3.161 -0.9301  0.4136  0.6175
  821MOL0     H 8355  13.350   1.473   3.178 -1.0010 -2.5552  3.2707
  821MOL0     H 8356  13.096   1.767   2.952  0.4805  0.4411  2.0093
  821MOL0     H 8357  12.850   1.864   2.966 -3.8513  0.1379  2.7631
  821MOL0     H 8358  10.940   2.231   2.932  1.5258 -0.4079 -1.4987
  821MOL0     H 8359  10.724   2.099   2.924  1.6528  1.3863  0.0772
  821MOL0     H 8360  10.478   1.744   2.840  2.3694  4.1626  1.2757
  821MOL0     H 8361  10.293   1.601   2.852  1.6602  0.5606 -1.0871
  821MOL0     H 8362  10.093   1.518   3.254 -1.4254 -0.9818  0.9064
  821MOL0     H 8363  10.214   1.387   3.205  0.3146  0.3212 -1.8113
  821MOL0     H 8364   9.981   1.343   3.055  0.0248 -2.2197  0.7132
  821MOL0     H 8365  10.052   1.246   3.181 -2.8708 -1.0985 -0.0359
  821MOL0     H 8366   9.884   1.504   3.245 -3.7101 -0.1642  0.6522
  821MOL0     H 8367   9.912   1.385   3.347 -1.4480  0.2740  0.1555
  821MOL0     H 8368   9.681   1.361   3.256 -1.4780 -2.4480 -0.3647
  821MOL0     H 8369   9.739   1.369   3.092  2.4327  3.6226  0.1777
  821MOL0     H 8370   9.747   0.961   3.166  0.9628  0.8329  0.4726
  821MOL0     H 8371  10.262   1.663   3.287  0.4711 -0.1713 -0.4793
  821MOL0     H 8372  10.459   1.790   3.276 -1.7786  3.2510 -0.9398
  822MOL0     O 8373   9.143   2.279   8.094  0.3730 -0.1414  0.0031
  822MOL0     C 8374   9.208   2.253   8.194  0.1944  1.0016  0.6429
  822MOL0     O 8375   9.256   2.129   8.223 -1.0682  0.0399 -0.4134
  822MOL0     C 8376   9.254   2.019   8.135 -0.0953  0.8165 -0.1829
  822MOL0     C 8377   9.373   1.934   8.131 -0.1874  0.1074 -0.5229
  822MOL0     C 8378   9.372   1.813   8.059 -0.6141  0.7686  0.5909
  822MOL0     C 8379   9.251   1.773   7.989 -0.0885  0.8201 -0.2514
  822MOL0     O 8380   9.268   1.650   7.928  0.3582  0.1673  0.1887
  822MOL0     C 8381   9.155   1.602   7.863  0.6967 -0.3545 -0.3265
  822MOL0     C 8382   9.178   1.468   7.814  0.3319  0.4559 -0.5314
  822MOL0     C 8383   9.244   1.380   7.922 -0.2878 -0.4828 -0.5665
  822MOL0     C 8384   9.179   1.375   8.059 -0.2190  0.4042 -0.5844
  822MOL0     C 8385   9.236   1.256   8.144 -0.2174  1.0911  0.0122
  822MOL0     C 8386   9.380   1.263   8.184 -0.5950  0.0056  0.8327
  822MOL0     C 8387   9.402   1.377   8.298  0.0761  0.2204 -0.3661
  822MOL0     C 8388   9.540   1.449   8.274  0.1411  0.3076 -0.2693
  822MOL0     N 8389   9.651   1.357   8.327  0.0009  0.3317 -0.1844
  822MOL0     C 8390   9.671   1.229   8.302  0.1764 -0.4952  0.0710
  822MOL0     C 8391   9.757   1.189   8.394  0.4880  0.2269 -0.1955
  822MOL0     C 8392   9.819   1.050   8.420  0.4572 -0.2758 -0.8664
  822MOL0     C 8393   9.909   0.997   8.304 -0.0759  0.9883 -0.1706
  822MOL0     C 8394  10.049   1.047   8.310 -0.0539  0.1157 -0.7288
  822MOL0     C 8395  10.138   1.023   8.185 -0.4338 -0.0197  0.5302
  822MOL0     O 8396  10.267   1.074   8.204 -0.1117 -0.6166  0.2073
  822MOL0     C 8397  10.378   1.081   8.123 -0.2119  0.3168 -0.1780
  822MOL0     C 8398  10.388   1.038   7.991  0.1322 -0.6158 -0.7974
  822MOL0     C 8399  10.503   1.054   7.917  0.5482  0.6194 -0.1308
  822MOL0     C 8400  10.622   1.111   7.978  0.0004  0.6455 -0.5987
  822MOL0     C 8401  10.744   1.129   7.896 -0.0973  0.4017  0.0130
  822MOL0     O 8402  10.832   1.226   7.947 -0.3056 -0.4644  0.6035
  822MOL0     C 8403  10.925   1.271   7.858 -0.2717  0.2554 -1.0601
  822MOL0     C 8404  11.040   1.201   7.836  0.5821 -0.2474  0.5852
  822MOL0     C 8405  11.149   1.261   7.768 -0.3444 -0.0962 -0.0883
  822MOL0     C 8406  11.135   1.390   7.705 -0.2559 -0.5691  0.4532
  822MOL0     O 8407  11.246   1.420   7.634 -0.3894 -0.0836 -0.4366
  822MOL0     C 8408  11.243   1.544   7.562  0.5800  1.1302 -0.5064
  822MOL0     C 8409  11.375   1.571   7.484  0.6973  0.0196  0.1229
  822MOL0     C 8410  11.344   1.676   7.378  0.2186 -0.0823  0.6035
  822MOL0     C 8411  11.265   1.793   7.413 -0.7234 -0.5595 -0.0393
  822MOL0     C 8412  11.318   1.867   7.539 -0.5213 -0.1074  0.2550
  822MOL0     C 8413  11.461   1.920   7.519  0.3542 -0.4435 -0.3890
  822MOL0     C 8414  11.502   2.056   7.589  0.0286  0.0399  0.3912
  822MOL0     C 8415  11.550   2.028   7.725 -0.3272  0.5759 -0.8035
  822MOL0    Cl 8416  11.418   1.991   7.829  0.5607  0.2230  0.3225
  822MOL0     C 8417  11.013   1.451   7.716 -0.2655 -0.5246  0.4227
  822MOL0     C 8418  10.909   1.391   7.790  0.2978 -0.4058 -0.2712
  822MOL0     O 8419  10.750   1.062   7.793  0.3265  0.1006 -0.1894
  822MOL0     C 8420  10.616   1.149   8.111 -0.2880  0.4185  0.1417
  822MOL0     C 8421  10.493   1.136   8.176 -0.1262  1.1173  0.1869
  822MOL0     N 8422   9.777   1.289   8.490  0.5424  0.3726  0.1653
  822MOL0     N 8423   9.710   1.386   8.451  1.1449  0.1682 -0.2584
  822MOL0     C 8424   9.141   1.855   7.984 -0.0354 -0.1241 -0.5160
  822MOL0     C 8425   9.143   1.973   8.058  0.1182  0.1080  0.7170
  822MOL0     C 8426   9.246   2.362   8.283  1.0457 -0.0609 -0.7500
  822MOL0     C 8427   9.191   2.491   8.267 -0.5932 -0.3972 -0.2906
  822MOL0     C 8428   9.204   2.591   8.369  0.0947  1.2782 -0.4637
  822MOL0     C 8429   9.275   2.570   8.481  0.1452 -0.5784 -0.9085
  822MOL0     O 8430   9.280   2.659   8.584  0.2760  0.4198  0.1412
  822MOL0     C 8431   9.295   2.797   8.553 -0.2121 -0.0603  0.0977
  822MOL0     C 8432   9.371   2.875   8.664 -0.7763  1.0339 -0.7882
  822MOL0     C 8433   9.334   3.024   8.678  0.0895 -0.0911 -0.1304
  822MOL0     C 8434   9.392   3.112   8.560  0.1074  0.6862  0.6209
  822MOL0     C 8435   9.542   3.119   8.560  0.7774  0.5387 -0.4989
  822MOL0     C 8436   9.665   3.111   8.559  0.9458  0.3166 -0.9075
  822MOL0     C 8437   9.338   2.441   8.493  0.3279 -0.4580 -0.4794
  822MOL0     C 8438   9.326   2.344   8.394 -0.2021  0.4917  0.3920
  822MOL0     H 8439   9.466   1.969   8.176  0.6229 -3.5821  1.0239
  822MOL0     H 8440   9.462   1.752   8.058 -1.3648 -0.3857 -0.7985
  822MOL0     H 8441   9.120   1.651   7.772 -1.1337 -3.3298 -1.3994
  822MOL0     H 8442   9.070   1.611   7.931 -0.0580  1.5700 -1.4496
  822MOL0     H 8443   9.240   1.470   7.724  0.9577  0.2668 -0.1173
  822MOL0     H 8444   9.084   1.419   7.786  0.2606  0.8734 -1.0385
  822MOL0     H 8445   9.348   1.410   7.941  0.1416 -1.5590 -1.1496
  822MOL0     H 8446   9.250   1.276   7.888  0.2705 -0.6980  0.1526
  822MOL0     H 8447   9.201   1.474   8.100  0.5671  0.7033 -1.6899
  822MOL0     H 8448   9.072   1.355   8.044  0.1666 -1.5727 -0.9249
  822MOL0     H 8449   9.216   1.165   8.087  1.4293  0.2586  0.7097
  822MOL0     H 8450   9.180   1.254   8.238 -3.3074 -0.8619 -1.7068
  822MOL0     H 8451   9.440   1.293   8.097 -0.5783  0.5952  1.0401
  822MOL0     H 8452   9.422   1.167   8.215 -0.6146 -0.3297 -0.1631
  822MOL0     H 8453   9.318   1.447   8.294 -0.5436 -0.2924  2.0044
  822MOL0     H 8454   9.416   1.327   8.395  0.4855  0.8286 -0.1073
  822MOL0     H 8455   9.544   1.548   8.322 -1.8054  0.3042 -0.0394
  822MOL0     H 8456   9.569   1.479   8.173  2.3735 -0.7971 -0.0143
  822MOL0     H 8457   9.635   1.167   8.220 -4.1068  0.9477  0.6004
  822MOL0     H 8458   9.739   0.980   8.446 -0.4616  0.8249 -0.6705
  822MOL0     H 8459   9.877   1.062   8.511 -1.5054 -0.6063  0.4844
  822MOL0     H 8460   9.869   1.016   8.205 -2.2380 -1.4163  0.1353
  822MOL0     H 8461   9.906   0.889   8.322 -0.8335  1.0049 -0.1794
  822MOL0     H 8462  10.045   1.152   8.342 -0.2716 -0.2801  0.5748
  822MOL0     H 8463  10.109   0.995   8.386  3.1843 -0.1110 -3.2007
  822MOL0     H 8464  10.087   1.077   8.105 -0.2493  4.0267  2.8725
  822MOL0     H 8465  10.141   0.916   8.163  2.9158  0.1380 -0.3958
  822MOL0     H 8466  10.293   1.006   7.949 -0.0770 -2.7607  1.0810
  822MOL0     H 8467  10.486   1.020   7.815 -0.9343  1.4939 -0.2080
  822MOL0     H 8468  11.054   1.107   7.890  1.1833  0.0488  0.9459
  822MOL0     H 8469  11.245   1.209   7.763  0.0824  0.4950  1.3200
  822MOL0     H 8470  11.219   1.622   7.634 -1.0059  2.2698 -2.1680
  822MOL0     H 8471  11.161   1.539   7.489 -0.1692  0.3342  0.3536
  822MOL0     H 8472  11.415   1.483   7.433 -1.9053 -0.5024 -1.1884
  822MOL0     H 8473  11.456   1.600   7.551  4.5742 -1.9926 -3.2203
  822MOL0     H 8474  11.291   1.629   7.295 -1.4040  0.6076  1.2091
  822MOL0     H 8475  11.442   1.711   7.343 -0.1904  2.6705  1.9582
  822MOL0     H 8476  11.272   1.854   7.322  1.3188  0.1118  0.5144
  822MOL0     H 8477  11.160   1.766   7.417 -0.5395 -1.1499  3.0726
  822MOL0     H 8478  11.312   1.803   7.627 -1.5903  0.8080  0.8633
  822MOL0     H 8479  11.252   1.954   7.547 -0.1719  0.0800  1.1212
  822MOL0     H 8480  11.465   1.940   7.411  3.1380  1.4511 -0.0331
  822MOL0     H 8481  11.537   1.847   7.549 -1.9104 -2.5827  0.4942
  822MOL0     H 8482  11.586   2.099   7.533  1.4203 -0.8580  1.6908
  822MOL0     H 8483  11.421   2.129   7.593 -0.5684 -0.6355  0.8289
  822MOL0     H 8484  11.612   2.113   7.755  2.4153 -0.4278 -3.0834
  822MOL0     H 8485  11.623   1.946   7.719 -2.6723 -1.7344  0.3044
  822MOL0     H 8486  11.007   1.545   7.662 -3.5582 -1.2205 -0.6506
  822MOL0     H 8487  10.816   1.445   7.804 -0.4393 -2.1917  2.4225
  822MOL0     H 8488  10.683   1.211   8.169 -4.0632  2.9998  2.1942
  822MOL0     H 8489  10.494   1.176   8.277 -2.3012  1.8526 -0.0244
  822MOL0     H 8490   9.051   1.838   7.925 -1.7755 -2.9841  2.6055
  822MOL0     H 8491   9.056   2.036   8.046  1.1238  1.4901  0.3401
  822MOL0     H 8492   9.129   2.512   8.181 -2.1869 -1.6891  0.5029
  822MOL0     H 8493   9.153   2.684   8.347  0.2246  1.0011 -2.0482
  822MOL0     H 8494   9.195   2.840   8.540 -1.4911 -1.9069  2.8217
  822MOL0     H 8495   9.344   2.819   8.458 -1.3716  0.8502 -0.3050
  822MOL0     H 8496   9.345   2.832   8.761  1.9670  1.7919  0.3665
  822MOL0     H 8497   9.478   2.864   8.644 -1.0335  0.3541 -1.8939
  822MOL0     H 8498   9.370   3.063   8.774  1.1846  1.5861 -1.1602
  822MOL0     H 8499   9.225   3.034   8.673 -0.2199 -2.0669  1.4523
  822MOL0     H 8500   9.346   3.085   8.465 -2.3142  2.5154  1.1660
  822MOL0     H 8501   9.364   3.218   8.566  0.9910  0.9236  0.7414
  822MOL0     H 8502   9.771   3.110   8.543  0.6392  1.0852 -3.3844
  822MOL0     H 8503   9.396   2.424   8.583 -0.8283 -0.6689  0.2578
  822MOL0     H 8504   9.383   2.252   8.402 -1.2966 -0.3246 -0.8389
  823MOL0     O 8505   8.130   0.901   9.031 -0.4954  0.1404  0.1925
  823MOL0     C 8506   8.095   0.815   9.119  0.2674 -0.6485  0.2487
  823MOL0     O 8507   8.045   0.844   9.237  0.1478  0.1052  0.1482
  823MOL0     C 8508   8.134   0.879   9.331 -0.1536  0.4895  0.4191
  823MOL0     C 8509   8.258   0.826   9.366  0.1361  0.0566  0.2384
  823MOL0     C 8510   8.341   0.870   9.476  0.1569 -0.6845  0.4728
  823MOL0     C 8511   8.282   0.966   9.555 -0.6012  0.3384  0.3441
  823MOL0     O 8512   8.355   1.024   9.658 -0.0189  0.0095  0.4874
  823MOL0     C 8513   8.393   0.926   9.764 -0.5108  0.6991  0.5565
  823MOL0     C 8514   8.273   0.898   9.859 -0.1405  0.5240 -0.1206
  823MOL0     C 8515   8.215   1.024   9.927  0.0217  0.4581 -0.3164
  823MOL0     C 8516   8.087   1.012  10.018  0.7145  0.1321  0.2940
  823MOL0     C 8517   7.978   0.925   9.942  0.7408 -0.0424 -0.0124
  823MOL0     C 8518   7.908   0.993   9.833 -1.8571 -0.1620  0.3160
  823MOL0     C 8519   7.830   0.903   9.737 -0.2310 -0.2823 -0.1193
  823MOL0     C 8520   7.790   0.985   9.611  0.2983 -0.4916 -0.8926
  823MOL0     N 8521   7.706   0.899   9.529 -0.3144  0.4134 -0.1005
  823MOL0     C 8522   7.748   0.791   9.456  0.0580  0.2973 -0.4205
  823MOL0     C 8523   7.633   0.758   9.387 -0.4050  0.2129  0.1311
  823MOL0     C 8524   7.633   0.669   9.265  0.1500 -0.4075 -0.2362
  823MOL0     C 8525   7.506   0.584   9.263 -0.7301 -0.1043 -0.4849
  823MOL0     C 8526   7.463   0.520   9.129  0.9547  1.0972 -0.6804
  823MOL0     C 8527   7.327   0.456   9.146  0.2809  0.5257  0.0702
  823MOL0     O 8528   7.288   0.435   9.009 -0.3292 -0.0279 -0.4770
  823MOL0     C 8529   7.182   0.352   8.992  0.3225 -0.0264  0.1300
  823MOL0     C 8530   7.152   0.312   8.857 -0.0411  0.1366  0.0781
  823MOL0     C 8531   7.054   0.219   8.826  0.4107  0.0608  0.7536
  823MOL0     C 8532   6.959   0.182   8.924 -0.8640 -0.3022 -0.2067
  823MOL0     C 8533   6.846   0.088   8.893 -0.2315  0.2948 -0.2192
  823MOL0     O 8534   6.739   0.094   8.980 -0.8090 -0.3591 -1.0487
  823MOL0     C 8535   6.631   0.025   8.940 -0.7144 -0.7477 -0.1402
  823MOL0     C 8536   6.520   0.090   8.891  0.2408  0.1393  0.2429
  823MOL0     C 8537   6.410   0.017   8.841  0.3573  0.4601 -0.1868
  823MOL0     C 8538   6.408  -0.124   8.844 -1.0972 -0.3870 -0.0191
  823MOL0     O 8539   6.307  -0.217   8.796 -0.2458 -0.2027  0.8816
  823MOL0     C 8540   6.233  -0.181   8.683 -0.0819 -0.7906  1.1123
  823MOL0     C 8541   6.304  -0.229   8.561  0.8281 -0.2229  0.5061
  823MOL0     C 8542   6.228  -0.211   8.419 -0.4257 -0.9487 -0.3279
  823MOL0     C 8543   6.332  -0.260   8.306 -0.5336 -0.5381 -0.1150
  823MOL0     C 8544   6.270  -0.261   8.157 -0.2367 -0.1309  0.5108
  823MOL0     C 8545   6.360  -0.294   8.038  0.0848 -0.1463 -0.4709
  823MOL0     C 8546   6.297  -0.284   7.901 -0.7695 -0.3927  0.0572
  823MOL0     C 8547   6.216  -0.163   7.867  0.7797  0.8908 -0.7939
  823MOL0    Cl 8548   6.296  -0.008   7.921 -0.1361 -0.4373  0.2414
  823MOL0     C 8549   6.530  -0.189   8.892 -0.2386 -0.0086 -0.1208
  823MOL0     C 8550   6.633  -0.113   8.944  0.8295  0.0595 -0.2163
  823MOL0     O 8551   6.853   0.028   8.779 -0.5286 -0.0762  0.0732
  823MOL0     C 8552   6.975   0.234   9.049 -0.4362 -0.3616 -0.4648
  823MOL0     C 8553   7.087   0.308   9.096  1.0183  0.8523  0.2301
  823MOL0     N 8554   7.532   0.844   9.426 -0.0190 -0.7696  0.1814
  823MOL0     N 8555   7.582   0.933   9.509  0.0904 -0.1855 -0.1074
  823MOL0     C 8556   8.165   1.028   9.519 -0.8456  0.0075  0.3346
  823MOL0     C 8557   8.094   0.989   9.405 -0.1314  0.1284 -1.0766
  823MOL0     C 8558   8.124   0.666   9.100 -0.2693 -0.6659  0.2008
  823MOL0     C 8559   8.179   0.620   8.982 -0.7417  0.3834  0.6144
  823MOL0     C 8560   8.228   0.489   8.971 -0.8718  0.2909 -0.2563
  823MOL0     C 8561   8.221   0.404   9.081  0.1369 -0.8538 -1.4643
  823MOL0     O 8562   8.285   0.283   9.083 -0.2644 -0.0724 -0.7556
  823MOL0     C 8563   8.262   0.188   8.980 -0.3218  0.2946 -0.1947
  823MOL0     C 8564   8.124   0.139   8.982 -0.3147  0.0261 -0.2424
  823MOL0     C 8565   8.068   0.080   9.112 -0.3014 -0.8843  0.3330
  823MOL0     C 8566   7.917   0.071   9.102  0.4808  0.0266 -0.6253
  823MOL0     C 8567   7.850   0.179   9.174  0.0140  0.5868  0.1411
  823MOL0     C 8568   7.799   0.267   9.242  0.1243  0.0276 -0.4537
  823MOL0     C 8569   8.160   0.446   9.202  0.1647  0.0059  0.1832
  823MOL0     C 8570   8.112   0.579   9.209  0.1191  0.0319  0.1490
  823MOL0     H 8571   8.306   0.748   9.309  2.1483 -1.5334  3.7744
  823MOL0     H 8572   8.444   0.847   9.503  0.1971 -0.0137  0.9087
  823MOL0     H 8573   8.474   0.971   9.823  0.0420  0.1186  0.2416
  823MOL0     H 8574   8.427   0.830   9.724  1.8121 -0.0066  3.7954
  823MOL0     H 8575   8.313   0.834   9.939 -0.2228  1.0211  0.3217
  823MOL0     H 8576   8.200   0.847   9.796  0.2433  0.1283 -0.2501
  823MOL0     H 8577   8.188   1.105   9.858 -0.6371 -0.0448 -0.6627
  823MOL0     H 8578   8.297   1.069   9.984  0.4054 -2.3191  1.5046
  823MOL0     H 8579   8.113   0.962  10.112 -1.4559 -1.2472  0.2526
  823MOL0     H 8580   8.033   1.105  10.034 -0.5804 -0.8003  1.6393
  823MOL0     H 8581   7.893   0.913  10.010 -1.4403  1.3410 -2.3428
  823MOL0     H 8582   8.018   0.825   9.919  1.5449 -0.0776  1.4261
  823MOL0     H 8583   7.995   1.038   9.783  0.1159 -2.7042  1.2550
  823MOL0     H 8584   7.859   1.088   9.856  1.0805  0.8651  3.1510
  823MOL0     H 8585   7.891   0.817   9.708 -2.1474 -1.5529 -0.4813
  823MOL0     H 8586   7.743   0.870   9.794 -0.2050  0.0528  0.1264
  823MOL0     H 8587   7.886   1.013   9.567 -0.0785  1.5586 -0.5270
  823MOL0     H 8588   7.726   1.070   9.639  0.1035 -0.1635 -2.2815
  823MOL0     H 8589   7.849   0.761   9.433 -0.4283 -3.7832  1.8363
  823MOL0     H 8590   7.720   0.603   9.261  1.2994  0.6174  3.4083
  823MOL0     H 8591   7.627   0.735   9.178 -0.4213  3.3618  2.4024
  823MOL0     H 8592   7.423   0.641   9.305 -0.1884  0.5441 -0.2820
  823MOL0     H 8593   7.520   0.507   9.340  1.2343  0.4002 -0.2908
  823MOL0     H 8594   7.464   0.599   9.053  1.0437  0.9734 -0.8073
  823MOL0     H 8595   7.541   0.452   9.096  0.5718  0.3097  0.0008
  823MOL0     H 8596   7.261   0.532   9.189 -0.9071  0.3940 -1.4223
  823MOL0     H 8597   7.332   0.367   9.208  1.7534 -0.2029 -1.0278
  823MOL0     H 8598   7.216   0.357   8.781 -1.4007 -0.2922 -1.3567
  823MOL0     H 8599   7.033   0.185   8.725  1.2944 -1.5849  1.0774
  823MOL0     H 8600   6.515   0.198   8.899 -1.1655  0.0361  1.1593
  823MOL0     H 8601   6.326   0.076   8.808  2.2510  2.3959 -1.8019
  823MOL0     H 8602   6.202  -0.077   8.670  1.5103 -0.5868 -1.6831
  823MOL0     H 8603   6.142  -0.242   8.684 -0.4373 -0.2779  0.3994
  823MOL0     H 8604   6.311  -0.337   8.575 -0.8685 -0.4294  0.0168
  823MOL0     H 8605   6.405  -0.187   8.562  1.0667 -0.7359 -0.4858
  823MOL0     H 8606   6.215  -0.103   8.406 -0.3086 -0.6523  1.7231
  823MOL0     H 8607   6.134  -0.264   8.405 -1.4283  1.0373 -1.4959
  823MOL0     H 8608   6.412  -0.186   8.309  1.2476 -2.3532 -0.6946
  823MOL0     H 8609   6.381  -0.354   8.331 -2.8598 -1.2865  2.0712
  823MOL0     H 8610   6.215  -0.169   8.135 -1.4047 -0.5403  1.5829
  823MOL0     H 8611   6.203  -0.347   8.156  1.7933 -1.9757  3.3447
  823MOL0     H 8612   6.374  -0.403   8.044 -3.3488 -0.7547 -0.9781
  823MOL0     H 8613   6.462  -0.256   8.034  1.5021 -3.6070 -0.5493
  823MOL0     H 8614   6.387  -0.290   7.840 -1.3138 -0.1711 -0.7967
  823MOL0     H 8615   6.238  -0.373   7.877  0.2165 -1.1253  0.3220
  823MOL0     H 8616   6.118  -0.172   7.915  1.7432 -0.9715  0.9772
  823MOL0     H 8617   6.187  -0.167   7.761 -1.1759 -2.3318 -0.2716
  823MOL0     H 8618   6.538  -0.297   8.888  2.9247  0.1457 -0.6049
  823MOL0     H 8619   6.720  -0.165   8.982  0.6813 -0.1124 -0.1121
  823MOL0     H 8620   6.897   0.209   9.120 -0.1200 -0.9836 -0.3346
  823MOL0     H 8621   7.114   0.341   9.196  0.7237  0.5094  0.4242
  823MOL0     H 8622   8.134   1.125   9.558  0.8338  0.8773 -0.3760
  823MOL0     H 8623   8.003   1.041   9.377  0.8589  0.2599 -4.5133
  823MOL0     H 8624   8.193   0.680   8.893  2.1978 -0.6550  0.2549
  823MOL0     H 8625   8.279   0.453   8.882  0.2601 -2.3031  1.3312
  823MOL0     H 8626   8.332   0.105   8.994 -1.2756 -0.3822  0.7311
  823MOL0     H 8627   8.294   0.233   8.886 -0.7157  1.6985  0.3240
  823MOL0     H 8628   8.069   0.230   8.958  0.9818  0.6595 -0.9261
  823MOL0     H 8629   8.110   0.066   8.901  0.2987 -3.2970  2.4195
  823MOL0     H 8630   8.098   0.139   9.199 -0.8498 -0.5060  0.2746
  823MOL0     H 8631   8.115  -0.018   9.120 -1.0141 -1.3325 -0.6525
  823MOL0     H 8632   7.887   0.073   8.997 -1.6027 -2.7436 -0.1933
  823MOL0     H 8633   7.889  -0.020   9.155  0.3927  1.2384  1.5273
  823MOL0     H 8634   7.771   0.341   9.315 -1.2970 -1.3529  0.4732
  823MOL0     H 8635   8.159   0.369   9.278 -0.0510  0.1624  0.3404
  823MOL0     H 8636   8.060   0.604   9.301 -2.3842 -2.5093 -0.4078
  824MOL0     O 8637   6.977   4.744  10.892 -0.5808  1.0647 -0.0488
  824MOL0     C 8638   6.868   4.722  10.854  0.3598  0.2395 -1.2277
  824MOL0     O 8639   6.813   4.778  10.740 -0.1328 -0.3106 -0.2727
  824MOL0     C 8640   6.871   4.894  10.693  0.2339 -0.6036 -0.7069
  824MOL0     C 8641   6.918   4.917  10.560 -0.5036  0.0450 -0.9224
  824MOL0     C 8642   6.959   5.050  10.512  0.5420 -0.4279  0.7177
  824MOL0     C 8643   6.941   5.162  10.601 -0.9439  0.0795 -0.2285
  824MOL0     O 8644   6.978   5.298  10.565  0.4146 -0.3677  0.5292
  824MOL0     C 8645   7.047   5.319  10.441  0.6526  0.0077 -0.1384
  824MOL0     C 8646   7.036   5.460  10.399  0.6534 -0.1903  0.7578
  824MOL0     C 8647   7.142   5.544  10.476 -0.0691 -0.4097 -0.9375
  824MOL0     C 8648   7.269   5.547  10.391 -0.9272 -0.6586  0.2027
  824MOL0     C 8649   7.386   5.641  10.452  0.2340 -0.3251  0.9930
  824MOL0     C 8650   7.509   5.628  10.368  0.1578 -0.0649 -0.5583
  824MOL0     C 8651   7.505   5.723  10.237 -0.2688  0.9618 -0.1038
  824MOL0     C 8652   7.641   5.724  10.162 -0.0861 -0.6057  0.3191
  824MOL0     N 8653   7.706   5.589  10.172 -0.0979 -0.1804 -0.1597
  824MOL0     C 8654   7.818   5.564  10.252 -0.0268  1.1380  0.0291
  824MOL0     C 8655   7.849   5.432  10.221  0.4937  0.2003  1.2791
  824MOL0     C 8656   7.964   5.345  10.270 -0.0028 -0.2974 -0.0046
  824MOL0     C 8657   8.086   5.335  10.177 -0.5247 -0.8151 -0.4501
  824MOL0     C 8658   8.159   5.475  10.164 -0.4557  0.0892  0.6465
  824MOL0     C 8659   8.219   5.487  10.026  0.0058 -0.6278 -0.2928
  824MOL0     O 8660   8.332   5.393  10.024 -0.5053  0.0202  0.3636
  824MOL0     C 8661   8.461   5.433  10.065 -0.3520  0.7880  0.6155
  824MOL0     C 8662   8.504   5.548  10.133  0.9068 -0.4828 -0.2707
  824MOL0     C 8663   8.639   5.573  10.170  0.5212  0.0075 -0.5619
  824MOL0     C 8664   8.734   5.479  10.140  0.6922 -0.0341 -0.0640
  824MOL0     C 8665   8.882   5.508  10.156  0.7628 -0.4297  0.1853
  824MOL0     O 8666   8.911   5.628  10.212 -0.0578 -0.7364  1.1711
  824MOL0     C 8667   9.046   5.669  10.220  0.6767  0.5392 -0.9152
  824MOL0     C 8668   9.154   5.594  10.248 -0.2337 -0.6520 -0.1360
  824MOL0     C 8669   9.287   5.648  10.251  0.1359  0.3912  0.4291
  824MOL0     C 8670   9.307   5.785  10.236 -0.3648  0.5812 -0.3283
  824MOL0     O 8671   9.428   5.850  10.222 -0.2449 -0.9290  0.3912
  824MOL0     C 8672   9.551   5.784  10.170  0.6174 -0.2925 -0.3632
  824MOL0     C 8673   9.634   5.730  10.287 -0.2360 -0.1289 -0.0071
  824MOL0     C 8674   9.769   5.675  10.231 -0.6249  0.4160 -0.1348
  824MOL0     C 8675   9.830   5.576  10.340  0.8828 -0.4282 -0.3191
  824MOL0     C 8676   9.984   5.584  10.333 -0.0445  0.2051  0.4286
  824MOL0     C 8677  10.046   5.449  10.383  0.4982  0.9760 -0.3420
  824MOL0     C 8678  10.192   5.433  10.365  0.1027 -0.1223 -0.8680
  824MOL0     C 8679  10.225   5.413  10.219 -0.0445  0.2081 -0.2201
  824MOL0    Cl 8680  10.409   5.391  10.217  0.3200 -0.1412 -0.0165
  824MOL0     C 8681   9.195   5.869  10.210 -0.3160  0.2772 -1.0122
  824MOL0     C 8682   9.066   5.812  10.205 -0.5802 -0.3351  0.8874
  824MOL0     O 8683   8.962   5.438  10.086 -0.0107 -0.6862 -0.4364
  824MOL0     C 8684   8.695   5.358  10.076 -0.2832  0.3804  0.2794
  824MOL0     C 8685   8.563   5.338  10.035  0.5469  0.0414 -0.0925
  824MOL0     N 8686   7.758   5.383  10.127 -0.7477 -0.8311  0.6940
  824MOL0     N 8687   7.675   5.483  10.097  0.4018 -0.6230 -0.1025
  824MOL0     C 8688   6.876   5.131  10.720 -0.1303 -0.3385 -0.3765
  824MOL0     C 8689   6.836   5.009  10.761  0.3101  0.3897  0.0630
  824MOL0     C 8690   6.798   4.632  10.942  0.7710 -0.8424  0.3100
  824MOL0     C 8691   6.650   4.613  10.925 -0.7274 -0.7154  0.0562
  824MOL0     C 8692   6.585   4.515  10.996  0.2853  0.4599 -0.4595
  824MOL0     C 8693   6.646   4.442  11.105 -0.5830  0.3925 -0.0273
  824MOL0     O 8694   6.559   4.353  11.163  0.7406 -0.1751  0.2809
  824MOL0     C 8695   6.613   4.241  11.232 -0.2770 -0.0985  0.1050
  824MOL0     C 8696   6.619   4.114  11.145 -0.3661  0.4942  0.4289
  824MOL0     C 8697   6.720   4.121  11.025 -0.1238  0.5878 -0.4703
  824MOL0     C 8698   6.746   3.979  10.979 -0.1850 -0.5059 -0.3020
  824MOL0     C 8699   6.841   3.978  10.875  0.0526  0.4161 -0.1873
  824MOL0     C 8700   6.936   3.977  10.797 -0.5194  0.5769  0.9865
  824MOL0     C 8701   6.780   4.480  11.146  0.1955 -0.4923 -0.3969
  824MOL0     C 8702   6.858   4.565  11.053  0.0175  0.0032  0.2704
  824MOL0     H 8703   6.935   4.827  10.501 -0.7887 -0.4660 -0.2415
  824MOL0     H 8704   6.989   5.070  10.410  0.8513  2.5478  1.2804
  824MOL0     H 8705   6.999   5.267  10.358 -1.0313  0.2450  0.6466
  824MOL0     H 8706   7.150   5.286  10.462 -0.8029 -4.2701  1.3597
  824MOL0     H 8707   6.934   5.493  10.419  2.0462  2.9212  3.7360
  824MOL0     H 8708   7.057   5.473  10.292 -0.9787 -0.5079  0.3701
  824MOL0     H 8709   7.155   5.514  10.581  2.9603  0.2695 -1.0441
  824MOL0     H 8710   7.117   5.651  10.486 -0.8386 -0.6544 -0.1097
  824MOL0     H 8711   7.303   5.445  10.369 -1.2098 -0.5521 -0.8004
  824MOL0     H 8712   7.238   5.588  10.294  0.0534 -0.9045 -0.2214
  824MOL0     H 8713   7.400   5.601  10.553  1.8347 -1.4780  0.3548
  824MOL0     H 8714   7.356   5.746  10.452  1.3474  0.0901 -2.1581
  824MOL0     H 8715   7.527   5.523  10.344 -3.2932 -1.2722  1.4340
  824MOL0     H 8716   7.591   5.666  10.430 -1.4332  1.2454  0.8421
  824MOL0     H 8717   7.432   5.696  10.160 -1.2231  3.4471 -0.1745
  824MOL0     H 8718   7.479   5.826  10.261 -0.9993  1.3718 -2.3673
  824MOL0     H 8719   7.706   5.801  10.204 -1.0468  0.3191  0.1524
  824MOL0     H 8720   7.626   5.747  10.056  2.2923 -1.1503 -0.2105
  824MOL0     H 8721   7.855   5.641  10.320 -0.9164  1.5753  0.0352
  824MOL0     H 8722   7.927   5.244  10.288 -1.1389  0.2003  0.5016
  824MOL0     H 8723   8.014   5.389  10.357  0.5385 -1.1071  0.1111
  824MOL0     H 8724   8.049   5.310  10.077 -3.2368  2.3998 -0.4254
  824MOL0     H 8725   8.161   5.265  10.213  2.3269  1.3700 -1.6910
  824MOL0     H 8726   8.098   5.563  10.183  1.2526  2.0444 -2.0877
  824MOL0     H 8727   8.248   5.493  10.226 -1.2439 -0.0403  1.8358
  824MOL0     H 8728   8.242   5.592  10.005 -1.2207  0.4269  3.1115
  824MOL0     H 8729   8.153   5.460   9.942 -1.5392  2.9579 -0.4050
  824MOL0     H 8730   8.422   5.615  10.156  0.6274 -0.5063 -1.1666
  824MOL0     H 8731   8.668   5.666  10.216  0.4534 -0.2288 -0.0328
  824MOL0     H 8732   9.122   5.490  10.255 -2.1003 -0.1706 -0.7662
  824MOL0     H 8733   9.373   5.584  10.263  1.4762  2.1293  0.5673
  824MOL0     H 8734   9.611   5.855  10.111  0.2676  0.2356 -0.0952
  824MOL0     H 8735   9.515   5.699  10.111  0.1928 -1.8773  2.0667
  824MOL0     H 8736   9.578   5.646  10.330 -2.3593  0.2867 -1.7914
  824MOL0     H 8737   9.660   5.800  10.367 -1.4451 -1.9032  2.0558
  824MOL0     H 8738   9.839   5.752  10.198 -1.7478  0.8462 -1.6044
  824MOL0     H 8739   9.750   5.630  10.133  0.7994 -0.7384  0.0854
  824MOL0     H 8740   9.794   5.591  10.442 -2.6279  0.3948 -1.5383
  824MOL0     H 8741   9.789   5.478  10.314  0.4591  0.4309 -3.3326
  824MOL0     H 8742  10.015   5.671  10.392 -3.2895  0.6188  1.7193
  824MOL0     H 8743  10.010   5.594  10.227 -0.6854  0.4994  0.2946
  824MOL0     H 8744  10.005   5.359  10.337  0.2320 -0.8466  3.0941
  824MOL0     H 8745  10.018   5.430  10.488  3.9330 -3.7004  0.0299
  824MOL0     H 8746  10.250   5.517  10.404  0.2219 -1.2011  1.4385
  824MOL0     H 8747  10.222   5.340  10.415 -2.2643  0.6911  2.4080
  824MOL0     H 8748  10.210   5.500  10.155 -2.7164  1.5536  1.9964
  824MOL0     H 8749  10.180   5.328  10.167  3.9786 -1.0102 -2.1170
  824MOL0     H 8750   9.207   5.975  10.191 -1.0313 -0.0453 -3.6672
  824MOL0     H 8751   8.977   5.870  10.184  0.4919  1.4264  0.9942
  824MOL0     H 8752   8.772   5.284  10.059  0.9851  1.3832  1.4662
  824MOL0     H 8753   8.535   5.245   9.986  0.2984  0.2859 -0.4238
  824MOL0     H 8754   6.863   5.219  10.783  1.1416  0.4849 -1.2333
  824MOL0     H 8755   6.798   5.001  10.863 -1.5577 -2.2668 -0.7109
  824MOL0     H 8756   6.604   4.665  10.843 -0.0390  1.2762  0.8711
  824MOL0     H 8757   6.484   4.479  10.982 -0.3674  1.2189  1.7897
  824MOL0     H 8758   6.552   4.224  11.321 -0.6178 -0.1936 -0.1474
  824MOL0     H 8759   6.717   4.246  11.265  0.0362  1.8028 -0.9879
  824MOL0     H 8760   6.649   4.031  11.209  4.6337  0.4060 -1.5379
  824MOL0     H 8761   6.519   4.106  11.101  0.0991  4.0143 -1.6971
  824MOL0     H 8762   6.810   4.177  11.049  0.1927  0.2897 -0.9543
  824MOL0     H 8763   6.671   4.160  10.936 -0.5899 -0.6624 -0.7830
  824MOL0     H 8764   6.783   3.916  11.060 -0.1494 -0.8243 -0.5619
  824MOL0     H 8765   6.652   3.940  10.937 -0.5840  1.0486 -0.9068
  824MOL0     H 8766   7.009   3.978  10.719 -0.9294 -0.8720  0.5522
  824MOL0     H 8767   6.832   4.439  11.233  0.3671  0.3000 -0.1211
  824MOL0     H 8768   6.964   4.580  11.068  0.2988 -1.4987 -0.0235
  825MOL0     O 8769  10.366   7.862   5.084  0.4389 -0.3367  0.1643
  825MOL0     C 8770  10.383   7.963   5.020 -0.6028  0.5752 -0.5686
  825MOL0     O 8771  10.275   8.024   4.959  0.6680 -0.9037 -0.3696
  825MOL0     C 8772  10.153   8.021   5.018  0.1937 -1.2505 -0.7834
  825MOL0     C 8773  10.059   8.080   4.941  0.3423 -0.0638  0.4700
  825MOL0     C 8774   9.919   8.087   4.971 -0.9438 -0.0567 -0.7240
  825MOL0     C 8775   9.870   8.039   5.088 -0.0923  0.4822  0.1129
  825MOL0     O 8776   9.731   8.044   5.118 -0.1574 -0.0761 -0.2319
  825MOL0     C 8777   9.632   8.100   5.031 -0.5892 -0.1596 -0.2988
  825MOL0     C 8778   9.593   8.247   5.063 -0.2591 -0.3629 -0.6758
  825MOL0     C 8779   9.460   8.304   5.012 -1.0287  0.1637 -1.1011
  825MOL0     C 8780   9.341   8.230   5.064 -0.2275  0.4076 -0.4941
  825MOL0     C 8781   9.212   8.305   5.029  0.0951 -0.1391  0.1758
  825MOL0     C 8782   9.088   8.214   5.027  0.6458  1.1389 -0.2021
  825MOL0     C 8783   8.961   8.293   4.995  0.5256 -0.7340  0.3570
  825MOL0     C 8784   8.953   8.369   4.862  0.1332 -0.6726  0.4540
  825MOL0     N 8785   8.805   8.387   4.822 -0.2114 -0.1124  0.0972
  825MOL0     C 8786   8.744   8.500   4.787 -0.0669 -0.7543 -0.5407
  825MOL0     C 8787   8.627   8.462   4.731 -0.1664  0.4202  0.1512
  825MOL0     C 8788   8.531   8.543   4.649  0.5239  0.0628 -0.8118
  825MOL0     C 8789   8.387   8.504   4.680  1.0675 -0.2601 -0.0758
  825MOL0     C 8790   8.290   8.619   4.657 -0.6072 -0.3590  1.0106
  825MOL0     C 8791   8.339   8.740   4.589  0.1505 -0.2543 -0.7516
  825MOL0     O 8792   8.217   8.792   4.535  0.1971 -0.3518  0.0211
  825MOL0     C 8793   8.196   8.927   4.533 -0.6408 -0.4235 -0.9112
  825MOL0     C 8794   8.262   9.009   4.441  0.0140  0.7597 -0.0983
  825MOL0     C 8795   8.240   9.142   4.447 -0.8123 -1.0219 -0.4596
  825MOL0     C 8796   8.143   9.197   4.541 -0.4833 -0.7970 -1.1292
  825MOL0     C 8797   8.120   9.345   4.544 -0.5684  0.0997  0.1001
  825MOL0     O 8798   8.177   9.423   4.443 -0.2265  0.5056 -0.5030
  825MOL0     C 8799   8.164   9.555   4.439  0.4942  0.6174  1.2782
  825MOL0     C 8800   8.066   9.641   4.490 -0.3654  0.4290  0.2541
  825MOL0     C 8801   8.073   9.776   4.470 -0.8012 -0.5602  0.1948
  825MOL0     C 8802   8.192   9.831   4.408  0.5978 -0.1465 -0.3168
  825MOL0     O 8803   8.180   9.971   4.398 -0.4172 -0.5337  0.4809
  825MOL0     C 8804   8.300  10.036   4.436  0.4382 -0.3913 -1.0902
  825MOL0     C 8805   8.320  10.139   4.325  0.5871 -0.9203 -0.0638
  825MOL0     C 8806   8.207  10.242   4.314  0.7720 -0.0483  0.2962
  825MOL0     C 8807   8.236  10.331   4.194 -0.2103 -0.1399 -0.6133
  825MOL0     C 8808   8.330  10.453   4.223  0.1912  0.4634  0.4394
  825MOL0     C 8809   8.377  10.522   4.085 -0.1646 -0.4775 -0.0566
  825MOL0     C 8810   8.521  10.477   4.042  0.7317  0.4309  0.7366
  825MOL0     C 8811   8.568  10.544   3.913 -0.4523 -0.3118 -0.5797
  825MOL0    Cl 8812   8.446  10.540   3.777 -0.0658 -0.2476 -0.1738
  825MOL0     C 8813   8.291   9.743   4.354  0.8547 -0.2132  0.6316
  825MOL0     C 8814   8.273   9.605   4.365 -0.2034 -0.2301  0.0026
  825MOL0     O 8815   8.068   9.393   4.647  0.1705  0.2817  0.2640
  825MOL0     C 8816   8.078   9.112   4.632  0.0448  0.6222 -0.6542
  825MOL0     C 8817   8.099   8.974   4.625 -0.2881 -0.2410  0.5526
  825MOL0     N 8818   8.619   8.324   4.742  0.3435 -0.1522 -0.3172
  825MOL0     N 8819   8.730   8.281   4.787 -1.0193 -0.7722  0.3818
  825MOL0     C 8820   9.959   7.981   5.179  0.8391 -0.6996  0.1367
  825MOL0     C 8821  10.092   7.976   5.138  0.1160  0.0336  1.0640
  825MOL0     C 8822  10.519   8.014   4.995  1.1023  0.1790 -0.2134
  825MOL0     C 8823  10.630   7.929   5.000 -0.8505  0.2840 -0.9887
  825MOL0     C 8824  10.762   7.972   4.970  0.4531 -0.4726 -0.1375
  825MOL0     C 8825  10.790   8.108   4.941 -0.5284 -0.2311 -0.1095
  825MOL0     O 8826  10.920   8.161   4.946 -0.0955 -0.4838  0.1648
  825MOL0     C 8827  10.955   8.304   4.927 -0.4562  0.3908 -0.7003
  825MOL0     C 8828  10.995   8.365   5.066 -1.3215  0.4116  0.5032
  825MOL0     C 8829  10.871   8.363   5.167 -0.2043 -0.2784 -0.3506
  825MOL0     C 8830  10.929   8.415   5.306 -0.4707 -0.1058  0.7034
  825MOL0     C 8831  10.814   8.425   5.399 -0.0366 -0.2524 -0.7762
  825MOL0     C 8832  10.726   8.414   5.486 -0.1953  0.2766  1.1202
  825MOL0     C 8833  10.674   8.190   4.926  0.3158 -1.2598  0.0738
  825MOL0     C 8834  10.545   8.146   4.953  0.1367  0.7002 -0.0017
  825MOL0     H 8835  10.077   8.125   4.844 -0.5318 -3.6102 -1.5239
  825MOL0     H 8836   9.855   8.131   4.894  1.7074  1.4638 -2.2127
  825MOL0     H 8837   9.548   8.030   5.030 -0.4881 -0.3153  1.0777
  825MOL0     H 8838   9.656   8.107   4.924  1.0376 -1.2243 -0.0391
  825MOL0     H 8839   9.672   8.320   5.039 -0.3096 -0.6231 -1.7135
  825MOL0     H 8840   9.587   8.246   5.172  0.0816  0.5707 -0.6334
  825MOL0     H 8841   9.453   8.292   4.903  0.4786  0.7578 -1.2844
  825MOL0     H 8842   9.454   8.408   5.043  0.5932 -0.0162 -0.0617
  825MOL0     H 8843   9.343   8.129   5.022  1.0474 -0.9166  2.4586
  825MOL0     H 8844   9.349   8.232   5.173  1.7952  1.1800 -0.6181
  825MOL0     H 8845   9.221   8.347   4.928 -1.7272  3.6265  1.4038
  825MOL0     H 8846   9.194   8.382   5.104 -1.3895 -1.3387  1.1116
  825MOL0     H 8847   9.092   8.183   5.131  3.1394 -0.2293 -0.6180
  825MOL0     H 8848   9.108   8.133   4.957  1.6345  2.0432 -1.0115
  825MOL0     H 8849   8.876   8.224   4.996  1.7150 -2.3627  3.8617
  825MOL0     H 8850   8.930   8.366   5.070 -1.0462 -0.7554 -0.2226
  825MOL0     H 8851   8.999   8.315   4.779  3.7746  0.6674  1.4016
  825MOL0     H 8852   9.014   8.460   4.871 -2.7867  1.2134  3.5332
  825MOL0     H 8853   8.776   8.604   4.799  4.6033 -1.1199 -5.5355
  825MOL0     H 8854   8.552   8.528   4.542  2.6133  0.5636 -0.5051
  825MOL0     H 8855   8.546   8.648   4.676 -0.7439  0.9537 -3.2658
  825MOL0     H 8856   8.373   8.443   4.770 -0.1498 -0.2519 -0.2507
  825MOL0     H 8857   8.349   8.437   4.603 -1.4027  1.2806 -0.2856
  825MOL0     H 8858   8.215   8.574   4.591 -0.5408  0.9493  0.0105
  825MOL0     H 8859   8.244   8.646   4.752  0.8098  0.1688  1.5671
  825MOL0     H 8860   8.418   8.741   4.513  2.2047  5.6226  0.8623
  825MOL0     H 8861   8.368   8.808   4.670 -1.2529 -2.0131  1.3361
  825MOL0     H 8862   8.335   8.956   4.380  1.1629  0.2511  1.6313
  825MOL0     H 8863   8.298   9.202   4.378 -0.1453  0.2157  1.1238
  825MOL0     H 8864   7.972   9.599   4.525 -1.8829 -0.1299 -3.9474
  825MOL0     H 8865   7.995   9.847   4.497  0.0470 -0.0247  1.3811
  825MOL0     H 8866   8.383   9.965   4.444  0.3941 -0.3138  0.3110
  825MOL0     H 8867   8.294  10.069   4.540 -0.2314 -1.0919 -0.8984
  825MOL0     H 8868   8.311  10.091   4.227 -0.0934 -0.3630 -0.2777
  825MOL0     H 8869   8.414  10.195   4.325  0.1934 -0.2080  1.6112
  825MOL0     H 8870   8.199  10.301   4.406 -5.3911  1.1049 -0.5299
  825MOL0     H 8871   8.109  10.194   4.309  0.0053  0.6133  4.5802
  825MOL0     H 8872   8.272  10.274   4.108 -1.2205  0.4965 -1.4736
  825MOL0     H 8873   8.137  10.365   4.161 -0.1823 -0.2077 -0.7653
  825MOL0     H 8874   8.416  10.427   4.285  0.5755 -0.8080 -0.5621
  825MOL0     H 8875   8.276  10.524   4.286 -0.8237  1.8837 -1.8966
  825MOL0     H 8876   8.393  10.626   4.115 -0.1892 -1.4210  3.7900
  825MOL0     H 8877   8.310  10.503   4.001 -2.7310 -2.2044  2.2154
  825MOL0     H 8878   8.597  10.502   4.117  1.0005  0.3237  0.5022
  825MOL0     H 8879   8.522  10.368   4.030  0.0560  0.3959  0.9438
  825MOL0     H 8880   8.656  10.486   3.881  1.1875  1.7402  0.0306
  825MOL0     H 8881   8.614  10.643   3.922  1.3883 -1.3369  3.7856
  825MOL0     H 8882   8.384   9.778   4.311 -0.0787  2.0710  0.2795
  825MOL0     H 8883   8.351   9.541   4.326  0.1553 -1.1770  2.1102
  825MOL0     H 8884   8.009   9.146   4.708  3.0350  2.3855  1.4941
  825MOL0     H 8885   8.041   8.914   4.695  2.4901 -1.1653  2.1948
  825MOL0     H 8886   9.931   7.929   5.270  0.0913  0.8668  0.8478
  825MOL0     H 8887  10.161   7.933   5.211  1.7425  0.5332 -0.1281
  825MOL0     H 8888  10.619   7.829   5.040 -2.3332  1.2524  1.1943
  825MOL0     H 8889  10.841   7.897   4.967  0.6784 -0.3293 -4.7578
  825MOL0     H 8890  10.864   8.359   4.902  1.1150  3.6115  0.1293
  825MOL0     H 8891  11.036   8.327   4.858  2.5581  0.2920  2.5137
  825MOL0     H 8892  11.075   8.301   5.105 -1.3833 -0.2243 -0.4066
  825MOL0     H 8893  11.026   8.470   5.059  1.9078 -0.3370  1.4833
  825MOL0     H 8894  10.830   8.262   5.176 -1.2468  0.2883  2.0385
  825MOL0     H 8895  10.797   8.441   5.148 -1.7605 -0.9348  2.5206
  825MOL0     H 8896  11.009   8.359   5.355 -1.2056 -0.6026  1.3547
  825MOL0     H 8897  10.976   8.513   5.298  5.0963 -2.1829  2.6675
  825MOL0     H 8898  10.658   8.432   5.567 -0.9717  0.7340  0.3841
  825MOL0     H 8899  10.673   8.293   4.892  0.5953 -1.2881 -0.0299
  825MOL0     H 8900  10.471   8.226   4.954  0.4033  1.0082 -1.8563
  826MOL0     O 8901   8.717  10.810   6.949 -0.7958  0.3466 -0.6548
  826MOL0     C 8902   8.721  10.698   6.904  0.4355 -0.1694 -0.0212
  826MOL0     O 8903   8.636  10.601   6.941 -0.3247 -0.6820  0.7826
  826MOL0     C 8904   8.533  10.639   7.021 -0.0636  0.0779  0.6490
  826MOL0     C 8905   8.433  10.734   6.978  0.2332  1.1389  0.2542
  826MOL0     C 8906   8.319  10.755   7.073 -0.7746 -0.8392  0.2291
  826MOL0     C 8907   8.316  10.702   7.200 -0.1384  1.0035 -1.4022
  826MOL0     O 8908   8.210  10.730   7.283  1.1352  0.1989  0.5843
  826MOL0     C 8909   8.146  10.611   7.335 -0.2035 -0.2343 -0.0695
  826MOL0     C 8910   8.004  10.650   7.361 -0.3267 -0.5181 -0.1699
  826MOL0     C 8911   7.973  10.772   7.449  0.3231 -0.1229 -0.0962
  826MOL0     C 8912   7.826  10.820   7.422  0.2265  0.5136 -0.3696
  826MOL0     C 8913   7.782  10.953   7.498  0.6101  0.7505 -0.5984
  826MOL0     C 8914   7.631  10.981   7.474  0.1722  0.1651 -0.0335
  826MOL0     C 8915   7.586  11.106   7.539  0.4151  0.2711 -0.9702
  826MOL0     C 8916   7.445  11.138   7.496 -0.2047  0.0063 -0.4807
  826MOL0     N 8917   7.412  11.265   7.553  0.1238  0.2265  0.0480
  826MOL0     C 8918   7.343  11.286   7.669  0.2435 -0.1543 -0.8463
  826MOL0     C 8919   7.362  11.424   7.690 -0.3832  0.6675  0.4142
  826MOL0     C 8920   7.310  11.487   7.815 -0.3984  0.1975  0.1428
  826MOL0     C 8921   7.234  11.626   7.799  0.3110  0.7025  0.3477
  826MOL0     C 8922   7.123  11.607   7.702 -0.1843 -0.1608  1.1925
  826MOL0     C 8923   7.035  11.734   7.705 -0.1268 -0.4672 -0.0021
  826MOL0     O 8924   6.931  11.696   7.804  0.1523 -0.5756  0.3483
  826MOL0     C 8925   6.813  11.726   7.756  1.2317  0.4174  0.2856
  826MOL0     C 8926   6.742  11.836   7.809  0.6013  0.4573 -0.1171
  826MOL0     C 8927   6.603  11.861   7.789 -0.0802  0.5672 -0.1669
  826MOL0     C 8928   6.535  11.768   7.705  0.0432  0.1194  0.7969
  826MOL0     C 8929   6.389  11.775   7.661  0.5873  0.1831 -0.6100
  826MOL0     O 8930   6.329  11.898   7.678 -0.8833 -0.2564 -0.1650
  826MOL0     C 8931   6.207  11.920   7.627 -0.3610 -0.5515 -0.8375
  826MOL0     C 8932   6.189  12.055   7.596 -0.1187  0.4782 -0.1790
  826MOL0     C 8933   6.073  12.088   7.526  0.3680 -0.7135  0.5282
  826MOL0     C 8934   5.964  12.006   7.502 -0.9498  0.6239  1.1080
  826MOL0     O 8935   5.839  12.047   7.450 -0.4348 -1.2105  0.2763
  826MOL0     C 8936   5.837  12.163   7.364 -0.1056 -0.4496  0.0307
  826MOL0     C 8937   5.794  12.282   7.448 -0.7961 -0.0958  0.1099
  826MOL0     C 8938   5.641  12.308   7.458 -0.5207  0.7706  0.1712
  826MOL0     C 8939   5.574  12.183   7.517 -0.1407  0.8860 -0.1063
  826MOL0     C 8940   5.417  12.186   7.514  0.9072  0.5559  0.2181
  826MOL0     C 8941   5.366  12.102   7.405  0.4219  0.6429  0.2629
  826MOL0     C 8942   5.210  12.074   7.409 -0.7822  0.4747 -0.7808
  826MOL0     C 8943   5.129  12.179   7.351 -0.6520  0.0837  0.4475
  826MOL0    Cl 8944   5.150  12.173   7.164  0.4247  0.0881 -0.0733
  826MOL0     C 8945   5.985  11.874   7.539  0.1157 -0.4006  0.6968
  826MOL0     C 8946   6.099  11.831   7.606 -0.1491 -0.4356 -0.8275
  826MOL0     O 8947   6.337  11.672   7.616  0.2949 -1.2683  0.8198
  826MOL0     C 8948   6.604  11.657   7.647 -0.0833  1.4185 -0.1323
  826MOL0     C 8949   6.746  11.642   7.669  2.0593  0.5301 -0.8674
  826MOL0     N 8950   7.433  11.484   7.583 -0.7715 -0.6569 -1.1946
  826MOL0     N 8951   7.468  11.386   7.510  0.3472 -0.1772 -0.2703
  826MOL0     C 8952   8.424  10.613   7.241 -0.4416 -0.7037 -0.4456
  826MOL0     C 8953   8.522  10.579   7.149 -0.0089  0.1994 -0.3695
  826MOL0     C 8954   8.834  10.662   6.819  0.4922  0.4772  0.0816
  826MOL0     C 8955   8.959  10.709   6.848  0.5421 -0.2243 -0.8683
  826MOL0     C 8956   9.075  10.658   6.772 -0.2074  0.6083  0.4841
  826MOL0     C 8957   9.056  10.568   6.665  0.5258 -0.2359 -0.7130
  826MOL0     O 8958   9.155  10.540   6.573 -0.0098 -0.4024  0.5119
  826MOL0     C 8959   9.120  10.493   6.441  0.1604  0.1697  0.2267
  826MOL0     C 8960   9.239  10.515   6.345  0.9332  0.2010  0.7096
  826MOL0     C 8961   9.351  10.415   6.365  0.7148  0.4916 -1.0574
  826MOL0     C 8962   9.302  10.263   6.369 -1.0883  0.0169 -0.0411
  826MOL0     C 8963   9.426  10.182   6.358  0.8606 -0.2963  0.4650
  826MOL0     C 8964   9.533  10.119   6.354  1.1076  0.3125  0.2513
  826MOL0     C 8965   8.924  10.518   6.652  0.5609 -0.1014  1.1035
  826MOL0     C 8966   8.810  10.560   6.722 -0.7012 -0.5842 -0.1119
  826MOL0     H 8967   8.415  10.766   6.876 -3.2965 -0.6842  0.1452
  826MOL0     H 8968   8.241  10.827   7.051 -0.8906  0.4097  4.0218
  826MOL0     H 8969   8.188  10.587   7.433  1.2897 -0.1497 -0.6658
  826MOL0     H 8970   8.162  10.524   7.271  0.0035 -1.2261  1.2957
  826MOL0     H 8971   7.958  10.561   7.405  2.2926 -0.6780  2.5732
  826MOL0     H 8972   7.943  10.665   7.271 -0.7979  3.2928  0.5976
  826MOL0     H 8973   8.039  10.854   7.421  1.8148 -1.4357 -0.5563
  826MOL0     H 8974   8.006  10.753   7.552  2.7894  0.8075 -0.6504
  826MOL0     H 8975   7.817  10.827   7.314 -0.0897 -1.9001 -0.5480
  826MOL0     H 8976   7.767  10.733   7.452  4.8907 -3.7175 -2.0331
  826MOL0     H 8977   7.851  11.035   7.478 -0.6237  2.7522  2.6002
  826MOL0     H 8978   7.789  10.932   7.605  1.2395  1.1717 -0.5558
  826MOL0     H 8979   7.567  10.897   7.504  0.9677 -0.4451  0.0062
  826MOL0     H 8980   7.612  11.001   7.368 -0.1332  0.5035  0.0843
  826MOL0     H 8981   7.592  11.109   7.648  1.0107  2.6701 -1.0188
  826MOL0     H 8982   7.644  11.192   7.504 -2.8731  2.8806 -0.5113
  826MOL0     H 8983   7.366  11.069   7.529 -0.5857 -0.5780 -2.4910
  826MOL0     H 8984   7.443  11.136   7.387 -1.6547 -1.7539 -0.4854
  826MOL0     H 8985   7.295  11.216   7.736  0.2624  1.4474  0.9043
  826MOL0     H 8986   7.400  11.507   7.874 -1.1671  0.5019  1.2302
  826MOL0     H 8987   7.257  11.409   7.871  1.3918 -3.1447 -2.4501
  826MOL0     H 8988   7.311  11.694   7.762  0.1257 -0.2443 -1.9386
  826MOL0     H 8989   7.179  11.654   7.889 -3.6820 -0.6468 -1.4506
  826MOL0     H 8990   7.167  11.591   7.603 -0.0787  0.9406  1.0463
  826MOL0     H 8991   7.061  11.518   7.714  0.3761 -0.8867 -0.8226
  826MOL0     H 8992   6.994  11.746   7.604 -0.8789 -1.8925  0.1015
  826MOL0     H 8993   7.096  11.818   7.739  1.4152 -2.9910  4.2690
  826MOL0     H 8994   6.789  11.898   7.884 -2.7174  1.5311  1.2497
  826MOL0     H 8995   6.560  11.956   7.821  1.5166  0.3661  2.9671
  826MOL0     H 8996   6.265  12.124   7.629 -0.0603 -0.0697  0.8721
  826MOL0     H 8997   6.071  12.195   7.503  1.2410 -0.2699  2.3588
  826MOL0     H 8998   5.760  12.158   7.286 -0.5199  4.1199 -0.0719
  826MOL0     H 8999   5.936  12.189   7.326  1.5425 -0.6643  3.7485
  826MOL0     H 9000   5.849  12.367   7.407 -0.7257  0.2422  0.9004
  826MOL0     H 9001   5.829  12.258   7.549 -0.3419 -2.2979 -0.5181
  826MOL0     H 9002   5.606  12.329   7.357 -0.5056 -2.1162 -0.5373
  826MOL0     H 9003   5.630  12.401   7.515  3.3523  2.7666 -1.9160
  826MOL0     H 9004   5.604  12.099   7.453 -3.7143  0.1274 -0.9738
  826MOL0     H 9005   5.611  12.168   7.619 -1.8159 -0.5020  0.3336
  826MOL0     H 9006   5.377  12.287   7.501 -0.5809 -0.0942 -0.5577
  826MOL0     H 9007   5.391  12.152   7.615  0.0172  1.3606  0.2779
  826MOL0     H 9008   5.428  12.013   7.393  1.6590  1.8776 -4.5740
  826MOL0     H 9009   5.384  12.153   7.310  1.0463  0.3567  0.2261
  826MOL0     H 9010   5.208  11.985   7.345  2.1992  1.5568 -2.5732
  826MOL0     H 9011   5.174  12.054   7.510 -0.2469 -0.3088 -0.7299
  826MOL0     H 9012   5.173  12.275   7.379  0.2376  0.8988 -3.1679
  826MOL0     H 9013   5.025  12.177   7.383 -0.3094 -2.9327  1.6836
  826MOL0     H 9014   5.908  11.800   7.520  1.1124 -1.4932  0.7849
  826MOL0     H 9015   6.100  11.738   7.662 -3.3150 -0.2023 -0.2165
  826MOL0     H 9016   6.565  11.586   7.575  0.3764  0.8038  0.2101
  826MOL0     H 9017   6.800  11.565   7.614 -0.0967 -1.2648 -0.6280
  826MOL0     H 9018   8.421  10.562   7.337  0.2624  3.2047  1.8760
  826MOL0     H 9019   8.598  10.505   7.174  0.2034  0.1839 -1.0435
  826MOL0     H 9020   8.992  10.793   6.908  0.1667 -0.3185 -0.5274
  826MOL0     H 9021   9.179  10.688   6.780 -0.3852  1.2391  0.4840
  826MOL0     H 9022   9.034  10.553   6.408 -1.0450 -0.4495  2.0378
  826MOL0     H 9023   9.073  10.394   6.447  0.5876  0.0344  1.9152
  826MOL0     H 9024   9.201  10.509   6.243 -2.8843  0.8363  1.9209
  826MOL0     H 9025   9.286  10.614   6.343  1.3934  0.0001  1.1674
  826MOL0     H 9026   9.419  10.425   6.450  1.5036 -0.8835 -1.4763
  826MOL0     H 9027   9.414  10.431   6.277  0.7835  1.9888 -0.7471
  826MOL0     H 9028   9.256  10.252   6.467 -0.6071  1.6360  0.4008
  826MOL0     H 9029   9.230  10.242   6.289  0.1907 -1.1237 -0.9325
  826MOL0     H 9030   9.617  10.052   6.347  0.5927 -0.3674  0.4517
  826MOL0     H 9031   8.904  10.441   6.579 -0.1845 -1.5200  2.7215
  826MOL0     H 9032   8.713  10.512   6.717 -0.1098 -1.6981 -2.0584
  827MOL0     O 9033   9.420   1.428   0.540 -1.0962 -0.2736  0.8166
  827MOL0     C 9034   9.365   1.328   0.492  0.9483  0.5726  0.8444
  827MOL0     O 9035   9.431   1.228   0.421 -0.3950 -0.4283 -0.1136
  827MOL0     C 9036   9.572   1.222   0.424  0.4322  0.1534  0.0123
  827MOL0     C 9037   9.632   1.193   0.304 -0.0633  0.2968 -0.5022
  827MOL0     C 9038   9.773   1.190   0.295 -0.6801 -0.5509  0.6259
  827MOL0     C 9039   9.859   1.209   0.405 -0.5305 -0.6897  0.0878
  827MOL0     O 9040   9.994   1.199   0.407  1.1479  0.1202  0.5207
  827MOL0     C 9041  10.050   1.132   0.293  0.4471 -0.6143  0.8650
  827MOL0     C 9042  10.203   1.121   0.308  0.3313  0.7758  0.1472
  827MOL0     C 9043  10.263   1.255   0.259 -0.7357  0.9296  0.0283
  827MOL0     C 9044  10.419   1.258   0.233 -0.9893  0.6485  0.6354
  827MOL0     C 9045  10.518   1.220   0.346 -0.2525  0.4683  0.4315
  827MOL0     C 9046  10.509   1.288   0.487  0.0412  0.1569 -0.2634
  827MOL0     C 9047  10.623   1.262   0.588  0.0925 -1.1397 -0.2949
  827MOL0     C 9048  10.647   1.118   0.624  0.2235  0.2720  0.8007
  827MOL0     N 9049  10.523   1.056   0.674 -0.5219 -0.2506 -0.9472
  827MOL0     C 9050  10.482   1.064   0.804 -0.4947  0.7166  0.4729
  827MOL0     C 9051  10.357   1.011   0.803  0.3736 -0.2882  0.3982
  827MOL0     C 9052  10.270   0.989   0.922  0.6460 -0.1897  0.3488
  827MOL0     C 9053  10.161   1.094   0.941  0.0710 -0.0035  0.2504
  827MOL0     C 9054  10.083   1.120   0.808 -0.5474 -0.7030 -0.4246
  827MOL0     C 9055   9.969   1.018   0.793 -0.3152  0.5110  0.2981
  827MOL0     O 9056   9.890   1.035   0.909  0.2699  1.2011  0.5614
  827MOL0     C 9057   9.753   1.024   0.905  0.3323 -0.3897  0.6294
  827MOL0     C 9058   9.704   1.001   1.035  0.0050  0.5654  0.4384
  827MOL0     C 9059   9.572   1.002   1.055  0.2909 -0.6831  0.1012
  827MOL0     C 9060   9.481   1.040   0.948 -0.1143  0.4150  0.1859
  827MOL0     C 9061   9.327   1.055   0.977 -0.0935 -0.1516  0.5106
  827MOL0     O 9062   9.249   1.092   0.871 -0.2854 -0.3329 -0.5912
  827MOL0     C 9063   9.109   1.095   0.871  0.2902 -0.7438 -0.2678
  827MOL0     C 9064   9.048   1.128   0.749 -0.2314 -1.0208 -0.0395
  827MOL0     C 9065   8.912   1.159   0.735  0.3481  0.0503 -0.4904
  827MOL0     C 9066   8.839   1.156   0.846  0.4621  0.3114 -0.5475
  827MOL0     O 9067   8.712   1.200   0.832  0.2425  0.0618 -0.3003
  827MOL0     C 9068   8.673   1.326   0.894 -0.0788  0.2804  0.0836
  827MOL0     C 9069   8.531   1.309   0.936  0.6525  0.2517 -0.2423
  827MOL0     C 9070   8.481   1.445   0.987  0.3567 -0.4059  0.2486
  827MOL0     C 9071   8.332   1.439   1.021  0.1791 -0.3725 -0.6762
  827MOL0     C 9072   8.251   1.455   0.897 -0.0366 -0.3565  0.1455
  827MOL0     C 9073   8.104   1.441   0.944  0.1842  0.0070 -0.1734
  827MOL0     C 9074   7.999   1.470   0.829 -0.8124  1.2648  0.7314
  827MOL0     C 9075   8.002   1.375   0.716  0.3032 -1.0077  0.0120
  827MOL0    Cl 9076   7.846   1.420   0.629 -0.6070  0.1512 -0.5532
  827MOL0     C 9077   8.891   1.121   0.969  1.0524  0.7727 -0.1362
  827MOL0     C 9078   9.024   1.088   0.986 -1.0846 -0.1271  0.6915
  827MOL0     O 9079   9.290   1.029   1.085  0.6229  0.2807  0.2776
  827MOL0     C 9080   9.530   1.027   0.814  0.3397 -0.3291 -0.1943
  827MOL0     C 9081   9.665   1.024   0.794 -0.7502  0.6242 -0.8006
  827MOL0     N 9082  10.330   0.968   0.674  0.0286  0.0606  0.3191
  827MOL0     N 9083  10.430   0.995   0.604 -0.1542 -0.0654 -1.1097
  827MOL0     C 9084   9.803   1.250   0.520  0.4577  0.3588 -0.3190
  827MOL0     C 9085   9.657   1.250   0.535 -0.1556  0.1799  0.6398
  827MOL0     C 9086   9.218   1.332   0.472  0.6498 -0.0198  0.8569
  827MOL0     C 9087   9.149   1.449   0.509  0.4828  0.3202 -0.3294
  827MOL0     C 9088   9.008   1.462   0.489 -0.8297  0.5095  0.5188
  827MOL0     C 9089   8.934   1.347   0.447  0.6499 -0.0674  0.5630
  827MOL0     O 9090   8.798   1.333   0.431  0.4896 -0.6658  0.0986
  827MOL0     C 9091   8.712   1.404   0.515 -0.2065 -0.3406 -0.1226
  827MOL0     C 9092   8.576   1.455   0.451  0.0860  1.2417  0.9057
  827MOL0     C 9093   8.453   1.473   0.548 -0.9515  0.0460 -0.0382
  827MOL0     C 9094   8.341   1.539   0.490 -0.2123 -1.6442  0.1682
  827MOL0     C 9095   8.266   1.439   0.420 -0.4703 -1.2625  0.1107
  827MOL0     C 9096   8.193   1.377   0.342 -0.4798  0.1060 -0.1269
  827MOL0     C 9097   9.008   1.237   0.393 -0.0726  0.6118 -0.2920
  827MOL0     C 9098   9.147   1.234   0.405  0.4369  1.2109 -0.7398
  827MOL0     H 9099   9.579   1.167   0.213  1.8003  1.2198 -1.9142
  827MOL0     H 9100   9.823   1.157   0.205  0.5313  5.5097 -1.4376
  827MOL0     H 9101  10.042   1.183   0.196  0.5714 -0.7992  0.7578
  827MOL0     H 9102  10.011   1.030   0.290 -1.8758  0.2148  0.3759
  827MOL0     H 9103  10.245   1.043   0.244 -1.3441  0.4324 -0.5707
  827MOL0     H 9104  10.233   1.092   0.409 -2.1346 -0.2069  0.6781
  827MOL0     H 9105  10.241   1.332   0.333  2.1053  3.7481 -1.7638
  827MOL0     H 9106  10.216   1.293   0.168  2.7778  0.6373 -2.1200
  827MOL0     H 9107  10.436   1.185   0.153  0.5891 -2.5622  3.6364
  827MOL0     H 9108  10.457   1.354   0.200  0.3345 -0.5553 -1.5550
  827MOL0     H 9109  10.619   1.238   0.308  0.2334 -3.0228 -0.3492
  827MOL0     H 9110  10.516   1.110   0.350  0.6758  0.3096 -1.8805
  827MOL0     H 9111  10.413   1.266   0.535  0.5692  1.8412  1.7020
  827MOL0     H 9112  10.514   1.391   0.451 -0.5803 -0.2115 -1.4432
  827MOL0     H 9113  10.711   1.322   0.563 -2.7465  2.9834 -1.5885
  827MOL0     H 9114  10.594   1.311   0.682 -0.4461  0.9301 -1.4598
  827MOL0     H 9115  10.721   1.108   0.704  0.5851 -1.0675  0.3377
  827MOL0     H 9116  10.659   1.065   0.529  1.0833  2.9084 -0.6540
  827MOL0     H 9117  10.539   1.102   0.888  1.2848  0.3136 -0.5246
  827MOL0     H 9118  10.322   0.989   1.018 -0.0198  0.1382  0.7188
  827MOL0     H 9119  10.226   0.894   0.889 -1.6235  0.4937  1.2252
  827MOL0     H 9120  10.227   1.179   0.960  1.8373 -1.0682 -0.7925
  827MOL0     H 9121  10.101   1.071   1.030  1.3440  0.2286  1.1989
  827MOL0     H 9122  10.035   1.218   0.807  3.0229  1.4135  2.9133
  827MOL0     H 9123  10.135   1.121   0.712 -1.8395 -3.5427 -1.2472
  827MOL0     H 9124  10.010   0.917   0.785 -1.6436 -0.2961  2.6857
  827MOL0     H 9125   9.909   1.036   0.703  1.1545 -2.2573 -1.3998
  827MOL0     H 9126   9.764   1.001   1.126  0.3826  2.2141  0.2269
  827MOL0     H 9127   9.521   1.012   1.150 -2.2631 -1.4022 -1.1111
  827MOL0     H 9128   9.111   1.147   0.663  0.7417  0.2279  0.9036
  827MOL0     H 9129   8.871   1.192   0.640 -0.7630  3.3998  0.9952
  827MOL0     H 9130   8.684   1.409   0.825  0.6017 -1.1323 -1.5921
  827MOL0     H 9131   8.731   1.353   0.983  1.4333  0.2594 -0.8764
  827MOL0     H 9132   8.517   1.246   1.024  1.6271 -0.9073 -0.8781
  827MOL0     H 9133   8.474   1.271   0.850  2.5960  0.3982 -1.6513
  827MOL0     H 9134   8.495   1.520   0.908  0.5214 -1.2913 -0.5792
  827MOL0     H 9135   8.550   1.464   1.071  2.4422  1.1776 -1.6758
  827MOL0     H 9136   8.311   1.349   1.079 -1.1272  1.1805  1.4178
  827MOL0     H 9137   8.310   1.526   1.083  1.3288  0.6854 -1.7001
  827MOL0     H 9138   8.283   1.387   0.817  3.1945 -2.2663  2.7971
  827MOL0     H 9139   8.264   1.558   0.864 -0.4327  0.2727  1.8794
  827MOL0     H 9140   8.091   1.509   1.028  1.2785  1.7331 -1.3352
  827MOL0     H 9141   8.081   1.339   0.976  4.8000 -1.2125  0.0392
  827MOL0     H 9142   7.904   1.469   0.883 -0.4463 -1.7528  1.4581
  827MOL0     H 9143   8.020   1.570   0.789  1.9022 -0.6776 -3.4307
  827MOL0     H 9144   7.978   1.274   0.751 -1.8264 -0.6948 -0.4094
  827MOL0     H 9145   8.098   1.394   0.667 -0.0373  1.2885  0.1014
  827MOL0     H 9146   8.823   1.121   1.054 -2.3354 -1.3446 -2.5723
  827MOL0     H 9147   9.071   1.069   1.083  1.3643  1.0192 -0.1788
  827MOL0     H 9148   9.468   1.022   0.725  0.7892  1.2003 -0.6312
  827MOL0     H 9149   9.703   1.031   0.693 -0.4757 -0.8403 -0.8228
  827MOL0     H 9150   9.859   1.266   0.612 -1.4289  2.4276  0.5565
  827MOL0     H 9151   9.609   1.269   0.631 -0.4736 -1.3999  0.8135
  827MOL0     H 9152   9.190   1.526   0.573 -0.9589 -0.5717  1.8405
  827MOL0     H 9153   8.953   1.549   0.523 -0.8899  1.0715 -0.9287
  827MOL0     H 9154   8.754   1.488   0.571  2.5439 -3.4422  2.9665
  827MOL0     H 9155   8.682   1.323   0.583  0.5523 -1.1978 -0.7933
  827MOL0     H 9156   8.603   1.546   0.396  4.6572 -1.4520 -1.8224
  827MOL0     H 9157   8.552   1.371   0.385  3.5566 -0.9721  2.1956
  827MOL0     H 9158   8.490   1.548   0.619 -1.1999 -0.3494  0.5114
  827MOL0     H 9159   8.425   1.374   0.585  1.0819 -0.4928  0.1867
  827MOL0     H 9160   8.277   1.577   0.571 -0.5987 -1.5388 -0.1808
  827MOL0     H 9161   8.384   1.609   0.418 -0.5951 -2.0580 -0.4734
  827MOL0     H 9162   8.133   1.310   0.284  1.1660 -0.8696 -0.7697
  827MOL0     H 9163   8.955   1.161   0.336  0.1929  3.3784 -4.6568
  827MOL0     H 9164   9.198   1.145   0.369 -1.0239 -0.7243  1.6588
  828MOL0     O 9165   9.951   4.299   4.280  0.4166 -0.2581 -0.3303
  828MOL0     C 9166  10.009   4.399   4.252  0.2033  0.0659 -0.3800
  828MOL0     O 9167   9.953   4.517   4.261 -0.8005 -0.3636  0.6685
  828MOL0     C 9168   9.839   4.536   4.339  0.3026  0.2181  0.0630
  828MOL0     C 9169   9.721   4.562   4.271  0.8461  0.2375 -0.0866
  828MOL0     C 9170   9.601   4.577   4.339 -0.7650 -0.2918  0.7879
  828MOL0     C 9171   9.593   4.582   4.476  0.4382 -0.5468  0.5041
  828MOL0     O 9172   9.481   4.600   4.552  1.1635  0.0716 -0.0688
  828MOL0     C 9173   9.366   4.529   4.504  0.1268 -0.5059  0.5610
  828MOL0     C 9174   9.263   4.565   4.607 -0.6468  0.1511 -0.0439
  828MOL0     C 9175   9.129   4.490   4.591 -0.8535  0.1543 -0.0420
  828MOL0     C 9176   9.032   4.530   4.707  0.3756 -0.1208 -0.7280
  828MOL0     C 9177   8.904   4.453   4.665 -0.4611 -0.2756 -0.0367
  828MOL0     C 9178   8.790   4.479   4.771 -1.5141  0.1096  0.2724
  828MOL0     C 9179   8.670   4.389   4.743  0.6017 -0.3769  0.0893
  828MOL0     C 9180   8.612   4.381   4.605  0.8607 -0.4154 -0.1841
  828MOL0     N 9181   8.478   4.326   4.604  0.7522  0.2825 -0.1616
  828MOL0     C 9182   8.369   4.394   4.658  0.3896 -0.7023  0.5995
  828MOL0     C 9183   8.282   4.294   4.678 -0.4437  0.2031  0.3656
  828MOL0     C 9184   8.166   4.311   4.772 -0.9835  0.6676  0.2866
  828MOL0     C 9185   8.039   4.255   4.713  0.0434 -0.3063 -0.9258
  828MOL0     C 9186   7.921   4.245   4.813  0.3042  0.0839 -0.7812
  828MOL0     C 9187   7.803   4.181   4.744 -0.2932 -0.0160  0.5487
  828MOL0     O 9188   7.709   4.131   4.835 -0.4183  0.5005 -0.1457
  828MOL0     C 9189   7.589   4.109   4.784 -0.0126 -0.3581  0.3585
  828MOL0     C 9190   7.565   4.069   4.651 -0.7873 -0.1883 -1.0817
  828MOL0     C 9191   7.432   4.033   4.612 -0.1536  0.0539 -1.1221
  828MOL0     C 9192   7.322   4.031   4.703 -0.3237  0.1744 -1.1011
  828MOL0     C 9193   7.197   3.956   4.668 -0.3078 -0.0501 -0.1493
  828MOL0     O 9194   7.110   3.936   4.775 -0.6836 -0.9400 -0.4215
  828MOL0     C 9195   6.991   3.861   4.774  0.2515  0.0976  1.1833
  828MOL0     C 9196   6.899   3.888   4.874 -0.6296 -0.6696 -0.3279
  828MOL0     C 9197   6.789   3.809   4.886  0.3261 -1.1049 -0.2892
  828MOL0     C 9198   6.758   3.706   4.810 -0.4211 -0.0105 -0.1381
  828MOL0     O 9199   6.644   3.640   4.835  0.7393  0.4110  0.3589
  828MOL0     C 9200   6.588   3.556   4.732  0.0864  0.1545 -0.7180
  828MOL0     C 9201   6.456   3.495   4.793 -0.0607  0.4051  0.8041
  828MOL0     C 9202   6.342   3.593   4.783  0.2174 -0.2595  0.4019
  828MOL0     C 9203   6.261   3.574   4.645 -0.2936 -0.7743  0.4381
  828MOL0     C 9204   6.160   3.455   4.633 -0.2281 -0.1266 -0.1128
  828MOL0     C 9205   6.044   3.453   4.733 -0.3450  0.2890 -0.3017
  828MOL0     C 9206   5.943   3.550   4.680 -0.6257 -0.7285  0.4322
  828MOL0     C 9207   5.806   3.528   4.734 -0.2469  0.3781  2.1525
  828MOL0    Cl 9208   5.795   3.590   4.898  0.2201 -0.4456 -0.4233
  828MOL0     C 9209   6.851   3.674   4.708 -0.1838 -1.1001  0.5776
  828MOL0     C 9210   6.972   3.750   4.702 -0.4641  0.4320  0.1821
  828MOL0     O 9211   7.170   3.936   4.546  1.0395  0.0939 -0.3651
  828MOL0     C 9212   7.348   4.096   4.825 -0.5017  1.2612  0.0642
  828MOL0     C 9213   7.481   4.122   4.874  0.1343  0.1160  0.3128
  828MOL0     N 9214   8.329   4.177   4.619  0.0130  0.8200  0.5868
  828MOL0     N 9215   8.441   4.201   4.573 -0.9398 -0.4742  0.5252
  828MOL0     C 9216   9.712   4.562   4.548 -0.8179  0.6885 -0.7450
  828MOL0     C 9217   9.840   4.537   4.481 -0.1408  0.4558 -0.4339
  828MOL0     C 9218  10.146   4.379   4.187  0.8192 -0.2098  0.7830
  828MOL0     C 9219  10.206   4.252   4.178 -0.0236  1.4308  0.7442
  828MOL0     C 9220  10.323   4.237   4.097  1.0922  0.6328  0.0983
  828MOL0     C 9221  10.391   4.343   4.039  0.2381 -0.7236 -0.2265
  828MOL0     O 9222  10.501   4.349   3.958  0.5214  0.3845 -0.7143
  828MOL0     C 9223  10.584   4.233   3.945  0.0296 -0.0679 -0.2075
  828MOL0     C 9224  10.709   4.264   3.853 -0.1056 -0.3321  0.4929
  828MOL0     C 9225  10.661   4.313   3.708 -0.0465  0.1399 -0.6775
  828MOL0     C 9226  10.556   4.226   3.632 -0.3784 -0.4061 -0.2832
  828MOL0     C 9227  10.539   4.073   3.643  0.1608 -0.8728  0.5145
  828MOL0     C 9228  10.534   3.953   3.647 -0.6682 -0.2457  0.3061
  828MOL0     C 9229  10.334   4.471   4.069  0.8084 -1.0425  0.2272
  828MOL0     C 9230  10.214   4.490   4.135 -0.6575 -0.4162 -1.4143
  828MOL0     H 9231   9.727   4.564   4.162  0.7606 -1.8420 -0.1589
  828MOL0     H 9232   9.513   4.585   4.277  0.9572  1.4731 -1.6205
  828MOL0     H 9233   9.375   4.420   4.501  0.2357 -0.4857  0.2020
  828MOL0     H 9234   9.336   4.571   4.408  3.2405  1.8518  0.4584
  828MOL0     H 9235   9.250   4.673   4.607 -3.4701 -0.0026  3.3533
  828MOL0     H 9236   9.299   4.545   4.708 -1.9752 -2.5123  0.0040
  828MOL0     H 9237   9.147   4.382   4.594  1.4580  0.4993  2.3415
  828MOL0     H 9238   9.086   4.517   4.495 -2.0666  1.2668  0.7830
  828MOL0     H 9239   9.081   4.502   4.801  0.4598 -0.1400 -0.7782
  828MOL0     H 9240   9.005   4.636   4.715 -0.6186 -0.4345  0.4231
  828MOL0     H 9241   8.918   4.345   4.659 -2.5149 -0.6476  1.0172
  828MOL0     H 9242   8.876   4.484   4.564  0.6802  2.7092  0.4476
  828MOL0     H 9243   8.745   4.577   4.756  0.9588  1.1677 -0.7343
  828MOL0     H 9244   8.819   4.465   4.875  0.2029  1.1978 -0.0328
  828MOL0     H 9245   8.688   4.287   4.779 -1.9833 -0.3623  1.6498
  828MOL0     H 9246   8.592   4.414   4.815  0.4046 -1.6741  0.3584
  828MOL0     H 9247   8.684   4.328   4.542  2.6342  0.3748  1.0940
  828MOL0     H 9248   8.609   4.478   4.555  1.3640 -0.3916 -0.1754
  828MOL0     H 9249   8.355   4.496   4.690 -1.4039  0.4380 -3.2988
  828MOL0     H 9250   8.159   4.420   4.785  1.1426  0.9329 -0.5773
  828MOL0     H 9251   8.190   4.259   4.865  6.9990  1.4436 -0.6917
  828MOL0     H 9252   8.059   4.151   4.684 -0.2446 -1.1382  1.5931
  828MOL0     H 9253   8.017   4.321   4.629 -0.6070  1.5006  0.6059
  828MOL0     H 9254   7.950   4.190   4.903 -0.5125  0.8743 -0.0181
  828MOL0     H 9255   7.880   4.341   4.846  1.3957  0.1947  0.3314
  828MOL0     H 9256   7.844   4.109   4.673  2.6791  1.7589  0.2941
  828MOL0     H 9257   7.754   4.250   4.674 -0.6384 -0.8814 -0.0835
  828MOL0     H 9258   7.642   4.040   4.580 -1.6841 -3.2160 -0.9681
  828MOL0     H 9259   7.418   4.008   4.507 -1.8195 -0.6875 -0.7380
  828MOL0     H 9260   6.930   3.973   4.934  2.2103 -1.1986 -0.8894
  828MOL0     H 9261   6.720   3.832   4.967 -1.6879  1.1431 -2.4664
  828MOL0     H 9262   6.650   3.468   4.714 -1.3664 -1.4868  1.7364
  828MOL0     H 9263   6.576   3.616   4.642 -2.5181  3.3671  1.4992
  828MOL0     H 9264   6.485   3.469   4.895  3.2376  0.9921  0.1501
  828MOL0     H 9265   6.430   3.412   4.728 -0.6452  3.2027 -2.8668
  828MOL0     H 9266   6.393   3.689   4.797  0.3676 -0.4970  1.5768
  828MOL0     H 9267   6.275   3.599   4.869 -1.6338  1.9236 -1.0926
  828MOL0     H 9268   6.205   3.667   4.638 -0.1448 -0.4795  2.4297
  828MOL0     H 9269   6.336   3.563   4.567  0.7313  2.0077  0.9096
  828MOL0     H 9270   6.225   3.367   4.641  2.4540  1.4064 -3.0495
  828MOL0     H 9271   6.135   3.450   4.527  0.6111  2.5383 -0.5148
  828MOL0     H 9272   6.070   3.484   4.834 -0.7622  0.4374 -0.2403
  828MOL0     H 9273   6.000   3.353   4.734 -1.3917  0.6853 -2.1277
  828MOL0     H 9274   5.979   3.653   4.689 -1.4624 -0.3679 -0.1477
  828MOL0     H 9275   5.926   3.543   4.572 -1.0697  0.4801  0.4076
  828MOL0     H 9276   5.783   3.421   4.730 -1.3368  0.5584 -2.8718
  828MOL0     H 9277   5.737   3.595   4.680  1.7041  0.9626  0.2462
  828MOL0     H 9278   6.843   3.591   4.638 -1.3437 -0.7216  0.2469
  828MOL0     H 9279   7.051   3.722   4.633 -0.3535  2.7740 -0.7163
  828MOL0     H 9280   7.267   4.112   4.895 -0.1155  0.1765  0.7958
  828MOL0     H 9281   7.494   4.154   4.977 -2.3230  1.8433  0.1684
  828MOL0     H 9282   9.710   4.542   4.654  2.0220  1.9453 -0.3676
  828MOL0     H 9283   9.927   4.501   4.534  0.0050 -0.5232 -1.2927
  828MOL0     H 9284  10.145   4.164   4.194  0.3984 -0.0984 -4.4316
  828MOL0     H 9285  10.364   4.136   4.089  0.1102  0.2908 -0.7596
  828MOL0     H 9286  10.519   4.156   3.904  0.1217  0.3798 -1.2210
  828MOL0     H 9287  10.610   4.197   4.045 -0.3938 -2.9954 -1.0793
  828MOL0     H 9288  10.777   4.338   3.898 -1.3657  0.8747  0.4901
  828MOL0     H 9289  10.779   4.182   3.835  3.5692  2.4621  0.6812
  828MOL0     H 9290  10.748   4.322   3.643 -1.4573  1.2713 -2.4978
  828MOL0     H 9291  10.617   4.412   3.715 -1.2824 -0.3855 -0.7978
  828MOL0     H 9292  10.459   4.271   3.655  1.2223  3.6585 -0.7204
  828MOL0     H 9293  10.569   4.244   3.525 -1.6576  2.5340 -0.0201
  828MOL0     H 9294  10.530   3.850   3.673  1.7508  0.3357  3.5758
  828MOL0     H 9295  10.376   4.555   4.015 -0.7950 -1.0454 -1.1221
  828MOL0     H 9296  10.188   4.594   4.147 -0.7832 -0.6298  0.4885
  829MOL0     O 9297   8.148  10.907   9.151  0.5083 -0.3955  0.3410
  829MOL0     C 9298   8.073  10.813   9.187  0.7217  0.5790  0.1613
  829MOL0     O 9299   8.100  10.681   9.146  0.4190  0.1364 -0.3089
  829MOL0     C 9300   8.199  10.644   9.050  1.4718  0.0632  0.3342
  829MOL0     C 9301   8.274  10.532   9.077 -0.5325 -0.4497 -0.1260
  829MOL0     C 9302   8.366  10.482   8.990 -0.3849  0.3574  0.4603
  829MOL0     C 9303   8.399  10.533   8.871  0.4959  0.3568 -0.1398
  829MOL0     O 9304   8.493  10.472   8.801 -0.9319 -1.4529  0.9246
  829MOL0     C 9305   8.572  10.547   8.708  0.1254 -0.7582 -0.2385
  829MOL0     C 9306   8.723  10.510   8.710 -0.1935 -0.2043  1.0087
  829MOL0     C 9307   8.752  10.381   8.649 -0.0610  0.8473  1.4440
  829MOL0     C 9308   8.906  10.355   8.653  0.6085 -0.5628  0.0412
  829MOL0     C 9309   8.944  10.239   8.567 -0.2350  0.2295  0.8047
  829MOL0     C 9310   8.914  10.104   8.638 -0.1172 -0.3883 -0.5584
  829MOL0     C 9311   8.937   9.976   8.555 -0.8586  0.6446 -0.7587
  829MOL0     C 9312   9.081   9.960   8.513 -0.6926  0.0085  0.0478
  829MOL0     N 9313   9.149   9.865   8.608  0.1073 -0.0392  0.4170
  829MOL0     C 9314   9.205   9.898   8.730 -0.2475 -0.1028  0.5373
  829MOL0     C 9315   9.241   9.768   8.769 -0.1353  0.9304  0.1829
  829MOL0     C 9316   9.300   9.748   8.906 -0.3177  0.2915 -0.6018
  829MOL0     C 9317   9.456   9.788   8.916  0.1188 -0.8363  0.5846
  829MOL0     C 9318   9.552   9.660   8.905 -0.1487  0.4083 -0.3980
  829MOL0     C 9319   9.528   9.536   9.000  0.2968  0.0138 -0.5796
  829MOL0     O 9320   9.494   9.585   9.136  0.3995  0.2606  0.1106
  829MOL0     C 9321   9.373   9.566   9.194  0.0663 -0.8990 -0.1595
  829MOL0     C 9322   9.318   9.668   9.276  0.6859  0.2652 -1.3821
  829MOL0     C 9323   9.194   9.654   9.349 -0.9552  0.1194  0.1345
  829MOL0     C 9324   9.123   9.536   9.325  0.2702  0.9421 -0.9457
  829MOL0     C 9325   9.001   9.509   9.412  0.3625 -0.4443 -0.7939
  829MOL0     O 9326   8.931   9.614   9.473  0.1177 -0.7746  0.0256
  829MOL0     C 9327   8.802   9.589   9.510  0.9127  0.1074 -0.2933
  829MOL0     C 9328   8.772   9.549   9.642 -0.5478 -0.0990 -0.1833
  829MOL0     C 9329   8.645   9.501   9.674  0.0485  0.2765  0.6622
  829MOL0     C 9330   8.542   9.498   9.583  0.3386  0.1543 -0.1773
  829MOL0     O 9331   8.414   9.453   9.614  0.0024  0.3566  0.5605
  829MOL0     C 9332   8.307   9.517   9.552 -0.3915 -0.1737 -0.7421
  829MOL0     C 9333   8.200   9.543   9.651  0.5458  0.0732  0.4741
  829MOL0     C 9334   8.075   9.601   9.577  0.6301  0.4561 -0.7075
  829MOL0     C 9335   7.942   9.589   9.664  0.4214  0.6654  0.7097
  829MOL0     C 9336   7.840   9.674   9.594 -0.6075 -0.2726  0.8789
  829MOL0     C 9337   7.718   9.693   9.682  0.2408 -0.5712  0.4243
  829MOL0     C 9338   7.628   9.785   9.610  0.4719  0.5915  0.6364
  829MOL0     C 9339   7.484   9.793   9.659 -0.4499 -0.1454  0.1188
  829MOL0    Cl 9340   7.371   9.919   9.578 -0.1255 -0.1855  0.1000
  829MOL0     C 9341   8.568   9.526   9.451 -0.3823  0.4709 -0.1319
  829MOL0     C 9342   8.700   9.570   9.413  0.1190  0.3166 -0.0616
  829MOL0     O 9343   8.960   9.393   9.399 -0.5268 -0.0429 -0.0206
  829MOL0     C 9344   9.181   9.436   9.246 -0.2280  0.2315 -1.0490
  829MOL0     C 9345   9.300   9.451   9.177 -0.2287 -0.7835  0.5276
  829MOL0     N 9346   9.193   9.670   8.678 -0.3742  0.7888 -0.3550
  829MOL0     N 9347   9.154   9.736   8.572  0.6843  0.2135  0.0641
  829MOL0     C 9348   8.327  10.648   8.841 -0.2396 -0.4274 -0.7342
  829MOL0     C 9349   8.232  10.710   8.930  0.4863 -0.1937  0.0280
  829MOL0     C 9350   7.950  10.850   9.265  0.0170  0.4836  0.5217
  829MOL0     C 9351   7.870  10.750   9.322  0.6443  0.0307 -0.2112
  829MOL0     C 9352   7.746  10.784   9.379 -0.3279  0.3687  0.5917
  829MOL0     C 9353   7.707  10.922   9.379  0.4097 -0.3543 -0.3161
  829MOL0     O 9354   7.587  10.961   9.432 -0.4503 -0.3410  0.2718
  829MOL0     C 9355   7.467  10.919   9.357 -0.8789  0.3760  1.5065
  829MOL0     C 9356   7.405  11.032   9.279  0.1517 -0.8644 -0.9360
  829MOL0     C 9357   7.404  11.164   9.355  0.1424  0.5115  0.1552
  829MOL0     C 9358   7.296  11.256   9.285 -0.6588 -0.4862  0.2654
  829MOL0     C 9359   7.294  11.394   9.342  0.1995  0.1013  0.1422
  829MOL0     C 9360   7.314  11.508   9.380  0.6931  0.1544  0.6619
  829MOL0     C 9361   7.786  11.020   9.326  0.2840 -0.7739 -0.0776
  829MOL0     C 9362   7.908  10.986   9.277 -0.8209 -0.6222 -0.2162
  829MOL0     H 9363   8.257  10.475   9.168 -0.5831  0.4105  0.4211
  829MOL0     H 9364   8.426  10.403   9.034 -2.5731  0.3032  3.6851
  829MOL0     H 9365   8.568  10.654   8.730 -2.1434 -1.0837  1.2798
  829MOL0     H 9366   8.554  10.535   8.601  1.3290  3.1321 -1.0453
  829MOL0     H 9367   8.770  10.504   8.809  2.6347 -2.6613 -0.3350
  829MOL0     H 9368   8.767  10.594   8.656 -1.2567 -0.2981 -0.0433
  829MOL0     H 9369   8.706  10.354   8.553 -1.5528 -0.7527  2.5412
  829MOL0     H 9370   8.712  10.300   8.711 -0.6893 -0.2137 -0.2832
  829MOL0     H 9371   8.960  10.442   8.613  1.6857 -0.4877  1.5768
  829MOL0     H 9372   8.932  10.360   8.759 -1.8005  1.7250  0.6300
  829MOL0     H 9373   9.052  10.244   8.551 -0.6086 -0.8020 -3.3510
  829MOL0     H 9374   8.888  10.236   8.473  2.6669 -2.4895 -1.0624
  829MOL0     H 9375   8.805  10.099   8.652  0.1275 -0.3366  1.7738
  829MOL0     H 9376   8.968  10.097   8.733 -3.2282  2.4639  1.6664
  829MOL0     H 9377   8.899   9.895   8.617  2.1439 -0.7242 -0.5518
  829MOL0     H 9378   8.871   9.981   8.467 -1.5326 -0.0827 -0.3011
  829MOL0     H 9379   9.138  10.054   8.510 -2.4096  1.2230  2.4603
  829MOL0     H 9380   9.083   9.921   8.410 -0.1953 -2.6732  0.9888
  829MOL0     H 9381   9.224   9.995   8.774  1.6567  1.0139 -2.4745
  829MOL0     H 9382   9.287   9.642   8.932 -0.4464  0.5346  0.3600
  829MOL0     H 9383   9.253   9.814   8.978 -0.3962 -0.2730 -0.1268
  829MOL0     H 9384   9.486   9.839   9.007  2.3214 -1.7763  0.4473
  829MOL0     H 9385   9.470   9.855   8.831 -0.8719 -0.4782  0.6929
  829MOL0     H 9386   9.536   9.623   8.804  1.3630  3.0671 -1.6961
  829MOL0     H 9387   9.656   9.693   8.900 -0.4628  1.2817 -1.5824
  829MOL0     H 9388   9.614   9.469   9.001  1.8531  1.9202 -1.0592
  829MOL0     H 9389   9.442   9.480   8.963 -1.2554  2.1880 -0.4714
  829MOL0     H 9390   9.373   9.758   9.303 -1.8331  1.1557  1.4037
  829MOL0     H 9391   9.148   9.729   9.413 -2.1680 -2.9643  3.1933
  829MOL0     H 9392   8.845   9.550   9.722 -2.8214  0.6208  2.0049
  829MOL0     H 9393   8.625   9.487   9.780  0.0639  0.8595  0.7446
  829MOL0     H 9394   8.265   9.460   9.469 -1.4283 -0.2075 -0.2105
  829MOL0     H 9395   8.335   9.618   9.521  0.5027 -1.1195 -3.2844
  829MOL0     H 9396   8.238   9.622   9.716  0.2774 -0.0305  0.7546
  829MOL0     H 9397   8.179   9.450   9.704  0.2474 -0.4393 -0.5090
  829MOL0     H 9398   8.050   9.534   9.494  2.8196 -1.8161  0.3507
  829MOL0     H 9399   8.083   9.704   9.541  0.3172  1.3432  1.5663
  829MOL0     H 9400   7.907   9.488   9.684  0.7717  0.3468 -0.2460
  829MOL0     H 9401   7.960   9.630   9.764 -2.6453  3.4603  0.3022
  829MOL0     H 9402   7.810   9.641   9.494 -2.0832  2.1223  0.4579
  829MOL0     H 9403   7.883   9.772   9.568  1.6551 -1.3014  0.4771
  829MOL0     H 9404   7.741   9.737   9.780 -0.4778  0.6489  0.0583
  829MOL0     H 9405   7.675   9.593   9.692  0.6399 -0.7145  0.7230
  829MOL0     H 9406   7.665   9.888   9.622 -2.5226  1.6964  1.4991
  829MOL0     H 9407   7.623   9.769   9.502 -4.9757 -1.8208  0.8786
  829MOL0     H 9408   7.509   9.823   9.761  0.8689  0.4531 -0.3659
  829MOL0     H 9409   7.438   9.693   9.664  2.4742 -1.6102 -0.2751
  829MOL0     H 9410   8.487   9.500   9.384 -0.4088 -0.4809  0.2528
  829MOL0     H 9411   8.713   9.585   9.306 -0.6243  1.0004 -0.0681
  829MOL0     H 9412   9.135   9.338   9.247 -0.2382  0.2400 -0.1065
  829MOL0     H 9413   9.341   9.365   9.123  0.0893 -1.0462  1.1742
  829MOL0     H 9414   8.344  10.691   8.742  0.6143  2.1810  0.4615
  829MOL0     H 9415   8.180  10.800   8.899 -0.9013 -1.2340 -0.7997
  829MOL0     H 9416   7.896  10.648   9.295  1.8860  1.0004 -3.0621
  829MOL0     H 9417   7.682  10.706   9.418  1.2609 -0.4274  1.7129
  829MOL0     H 9418   7.397  10.903   9.440 -0.3872  0.3495  1.9218
  829MOL0     H 9419   7.481  10.823   9.308  0.2958 -1.8016  5.6125
  829MOL0     H 9420   7.460  11.040   9.184  2.3235 -3.2221  0.0017
  829MOL0     H 9421   7.305  10.999   9.252 -0.8723  1.2201  0.1025
  829MOL0     H 9422   7.498  11.215   9.334  0.1544 -0.2582 -1.8216
  829MOL0     H 9423   7.391  11.139   9.460  0.4260  1.4752  0.4332
  829MOL0     H 9424   7.323  11.265   9.179 -0.0249 -1.8322  0.3019
  829MOL0     H 9425   7.194  11.217   9.289 -0.1444 -1.7734  1.2986
  829MOL0     H 9426   7.347  11.610   9.390 -0.4361  0.5080  0.8905
  829MOL0     H 9427   7.741  11.117   9.310 -2.0362 -1.7956 -0.1528
  829MOL0     H 9428   7.964  11.068   9.234  0.5673 -1.3035  0.2244
  830MOL0     O 9429  11.048   5.997   7.871  0.5574 -0.5810 -0.3322
  830MOL0     C 9430  11.031   6.091   7.944  0.1101  0.4830 -1.0858
  830MOL0     O 9431  10.918   6.170   7.940 -0.2287  0.6136 -0.1603
  830MOL0     C 9432  10.806   6.112   7.889  0.0375 -0.7854 -0.7746
  830MOL0     C 9433  10.733   6.005   7.951 -0.5382 -0.3214  1.1141
  830MOL0     C 9434  10.604   5.977   7.907  0.0417 -0.0940  0.9484
  830MOL0     C 9435  10.539   6.061   7.816 -1.2900 -0.0833  0.0151
  830MOL0     O 9436  10.402   6.064   7.792 -0.2362  0.2467 -0.9552
  830MOL0     C 9437  10.318   6.010   7.889  0.3207 -0.6609 -0.3754
  830MOL0     C 9438  10.180   6.016   7.829  0.0767 -0.0619  0.7076
  830MOL0     C 9439  10.074   5.966   7.932  0.1464 -0.3578 -0.1414
  830MOL0     C 9440  10.065   6.036   8.077  0.4182 -0.4300  0.6341
  830MOL0     C 9441  10.055   6.190   8.081 -0.0960  0.6612  0.4822
  830MOL0     C 9442   9.936   6.275   8.014 -0.1957  0.1813 -0.2802
  830MOL0     C 9443   9.813   6.263   8.114 -0.0821  0.3311 -0.4534
  830MOL0     C 9444   9.687   6.341   8.071  0.3809 -0.4625 -0.1117
  830MOL0     N 9445   9.724   6.480   8.059 -0.1462 -0.0737  0.9819
  830MOL0     C 9446   9.716   6.585   8.137  0.4283 -0.6342  0.3915
  830MOL0     C 9447   9.768   6.696   8.068  0.4305 -0.0993  0.3893
  830MOL0     C 9448   9.784   6.837   8.134 -0.0080  0.0779 -0.3279
  830MOL0     C 9449   9.652   6.894   8.179  0.2995 -0.5461 -0.4834
  830MOL0     C 9450   9.678   7.034   8.246  0.4168  0.2544 -0.3872
  830MOL0     C 9451   9.595   7.065   8.371 -0.0651 -0.9026 -0.2541
  830MOL0     O 9452   9.633   6.988   8.485 -0.0186 -0.3663 -0.2701
  830MOL0     C 9453   9.609   7.039   8.609  0.6367 -0.5262  0.2208
  830MOL0     C 9454   9.641   6.956   8.716 -0.1613 -0.5512 -0.0684
  830MOL0     C 9455   9.617   6.990   8.849  0.2165  0.0397  0.0483
  830MOL0     C 9456   9.575   7.119   8.889  1.0623  0.0452 -0.6236
  830MOL0     C 9457   9.561   7.142   9.029  0.8926  0.0962  0.8578
  830MOL0     O 9458   9.553   7.272   9.057  0.4327  0.3104  0.3258
  830MOL0     C 9459   9.483   7.322   9.159  1.5421 -0.4453 -1.3412
  830MOL0     C 9460   9.358   7.266   9.209 -0.4928  0.0373  0.2779
  830MOL0     C 9461   9.289   7.316   9.320 -0.4730  0.1839 -0.3705
  830MOL0     C 9462   9.322   7.431   9.388  0.6970  0.6506 -0.5897
  830MOL0     O 9463   9.265   7.477   9.504  0.4476  0.3873 -0.5027
  830MOL0     C 9464   9.328   7.439   9.623 -0.1700 -0.1142  0.1257
  830MOL0     C 9465   9.233   7.375   9.724 -0.3018 -0.1561  0.9092
  830MOL0     C 9466   9.142   7.260   9.658  0.6942  0.0976 -0.7267
  830MOL0     C 9467   9.058   7.187   9.759  0.1535  1.2135 -0.0894
  830MOL0     C 9468   8.971   7.078   9.695 -0.3092  0.5201 -0.9636
  830MOL0     C 9469   9.049   6.956   9.645 -0.2606 -0.3023  1.0544
  830MOL0     C 9470   8.979   6.845   9.597  0.7706  0.3680 -0.7152
  830MOL0     C 9471   8.872   6.880   9.490  0.3680  0.0063 -0.4929
  830MOL0    Cl 9472   8.949   6.941   9.334 -0.1585  0.3946 -0.2424
  830MOL0     C 9473   9.444   7.490   9.339  0.2183  1.3037  0.4676
  830MOL0     C 9474   9.522   7.441   9.224 -0.0849 -1.3876 -0.0528
  830MOL0     O 9475   9.568   7.052   9.108 -0.1730 -0.1929  0.7518
  830MOL0     C 9476   9.537   7.207   8.786 -0.0558  0.0269  0.7604
  830MOL0     C 9477   9.546   7.163   8.642  0.3198  0.8964 -1.1668
  830MOL0     N 9478   9.801   6.656   7.946 -0.0981  0.7303  0.6737
  830MOL0     N 9479   9.769   6.530   7.937  0.2104 -0.5568 -0.7744
  830MOL0     C 9480  10.614   6.167   7.753  0.0792  1.1682 -0.3062
  830MOL0     C 9481  10.741   6.192   7.797 -0.7967  0.4026  0.5762
  830MOL0     C 9482  11.142   6.151   8.028  0.4291  0.3463 -0.5646
  830MOL0     C 9483  11.273   6.109   8.024 -0.2370 -0.2947  0.9789
  830MOL0     C 9484  11.373   6.151   8.112  0.6153  0.4037  0.1476
  830MOL0     C 9485  11.349   6.237   8.212 -1.0378 -0.0915  0.7591
  830MOL0     O 9486  11.455   6.261   8.298  0.2065  0.4530  0.0978
  830MOL0     C 9487  11.429   6.321   8.426 -0.7596 -0.6375  0.7000
  830MOL0     C 9488  11.554   6.399   8.455 -0.3043 -0.7385 -0.1642
  830MOL0     C 9489  11.692   6.327   8.465  0.5039  0.4562  0.1424
  830MOL0     C 9490  11.719   6.262   8.599  0.3180 -0.0749  0.7617
  830MOL0     C 9491  11.802   6.344   8.684  0.1859 -0.4807  0.3183
  830MOL0     C 9492  11.876   6.404   8.757 -0.1581 -0.1516  1.1909
  830MOL0     C 9493  11.218   6.280   8.235 -0.1615 -0.7213  1.3612
  830MOL0     C 9494  11.112   6.243   8.140 -0.7990 -0.6559 -0.2720
  830MOL0     H 9495  10.790   5.951   8.026  2.1054  2.7201  1.5103
  830MOL0     H 9496  10.555   5.891   7.951  0.9221 -0.3138  1.5367
  830MOL0     H 9497  10.322   6.059   7.987  2.2867  1.7103 -1.5297
  830MOL0     H 9498  10.329   5.905   7.918 -2.0277 -0.0289  3.7242
  830MOL0     H 9499  10.182   5.966   7.731  3.3432 -0.4701  0.8705
  830MOL0     H 9500  10.164   6.123   7.813  1.3511 -0.1534 -1.5242
  830MOL0     H 9501  10.080   5.859   7.957  0.9915 -0.5203 -0.9957
  830MOL0     H 9502   9.977   5.974   7.882 -0.3218  0.1890  0.8131
  830MOL0     H 9503   9.973   6.000   8.124  0.8590  0.7914  2.5797
  830MOL0     H 9504  10.160   6.014   8.128  0.6290 -0.6327  0.1580
  830MOL0     H 9505  10.143   6.240   8.040 -0.3604 -0.4395 -1.5629
  830MOL0     H 9506  10.051   6.202   8.189  1.3741  3.1500  0.3299
  830MOL0     H 9507   9.904   6.240   7.915  0.4929  1.0180 -0.8191
  830MOL0     H 9508   9.969   6.377   7.989 -1.8268  0.9536  0.5113
  830MOL0     H 9509   9.791   6.158   8.133 -1.3982  0.2398 -2.2552
  830MOL0     H 9510   9.847   6.307   8.209 -1.1836 -0.1494  0.1778
  830MOL0     H 9511   9.612   6.341   8.151 -0.1712  0.8039 -0.6000
  830MOL0     H 9512   9.648   6.310   7.974 -0.2349  1.0126 -0.3569
  830MOL0     H 9513   9.657   6.587   8.228 -0.3567 -0.5299 -0.1068
  830MOL0     H 9514   9.814   6.904   8.054 -0.3320 -0.6896 -1.1110
  830MOL0     H 9515   9.855   6.835   8.218  0.6924 -1.0823 -0.9154
  830MOL0     H 9516   9.614   6.822   8.252  0.7028  0.0293  0.3080
  830MOL0     H 9517   9.584   6.889   8.094 -1.2255 -0.5546  0.6940
  830MOL0     H 9518   9.779   7.025   8.285  0.4418 -2.0417 -0.8750
  830MOL0     H 9519   9.677   7.119   8.176 -2.6671  1.0872  0.5196
  830MOL0     H 9520   9.489   7.051   8.350 -0.7588  0.6497  1.8958
  830MOL0     H 9521   9.608   7.172   8.393 -1.2020 -0.4030 -1.8457
  830MOL0     H 9522   9.690   6.859   8.708 -2.4158 -1.7868  0.1211
  830MOL0     H 9523   9.643   6.920   8.927 -0.1866 -0.5962 -0.3871
  830MOL0     H 9524   9.306   7.188   9.154  0.4918  1.2960 -2.6415
  830MOL0     H 9525   9.198   7.277   9.363  0.3957  0.4114  1.7913
  830MOL0     H 9526   9.386   7.520   9.669  0.4707 -1.2152  1.3465
  830MOL0     H 9527   9.406   7.365   9.604  1.2778  1.4016 -0.0701
  830MOL0     H 9528   9.176   7.458   9.768 -2.5826 -1.1497  0.0140
  830MOL0     H 9529   9.291   7.325   9.801  3.9081  0.4483 -1.5876
  830MOL0     H 9530   9.201   7.188   9.600  0.7358  0.8091 -1.5912
  830MOL0     H 9531   9.077   7.313   9.588  4.4443  2.3137 -2.8677
  830MOL0     H 9532   9.124   7.140   9.833  0.8173  0.3313 -1.2119
  830MOL0     H 9533   8.995   7.257   9.815  0.9424  1.2409  0.7962
  830MOL0     H 9534   8.930   7.138   9.613  0.4389  3.0383  0.3764
  830MOL0     H 9535   8.895   7.045   9.765  0.8062 -3.3303 -1.3566
  830MOL0     H 9536   9.118   6.916   9.720 -0.1731 -2.5316 -0.1314
  830MOL0     H 9537   9.110   6.986   9.560 -0.9345 -1.3008  0.1932
  830MOL0     H 9538   9.041   6.768   9.550  1.0508  1.8243 -2.8892
  830MOL0     H 9539   8.939   6.795   9.686  0.0725 -1.1783 -1.8515
  830MOL0     H 9540   8.799   6.947   9.535 -2.8920 -3.1673 -0.5919
  830MOL0     H 9541   8.813   6.790   9.467  0.4935 -0.7675  1.9548
  830MOL0     H 9542   9.498   7.565   9.395  2.1976  0.1859  0.1505
  830MOL0     H 9543   9.614   7.495   9.201 -0.9345 -0.5797 -1.7581
  830MOL0     H 9544   9.506   7.308   8.811  1.2474  1.0648 -1.4111
  830MOL0     H 9545   9.513   7.231   8.564  0.7734 -0.1879 -2.3370
  830MOL0     H 9546  10.583   6.246   7.686 -0.5395  0.7282 -0.5498
  830MOL0     H 9547  10.799   6.274   7.756  1.2897 -0.7361  1.0745
  830MOL0     H 9548  11.292   6.025   7.958  0.8614 -0.4226  1.4364
  830MOL0     H 9549  11.471   6.105   8.112 -0.2681 -1.5648  0.6326
  830MOL0     H 9550  11.394   6.242   8.493 -0.8007  1.5940  3.5053
  830MOL0     H 9551  11.352   6.397   8.414 -0.4363 -0.1975  1.3769
  830MOL0     H 9552  11.562   6.477   8.378  0.2259 -1.7874 -1.2122
  830MOL0     H 9553  11.553   6.444   8.555  4.5969  1.6875 -0.8617
  830MOL0     H 9554  11.765   6.407   8.453  1.5020 -0.6222 -1.2099
  830MOL0     H 9555  11.700   6.251   8.387  0.0286  2.0732 -1.5649
  830MOL0     H 9556  11.628   6.219   8.643 -0.1025  1.0784  1.0726
  830MOL0     H 9557  11.778   6.171   8.588 -0.5991 -0.4632 -1.3461
  830MOL0     H 9558  11.940   6.476   8.804  0.1057  2.3255 -2.5206
  830MOL0     H 9559  11.186   6.325   8.328  0.4612 -1.0711  1.7479
  830MOL0     H 9560  11.006   6.261   8.153 -1.0755 -1.3427 -1.4254
  831MOL0     O 9561   1.620   7.828   4.460 -0.0107 -0.3208 -0.4630
  831MOL0     C 9562   1.598   7.857   4.578 -0.1384 -0.1512 -1.0551
  831MOL0     O 9563   1.486   7.919   4.630 -0.0404  0.2276  0.5958
  831MOL0     C 9564   1.384   7.967   4.544  0.2377 -0.0813 -0.9672
  831MOL0     C 9565   1.350   7.905   4.429  0.3346  0.0395 -0.6430
  831MOL0     C 9566   1.243   7.950   4.356 -0.8493 -0.8656  0.1338
  831MOL0     C 9567   1.179   8.074   4.372 -1.0715  0.1186 -0.1062
  831MOL0     O 9568   1.075   8.125   4.301  0.1867 -0.7188 -0.6963
  831MOL0     C 9569   1.053   8.070   4.169  0.3749  0.2558 -0.0487
  831MOL0     C 9570   1.160   8.131   4.067 -0.1950 -0.2476 -0.2264
  831MOL0     C 9571   1.122   8.272   4.026  1.2453 -0.4317  0.1150
  831MOL0     C 9572   1.188   8.319   3.894 -0.0829 -0.5284  0.2697
  831MOL0     C 9573   1.166   8.470   3.872 -0.0805  0.7919 -0.7053
  831MOL0     C 9574   1.110   8.510   3.734  0.1473 -0.3524  0.4811
  831MOL0     C 9575   1.227   8.516   3.639 -0.4524  0.2163 -0.6975
  831MOL0     C 9576   1.166   8.503   3.495 -0.5684 -0.2432 -0.2361
  831MOL0     N 9577   1.079   8.631   3.471 -1.2681 -0.7140 -0.2048
  831MOL0     C 9578   0.945   8.629   3.440  0.2710  0.3138  0.2983
  831MOL0     C 9579   0.907   8.759   3.430 -0.3182  0.1600  0.3104
  831MOL0     C 9580   0.765   8.792   3.423 -0.4410  1.1053 -0.9103
  831MOL0     C 9581   0.711   8.782   3.280  1.3999  1.0243  0.2652
  831MOL0     C 9582   0.559   8.789   3.271 -0.4210 -0.6926  0.3396
  831MOL0     C 9583   0.502   8.811   3.130  0.4805 -0.1786 -1.1076
  831MOL0     O 9584   0.356   8.839   3.147  0.5388  0.4151 -0.9547
  831MOL0     C 9585   0.269   8.752   3.097  0.1035  0.8302 -0.2121
  831MOL0     C 9586   0.138   8.805   3.081 -0.0697  0.0640  0.5730
  831MOL0     C 9587   0.036   8.738   3.007  0.1056 -0.3053  0.6073
  831MOL0     C 9588   0.068   8.623   2.937 -0.7224 -0.1842  0.1251
  831MOL0     C 9589  -0.017   8.572   2.827 -0.0702  0.4915 -0.2892
  831MOL0     O 9590  -0.141   8.641   2.810  1.3379 -0.2079  0.0605
  831MOL0     C 9591  -0.207   8.610   2.698 -0.5128 -0.8662  0.6229
  831MOL0     C 9592  -0.236   8.488   2.627  0.0369 -0.3139 -0.2102
  831MOL0     C 9593  -0.317   8.477   2.517  0.1091 -0.0897  0.2242
  831MOL0     C 9594  -0.401   8.590   2.483 -1.0014  0.8563  0.8969
  831MOL0     O 9595  -0.492   8.559   2.385 -0.3337  0.2304  0.1723
  831MOL0     C 9596  -0.563   8.678   2.349 -0.0859 -1.1129  0.0532
  831MOL0     C 9597  -0.631   8.676   2.210 -0.3367  0.5000 -0.0777
  831MOL0     C 9598  -0.541   8.632   2.096  0.4212  1.1202  0.0274
  831MOL0     C 9599  -0.606   8.650   1.963  0.0944  0.1490  0.1316
  831MOL0     C 9600  -0.613   8.791   1.903 -0.4685  0.4460  0.0998
  831MOL0     C 9601  -0.657   8.781   1.750  0.0663 -0.0875 -0.1724
  831MOL0     C 9602  -0.646   8.917   1.674 -0.2864  0.0330  0.1026
  831MOL0     C 9603  -0.537   9.020   1.709  0.5557  0.3649 -0.2158
  831MOL0    Cl 9604  -0.376   8.941   1.741 -0.1143 -0.3919 -0.1147
  831MOL0     C 9605  -0.367   8.715   2.543 -0.5756 -0.1154  0.5892
  831MOL0     C 9606  -0.273   8.725   2.648  0.0693 -0.5821 -1.1494
  831MOL0     O 9607   0.026   8.470   2.767  0.4183  0.3628  1.0530
  831MOL0     C 9608   0.195   8.562   2.965  0.1149 -0.2185  0.3770
  831MOL0     C 9609   0.287   8.623   3.045  0.1738 -0.3393 -0.6984
  831MOL0     N 9610   1.020   8.836   3.452  0.4649  0.0790 -0.5258
  831MOL0     N 9611   1.119   8.758   3.478 -0.6134 -0.5371  0.7384
  831MOL0     C 9612   1.231   8.142   4.481  0.0115  0.4302 -0.9851
  831MOL0     C 9613   1.326   8.091   4.579  0.7732 -0.1421  0.3414
  831MOL0     C 9614   1.720   7.838   4.660 -0.3629 -0.2215  0.0057
  831MOL0     C 9615   1.852   7.849   4.605 -0.1486  0.1768  0.0301
  831MOL0     C 9616   1.969   7.833   4.682  0.3269  0.1850  0.4456
  831MOL0     C 9617   1.952   7.785   4.819  0.0932 -0.4896  0.3367
  831MOL0     O 9618   2.053   7.748   4.903  0.1131  0.1272 -0.0004
  831MOL0     C 9619   2.082   7.840   5.005  0.2355  0.7731 -0.0684
  831MOL0     C 9620   2.169   7.951   4.958 -0.6587 -0.0934  0.1760
  831MOL0     C 9621   2.325   7.920   4.952 -0.0566 -0.5929  0.1868
  831MOL0     C 9622   2.363   7.830   4.831 -0.2809 -0.1570  1.2692
  831MOL0     C 9623   2.512   7.834   4.831 -0.1036 -0.5646  0.8924
  831MOL0     C 9624   2.633   7.851   4.835  0.0056  0.8834  0.0830
  831MOL0     C 9625   1.823   7.760   4.868 -0.2311 -0.5232  0.2930
  831MOL0     C 9626   1.712   7.798   4.796  0.0362 -0.2391  0.1520
  831MOL0     H 9627   1.402   7.815   4.398  1.9917 -0.0721  2.1188
  831MOL0     H 9628   1.214   7.884   4.275  0.6869 -0.4428 -0.7965
  831MOL0     H 9629   0.956   8.089   4.122 -0.0426  1.1323  1.1140
  831MOL0     H 9630   1.058   7.961   4.173 -1.0003  0.1545 -0.6189
  831MOL0     H 9631   1.151   8.060   3.984 -1.0084  0.3191 -0.6395
  831MOL0     H 9632   1.257   8.133   4.118  0.3149 -2.8790 -0.9379
  831MOL0     H 9633   1.133   8.337   4.114  1.9602 -2.4939  1.6471
  831MOL0     H 9634   1.017   8.262   3.996  0.8588 -1.8084  1.7529
  831MOL0     H 9635   1.294   8.299   3.913  0.4062  1.3170 -0.3741
  831MOL0     H 9636   1.137   8.268   3.812 -2.4208 -0.8161  1.8049
  831MOL0     H 9637   1.267   8.511   3.879  3.1318 -6.0422  0.6838
  831MOL0     H 9638   1.091   8.506   3.943 -1.0690  1.5692 -2.0916
  831MOL0     H 9639   1.060   8.608   3.733 -0.0921 -0.4569  1.1039
  831MOL0     H 9640   1.040   8.432   3.702  0.9919 -0.3127 -1.5902
  831MOL0     H 9641   1.287   8.605   3.659  0.0829 -0.2632 -0.1077
  831MOL0     H 9642   1.302   8.438   3.655  0.9152  1.7036  0.5191
  831MOL0     H 9643   1.110   8.409   3.488  0.5374 -1.1707  2.1992
  831MOL0     H 9644   1.258   8.484   3.440 -0.7255 -2.1990  0.1162
  831MOL0     H 9645   0.883   8.541   3.423  1.7411 -0.5864 -0.6154
  831MOL0     H 9646   0.745   8.896   3.452  0.1762  0.7889  0.7893
  831MOL0     H 9647   0.715   8.724   3.493  3.0535  0.1183  0.8480
  831MOL0     H 9648   0.741   8.694   3.223  2.3145  1.7321 -0.3883
  831MOL0     H 9649   0.753   8.862   3.219  0.4591 -0.0495 -1.8854
  831MOL0     H 9650   0.504   8.707   3.317  0.5041 -1.0875  0.7624
  831MOL0     H 9651   0.522   8.878   3.323  2.5343  1.6124 -1.1201
  831MOL0     H 9652   0.528   8.722   3.071 -2.5632  0.1618 -3.1906
  831MOL0     H 9653   0.549   8.898   3.083 -0.1851  1.2216  0.6933
  831MOL0     H 9654   0.107   8.899   3.128  0.8629  2.0326 -2.4556
  831MOL0     H 9655  -0.063   8.783   3.003  0.8109  1.2343 -2.0904
  831MOL0     H 9656  -0.196   8.391   2.656 -1.0201 -0.7778 -0.2782
  831MOL0     H 9657  -0.332   8.375   2.483 -1.9507  0.0407  0.6230
  831MOL0     H 9658  -0.499   8.767   2.343 -2.5416  0.6912 -3.0385
  831MOL0     H 9659  -0.643   8.695   2.421  0.3693  1.0664  0.1169
  831MOL0     H 9660  -0.677   8.770   2.177 -3.1174 -0.7163  0.0474
  831MOL0     H 9661  -0.713   8.605   2.216 -0.3095  0.3120 -1.4933
  831MOL0     H 9662  -0.517   8.526   2.109 -1.8808  0.1780 -2.5575
  831MOL0     H 9663  -0.444   8.683   2.093  0.5490  0.8718 -2.5797
  831MOL0     H 9664  -0.547   8.583   1.900  0.2656 -0.4453  0.9028
  831MOL0     H 9665  -0.709   8.612   1.971  0.1157  0.2625  1.0339
  831MOL0     H 9666  -0.512   8.834   1.908 -0.7309  1.5288 -2.3900
  831MOL0     H 9667  -0.673   8.856   1.967  0.3762  0.5451  0.8066
  831MOL0     H 9668  -0.757   8.738   1.736 -0.2544  1.0532 -1.6558
  831MOL0     H 9669  -0.584   8.715   1.702  0.5396 -0.0574  0.5033
  831MOL0     H 9670  -0.627   8.885   1.572 -2.3777  1.0559 -0.6700
  831MOL0     H 9671  -0.742   8.969   1.678  0.9539  2.3991  1.7942
  831MOL0     H 9672  -0.576   9.084   1.788 -0.1336  0.5261 -0.6841
  831MOL0     H 9673  -0.523   9.088   1.624 -2.3967  1.7447  0.2703
  831MOL0     H 9674  -0.411   8.811   2.517 -0.8441 -0.0397  1.2864
  831MOL0     H 9675  -0.257   8.818   2.701 -3.1242  0.4215 -1.7437
  831MOL0     H 9676   0.226   8.472   2.914  1.3300  1.0349 -1.2339
  831MOL0     H 9677   0.382   8.571   3.050 -0.2831 -1.1909 -0.7652
  831MOL0     H 9678   1.186   8.240   4.495  0.7878  0.5101  1.3544
  831MOL0     H 9679   1.363   8.130   4.673 -1.1857 -1.1960  1.6175
  831MOL0     H 9680   1.859   7.882   4.502 -1.7308 -1.5488 -0.6863
  831MOL0     H 9681   2.062   7.844   4.627 -0.8988  1.3031 -1.4848
  831MOL0     H 9682   2.127   7.789   5.091  0.3219  0.0167 -0.5528
  831MOL0     H 9683   1.987   7.885   5.037 -0.1100  0.7940 -1.0718
  831MOL0     H 9684   2.136   7.990   4.862  1.4788  4.2692  0.9741
  831MOL0     H 9685   2.152   8.037   5.024  1.7667  1.5251 -1.1519
  831MOL0     H 9686   2.365   7.870   5.041  0.5552  1.1765  0.9499
  831MOL0     H 9687   2.372   8.015   4.928 -0.0295 -0.7502 -0.4024
  831MOL0     H 9688   2.339   7.724   4.847  2.5613 -1.0905  0.0365
  831MOL0     H 9689   2.325   7.854   4.732 -0.2241  2.1020  1.7480
  831MOL0     H 9690   2.736   7.877   4.832 -0.1337  2.1118  2.9627
  831MOL0     H 9691   1.825   7.703   4.960  0.2123  0.6684  1.0422
  831MOL0     H 9692   1.617   7.782   4.847 -0.1931 -1.3480 -0.5683
  832MOL0     O 9693   2.655   9.010   1.832 -0.0577  0.3365  0.6259
  832MOL0     C 9694   2.632   9.041   1.948  0.4710 -0.5969  0.3269
  832MOL0     O 9695   2.509   9.060   2.014  0.1052  1.3049  0.4870
  832MOL0     C 9696   2.398   9.016   1.945  0.0498 -1.3341 -0.8698
  832MOL0     C 9697   2.340   8.893   1.979 -0.2899  0.1454 -0.2809
  832MOL0     C 9698   2.227   8.850   1.923  1.8262  1.0476  0.1437
  832MOL0     C 9699   2.164   8.920   1.821  0.4808  0.6252 -0.1262
  832MOL0     O 9700   2.056   8.869   1.763 -0.3670 -0.7146  0.4121
  832MOL0     C 9701   1.950   8.967   1.735  0.4807 -0.7155 -0.4984
  832MOL0     C 9702   1.802   8.923   1.777 -0.6357 -0.0359 -0.3501
  832MOL0     C 9703   1.799   8.900   1.936 -1.1990 -0.2044 -0.2867
  832MOL0     C 9704   1.684   8.816   1.968 -0.6756  0.3151  0.5555
  832MOL0     C 9705   1.674   8.808   2.122 -0.7371  0.5604 -0.5437
  832MOL0     C 9706   1.554   8.712   2.166 -0.4379  0.6232 -0.6730
  832MOL0     C 9707   1.416   8.792   2.146 -0.4285 -0.2423  0.1179
  832MOL0     C 9708   1.294   8.693   2.166  0.7562  0.2293 -0.1924
  832MOL0     N 9709   1.296   8.612   2.286  0.2238 -0.2839  0.3384
  832MOL0     C 9710   1.327   8.482   2.284  0.5298  0.3854  0.1445
  832MOL0     C 9711   1.348   8.446   2.410 -0.1310 -0.2723 -1.2489
  832MOL0     C 9712   1.378   8.311   2.466 -0.5582 -0.7354  1.0573
  832MOL0     C 9713   1.248   8.235   2.464  0.3815  0.1529 -0.2572
  832MOL0     C 9714   1.279   8.103   2.543  0.2644 -0.4022  0.1951
  832MOL0     C 9715   1.365   8.000   2.466 -0.9008 -0.2100 -0.2704
  832MOL0     O 9716   1.412   7.881   2.529 -0.7789 -0.1405 -0.1384
  832MOL0     C 9717   1.490   7.797   2.463 -0.4934  0.3263  0.2023
  832MOL0     C 9718   1.562   7.696   2.531  1.1013  0.0440 -1.9422
  832MOL0     C 9719   1.667   7.614   2.474 -1.9757  0.1408 -0.8766
  832MOL0     C 9720   1.701   7.627   2.337  0.8959 -0.9391 -0.2094
  832MOL0     C 9721   1.810   7.554   2.271  0.0463 -0.2866  0.5769
  832MOL0     O 9722   1.842   7.427   2.325  0.3751 -0.0957  0.7079
  832MOL0     C 9723   1.945   7.349   2.273  0.5827 -0.0229 -0.6508
  832MOL0     C 9724   1.997   7.353   2.138  0.6863  0.0506  0.1546
  832MOL0     C 9725   2.114   7.283   2.110 -0.0388  0.1891 -0.2918
  832MOL0     C 9726   2.170   7.200   2.204 -0.7733 -0.0783  0.2383
  832MOL0     O 9727   2.262   7.128   2.157 -0.5294  0.4915  0.8270
  832MOL0     C 9728   2.397   7.161   2.186  0.8610  0.9672 -0.0853
  832MOL0     C 9729   2.478   7.049   2.248  0.1244  0.3883  0.4847
  832MOL0     C 9730   2.606   7.099   2.325  0.8735  1.0138  0.2102
  832MOL0     C 9731   2.723   7.151   2.249 -0.4754  0.6634 -0.2177
  832MOL0     C 9732   2.834   7.215   2.326  0.1027  1.0193  0.5078
  832MOL0     C 9733   2.904   7.122   2.403 -0.4213  0.4712  0.1232
  832MOL0     C 9734   3.005   7.201   2.489  0.5473 -0.3875  0.5639
  832MOL0     C 9735   3.089   7.102   2.563 -0.3138  0.6552  0.5086
  832MOL0    Cl 9736   3.221   7.167   2.669  0.1526 -0.0971 -0.0267
  832MOL0     C 9737   2.119   7.193   2.334 -0.4572 -0.7496 -0.2318
  832MOL0     C 9738   2.007   7.264   2.366  0.1279 -0.1105 -0.3891
  832MOL0     O 9739   1.847   7.590   2.161 -1.1717  0.1542 -0.0222
  832MOL0     C 9740   1.616   7.718   2.263 -0.5989 -0.6724  0.3733
  832MOL0     C 9741   1.510   7.791   2.319  1.6229  0.3430  0.2048
  832MOL0     N 9742   1.326   8.556   2.492  0.3610 -0.0369  0.2573
  832MOL0     N 9743   1.283   8.650   2.415 -0.5965  0.0723 -0.1442
  832MOL0     C 9744   2.226   9.042   1.789  0.1983 -0.2124 -0.2244
  832MOL0     C 9745   2.340   9.091   1.845  0.2308 -0.5200  0.8850
  832MOL0     C 9746   2.750   9.045   2.030 -0.1927 -0.0535  0.0449
  832MOL0     C 9747   2.875   8.996   1.988  0.2211  0.2586  0.1336
  832MOL0     C 9748   2.985   9.003   2.064 -0.2251  0.0946 -0.3369
  832MOL0     C 9749   2.984   9.070   2.189 -0.9553  0.7889  0.0452
  832MOL0     O 9750   3.098   9.098   2.261 -0.1213 -0.1947 -0.5651
  832MOL0     C 9751   3.217   9.020   2.236 -0.5446  0.3608  0.5424
  832MOL0     C 9752   3.201   8.876   2.272  0.4822  0.0192  0.5848
  832MOL0     C 9753   3.168   8.852   2.425  0.3664  0.1805  0.0591
  832MOL0     C 9754   3.298   8.855   2.516  1.6029 -0.9160  0.0112
  832MOL0     C 9755   3.267   8.786   2.637 -0.1805  0.8509 -0.5934
  832MOL0     C 9756   3.269   8.736   2.745  0.5108 -0.4334 -0.0783
  832MOL0     C 9757   2.866   9.120   2.236  0.2923 -0.3288  0.9101
  832MOL0     C 9758   2.751   9.112   2.153 -1.0182 -0.3203 -0.7146
  832MOL0     H 9759   2.394   8.842   2.059  2.3945  3.4338  0.2456
  832MOL0     H 9760   2.182   8.758   1.961 -0.4989  1.8162 -0.5566
  832MOL0     H 9761   1.933   9.002   1.632 -1.8040  1.2833  0.4707
  832MOL0     H 9762   1.964   9.063   1.785 -3.2463  1.2406 -2.8306
  832MOL0     H 9763   1.781   8.831   1.721 -2.2090 -0.7195  1.2251
  832MOL0     H 9764   1.732   9.004   1.755 -0.4046  1.3583  3.3203
  832MOL0     H 9765   1.793   9.002   1.976 -0.6777  0.6185 -2.1989
  832MOL0     H 9766   1.894   8.851   1.960 -1.4227 -1.0767 -1.0951
  832MOL0     H 9767   1.590   8.857   1.930 -0.7185 -1.8421 -1.9731
  832MOL0     H 9768   1.689   8.720   1.916 -0.5453  1.8193 -2.4457
  832MOL0     H 9769   1.658   8.904   2.172 -1.2653  0.0765  0.2416
  832MOL0     H 9770   1.767   8.768   2.164 -1.3086 -0.1008  0.1005
  832MOL0     H 9771   1.560   8.669   2.266 -0.6150 -0.3282 -1.0577
  832MOL0     H 9772   1.549   8.621   2.105  1.9849 -0.0983  0.0966
  832MOL0     H 9773   1.410   8.870   2.222  1.1358 -1.5214  1.6578
  832MOL0     H 9774   1.406   8.834   2.046 -3.8262 -0.0781  0.4256
  832MOL0     H 9775   1.280   8.619   2.087 -2.0586 -0.9059  1.2575
  832MOL0     H 9776   1.199   8.747   2.172  0.9772  0.4362  2.6585
  832MOL0     H 9777   1.343   8.424   2.194  2.0000  0.9912 -0.0139
  832MOL0     H 9778   1.416   8.326   2.568  0.3887  1.5744  0.4261
  832MOL0     H 9779   1.454   8.273   2.398  1.0331  3.3896  0.2552
  832MOL0     H 9780   1.205   8.238   2.363  0.0629 -1.0011 -0.1696
  832MOL0     H 9781   1.183   8.299   2.524  1.0483  2.4516 -1.8395
  832MOL0     H 9782   1.324   8.124   2.640 -0.2426 -0.6956  0.4968
  832MOL0     H 9783   1.181   8.059   2.563 -0.1066  1.2720  2.3090
  832MOL0     H 9784   1.457   8.050   2.433 -0.4551  0.0639  1.3015
  832MOL0     H 9785   1.298   7.967   2.386  1.3443 -2.3112 -1.4388
  832MOL0     H 9786   1.532   7.675   2.633  2.0144 -3.3049 -2.2471
  832MOL0     H 9787   1.716   7.547   2.544  1.8623  5.2545  2.0295
  832MOL0     H 9788   1.963   7.407   2.051  1.8909  0.1681 -0.2541
  832MOL0     H 9789   2.157   7.288   2.010 -3.1286 -0.4918 -1.7851
  832MOL0     H 9790   2.410   7.240   2.259  1.1849  0.2374  0.6651
  832MOL0     H 9791   2.439   7.181   2.087  0.5915  0.8733 -0.2204
  832MOL0     H 9792   2.510   6.976   2.174 -0.7423 -3.1975  3.3622
  832MOL0     H 9793   2.423   6.990   2.322 -1.5359  0.1099 -0.9261
  832MOL0     H 9794   2.643   7.015   2.384  0.7240  2.0054  1.7681
  832MOL0     H 9795   2.557   7.166   2.396 -1.6502 -1.7516  1.3198
  832MOL0     H 9796   2.774   7.065   2.203 -0.9304 -1.3102  2.6582
  832MOL0     H 9797   2.681   7.219   2.176  0.3956 -0.8667 -2.2403
  832MOL0     H 9798   2.796   7.301   2.383 -1.0028  0.9254 -0.0517
  832MOL0     H 9799   2.893   7.257   2.244 -1.3246 -0.1632 -1.1964
  832MOL0     H 9800   2.967   7.058   2.341  1.4477  0.1287  2.2149
  832MOL0     H 9801   2.837   7.063   2.468  1.9386 -0.3838  1.9483
  832MOL0     H 9802   3.072   7.258   2.423  0.7855 -2.1366 -0.7803
  832MOL0     H 9803   2.966   7.267   2.566 -0.7407 -0.0081 -0.3800
  832MOL0     H 9804   3.138   7.030   2.497  2.1314  1.3450  1.4556
  832MOL0     H 9805   3.024   7.041   2.626  0.5914 -1.5684 -0.6090
  832MOL0     H 9806   2.157   7.134   2.417  0.8424  1.6812  1.0309
  832MOL0     H 9807   1.957   7.259   2.462 -3.5756  1.0028 -2.0433
  832MOL0     H 9808   1.628   7.721   2.155 -1.6180 -1.5575  0.2080
  832MOL0     H 9809   1.455   7.850   2.246  0.0326 -2.4047 -1.0107
  832MOL0     H 9810   2.180   9.101   1.711  0.5580 -1.4401 -1.3886
  832MOL0     H 9811   2.388   9.188   1.831 -0.8984  0.4182  2.9118
  832MOL0     H 9812   2.878   8.952   1.889 -0.7683  1.2840 -0.3724
  832MOL0     H 9813   3.078   8.979   2.014  0.1983  2.4511 -0.7823
  832MOL0     H 9814   3.297   9.068   2.293  2.0942 -1.0242 -1.7911
  832MOL0     H 9815   3.239   9.041   2.131 -1.1131  0.4600  0.4394
  832MOL0     H 9816   3.119   8.849   2.204  0.5340  0.3407  0.3965
  832MOL0     H 9817   3.293   8.829   2.236 -0.9263  1.3240 -5.9069
  832MOL0     H 9818   3.114   8.757   2.427 -0.3974  0.3684 -3.5689
  832MOL0     H 9819   3.099   8.929   2.460 -3.3033 -1.7808 -2.2249
  832MOL0     H 9820   3.383   8.818   2.458  0.6710  0.9386 -2.7287
  832MOL0     H 9821   3.322   8.960   2.538 -1.9960  0.3000 -1.1190
  832MOL0     H 9822   3.269   8.678   2.836  0.8083 -4.4658 -2.4055
  832MOL0     H 9823   2.852   9.177   2.327 -0.6723  0.9472 -0.0133
  832MOL0     H 9824   2.661   9.171   2.166  0.2423  2.0848 -2.2023
  833MOL0     O 9825   2.521   0.913  10.632 -0.8887 -0.6654 -0.0900
  833MOL0     C 9826   2.579   0.863  10.534  0.6039 -0.9859 -0.0196
  833MOL0     O 9827   2.531   0.753  10.465  0.3305 -0.4325 -0.3511
  833MOL0     C 9828   2.454   0.655  10.540 -0.1453  0.4940  0.3281
  833MOL0     C 9829   2.389   0.571  10.446 -0.7809  0.1158 -0.2698
  833MOL0     C 9830   2.321   0.450  10.489  0.0983 -0.0411 -0.5082
  833MOL0     C 9831   2.314   0.417  10.624 -0.2715 -0.1608  0.3845
  833MOL0     O 9832   2.248   0.297  10.636 -0.0230 -1.0660  0.1569
  833MOL0     C 9833   2.165   0.280  10.752  0.4265 -0.7334  0.2739
  833MOL0     C 9834   2.149   0.135  10.789  0.3970 -0.1993 -0.2552
  833MOL0     C 9835   2.041   0.111  10.906 -0.2947  1.3512  0.0907
  833MOL0     C 9836   2.099   0.157  11.039  0.1469 -0.2974  0.1720
  833MOL0     C 9837   2.004   0.141  11.160 -0.1389 -0.2727  0.3404
  833MOL0     C 9838   1.951  -0.011  11.175 -0.6470  0.0638  0.0248
  833MOL0     C 9839   1.890  -0.030  11.314  0.5366  0.0950  0.1453
  833MOL0     C 9840   1.751  -0.097  11.296  0.4824  0.2631 -0.0077
  833MOL0     N 9841   1.636  -0.008  11.280  0.5342  0.1860 -0.4323
  833MOL0     C 9842   1.576   0.031  11.151  0.3664  1.0957  0.4975
  833MOL0     C 9843   1.458   0.090  11.184  0.0359  0.9695  0.7151
  833MOL0     C 9844   1.377   0.152  11.086  1.1891 -0.4036  0.4775
  833MOL0     C 9845   1.400   0.299  11.109 -0.3716 -0.2181 -0.4567
  833MOL0     C 9846   1.349   0.393  10.999  0.3180 -0.4486  0.7679
  833MOL0     C 9847   1.309   0.530  11.056  0.0478 -0.1250 -0.5299
  833MOL0     O 9848   1.218   0.584  10.958  0.2107 -0.0285 -0.5837
  833MOL0     C 9849   1.173   0.711  10.971 -0.8329 -0.3518  0.9971
  833MOL0     C 9850   1.198   0.793  11.076 -0.7423 -0.0414  0.0715
  833MOL0     C 9851   1.168   0.923  11.059 -0.5456 -0.3871  0.8947
  833MOL0     C 9852   1.097   0.974  10.951 -0.2263 -0.1183 -0.4050
  833MOL0     C 9853   1.058   1.113  10.941 -0.1511 -0.0950 -0.0180
  833MOL0     O 9854   1.075   1.201  11.046 -0.3313 -0.2402 -0.4286
  833MOL0     C 9855   1.067   1.338  11.025  0.4149  0.0053 -0.4372
  833MOL0     C 9856   1.131   1.420  10.919 -0.2161  0.4781 -0.3065
  833MOL0     C 9857   1.110   1.561  10.914 -0.0382  1.1113 -0.1596
  833MOL0     C 9858   1.044   1.626  11.022 -0.3731 -0.2292 -0.2100
  833MOL0     O 9859   1.020   1.757  11.019  0.9401 -0.4184 -0.2097
  833MOL0     C 9860   1.001   1.823  10.891 -0.1625 -0.0552  0.2860
  833MOL0     C 9861   0.879   1.917  10.902  0.4498 -0.5417  0.1425
  833MOL0     C 9862   0.902   2.058  10.954 -0.4743 -0.9516  0.0635
  833MOL0     C 9863   0.969   2.048  11.091 -0.4346 -0.0646  0.1050
  833MOL0     C 9864   0.954   2.174  11.163  0.7489 -0.5024  0.7276
  833MOL0     C 9865   0.969   2.147  11.310 -0.1305 -0.1404 -0.9611
  833MOL0     C 9866   0.988   2.274  11.387 -0.3437 -1.5326  0.1832
  833MOL0     C 9867   1.048   2.230  11.519  0.5054  0.4014 -0.3099
  833MOL0    Cl 9868   1.043   2.365  11.624 -0.4035 -0.0725 -0.1348
  833MOL0     C 9869   1.008   1.542  11.133 -0.6206 -0.4695  0.5253
  833MOL0     C 9870   1.006   1.405  11.131  0.4548  0.2433  0.1730
  833MOL0     O 9871   1.024   1.152  10.826 -0.3127 -0.3486 -0.4397
  833MOL0     C 9872   1.070   0.886  10.848 -0.1473  0.3630 -0.3791
  833MOL0     C 9873   1.112   0.766  10.860 -0.4443 -0.1076 -0.5140
  833MOL0     N 9874   1.437   0.065  11.313  0.3807 -0.4798 -0.7005
  833MOL0     N 9875   1.538   0.017  11.375 -0.1390  0.1971  0.6782
  833MOL0     C 9876   2.381   0.502  10.706 -0.5914 -0.2399 -0.1615
  833MOL0     C 9877   2.451   0.625  10.672 -0.7084 -0.5667  0.6570
  833MOL0     C 9878   2.682   0.952  10.478 -0.4833 -0.0231 -0.4355
  833MOL0     C 9879   2.768   1.040  10.563  0.7963  0.8160  1.8330
  833MOL0     C 9880   2.864   1.116  10.493  0.0972 -0.4523 -0.6010
  833MOL0     C 9881   2.887   1.108  10.355 -0.3726  0.3934  0.2252
  833MOL0     O 9882   2.992   1.180  10.306 -0.3072 -0.1927  0.8613
  833MOL0     C 9883   3.023   1.203  10.168 -0.1147  0.4133 -0.7814
  833MOL0     C 9884   3.156   1.274  10.166 -0.0295 -0.2938  0.4705
  833MOL0     C 9885   3.245   1.293  10.039  0.2187 -0.8922  0.3140
  833MOL0     C 9886   3.224   1.410   9.949  0.2918 -0.6171 -0.7897
  833MOL0     C 9887   3.083   1.428   9.902  0.3934  0.2440  0.4674
  833MOL0     C 9888   2.971   1.427   9.870  0.8651  0.9768  0.1736
  833MOL0     C 9889   2.791   1.041  10.279 -0.3930  0.2908  0.0227
  833MOL0     C 9890   2.689   0.967  10.340 -0.0983 -0.2965  0.5032
  833MOL0     H 9891   2.392   0.607  10.343  0.6615 -2.5245 -1.2339
  833MOL0     H 9892   2.298   0.378  10.411  0.5946 -0.6092 -0.1385
  833MOL0     H 9893   2.065   0.319  10.735  0.9071 -0.2083 -1.7256
  833MOL0     H 9894   2.208   0.336  10.835  0.7785 -1.5472  0.6570
  833MOL0     H 9895   2.244   0.090  10.820 -0.5216 -1.6490  0.5788
  833MOL0     H 9896   2.117   0.084  10.698  0.6936 -0.6907 -0.0860
  833MOL0     H 9897   2.007   0.007  10.915 -2.3603  1.4155 -4.2638
  833MOL0     H 9898   1.948   0.163  10.882  1.1114  3.3432 -1.3455
  833MOL0     H 9899   2.197   0.110  11.058  1.2393  1.3007 -1.2813
  833MOL0     H 9900   2.122   0.262  11.024  2.1061 -0.6480  0.4382
  833MOL0     H 9901   1.922   0.213  11.152  2.1422  2.6052  1.1923
  833MOL0     H 9902   2.046   0.174  11.256 -0.9741 -0.4598  0.7878
  833MOL0     H 9903   2.039  -0.075  11.159 -1.1879 -1.3318  2.1692
  833MOL0     H 9904   1.884  -0.026  11.090  0.8802  1.5497 -1.5113
  833MOL0     H 9905   1.949  -0.104  11.368 -0.6171 -1.2884 -0.4149
  833MOL0     H 9906   1.877   0.062  11.371  1.0054 -0.2950  0.8956
  833MOL0     H 9907   1.733  -0.162  11.383 -0.0787  1.0163  0.4515
  833MOL0     H 9908   1.758  -0.161  11.208  1.3998 -3.2932  2.4259
  833MOL0     H 9909   1.637   0.025  11.062 -0.1660  1.1277  0.1221
  833MOL0     H 9910   1.274   0.130  11.113  0.2202  1.5112 -1.3558
  833MOL0     H 9911   1.403   0.129  10.982  0.6086 -1.7004  0.6063
  833MOL0     H 9912   1.505   0.319  11.133  0.2433 -5.3680  2.9295
  833MOL0     H 9913   1.349   0.310  11.205 -0.1587 -1.4584 -0.1720
  833MOL0     H 9914   1.436   0.402  10.933  1.5867 -3.3035  1.8817
  833MOL0     H 9915   1.261   0.350  10.951  0.4796  0.3609 -0.2909
  833MOL0     H 9916   1.391   0.600  11.073  1.1546 -1.4835 -0.0517
  833MOL0     H 9917   1.256   0.509  11.149  1.0359 -1.7791 -0.3001
  833MOL0     H 9918   1.250   0.766  11.167 -2.2275  0.4295  1.1041
  833MOL0     H 9919   1.196   0.989  11.140 -1.1735  0.4642  0.4355
  833MOL0     H 9920   1.184   1.361  10.845  2.4024  1.7534  0.4161
  833MOL0     H 9921   1.156   1.617  10.833  0.2354 -1.7986 -2.1947
  833MOL0     H 9922   0.993   1.758  10.804 -2.9769  1.2936 -0.5703
  833MOL0     H 9923   1.086   1.887  10.866  0.5308 -1.6592 -1.7988
  833MOL0     H 9924   0.812   1.869  10.974  0.8636  1.1358  1.7304
  833MOL0     H 9925   0.835   1.920  10.802 -1.3799  1.9038  0.9304
  833MOL0     H 9926   0.804   2.106  10.968 -0.7883 -2.1371  2.6982
  833MOL0     H 9927   0.967   2.127  10.900 -1.8042 -1.0024 -1.6741
  833MOL0     H 9928   0.906   1.976  11.144 -0.4838 -0.7393 -0.8386
  833MOL0     H 9929   1.073   2.015  11.093  0.4569  2.0227  5.7339
  833MOL0     H 9930   0.861   2.228  11.146  1.3777  0.0178 -1.3000
  833MOL0     H 9931   1.017   2.251  11.118 -3.8952  1.5118 -3.2510
  833MOL0     H 9932   1.053   2.080  11.331 -1.2062 -0.3980  3.3345
  833MOL0     H 9933   0.886   2.085  11.345  0.1151 -0.9868 -1.8220
  833MOL0     H 9934   1.053   2.343  11.334 -2.0480  0.8447  1.0393
  833MOL0     H 9935   0.893   2.323  11.406 -0.2435 -1.9363  1.9221
  833MOL0     H 9936   1.146   2.186  11.501 -0.7667 -3.7241  1.6727
  833MOL0     H 9937   0.983   2.152  11.559  0.2971  0.7687  0.0786
  833MOL0     H 9938   0.974   1.603  11.216 -0.7761  1.8627 -1.1399
  833MOL0     H 9939   0.971   1.357  11.222  2.6800  0.4334  1.2013
  833MOL0     H 9940   1.023   0.911  10.753  1.2363 -0.1810 -1.2487
  833MOL0     H 9941   1.098   0.709  10.769 -1.4934  2.2121 -1.8750
  833MOL0     H 9942   2.383   0.467  10.808  1.0455 -0.1134 -0.1223
  833MOL0     H 9943   2.513   0.692  10.730 -1.8849  1.1654  0.0169
  833MOL0     H 9944   2.766   1.045  10.671  2.2142  0.5108  1.8981
  833MOL0     H 9945   2.909   1.183  10.566 -1.6976  0.9309 -0.6903
  833MOL0     H 9946   2.941   1.254  10.117  0.1397 -0.6351 -2.3247
  833MOL0     H 9947   3.030   1.110  10.110 -1.6507  0.3896 -0.9642
  833MOL0     H 9948   3.154   1.375  10.207  0.1499 -1.1139  2.6464
  833MOL0     H 9949   3.229   1.213  10.220  3.4204  0.1570 -3.2284
  833MOL0     H 9950   3.218   1.206   9.978  0.5547 -0.9260  0.2113
  833MOL0     H 9951   3.351   1.286  10.064 -0.0836 -0.9890  1.6037
  833MOL0     H 9952   3.254   1.498  10.006  1.0484 -0.9134 -0.7130
  833MOL0     H 9953   3.298   1.406   9.868  0.6651  0.2398 -0.4957
  833MOL0     H 9954   2.874   1.426   9.825  1.4628  0.5378 -1.1576
  833MOL0     H 9955   2.817   1.042  10.173 -0.4053  0.6347  0.0225
  833MOL0     H 9956   2.621   0.923  10.269 -0.5951 -0.0722  0.8376
  834MOL0     O 9957   1.291   9.008  10.096 -0.2103 -0.9948  0.5165
  834MOL0     C 9958   1.176   8.984  10.060  0.1154 -0.2551  0.2745
  834MOL0     O 9959   1.066   9.056  10.102 -0.1817 -0.4466 -0.7740
  834MOL0     C 9960   1.087   9.188  10.131  0.6337 -0.5609 -0.2841
  834MOL0     C 9961   1.036   9.241  10.245  1.3640  0.1221  0.8376
  834MOL0     C 9962   1.050   9.371  10.282  1.1194 -0.5376  0.3815
  834MOL0     C 9963   1.111   9.461  10.198 -1.2956  0.3418  0.2529
  834MOL0     O 9964   1.119   9.590  10.243  0.2404  0.0005 -0.9534
  834MOL0     C 9965   1.178   9.673  10.152  0.6035 -0.4025 -0.8333
  834MOL0     C 9966   1.188   9.813  10.223  0.7040 -0.2605  0.4456
  834MOL0     C 9967   1.060   9.883  10.253  0.7056 -0.2170  0.5064
  834MOL0     C 9968   0.976   9.910  10.126  0.7288 -0.5830  0.9237
  834MOL0     C 9969   0.883  10.041  10.129  0.5451 -0.3297 -0.2465
  834MOL0     C 9970   0.829  10.082   9.995  0.5924 -0.1617  0.1159
  834MOL0     C 9971   0.755  10.213  10.018  0.1109 -0.5539  0.3382
  834MOL0     C 9972   0.691  10.258   9.893  0.1761  0.5578  0.7358
  834MOL0     N 9973   0.639  10.396   9.915 -0.3628 -0.3519  0.4632
  834MOL0     C 9974   0.530  10.411  10.000  0.3832 -0.6615 -0.8959
  834MOL0     C 9975   0.532  10.551  10.019  0.2247  0.0962 -0.7392
  834MOL0     C 9976   0.442  10.615  10.129  0.7304  0.8263 -0.6840
  834MOL0     C 9977   0.307  10.664  10.071 -0.5658 -0.2978  0.3892
  834MOL0     C 9978   0.201  10.546  10.076  0.1726  0.5095  1.0879
  834MOL0     C 9979   0.147  10.522  10.215  0.4755  0.5781 -0.6120
  834MOL0     O 9980   0.077  10.404  10.221  0.0770  0.0943  0.2126
  834MOL0     C 9981   0.133  10.277  10.238 -1.0674  0.1307 -0.2071
  834MOL0     C 9982   0.042  10.175  10.227 -0.6049  0.4248  0.1676
  834MOL0     C 9983   0.079  10.044  10.260  0.6872  0.2725 -0.3218
  834MOL0     C 9984   0.213  10.012  10.297  0.0089  0.4064 -0.1226
  834MOL0     C 9985   0.258   9.877  10.324  0.3849 -0.4892  0.3213
  834MOL0     O 9986   0.392   9.852  10.335  0.2654 -0.6919  0.5455
  834MOL0     C 9987   0.452   9.728  10.320  0.4373  0.1557  0.0114
  834MOL0     C 9988   0.588   9.741  10.295 -0.7740 -0.3098 -0.0494
  834MOL0     C 9989   0.671   9.628  10.279 -0.3525 -0.1771  0.4719
  834MOL0     C 9990   0.610   9.499  10.277  0.7585  0.6280  0.6092
  834MOL0     O 9991   0.690   9.387  10.247 -0.5539 -0.4549 -0.3712
  834MOL0     C 9992   0.669   9.270  10.330  0.1363  1.4118 -0.7424
  834MOL0     C 9993   0.651   9.142  10.244  0.5105 -0.6700 -0.2549
  834MOL0     C 9994   0.671   9.009  10.315 -0.1080  0.6328 -0.3564
  834MOL0     C 9995   0.627   8.887  10.222 -0.0904 -0.1805  0.3627
  834MOL0     C 9996   0.645   8.752  10.297 -0.0554 -0.3261  0.6149
  834MOL0     C 9997   0.557   8.748  10.423  0.2304 -0.3561  0.7205
  834MOL0     C 9998   0.565   8.634  10.527 -0.2626  0.2431 -0.0672
  834MOL0     C 9999   0.460   8.527  10.505  0.1062 -0.2459 -0.2016
  834MOL0    Cl10000   0.473   8.423  10.353  0.0959 -0.8058 -0.1231
  834MOL0     C10001   0.473   9.479  10.296  0.8986  0.0320 -0.6776
  834MOL0     C10002   0.389   9.595  10.324 -0.1180  0.2793  0.3784
  834MOL0     O10003   0.165   9.792  10.313 -0.5869 -0.7946  0.8388
  834MOL0     C10004   0.311  10.118  10.293 -1.1213 -0.6662  0.1085
  834MOL0     C10005   0.271  10.254  10.264 -0.7152  1.3648  0.1047
  834MOL0     N10006   0.637  10.600   9.941  0.0744 -0.5753 -1.3463
  834MOL0     N10007   0.710  10.511   9.889 -0.0220 -0.7218 -0.7454
  834MOL0     C10008   1.169   9.414  10.075  0.6546  0.1271  0.0978
  834MOL0     C10009   1.147   9.278  10.036 -0.0542 -0.2829 -0.1585
  834MOL0     C10010   1.158   8.864   9.973 -1.1467  0.2934  0.0757
  834MOL0     C10011   1.256   8.771   9.946 -0.3375  0.4364  0.2309
  834MOL0     C10012   1.247   8.669   9.841 -1.0764 -0.0161 -0.0033
  834MOL0     C10013   1.136   8.671   9.757 -0.3945  0.2538 -0.1735
  834MOL0     O10014   1.114   8.578   9.651  0.2034  0.4120 -0.6825
  834MOL0     C10015   1.051   8.628   9.532 -0.3688  1.0353 -0.3297
  834MOL0     C10016   1.128   8.569   9.419  0.4156 -0.5713 -0.1013
  834MOL0     C10017   1.264   8.644   9.402 -1.2333 -0.4062  0.1066
  834MOL0     C10018   1.315   8.667   9.262  0.2161  0.0906  0.6083
  834MOL0     C10019   1.432   8.756   9.243 -0.5261 -0.3722  0.3017
  834MOL0     C10020   1.537   8.805   9.216  0.0969  0.0928  0.3114
  834MOL0     C10021   1.039   8.762   9.791  0.1400 -0.4268  0.1255
  834MOL0     C10022   1.053   8.868   9.878 -0.2080  0.5377 -1.0688
  834MOL0     H10023   0.983   9.167  10.305 -0.3408  0.3577 -0.2961
  834MOL0     H10024   0.994   9.405  10.368 -0.0748 -0.9706 -0.2083
  834MOL0     H10025   1.125   9.681  10.057  3.0921 -3.1835 -2.6062
  834MOL0     H10026   1.281   9.645  10.132  1.6102  0.6267  2.2751
  834MOL0     H10027   1.235   9.876  10.147  0.9040 -0.2956  0.5402
  834MOL0     H10028   1.251   9.797  10.310  1.2066 -3.9020 -0.4301
  834MOL0     H10029   1.075   9.977  10.307 -1.8279 -0.8684  2.5790
  834MOL0     H10030   1.004   9.819  10.321 -1.5901  3.3697  2.3624
  834MOL0     H10031   1.052   9.928  10.050 -0.6764  0.9461 -0.2013
  834MOL0     H10032   0.918   9.823  10.092  2.5617 -2.0413  1.3912
  834MOL0     H10033   0.937  10.128  10.168  0.8077 -1.8134  3.0538
  834MOL0     H10034   0.809  10.023  10.208  1.8728  1.3607  1.4842
  834MOL0     H10035   0.763  10.003   9.959  0.4222 -0.2835  0.6765
  834MOL0     H10036   0.905  10.093   9.917  0.6390  0.3027  0.2196
  834MOL0     H10037   0.695  10.217  10.109  0.9059  2.3329  0.8298
  834MOL0     H10038   0.831  10.287  10.043 -1.8689  2.5030 -2.0458
  834MOL0     H10039   0.611  10.191   9.860  0.6045  2.1233 -4.2742
  834MOL0     H10040   0.760  10.263   9.808 -2.0980 -1.7248 -1.4113
  834MOL0     H10041   0.465  10.335  10.040 -0.7644 -0.9573 -3.1435
  834MOL0     H10042   0.482  10.707  10.174  1.1715 -0.2175  1.1692
  834MOL0     H10043   0.432  10.547  10.214 -0.8825  0.9781 -0.7264
  834MOL0     H10044   0.334  10.691   9.969 -0.8348  2.0790  0.8895
  834MOL0     H10045   0.275  10.754  10.124 -2.0237  0.3923 -1.5607
  834MOL0     H10046   0.123  10.556  10.000  1.8386  0.1631 -0.7637
  834MOL0     H10047   0.251  10.453  10.046 -2.0423 -0.0674 -1.1541
  834MOL0     H10048   0.070  10.596  10.236  0.7222  0.1580  1.9957
  834MOL0     H10049   0.230  10.513  10.286 -0.1242 -2.6247 -0.1786
  834MOL0     H10050  -0.060  10.186  10.192 -0.5788 -1.1604 -0.5440
  834MOL0     H10051  -0.002   9.973  10.269  0.1125  0.9138 -0.2887
  834MOL0     H10052   0.637   9.837  10.305 -0.9579  0.0799 -2.3824
  834MOL0     H10053   0.778   9.637  10.257 -0.2497 -2.1051 -0.0065
  834MOL0     H10054   0.582   9.278  10.397  0.4225 -1.6158  0.1882
  834MOL0     H10055   0.758   9.249  10.391  0.4938  2.4682 -0.8831
  834MOL0     H10056   0.714   9.150  10.154  1.1596 -0.3969  0.2168
  834MOL0     H10057   0.551   9.157  10.203  0.5813  1.0600  0.1395
  834MOL0     H10058   0.624   9.012  10.413  0.5981 -2.2588  0.1705
  834MOL0     H10059   0.779   8.992  10.325 -0.1669  0.9320  0.9820
  834MOL0     H10060   0.520   8.897  10.199 -0.5510  3.3768  3.2019
  834MOL0     H10061   0.687   8.881  10.130 -2.8733 -3.1773 -1.4821
  834MOL0     H10062   0.749   8.735  10.328  0.1695  1.4768  0.9456
  834MOL0     H10063   0.613   8.673  10.229 -0.4218  0.1996  0.1690
  834MOL0     H10064   0.456   8.740  10.383 -0.4949  1.8595  1.9311
  834MOL0     H10065   0.555   8.832  10.493  3.4682 -0.0570  0.6342
  834MOL0     H10066   0.660   8.578  10.532 -0.1725  0.2535 -1.3799
  834MOL0     H10067   0.553   8.677  10.627  2.0053 -1.2479  0.9622
  834MOL0     H10068   0.366   8.582  10.491  1.0610  1.8396  0.9989
  834MOL0     H10069   0.454   8.451  10.583 -3.9859  0.8671  0.8291
  834MOL0     H10070   0.434   9.378  10.289 -1.7175  0.9673 -0.5400
  834MOL0     H10071   0.282   9.596  10.338 -1.2464 -0.3565 -5.5925
  834MOL0     H10072   0.416  10.089  10.298 -1.0657 -1.6225 -3.5167
  834MOL0     H10073   0.353  10.320  10.241  0.8416 -0.9919 -1.5522
  834MOL0     H10074   1.222   9.479  10.006 -0.6655  2.3440  1.0499
  834MOL0     H10075   1.177   9.234   9.941  1.3031  0.2992 -0.0195
  834MOL0     H10076   1.331   8.759  10.023 -1.1135 -1.5034  0.7515
  834MOL0     H10077   1.332   8.603   9.825 -0.1476  0.9485  0.8207
  834MOL0     H10078   1.044   8.737   9.530 -1.6879  1.1206  3.1532
  834MOL0     H10079   0.947   8.594   9.545  0.2281 -0.4907  0.6620
  834MOL0     H10080   1.142   8.461   9.420 -0.3866 -0.6711  1.1681
  834MOL0     H10081   1.060   8.588   9.335 -1.5959  0.2412  1.6079
  834MOL0     H10082   1.343   8.609   9.470 -1.6423  2.3525  2.2325
  834MOL0     H10083   1.261   8.747   9.439  2.6510  0.0945 -0.5243
  834MOL0     H10084   1.354   8.578   9.212  2.9540  2.0485 -1.0800
  834MOL0     H10085   1.240   8.710   9.195  1.0094  0.4510 -0.0791
  834MOL0     H10086   1.632   8.845   9.190 -0.9072  3.0671  0.8807
  834MOL0     H10087   0.951   8.757   9.727  2.0116 -1.0549 -2.5600
  834MOL0     H10088   0.964   8.931   9.887  0.6768  1.6105  0.8072
  835MOL0     O10089   1.818   4.519   5.104  0.1239 -0.1715  0.0572
  835MOL0     C10090   1.918   4.548   5.039  0.6263 -0.1703  0.0404
  835MOL0     O10091   1.940   4.672   4.982 -0.7888  0.1505  0.5417
  835MOL0     C10092   1.861   4.776   5.039 -0.3003 -0.2670  0.5065
  835MOL0     C10093   1.881   4.830   5.168  0.1499  0.9405  0.1349
  835MOL0     C10094   1.814   4.940   5.220 -0.1678 -0.5179  0.7686
  835MOL0     C10095   1.720   4.999   5.135  0.0608  0.3149  0.9905
  835MOL0     O10096   1.647   5.120   5.160  0.3725  0.0302  0.2591
  835MOL0     C10097   1.726   5.213   5.243 -0.2528 -0.1561  0.8148
  835MOL0     C10098   1.656   5.347   5.274 -0.3105 -0.4413  0.3706
  835MOL0     C10099   1.645   5.453   5.157 -0.5861  0.8620 -0.1716
  835MOL0     C10100   1.544   5.558   5.189  0.6065  0.2848 -0.3421
  835MOL0     C10101   1.535   5.668   5.084  0.8009 -0.3725  0.2972
  835MOL0     C10102   1.430   5.765   5.140  0.1567  0.3968  0.0553
  835MOL0     C10103   1.436   5.888   5.050  0.1918 -0.7286 -0.3797
  835MOL0     C10104   1.337   5.994   5.093  0.5794 -0.3299  0.4478
  835MOL0     N10105   1.373   6.133   5.052  0.6622 -0.1072  0.1581
  835MOL0     C10106   1.292   6.249   5.051 -0.6980 -0.7005  0.1979
  835MOL0     C10107   1.372   6.344   4.994 -0.5327  0.4603 -0.3663
  835MOL0     C10108   1.353   6.493   4.987 -0.1610 -0.9767 -0.4835
  835MOL0     C10109   1.433   6.558   5.101 -1.6440 -0.0356  0.0160
  835MOL0     C10110   1.408   6.497   5.244  0.1462 -0.2410  0.3517
  835MOL0     C10111   1.453   6.595   5.356  0.6803 -0.9724  0.2298
  835MOL0     O10112   1.592   6.583   5.359 -0.6877 -0.3336  0.3381
  835MOL0     C10113   1.641   6.668   5.454 -0.1965 -0.1472 -0.1250
  835MOL0     C10114   1.668   6.611   5.582 -0.4591 -0.4809  0.9387
  835MOL0     C10115   1.728   6.702   5.676 -1.2715  0.2112  0.4864
  835MOL0     C10116   1.761   6.839   5.644  0.3937  0.1624 -0.6484
  835MOL0     C10117   1.846   6.921   5.743  0.6073  1.2547  0.7153
  835MOL0     O10118   1.907   7.039   5.685 -0.9215  1.2100 -0.2411
  835MOL0     C10119   1.969   7.137   5.758  0.9224 -0.2643 -0.3071
  835MOL0     C10120   1.947   7.264   5.710 -0.0025 -0.1366  0.5807
  835MOL0     C10121   1.993   7.372   5.780 -0.4272 -0.2240  0.4297
  835MOL0     C10122   2.073   7.357   5.896  0.4209  0.8002  0.0717
  835MOL0     O10123   2.117   7.475   5.949 -0.1755  0.1420  1.1696
  835MOL0     C10124   2.186   7.477   6.078  0.1346  1.1146  0.5290
  835MOL0     C10125   2.250   7.610   6.097  0.6064 -0.0882 -0.3147
  835MOL0     C10126   2.158   7.733   6.103 -0.4885 -0.8760 -0.7426
  835MOL0     C10127   2.227   7.865   6.085 -0.4691  0.0851  0.4441
  835MOL0     C10128   2.131   7.974   6.131 -0.2447  0.7004 -0.1786
  835MOL0     C10129   2.179   8.113   6.112 -0.2791 -2.0846  0.4914
  835MOL0     C10130   2.314   8.137   6.178  0.0277 -0.8425  0.2604
  835MOL0     C10131   2.348   8.290   6.195  0.1176 -0.5310 -0.8176
  835MOL0    Cl10132   2.320   8.373   6.036  0.2875 -0.0723 -0.1039
  835MOL0     C10133   2.106   7.221   5.940  1.2720  0.0074  0.6284
  835MOL0     C10134   2.041   7.116   5.871  0.5281  0.4866 -0.3596
  835MOL0     O10135   1.855   6.877   5.858  0.2474  0.3658 -0.2166
  835MOL0     C10136   1.728   6.885   5.522  0.6661  0.1752  0.8051
  835MOL0     C10137   1.678   6.796   5.421 -0.5185 -0.1029 -0.9246
  835MOL0     N10138   1.496   6.284   4.954  0.6373  0.4076  0.1634
  835MOL0     N10139   1.494   6.164   4.990  0.1761  0.0164  0.6409
  835MOL0     C10140   1.689   4.943   5.010 -1.1020 -0.8213 -0.0371
  835MOL0     C10141   1.763   4.834   4.959  0.7485 -0.0925 -0.3653
  835MOL0     C10142   2.004   4.436   5.003 -0.4186  0.1333 -0.6691
  835MOL0     C10143   2.137   4.457   4.964 -0.7494  0.2224  0.4009
  835MOL0     C10144   2.228   4.350   4.946 -0.1331  0.2293 -0.1525
  835MOL0     C10145   2.181   4.217   4.967 -0.4838 -0.5709  0.1650
  835MOL0     O10146   2.257   4.105   4.949  0.1205  0.1121 -0.1850
  835MOL0     C10147   2.396   4.111   4.933 -0.0547  0.3373  0.5104
  835MOL0     C10148   2.429   4.147   4.784 -0.6097 -0.1924 -0.3711
  835MOL0     C10149   2.584   4.150   4.757  0.0337 -0.2850 -0.4899
  835MOL0     C10150   2.625   4.007   4.728 -0.1445 -0.3216 -0.5394
  835MOL0     C10151   2.770   4.004   4.689 -0.3162 -0.7988 -1.1394
  835MOL0     C10152   2.891   4.006   4.656  0.3162  0.0566 -1.3154
  835MOL0     C10153   2.044   4.197   4.999 -0.1336 -0.5049 -0.1406
  835MOL0     C10154   1.956   4.306   5.012  0.6173 -0.7310 -0.2426
  835MOL0     H10155   1.951   4.776   5.231 -0.7963  2.7313  2.8915
  835MOL0     H10156   1.845   4.968   5.320  3.4093 -1.0538 -0.0629
  835MOL0     H10157   1.825   5.232   5.201 -0.6449 -0.0292 -0.0602
  835MOL0     H10158   1.733   5.166   5.342 -0.0702 -0.4371  0.6686
  835MOL0     H10159   1.701   5.408   5.352 -3.4459  3.6630 -0.6824
  835MOL0     H10160   1.550   5.328   5.294 -1.1768 -0.0847 -3.1593
  835MOL0     H10161   1.606   5.406   5.067 -5.5251  3.1014  0.4748
  835MOL0     H10162   1.744   5.498   5.149 -0.1892 -0.1491 -1.0134
  835MOL0     H10163   1.446   5.511   5.199 -0.0215  1.4835 -0.8446
  835MOL0     H10164   1.575   5.618   5.275 -0.0305  2.3933 -1.5237
  835MOL0     H10165   1.527   5.637   4.980 -1.2829 -0.1822  0.3503
  835MOL0     H10166   1.627   5.725   5.100  0.7818 -0.8112  2.2815
  835MOL0     H10167   1.454   5.793   5.243  0.6844  0.5153 -0.0935
  835MOL0     H10168   1.331   5.719   5.136  0.4915 -0.2708 -2.9788
  835MOL0     H10169   1.539   5.924   5.058  0.4870 -1.8982  2.3169
  835MOL0     H10170   1.414   5.864   4.946 -2.7241  0.5730 -0.1833
  835MOL0     H10171   1.348   6.001   5.202 -0.7454 -0.0307  0.5820
  835MOL0     H10172   1.237   5.963   5.061  2.0459 -2.3714 -2.5729
  835MOL0     H10173   1.190   6.266   5.083 -0.2085 -0.0265  1.4369
  835MOL0     H10174   1.252   6.534   4.997 -0.2342 -0.2292 -3.5498
  835MOL0     H10175   1.402   6.527   4.896 -0.2122  0.7148  0.0861
  835MOL0     H10176   1.412   6.665   5.100  0.4921  0.4163 -1.2945
  835MOL0     H10177   1.539   6.543   5.079 -1.4128 -0.1936  1.1395
  835MOL0     H10178   1.303   6.473   5.261 -0.4313  0.4535 -1.8608
  835MOL0     H10179   1.463   6.404   5.258  0.0242 -0.7084 -1.8777
  835MOL0     H10180   1.412   6.562   5.452 -1.1993 -0.3693 -0.3288
  835MOL0     H10181   1.405   6.693   5.344 -3.0035 -2.7325 -0.7573
  835MOL0     H10182   1.642   6.510   5.611 -1.6778  0.2212  2.4037
  835MOL0     H10183   1.750   6.669   5.777 -1.6545 -1.8521 -0.0652
  835MOL0     H10184   1.893   7.281   5.617 -0.9269  1.3606  1.3475
  835MOL0     H10185   1.979   7.473   5.741 -1.3201 -0.9541 -1.2616
  835MOL0     H10186   2.263   7.399   6.076 -0.3194  0.5621 -3.2154
  835MOL0     H10187   2.112   7.451   6.155 -0.6634 -0.2634 -0.6454
  835MOL0     H10188   2.316   7.618   6.010 -0.6660  1.0153 -1.2186
  835MOL0     H10189   2.305   7.608   6.192 -0.8613  0.1703  0.5637
  835MOL0     H10190   2.123   7.725   6.207  3.0590  0.6138  0.7612
  835MOL0     H10191   2.081   7.729   6.026  0.1974 -0.1041 -1.4898
  835MOL0     H10192   2.324   7.870   6.135 -0.3386  1.7079  0.0710
  835MOL0     H10193   2.237   7.881   5.977 -1.6696  0.2717  0.3465
  835MOL0     H10194   2.126   7.963   6.240 -3.7285  0.1139 -0.2788
  835MOL0     H10195   2.030   7.968   6.091 -1.8164 -2.6687  3.5803
  835MOL0     H10196   2.113   8.185   6.161  1.5278  0.5892 -0.7445
  835MOL0     H10197   2.180   8.145   6.007 -0.6484 -0.9939  0.8097
  835MOL0     H10198   2.319   8.101   6.281 -1.0021 -1.5616  0.0751
  835MOL0     H10199   2.397   8.099   6.119  2.5585  0.8820  2.4912
  835MOL0     H10200   2.453   8.303   6.223  0.5036 -0.2149 -2.3360
  835MOL0     H10201   2.299   8.328   6.285  2.8518 -0.4383  0.7358
  835MOL0     H10202   2.179   7.198   6.018  1.9448  1.7766  0.5696
  835MOL0     H10203   2.059   7.011   5.892 -2.0839  0.0413 -0.0356
  835MOL0     H10204   1.755   6.986   5.493  2.5719 -0.2227  1.0475
  835MOL0     H10205   1.662   6.824   5.318 -0.9601 -0.4466 -0.9511
  835MOL0     H10206   1.614   4.983   4.943  0.0305 -2.4182 -2.3880
  835MOL0     H10207   1.740   4.798   4.859 -1.6743 -0.0427  0.1049
  835MOL0     H10208   2.181   4.554   4.943  1.4295 -0.9879 -1.0172
  835MOL0     H10209   2.325   4.367   4.899  0.4805 -0.4853  0.8247
  835MOL0     H10210   2.427   4.006   4.938  2.2237  0.7498 -2.3588
  835MOL0     H10211   2.453   4.176   5.001  0.7829  1.0586 -0.8388
  835MOL0     H10212   2.382   4.057   4.743 -0.3640 -0.5637  0.1390
  835MOL0     H10213   2.380   4.233   4.738 -1.1437 -1.4268 -2.2174
  835MOL0     H10214   2.633   4.182   4.849 -2.1948  0.3802  0.5447
  835MOL0     H10215   2.615   4.220   4.678  2.8925 -0.6753  0.1778
  835MOL0     H10216   2.614   3.937   4.811  0.8986 -1.7991 -1.5939
  835MOL0     H10217   2.564   3.966   4.646 -0.0983  0.6613 -1.0799
  835MOL0     H10218   2.994   4.014   4.630  0.0608  3.6052 -1.7824
  835MOL0     H10219   2.014   4.093   5.005  1.2714 -0.8436  2.5789
  835MOL0     H10220   1.849   4.296   5.027  0.1034  3.0273 -0.3424
  836MOL0     O10221   8.998  10.598   0.902 -1.1037  0.5515  0.5111
  836MOL0     C10222   8.993  10.605   1.029  0.0608  0.5023 -0.1003
  836MOL0     O10223   8.883  10.585   1.105 -0.9909  0.1241  0.0240
  836MOL0     C10224   8.778  10.548   1.040  0.2775 -0.3865 -0.9653
  836MOL0     C10225   8.702  10.469   1.115  0.2019  0.6496  0.4850
  836MOL0     C10226   8.567  10.432   1.084 -0.5479  0.8647 -0.6120
  836MOL0     C10227   8.516  10.472   0.963  0.5091 -0.3353  0.1430
  836MOL0     O10228   8.386  10.448   0.927  0.9562  0.1363 -0.2246
  836MOL0     C10229   8.385  10.353   0.819  0.3825 -0.0009 -0.1881
  836MOL0     C10230   8.261  10.272   0.838 -0.4675 -0.6067 -0.4404
  836MOL0     C10231   8.228  10.189   0.720 -0.1106  1.1935  0.6798
  836MOL0     C10232   8.133  10.076   0.764  0.4235 -0.5528 -0.3981
  836MOL0     C10233   8.075   9.991   0.645  1.1209 -0.5189  1.0735
  836MOL0     C10234   7.970   9.887   0.673  0.7404  0.4943 -0.0245
  836MOL0     C10235   7.906   9.828   0.548 -0.4998  0.3599  0.0071
  836MOL0     C10236   7.820   9.709   0.591 -0.1876 -0.7883  0.0277
  836MOL0     N10237   7.724   9.718   0.704  0.2162  0.3299  0.3055
  836MOL0     C10238   7.743   9.714   0.844  0.6246  0.6630 -0.1500
  836MOL0     C10239   7.621   9.751   0.892  0.1180 -0.3427 -0.1760
  836MOL0     C10240   7.567   9.755   1.026  0.3838 -0.9323  0.5618
  836MOL0     C10241   7.505   9.897   1.069  0.5262 -0.0850  0.1814
  836MOL0     C10242   7.593  10.012   1.033  0.2108  0.3429  0.8493
  836MOL0     C10243   7.717  10.039   1.112  0.0967 -0.2562  0.8324
  836MOL0     O10244   7.820   9.952   1.066 -0.3943  0.5555  0.0404
  836MOL0     C10245   7.946   9.987   1.108  0.7541 -0.4058  1.1058
  836MOL0     C10246   7.981  10.101   1.184  0.0822  0.5156  0.3867
  836MOL0     C10247   8.112  10.122   1.219 -1.1125 -0.5187  0.7804
  836MOL0     C10248   8.217  10.037   1.171 -1.0244  1.3555  0.1864
  836MOL0     C10249   8.357  10.069   1.212 -0.2069 -0.1668 -0.4866
  836MOL0     O10250   8.453   9.986   1.152  0.0984 -0.6708  0.4863
  836MOL0     C10251   8.578   9.991   1.193  0.2721  0.2671 -0.4475
  836MOL0     C10252   8.616   9.950   1.321  0.2931  0.1393  0.2432
  836MOL0     C10253   8.747   9.975   1.362  0.6212  0.0523  0.2690
  836MOL0     C10254   8.838  10.033   1.271 -0.3539 -0.3311 -0.3216
  836MOL0     O10255   8.964  10.018   1.303 -0.0423 -0.2146 -0.0540
  836MOL0     C10256   9.015  10.097   1.411 -0.7662 -0.0683 -1.0327
  836MOL0     C10257   9.035  10.241   1.349 -0.4941 -0.5395  0.5551
  836MOL0     C10258   9.178  10.290   1.322  0.0399  0.5584  0.1881
  836MOL0     C10259   9.227  10.392   1.415 -0.3623  0.0273  0.0795
  836MOL0     C10260   9.367  10.450   1.372 -0.5964 -0.4457  0.6442
  836MOL0     C10261   9.479  10.350   1.362  0.1766  0.2467  1.0985
  836MOL0     C10262   9.524  10.319   1.502 -0.1391 -1.5820 -0.0409
  836MOL0     C10263   9.665  10.283   1.507 -0.0427  0.3944  1.0236
  836MOL0    Cl10264   9.772  10.413   1.435  0.6078 -0.1611 -0.5191
  836MOL0     C10265   8.805  10.058   1.140 -0.0172 -0.1614 -0.1055
  836MOL0     C10266   8.668  10.050   1.108  0.6203  0.0768 -0.0068
  836MOL0     O10267   8.372  10.140   1.308 -0.0647  0.3939  0.5927
  836MOL0     C10268   8.182   9.922   1.103  0.2971 -0.3171 -0.8208
  836MOL0     C10269   8.049   9.901   1.069 -0.5285  0.0358 -0.0669
  836MOL0     N10270   7.529   9.773   0.789 -0.3693  0.5046  0.3337
  836MOL0     N10271   7.596   9.757   0.677 -1.0192 -0.6790 -0.6479
  836MOL0     C10272   8.594  10.550   0.876 -0.4895 -0.7348 -0.4892
  836MOL0     C10273   8.730  10.579   0.908 -0.1585 -0.1327 -1.0209
  836MOL0     C10274   9.103  10.653   1.093  0.2523  0.4808  0.3768
  836MOL0     C10275   9.228  10.680   1.024  0.2995  0.0655 -0.1645
  836MOL0     C10276   9.343  10.719   1.090  0.1759 -0.1669 -0.3509
  836MOL0     C10277   9.340  10.748   1.227  0.0904 -0.8231  0.0317
  836MOL0     O10278   9.441  10.790   1.303  0.1193  0.1939 -0.5976
  836MOL0     C10279   9.583  10.771   1.277  0.2770 -0.3304 -0.1324
  836MOL0     C10280   9.672  10.844   1.387 -0.7021 -0.0383 -0.2378
  836MOL0     C10281   9.819  10.840   1.352  0.6917 -0.8199 -0.3301
  836MOL0     C10282   9.867  10.932   1.237  0.5097 -0.1253 -0.1957
  836MOL0     C10283  10.006  10.990   1.248 -0.4050 -0.2266  0.5097
  836MOL0     C10284  10.116  11.044   1.255 -1.0733  0.7972 -0.5283
  836MOL0     C10285   9.219  10.722   1.296 -0.6101 -0.7324  0.1068
  836MOL0     C10286   9.104  10.676   1.235 -0.2847 -1.3017  0.3829
  836MOL0     H10287   8.749  10.435   1.207  2.1671  0.0063 -0.6920
  836MOL0     H10288   8.512  10.374   1.158  3.1790  0.6656  2.2555
  836MOL0     H10289   8.466  10.279   0.821 -0.7507 -1.2888 -0.0618
  836MOL0     H10290   8.380  10.416   0.730  0.0927  0.8875  0.4415
  836MOL0     H10291   8.176  10.337   0.858 -1.5240 -1.9182 -0.5424
  836MOL0     H10292   8.276  10.209   0.926  0.7662 -2.5484 -1.9338
  836MOL0     H10293   8.317  10.130   0.695  0.7087  1.5836  2.5540
  836MOL0     H10294   8.184  10.248   0.640 -2.0912 -3.0028 -1.6916
  836MOL0     H10295   8.186  10.012   0.835  1.6305  0.8228 -0.0175
  836MOL0     H10296   8.049  10.125   0.813 -1.5985 -2.3607 -1.8433
  836MOL0     H10297   8.161   9.944   0.596  2.6392  1.8518  1.2329
  836MOL0     H10298   8.035  10.064   0.574  1.6017 -0.2570  1.0642
  836MOL0     H10299   7.894   9.941   0.730 -0.0757  0.5667 -1.1517
  836MOL0     H10300   8.006   9.816   0.749  0.0135 -0.3929 -0.4910
  836MOL0     H10301   7.853   9.907   0.494 -0.5981  0.9336  0.9219
  836MOL0     H10302   7.981   9.790   0.478  1.0136 -0.9206  2.1700
  836MOL0     H10303   7.895   9.633   0.613  0.3129  0.0504  1.3533
  836MOL0     H10304   7.769   9.679   0.499 -2.0529 -0.6495  0.9712
  836MOL0     H10305   7.836   9.688   0.894  1.1565  0.9127 -1.0057
  836MOL0     H10306   7.646   9.735   1.099 -0.3238 -2.1538  1.0233
  836MOL0     H10307   7.497   9.672   1.037  0.1155 -0.7744  0.0734
  836MOL0     H10308   7.466   9.912   1.170 -1.5711  0.1018 -0.6087
  836MOL0     H10309   7.415   9.909   1.009  1.3463  1.9782 -0.7308
  836MOL0     H10310   7.622   9.993   0.930  2.8434 -1.9698  1.9058
  836MOL0     H10311   7.532  10.103   1.037  0.0422  0.1875  2.7323
  836MOL0     H10312   7.700  10.020   1.219  0.0728 -0.1625  0.8459
  836MOL0     H10313   7.732  10.148   1.107  2.0978 -0.5597 -1.3065
  836MOL0     H10314   7.914  10.182   1.212  2.8668  2.4216  2.0591
  836MOL0     H10315   8.144  10.214   1.266 -1.0319  0.4479 -1.0804
  836MOL0     H10316   8.546   9.900   1.387  0.1722  0.8522  0.6646
  836MOL0     H10317   8.789   9.944   1.457  2.2655  1.0151 -0.1037
  836MOL0     H10318   9.114  10.056   1.433 -0.3455 -0.6401 -3.6267
  836MOL0     H10319   8.954  10.085   1.501  1.5605 -2.3084  0.3716
  836MOL0     H10320   8.977  10.303   1.418 -3.8465  0.1209 -2.5310
  836MOL0     H10321   8.978  10.251   1.256 -0.2269 -1.4868  0.2827
  836MOL0     H10322   9.187  10.338   1.223  0.1707 -2.1083 -1.1823
  836MOL0     H10323   9.249  10.207   1.327  2.3523  2.5091  1.6707
  836MOL0     H10324   9.164  10.482   1.420 -2.2757 -1.3246  1.8192
  836MOL0     H10325   9.235  10.345   1.514  1.3635 -2.4941 -1.1696
  836MOL0     H10326   9.393  10.532   1.439 -4.1284  2.7655 -1.4838
  836MOL0     H10327   9.359  10.505   1.277 -0.7726 -0.2751  0.7561
  836MOL0     H10328   9.562  10.378   1.296 -0.4218  0.7635  0.5580
  836MOL0     H10329   9.440  10.259   1.313 -1.8144  1.1722  0.8557
  836MOL0     H10330   9.514  10.398   1.576  0.2258 -0.8607 -0.7474
  836MOL0     H10331   9.471  10.232   1.543 -0.0300 -1.4075  0.4772
  836MOL0     H10332   9.679  10.200   1.437 -0.1121  0.6177  0.7425
  836MOL0     H10333   9.701  10.251   1.605 -1.1916 -0.0880  1.3066
  836MOL0     H10334   8.872  10.091   1.061  0.7973 -2.0357 -0.2539
  836MOL0     H10335   8.639  10.072   1.006  0.1370  0.1605  0.1474
  836MOL0     H10336   8.261   9.853   1.076 -0.6995 -3.4354  3.2521
  836MOL0     H10337   8.043   9.810   1.010 -3.2094  0.0120  0.1468
  836MOL0     H10338   8.561  10.576   0.775  2.8161 -3.7393 -2.5804
  836MOL0     H10339   8.788  10.656   0.858  3.7561 -1.2147  1.3927
  836MOL0     H10340   9.239  10.656   0.918  3.0438 -0.3162  0.1286
  836MOL0     H10341   9.434  10.714   1.031  0.6900 -2.6341  0.5082
  836MOL0     H10342   9.610  10.805   1.176 -0.7656 -2.8835 -1.3851
  836MOL0     H10343   9.601  10.664   1.288 -2.5709 -1.0060 -1.0978
  836MOL0     H10344   9.633  10.945   1.397 -1.2690 -0.1782 -0.8939
  836MOL0     H10345   9.672  10.786   1.480  0.4110  1.5798  0.8133
  836MOL0     H10346   9.828  10.733   1.334 -1.8682 -1.6057  2.3017
  836MOL0     H10347   9.878  10.870   1.440 -0.8474  1.8023 -0.0587
  836MOL0     H10348   9.861  10.859   1.155 -0.6683 -1.5653  1.1135
  836MOL0     H10349   9.793  11.010   1.216  0.7697  0.0887 -0.3096
  836MOL0     H10350  10.216  11.081   1.261 -0.5934 -0.5290  0.3905
  836MOL0     H10351   9.220  10.739   1.404 -1.2286 -2.3055  0.3836
  836MOL0     H10352   9.017  10.652   1.295 -0.2633 -0.1463  0.9092
  837MOL0     O10353   5.458   7.433   1.731  0.2535  0.7920 -0.4163
  837MOL0     C10354   5.483   7.497   1.626  0.3597  0.0110 -0.1358
  837MOL0     O10355   5.561   7.448   1.521 -0.2568  1.0659  0.2517
  837MOL0     C10356   5.591   7.317   1.539 -0.7365  0.1069 -1.0166
  837MOL0     C10357   5.510   7.211   1.501  0.1266 -0.5034  0.0617
  837MOL0     C10358   5.550   7.076   1.510  0.0232  0.2549 -0.1484
  837MOL0     C10359   5.675   7.043   1.554 -0.2497  0.4638 -0.1854
  837MOL0     O10360   5.723   6.910   1.563 -0.2577  0.7444  0.1186
  837MOL0     C10361   5.642   6.805   1.517  0.0473  0.0553 -0.2900
  837MOL0     C10362   5.721   6.673   1.538 -0.4278 -0.4126  0.6683
  837MOL0     C10363   5.632   6.558   1.512  0.6280 -0.0315 -0.7842
  837MOL0     C10364   5.711   6.422   1.523 -1.2348 -0.6123 -0.2813
  837MOL0     C10365   5.689   6.355   1.659 -0.8099  0.4845  0.4822
  837MOL0     C10366   5.728   6.204   1.658 -0.3748  0.1087 -0.3923
  837MOL0     C10367   5.883   6.182   1.652  0.3646 -0.6473  0.3204
  837MOL0     C10368   5.959   6.219   1.785  1.3205  0.2088 -0.4073
  837MOL0     N10369   6.092   6.161   1.784  0.1952 -0.6202  0.0141
  837MOL0     C10370   6.120   6.039   1.835  0.8774 -0.1116  0.4710
  837MOL0     C10371   6.243   6.005   1.802 -0.0387  0.2076  0.2581
  837MOL0     C10372   6.322   5.884   1.833  0.7927  0.3263  0.7583
  837MOL0     C10373   6.433   5.917   1.928  0.3828 -1.5851  0.2900
  837MOL0     C10374   6.382   5.944   2.068  0.8393  1.0804 -0.2633
  837MOL0     C10375   6.500   5.962   2.154 -0.4017  0.5657 -0.6515
  837MOL0     O10376   6.600   5.861   2.146  0.0312  1.2808 -0.3308
  837MOL0     C10377   6.726   5.879   2.204  0.1358 -0.6870 -0.0239
  837MOL0     C10378   6.800   5.761   2.191 -0.1071 -1.1571 -0.3709
  837MOL0     C10379   6.926   5.760   2.259 -0.4315 -0.0790 -0.0423
  837MOL0     C10380   6.970   5.873   2.335  0.1062 -0.6959  0.0554
  837MOL0     C10381   7.098   5.857   2.411  0.2629 -0.5838  0.5033
  837MOL0     O10382   7.155   5.969   2.462  0.3277  0.4509  0.5224
  837MOL0     C10383   7.266   5.940   2.542 -0.1718  0.4140  0.4244
  837MOL0     C10384   7.389   5.886   2.497  0.1715  0.3017  0.1301
  837MOL0     C10385   7.500   5.871   2.586 -0.2322  0.6858  0.8965
  837MOL0     C10386   7.479   5.889   2.729 -0.0767 -0.3697  0.8410
  837MOL0     O10387   7.577   5.872   2.814 -0.3904 -0.5736 -0.5808
  837MOL0     C10388   7.624   5.737   2.829  0.1165  0.3029  0.1501
  837MOL0     C10389   7.759   5.740   2.887  0.4988 -0.0473 -0.0237
  837MOL0     C10390   7.748   5.744   3.042 -0.2277 -0.3568  0.2587
  837MOL0     C10391   7.882   5.741   3.112  0.0485  0.5324  0.6119
  837MOL0     C10392   7.871   5.693   3.260 -0.5217 -0.4757 -0.7684
  837MOL0     C10393   8.008   5.680   3.325 -0.6846 -0.0382  0.2183
  837MOL0     C10394   8.130   5.586   3.274  0.3082  0.2404 -0.7307
  837MOL0     C10395   8.126   5.433   3.290  0.0808  0.0804  0.2039
  837MOL0    Cl10396   7.997   5.364   3.177  0.1374  0.0283  0.0899
  837MOL0     C10397   7.355   5.929   2.767 -0.2334  0.4300 -0.5695
  837MOL0     C10398   7.250   5.953   2.677 -0.0618  0.2518  0.1372
  837MOL0     O10399   7.130   5.740   2.435  0.1647  0.0633 -0.9352
  837MOL0     C10400   6.893   5.991   2.336  0.5349  0.1853 -0.0953
  837MOL0     C10401   6.772   5.994   2.270  0.3934 -0.4023 -0.3901
  837MOL0     N10402   6.280   6.100   1.708 -0.2792 -0.2142  0.7111
  837MOL0     N10403   6.196   6.201   1.707  0.3548 -0.2658 -0.3238
  837MOL0     C10404   5.761   7.152   1.598 -0.3969  0.6656 -0.5488
  837MOL0     C10405   5.712   7.286   1.590 -1.0669 -0.3175  0.5723
  837MOL0     C10406   5.442   7.638   1.607 -0.5315 -0.4195  0.1103
  837MOL0     C10407   5.453   7.697   1.484 -0.5831 -0.2908 -0.4999
  837MOL0     C10408   5.409   7.831   1.475 -0.5858 -0.2744 -0.1576
  837MOL0     C10409   5.351   7.901   1.572 -0.2312 -0.3791  0.0322
  837MOL0     O10410   5.303   8.032   1.535  0.9364 -0.0435 -0.3078
  837MOL0     C10411   5.207   8.098   1.625  1.3083 -0.3115  0.1674
  837MOL0     C10412   5.164   8.225   1.552 -0.4197  0.1020 -0.4476
  837MOL0     C10413   5.049   8.297   1.628 -0.0018 -0.0202 -0.0765
  837MOL0     C10414   4.986   8.417   1.561  0.8531  0.1986  0.0976
  837MOL0     C10415   4.858   8.453   1.615 -0.1054  0.7311  0.7837
  837MOL0     C10416   4.747   8.492   1.638  0.5060  0.0795 -1.1064
  837MOL0     C10417   5.324   7.837   1.693  0.2129 -0.1430  0.1230
  837MOL0     C10418   5.376   7.708   1.706 -0.2511  0.5394 -0.4310
  837MOL0     H10419   5.418   7.234   1.449  0.7995 -1.3003 -1.5432
  837MOL0     H10420   5.476   6.998   1.495  0.9645 -0.6808 -0.0666
  837MOL0     H10421   5.613   6.814   1.412 -0.3181  1.0539 -0.1183
  837MOL0     H10422   5.545   6.796   1.567  0.3110  0.4928  0.3229
  837MOL0     H10423   5.754   6.677   1.642 -0.4351  0.9506  0.6245
  837MOL0     H10424   5.810   6.657   1.477 -0.4270  3.7960 -0.6962
  837MOL0     H10425   5.593   6.565   1.410 -0.8440 -3.3088 -0.5632
  837MOL0     H10426   5.544   6.565   1.576 -0.2832  0.2750 -2.0179
  837MOL0     H10427   5.692   6.352   1.442 -0.1884 -0.6130 -0.5392
  837MOL0     H10428   5.817   6.443   1.502 -1.3091  0.4828  0.3228
  837MOL0     H10429   5.584   6.354   1.690 -0.6007  1.7225  1.3059
  837MOL0     H10430   5.747   6.416   1.729  2.8343 -0.1971 -1.6608
  837MOL0     H10431   5.677   6.138   1.587  1.3884 -1.7854  0.0129
  837MOL0     H10432   5.686   6.160   1.749  1.9919 -2.1629 -0.2737
  837MOL0     H10433   5.917   6.079   1.632  4.0218  0.8499 -2.3903
  837MOL0     H10434   5.924   6.231   1.564 -3.3680 -2.2778 -2.5957
  837MOL0     H10435   5.901   6.179   1.869  0.1290  0.9975 -0.8376
  837MOL0     H10436   5.954   6.327   1.804  0.7958 -0.3942  3.7873
  837MOL0     H10437   6.044   5.978   1.882 -0.2138  0.5002 -0.4343
  837MOL0     H10438   6.367   5.857   1.737  2.4306 -1.3932  1.9626
  837MOL0     H10439   6.255   5.809   1.876 -1.1114  1.5089  0.0063
  837MOL0     H10440   6.486   6.008   1.898 -1.7821 -0.1565  0.5007
  837MOL0     H10441   6.501   5.832   1.928  0.1227 -1.7950  0.4859
  837MOL0     H10442   6.318   6.032   2.081 -0.9299 -0.0006 -1.2402
  837MOL0     H10443   6.313   5.864   2.097 -1.1951  2.5930 -0.6877
  837MOL0     H10444   6.477   5.963   2.261  1.2012  2.5027 -0.2610
  837MOL0     H10445   6.553   6.054   2.129  0.5002 -0.0159 -0.9193
  837MOL0     H10446   6.772   5.675   2.132  0.6527 -0.3238 -2.0164
  837MOL0     H10447   6.996   5.677   2.259  1.6405  1.5546  1.2870
  837MOL0     H10448   7.390   5.858   2.392 -1.6061  3.5098 -0.8991
  837MOL0     H10449   7.588   5.843   2.528 -1.3723  2.0464 -1.6239
  837MOL0     H10450   7.637   5.685   2.733 -0.4182 -0.5406  0.5191
  837MOL0     H10451   7.556   5.678   2.892  1.7099 -1.0859  0.6480
  837MOL0     H10452   7.816   5.822   2.842 -0.2818  0.4837 -0.0581
  837MOL0     H10453   7.805   5.646   2.854  1.7463  1.1823 -1.9835
  837MOL0     H10454   7.692   5.657   3.076 -1.8556 -0.1014 -1.5719
  837MOL0     H10455   7.690   5.833   3.066 -0.4378 -0.3403 -0.2778
  837MOL0     H10456   7.961   5.686   3.060 -0.9457  1.5358 -2.1243
  837MOL0     H10457   7.911   5.846   3.115  0.1606  0.4943  0.8836
  837MOL0     H10458   7.828   5.592   3.264  0.9348 -1.0893 -0.2084
  837MOL0     H10459   7.813   5.765   3.318  2.1722 -0.7778  2.6317
  837MOL0     H10460   7.995   5.647   3.428  3.7194  1.3390  1.4259
  837MOL0     H10461   8.047   5.782   3.323 -1.4272  0.2515  0.4482
  837MOL0     H10462   8.154   5.609   3.169  2.2426  1.9015 -0.0021
  837MOL0     H10463   8.216   5.611   3.338  0.6458 -0.6436 -0.8243
  837MOL0     H10464   8.106   5.401   3.393  2.8479  0.3131  0.9059
  837MOL0     H10465   8.223   5.384   3.277 -0.1065 -0.7844  1.7417
  837MOL0     H10466   7.329   5.949   2.871 -0.5142 -1.2076 -0.2938
  837MOL0     H10467   7.153   5.975   2.720 -0.6608 -3.2275  0.9161
  837MOL0     H10468   6.921   6.080   2.390 -0.0645  0.2343  0.1412
  837MOL0     H10469   6.711   6.083   2.254 -2.1164 -1.5616  1.9143
  837MOL0     H10470   5.858   7.119   1.635 -1.3266  0.2343  1.6648
  837MOL0     H10471   5.777   7.370   1.611  0.1415 -1.3886  1.2905
  837MOL0     H10472   5.492   7.646   1.397 -1.9703 -0.2675 -1.1622
  837MOL0     H10473   5.409   7.887   1.381 -1.2858 -2.5606 -1.5898
  837MOL0     H10474   5.259   8.126   1.717 -1.2486  2.7276  0.8723
  837MOL0     H10475   5.124   8.033   1.654  1.8992 -1.3505 -0.4066
  837MOL0     H10476   5.240   8.301   1.567 -2.2065  1.8252  0.2991
  837MOL0     H10477   5.142   8.218   1.445  2.5988  0.6844 -1.1950
  837MOL0     H10478   5.081   8.327   1.727 -1.3589  0.7587  0.1511
  837MOL0     H10479   4.966   8.231   1.657  1.4776 -1.1631  1.7515
  837MOL0     H10480   5.056   8.502   1.566 -2.5923  3.1962  2.2809
  837MOL0     H10481   4.971   8.402   1.454 -1.9306  0.6902  0.3492
  837MOL0     H10482   4.647   8.523   1.661 -0.0406 -1.8389 -0.7396
  837MOL0     H10483   5.274   7.883   1.778  0.9224 -0.7793  0.9127
  837MOL0     H10484   5.356   7.665   1.803  2.1744  1.4101  0.5383
  838MOL0     O10485   8.301   0.232   4.337  0.4870 -0.0163 -0.3676
  838MOL0     C10486   8.413   0.185   4.342 -0.1003  0.5942 -0.5547
  838MOL0     O10487   8.461   0.093   4.429 -0.2329  0.5716 -0.1689
  838MOL0     C10488   8.365   0.038   4.508 -0.7261 -0.2335  0.0252
  838MOL0     C10489   8.314  -0.090   4.469 -0.3804  0.2509 -0.0643
  838MOL0     C10490   8.218  -0.150   4.544  0.0914  0.5795 -0.2950
  838MOL0     C10491   8.168  -0.088   4.665 -1.4556 -0.1539 -0.6871
  838MOL0     O10492   8.089  -0.157   4.742  0.1120  0.3503 -0.2371
  838MOL0     C10493   7.991  -0.093   4.830 -0.4341 -0.1741  0.7729
  838MOL0     C10494   7.924  -0.199   4.921 -0.0653  0.4857  0.5641
  838MOL0     C10495   8.026  -0.261   5.016 -1.2519  0.6074  0.0698
  838MOL0     C10496   7.965  -0.355   5.114 -0.1015 -0.3294 -0.3567
  838MOL0     C10497   8.065  -0.459   5.148 -0.2650  1.2053 -0.0303
  838MOL0     C10498   8.008  -0.552   5.261 -0.0563  0.0883 -1.0603
  838MOL0     C10499   8.113  -0.658   5.285  1.1740 -0.5198 -1.8191
  838MOL0     C10500   8.072  -0.757   5.395  0.3738  0.8403  0.1207
  838MOL0     N10501   7.998  -0.872   5.353  0.1958  0.0452 -0.4263
  838MOL0     C10502   8.056  -0.970   5.281  0.3088  0.7323 -0.6715
  838MOL0     C10503   7.969  -1.062   5.269 -0.4533  1.2252  0.3150
  838MOL0     C10504   7.976  -1.203   5.219 -0.0812 -0.3169 -0.9039
  838MOL0     C10505   7.871  -1.239   5.126  1.2417  0.8553 -0.1410
  838MOL0     C10506   7.909  -1.347   5.029 -0.6549  0.5485  0.0258
  838MOL0     C10507   7.945  -1.485   5.084 -0.0010 -0.6056  0.3532
  838MOL0     O10508   7.944  -1.594   4.984 -0.6284 -0.6441 -0.2554
  838MOL0     C10509   8.035  -1.690   5.014 -1.4002  0.1428 -0.0284
  838MOL0     C10510   8.085  -1.756   4.897  0.5172 -0.8013 -0.9942
  838MOL0     C10511   8.194  -1.853   4.912  0.5255 -0.5509  0.0308
  838MOL0     C10512   8.253  -1.883   5.030  0.1691  0.4428 -0.3103
  838MOL0     C10513   8.366  -1.977   5.051 -0.2171  0.5544  0.8546
  838MOL0     O10514   8.411  -2.029   4.931 -0.6212 -0.6893  0.1646
  838MOL0     C10515   8.497  -2.135   4.936 -0.4076  0.2978 -0.8797
  838MOL0     C10516   8.459  -2.251   4.874  0.0471  1.5170  1.0819
  838MOL0     C10517   8.546  -2.365   4.861  0.2152 -0.5547  0.6362
  838MOL0     C10518   8.677  -2.352   4.904 -0.5453  0.7962  0.2653
  838MOL0     O10519   8.770  -2.451   4.864  0.2766 -0.1957  0.4924
  838MOL0     C10520   8.755  -2.495   4.727  0.2053  0.3476 -0.0986
  838MOL0     C10521   8.879  -2.584   4.692  0.6362  0.9131 -0.7578
  838MOL0     C10522   8.996  -2.500   4.637  0.2232 -0.0273 -0.5463
  838MOL0     C10523   9.115  -2.595   4.607  0.4204  0.2046 -0.5487
  838MOL0     C10524   9.231  -2.531   4.524  0.0265  0.1135  0.3157
  838MOL0     C10525   9.354  -2.624   4.525 -0.1544  0.3280  0.0785
  838MOL0     C10526   9.311  -2.750   4.457 -0.1252 -0.3337  0.0756
  838MOL0     C10527   9.422  -2.801   4.377 -0.2630 -0.6080 -0.3159
  838MOL0    Cl10528   9.480  -2.693   4.253 -0.4162  0.0616  0.2213
  838MOL0     C10529   8.732  -2.234   4.951  0.1552 -0.7590 -0.0512
  838MOL0     C10530   8.640  -2.131   4.972  0.0056 -0.2016 -1.1877
  838MOL0     O10531   8.428  -1.987   5.163  0.2622 -0.4382  0.2199
  838MOL0     C10532   8.201  -1.807   5.134  0.2269 -0.6032 -0.0723
  838MOL0     C10533   8.103  -1.720   5.132  0.6815 -1.0375 -0.9705
  838MOL0     N10534   7.859  -1.013   5.333 -1.0678 -0.2379  0.4335
  838MOL0     N10535   7.869  -0.900   5.383  0.4053 -0.4692  0.6121
  838MOL0     C10536   8.215   0.042   4.700 -0.1302  0.8498  0.4478
  838MOL0     C10537   8.306   0.107   4.621 -0.1843  1.4198  0.5103
  838MOL0     C10538   8.512   0.232   4.250  1.2214  0.6248 -0.1879
  838MOL0     C10539   8.651   0.240   4.281 -0.0546  0.1566  0.3333
  838MOL0     C10540   8.737   0.291   4.179  0.3485 -0.9252  0.2023
  838MOL0     C10541   8.701   0.322   4.053 -0.4512  0.0082  0.6088
  838MOL0     O10542   8.787   0.372   3.959  0.3942  0.2705  0.5663
  838MOL0     C10543   8.927   0.329   3.963 -0.2163  0.2417 -0.2860
  838MOL0     C10544   8.990   0.355   3.827  0.2299 -1.2159 -0.9116
  838MOL0     C10545   9.045   0.495   3.807 -0.2715  0.0248  0.7808
  838MOL0     C10546   9.192   0.496   3.795  0.1708 -0.2256  0.0716
  838MOL0     C10547   9.251   0.628   3.763 -1.1164 -0.5195  1.0425
  838MOL0     C10548   9.292   0.745   3.723  0.2865 -0.3250 -0.0364
  838MOL0     C10549   8.562   0.310   4.023  0.2219  1.8682 -0.1136
  838MOL0     C10550   8.476   0.264   4.117 -0.6577 -0.0841 -0.2837
  838MOL0     H10551   8.366  -0.143   4.390  2.2395 -0.1023  1.7506
  838MOL0     H10552   8.177  -0.247   4.516  1.0227 -0.2526  1.1369
  838MOL0     H10553   7.912  -0.046   4.772  0.0374 -0.5631 -0.2119
  838MOL0     H10554   8.050  -0.031   4.899  1.2754 -1.5945  0.6502
  838MOL0     H10555   7.870  -0.270   4.858 -3.5971  1.7153  1.9573
  838MOL0     H10556   7.849  -0.152   4.985 -0.1448 -0.5451  1.2402
  838MOL0     H10557   8.087  -0.188   5.070 -0.2819 -0.3592  0.3058
  838MOL0     H10558   8.095  -0.311   4.948 -1.1349  0.8446  0.0118
  838MOL0     H10559   7.928  -0.303   5.203 -0.8637  3.1761 -2.5340
  838MOL0     H10560   7.891  -0.421   5.070  1.1956 -1.5718 -0.7566
  838MOL0     H10561   8.162  -0.422   5.183  0.4163 -0.3378 -0.1644
  838MOL0     H10562   8.092  -0.523   5.063 -0.8264 -2.3614  2.2223
  838MOL0     H10563   7.916  -0.602   5.231  0.8095 -0.2799 -3.2613
  838MOL0     H10564   7.999  -0.503   5.359  3.6994 -2.8571  1.0703
  838MOL0     H10565   8.119  -0.722   5.196 -3.4796 -3.0985 -0.6214
  838MOL0     H10566   8.198  -0.605   5.327 -1.3137  1.5644  0.9950
  838MOL0     H10567   8.030  -0.707   5.483 -0.6081 -0.0841  0.2075
  838MOL0     H10568   8.159  -0.805   5.441 -0.8945 -0.3335  1.4186
  838MOL0     H10569   8.160  -0.978   5.249  0.0309  1.4498 -1.7972
  838MOL0     H10570   7.953  -1.269   5.303 -1.3464  1.4461  0.2094
  838MOL0     H10571   8.077  -1.223   5.181  0.9674 -2.9525  2.6747
  838MOL0     H10572   7.839  -1.155   5.063  0.9996 -0.9806 -2.6079
  838MOL0     H10573   7.787  -1.274   5.187  0.8831  0.6716 -0.7321
  838MOL0     H10574   7.831  -1.374   4.958 -0.6972 -1.5327  0.7719
  838MOL0     H10575   7.996  -1.311   4.973 -1.8157  2.6974 -0.4902
  838MOL0     H10576   7.866  -1.510   5.155 -0.3426 -2.4515 -0.6246
  838MOL0     H10577   8.042  -1.466   5.132  0.0533  1.5240 -0.4922
  838MOL0     H10578   8.046  -1.737   4.798  0.7813  1.7381 -0.6571
  838MOL0     H10579   8.227  -1.906   4.823  1.2534 -0.3011  0.1465
  838MOL0     H10580   8.356  -2.278   4.855  0.3148 -1.1230  2.7569
  838MOL0     H10581   8.513  -2.449   4.800  2.5667  0.3994 -2.1688
  838MOL0     H10582   8.738  -2.411   4.659  4.1122  0.8104 -0.7385
  838MOL0     H10583   8.672  -2.566   4.729 -0.5544  1.1936 -0.7566
  838MOL0     H10584   8.841  -2.646   4.610 -0.8377  1.9706 -0.9108
  838MOL0     H10585   8.922  -2.650   4.768 -0.9638 -0.2128 -0.7906
  838MOL0     H10586   9.032  -2.438   4.720 -1.5509 -1.7683  1.6430
  838MOL0     H10587   8.976  -2.435   4.551  1.7450 -0.4789 -1.2653
  838MOL0     H10588   9.142  -2.622   4.710 -0.6543  0.9552 -0.0473
  838MOL0     H10589   9.082  -2.684   4.553  2.2325 -0.9136  0.1156
  838MOL0     H10590   9.259  -2.431   4.559 -0.2966  0.3443 -0.0767
  838MOL0     H10591   9.206  -2.528   4.418  1.4836 -2.6226 -0.1965
  838MOL0     H10592   9.389  -2.662   4.621  2.8838 -2.9348 -2.0995
  838MOL0     H10593   9.436  -2.559   4.494  0.5375 -0.4367  0.2830
  838MOL0     H10594   9.284  -2.825   4.531 -0.7530  0.6825  0.9168
  838MOL0     H10595   9.220  -2.735   4.399 -1.6319 -1.4622  2.0523
  838MOL0     H10596   9.398  -2.889   4.317  0.4986 -0.9870 -0.0713
  838MOL0     H10597   9.504  -2.820   4.447 -1.2672  3.4948  2.3854
  838MOL0     H10598   8.840  -2.224   4.953  0.5391 -3.8114 -0.2437
  838MOL0     H10599   8.687  -2.036   4.997  0.8433 -0.8359 -0.2749
  838MOL0     H10600   8.252  -1.809   5.230 -0.5929 -1.5522  0.3608
  838MOL0     H10601   8.080  -1.652   5.214  0.6595  0.2068 -1.9799
  838MOL0     H10602   8.182   0.097   4.788  2.5619  1.3533  1.2400
  838MOL0     H10603   8.347   0.203   4.651  0.6639  2.0352 -2.2883
  838MOL0     H10604   8.695   0.213   4.376  1.4501  0.7047 -0.1670
  838MOL0     H10605   8.836   0.313   4.219 -0.1430 -2.3885  2.3783
  838MOL0     H10606   8.939   0.220   3.969 -1.0134  0.0963 -1.1935
  838MOL0     H10607   8.982   0.377   4.045  2.3403 -1.5035 -0.8397
  838MOL0     H10608   9.061   0.276   3.798 -0.5329 -2.1468 -0.3005
  838MOL0     H10609   8.917   0.335   3.748 -2.7795 -2.0432  1.8575
  838MOL0     H10610   9.020   0.565   3.887  0.9525 -2.0688  3.1465
  838MOL0     H10611   8.997   0.540   3.719 -0.6365 -4.5977 -1.7069
  838MOL0     H10612   9.234   0.460   3.889 -2.4325 -0.0257  1.3878
  838MOL0     H10613   9.227   0.426   3.719  1.3444 -1.1964  1.4696
  838MOL0     H10614   9.333   0.835   3.680 -2.5602  0.0833 -2.1854
  838MOL0     H10615   8.519   0.339   3.927  0.6336  0.4271 -0.7672
  838MOL0     H10616   8.374   0.235   4.095 -0.3646 -2.1895  0.7910
  839MOL0     O10617   4.481   8.182   2.657  0.3969 -0.4886 -0.2568
  839MOL0     C10618   4.567   8.269   2.654  0.2658  0.0852  1.4190
  839MOL0     O10619   4.545   8.407   2.665  0.0586  0.2232 -0.8242
  839MOL0     C10620   4.442   8.432   2.740  0.5224  0.7651 -0.4546
  839MOL0     C10621   4.447   8.413   2.881  0.7686 -0.1220  0.7068
  839MOL0     C10622   4.345   8.475   2.953  1.3465  0.0332  0.0457
  839MOL0     C10623   4.234   8.546   2.901 -0.2744  0.4105  0.1340
  839MOL0     O10624   4.132   8.602   2.968 -0.5955  0.5390 -0.0505
  839MOL0     C10625   4.100   8.551   3.106  0.7163 -0.2968 -0.2235
  839MOL0     C10626   4.136   8.659   3.206 -0.2862  0.1229 -0.5110
  839MOL0     C10627   4.085   8.623   3.336 -0.5518 -0.7027 -0.3190
  839MOL0     C10628   4.127   8.470   3.368  0.0671 -0.2999 -0.2598
  839MOL0     C10629   4.127   8.452   3.518 -0.3547 -0.8402  0.2151
  839MOL0     C10630   4.254   8.525   3.584  0.4178  0.3132 -0.4561
  839MOL0     C10631   4.241   8.549   3.735  0.0811  0.3051 -0.0908
  839MOL0     C10632   4.249   8.417   3.815 -0.8431  0.0990  0.1866
  839MOL0     N10633   4.239   8.456   3.956 -0.3951 -0.2103  1.2893
  839MOL0     C10634   4.129   8.515   4.018  0.1097  0.4333  0.4780
  839MOL0     C10635   4.179   8.554   4.132 -0.0847 -0.4240  0.2488
  839MOL0     C10636   4.102   8.631   4.238  0.0777 -0.3937  0.9473
  839MOL0     C10637   4.118   8.579   4.377  0.6170 -1.1523 -0.5149
  839MOL0     C10638   4.068   8.432   4.396  0.1368 -0.6783 -0.0761
  839MOL0     C10639   4.079   8.410   4.547 -0.0283 -0.4348 -0.4314
  839MOL0     O10640   4.047   8.279   4.571 -0.0549  0.5677 -0.2259
  839MOL0     C10641   3.984   8.252   4.691  0.3710 -0.0715  0.0376
  839MOL0     C10642   4.059   8.177   4.785  0.2514 -0.7399 -1.2802
  839MOL0     C10643   4.002   8.129   4.904  0.3625 -0.0376 -0.3437
  839MOL0     C10644   3.871   8.167   4.928 -0.1884 -0.4300  0.1190
  839MOL0     C10645   3.800   8.104   5.048 -0.0336 -0.6279 -1.1019
  839MOL0     O10646   3.861   8.003   5.115  0.9040 -0.2569 -0.1040
  839MOL0     C10647   3.801   7.943   5.224  0.5672 -0.1151 -1.4929
  839MOL0     C10648   3.886   7.934   5.344  1.1244 -0.1428  0.7518
  839MOL0     C10649   3.826   7.896   5.460  0.4899 -0.1741 -1.0752
  839MOL0     C10650   3.691   7.850   5.474 -0.1241  0.5109  0.2450
  839MOL0     O10651   3.640   7.798   5.593 -0.1849 -0.8511 -0.1781
  839MOL0     C10652   3.520   7.853   5.611  0.3143 -0.3297 -0.0681
  839MOL0     C10653   3.470   7.831   5.754  0.5208 -0.4681 -0.5638
  839MOL0     C10654   3.314   7.851   5.755 -0.3720 -0.1840 -0.4034
  839MOL0     C10655   3.273   7.856   5.903  1.2421  0.0929 -0.5686
  839MOL0     C10656   3.122   7.897   5.901 -0.3060  1.2116  0.5735
  839MOL0     C10657   3.091   7.952   6.040  0.6357  0.1109 -0.2103
  839MOL0     C10658   2.938   7.976   6.060  0.4629 -0.3868  0.8672
  839MOL0     C10659   2.905   8.036   6.185  0.4884  0.6210 -0.4992
  839MOL0    Cl10660   2.732   8.046   6.198 -0.2895 -0.0270 -0.2835
  839MOL0     C10661   3.617   7.852   5.351 -0.2727 -0.3251 -0.4292
  839MOL0     C10662   3.670   7.910   5.235 -0.0818 -0.7539 -0.1911
  839MOL0     O10663   3.695   8.161   5.084  1.4903 -0.2999  1.3484
  839MOL0     C10664   3.799   8.248   4.836  0.2846  0.3693 -0.1655
  839MOL0     C10665   3.865   8.295   4.717 -0.3730 -0.2597  0.1910
  839MOL0     N10666   4.316   8.537   4.140 -0.2780 -0.1643  0.2031
  839MOL0     N10667   4.346   8.459   4.033  0.9108  0.4647 -0.1727
  839MOL0     C10668   4.238   8.556   2.759 -0.2533 -0.4951 -0.2064
  839MOL0     C10669   4.343   8.505   2.684  1.4200  0.3434  0.7431
  839MOL0     C10670   4.711   8.228   2.630 -0.7344  0.0702 -0.1586
  839MOL0     C10671   4.805   8.323   2.647 -1.5047  0.0983 -0.1690
  839MOL0     C10672   4.936   8.285   2.624 -0.6187  0.0084  0.2408
  839MOL0     C10673   4.978   8.155   2.621 -0.1014  0.5846  0.1900
  839MOL0     O10674   5.111   8.139   2.619 -0.0113 -0.5773  0.4125
  839MOL0     C10675   5.165   8.015   2.660 -1.0284  1.0684  0.2801
  839MOL0     C10676   5.307   8.030   2.728  0.7178 -0.2417 -0.5478
  839MOL0     C10677   5.316   8.108   2.860 -0.0534 -0.0645  0.1306
  839MOL0     C10678   5.447   8.079   2.933 -0.7302  0.8387  0.5169
  839MOL0     C10679   5.482   8.166   3.052 -0.5742 -0.1419  0.3998
  839MOL0     C10680   5.528   8.228   3.148  0.2203  1.1904  0.0551
  839MOL0     C10681   4.886   8.054   2.611  0.2998 -0.5073 -0.6012
  839MOL0     C10682   4.752   8.093   2.612 -0.5450 -0.7504 -0.8285
  839MOL0     H10683   4.536   8.375   2.929 -0.7446 -3.1792  1.3304
  839MOL0     H10684   4.349   8.459   3.061 -1.0547 -0.8925  0.0595
  839MOL0     H10685   4.144   8.453   3.128  1.6541  0.5586  2.0786
  839MOL0     H10686   3.993   8.530   3.096  0.9768 -0.4364 -3.8047
  839MOL0     H10687   4.103   8.756   3.168 -0.4325 -0.7017 -2.6226
  839MOL0     H10688   4.245   8.653   3.219 -0.3629 -0.9924 -0.2867
  839MOL0     H10689   3.978   8.639   3.323 -0.6620 -1.9408 -1.1348
  839MOL0     H10690   4.123   8.696   3.408 -1.3156 -1.6386  1.0704
  839MOL0     H10691   4.064   8.392   3.325  0.9135 -0.7506 -0.7131
  839MOL0     H10692   4.226   8.462   3.322 -1.0034  3.1745 -3.7030
  839MOL0     H10693   4.122   8.344   3.535 -1.4776 -1.6008 -3.8577
  839MOL0     H10694   4.041   8.506   3.556  2.2101  3.0921  1.0173
  839MOL0     H10695   4.267   8.620   3.532 -0.1427  1.1546  0.8882
  839MOL0     H10696   4.339   8.457   3.571 -1.2105 -1.4061 -3.4210
  839MOL0     H10697   4.334   8.597   3.769  0.4136  0.0583 -0.6417
  839MOL0     H10698   4.160   8.617   3.764 -1.1416 -1.6429  1.3707
  839MOL0     H10699   4.352   8.388   3.794 -1.1413  0.7670 -2.5553
  839MOL0     H10700   4.184   8.332   3.792  0.2476 -0.9558  0.9144
  839MOL0     H10701   4.028   8.533   3.981 -0.8412 -0.5590  2.4367
  839MOL0     H10702   3.994   8.617   4.226  0.4597 -3.8009  0.2498
  839MOL0     H10703   4.133   8.735   4.231 -0.9302 -0.1965 -2.4613
  839MOL0     H10704   4.059   8.648   4.438 -0.8174  0.9266 -3.9804
  839MOL0     H10705   4.221   8.591   4.413  0.4125  1.0701 -0.5534
  839MOL0     H10706   3.962   8.423   4.370  0.0457  2.8919 -1.5393
  839MOL0     H10707   4.138   8.362   4.349 -0.9974 -0.0191 -2.9471
  839MOL0     H10708   4.015   8.484   4.596  0.2965 -1.1270  1.0943
  839MOL0     H10709   4.179   8.439   4.580 -1.2366  1.7354  1.7218
  839MOL0     H10710   4.166   8.165   4.776  0.2620 -2.4622  0.5035
  839MOL0     H10711   4.055   8.069   4.977 -1.6601 -0.2576  1.0621
  839MOL0     H10712   3.987   7.973   5.346  0.5458  1.3852  2.2222
  839MOL0     H10713   3.889   7.897   5.549 -0.4566 -0.8028 -0.3829
  839MOL0     H10714   3.441   7.818   5.544  0.6181 -0.4496 -0.3648
  839MOL0     H10715   3.523   7.961   5.591  0.5106 -0.2216  0.5196
  839MOL0     H10716   3.513   7.905   5.822 -1.2437 -1.0372  1.2777
  839MOL0     H10717   3.492   7.731   5.792 -0.8421 -0.1070  1.3214
  839MOL0     H10718   3.253   7.776   5.705 -1.9185  1.9940 -1.9954
  839MOL0     H10719   3.292   7.944   5.702  0.8260  0.8903  0.8853
  839MOL0     H10720   3.283   7.765   5.963 -0.5239  1.5804  2.2052
  839MOL0     H10721   3.323   7.931   5.964  0.6919  0.0568 -0.0707
  839MOL0     H10722   3.057   7.811   5.884 -0.5351  1.2254  1.3173
  839MOL0     H10723   3.104   7.989   5.845 -1.4417 -0.0982 -1.3294
  839MOL0     H10724   3.141   8.046   6.066 -1.2996  0.6748  1.7483
  839MOL0     H10725   3.127   7.874   6.109 -2.6650 -0.8203  0.6364
  839MOL0     H10726   2.900   8.032   5.974 -2.3301 -0.0094  2.2149
  839MOL0     H10727   2.878   7.886   6.052  1.8322 -1.1962 -1.1363
  839MOL0     H10728   2.955   8.134   6.186  1.6147  0.0731  0.5284
  839MOL0     H10729   2.949   7.984   6.270 -0.0429  1.1391  0.1019
  839MOL0     H10730   3.514   7.817   5.353 -0.5997  0.5433  2.2829
  839MOL0     H10731   3.598   7.923   5.155 -0.0555  2.9374  0.2060
  839MOL0     H10732   3.699   8.273   4.870  0.4978 -0.3539  1.0256
  839MOL0     H10733   3.812   8.359   4.648 -2.9915 -1.6062  0.7966
  839MOL0     H10734   4.156   8.593   2.698  0.3938 -2.6580 -2.5556
  839MOL0     H10735   4.346   8.532   2.579 -1.4402 -1.9646 -0.0677
  839MOL0     H10736   4.784   8.426   2.674  1.4933  0.9656 -0.7040
  839MOL0     H10737   5.012   8.362   2.614 -0.8561  0.7163  2.9300
  839MOL0     H10738   5.171   7.942   2.579 -0.0772  2.0665 -0.5750
  839MOL0     H10739   5.098   7.978   2.739 -3.3309 -2.2494 -2.9057
  839MOL0     H10740   5.345   7.930   2.751 -2.3861 -1.0485  1.7376
  839MOL0     H10741   5.368   8.081   2.652  3.5869 -2.1128  0.3396
  839MOL0     H10742   5.237   8.076   2.929 -2.7566  2.6070 -1.4959
  839MOL0     H10743   5.284   8.213   2.855 -1.3227 -0.4932 -2.5068
  839MOL0     H10744   5.436   7.977   2.971  3.1988 -0.4496 -1.1906
  839MOL0     H10745   5.534   8.088   2.867  0.2695  1.1157  1.8346
  839MOL0     H10746   5.569   8.272   3.236  0.8759  4.0653 -1.5638
  839MOL0     H10747   4.928   7.956   2.594  0.1773 -0.5573 -0.6183
  839MOL0     H10748   4.672   8.020   2.613 -0.7360 -0.6078  1.7150
  840MOL0     O10749   0.517   8.742   5.964 -0.6019  0.1734 -0.6397
  840MOL0     C10750   0.565   8.767   5.853  0.2518 -0.2871 -0.1177
  840MOL0     O10751   0.692   8.797   5.830  0.2212  0.0140  0.7420
  840MOL0     C10752   0.790   8.816   5.930  1.1982  0.0289 -0.7168
  840MOL0     C10753   0.821   8.942   5.986  0.2158  0.3398  0.2250
  840MOL0     C10754   0.914   8.951   6.086  0.4193  0.2619  0.5627
  840MOL0     C10755   0.978   8.841   6.128  0.0952  0.3388 -0.2197
  840MOL0     O10756   1.078   8.850   6.216 -0.9549 -0.1426  0.2866
  840MOL0     C10757   1.150   8.968   6.232 -0.6081  0.0417  0.4191
  840MOL0     C10758   1.249   8.945   6.346 -0.4806  0.4005 -0.5922
  840MOL0     C10759   1.393   8.911   6.296 -0.1172 -0.0201 -0.5991
  840MOL0     C10760   1.399   8.779   6.215 -1.2419 -0.0364 -0.9259
  840MOL0     C10761   1.538   8.745   6.159  0.4534 -0.8442  0.0976
  840MOL0     C10762   1.578   8.851   6.051  0.8760 -0.3225  0.6038
  840MOL0     C10763   1.725   8.840   6.010  0.3136  0.0083  0.3210
  840MOL0     C10764   1.768   8.709   5.951 -0.9784 -0.2298 -0.3491
  840MOL0     N10765   1.689   8.681   5.833  0.1286  0.2013  0.1022
  840MOL0     C10766   1.615   8.560   5.819  0.6537  0.4077 -0.4353
  840MOL0     C10767   1.590   8.544   5.683  0.0921 -0.2571 -0.1336
  840MOL0     C10768   1.506   8.434   5.624  0.2907  0.0773  0.4170
  840MOL0     C10769   1.355   8.455   5.633 -0.7080 -0.2963  0.3095
  840MOL0     C10770   1.285   8.316   5.622 -0.0722 -0.5893  0.0738
  840MOL0     C10771   1.131   8.353   5.635  1.4974 -1.1997 -0.0088
  840MOL0     O10772   1.047   8.243   5.651  0.5820 -0.3896 -0.2750
  840MOL0     C10773   0.998   8.173   5.545 -0.5856 -0.0437  0.9518
  840MOL0     C10774   1.037   8.183   5.410  0.0484 -0.3131  1.3312
  840MOL0     C10775   0.966   8.111   5.319  0.9415 -0.4815  0.9895
  840MOL0     C10776   0.876   8.008   5.356 -0.4173 -0.8895  0.2980
  840MOL0     C10777   0.812   7.927   5.251  0.2565  0.1544 -0.5475
  840MOL0     O10778   0.726   7.836   5.305  0.5819  0.5723 -0.3192
  840MOL0     C10779   0.690   7.732   5.229  0.5703 -0.4252  0.1927
  840MOL0     C10780   0.724   7.602   5.260 -0.2580  0.2877 -0.1819
  840MOL0     C10781   0.668   7.496   5.194 -0.2975 -0.2995  0.0080
  840MOL0     C10782   0.583   7.521   5.087 -0.5815  0.0406  0.0354
  840MOL0     O10783   0.540   7.420   5.006 -0.9352  1.0516  0.1967
  840MOL0     C10784   0.519   7.282   5.044 -0.2082 -0.0064  0.4631
  840MOL0     C10785   0.393   7.284   5.130  0.0925  0.3339 -0.7990
  840MOL0     C10786   0.272   7.320   5.047  0.3351 -1.2974  0.0784
  840MOL0     C10787   0.149   7.279   5.120  0.5010  0.3269 -0.4729
  840MOL0     C10788   0.029   7.324   5.042  0.8843 -0.2356  0.0547
  840MOL0     C10789  -0.101   7.343   5.125 -0.7215 -0.0320  0.0308
  840MOL0     C10790  -0.191   7.230   5.089  0.1775 -0.3720  0.7256
  840MOL0     C10791  -0.316   7.213   5.173 -0.2096  1.3904 -0.7873
  840MOL0    Cl10792  -0.420   7.085   5.091 -0.3182  0.1830  0.1647
  840MOL0     C10793   0.543   7.654   5.049  0.3860  0.7312 -0.6652
  840MOL0     C10794   0.604   7.762   5.117  0.2623  0.6814 -0.7680
  840MOL0     O10795   0.863   7.939   5.142 -0.1789 -0.4408 -0.1867
  840MOL0     C10796   0.845   7.994   5.487 -0.4356  0.3004  0.5071
  840MOL0     C10797   0.914   8.068   5.587  0.1463  0.0810 -0.4032
  840MOL0     N10798   1.648   8.656   5.625  0.1871 -0.4165  0.2381
  840MOL0     N10799   1.713   8.729   5.711 -0.1392  0.6053  0.9975
  840MOL0     C10800   0.949   8.712   6.085 -0.0178 -0.0246 -0.3867
  840MOL0     C10801   0.856   8.700   5.984  0.3415 -0.3904 -0.1899
  840MOL0     C10802   0.474   8.728   5.738  0.8118 -0.4197  0.1378
  840MOL0     C10803   0.496   8.764   5.604  0.1155 -0.6729 -0.8780
  840MOL0     C10804   0.395   8.738   5.496 -0.2416  0.0624  0.2703
  840MOL0     C10805   0.287   8.653   5.522 -0.2995  0.6032  0.6810
  840MOL0     O10806   0.180   8.618   5.451 -0.0852  0.3495 -0.0761
  840MOL0     C10807   0.107   8.731   5.407  0.0511 -0.2169  0.3534
  840MOL0     C10808  -0.014   8.671   5.328  0.0571  0.1893 -0.6522
  840MOL0     C10809  -0.127   8.622   5.412 -0.0457  0.2087  0.5231
  840MOL0     C10810  -0.191   8.740   5.484  0.0532  0.1801 -0.6842
  840MOL0     C10811  -0.329   8.712   5.523  0.0768 -0.0599  0.4966
  840MOL0     C10812  -0.442   8.681   5.573  0.3321 -0.8570  0.7271
  840MOL0     C10813   0.287   8.593   5.652 -0.2828 -0.7323  0.2967
  840MOL0     C10814   0.369   8.626   5.759 -0.9947 -0.9110  0.2513
  840MOL0     H10815   0.766   9.028   5.947 -2.1115  1.1486  4.5878
  840MOL0     H10816   0.934   9.053   6.118 -0.1350  0.2445  0.9913
  840MOL0     H10817   1.083   9.053   6.251  1.3338  2.5708 -2.8830
  840MOL0     H10818   1.215   8.991   6.147 -0.9004  1.4701  0.5500
  840MOL0     H10819   1.210   8.865   6.410  2.2138  0.0820  0.8021
  840MOL0     H10820   1.243   9.034   6.410 -3.8881 -1.4565  2.0569
  840MOL0     H10821   1.465   8.898   6.377 -2.5497 -0.2206  1.6548
  840MOL0     H10822   1.419   8.998   6.235  0.4070 -0.8310 -1.5614
  840MOL0     H10823   1.372   8.693   6.276 -1.9513  1.2997  0.7115
  840MOL0     H10824   1.323   8.776   6.135 -3.4159 -0.1216  1.0430
  840MOL0     H10825   1.539   8.646   6.114  0.0489 -0.1064 -1.6002
  840MOL0     H10826   1.609   8.756   6.242 -0.4881 -0.8767  0.9328
  840MOL0     H10827   1.546   8.951   6.080 -1.4179 -0.4196 -1.2933
  840MOL0     H10828   1.524   8.833   5.958  1.6841 -1.9917  0.4283
  840MOL0     H10829   1.735   8.914   5.931  1.5705 -2.6814 -2.2464
  840MOL0     H10830   1.791   8.867   6.093 -2.6359  0.3840  2.7224
  840MOL0     H10831   1.760   8.625   6.021  0.7156 -0.3933 -0.3120
  840MOL0     H10832   1.874   8.709   5.924 -0.2984 -1.5592  1.9681
  840MOL0     H10833   1.584   8.482   5.887  1.1213 -0.3554 -1.0889
  840MOL0     H10834   1.535   8.339   5.670  2.0320 -1.8901 -4.1261
  840MOL0     H10835   1.519   8.434   5.515 -0.1159  2.1793  0.3160
  840MOL0     H10836   1.323   8.538   5.569 -0.6543  2.2474  3.3247
  840MOL0     H10837   1.340   8.483   5.738 -1.9581 -0.5382  0.2012
  840MOL0     H10838   1.289   8.276   5.520  1.6012 -0.6350  0.1368
  840MOL0     H10839   1.307   8.241   5.698 -1.7929 -2.4503 -1.1543
  840MOL0     H10840   1.110   8.418   5.549  0.6108 -0.9025  0.4216
  840MOL0     H10841   1.120   8.421   5.720 -1.1980  0.9408 -1.8945
  840MOL0     H10842   1.111   8.253   5.373 -1.3781  0.8694  0.6058
  840MOL0     H10843   0.982   8.136   5.214 -0.1847 -0.2435  0.8594
  840MOL0     H10844   0.789   7.583   5.344  0.5928 -0.0716 -0.9033
  840MOL0     H10845   0.684   7.395   5.230 -0.8192 -0.0580  0.9634
  840MOL0     H10846   0.602   7.242   5.103  1.0341 -0.8675 -1.7385
  840MOL0     H10847   0.504   7.222   4.954  1.9419  0.6701 -0.4337
  840MOL0     H10848   0.410   7.354   5.212  1.8712 -2.9341  1.8456
  840MOL0     H10849   0.382   7.187   5.178 -0.2257  0.2583 -1.0157
  840MOL0     H10850   0.272   7.266   4.951  1.9303  0.3749 -0.9319
  840MOL0     H10851   0.281   7.427   5.028  1.6343 -1.2187  1.0379
  840MOL0     H10852   0.148   7.170   5.133  0.3202  0.3031 -0.6812
  840MOL0     H10853   0.158   7.323   5.220 -1.6472 -1.2184  0.4788
  840MOL0     H10854   0.022   7.257   4.956  2.0430  1.1068 -1.1501
  840MOL0     H10855   0.054   7.426   5.009 -3.8036  1.0423 -0.2023
  840MOL0     H10856  -0.147   7.436   5.089  1.3479  0.3287 -1.9274
  840MOL0     H10857  -0.082   7.341   5.233 -3.9441 -0.1090  0.6985
  840MOL0     H10858  -0.207   7.240   4.981  0.2255  1.9406  0.8965
  840MOL0     H10859  -0.132   7.138   5.102  1.6346  0.7380  2.3947
  840MOL0     H10860  -0.377   7.304   5.179 -1.4316  0.5349  0.2660
  840MOL0     H10861  -0.286   7.190   5.275  0.2681  2.1930 -0.7342
  840MOL0     H10862   0.483   7.662   4.960 -0.5863 -2.3514 -0.3991
  840MOL0     H10863   0.594   7.864   5.082  0.9335  0.5469 -1.3704
  840MOL0     H10864   0.780   7.915   5.521 -1.4268  1.8930  2.4970
  840MOL0     H10865   0.889   8.044   5.690 -3.1069 -1.3930 -1.4009
  840MOL0     H10866   0.994   8.626   6.133  0.8604 -0.8950 -2.6832
  840MOL0     H10867   0.815   8.605   5.952  1.6200 -1.2506  0.6603
  840MOL0     H10868   0.584   8.820   5.573 -0.6269  0.3629 -1.1627
  840MOL0     H10869   0.405   8.781   5.397 -0.2832  0.7711  0.5633
  840MOL0     H10870   0.170   8.785   5.336 -0.1680 -2.0099 -1.2855
  840MOL0     H10871   0.081   8.799   5.489  0.7148  0.9358 -0.3788
  840MOL0     H10872  -0.068   8.739   5.262 -1.1165 -0.8694 -0.8343
  840MOL0     H10873   0.040   8.598   5.267  4.3157  1.1806  1.5259
  840MOL0     H10874  -0.088   8.543   5.476  3.0753 -0.0809 -1.5230
  840MOL0     H10875  -0.205   8.583   5.345 -1.5413  2.7430  0.6618
  840MOL0     H10876  -0.146   8.763   5.581  0.2618  1.4768 -1.0604
  840MOL0     H10877  -0.191   8.835   5.429 -1.0215  0.7019  0.1776
  840MOL0     H10878  -0.542   8.653   5.597 -0.1153  1.0297  1.2200
  840MOL0     H10879   0.226   8.511   5.691 -0.2571 -0.9096 -0.0374
  840MOL0     H10880   0.352   8.590   5.860 -0.2363  0.8607  1.0614
  841MOL0     O10881   4.771   1.342   8.609  0.2320  0.1832  0.7446
  841MOL0     C10882   4.696   1.415   8.673 -0.5964 -0.3523  0.3715
  841MOL0     O10883   4.728   1.531   8.737  0.4270 -0.0361  0.5065
  841MOL0     C10884   4.850   1.583   8.748  0.2013 -0.0378  0.8070
  841MOL0     C10885   4.945   1.568   8.645  0.3906  0.2724  0.0167
  841MOL0     C10886   5.061   1.640   8.651  0.0208  0.1111 -0.6628
  841MOL0     C10887   5.092   1.738   8.754 -0.5142  0.1453  1.5492
  841MOL0     O10888   5.207   1.802   8.759  0.3664 -0.8592  0.1121
  841MOL0     C10889   5.260   1.866   8.637 -0.1000  0.6410  0.0498
  841MOL0     C10890   5.401   1.910   8.659 -0.0075  0.3629  0.3440
  841MOL0     C10891   5.416   2.005   8.779 -0.0734 -0.4674 -0.1153
  841MOL0     C10892   5.563   2.056   8.775  0.5487  0.4006 -0.1676
  841MOL0     C10893   5.571   2.195   8.843  0.2915 -0.6340 -0.2965
  841MOL0     C10894   5.533   2.215   8.990 -0.0937  0.3355  0.2592
  841MOL0     C10895   5.617   2.115   9.071  0.5946  0.4581 -0.6006
  841MOL0     C10896   5.583   2.132   9.226 -0.0837  0.4329  0.1754
  841MOL0     N10897   5.616   2.273   9.267  0.5379  0.4448 -0.9262
  841MOL0     C10898   5.748   2.313   9.292  0.8420 -0.0855 -0.5694
  841MOL0     C10899   5.720   2.441   9.346 -0.8541 -0.4603 -0.6037
  841MOL0     C10900   5.801   2.544   9.421 -1.0186 -0.3641  0.1848
  841MOL0     C10901   5.790   2.681   9.344  0.2461 -0.7809  0.4263
  841MOL0     C10902   5.855   2.805   9.415 -0.1731 -0.7783  0.0223
  841MOL0     C10903   5.869   2.920   9.304 -0.7015 -0.2386 -0.7281
  841MOL0     O10904   5.963   2.876   9.197  0.2713  0.3723  0.6397
  841MOL0     C10905   6.098   2.877   9.220 -0.6578 -0.2239 -1.5519
  841MOL0     C10906   6.167   2.756   9.207  0.1180  0.1020 -0.3396
  841MOL0     C10907   6.300   2.762   9.217 -0.8241  0.4509  0.2542
  841MOL0     C10908   6.380   2.876   9.242  0.2494  0.6388 -1.0478
  841MOL0     C10909   6.527   2.878   9.238 -0.5739  0.4934  0.2646
  841MOL0     O10910   6.588   2.955   9.332 -0.3821  0.5765  0.5232
  841MOL0     C10911   6.716   2.940   9.341 -0.3860  0.8155  0.6429
  841MOL0     C10912   6.770   2.861   9.450  0.7845  0.0162  0.8914
  841MOL0     C10913   6.914   2.850   9.461 -0.2527  0.1230  0.1742
  841MOL0     C10914   6.996   2.916   9.361  0.2137  0.4157  0.0870
  841MOL0     O10915   7.133   2.917   9.354  0.4508  0.7615  0.1851
  841MOL0     C10916   7.194   2.930   9.479  0.0745 -0.7132  0.2427
  841MOL0     C10917   7.339   2.938   9.431 -0.6724 -1.0592  0.3790
  841MOL0     C10918   7.422   2.954   9.558  0.9560 -0.5815 -0.7917
  841MOL0     C10919   7.566   2.950   9.521  0.1615 -0.0544 -0.2062
  841MOL0     C10920   7.617   3.077   9.476  0.6303 -0.0167 -0.4608
  841MOL0     C10921   7.765   3.086   9.456 -0.5213 -0.4987 -0.3149
  841MOL0     C10922   7.800   3.222   9.394  0.1118 -0.3027 -0.0433
  841MOL0     C10923   7.932   3.224   9.321  0.0639  0.1372  0.5096
  841MOL0    Cl10924   8.054   3.162   9.423  0.3094 -0.3749 -0.2974
  841MOL0     C10925   6.942   2.978   9.248  0.1831  0.4441 -0.3297
  841MOL0     C10926   6.800   2.991   9.241 -0.9083 -0.0492  1.0270
  841MOL0     O10927   6.583   2.814   9.152 -0.0596 -0.3320  0.4770
  841MOL0     C10928   6.306   2.990   9.272  0.3800  0.6682  0.7840
  841MOL0     C10929   6.169   2.986   9.256 -0.7511 -0.4966 -0.5489
  841MOL0     N10930   5.590   2.471   9.338  0.4909  0.0529 -0.0153
  841MOL0     N10931   5.522   2.370   9.318  0.8968  0.4098  0.2599
  841MOL0     C10932   5.006   1.748   8.857 -0.2758 -0.8116 -0.2233
  841MOL0     C10933   4.883   1.671   8.860  0.0241  0.8080 -0.2301
  841MOL0     C10934   4.550   1.383   8.669 -0.4239 -0.0832 -0.8176
  841MOL0     C10935   4.503   1.282   8.577 -0.2009  0.4843  0.7783
  841MOL0     C10936   4.367   1.259   8.576 -0.7836 -0.4868 -0.1798
  841MOL0     C10937   4.269   1.322   8.655 -0.9446  1.0980  0.6812
  841MOL0     O10938   4.142   1.272   8.631 -0.4019  0.4798  0.6565
  841MOL0     C10939   4.046   1.358   8.566  0.6277 -1.2324 -0.1370
  841MOL0     C10940   4.040   1.361   8.410  0.3380 -0.2531  0.0755
  841MOL0     C10941   3.905   1.416   8.354 -0.6283  0.5535 -0.2415
  841MOL0     C10942   3.795   1.315   8.385  1.6723 -0.4943  0.6687
  841MOL0     C10943   3.664   1.360   8.444 -0.2640  0.1880 -0.2601
  841MOL0     C10944   3.555   1.390   8.494  0.5616  0.0568 -0.3244
  841MOL0     C10945   4.314   1.426   8.735  0.7897 -0.4569 -0.0356
  841MOL0     C10946   4.455   1.455   8.748 -0.2748 -0.6264  0.0508
  841MOL0     H10947   4.932   1.501   8.560 -1.9657  0.0261  0.4969
  841MOL0     H10948   5.138   1.610   8.581  1.9566  0.2542  1.2869
  841MOL0     H10949   5.193   1.953   8.631  0.6770  1.4858  2.4664
  841MOL0     H10950   5.266   1.793   8.556  3.7289  1.1203 -0.2852
  841MOL0     H10951   5.423   1.962   8.565 -0.2941  2.0550  1.1756
  841MOL0     H10952   5.469   1.825   8.672 -0.5204 -0.3456 -1.2936
  841MOL0     H10953   5.396   1.946   8.868  1.5820 -0.3936  0.3396
  841MOL0     H10954   5.348   2.090   8.767  1.1621  0.4393 -1.0339
  841MOL0     H10955   5.628   1.980   8.819 -2.3209 -3.3288 -1.8638
  841MOL0     H10956   5.602   2.071   8.674 -0.0941  2.8971 -0.1004
  841MOL0     H10957   5.512   2.254   8.772  1.1134  1.3463  0.5762
  841MOL0     H10958   5.673   2.234   8.835 -0.6791  2.5122  1.0704
  841MOL0     H10959   5.425   2.196   8.994 -0.3682  0.2501 -3.9144
  841MOL0     H10960   5.557   2.317   9.024 -0.1784  0.0200  1.2986
  841MOL0     H10961   5.592   2.013   9.040  1.6703 -0.0943  0.3005
  841MOL0     H10962   5.721   2.136   9.043 -0.2225  0.7784 -3.9174
  841MOL0     H10963   5.641   2.064   9.289 -1.9065 -0.2252  1.2139
  841MOL0     H10964   5.476   2.114   9.237 -0.3510 -0.1213 -2.6787
  841MOL0     H10965   5.844   2.263   9.285  1.5725  1.1021  0.4105
  841MOL0     H10966   5.906   2.519   9.439  0.1925  2.8906 -1.4594
  841MOL0     H10967   5.758   2.552   9.521  0.4593  0.1607  0.8031
  841MOL0     H10968   5.688   2.719   9.336  1.2245  1.6901 -1.8194
  841MOL0     H10969   5.833   2.667   9.244  1.1954 -2.3859  1.0155
  841MOL0     H10970   5.783   2.847   9.485 -0.3533  0.1515 -0.7005
  841MOL0     H10971   5.952   2.776   9.456  0.0393  0.9590  0.8415
  841MOL0     H10972   5.901   3.016   9.347 -2.2077 -0.9015  2.1668
  841MOL0     H10973   5.772   2.937   9.256 -1.6023 -0.9875  0.7434
  841MOL0     H10974   6.119   2.659   9.198 -0.9241  0.6136 -0.4525
  841MOL0     H10975   6.354   2.670   9.197  0.5862  1.4407 -0.6956
  841MOL0     H10976   6.707   2.811   9.522 -1.3109 -2.4224 -2.3377
  841MOL0     H10977   6.947   2.798   9.550 -2.3408 -0.8136  0.4803
  841MOL0     H10978   7.177   2.847   9.549  1.7637  0.3726  2.0485
  841MOL0     H10979   7.169   3.027   9.524 -0.8622  0.7752 -3.2001
  841MOL0     H10980   7.352   3.020   9.360  1.5274 -3.6091 -2.3979
  841MOL0     H10981   7.350   2.849   9.369 -2.0706  0.0773 -1.6330
  841MOL0     H10982   7.402   2.871   9.627  0.1797  1.0814  1.0886
  841MOL0     H10983   7.391   3.047   9.606  3.5124 -0.5219  0.9511
  841MOL0     H10984   7.628   2.927   9.608  1.0824 -0.7529 -1.0148
  841MOL0     H10985   7.580   2.864   9.455 -0.6758 -3.4767  3.6760
  841MOL0     H10986   7.592   3.140   9.561 -2.3782 -0.9561 -0.5251
  841MOL0     H10987   7.560   3.107   9.387  0.6255 -1.1637 -0.8588
  841MOL0     H10988   7.797   3.006   9.389 -3.3295 -0.5895 -1.7103
  841MOL0     H10989   7.815   3.069   9.552  0.8129  0.3440 -0.8454
  841MOL0     H10990   7.714   3.262   9.340  0.6043 -1.0876 -1.4536
  841MOL0     H10991   7.812   3.290   9.479  2.5489 -2.3983  1.4344
  841MOL0     H10992   7.968   3.320   9.283 -1.5300  0.4361 -0.3452
  841MOL0     H10993   7.924   3.150   9.240  3.7709 -0.4591  0.5078
  841MOL0     H10994   7.006   3.019   9.170 -0.6155 -1.0432 -1.8415
  841MOL0     H10995   6.746   3.036   9.159 -2.3137 -1.7524  0.9515
  841MOL0     H10996   6.368   3.075   9.299  0.7493  1.2138 -1.6341
  841MOL0     H10997   6.104   3.072   9.268 -0.3106  0.1742 -2.5288
  841MOL0     H10998   5.029   1.803   8.948 -0.2966 -1.5521  0.2410
  841MOL0     H10999   4.809   1.685   8.939  1.2676  0.4629  1.0518
  841MOL0     H11000   4.552   1.227   8.497 -3.2320 -0.7545 -0.3766
  841MOL0     H11001   4.331   1.188   8.502 -0.8089 -1.8828  1.1145
  841MOL0     H11002   4.055   1.457   8.611  1.9615 -1.9039  1.1726
  841MOL0     H11003   3.951   1.322   8.607  0.6243 -0.7474  0.2894
  841MOL0     H11004   4.111   1.436   8.375 -2.2050  1.5560 -1.5622
  841MOL0     H11005   4.069   1.263   8.371  3.7082  0.6614  0.0247
  841MOL0     H11006   3.912   1.437   8.247 -0.6580  1.8142 -0.0190
  841MOL0     H11007   3.882   1.509   8.408 -3.2848 -0.8424  1.2587
  841MOL0     H11008   3.771   1.260   8.293  2.7724  0.8718 -0.4838
  841MOL0     H11009   3.835   1.245   8.458  1.0718  0.2076  1.6949
  841MOL0     H11010   3.456   1.407   8.533  0.2200 -0.1356 -1.1010
  841MOL0     H11011   4.239   1.478   8.793  0.4244 -0.4139 -0.5323
  841MOL0     H11012   4.492   1.515   8.831  1.9643  1.9809 -2.6356
  842MOL0     O11013   3.141   4.185   0.755  0.1562 -0.2492  0.9267
  842MOL0     C11014   3.253   4.187   0.708  0.2288 -0.2478 -0.0717
  842MOL0     O11015   3.335   4.304   0.684  0.0435  0.0668  0.0498
  842MOL0     C11016   3.310   4.436   0.723  0.1394  0.6066  0.9326
  842MOL0     C11017   3.409   4.521   0.676 -0.5058 -0.5314  0.1882
  842MOL0     C11018   3.389   4.660   0.679  0.6414 -0.8044  0.7925
  842MOL0     C11019   3.270   4.716   0.731  0.3523 -0.9007  0.2039
  842MOL0     O11020   3.238   4.850   0.712  0.4960  0.6917  1.0084
  842MOL0     C11021   3.260   4.902   0.581  0.1416  0.6494  0.4084
  842MOL0     C11022   3.148   5.006   0.554 -0.6504  0.7156  0.1860
  842MOL0     C11023   3.004   4.946   0.576  0.4521 -0.8360  0.3510
  842MOL0     C11024   2.899   5.056   0.570 -0.0731 -0.3969  0.3005
  842MOL0     C11025   2.915   5.171   0.672 -0.1098 -1.1738  0.2662
  842MOL0     C11026   2.946   5.123   0.823  0.0228 -0.2249 -1.2171
  842MOL0     C11027   2.834   5.020   0.878 -0.1582 -0.0265  0.5516
  842MOL0     C11028   2.875   4.965   1.014  0.1298 -0.9216  0.0859
  842MOL0     N11029   2.839   5.059   1.121 -0.6133  0.2305  0.2190
  842MOL0     C11030   2.927   5.112   1.212 -0.3669  0.3039  1.0497
  842MOL0     C11031   2.863   5.207   1.288 -0.3187  0.6974  0.3928
  842MOL0     C11032   2.916   5.298   1.394 -0.0970  1.3256 -0.5749
  842MOL0     C11033   2.951   5.437   1.343  0.0323  0.0373  0.0666
  842MOL0     C11034   3.047   5.447   1.225 -0.3784  0.7102  0.5473
  842MOL0     C11035   3.037   5.580   1.152  0.9843  0.2742  0.2039
  842MOL0     O11036   3.123   5.681   1.215  0.0564 -0.5138  0.0004
  842MOL0     C11037   3.078   5.782   1.303  0.1352 -0.6129 -0.5341
  842MOL0     C11038   2.940   5.799   1.332 -0.2948 -0.5303  0.9995
  842MOL0     C11039   2.897   5.901   1.406 -0.0512 -0.7382 -1.0569
  842MOL0     C11040   2.991   5.991   1.462  1.5468 -1.7611 -0.0220
  842MOL0     C11041   2.939   6.110   1.533  0.9408  0.2296 -1.1491
  842MOL0     O11042   3.021   6.216   1.541  0.0425 -0.8813  0.1219
  842MOL0     C11043   2.984   6.344   1.594  0.0873 -0.0141  0.8998
  842MOL0     C11044   2.878   6.362   1.689 -0.6682 -0.5691  0.3900
  842MOL0     C11045   2.865   6.497   1.737 -0.7564  0.3505 -0.3124
  842MOL0     C11046   2.932   6.609   1.677 -0.4631  0.2048 -0.5097
  842MOL0     O11047   2.897   6.731   1.739 -0.4485  0.0855  0.3888
  842MOL0     C11048   3.003   6.826   1.741  0.5730 -0.6372  0.5969
  842MOL0     C11049   2.985   6.942   1.638  1.0839 -0.4144 -0.1901
  842MOL0     C11050   3.115   7.028   1.615 -0.9521  0.0941 -0.9722
  842MOL0     C11051   3.077   7.166   1.569 -0.2120 -0.6097  1.1671
  842MOL0     C11052   3.200   7.226   1.497 -0.5521 -0.3148 -0.3158
  842MOL0     C11053   3.183   7.357   1.425 -0.2369 -0.2796 -0.5137
  842MOL0     C11054   3.103   7.342   1.298  0.1089 -0.9141 -0.0539
  842MOL0     C11055   3.139   7.445   1.192  0.3031 -0.2101  1.0260
  842MOL0    Cl11056   3.314   7.411   1.133  0.2608 -0.2833  0.0518
  842MOL0     C11057   3.023   6.588   1.569 -0.7352  0.4142 -0.1062
  842MOL0     C11058   3.046   6.452   1.534 -0.2507 -1.3392  0.2825
  842MOL0     O11059   2.827   6.115   1.569 -0.1006 -0.5436 -0.5635
  842MOL0     C11060   3.126   5.986   1.423  0.3246 -0.0407 -0.4272
  842MOL0     C11061   3.166   5.873   1.348  0.1662  1.0401  0.6861
  842MOL0     N11062   2.730   5.211   1.242 -0.5662  0.2928 -0.3356
  842MOL0     N11063   2.723   5.121   1.149  0.3618 -0.7724 -0.0298
  842MOL0     C11064   3.168   4.634   0.779 -0.7761 -0.2324  0.0873
  842MOL0     C11065   3.188   4.487   0.777 -0.8445 -0.5334 -0.5477
  842MOL0     C11066   3.298   4.069   0.648  0.0832 -0.1498 -0.0217
  842MOL0     C11067   3.232   4.010   0.538  0.8044  0.6561  1.0470
  842MOL0     C11068   3.284   3.899   0.477 -0.6371  0.3311 -0.0937
  842MOL0     C11069   3.398   3.834   0.530 -0.9731 -0.0661  0.1967
  842MOL0     O11070   3.437   3.717   0.482  0.7531 -0.0719 -0.6235
  842MOL0     C11071   3.542   3.710   0.389  0.3031 -0.4081 -0.2761
  842MOL0     C11072   3.499   3.749   0.245 -0.1777  0.0933 -1.5223
  842MOL0     C11073   3.383   3.662   0.183 -0.8710 -0.1913  0.4526
  842MOL0     C11074   3.438   3.513   0.164 -0.4356  0.0536  0.2505
  842MOL0     C11075   3.511   3.502   0.042 -0.1305 -0.1021 -0.3051
  842MOL0     C11076   3.575   3.508  -0.058 -0.8889  0.4422 -0.2560
  842MOL0     C11077   3.469   3.889   0.635  0.3717  0.2212 -0.0646
  842MOL0     C11078   3.413   4.006   0.699 -0.1285  0.8520  0.7685
  842MOL0     H11079   3.499   4.492   0.623 -0.0292  1.7214 -0.3338
  842MOL0     H11080   3.467   4.728   0.648 -1.9508  2.6719  1.3021
  842MOL0     H11081   3.250   4.830   0.499 -0.2617 -1.3742  2.1670
  842MOL0     H11082   3.366   4.929   0.571 -0.2469  2.8716  1.6729
  842MOL0     H11083   3.156   5.035   0.449  1.0931  0.1230  0.1138
  842MOL0     H11084   3.174   5.090   0.619  3.0092  0.3747 -0.6064
  842MOL0     H11085   3.011   4.889   0.670 -1.0690 -1.1003  0.3277
  842MOL0     H11086   2.983   4.867   0.504  0.9762 -0.9883  0.3584
  842MOL0     H11087   2.889   5.097   0.469 -1.3088  1.4900  1.1343
  842MOL0     H11088   2.806   5.006   0.598 -0.7781 -0.2005 -1.5692
  842MOL0     H11089   2.822   5.229   0.667  0.3881 -0.0309  2.6555
  842MOL0     H11090   3.001   5.231   0.639 -0.6604 -1.6516 -2.2645
  842MOL0     H11091   2.942   5.199   0.901 -3.6795 -1.4909  0.0210
  842MOL0     H11092   3.047   5.080   0.821  0.1072 -0.6091  2.9710
  842MOL0     H11093   2.730   5.047   0.897 -0.0764  0.2188  0.6640
  842MOL0     H11094   2.829   4.944   0.800  0.9306 -1.2033  1.5809
  842MOL0     H11095   2.982   4.945   1.004 -0.1670 -1.3183 -2.9577
  842MOL0     H11096   2.829   4.869   1.036  0.2338 -0.9581  0.1454
  842MOL0     H11097   3.034   5.095   1.207 -0.5109 -1.0170  1.9516
  842MOL0     H11098   3.013   5.263   1.430 -1.2343  0.1184  1.5418
  842MOL0     H11099   2.835   5.302   1.467 -2.4973 -2.4745 -2.7060
  842MOL0     H11100   2.992   5.514   1.410  1.0146  2.6205 -3.2513
  842MOL0     H11101   2.849   5.470   1.322  0.4748  0.3026 -1.8287
  842MOL0     H11102   3.150   5.423   1.254 -0.2039  0.7081 -0.0741
  842MOL0     H11103   3.008   5.373   1.155  0.0644  1.0438 -0.0587
  842MOL0     H11104   2.935   5.618   1.142  1.4282  1.9383  1.4612
  842MOL0     H11105   3.069   5.583   1.047 -1.6564  2.1527 -0.6708
  842MOL0     H11106   2.874   5.715   1.312  2.0655 -2.2276 -0.0258
  842MOL0     H11107   2.790   5.912   1.416  0.3077  1.9476  0.8848
  842MOL0     H11108   2.806   6.287   1.719 -1.4545  0.6992  1.8916
  842MOL0     H11109   2.801   6.504   1.825  0.1462 -1.3934  0.5439
  842MOL0     H11110   3.104   6.788   1.721 -0.1028 -3.4016  1.8784
  842MOL0     H11111   3.012   6.863   1.843 -0.1540 -0.8050  0.7263
  842MOL0     H11112   2.908   7.007   1.679  2.6872  0.1493  2.1389
  842MOL0     H11113   2.950   6.898   1.544 -1.2605  0.7807  0.0444
  842MOL0     H11114   3.172   6.985   1.533  1.2574  3.2038 -1.2098
  842MOL0     H11115   3.177   7.031   1.705 -1.3858  2.6871 -0.6888
  842MOL0     H11116   2.992   7.167   1.501  1.1168 -0.4980 -0.5528
  842MOL0     H11117   3.048   7.227   1.655 -1.7111 -0.2238  0.4140
  842MOL0     H11118   3.235   7.156   1.420 -0.5989  0.6118 -1.2026
  842MOL0     H11119   3.272   7.239   1.578 -2.3440 -4.5625  2.2965
  842MOL0     H11120   3.288   7.383   1.409  0.7090 -2.4904  1.6279
  842MOL0     H11121   3.136   7.431   1.490  1.5868  0.2512  0.2317
  842MOL0     H11122   3.110   7.238   1.262 -0.9072 -1.5514  1.4830
  842MOL0     H11123   2.996   7.340   1.317  0.1616 -2.5785  0.2676
  842MOL0     H11124   3.129   7.550   1.222  2.9492  1.1572 -2.3288
  842MOL0     H11125   3.076   7.433   1.104  0.8364  1.6534  0.3527
  842MOL0     H11126   3.083   6.670   1.531  3.3543 -1.4884  1.6324
  842MOL0     H11127   3.120   6.432   1.457  0.1244 -0.3419  0.3642
  842MOL0     H11128   3.196   6.068   1.435 -1.6168  1.7167 -0.6336
  842MOL0     H11129   3.268   5.851   1.317  0.2066  0.3030  1.3170
  842MOL0     H11130   3.077   4.675   0.822  1.7372  2.9604  2.9384
  842MOL0     H11131   3.112   4.418   0.810  0.7009 -2.3247 -0.6229
  842MOL0     H11132   3.142   4.062   0.508 -1.0741 -1.5430  2.5231
  842MOL0     H11133   3.230   3.848   0.397 -2.0163  3.6339 -1.4845
  842MOL0     H11134   3.591   3.612   0.387 -0.2517 -0.6810 -0.7504
  842MOL0     H11135   3.618   3.781   0.424 -0.9796  0.2688  1.2226
  842MOL0     H11136   3.464   3.852   0.245  3.4611  1.5837  1.8250
  842MOL0     H11137   3.590   3.749   0.183  1.0674  1.4502  0.2237
  842MOL0     H11138   3.346   3.708   0.091  2.4805  1.4527 -0.2481
  842MOL0     H11139   3.295   3.674   0.247  0.0758 -0.9462  1.9749
  842MOL0     H11140   3.509   3.484   0.241 -0.9997  1.1570  1.2169
  842MOL0     H11141   3.354   3.444   0.179  2.1231 -3.6243 -0.8336
  842MOL0     H11142   3.644   3.493  -0.138  0.4417  2.4403  0.4428
  842MOL0     H11143   3.554   3.833   0.672  0.5024  1.1155  1.0193
  842MOL0     H11144   3.454   4.029   0.796 -0.8021  1.5177  0.9118
  843MOL0     O11145   7.223   6.754   6.774  0.2885  0.0563 -0.1207
  843MOL0     C11146   7.334   6.749   6.724 -0.2427 -0.4587  0.9702
  843MOL0     O11147   7.364   6.751   6.595 -0.9047 -0.5870 -0.3640
  843MOL0     C11148   7.256   6.773   6.513  0.3479 -0.3242  0.4866
  843MOL0     C11149   7.232   6.679   6.411 -0.0766 -0.4693  0.3997
  843MOL0     C11150   7.125   6.696   6.319  0.0836 -0.3359 -0.6459
  843MOL0     C11151   7.046   6.812   6.332  0.2384  0.7748 -0.0236
  843MOL0     O11152   6.943   6.847   6.244  0.2529  0.2168 -0.5992
  843MOL0     C11153   6.890   6.752   6.148  0.4318 -0.1588  1.4433
  843MOL0     C11154   6.811   6.829   6.037  0.5008  0.3600  0.3647
  843MOL0     C11155   6.669   6.884   6.088 -0.0972  0.3502  0.3154
  843MOL0     C11156   6.673   7.018   6.170 -0.9357 -0.6628 -0.4238
  843MOL0     C11157   6.529   7.079   6.191 -1.1148  0.6250 -1.2517
  843MOL0     C11158   6.523   7.212   6.119 -0.2031 -0.4325 -0.0598
  843MOL0     C11159   6.387   7.263   6.127  0.3480  0.2165  0.0531
  843MOL0     C11160   6.372   7.423   6.118 -0.5829  0.3051 -1.1014
  843MOL0     N11161   6.410   7.462   5.979 -0.0633 -0.8639  0.3666
  843MOL0     C11162   6.324   7.461   5.870  0.3586 -0.8788 -0.6826
  843MOL0     C11163   6.398   7.499   5.766 -0.2839  0.3797  0.3306
  843MOL0     C11164   6.349   7.510   5.621  0.3540  0.0842  0.6450
  843MOL0     C11165   6.196   7.527   5.599  0.0130  0.0375 -0.2283
  843MOL0     C11166   6.153   7.671   5.629  0.8823 -0.2959 -0.1941
  843MOL0     C11167   6.002   7.690   5.625 -0.0964 -0.1846 -0.1787
  843MOL0     O11168   5.952   7.630   5.748  0.5616 -0.2749  0.1168
  843MOL0     C11169   5.832   7.688   5.791  0.9422  1.1188  0.2479
  843MOL0     C11170   5.725   7.646   5.711  1.6135 -0.6834  0.4999
  843MOL0     C11171   5.591   7.686   5.739  0.2948  0.1541 -0.3997
  843MOL0     C11172   5.569   7.755   5.857  0.0668  0.1008  0.8675
  843MOL0     C11173   5.437   7.769   5.919  0.7202 -0.4671 -0.1984
  843MOL0     O11174   5.335   7.753   5.828  0.9808 -0.5248 -0.3138
  843MOL0     C11175   5.197   7.738   5.861 -0.9925 -0.6544  0.4891
  843MOL0     C11176   5.139   7.700   5.985 -0.1517 -0.1592 -0.5918
  843MOL0     C11177   5.006   7.695   6.013 -0.3979  0.0279  0.0683
  843MOL0     C11178   4.916   7.713   5.905  0.4689 -1.2166  0.3179
  843MOL0     O11179   4.781   7.690   5.936  0.1783  0.0206  0.0340
  843MOL0     C11180   4.676   7.731   5.853 -0.0835  0.2970  1.1123
  843MOL0     C11181   4.664   7.889   5.853 -0.0379 -0.0750  0.4046
  843MOL0     C11182   4.601   7.949   5.983 -0.1273 -0.0404 -0.2339
  843MOL0     C11183   4.580   8.104   5.972  0.0706 -1.2773 -0.4147
  843MOL0     C11184   4.482   8.175   6.065 -0.0806 -0.6554 -0.1158
  843MOL0     C11185   4.480   8.130   6.215 -0.8278 -0.8680  0.3492
  843MOL0     C11186   4.362   8.222   6.274  0.3285  0.9499  0.3091
  843MOL0     C11187   4.344   8.197   6.423 -0.3169 -0.3844 -0.1163
  843MOL0    Cl11188   4.274   8.341   6.508 -0.1246  0.2981  0.2955
  843MOL0     C11189   4.958   7.759   5.783 -0.8475  0.7778 -0.2201
  843MOL0     C11190   5.099   7.767   5.764  0.1717 -0.9748 -0.3182
  843MOL0     O11191   5.425   7.795   6.042  0.3400 -0.1259  0.0879
  843MOL0     C11192   5.683   7.787   5.939 -0.1088 -0.3058  0.1334
  843MOL0     C11193   5.818   7.768   5.903 -0.0575  0.3315 -0.8767
  843MOL0     N11194   6.527   7.539   5.813 -0.9262  0.2224  0.0744
  843MOL0     N11195   6.522   7.524   5.942 -1.0938 -0.2337  0.9943
  843MOL0     C11196   7.073   6.909   6.420  0.3295 -0.2174 -1.1241
  843MOL0     C11197   7.176   6.892   6.514 -0.0333 -0.6147 -0.6517
  843MOL0     C11198   7.449   6.736   6.813  0.6144  0.1327  0.2241
  843MOL0     C11199   7.430   6.732   6.953  0.8156  0.8979  0.1952
  843MOL0     C11200   7.539   6.752   7.037  0.3186  0.3727 -0.4720
  843MOL0     C11201   7.667   6.762   6.978  0.1856  0.0749  0.1882
  843MOL0     O11202   7.773   6.766   7.066  0.7284  0.1398 -0.7414
  843MOL0     C11203   7.794   6.900   7.119  0.3239 -0.1555 -0.4702
  843MOL0     C11204   7.938   6.908   7.169  0.3389  0.2361  0.0272
  843MOL0     C11205   7.973   7.055   7.204 -1.0098  0.5168  0.5308
  843MOL0     C11206   7.875   7.135   7.296  0.4260 -0.2619  0.0659
  843MOL0     C11207   7.879   7.088   7.441  0.0659  0.3142  0.6903
  843MOL0     C11208   7.881   7.057   7.557 -0.9379  0.0234 -0.0294
  843MOL0     C11209   7.689   6.746   6.839 -0.5344  0.6031 -0.6435
  843MOL0     C11210   7.581   6.733   6.751  0.9281 -0.9776  0.3945
  843MOL0     H11211   7.302   6.597   6.394 -1.8337 -1.7711 -0.9517
  843MOL0     H11212   7.117   6.615   6.247  0.6155 -0.7350 -0.2694
  843MOL0     H11213   6.810   6.689   6.190 -0.5097 -0.5102 -0.7331
  843MOL0     H11214   6.967   6.692   6.100  0.9551  1.2417  0.4839
  843MOL0     H11215   6.794   6.756   5.958  0.8821 -1.2029  1.6801
  843MOL0     H11216   6.878   6.900   5.987  2.3809 -1.3588  0.2923
  843MOL0     H11217   6.624   6.808   6.152 -1.1898 -0.4320 -1.3244
  843MOL0     H11218   6.604   6.903   6.003  1.5894 -1.9589 -1.6070
  843MOL0     H11219   6.724   7.000   6.265  1.2916  1.7075 -1.0249
  843MOL0     H11220   6.731   7.100   6.126 -1.3578 -0.7885 -1.2140
  843MOL0     H11221   6.509   7.090   6.299  2.0830  2.2192 -0.6935
  843MOL0     H11222   6.454   7.013   6.147 -0.9912  0.3265 -1.0152
  843MOL0     H11223   6.560   7.203   6.016  2.1582  2.4938  0.3770
  843MOL0     H11224   6.587   7.280   6.176 -2.1231  0.1019  1.5704
  843MOL0     H11225   6.330   7.220   6.044 -0.9650 -0.5722  1.3005
  843MOL0     H11226   6.344   7.224   6.220 -0.1878 -0.2805 -0.3962
  843MOL0     H11227   6.444   7.452   6.195  1.0137 -1.9750 -1.6387
  843MOL0     H11228   6.276   7.467   6.146  0.5098  2.1217 -0.0336
  843MOL0     H11229   6.216   7.449   5.866  0.1009  1.0914 -0.8196
  843MOL0     H11230   6.386   7.423   5.567  2.7651 -0.5518  3.1023
  843MOL0     H11231   6.403   7.596   5.580 -0.1455  0.4788  0.8037
  843MOL0     H11232   6.143   7.445   5.649  0.0323  0.6805  0.8561
  843MOL0     H11233   6.181   7.511   5.491 -0.1939  1.9048 -0.5013
  843MOL0     H11234   6.179   7.701   5.731 -1.9602 -2.6398  1.3377
  843MOL0     H11235   6.203   7.729   5.551  0.0713 -2.0005 -2.0925
  843MOL0     H11236   5.981   7.637   5.531  0.9769  1.4354 -1.3896
  843MOL0     H11237   5.981   7.797   5.623 -0.4418 -0.1762  2.1528
  843MOL0     H11238   5.751   7.598   5.617  2.6343  0.3576  0.2334
  843MOL0     H11239   5.507   7.648   5.682 -0.6913  0.1079  1.0480
  843MOL0     H11240   5.201   7.679   6.072 -2.0700 -1.1900  0.5985
  843MOL0     H11241   4.967   7.676   6.112 -1.9553 -2.3979 -0.9061
  843MOL0     H11242   4.582   7.696   5.897 -0.6405  1.0804  0.5663
  843MOL0     H11243   4.683   7.703   5.748 -1.2010  4.1483 -0.1201
  843MOL0     H11244   4.598   7.914   5.770  0.2897  1.4212  0.5662
  843MOL0     H11245   4.759   7.935   5.824 -0.8911  1.4234 -0.0841
  843MOL0     H11246   4.669   7.932   6.067  1.8488 -0.2380 -1.8051
  843MOL0     H11247   4.500   7.910   6.002 -0.0074 -0.5528 -0.6530
  843MOL0     H11248   4.673   8.153   6.002 -2.5637  3.7478  0.7071
  843MOL0     H11249   4.554   8.120   5.867 -0.4414 -3.0104 -0.5807
  843MOL0     H11250   4.386   8.145   6.022 -0.9356 -1.0652  2.0036
  843MOL0     H11251   4.507   8.282   6.057 -3.4258  0.4526  2.3101
  843MOL0     H11252   4.570   8.166   6.267 -3.3996  2.0425  3.2262
  843MOL0     H11253   4.467   8.023   6.232 -0.8651 -0.8114  0.6779
  843MOL0     H11254   4.392   8.324   6.246 -0.3230  0.0958 -4.3345
  843MOL0     H11255   4.272   8.193   6.220  2.5503 -2.6745 -1.8322
  843MOL0     H11256   4.442   8.169   6.462  1.1554  1.9897 -1.7655
  843MOL0     H11257   4.272   8.116   6.436 -1.1121  0.1025 -1.3421
  843MOL0     H11258   4.895   7.794   5.703  2.6543  4.1530 -1.8317
  843MOL0     H11259   5.123   7.807   5.666 -0.8307  0.4088 -0.0287
  843MOL0     H11260   5.663   7.840   6.031  2.2875 -4.7328  3.6062
  843MOL0     H11261   5.905   7.788   5.965 -0.3962 -1.8017  0.4117
  843MOL0     H11262   7.025   7.006   6.427  0.8993  0.0300  4.9166
  843MOL0     H11263   7.204   6.976   6.579 -0.2659  0.3347 -1.7455
  843MOL0     H11264   7.327   6.744   6.985  0.9171 -0.7705  1.2790
  843MOL0     H11265   7.525   6.750   7.145 -2.0170  1.0530 -0.6989
  843MOL0     H11266   7.720   6.923   7.196  1.9965  2.0799  0.5752
  843MOL0     H11267   7.774   6.972   7.039 -2.1659 -1.8278 -1.4884
  843MOL0     H11268   7.950   6.851   7.261  0.3504 -0.0198 -0.1332
  843MOL0     H11269   8.003   6.871   7.089 -2.4906 -0.4397 -2.1489
  843MOL0     H11270   7.996   7.108   7.111 -2.8073  1.9274  0.8503
  843MOL0     H11271   8.069   7.062   7.256 -0.7072  1.2735 -0.1127
  843MOL0     H11272   7.896   7.242   7.287 -3.5706  0.5520 -1.9313
  843MOL0     H11273   7.774   7.125   7.253 -0.3179  1.2416  1.3502
  843MOL0     H11274   7.876   7.040   7.663 -3.9139  0.0165 -0.0918
  843MOL0     H11275   7.790   6.749   6.801 -0.4244  3.7176 -0.3424
  843MOL0     H11276   7.607   6.729   6.645 -0.3053  3.6938 -0.3165
  844MOL0     O11277   4.085   9.016   3.991  0.0275 -0.0296 -0.0832
  844MOL0     C11278   4.161   9.044   4.084 -0.0763 -0.0285  0.4324
  844MOL0     O11279   4.136   9.140   4.170 -0.7173 -0.3535  0.1505
  844MOL0     C11280   4.019   9.212   4.149 -1.0901 -0.8412 -0.0133
  844MOL0     C11281   3.904   9.152   4.182 -0.5977 -0.0391 -0.5195
  844MOL0     C11282   3.780   9.212   4.167 -0.7689  0.7182  0.4618
  844MOL0     C11283   3.775   9.345   4.118 -0.2550 -0.6267 -0.1082
  844MOL0     O11284   3.653   9.421   4.112  0.4048 -0.0338 -0.4232
  844MOL0     C11285   3.655   9.562   4.083 -0.1462 -0.8749 -0.7818
  844MOL0     C11286   3.707   9.648   4.211 -0.7029  0.1814 -0.2474
  844MOL0     C11287   3.724   9.797   4.174  0.0921 -0.4643  0.2785
  844MOL0     C11288   3.823   9.866   4.263  0.1445 -0.4112 -0.4520
  844MOL0     C11289   3.796   9.878   4.412  0.1341 -0.6389  0.0522
  844MOL0     C11290   3.898   9.975   4.462 -0.0203 -0.6183 -0.8171
  844MOL0     C11291   4.047   9.920   4.464  0.4951 -0.2087 -0.1460
  844MOL0     C11292   4.078   9.779   4.535  0.7621 -0.5055  1.0108
  844MOL0     N11293   4.218   9.736   4.517  0.4273 -0.0365 -0.5103
  844MOL0     C11294   4.312   9.705   4.612 -0.0836 -0.7362 -0.1334
  844MOL0     C11295   4.423   9.664   4.542  0.1902  0.2151 -0.2849
  844MOL0     C11296   4.555   9.611   4.597 -0.7732  0.3323  0.0950
  844MOL0     C11297   4.653   9.726   4.617  0.3217  0.2674 -0.2663
  844MOL0     C11298   4.631   9.783   4.759 -0.0270  0.1329  0.5083
  844MOL0     C11299   4.684   9.928   4.764 -0.3430 -0.9799 -0.9707
  844MOL0     O11300   4.635  10.002   4.658 -0.4751 -0.0560  1.2823
  844MOL0     C11301   4.516  10.073   4.684 -0.4330 -0.6557 -0.5773
  844MOL0     C11302   4.502  10.191   4.616 -0.2556  0.5590  0.5650
  844MOL0     C11303   4.385  10.269   4.622 -0.0580 -0.5249 -0.7001
  844MOL0     C11304   4.280  10.225   4.692  0.1269  0.5575  0.2966
  844MOL0     C11305   4.154  10.308   4.710 -0.7229 -0.5008  1.0387
  844MOL0     O11306   4.043  10.248   4.760  0.1876  0.7153  0.7819
  844MOL0     C11307   3.919  10.296   4.726 -0.0129 -0.8188 -0.7382
  844MOL0     C11308   3.882  10.302   4.593 -0.2378 -1.1258  0.3796
  844MOL0     C11309   3.751  10.338   4.556 -0.7213 -0.1632 -0.0238
  844MOL0     C11310   3.649  10.357   4.649 -0.1617 -0.1698  0.1152
  844MOL0     O11311   3.517  10.377   4.613 -0.8313 -0.0960  0.6564
  844MOL0     C11312   3.482  10.346   4.473  0.4488 -0.3955 -0.1712
  844MOL0     C11313   3.327  10.347   4.465  0.7151  0.4531 -0.3205
  844MOL0     C11314   3.247  10.472   4.416 -0.5524  1.2730  0.3454
  844MOL0     C11315   3.099  10.420   4.423 -0.0221 -0.4090 -0.3856
  844MOL0     C11316   2.993  10.518   4.377 -0.2358 -0.7004 -0.4721
  844MOL0     C11317   3.023  10.668   4.414 -0.0366 -0.6334 -0.6036
  844MOL0     C11318   2.928  10.769   4.355 -0.0732  0.0682 -0.5647
  844MOL0     C11319   2.965  10.919   4.378  0.2138 -0.0636 -0.2252
  844MOL0    Cl11320   2.942  10.999   4.217 -0.5262  0.3949 -0.0013
  844MOL0     C11321   3.691  10.345   4.786 -0.6598 -0.1596  0.2969
  844MOL0     C11322   3.821  10.314   4.822  0.6980  0.0140 -1.0067
  844MOL0     O11323   4.159  10.430   4.673 -0.5256  0.1768  0.2875
  844MOL0     C11324   4.294  10.104   4.770  0.0128  0.0569 -0.7422
  844MOL0     C11325   4.416  10.030   4.775  0.0347  0.0474  0.1989
  844MOL0     N11326   4.392   9.681   4.408  0.2679 -1.0299 -0.5302
  844MOL0     N11327   4.268   9.718   4.395  0.3233 -0.3080  0.6705
  844MOL0     C11328   3.896   9.405   4.070 -0.1090 -0.0513 -0.4693
  844MOL0     C11329   4.014   9.340   4.088 -0.2688  0.5139 -0.6728
  844MOL0     C11330   4.300   8.998   4.080 -0.1104 -0.3095 -0.5056
  844MOL0     C11331   4.397   9.093   4.106 -0.1411  0.5010 -0.3791
  844MOL0     C11332   4.531   9.042   4.089  0.4832  0.1319  0.5241
  844MOL0     C11333   4.571   8.919   4.031  0.5480  0.1157  0.4903
  844MOL0     O11334   4.708   8.881   4.011 -0.1754  0.4601  0.6026
  844MOL0     C11335   4.818   8.980   4.042  1.2563 -0.3931  0.4567
  844MOL0     C11336   4.957   8.902   4.039 -0.2939 -0.0821 -0.0940
  844MOL0     C11337   4.976   8.823   3.908 -0.0420 -0.5258 -0.9688
  844MOL0     C11338   5.058   8.910   3.821  0.0998 -0.1435  1.0677
  844MOL0     C11339   5.199   8.876   3.844  0.5553 -0.3610 -0.2524
  844MOL0     C11340   5.319   8.868   3.866  0.3790 -0.1293  0.4915
  844MOL0     C11341   4.461   8.839   3.990 -0.1187  0.1207  1.2831
  844MOL0     C11342   4.329   8.878   4.022 -0.0804  0.0711 -0.5065
  844MOL0     H11343   3.918   9.052   4.223  4.5948  0.7239  0.2529
  844MOL0     H11344   3.693   9.165   4.212 -0.2149  0.6311  1.4548
  844MOL0     H11345   3.551   9.589   4.064 -0.4062 -2.3968 -1.7228
  844MOL0     H11346   3.713   9.580   3.992 -0.1502 -1.1687 -0.8427
  844MOL0     H11347   3.800   9.598   4.239 -0.3993 -0.7753 -2.6805
  844MOL0     H11348   3.631   9.633   4.288 -2.3601  0.4410 -1.7546
  844MOL0     H11349   3.624   9.840   4.187 -0.8931 -2.6065  0.1551
  844MOL0     H11350   3.759   9.797   4.071 -0.3151  1.6762  0.0981
  844MOL0     H11351   3.915   9.806   4.260  0.0514 -0.5337 -1.1608
  844MOL0     H11352   3.849   9.962   4.218  0.0703 -0.2070 -0.0586
  844MOL0     H11353   3.812   9.779   4.457  0.1531 -1.7394 -2.2130
  844MOL0     H11354   3.701   9.927   4.431  0.1306  0.8260 -3.2200
  844MOL0     H11355   3.863   9.997   4.563 -1.3266 -3.2666 -0.6109
  844MOL0     H11356   3.879  10.064   4.401  0.4297  0.4247  0.4977
  844MOL0     H11357   4.082   9.914   4.361 -0.0953 -0.1078 -0.3567
  844MOL0     H11358   4.105  10.002   4.507  0.6774 -1.2236  1.6736
  844MOL0     H11359   4.012   9.705   4.490  0.1054  0.1714  0.8446
  844MOL0     H11360   4.063   9.784   4.643 -0.8380  0.5871  0.7696
  844MOL0     H11361   4.301   9.723   4.718 -0.5739 -2.9479  0.2316
  844MOL0     H11362   4.601   9.538   4.530  0.8257 -0.2427  1.7321
  844MOL0     H11363   4.540   9.562   4.694  1.9249 -1.2355 -0.1921
  844MOL0     H11364   4.646   9.797   4.534  1.6518  1.4550  0.5911
  844MOL0     H11365   4.754   9.684   4.606 -0.1004 -1.1633  0.8911
  844MOL0     H11366   4.526   9.789   4.789  0.3685  0.7958  1.8739
  844MOL0     H11367   4.680   9.723   4.837  0.9112 -2.6409 -2.0040
  844MOL0     H11368   4.793   9.927   4.756 -0.3138 -0.4058 -0.7547
  844MOL0     H11369   4.662   9.969   4.864  1.6096 -2.1787  0.0080
  844MOL0     H11370   4.584  10.238   4.562 -2.2895  1.3219 -2.0904
  844MOL0     H11371   4.374  10.367   4.578 -0.1825 -0.6177 -0.8809
  844MOL0     H11372   3.955  10.284   4.515 -3.2273 -3.4504 -2.1215
  844MOL0     H11373   3.736  10.342   4.449 -1.9386  0.6348  0.1586
  844MOL0     H11374   3.518  10.246   4.445  3.2889  1.2631 -3.0694
  844MOL0     H11375   3.527  10.413   4.400 -1.0297 -0.6741 -1.4049
  844MOL0     H11376   3.293  10.328   4.568 -0.1420  4.7487  0.3969
  844MOL0     H11377   3.305  10.260   4.403 -0.1220  2.5534 -3.1584
  844MOL0     H11378   3.267  10.494   4.311 -2.9422 -1.2063 -0.7308
  844MOL0     H11379   3.268  10.549   4.490  3.1338  1.7861 -0.9880
  844MOL0     H11380   3.087  10.333   4.357 -2.5779 -0.6686  0.3358
  844MOL0     H11381   3.064  10.388   4.521 -2.0603  2.0138 -0.2344
  844MOL0     H11382   2.889  10.489   4.397 -0.6494  0.2761 -1.1153
  844MOL0     H11383   2.975  10.501   4.270 -1.0749 -0.5567 -0.3632
  844MOL0     H11384   3.124  10.694   4.384  0.6400  0.8841  2.5798
  844MOL0     H11385   3.016  10.680   4.523  2.4300  0.6558 -0.5264
  844MOL0     H11386   2.924  10.749   4.248 -1.2608 -1.0902 -0.3267
  844MOL0     H11387   2.826  10.749   4.388  0.3432 -0.6076  0.3755
  844MOL0     H11388   3.070  10.920   4.409  0.4403 -4.1434 -0.2269
  844MOL0     H11389   2.904  10.965   4.456 -0.2762  0.2495 -0.7869
  844MOL0     H11390   3.627  10.350   4.874 -0.7652 -0.7272  0.2550
  844MOL0     H11391   3.850  10.311   4.926  3.9821 -3.0333 -1.8100
  844MOL0     H11392   4.216  10.079   4.840 -2.5059 -1.1792 -3.7513
  844MOL0     H11393   4.425   9.943   4.840  4.0628 -0.7358 -1.1440
  844MOL0     H11394   3.902   9.506   4.032  1.4428 -0.0252 -0.2144
  844MOL0     H11395   4.110   9.383   4.062  0.4865 -1.8865 -2.1030
  844MOL0     H11396   4.370   9.188   4.152 -0.4221 -0.9549  2.7461
  844MOL0     H11397   4.603   9.111   4.132 -1.1481  1.4824  1.1869
  844MOL0     H11398   4.810   9.024   4.141  0.6357 -0.8212  0.5992
  844MOL0     H11399   4.806   9.061   3.970 -3.4440  0.7091  2.1764
  844MOL0     H11400   5.038   8.975   4.047 -1.6794  1.7089 -1.3938
  844MOL0     H11401   4.976   8.838   4.125 -2.1251  0.1928  0.5722
  844MOL0     H11402   4.878   8.799   3.865 -1.4927 -1.3902  2.3956
  844MOL0     H11403   5.032   8.733   3.935 -2.1629 -1.9067 -0.9126
  844MOL0     H11404   5.041   8.887   3.715  1.0127  0.0199  0.8706
  844MOL0     H11405   5.056   9.019   3.829  2.0214 -0.0442  0.8226
  844MOL0     H11406   5.426   8.866   3.872  0.3446 -1.7936  0.9574
  844MOL0     H11407   4.489   8.747   3.939 -1.8442  0.2924 -0.0472
  844MOL0     H11408   4.250   8.807   4.000 -1.3877  1.8904 -1.9347
  845MOL0     O11409   8.951   1.005   7.568  0.3056 -0.1572  0.5958
  845MOL0     C11410   8.843   0.974   7.608 -0.3246  0.5092  0.7891
  845MOL0     O11411   8.751   0.899   7.531 -0.6210  0.1089 -0.2920
  845MOL0     C11412   8.779   0.846   7.405  0.1712 -0.2987 -0.2706
  845MOL0     C11413   8.903   0.800   7.368 -0.2351 -0.0907 -0.4462
  845MOL0     C11414   8.922   0.737   7.239 -1.2565 -0.1734 -0.2136
  845MOL0     C11415   8.822   0.730   7.141  0.1026 -0.6999 -1.0428
  845MOL0     O11416   8.847   0.687   7.011  0.2152  0.0477  0.9761
  845MOL0     C11417   8.983   0.694   6.957 -0.1943 -0.4014 -0.7713
  845MOL0     C11418   9.037   0.829   6.935 -0.4414 -0.6435  0.5834
  845MOL0     C11419   9.188   0.837   6.916  1.1909  0.8734 -0.3579
  845MOL0     C11420   9.227   0.980   6.868 -0.1243 -0.0318 -0.6676
  845MOL0     C11421   9.375   0.998   6.873 -0.4295  0.0466 -0.2363
  845MOL0     C11422   9.438   1.121   6.785 -0.0430 -0.1336  0.0923
  845MOL0     C11423   9.591   1.120   6.773 -0.5144 -0.6425  0.2387
  845MOL0     C11424   9.650   1.246   6.706  0.0152 -0.5472  1.0654
  845MOL0     N11425   9.802   1.245   6.682  0.6870 -0.3032  0.8575
  845MOL0     C11426   9.893   1.147   6.651 -0.9967  0.0430 -0.8469
  845MOL0     C11427  10.007   1.215   6.619  0.2699  0.0439 -0.2153
  845MOL0     C11428  10.128   1.156   6.565 -0.4677  0.4496  0.5309
  845MOL0     C11429  10.130   1.115   6.415 -0.2011  0.3191  0.3693
  845MOL0     C11430  10.271   1.065   6.380 -0.4343  0.2218 -0.5093
  845MOL0     C11431  10.373   1.179   6.383 -0.0021 -0.4282  0.8967
  845MOL0     O11432  10.487   1.145   6.285  0.2029 -0.4952 -0.0544
  845MOL0     C11433  10.615   1.184   6.311  0.1424  0.2854 -0.3697
  845MOL0     C11434  10.654   1.239   6.433  0.5530 -0.1496  0.9205
  845MOL0     C11435  10.788   1.279   6.465  0.8163 -0.0639  0.1081
  845MOL0     C11436  10.882   1.286   6.365 -0.2392  0.4247  0.8617
  845MOL0     C11437  11.013   1.340   6.398  0.3696 -0.3747 -0.1131
  845MOL0     O11438  11.047   1.337   6.530  0.5827  0.0416  0.6002
  845MOL0     C11439  11.175   1.377   6.576 -0.0159  0.0199  0.3453
  845MOL0     C11440  11.230   1.504   6.540 -0.5165 -0.7480  0.1936
  845MOL0     C11441  11.362   1.527   6.579  0.0216  0.9195 -0.1683
  845MOL0     C11442  11.433   1.446   6.675  0.5359  0.5771 -0.7937
  845MOL0     O11443  11.552   1.488   6.743  0.0128  0.4626 -0.0913
  845MOL0     C11444  11.665   1.498   6.654  0.4908 -0.0600  0.1671
  845MOL0     C11445  11.800   1.491   6.732 -0.0649  0.5462 -0.5168
  845MOL0     C11446  11.810   1.611   6.818  0.0470 -0.0196  0.6499
  845MOL0     C11447  11.935   1.602   6.912 -0.5589  0.2108 -0.2897
  845MOL0     C11448  12.075   1.596   6.850 -0.2629  0.4233 -0.1118
  845MOL0     C11449  12.101   1.714   6.745 -0.3033  0.8646  1.0397
  845MOL0     C11450  12.241   1.722   6.682  0.0585  0.8901 -0.0573
  845MOL0     C11451  12.251   1.631   6.549 -0.9809  0.0424  0.3822
  845MOL0    Cl11452  12.129   1.690   6.420  0.4168 -0.4432  0.5681
  845MOL0     C11453  11.362   1.332   6.715  0.2133 -0.3433  0.4984
  845MOL0     C11454  11.240   1.289   6.659  0.2787 -0.4850 -1.0694
  845MOL0     O11455  11.089   1.378   6.311 -0.2490 -0.0739 -0.0467
  845MOL0     C11456  10.842   1.228   6.235 -0.4798 -0.3554 -0.4771
  845MOL0     C11457  10.713   1.176   6.210 -0.1999  0.7231  0.1202
  845MOL0     N11458   9.987   1.349   6.629  0.1263  0.0507  0.6644
  845MOL0     N11459   9.867   1.366   6.669  1.4691 -0.2992  0.2103
  845MOL0     C11460   8.698   0.797   7.182  0.1500 -0.1986  0.1946
  845MOL0     C11461   8.677   0.850   7.311  0.3036  0.5567 -0.1851
  845MOL0     C11462   8.801   1.018   7.743  0.4797  0.6955  0.1617
  845MOL0     C11463   8.668   1.000   7.785  1.0288 -0.4076  0.4551
  845MOL0     C11464   8.626   1.032   7.913  0.9320  0.6935 -0.1637
  845MOL0     C11465   8.717   1.095   7.995 -0.6909 -0.6371 -0.0111
  845MOL0     O11466   8.688   1.118   8.127  0.1184 -0.1345  0.6725
  845MOL0     C11467   8.641   0.996   8.203  0.4664 -0.3766 -0.5025
  845MOL0     C11468   8.746   0.881   8.210 -0.1809 -0.7396  0.1573
  845MOL0     C11469   8.757   0.778   8.089  0.1450  0.6058  0.2334
  845MOL0     C11470   8.899   0.704   8.082 -0.1699  0.4212  0.6443
  845MOL0     C11471   9.009   0.794   8.041  0.3836 -0.2848  0.5959
  845MOL0     C11472   9.102   0.869   8.025  0.0447 -1.1011 -0.1259
  845MOL0     C11473   8.847   1.127   7.959 -0.4873  0.3522 -0.2027
  845MOL0     C11474   8.887   1.089   7.827  0.2215 -0.5460 -0.8518
  845MOL0     H11475   8.992   0.808   7.430 -0.1115  3.8105 -0.9074
  845MOL0     H11476   9.022   0.698   7.224 -1.6313 -1.5978  0.8152
  845MOL0     H11477   8.985   0.632   6.867  2.6067 -2.0826  0.3193
  845MOL0     H11478   9.043   0.627   7.021 -2.0052 -2.0934 -0.7526
  845MOL0     H11479   9.001   0.887   7.021 -0.6897  1.2568 -0.7282
  845MOL0     H11480   8.982   0.856   6.845 -2.3642 -2.9491  0.9510
  845MOL0     H11481   9.220   0.763   6.842 -1.3796  0.3088 -0.9994
  845MOL0     H11482   9.234   0.821   7.014 -1.8858 -3.7969  0.6477
  845MOL0     H11483   9.196   0.990   6.764  1.0595 -1.4685 -1.1841
  845MOL0     H11484   9.172   1.055   6.926  0.9096  1.1551 -1.1791
  845MOL0     H11485   9.425   0.909   6.835 -2.4236 -0.8012 -0.9911
  845MOL0     H11486   9.404   1.005   6.978  3.1286 -0.3799 -1.0568
  845MOL0     H11487   9.403   1.212   6.835  1.7839  0.9642 -0.5257
  845MOL0     H11488   9.389   1.123   6.688 -2.6536  1.2665  1.3317
  845MOL0     H11489   9.643   1.113   6.869 -0.3198  1.4482  0.3292
  845MOL0     H11490   9.620   1.025   6.728 -0.3992 -1.6897  2.4024
  845MOL0     H11491   9.616   1.332   6.764  1.5844  0.3857  0.6629
  845MOL0     H11492   9.608   1.271   6.608 -1.0833  1.4726  1.9685
  845MOL0     H11493   9.880   1.040   6.636 -0.8436  0.3414 -3.6479
  845MOL0     H11494  10.140   1.082   6.646 -3.1386 -0.2846  0.3644
  845MOL0     H11495  10.207   1.230   6.579 -1.4923  1.8318 -0.6415
  845MOL0     H11496  10.110   1.206   6.358  1.9292 -0.6411 -2.1231
  845MOL0     H11497  10.054   1.046   6.376  0.4249  0.1432 -0.5568
  845MOL0     H11498  10.302   0.990   6.454  0.3548 -1.6975 -2.6780
  845MOL0     H11499  10.271   1.019   6.281 -0.4825 -1.3911  0.2151
  845MOL0     H11500  10.398   1.191   6.489  3.5796 -1.4444  0.3229
  845MOL0     H11501  10.337   1.277   6.353 -1.3257 -0.4366  2.3630
  845MOL0     H11502  10.572   1.264   6.500 -0.4771  0.4576 -0.5163
  845MOL0     H11503  10.795   1.321   6.565 -2.6275  1.2643 -0.0619
  845MOL0     H11504  11.174   1.572   6.476 -3.2174 -1.6822  1.4280
  845MOL0     H11505  11.426   1.610   6.550 -1.0190  2.1862  1.0559
  845MOL0     H11506  11.653   1.595   6.605 -1.3469 -1.5760 -2.6443
  845MOL0     H11507  11.662   1.421   6.576  1.7100  1.2172 -1.1913
  845MOL0     H11508  11.882   1.500   6.661 -1.8547  3.4344 -2.4052
  845MOL0     H11509  11.812   1.399   6.791  1.6998 -0.1563 -1.8936
  845MOL0     H11510  11.719   1.635   6.875 -0.9321  2.7017 -1.8025
  845MOL0     H11511  11.819   1.694   6.748  4.6442 -0.6599  0.1418
  845MOL0     H11512  11.934   1.684   6.986 -0.5021 -0.7931  0.8576
  845MOL0     H11513  11.924   1.508   6.966  1.3115 -0.8213 -1.6257
  845MOL0     H11514  12.082   1.497   6.802  3.3962  0.1945  0.6222
  845MOL0     H11515  12.150   1.608   6.929 -2.2168  2.0047  1.5826
  845MOL0     H11516  12.076   1.813   6.785 -0.9635  1.0106  0.3017
  845MOL0     H11517  12.029   1.694   6.665  1.3156 -4.3042  0.5057
  845MOL0     H11518  12.274   1.825   6.668 -1.9647  1.6097  0.0835
  845MOL0     H11519  12.306   1.672   6.755 -1.0915 -0.2903  0.2008
  845MOL0     H11520  12.227   1.525   6.565  0.9982 -0.5789 -0.5089
  845MOL0     H11521  12.352   1.628   6.507 -0.5149  0.6549  1.4469
  845MOL0     H11522  11.421   1.275   6.786 -1.3530  0.4502  2.5493
  845MOL0     H11523  11.198   1.194   6.693 -0.8393  0.4025  0.1445
  845MOL0     H11524  10.914   1.206   6.157 -0.4549  0.1325 -0.5975
  845MOL0     H11525  10.676   1.130   6.118  0.3674  1.1218 -0.3134
  845MOL0     H11526   8.613   0.799   7.114 -0.6976  2.1396  1.2352
  845MOL0     H11527   8.587   0.899   7.345 -1.4155 -1.6391 -1.2893
  845MOL0     H11528   8.602   0.941   7.723  0.3918  2.3529 -1.7088
  845MOL0     H11529   8.525   1.010   7.944  0.9946 -0.6201 -0.8187
  845MOL0     H11530   8.551   0.950   8.160 -0.2247 -0.2230  0.7219
  845MOL0     H11531   8.620   1.032   8.304 -0.4735 -2.2415  0.0238
  845MOL0     H11532   8.838   0.934   8.236 -0.6490  0.6914 -0.9980
  845MOL0     H11533   8.723   0.822   8.299 -0.2990  1.3162  1.5658
  845MOL0     H11534   8.737   0.823   7.991 -1.9822 -2.0212 -0.6579
  845MOL0     H11535   8.679   0.702   8.099  0.4264  0.0646 -1.4822
  845MOL0     H11536   8.916   0.672   8.185 -1.9029 -1.8640  0.3066
  845MOL0     H11537   8.896   0.617   8.017 -1.4750  1.1237 -0.2873
  845MOL0     H11538   9.186   0.931   7.999 -0.1558 -0.6048  0.3831
  845MOL0     H11539   8.914   1.185   8.022  0.4168  1.3312 -1.9920
  845MOL0     H11540   8.990   1.114   7.806 -0.0301 -0.4934 -2.1134
  846MOL0     O11541   9.644   4.954   9.300 -0.6264  0.0563 -0.1307
  846MOL0     C11542   9.560   5.043   9.332  0.2261  0.5917 -0.0021
  846MOL0     O11543   9.426   5.025   9.331 -0.6838 -0.2523 -0.6650
  846MOL0     C11544   9.377   4.902   9.299  1.1111 -0.2988 -1.9299
  846MOL0     C11545   9.263   4.847   9.376 -0.2772  0.1261  0.8321
  846MOL0     C11546   9.211   4.724   9.328 -0.9521 -0.2468  0.0478
  846MOL0     C11547   9.254   4.665   9.212  0.6933  0.7670  0.4393
  846MOL0     O11548   9.187   4.542   9.192 -0.2585  0.0429 -0.1548
  846MOL0     C11549   9.212   4.468   9.077 -0.8277  0.0835  0.2480
  846MOL0     C11550   9.089   4.381   9.038 -0.3910 -0.2044 -1.5355
  846MOL0     C11551   9.108   4.293   8.914 -0.2607 -0.4796  0.5008
  846MOL0     C11552   8.987   4.189   8.900 -0.4161 -0.8762  0.3466
  846MOL0     C11553   8.972   4.147   8.751  0.6627 -0.5353  0.3145
  846MOL0     C11554   8.848   4.200   8.688  0.2661  0.0074  0.3456
  846MOL0     C11555   8.810   4.173   8.536 -0.0439 -0.2654 -1.3966
  846MOL0     C11556   8.945   4.176   8.453  0.5896  0.9020 -0.8846
  846MOL0     N11557   8.921   4.146   8.315 -0.7416  0.7171 -0.0317
  846MOL0     C11558   9.023   4.112   8.230  0.4280 -0.5730  0.5693
  846MOL0     C11559   8.953   4.075   8.116  0.4824 -0.1485 -0.6932
  846MOL0     C11560   9.009   4.019   7.991  0.5557 -0.6701  0.4201
  846MOL0     C11561   9.083   4.130   7.931  0.0733 -0.3363  1.5834
  846MOL0     C11562   9.098   4.104   7.781 -0.2872  0.9247  0.4445
  846MOL0     C11563   9.161   4.220   7.708  0.4287  0.5253 -0.6670
  846MOL0     O11564   9.060   4.324   7.705 -0.5788 -0.4563  0.5272
  846MOL0     C11565   9.091   4.450   7.660  0.6408  0.3079  0.1113
  846MOL0     C11566   9.223   4.502   7.661  0.0685 -0.2883 -0.4597
  846MOL0     C11567   9.242   4.634   7.622  0.4780 -0.9051 -0.4406
  846MOL0     C11568   9.138   4.714   7.575 -0.5023 -0.4196 -0.1395
  846MOL0     C11569   9.165   4.857   7.520  0.4315  0.3396  0.4034
  846MOL0     O11570   9.061   4.951   7.528  0.7045  0.6014 -0.4251
  846MOL0     C11571   9.097   5.074   7.486  0.3663 -0.3468  0.2757
  846MOL0     C11572   9.163   5.165   7.568  0.0733  0.1288  0.4354
  846MOL0     C11573   9.217   5.286   7.520  0.2021 -0.8929 -0.5738
  846MOL0     C11574   9.181   5.328   7.388 -0.4658 -0.9020 -0.4080
  846MOL0     O11575   9.234   5.448   7.335  0.2216 -0.1938 -0.2823
  846MOL0     C11576   9.282   5.543   7.431 -0.1749 -0.9253 -0.8707
  846MOL0     C11577   9.178   5.606   7.518  0.1065 -0.0405  0.0681
  846MOL0     C11578   9.068   5.685   7.442 -0.5017 -0.4955  0.3031
  846MOL0     C11579   8.944   5.609   7.410 -0.6091  0.0210  0.4694
  846MOL0     C11580   8.821   5.698   7.373 -0.5916  1.0860 -0.5804
  846MOL0     C11581   8.718   5.608   7.292 -0.4184 -1.0303  0.1541
  846MOL0     C11582   8.577   5.677   7.277 -0.3710 -0.8760 -0.1676
  846MOL0     C11583   8.498   5.634   7.159  0.0598  0.3376 -0.4008
  846MOL0    Cl11584   8.450   5.459   7.190  0.0518 -0.7512  0.7252
  846MOL0     C11585   9.119   5.238   7.309  1.1015  0.0084  1.0111
  846MOL0     C11586   9.076   5.118   7.356 -0.4572  0.7887  0.4647
  846MOL0     O11587   9.277   4.872   7.468  0.3660 -0.1643 -0.1262
  846MOL0     C11588   9.008   4.662   7.574  1.2479 -0.2846  0.0181
  846MOL0     C11589   8.985   4.529   7.608  0.4746  0.3182  0.1407
  846MOL0     N11590   8.818   4.078   8.143 -0.1546  0.3840 -0.7549
  846MOL0     N11591   8.795   4.121   8.256  0.3744 -0.0910 -0.8554
  846MOL0     C11592   9.357   4.716   9.132 -0.3213  0.0710  0.6281
  846MOL0     C11593   9.419   4.838   9.177 -0.8205  0.2515 -0.8763
  846MOL0     C11594   9.609   5.178   9.364 -0.5499  0.7278 -0.5522
  846MOL0     C11595   9.749   5.208   9.380  0.2036 -0.6473  0.2677
  846MOL0     C11596   9.787   5.333   9.420 -0.0057  0.1306 -0.6039
  846MOL0     C11597   9.691   5.429   9.441 -0.5256 -1.0500  0.1018
  846MOL0     O11598   9.717   5.561   9.488 -0.0814  0.5001  0.4165
  846MOL0     C11599   9.825   5.586   9.581 -0.1898  0.1062  0.4025
  846MOL0     C11600   9.774   5.544   9.721 -0.9744  0.8377  0.1225
  846MOL0     C11601   9.882   5.561   9.830 -0.1074  0.2520  0.0612
  846MOL0     C11602   9.888   5.711   9.865 -0.1507  0.4261 -0.5871
  846MOL0     C11603  10.016   5.729   9.937 -0.9153 -0.9592 -0.4114
  846MOL0     C11604  10.120   5.769   9.996  0.0374  0.3154 -0.8839
  846MOL0     C11605   9.558   5.403   9.429  0.7881 -0.7652  0.1023
  846MOL0     C11606   9.516   5.281   9.386  0.2038  0.5041 -0.2691
  846MOL0     H11607   9.230   4.878   9.475 -1.9635 -3.6256  1.5985
  846MOL0     H11608   9.138   4.671   9.387 -2.1028 -1.0212 -1.9766
  846MOL0     H11609   9.308   4.421   9.100 -0.3723  1.9892  2.7367
  846MOL0     H11610   9.228   4.524   8.985  1.0577 -1.0447 -0.1649
  846MOL0     H11611   9.008   4.452   9.016  0.3597  0.8038 -1.1163
  846MOL0     H11612   9.069   4.322   9.128 -0.9157 -2.2890 -2.9339
  846MOL0     H11613   9.204   4.240   8.916  1.7554  2.6567 -2.5150
  846MOL0     H11614   9.119   4.351   8.822 -1.1051 -3.4031 -1.6147
  846MOL0     H11615   9.015   4.100   8.958 -0.9611 -0.5709  1.0865
  846MOL0     H11616   8.899   4.230   8.950  1.7125  2.2707  1.8584
  846MOL0     H11617   8.962   4.038   8.743 -1.8515 -0.3189 -0.4162
  846MOL0     H11618   9.065   4.175   8.700  0.8056 -0.6857  0.4906
  846MOL0     H11619   8.869   4.307   8.686  1.9685 -0.2912 -0.3560
  846MOL0     H11620   8.761   4.174   8.748 -0.9095  1.9520 -0.4280
  846MOL0     H11621   8.767   4.072   8.530  0.0308 -0.7096  2.6176
  846MOL0     H11622   8.734   4.243   8.499  1.8669  2.1278 -1.0398
  846MOL0     H11623   9.006   4.095   8.494 -3.4865 -2.1109 -0.1650
  846MOL0     H11624   8.975   4.281   8.461 -1.4398  1.4186  0.6634
  846MOL0     H11625   9.131   4.120   8.234  0.3600 -0.1652  2.5694
  846MOL0     H11626   8.924   3.994   7.927 -0.1118  0.8277  0.6741
  846MOL0     H11627   9.072   3.930   7.997 -1.3049 -2.2602 -1.8499
  846MOL0     H11628   9.184   4.143   7.971  1.1987 -3.0830 -0.0529
  846MOL0     H11629   9.018   4.218   7.937  2.4098  1.5126  1.1730
  846MOL0     H11630   9.161   4.016   7.766  0.3358  1.7081 -1.9294
  846MOL0     H11631   9.003   4.092   7.727  1.1035  0.7165 -2.1203
  846MOL0     H11632   9.195   4.184   7.610  0.4353 -1.6533  0.0857
  846MOL0     H11633   9.252   4.245   7.763  1.8001 -2.5501 -1.2848
  846MOL0     H11634   9.305   4.446   7.704  1.2300  1.3400 -0.4436
  846MOL0     H11635   9.339   4.682   7.619 -0.7369  1.8743  0.9835
  846MOL0     H11636   9.164   5.152   7.676  1.6114 -3.4898  0.1249
  846MOL0     H11637   9.258   5.352   7.596  0.8768 -2.0548  0.1004
  846MOL0     H11638   9.333   5.621   7.374 -0.5171  0.9303  1.2572
  846MOL0     H11639   9.367   5.511   7.491  2.7297  2.2536 -2.9504
  846MOL0     H11640   9.224   5.679   7.586 -1.4184 -0.2931  1.4488
  846MOL0     H11641   9.136   5.535   7.590 -1.4023  0.6334 -0.0892
  846MOL0     H11642   9.111   5.712   7.346 -2.1272  1.7270  0.1179
  846MOL0     H11643   9.061   5.775   7.505  3.1129 -0.3393  0.7060
  846MOL0     H11644   8.964   5.536   7.331 -0.7752  3.1017 -2.6514
  846MOL0     H11645   8.918   5.540   7.491  3.8311 -2.1104  0.4157
  846MOL0     H11646   8.857   5.781   7.311 -0.3939  0.3978 -1.3966
  846MOL0     H11647   8.784   5.735   7.469  3.5781  2.2196  0.8246
  846MOL0     H11648   8.716   5.509   7.338  2.3074 -1.5020 -0.5612
  846MOL0     H11649   8.764   5.598   7.193  1.3725  1.3067  0.6353
  846MOL0     H11650   8.520   5.666   7.370  1.5154 -2.7038  0.8795
  846MOL0     H11651   8.611   5.779   7.256  0.7896 -1.4045 -0.9323
  846MOL0     H11652   8.553   5.630   7.065 -0.0028 -2.6533 -0.3988
  846MOL0     H11653   8.411   5.699   7.148  0.4111  1.1544  1.3338
  846MOL0     H11654   9.096   5.270   7.207 -1.2956 -0.9662  1.1992
  846MOL0     H11655   9.013   5.060   7.288 -0.1298  3.1891 -2.0531
  846MOL0     H11656   8.921   4.721   7.546 -0.4362 -2.4047  0.5161
  846MOL0     H11657   8.889   4.480   7.610  1.1713 -1.3254 -2.1988
  846MOL0     H11658   9.373   4.678   9.031 -0.6195  1.4270  0.0410
  846MOL0     H11659   9.485   4.897   9.115 -1.6419  2.2347  0.0545
  846MOL0     H11660   9.824   5.139   9.341 -0.5318 -1.6228  0.5352
  846MOL0     H11661   9.886   5.374   9.437  0.8378 -1.7915 -0.7321
  846MOL0     H11662   9.845   5.693   9.573  0.0209  0.0035 -0.5363
  846MOL0     H11663   9.921   5.537   9.563  0.6496  1.3884  1.2305
  846MOL0     H11664   9.688   5.601   9.756  0.6426  3.0004  0.7597
  846MOL0     H11665   9.749   5.437   9.719 -0.8797  0.7694  1.5477
  846MOL0     H11666   9.979   5.530   9.790  0.7175  0.3142  1.9021
  846MOL0     H11667   9.852   5.506   9.919 -1.6180  0.8627 -0.0326
  846MOL0     H11668   9.887   5.782   9.782  1.0647  1.7191  0.4571
  846MOL0     H11669   9.806   5.739   9.932 -0.0465  1.6640 -0.9567
  846MOL0     H11670  10.207   5.806  10.046 -1.7870  1.2539  1.8333
  846MOL0     H11671   9.486   5.484   9.427  1.1038 -0.3581 -3.8681
  846MOL0     H11672   9.410   5.264   9.395  0.7340 -2.1284  3.2508
  847MOL0     O11673   2.463  10.788   9.707  0.2979 -0.1450  0.4884
  847MOL0     C11674   2.354  10.735   9.730 -0.8495 -0.2573 -0.3646
  847MOL0     O11675   2.295  10.730   9.857  0.0581  0.0161  0.1728
  847MOL0     C11676   2.342  10.797   9.964  0.4298  1.6415  0.5279
  847MOL0     C11677   2.471  10.807  10.008 -0.3691  0.4047  0.3772
  847MOL0     C11678   2.488  10.820  10.145  0.6795 -0.2550  0.2022
  847MOL0     C11679   2.380  10.840  10.236 -0.2195  0.1082  0.1294
  847MOL0     O11680   2.398  10.859  10.362 -0.2206  0.2855  0.1374
  847MOL0     C11681   2.358  10.761  10.462  0.5635  0.4958  0.5711
  847MOL0     C11682   2.464  10.758  10.571  0.1847  0.9592 -0.2305
  847MOL0     C11683   2.404  10.704  10.705 -0.1351  0.4911 -0.2172
  847MOL0     C11684   2.512  10.694  10.818 -0.3950  0.0533  0.5002
  847MOL0     C11685   2.459  10.652  10.953 -0.2881  0.5134 -0.4399
  847MOL0     C11686   2.566  10.633  11.066  0.0027 -0.5214 -0.0164
  847MOL0     C11687   2.529  10.576  11.207 -1.1793 -0.5742  0.7975
  847MOL0     C11688   2.389  10.581  11.229  0.5772  0.1167 -0.0461
  847MOL0     N11689   2.336  10.555  11.362  0.6144  0.0337  0.0780
  847MOL0     C11690   2.372  10.452  11.450  0.5182  0.0432 -0.1660
  847MOL0     C11691   2.288  10.465  11.559  0.2977 -0.1035  0.3071
  847MOL0     C11692   2.289  10.385  11.681 -0.6012  0.3968 -0.1959
  847MOL0     C11693   2.247  10.443  11.817  0.3658  0.0281  0.8271
  847MOL0     C11694   2.324  10.561  11.852 -0.2537  0.5917 -0.6497
  847MOL0     C11695   2.264  10.650  11.966  0.5096 -0.5908  0.2519
  847MOL0     O11696   2.334  10.774  11.993 -0.1161  0.1123  0.3245
  847MOL0     C11697   2.450  10.764  12.068 -0.3367 -0.4035 -0.0776
  847MOL0     C11698   2.449  10.725  12.203 -0.3747 -0.0727  0.2296
  847MOL0     C11699   2.566  10.748  12.282 -1.2774 -0.7558 -0.0178
  847MOL0     C11700   2.680  10.805  12.224 -1.0117 -0.6788 -0.6710
  847MOL0     C11701   2.802  10.825  12.310  0.6210  0.0720 -1.1924
  847MOL0     O11702   2.814  10.740  12.420 -0.3380  0.1513 -0.0019
  847MOL0     C11703   2.874  10.780  12.542 -0.6122  0.2320 -0.8123
  847MOL0     C11704   2.909  10.912  12.581  0.1376  0.4944  0.8874
  847MOL0     C11705   2.971  10.938  12.702  0.7270  0.6565  0.1362
  847MOL0     C11706   3.003  10.842  12.789 -0.1779  0.1786  0.0853
  847MOL0     O11707   3.069  10.882  12.908  0.2494 -0.5686 -0.5087
  847MOL0     C11708   3.175  10.796  12.946  0.2001 -0.7576  0.0571
  847MOL0     C11709   3.280  10.881  13.009 -0.4463  0.1435  0.1702
  847MOL0     C11710   3.404  10.790  13.044  1.0568 -0.0753 -0.1391
  847MOL0     C11711   3.515  10.895  13.081 -0.6674 -0.5510  0.2389
  847MOL0     C11712   3.635  10.842  13.162  0.6772  0.1232 -0.7365
  847MOL0     C11713   3.680  10.696  13.112 -0.2851  0.0751  0.5206
  847MOL0     C11714   3.803  10.641  13.168  0.3489 -0.1097  0.3200
  847MOL0     C11715   3.851  10.518  13.090  0.9825 -0.3542  0.5327
  847MOL0    Cl11716   4.022  10.479  13.120 -0.2923  0.1011 -0.3332
  847MOL0     C11717   2.963  10.716  12.766  0.0960 -0.0437  0.1252
  847MOL0     C11718   2.898  10.686  12.643  0.1300  0.2317 -0.2954
  847MOL0     O11719   2.893  10.900  12.275 -0.2991 -0.0664  0.5800
  847MOL0     C11720   2.680  10.832  12.084 -0.3634  0.5153  0.7806
  847MOL0     C11721   2.564  10.816  12.013 -0.0182 -0.4277 -0.5136
  847MOL0     N11722   2.201  10.570  11.539 -0.3394  0.2882 -0.7213
  847MOL0     N11723   2.227  10.624  11.425  0.8292  0.0329  0.1791
  847MOL0     C11724   2.254  10.855  10.187  0.7440 -0.0226  0.0042
  847MOL0     C11725   2.233  10.826  10.053 -0.2923  0.4825  0.4637
  847MOL0     C11726   2.262  10.702   9.626  0.6988  0.5531 -0.5469
  847MOL0     C11727   2.305  10.687   9.490  0.3781 -0.4798 -0.3606
  847MOL0     C11728   2.213  10.648   9.390  0.0361  0.2578  0.6105
  847MOL0     C11729   2.087  10.608   9.418  0.2429 -0.4520 -0.3928
  847MOL0     O11730   1.999  10.579   9.316  0.6282 -0.4029  0.1866
  847MOL0     C11731   1.866  10.644   9.333  0.2662 -0.1022  0.0251
  847MOL0     C11732   1.802  10.644   9.198 -0.2791  0.3535  0.3089
  847MOL0     C11733   1.721  10.519   9.168  0.5038  0.5745 -0.5633
  847MOL0     C11734   1.589  10.489   9.261  0.0542 -0.5664  0.2615
  847MOL0     C11735   1.549  10.350   9.238  0.2873 -0.6063 -0.2437
  847MOL0     C11736   1.527  10.233   9.235  0.6447  0.4372 -0.3957
  847MOL0     C11737   2.051  10.592   9.556  0.4558 -0.2469 -0.1935
  847MOL0     C11738   2.137  10.646   9.659 -0.3796  0.7345 -0.9381
  847MOL0     H11739   2.561  10.780   9.954 -0.9100 -0.8450  0.0626
  847MOL0     H11740   2.587  10.816  10.191  0.0801  0.2725  1.6202
  847MOL0     H11741   2.360  10.656  10.434  1.3039  0.8769 -0.9094
  847MOL0     H11742   2.262  10.798  10.500 -1.4669 -0.7689 -2.8003
  847MOL0     H11743   2.509  10.857  10.587  4.0948  0.1337 -4.0368
  847MOL0     H11744   2.548  10.700  10.531 -0.0776  0.2769  0.2039
  847MOL0     H11745   2.360  10.609  10.674 -0.4462 -0.1102  1.8975
  847MOL0     H11746   2.321  10.769  10.736  0.9328  1.7493  0.0819
  847MOL0     H11747   2.602  10.638  10.793  0.7002  1.5841  0.8972
  847MOL0     H11748   2.560  10.792  10.823 -1.5015  0.8262 -2.3591
  847MOL0     H11749   2.396  10.563  10.957  1.2349 -0.5562  2.3540
  847MOL0     H11750   2.388  10.730  10.982 -1.6037 -1.0200  0.6280
  847MOL0     H11751   2.621  10.727  11.068  1.6273 -1.4246 -0.2350
  847MOL0     H11752   2.641  10.559  11.036 -1.7232 -2.8485  1.1541
  847MOL0     H11753   2.578  10.482  11.236  1.2179  0.0688 -0.8559
  847MOL0     H11754   2.574  10.652  11.273  3.6294 -1.0377 -1.5346
  847MOL0     H11755   2.341  10.504  11.168  1.2008  0.9632 -1.6748
  847MOL0     H11756   2.349  10.676  11.191 -2.1672 -2.2485 -3.8994
  847MOL0     H11757   2.455  10.386  11.431  0.5010 -0.5487  1.6734
  847MOL0     H11758   2.376  10.320  11.698 -2.2343 -1.8595 -0.0610
  847MOL0     H11759   2.219  10.303  11.663  0.2814 -0.1111 -1.5144
  847MOL0     H11760   2.239  10.363  11.892 -1.4920  0.7203  1.4246
  847MOL0     H11761   2.139  10.460  11.815 -0.1009 -2.2470 -3.1136
  847MOL0     H11762   2.427  10.532  11.872 -0.4236 -0.1252 -0.7760
  847MOL0     H11763   2.338  10.621  11.762 -1.2563 -0.6225 -1.6554
  847MOL0     H11764   2.253  10.587  12.055 -0.0039 -0.7437  0.0820
  847MOL0     H11765   2.161  10.670  11.934  1.5343  1.4805 -2.0877
  847MOL0     H11766   2.361  10.683  12.251 -1.8785 -0.1050 -2.3672
  847MOL0     H11767   2.578  10.739  12.389  4.5321  2.5629  0.0183
  847MOL0     H11768   2.886  10.992  12.511  0.1945  2.0327  2.5777
  847MOL0     H11769   3.000  11.037  12.736  2.7441 -0.3540  1.5934
  847MOL0     H11770   3.216  10.738  12.862  1.0056  0.7348 -0.6101
  847MOL0     H11771   3.134  10.731  13.025 -1.8250 -0.2545 -0.5385
  847MOL0     H11772   3.243  10.912  13.108  2.3373 -1.8994  2.0115
  847MOL0     H11773   3.308  10.967  12.948  1.9496 -0.4253  0.3574
  847MOL0     H11774   3.432  10.736  12.953 -1.1059 -2.6047  0.5921
  847MOL0     H11775   3.390  10.712  13.119  1.0032  0.5990  0.5607
  847MOL0     H11776   3.555  10.932  12.986  1.0782  1.0449  1.5316
  847MOL0     H11777   3.467  10.981  13.128  1.7543  1.9978 -1.6616
  847MOL0     H11778   3.597  10.832  13.264  0.1460  1.1003 -0.8253
  847MOL0     H11779   3.716  10.916  13.163 -2.0533  3.4930  2.2072
  847MOL0     H11780   3.700  10.706  13.004  1.7973  1.7935  0.9877
  847MOL0     H11781   3.604  10.619  13.127 -1.1768  0.6418 -0.8306
  847MOL0     H11782   3.886  10.712  13.169 -1.2263  1.8103  1.5232
  847MOL0     H11783   3.779  10.608  13.270  0.3575 -3.4961 -0.6544
  847MOL0     H11784   3.836  10.529  12.982 -0.8954 -2.7107  0.4740
  847MOL0     H11785   3.788  10.432  13.113  1.8177 -0.4549  2.6426
  847MOL0     H11786   2.971  10.626  12.826 -2.6270 -0.9071 -0.6249
  847MOL0     H11787   2.863  10.588  12.613  0.6079 -0.2073  0.5437
  847MOL0     H11788   2.768  10.862  12.028  0.6465 -3.2267  0.0788
  847MOL0     H11789   2.561  10.838  11.907 -1.5221 -0.4696 -0.5005
  847MOL0     H11790   2.175  10.890  10.253  0.3207  0.6824 -0.8542
  847MOL0     H11791   2.131  10.818  10.016 -0.0037 -0.8463 -0.1040
  847MOL0     H11792   2.410  10.704   9.471  0.7685 -0.8952  1.2595
  847MOL0     H11793   2.234  10.643   9.283  0.4418 -2.9565  0.7257
  847MOL0     H11794   1.886  10.743   9.372 -2.1885  0.2058  0.6434
  847MOL0     H11795   1.812  10.583   9.405  0.5336 -1.4935 -0.8979
  847MOL0     H11796   1.741  10.735   9.186  0.2351  0.4055 -2.7553
  847MOL0     H11797   1.879  10.664   9.123  0.2754 -1.5191  0.3356
  847MOL0     H11798   1.787  10.435   9.191  0.8852  1.2319  0.8729
  847MOL0     H11799   1.703  10.524   9.060 -1.1896  0.7024 -0.3011
  847MOL0     H11800   1.597  10.507   9.369 -0.7786  0.5347  0.1653
  847MOL0     H11801   1.514  10.559   9.224 -0.8442 -1.9274 -0.5593
  847MOL0     H11802   1.523  10.126   9.235 -0.2027  0.4394  1.2744
  847MOL0     H11803   1.963  10.530   9.567 -0.2038  0.8629  0.9578
  847MOL0     H11804   2.109  10.629   9.762 -0.7360 -3.8024 -1.5873
  848MOL0     O11805   6.806   2.595   5.634 -0.4676 -0.4106  0.8726
  848MOL0     C11806   6.786   2.485   5.577  0.4222  0.5291  0.0122
  848MOL0     O11807   6.871   2.386   5.551  0.6812  0.6918 -0.2779
  848MOL0     C11808   7.005   2.400   5.584  0.9111 -0.4384 -0.1642
  848MOL0     C11809   7.057   2.418   5.711 -0.1962  0.1977 -0.4514
  848MOL0     C11810   7.195   2.390   5.730  0.2272 -1.0391 -0.6803
  848MOL0     C11811   7.281   2.376   5.621  0.3285  0.1874 -0.6091
  848MOL0     O11812   7.412   2.375   5.659  0.1349 -0.3778 -0.3692
  848MOL0     C11813   7.519   2.318   5.583  0.7236  0.8478 -0.0158
  848MOL0     C11814   7.616   2.436   5.550  0.3373  0.2370  0.2560
  848MOL0     C11815   7.742   2.412   5.465 -0.8400 -0.3578  0.7228
  848MOL0     C11816   7.715   2.346   5.327  0.3045  0.3084 -1.2129
  848MOL0     C11817   7.824   2.336   5.219 -0.3111  0.1461 -0.1054
  848MOL0     C11818   7.955   2.277   5.271  0.4032 -0.5643  0.0447
  848MOL0     C11819   8.078   2.277   5.181 -0.5462  0.5560  0.2632
  848MOL0     C11820   8.095   2.145   5.115 -0.8220  0.0717 -0.1974
  848MOL0     N11821   8.193   2.147   5.006  0.1420 -0.0566  0.5378
  848MOL0     C11822   8.316   2.208   4.997  0.4664  0.1143 -0.3609
  848MOL0     C11823   8.363   2.180   4.871 -0.7455 -0.2144  0.5469
  848MOL0     C11824   8.490   2.242   4.815 -0.4423 -0.6270 -0.6405
  848MOL0     C11825   8.606   2.251   4.911 -0.6012 -0.7133  0.0947
  848MOL0     C11826   8.724   2.335   4.851  0.7514 -0.2869 -0.5034
  848MOL0     C11827   8.839   2.350   4.956  0.1741 -0.3706 -0.5210
  848MOL0     O11828   8.951   2.435   4.917 -0.0122  0.2676 -0.5540
  848MOL0     C11829   9.060   2.418   5.003 -0.0518 -0.2571 -0.0727
  848MOL0     C11830   9.092   2.511   5.092  0.4940 -0.0973 -0.1562
  848MOL0     C11831   9.212   2.515   5.163  0.0146 -0.5613 -0.0147
  848MOL0     C11832   9.294   2.400   5.163  0.1108 -0.3488 -0.1081
  848MOL0     C11833   9.411   2.386   5.248  0.0631 -0.0397  0.4983
  848MOL0     O11834   9.417   2.448   5.370  0.4310  0.5177 -0.3404
  848MOL0     C11835   9.546   2.452   5.425 -0.4846 -0.4157 -0.2949
  848MOL0     C11836   9.615   2.567   5.396  0.1911  0.3264  0.1523
  848MOL0     C11837   9.743   2.580   5.441  0.2719 -0.0071 -0.6916
  848MOL0     C11838   9.810   2.472   5.504  0.8425  0.7758 -1.2264
  848MOL0     O11839   9.940   2.470   5.547  0.2098  0.0342  0.2170
  848MOL0     C11840  10.040   2.548   5.491  1.0195 -1.0864  1.0556
  848MOL0     C11841  10.149   2.528   5.593 -0.3903 -0.0054 -0.5087
  848MOL0     C11842  10.291   2.588   5.550  0.9472  0.7316 -0.9546
  848MOL0     C11843  10.316   2.740   5.579  0.0418  0.2596 -0.0395
  848MOL0     C11844  10.271   2.831   5.462  1.1289 -0.4501  0.3437
  848MOL0     C11845  10.334   2.807   5.324 -0.0962 -0.4484 -0.0209
  848MOL0     C11846  10.300   2.923   5.224  0.6104 -0.6651 -0.9111
  848MOL0     C11847  10.377   2.916   5.097 -0.1916  1.4710  0.1774
  848MOL0    Cl11848  10.371   2.755   5.023  0.0516 -0.0772  0.4479
  848MOL0     C11849   9.741   2.351   5.526 -0.4634  0.0727  0.1306
  848MOL0     C11850   9.605   2.346   5.490 -0.9338 -0.3745 -0.5905
  848MOL0     O11851   9.505   2.332   5.191 -0.3859 -0.5637 -0.0928
  848MOL0     C11852   9.254   2.301   5.064 -1.0692 -0.3232 -0.5798
  848MOL0     C11853   9.147   2.310   4.977  0.0269 -0.7430  0.3441
  848MOL0     N11854   8.279   2.099   4.810  1.2435 -0.2660  0.1368
  848MOL0     N11855   8.183   2.077   4.895 -0.2365  0.6939  0.3746
  848MOL0     C11856   7.227   2.359   5.497  1.1773  0.5427  0.7516
  848MOL0     C11857   7.090   2.363   5.475 -0.2991  0.1516 -0.0003
  848MOL0     C11858   6.645   2.466   5.531  0.2777 -0.3556  0.0424
  848MOL0     C11859   6.612   2.351   5.458  0.6489 -0.3869 -0.4180
  848MOL0     C11860   6.478   2.344   5.403  0.3370  0.6821  0.2777
  848MOL0     C11861   6.382   2.443   5.421  1.3184  0.5288 -0.7744
  848MOL0     O11862   6.251   2.412   5.381  0.0254  0.3189  0.1424
  848MOL0     C11863   6.162   2.514   5.357  0.2049 -1.0584  0.2009
  848MOL0     C11864   6.066   2.484   5.245  0.6504 -0.1870 -0.2753
  848MOL0     C11865   5.993   2.620   5.217  0.4414 -0.4381 -0.3139
  848MOL0     C11866   6.063   2.693   5.100 -0.4149  1.2367 -0.7755
  848MOL0     C11867   6.002   2.822   5.066 -0.5346 -0.9064  0.7307
  848MOL0     C11868   5.952   2.934   5.039 -0.3953  0.7049  1.0155
  848MOL0     C11869   6.416   2.547   5.509  1.1039  0.1772  0.2699
  848MOL0     C11870   6.546   2.560   5.554 -0.5544  0.7099  0.0002
  848MOL0     H11871   6.981   2.442   5.784  1.1145  0.2372  0.9535
  848MOL0     H11872   7.229   2.393   5.833 -3.3778 -1.3184  0.6744
  848MOL0     H11873   7.491   2.266   5.491  0.7681 -2.4767  1.7309
  848MOL0     H11874   7.573   2.249   5.647 -0.7866  0.4858  0.9300
  848MOL0     H11875   7.642   2.478   5.647  0.5305 -0.6029  0.5750
  848MOL0     H11876   7.543   2.506   5.507  0.2641 -1.1887 -2.1754
  848MOL0     H11877   7.818   2.350   5.513 -0.6348 -0.4849  0.2385
  848MOL0     H11878   7.791   2.509   5.457  0.0194 -0.9134 -1.0805
  848MOL0     H11879   7.690   2.241   5.348 -0.2558  1.2017  4.0004
  848MOL0     H11880   7.630   2.395   5.279 -1.3384 -0.9426  0.2798
  848MOL0     H11881   7.849   2.438   5.189  1.7698  0.1530  1.4548
  848MOL0     H11882   7.783   2.287   5.130  2.5403 -0.1222 -1.3584
  848MOL0     H11883   7.922   2.178   5.305  1.4952 -1.6729 -1.8944
  848MOL0     H11884   7.991   2.330   5.359  3.2734 -4.0549  1.2084
  848MOL0     H11885   8.075   2.364   5.115 -1.6553  1.1719  1.0907
  848MOL0     H11886   8.162   2.282   5.251 -1.6880 -1.9788  1.9930
  848MOL0     H11887   8.000   2.112   5.072 -0.0762  0.0170 -1.8827
  848MOL0     H11888   8.120   2.071   5.191  1.8281  1.7484  0.6861
  848MOL0     H11889   8.369   2.271   5.067 -0.0777 -0.2784  0.4155
  848MOL0     H11890   8.458   2.341   4.784 -0.5224  0.2240  1.9401
  848MOL0     H11891   8.516   2.189   4.723  0.2882  1.4847 -1.6954
  848MOL0     H11892   8.642   2.152   4.939  3.0388 -0.0378 -1.6007
  848MOL0     H11893   8.587   2.309   5.003  6.0935  2.0720  0.3485
  848MOL0     H11894   8.756   2.299   4.753 -0.7255 -2.5854 -0.2218
  848MOL0     H11895   8.686   2.436   4.833 -0.1549 -0.7445 -1.2587
  848MOL0     H11896   8.877   2.250   4.979  0.4075 -0.0173  0.6876
  848MOL0     H11897   8.792   2.385   5.048 -1.1350  1.5377 -1.8293
  848MOL0     H11898   9.036   2.604   5.094  1.1786  0.3274  2.3013
  848MOL0     H11899   9.224   2.599   5.229  0.5842 -0.1448 -0.6373
  848MOL0     H11900   9.556   2.638   5.339 -1.7535 -2.5430 -1.6573
  848MOL0     H11901   9.804   2.667   5.422 -1.5966  1.8821  1.3699
  848MOL0     H11902  10.014   2.653   5.508  1.5114 -0.2757 -2.4624
  848MOL0     H11903  10.061   2.522   5.387  0.0199 -0.3627  0.6565
  848MOL0     H11904  10.175   2.421   5.588  4.0308  0.7592  1.2523
  848MOL0     H11905  10.114   2.555   5.693  2.2035  2.1217 -0.0544
  848MOL0     H11906  10.320   2.559   5.449  3.2920  1.0801 -0.4373
  848MOL0     H11907  10.360   2.531   5.614 -1.0832 -0.0377  0.6963
  848MOL0     H11908  10.255   2.769   5.665  0.7050  0.2273  0.4421
  848MOL0     H11909  10.422   2.749   5.603  1.2272 -1.9683 -3.6164
  848MOL0     H11910  10.302   2.931   5.492  2.9295  0.1779 -3.0704
  848MOL0     H11911  10.162   2.830   5.452  1.2899  0.3466 -2.2833
  848MOL0     H11912  10.291   2.715   5.283 -1.9856 -0.0024  0.8488
  848MOL0     H11913  10.442   2.789   5.331 -0.3207 -2.4004 -0.7384
  848MOL0     H11914  10.192   2.923   5.207 -0.4168  1.0169  4.0316
  848MOL0     H11915  10.317   3.017   5.277 -1.9637 -0.4538 -0.3626
  848MOL0     H11916  10.481   2.933   5.128 -0.8364  3.6509  1.3866
  848MOL0     H11917  10.344   2.990   5.024  1.0828 -1.0553 -3.1988
  848MOL0     H11918   9.786   2.267   5.577 -1.3340  0.2596  1.2459
  848MOL0     H11919   9.550   2.253   5.499 -1.7636  0.2730  1.6470
  848MOL0     H11920   9.314   2.211   5.062  0.6809  0.7027  1.4323
  848MOL0     H11921   9.105   2.219   4.934 -0.8068 -0.7361  1.0976
  848MOL0     H11922   7.297   2.345   5.415  1.3725  1.9839  0.6428
  848MOL0     H11923   7.044   2.354   5.377 -1.2930  0.1856  0.4515
  848MOL0     H11924   6.679   2.268   5.435  0.0329 -0.3789 -2.4598
  848MOL0     H11925   6.458   2.262   5.334 -4.0309  2.5547 -1.0081
  848MOL0     H11926   6.215   2.607   5.334 -0.5660 -0.6721 -0.0794
  848MOL0     H11927   6.104   2.527   5.449  1.3345 -2.5198  1.1542
  848MOL0     H11928   6.116   2.468   5.150  1.7242  1.7514 -0.0986
  848MOL0     H11929   6.003   2.397   5.264  0.6395 -0.0690  0.2504
  848MOL0     H11930   5.993   2.681   5.308  0.8997  0.8158 -1.1280
  848MOL0     H11931   5.890   2.595   5.190  0.7554 -0.5988 -1.3869
  848MOL0     H11932   6.165   2.714   5.133  0.4139  0.3261 -2.6036
  848MOL0     H11933   6.058   2.634   5.007 -1.2474 -2.5512  1.4522
  848MOL0     H11934   5.912   3.033   5.030 -1.3015  0.2652 -0.3367
  848MOL0     H11935   6.342   2.622   5.537 -1.0168 -1.3641 -0.8472
  848MOL0     H11936   6.579   2.659   5.583 -0.9148  0.8248  0.0284
  849MOL0     O11937  10.840   2.037   8.591  0.3060  0.9897 -0.4703
  849MOL0     C11938  10.936   1.956   8.592  0.2753 -0.5671  0.6866
  849MOL0     O11939  10.959   1.876   8.696 -0.0587 -0.0961  0.0337
  849MOL0     C11940  10.880   1.876   8.800  0.9597 -0.1328  0.4402
  849MOL0     C11941  10.828   1.747   8.832 -0.6248  0.3744 -0.4302
  849MOL0     C11942  10.742   1.739   8.942  0.6859  0.6979 -1.0578
  849MOL0     C11943  10.692   1.849   9.009 -0.4708  0.3971  0.1627
  849MOL0     O11944  10.593   1.833   9.097  0.2589  0.3513 -0.2184
  849MOL0     C11945  10.615   1.838   9.233  0.4998 -0.4624  0.3249
  849MOL0     C11946  10.527   1.738   9.304 -0.6299  0.1397  0.2579
  849MOL0     C11947  10.578   1.598   9.292 -0.8865  0.7708 -0.2156
  849MOL0     C11948  10.728   1.567   9.333 -0.3594  0.1663  0.1611
  849MOL0     C11949  10.782   1.427   9.306 -0.5426 -0.3795  0.1762
  849MOL0     C11950  10.722   1.309   9.389  1.0718  1.1079  0.4216
  849MOL0     C11951  10.800   1.177   9.394  0.8782  0.0738  0.5242
  849MOL0     C11952  10.725   1.068   9.480  0.0660 -0.8632 -0.1665
  849MOL0     N11953  10.793   0.939   9.476  0.1094 -0.4770  0.5104
  849MOL0     C11954  10.792   0.849   9.371 -0.1928 -1.3296 -0.1768
  849MOL0     C11955  10.904   0.774   9.386  0.3387 -0.6833  0.1944
  849MOL0     C11956  10.950   0.671   9.279  0.3898 -0.5920  0.4333
  849MOL0     C11957  11.019   0.545   9.323 -0.3990 -0.3901  1.1352
  849MOL0     C11958  11.016   0.427   9.209 -0.8224  0.1832 -0.0799
  849MOL0     C11959  11.071   0.468   9.074 -0.7398  0.1385 -0.0964
  849MOL0     O11960  11.041   0.370   8.969  0.5397  0.3497 -0.7586
  849MOL0     C11961  11.036   0.418   8.841  1.0138  0.4101 -1.1133
  849MOL0     C11962  11.095   0.531   8.788 -0.1942 -0.3461 -0.6729
  849MOL0     C11963  11.097   0.559   8.651  1.0667 -0.2037  0.4868
  849MOL0     C11964  11.028   0.466   8.563  0.3311  0.8665 -0.5575
  849MOL0     C11965  11.041   0.492   8.414  0.2244 -0.4306  0.8997
  849MOL0     O11966  11.135   0.593   8.371  0.7422  0.4550 -0.6870
  849MOL0     C11967  11.146   0.646   8.243 -0.4099 -0.1571  0.0638
  849MOL0     C11968  11.045   0.630   8.143 -0.1544  0.8022 -0.0552
  849MOL0     C11969  11.053   0.699   8.018 -0.6803 -0.4474 -0.0811
  849MOL0     C11970  11.171   0.773   7.987  1.0248 -0.4476 -0.2855
  849MOL0     O11971  11.189   0.840   7.869 -0.4003  0.6766  0.1136
  849MOL0     C11972  11.092   0.807   7.771  0.0095  0.2347 -0.1579
  849MOL0     C11973  11.141   0.865   7.639 -0.2065 -0.1001 -0.4239
  849MOL0     C11974  11.273   0.799   7.602 -1.1103 -0.1983  0.4119
  849MOL0     C11975  11.404   0.877   7.637  0.8883 -0.5755 -0.1467
  849MOL0     C11976  11.511   0.828   7.535 -0.2694 -0.7659 -0.0989
  849MOL0     C11977  11.642   0.916   7.556 -0.4064  0.0370 -0.4364
  849MOL0     C11978  11.772   0.870   7.491 -0.1791  0.4774 -0.0073
  849MOL0     C11979  11.883   0.966   7.518 -0.7699  0.1102 -0.5738
  849MOL0    Cl11980  12.038   0.877   7.501 -0.3025 -0.2342  0.4753
  849MOL0     C11981  11.276   0.772   8.074  0.0836 -0.0632 -0.3863
  849MOL0     C11982  11.265   0.716   8.202 -0.5336 -0.4835 -0.2091
  849MOL0     O11983  10.972   0.426   8.335 -0.3336  0.5626  0.0417
  849MOL0     C11984  10.961   0.352   8.615  1.4251 -0.7099 -0.9362
  849MOL0     C11985  10.961   0.324   8.761  0.9328 -0.2945  0.0120
  849MOL0     N11986  10.963   0.812   9.495 -1.1007 -0.3698  0.4382
  849MOL0     N11987  10.910   0.912   9.551  0.3631  0.5295  0.0525
  849MOL0     C11988  10.736   1.970   8.975 -0.5906 -1.0767 -0.4867
  849MOL0     C11989  10.827   1.985   8.869  0.2458 -0.2973 -0.9424
  849MOL0     C11990  11.035   1.970   8.472  0.6228  0.5317  0.3384
  849MOL0     C11991  10.992   2.023   8.350 -1.0263 -1.0954 -0.3486
  849MOL0     C11992  11.084   2.036   8.246 -1.0630 -0.5080  0.1836
  849MOL0     C11993  11.216   1.993   8.260 -0.6580  0.0731 -0.9003
  849MOL0     O11994  11.305   1.995   8.154  0.2487  0.1400 -0.2176
  849MOL0     C11995  11.443   2.020   8.163 -0.0109 -1.1388  0.2143
  849MOL0     C11996  11.472   2.175   8.114 -0.1345 -0.2652  0.3691
  849MOL0     C11997  11.629   2.194   8.126  0.3961 -0.0394  0.3407
  849MOL0     C11998  11.677   2.337   8.122  0.5381 -0.1322 -0.0099
  849MOL0     C11999  11.824   2.342   8.111  0.2181 -1.0256 -0.0914
  849MOL0     C12000  11.935   2.352   8.075 -0.0655 -0.5354  0.0114
  849MOL0     C12001  11.258   1.959   8.382  1.3059 -0.0638 -0.7250
  849MOL0     C12002  11.172   1.945   8.492  0.1614 -1.0622 -0.3907
  849MOL0     H12003  10.869   1.664   8.774  1.3225  2.7357 -2.7208
  849MOL0     H12004  10.726   1.642   8.988  3.1085  0.5274 -0.4176
  849MOL0     H12005  10.568   1.927   9.277 -3.1318 -2.7283  1.4358
  849MOL0     H12006  10.717   1.830   9.272  0.5039 -1.6860  0.0891
  849MOL0     H12007  10.422   1.756   9.278 -0.8728  0.3768  1.3625
  849MOL0     H12008  10.539   1.767   9.409  4.9962 -1.7701  0.4703
  849MOL0     H12009  10.560   1.550   9.195  0.9894  0.4958 -0.4736
  849MOL0     H12010  10.518   1.534   9.356  0.7041  1.2069  1.8448
  849MOL0     H12011  10.790   1.635   9.273 -0.8384  1.5615  1.2086
  849MOL0     H12012  10.746   1.588   9.438  1.0995 -1.6623  0.3384
  849MOL0     H12013  10.888   1.430   9.333  0.6086 -0.1000 -3.7717
  849MOL0     H12014  10.775   1.395   9.202 -2.5532 -1.5244  0.6036
  849MOL0     H12015  10.624   1.286   9.345  0.6804  2.0022  0.7886
  849MOL0     H12016  10.700   1.332   9.494 -3.2322 -2.0367  0.4924
  849MOL0     H12017  10.818   1.144   9.291  1.8818  1.8714  0.0766
  849MOL0     H12018  10.897   1.204   9.437  0.3288  0.0915  1.7891
  849MOL0     H12019  10.623   1.063   9.438 -0.5561  3.2405  0.3994
  849MOL0     H12020  10.722   1.115   9.578 -1.7462  0.1723 -0.6608
  849MOL0     H12021  10.712   0.853   9.297 -3.2826  3.3536  2.8648
  849MOL0     H12022  11.011   0.732   9.213 -0.3820 -0.0366  0.2172
  849MOL0     H12023  10.856   0.635   9.236 -1.8332  1.2354  3.3114
  849MOL0     H12024  10.992   0.511   9.424 -0.8524 -1.3540  0.7045
  849MOL0     H12025  11.126   0.556   9.346  0.5960 -3.4574 -1.2812
  849MOL0     H12026  11.084   0.348   9.241 -3.1282 -1.4499  1.1189
  849MOL0     H12027  10.913   0.389   9.201 -0.2620 -1.1583 -1.2622
  849MOL0     H12028  11.180   0.478   9.080 -0.6130 -0.1759 -1.4682
  849MOL0     H12029  11.035   0.570   9.058  0.8245  0.8029  0.3848
  849MOL0     H12030  11.149   0.598   8.854  0.1948 -0.5015 -0.8344
  849MOL0     H12031  11.147   0.643   8.605  0.2921 -0.3523 -0.6624
  849MOL0     H12032  10.948   0.584   8.154 -0.9761  1.8742 -2.2150
  849MOL0     H12033  10.970   0.683   7.951 -2.1936  1.3176  1.2600
  849MOL0     H12034  10.990   0.839   7.793  0.6637  1.6540  0.9966
  849MOL0     H12035  11.087   0.698   7.762 -0.5465  0.1480  1.0058
  849MOL0     H12036  11.159   0.973   7.641 -3.6538  0.5898  2.4899
  849MOL0     H12037  11.065   0.849   7.562 -0.1229 -1.7400 -0.2067
  849MOL0     H12038  11.263   0.780   7.495  0.0244  1.3722 -0.0094
  849MOL0     H12039  11.289   0.697   7.639 -0.8272 -1.6697 -3.3426
  849MOL0     H12040  11.392   0.986   7.631 -0.3934 -0.7357 -0.9339
  849MOL0     H12041  11.437   0.865   7.740  0.4354  0.5654  0.1505
  849MOL0     H12042  11.484   0.862   7.434  0.1050  0.9231  0.3344
  849MOL0     H12043  11.536   0.722   7.540  1.6008 -0.4219 -1.2802
  849MOL0     H12044  11.667   0.916   7.662  2.8229 -0.4354 -1.1036
  849MOL0     H12045  11.629   1.016   7.513  2.7377  1.0610  0.7204
  849MOL0     H12046  11.794   0.772   7.534  0.5644  1.7805  2.8411
  849MOL0     H12047  11.759   0.875   7.382 -1.8432  0.1327  0.1470
  849MOL0     H12048  11.890   1.000   7.622 -1.5550  0.5902 -0.6700
  849MOL0     H12049  11.867   1.054   7.455 -4.8743  2.0916  2.7325
  849MOL0     H12050  11.363   0.830   8.042  2.2873 -2.5160  0.7739
  849MOL0     H12051  11.351   0.735   8.266  0.6918  1.3954 -2.2690
  849MOL0     H12052  10.916   0.281   8.546 -2.5459 -1.2650  1.9100
  849MOL0     H12053  10.928   0.227   8.796 -0.7195  0.0197 -0.5984
  849MOL0     H12054  10.694   2.056   9.027  3.2113 -0.4919  2.0155
  849MOL0     H12055  10.856   2.084   8.836  1.5864 -0.6090 -0.7381
  849MOL0     H12056  10.890   2.055   8.335 -1.3501 -2.6163 -1.7156
  849MOL0     H12057  11.054   2.073   8.149 -0.6818 -2.9954 -0.9718
  849MOL0     H12058  11.484   1.943   8.097  1.0925  0.0162 -0.5007
  849MOL0     H12059  11.488   1.994   8.260 -1.7785 -0.2537  1.3270
  849MOL0     H12060  11.431   2.196   8.015  1.3315  2.6754  0.2851
  849MOL0     H12061  11.416   2.254   8.166  0.5192  1.7860 -1.8731
  849MOL0     H12062  11.682   2.144   8.044 -0.7864 -0.8961  0.0723
  849MOL0     H12063  11.665   2.152   8.220 -0.4176  0.1627  0.7505
  849MOL0     H12064  11.637   2.388   8.034 -0.0427 -0.8199 -0.1514
  849MOL0     H12065  11.652   2.393   8.213 -0.9861 -3.2726  1.6474
  849MOL0     H12066  12.038   2.359   8.046  0.4211 -2.2442  1.1494
  849MOL0     H12067  11.359   1.924   8.402  0.2034 -2.7800  0.6837
  849MOL0     H12068  11.208   1.902   8.585 -1.7132 -2.2787 -0.1681
  850MOL0     O12069   0.608   8.830  11.169  0.6826 -0.4342  0.0338
  850MOL0     C12070   0.720   8.835  11.224  0.1066 -0.3029 -0.0209
  850MOL0     O12071   0.800   8.942  11.217 -0.8234 -0.7114  0.6051
  850MOL0     C12072   0.761   9.060  11.147  0.0492  0.0632  0.4090
  850MOL0     C12073   0.869   9.137  11.090  1.2518 -0.6130  0.1269
  850MOL0     C12074   0.852   9.253  11.016  0.0893 -0.8558  0.7631
  850MOL0     C12075   0.719   9.301  10.989  0.0803 -0.1647 -0.3616
  850MOL0     O12076   0.679   9.415  10.927  0.1497 -0.0295 -0.3422
  850MOL0     C12077   0.707   9.427  10.786  0.0843  0.3554  0.2533
  850MOL0     C12078   0.819   9.546  10.777  0.9075  0.0633 -0.1701
  850MOL0     C12079   0.878   9.564  10.641 -0.5920  0.3406  0.6871
  850MOL0     C12080   0.955   9.704  10.625  0.4721  0.2156 -0.8087
  850MOL0     C12081   0.867   9.825  10.614  0.0062  0.2246  0.1943
  850MOL0     C12082   0.949   9.953  10.638 -0.1326  0.5203  0.7031
  850MOL0     C12083   0.882  10.079  10.624  0.4140 -0.4478  0.1134
  850MOL0     C12084   0.805  10.111  10.483  0.0853  0.1423  0.4430
  850MOL0     N12085   0.713  10.224  10.490 -0.0237  0.1411  0.8284
  850MOL0     C12086   0.697  10.315  10.588  0.5937 -0.3359  0.0772
  850MOL0     C12087   0.591  10.390  10.543 -1.4325  0.4776 -0.1881
  850MOL0     C12088   0.527  10.497  10.620 -0.5829  0.0136  0.4912
  850MOL0     C12089   0.378  10.524  10.572  0.6664  0.3762  1.2172
  850MOL0     C12090   0.280  10.581  10.687 -0.0978  0.1138 -0.1401
  850MOL0     C12091   0.155  10.618  10.611 -0.2947  0.3937  0.4710
  850MOL0     O12092   0.159  10.743  10.543 -0.6119 -0.3707 -0.5605
  850MOL0     C12093   0.159  10.867  10.614  1.5506 -0.0797  0.0578
  850MOL0     C12094   0.207  10.980  10.538 -1.1913 -0.0561 -0.7788
  850MOL0     C12095   0.187  11.113  10.578 -0.6134 -0.0057 -0.7208
  850MOL0     C12096   0.149  11.134  10.716 -0.0636  0.4820 -0.9030
  850MOL0     C12097   0.140  11.267  10.771 -0.5169 -0.6411  0.5823
  850MOL0     O12098   0.204  11.373  10.712  0.6397  0.1192  0.2221
  850MOL0     C12099   0.222  11.491  10.789 -0.1121  1.1697 -0.4441
  850MOL0     C12100   0.222  11.611  10.712  0.0833 -0.1214 -0.5459
  850MOL0     C12101   0.247  11.739  10.768  0.1281  0.4379  0.6389
  850MOL0     C12102   0.272  11.753  10.904  0.1578 -0.4398  0.6150
  850MOL0     O12103   0.277  11.875  10.968 -0.1146  0.0713 -0.1698
  850MOL0     C12104   0.285  11.997  10.885 -0.7051  0.8419 -0.0521
  850MOL0     C12105   0.288  12.117  10.972  0.1009  0.3084 -0.6016
  850MOL0     C12106   0.326  12.244  10.893  1.1532  0.5265 -0.1189
  850MOL0     C12107   0.327  12.372  10.973  0.0107  0.2841 -0.9028
  850MOL0     C12108   0.187  12.415  11.024 -0.0616  0.4459 -0.0784
  850MOL0     C12109   0.202  12.558  11.079 -0.0866 -0.1057 -0.0197
  850MOL0     C12110   0.070  12.615  11.147 -0.9535  0.6117  0.4860
  850MOL0     C12111   0.034  12.535  11.270  0.6826 -0.0010  0.8096
  850MOL0    Cl12112  -0.065  12.653  11.358  0.5891 -0.5838 -0.2156
  850MOL0     C12113   0.264  11.631  10.987  0.6039 -0.3721  0.2691
  850MOL0     C12114   0.240  11.504  10.926  0.0485 -0.3234 -1.1430
  850MOL0     O12115   0.076  11.271  10.869  0.7440  0.4433 -0.3034
  850MOL0     C12116   0.098  11.017  10.785  0.3377 -0.1518  0.0538
  850MOL0     C12117   0.096  10.885  10.734  0.3382 -0.8855  0.5578
  850MOL0     N12118   0.564  10.349  10.409  0.3868  0.9453 -1.2117
  850MOL0     N12119   0.620  10.229  10.389  0.3397 -1.0398  1.0060
  850MOL0     C12120   0.615   9.238  11.047  0.5998 -0.1049 -0.2972
  850MOL0     C12121   0.632   9.113  11.114 -0.9041 -0.4230 -0.5197
  850MOL0     C12122   0.763   8.716  11.311  1.0048  0.2710  0.3602
  850MOL0     C12123   0.667   8.621  11.358 -0.2416  0.9126  0.0692
  850MOL0     C12124   0.715   8.516  11.437  0.2655 -0.1222  0.7431
  850MOL0     C12125   0.844   8.504  11.476  0.3025 -0.8613 -0.4629
  850MOL0     O12126   0.873   8.390  11.550 -0.6845  0.4972 -0.5024
  850MOL0     C12127   0.961   8.382  11.663 -0.0163 -0.0221 -0.8325
  850MOL0     C12128   0.885   8.399  11.800  0.5968  0.5159  1.3928
  850MOL0     C12129   0.847   8.544  11.837 -1.3083  0.6955 -0.5872
  850MOL0     C12130   0.701   8.567  11.846  0.5638  0.7635 -0.2553
  850MOL0     C12131   0.658   8.653  11.964 -0.0613  0.1934  0.3501
  850MOL0     C12132   0.606   8.719  12.055  0.0527  0.1310 -0.1863
  850MOL0     C12133   0.936   8.603  11.440  0.6741 -0.1988  0.1055
  850MOL0     C12134   0.898   8.712  11.358  0.3947  0.4618 -0.4049
  850MOL0     H12135   0.972   9.109  11.109  0.2349 -3.4121  2.3084
  850MOL0     H12136   0.938   9.303  10.974 -2.1744  1.8569 -1.0311
  850MOL0     H12137   0.617   9.463  10.735  1.3496  2.5413 -0.5981
  850MOL0     H12138   0.724   9.331  10.737 -2.5292  0.1623 -0.3910
  850MOL0     H12139   0.889   9.527  10.859 -1.6592 -1.6543  1.7851
  850MOL0     H12140   0.760   9.635  10.799  0.0646  0.4091 -3.3010
  850MOL0     H12141   0.793   9.568  10.572 -0.9178 -0.5576  1.0258
  850MOL0     H12142   0.940   9.477  10.619 -1.3485  0.6013 -3.1010
  850MOL0     H12143   1.022   9.722  10.710 -1.6371 -1.1523  1.2727
  850MOL0     H12144   1.011   9.688  10.533  4.5261  1.5611  1.2004
  850MOL0     H12145   0.784   9.833  10.685 -0.0687  4.5319 -0.0761
  850MOL0     H12146   0.824   9.827  10.513 -1.5756 -0.5640  0.8212
  850MOL0     H12147   1.021   9.949  10.555  0.1237 -0.0316  0.9434
  850MOL0     H12148   0.994   9.961  10.737  0.5901  0.7999  0.3606
  850MOL0     H12149   0.802  10.088  10.698 -1.5697  0.9262 -2.0840
  850MOL0     H12150   0.948  10.162  10.656  0.1146  0.8530 -2.4134
  850MOL0     H12151   0.745  10.022  10.459  1.5018 -0.6272 -0.3933
  850MOL0     H12152   0.878  10.130  10.404 -0.8460  2.8218  0.1327
  850MOL0     H12153   0.747  10.331  10.684 -0.2771 -2.9960  1.0585
  850MOL0     H12154   0.582  10.589  10.599  1.4976 -1.4806 -0.9484
  850MOL0     H12155   0.534  10.487  10.729 -1.2922  4.6056  1.1640
  850MOL0     H12156   0.335  10.430  10.537 -2.1112  1.2368  2.0691
  850MOL0     H12157   0.374  10.593  10.487 -0.9866  0.0595  1.0102
  850MOL0     H12158   0.262  10.502  10.761 -2.5768  1.5809  0.9560
  850MOL0     H12159   0.308  10.672  10.742 -3.9133  0.4439  1.5872
  850MOL0     H12160   0.065  10.626  10.673  0.0619 -1.6830  1.3553
  850MOL0     H12161   0.139  10.539  10.536 -2.2789  1.8422 -0.7395
  850MOL0     H12162   0.249  10.974  10.438 -1.0692  3.3787 -1.0486
  850MOL0     H12163   0.208  11.187  10.502  2.1672 -1.7920 -1.8625
  850MOL0     H12164   0.218  11.608  10.603 -3.2123  3.0732 -0.7054
  850MOL0     H12165   0.266  11.812  10.690  1.9989 -1.6460 -0.9932
  850MOL0     H12166   0.200  11.993  10.817  0.6317 -1.3421 -1.7266
  850MOL0     H12167   0.377  11.997  10.826  0.6593  1.8425  1.9376
  850MOL0     H12168   0.366  12.091  11.044  0.0850 -4.0703 -1.8736
  850MOL0     H12169   0.206  12.115  11.044  1.0068  1.1866  0.5106
  850MOL0     H12170   0.253  12.264  10.815  1.4520  1.7964 -0.1029
  850MOL0     H12171   0.424  12.217  10.852  1.6371  0.1660  1.2270
  850MOL0     H12172   0.388  12.360  11.063 -0.3412  1.8010 -0.4223
  850MOL0     H12173   0.372  12.451  10.911 -1.6673  0.5861 -1.7866
  850MOL0     H12174   0.153  12.341  11.096  0.0977 -0.5776 -1.0329
  850MOL0     H12175   0.115  12.408  10.942 -0.9861 -1.3322  0.8548
  850MOL0     H12176   0.242  12.631  11.008 -0.6527 -2.4994 -3.0089
  850MOL0     H12177   0.283  12.550  11.153 -1.1488  1.2030  1.3594
  850MOL0     H12178   0.101  12.715  11.180 -1.9743  0.3848  2.2737
  850MOL0     H12179  -0.025  12.610  11.092 -1.9955  0.9557  2.1836
  850MOL0     H12180   0.117  12.497  11.330  2.0001 -1.5969 -1.8248
  850MOL0     H12181  -0.038  12.458  11.240  1.0818  0.4510 -1.4728
  850MOL0     H12182   0.258  11.633  11.095  4.0980  0.5941  0.5570
  850MOL0     H12183   0.225  11.412  10.982 -1.4208 -1.0560 -2.6561
  850MOL0     H12184   0.035  11.034  10.872 -1.4240  1.0798 -1.3807
  850MOL0     H12185   0.039  10.806  10.782 -2.1818  0.7414  0.4606
  850MOL0     H12186   0.515   9.270  11.022 -0.4992 -1.1055  2.4400
  850MOL0     H12187   0.542   9.058  11.140  0.4849 -2.1552  0.8979
  850MOL0     H12188   0.563   8.636  11.331  0.0914  1.2688 -1.1213
  850MOL0     H12189   0.646   8.435  11.457 -0.8650  0.0452 -2.0682
  850MOL0     H12190   1.036   8.462  11.666  0.3876 -0.3866  3.2391
  850MOL0     H12191   1.018   8.290  11.648  3.1388  2.0998 -3.5724
  850MOL0     H12192   0.798   8.332  11.799  1.6634 -1.0163 -2.0418
  850MOL0     H12193   0.947   8.352  11.877 -0.9512  0.6195  2.7578
  850MOL0     H12194   0.880   8.612  11.757  0.8500  0.9020  0.4003
  850MOL0     H12195   0.897   8.566  11.932  0.5699 -2.7980 -0.6019
  850MOL0     H12196   0.664   8.592  11.746 -1.2295 -1.8102 -0.3303
  850MOL0     H12197   0.662   8.470  11.879 -0.2031 -0.6764 -4.6975
  850MOL0     H12198   0.584   8.776  12.144  0.8043 -1.5434  1.1275
  850MOL0     H12199   1.040   8.586  11.468  0.9190  1.8535  0.6145
  850MOL0     H12200   0.972   8.784  11.327  0.8531 -0.0416 -0.4940
  851MOL0     O12201   3.090   9.926   6.590  0.0241 -0.4027 -0.2992
  851MOL0     C12202   3.065   9.940   6.470  0.3340  0.4711  0.2952
  851MOL0     O12203   2.949   9.984   6.412 -0.0778  0.5510 -0.5249
  851MOL0     C12204   2.833  10.001   6.483  0.2128 -0.6108 -0.3887
  851MOL0     C12205   2.797   9.941   6.602 -0.6036  0.3648 -0.4621
  851MOL0     C12206   2.679   9.957   6.671 -0.5781  0.1921 -0.7583
  851MOL0     C12207   2.586  10.049   6.618 -0.1871 -0.1323 -0.4777
  851MOL0     O12208   2.463  10.074   6.670  0.4239 -0.1929 -0.2459
  851MOL0     C12209   2.428  10.015   6.795  0.5740  0.6848  0.2644
  851MOL0     C12210   2.283  10.031   6.837  0.1078  0.0108  0.1379
  851MOL0     C12211   2.226  10.178   6.819 -0.2777  0.1011  0.2757
  851MOL0     C12212   2.273  10.260   6.947  0.6932 -0.2573  0.1134
  851MOL0     C12213   2.165  10.370   6.956 -0.1409 -0.7359 -0.2708
  851MOL0     C12214   2.195  10.469   6.844  0.2428 -0.7694  0.2423
  851MOL0     C12215   2.098  10.593   6.838 -0.8725 -0.3524 -0.2538
  851MOL0     C12216   2.148  10.690   6.729 -0.0923 -0.1610  0.2789
  851MOL0     N12217   2.043  10.797   6.717  0.6091 -0.0062  0.5176
  851MOL0     C12218   1.930  10.786   6.641  0.1620 -0.2754  0.2588
  851MOL0     C12219   1.862  10.895   6.649  1.0853  0.3455  0.0258
  851MOL0     C12220   1.725  10.927   6.585  0.6630  0.2141 -0.0461
  851MOL0     C12221   1.717  10.920   6.426 -0.2289  0.2814  0.0336
  851MOL0     C12222   1.578  10.979   6.370  0.5637  0.3714 -0.2157
  851MOL0     C12223   1.586  11.126   6.336 -0.1469  0.3796  1.4063
  851MOL0     O12224   1.454  11.186   6.320 -0.1882 -0.2728  0.2444
  851MOL0     C12225   1.390  11.176   6.202 -0.8262 -0.9049  0.4179
  851MOL0     C12226   1.271  11.249   6.193  0.2263  0.0700  0.0324
  851MOL0     C12227   1.203  11.263   6.072 -0.2237  0.0746 -0.1194
  851MOL0     C12228   1.249  11.203   5.956 -0.2109 -0.7699 -0.9599
  851MOL0     C12229   1.172  11.219   5.832 -0.5303  0.3980  0.3516
  851MOL0     O12230   1.077  11.325   5.821 -0.7216  0.6328 -0.2761
  851MOL0     C12231   1.006  11.361   5.706 -0.6356 -0.9294 -0.7413
  851MOL0     C12232   0.873  11.339   5.710 -0.7685  0.6282  0.3441
  851MOL0     C12233   0.800  11.361   5.599 -0.7666 -0.4385 -0.1051
  851MOL0     C12234   0.852  11.411   5.484 -0.0739  0.3196  0.3182
  851MOL0     O12235   0.764  11.433   5.378 -0.1830 -0.2044  0.3480
  851MOL0     C12236   0.814  11.503   5.264  0.5957  0.0953 -0.1466
  851MOL0     C12237   0.701  11.540   5.159 -0.6008 -0.4818  0.3180
  851MOL0     C12238   0.626  11.666   5.202  0.2516 -0.4761  0.3775
  851MOL0     C12239   0.504  11.708   5.128  1.1853 -0.7949 -0.0917
  851MOL0     C12240   0.431  11.816   5.210  0.0959  0.5543 -0.1675
  851MOL0     C12241   0.305  11.853   5.140  0.7379  0.6717  0.2880
  851MOL0     C12242   0.270  12.002   5.162  0.7016  1.4345 -0.9006
  851MOL0     C12243   0.129  12.016   5.111  0.3602 -0.1137  0.3171
  851MOL0    Cl12244   0.012  11.939   5.218 -0.3128  0.2824 -0.2733
  851MOL0     C12245   0.990  11.454   5.481 -0.4520  0.1971 -0.5134
  851MOL0     C12246   1.068  11.429   5.602  1.4418 -0.4932  0.9326
  851MOL0     O12247   1.192  11.143   5.733  0.5573  0.7145  0.5757
  851MOL0     C12248   1.364  11.123   5.959  0.6340  0.4699  0.1692
  851MOL0     C12249   1.430  11.111   6.085  0.6037 -0.0857 -0.7658
  851MOL0     N12250   1.931  10.984   6.730  0.5322 -0.2046  0.6914
  851MOL0     N12251   2.039  10.924   6.770 -0.1219  0.0504 -0.0573
  851MOL0     C12252   2.622  10.117   6.493  0.5356  0.4776  0.7016
  851MOL0     C12253   2.741  10.094   6.433  0.0965 -0.3213  0.9041
  851MOL0     C12254   3.187   9.942   6.387 -0.2257 -0.4396  0.2491
  851MOL0     C12255   3.172   9.935   6.245  0.6362 -0.4726  0.2359
  851MOL0     C12256   3.278   9.949   6.161 -0.6366 -0.0362 -0.5959
  851MOL0     C12257   3.406   9.978   6.210  0.0788  0.6176 -0.6290
  851MOL0     O12258   3.523   9.984   6.137  0.3630  0.4428 -0.3028
  851MOL0     C12259   3.513  10.017   5.989  0.0896  0.4138 -0.5747
  851MOL0     C12260   3.656  10.021   5.929 -0.3550 -0.3203 -0.4536
  851MOL0     C12261   3.664  10.056   5.781  0.1722  1.3424  0.2087
  851MOL0     C12262   3.663  10.207   5.769 -0.2135  0.0236 -0.1519
  851MOL0     C12263   3.527  10.254   5.773  0.7348 -0.0009 -0.1743
  851MOL0     C12264   3.411  10.294   5.756 -0.3899 -0.0110 -0.1785
  851MOL0     C12265   3.419  10.009   6.351  0.7383  0.1009 -0.0284
  851MOL0     C12266   3.313   9.980   6.436  0.0326  0.8177  0.6358
  851MOL0     H12267   2.854   9.855   6.636  1.3829  0.2925 -3.6212
  851MOL0     H12268   2.661   9.899   6.761  2.0756  2.6287  1.5253
  851MOL0     H12269   2.496  10.077   6.856  3.0268 -1.6063  0.0428
  851MOL0     H12270   2.451   9.908   6.796  1.5233  0.8095  3.1841
  851MOL0     H12271   2.268   9.995   6.939 -2.6354 -1.4806 -0.6885
  851MOL0     H12272   2.224   9.969   6.769  0.4631 -1.3326  1.0067
  851MOL0     H12273   2.117  10.164   6.825  0.1728 -4.3061  2.4205
  851MOL0     H12274   2.267  10.218   6.726  3.3714  3.5595  3.0420
  851MOL0     H12275   2.269  10.192   7.032  1.1065  0.6746  0.8881
  851MOL0     H12276   2.372  10.305   6.941  1.1108 -1.0049  1.1620
  851MOL0     H12277   2.171  10.411   7.057 -1.7320 -4.4846  1.5182
  851MOL0     H12278   2.063  10.330   6.946 -0.2807 -0.1029 -1.6167
  851MOL0     H12279   2.185  10.425   6.745  0.4893 -2.2217  0.8419
  851MOL0     H12280   2.294  10.507   6.868  0.8894  0.6274 -3.8692
  851MOL0     H12281   1.999  10.555   6.813 -1.3717  1.4482 -1.1390
  851MOL0     H12282   2.103  10.642   6.936  2.0727  2.4722 -1.6100
  851MOL0     H12283   2.148  10.645   6.629 -1.0173 -1.2313  0.7425
  851MOL0     H12284   2.243  10.736   6.761 -0.1673 -1.7958  3.2312
  851MOL0     H12285   1.899  10.689   6.601 -3.6171  0.0993  1.8267
  851MOL0     H12286   1.692  11.024   6.621 -0.7446 -0.2960  0.1020
  851MOL0     H12287   1.653  10.860   6.633  0.1930  0.7643  0.0122
  851MOL0     H12288   1.732  10.816   6.395  0.9809  0.9349 -1.7163
  851MOL0     H12289   1.800  10.980   6.388 -0.1554 -0.7020 -1.4478
  851MOL0     H12290   1.543  10.921   6.284  0.5574 -0.3786  0.2855
  851MOL0     H12291   1.495  10.972   6.440  1.5798 -1.0129  0.9025
  851MOL0     H12292   1.641  11.143   6.243 -1.4558 -0.1108  0.5135
  851MOL0     H12293   1.640  11.176   6.417 -1.2614 -0.0483  2.4568
  851MOL0     H12294   1.240  11.312   6.276 -0.0801 -0.4134  0.2879
  851MOL0     H12295   1.107  11.312   6.060  0.2958  0.5356 -3.8997
  851MOL0     H12296   0.826  11.306   5.803 -2.3970  0.1144 -0.6259
  851MOL0     H12297   0.695  11.335   5.607 -0.7077 -1.2261 -1.5276
  851MOL0     H12298   0.885  11.428   5.225  0.6567 -0.7952  1.5632
  851MOL0     H12299   0.864  11.596   5.291  0.1437 -0.1156  1.5452
  851MOL0     H12300   0.628  11.459   5.165 -0.6675 -0.4283  0.2392
  851MOL0     H12301   0.738  11.535   5.056 -0.5347  3.1634  0.0444
  851MOL0     H12302   0.703  11.743   5.196  0.0134 -0.0701  2.0594
  851MOL0     H12303   0.601  11.648   5.308 -2.1183 -0.1051 -0.0577
  851MOL0     H12304   0.515  11.736   5.023 -1.2229  0.0476 -0.1684
  851MOL0     H12305   0.437  11.622   5.131 -0.5203  0.5200  1.1735
  851MOL0     H12306   0.500  11.901   5.211  1.7290 -0.7114 -1.0938
  851MOL0     H12307   0.419  11.785   5.314  0.2318 -1.8697 -0.8193
  851MOL0     H12308   0.214  11.803   5.174 -0.2774  2.7239  0.7670
  851MOL0     H12309   0.319  11.841   5.032  2.9661  1.9594  0.3703
  851MOL0     H12310   0.288  12.039   5.264 -0.3513  0.4007 -0.3088
  851MOL0     H12311   0.356  12.046   5.111  5.8359 -2.5982  3.0655
  851MOL0     H12312   0.119  11.973   5.011 -1.7228  1.5699 -0.2564
  851MOL0     H12313   0.099  12.120   5.095 -1.8921 -0.9091 -1.1292
  851MOL0     H12314   1.034  11.512   5.401 -2.2648  2.2791 -0.0974
  851MOL0     H12315   1.174  11.454   5.598  1.6193 -1.0242  2.0555
  851MOL0     H12316   1.390  11.064   5.872  0.2409 -2.5580  1.9469
  851MOL0     H12317   1.524  11.060   6.071 -0.8815 -3.8485  1.3248
  851MOL0     H12318   2.550  10.176   6.437  3.4062  0.7000 -3.1790
  851MOL0     H12319   2.758  10.136   6.335 -1.1957 -2.6678 -0.4265
  851MOL0     H12320   3.080   9.915   6.192  0.5824  2.3338 -0.9330
  851MOL0     H12321   3.267   9.937   6.053 -1.5743 -4.5868 -0.1945
  851MOL0     H12322   3.470  10.117   5.996  0.3872  0.4920  0.1381
  851MOL0     H12323   3.446   9.941   5.946  1.8403 -0.7194 -1.4349
  851MOL0     H12324   3.702  10.103   5.986  0.1697 -0.5077 -0.6059
  851MOL0     H12325   3.725   9.942   5.958  0.1331 -0.3340 -1.5959
  851MOL0     H12326   3.594   9.995   5.722  4.3633 -0.6588 -3.2809
  851MOL0     H12327   3.764  10.027   5.747 -0.2040  1.0311 -0.6847
  851MOL0     H12328   3.728  10.258   5.840  0.3379  0.9440 -1.2787
  851MOL0     H12329   3.701  10.230   5.669 -0.9983 -0.2143 -0.5150
  851MOL0     H12330   3.308  10.319   5.738 -0.2414  0.8723  0.1147
  851MOL0     H12331   3.515  10.054   6.374  1.1586 -0.1236 -1.2804
  851MOL0     H12332   3.330   9.987   6.543  2.6850  0.7526  0.2940
  852MOL0     O12333   8.298   9.241  10.745  0.3911  0.0712 -0.0357
  852MOL0     C12334   8.349   9.211  10.634  0.2751  0.1116  0.0059
  852MOL0     O12335   8.283   9.177  10.516 -0.5239  0.4545 -0.1020
  852MOL0     C12336   8.151   9.138  10.526  0.7350  0.0893 -0.5810
  852MOL0     C12337   8.106   9.052  10.635 -0.5113 -0.5988  0.3876
  852MOL0     C12338   7.961   9.026  10.649 -0.1248  0.7411  0.2319
  852MOL0     C12339   7.876   9.067  10.550 -0.5496 -0.1207  0.4654
  852MOL0     O12340   7.742   9.022  10.559  0.3117 -0.1280  0.7080
  852MOL0     C12341   7.675   8.996  10.435  0.3628  0.0563 -0.1333
  852MOL0     C12342   7.532   8.944  10.457 -0.3535  0.2264  0.8368
  852MOL0     C12343   7.435   9.017  10.558  1.0259  0.6311 -0.8801
  852MOL0     C12344   7.328   8.933  10.627  0.0265  0.7894 -0.9359
  852MOL0     C12345   7.234   8.996  10.726  0.7330 -0.2768 -0.1215
  852MOL0     C12346   7.155   9.104  10.662  1.1664 -0.0439 -0.0974
  852MOL0     C12347   7.032   9.146  10.746  0.1270 -0.9460  0.1580
  852MOL0     C12348   6.967   9.282  10.697 -0.1179 -0.4950  0.0578
  852MOL0     N12349   6.859   9.326  10.789  0.9514  0.9018  0.6387
  852MOL0     C12350   6.731   9.282  10.766  1.4733  0.6376  0.0525
  852MOL0     C12351   6.677   9.292  10.890  0.3049  0.0718 -0.0811
  852MOL0     C12352   6.529   9.267  10.921  0.3822 -0.6095  0.1281
  852MOL0     C12353   6.466   9.387  10.999  0.1654  1.1492  0.7682
  852MOL0     C12354   6.310   9.364  10.996 -0.9797 -0.4521  0.4692
  852MOL0     C12355   6.227   9.497  11.032 -0.3730 -0.1460  0.1437
  852MOL0     O12356   6.089   9.463  11.057  0.3903 -0.5617 -0.4451
  852MOL0     C12357   6.019   9.391  10.964  0.1972  0.6647  0.2449
  852MOL0     C12358   5.916   9.304  11.007 -0.7565 -0.2654 -0.7290
  852MOL0     C12359   5.834   9.240  10.917  0.5532 -1.0906 -0.5775
  852MOL0     C12360   5.858   9.250  10.776  0.3536  0.4590  0.2303
  852MOL0     C12361   5.783   9.171  10.673 -1.4223 -0.2071 -0.4238
  852MOL0     O12362   5.801   9.222  10.550 -0.5467 -0.4613 -0.3203
  852MOL0     C12363   5.705   9.244  10.447  0.1605  0.3518 -0.1536
  852MOL0     C12364   5.752   9.294  10.332  0.5093 -0.0251 -0.0633
  852MOL0     C12365   5.669   9.340  10.232  0.0483  0.5726  0.9627
  852MOL0     C12366   5.533   9.308  10.239  0.0638 -0.5788  0.0497
  852MOL0     O12367   5.455   9.348  10.134  0.3917 -0.6311  0.1335
  852MOL0     C12368   5.418   9.235  10.051 -0.0033 -0.2726 -0.0589
  852MOL0     C12369   5.268   9.234  10.005 -1.3059 -0.6491 -0.1943
  852MOL0     C12370   5.166   9.210  10.113 -0.0274 -0.4257 -0.6536
  852MOL0     C12371   5.178   9.074  10.189  0.2042  0.2732  0.0884
  852MOL0     C12372   5.097   9.062  10.318  0.7084  0.0837  0.4400
  852MOL0     C12373   4.942   9.068  10.299 -0.2097  0.4811 -1.0680
  852MOL0     C12374   4.864   8.933  10.298 -0.6178 -0.6325 -0.3377
  852MOL0     C12375   4.714   8.952  10.313  0.5215 -0.7466 -1.1327
  852MOL0    Cl12376   4.661   8.797  10.380 -0.6700 -0.3657  0.7180
  852MOL0     C12377   5.483   9.247  10.362 -0.1802  0.0959  0.5661
  852MOL0     C12378   5.563   9.218  10.466 -1.3791 -0.2755  0.3000
  852MOL0     O12379   5.713   9.078  10.703 -0.0871  0.0132 -0.0039
  852MOL0     C12380   5.967   9.330  10.731  0.6155 -1.1738 -1.0799
  852MOL0     C12381   6.042   9.402  10.828  1.0681 -0.0659  0.1024
  852MOL0     N12382   6.766   9.354  10.982  0.7650  0.0698 -0.4805
  852MOL0     N12383   6.878   9.365  10.921 -0.7326 -0.7971  0.1034
  852MOL0     C12384   7.928   9.136  10.442 -0.4132  0.1316  0.6017
  852MOL0     C12385   8.057   9.179  10.432 -0.3224  0.4822 -0.0462
  852MOL0     C12386   8.499   9.210  10.637  0.3248  1.4044 -0.3839
  852MOL0     C12387   8.568   9.150  10.745  0.5716  0.4319 -0.3214
  852MOL0     C12388   8.711   9.145  10.753 -0.3005  0.1653 -0.4183
  852MOL0     C12389   8.786   9.187  10.646  0.2335  0.2764  0.3015
  852MOL0     O12390   8.922   9.180  10.651 -0.0921  0.1425  1.1418
  852MOL0     C12391   8.993   9.293  10.608 -0.0151 -0.5830  1.0421
  852MOL0     C12392   9.134   9.306  10.656 -0.1279 -0.6726  0.0847
  852MOL0     C12393   9.132   9.270  10.809  0.5645 -0.1265  1.6173
  852MOL0     C12394   9.037   9.360  10.891  0.8559  0.9375 -0.2653
  852MOL0     C12395   8.984   9.277  11.005  0.6055  0.6434 -0.4593
  852MOL0     C12396   8.925   9.190  11.075  0.3200 -0.8259 -0.6377
  852MOL0     C12397   8.720   9.245  10.532 -0.0930  0.9117  0.3706
  852MOL0     C12398   8.574   9.254  10.534  0.1726  0.3434  0.3698
  852MOL0     H12399   8.180   9.023  10.710 -0.5532 -1.8819 -0.0531
  852MOL0     H12400   7.917   8.967  10.729 -0.8976  1.5129  0.3853
  852MOL0     H12401   7.733   8.930  10.370 -0.9021 -1.0899 -0.1470
  852MOL0     H12402   7.661   9.088  10.378 -0.9135  0.0109  0.0675
  852MOL0     H12403   7.552   8.847  10.503  0.5373  1.4491  3.1816
  852MOL0     H12404   7.471   8.923  10.368 -2.5520  1.5148  1.9551
  852MOL0     H12405   7.385   9.100  10.507 -1.1722  1.7750  2.7281
  852MOL0     H12406   7.486   9.077  10.634 -1.7761  1.0409  0.8080
  852MOL0     H12407   7.264   8.862  10.573 -1.2319 -1.2386  2.8427
  852MOL0     H12408   7.394   8.875  10.692  2.5693  2.4212 -1.8912
  852MOL0     H12409   7.286   9.034  10.815 -1.3640 -0.1859  1.1366
  852MOL0     H12410   7.164   8.915  10.746 -0.7036  1.3692  1.9245
  852MOL0     H12411   7.107   9.064  10.572  1.0485 -2.3721  0.9457
  852MOL0     H12412   7.217   9.193  10.646  0.6588  0.4158  0.4298
  852MOL0     H12413   6.946   9.079  10.741 -1.3081  0.8828 -1.5142
  852MOL0     H12414   7.048   9.162  10.853  0.8454  2.8971 -0.3516
  852MOL0     H12415   6.931   9.273  10.594 -2.7063 -0.7692  0.9187
  852MOL0     H12416   7.035   9.368  10.698  0.1450 -0.6660  2.0631
  852MOL0     H12417   6.697   9.247  10.669 -0.8476 -0.7652  1.2776
  852MOL0     H12418   6.529   9.171  10.974 -0.6124  0.1533  1.5717
  852MOL0     H12419   6.477   9.259  10.824 -2.7328 -0.9701  1.6965
  852MOL0     H12420   6.495   9.478  10.945  0.4851 -0.3375 -1.7628
  852MOL0     H12421   6.498   9.390  11.103 -2.1642 -0.1042  1.5987
  852MOL0     H12422   6.270   9.313  10.908 -3.3591 -1.3815  1.9629
  852MOL0     H12423   6.287   9.298  11.081  1.1433 -2.0111 -0.0802
  852MOL0     H12424   6.232   9.566  10.948 -1.1158  0.6182  0.7106
  852MOL0     H12425   6.280   9.551  11.110  1.8999  1.0742 -2.1326
  852MOL0     H12426   5.896   9.304  11.114 -1.4494  4.2099 -0.6494
  852MOL0     H12427   5.763   9.176  10.968  1.6463 -1.3676  0.6239
  852MOL0     H12428   5.854   9.331  10.340  0.4381  0.2909 -0.5898
  852MOL0     H12429   5.713   9.399  10.152  0.9304  1.5169  2.1024
  852MOL0     H12430   5.448   9.138  10.091 -4.3677 -2.9359 -2.4162
  852MOL0     H12431   5.477   9.265   9.964 -1.2230 -1.9790 -1.5538
  852MOL0     H12432   5.258   9.151   9.934 -0.2141 -1.9809  1.1487
  852MOL0     H12433   5.228   9.323   9.955 -3.9779 -1.1283  0.8858
  852MOL0     H12434   5.066   9.201  10.070 -0.7960 -0.2770  1.0291
  852MOL0     H12435   5.170   9.299  10.176  1.4844 -2.1124  1.7729
  852MOL0     H12436   5.159   8.983  10.131  1.7978 -1.8629  2.6368
  852MOL0     H12437   5.284   9.063  10.215  0.0763  0.6783  0.8270
  852MOL0     H12438   5.127   9.148  10.378 -1.0624  1.4940 -0.6188
  852MOL0     H12439   5.122   8.969  10.371 -2.1537 -0.1769  1.5124
  852MOL0     H12440   4.912   9.113  10.204 -2.6439 -3.0386 -2.1713
  852MOL0     H12441   4.906   9.132  10.380 -2.5619  0.7279 -2.2221
  852MOL0     H12442   4.894   8.883  10.206 -0.5050 -0.5226 -0.3616
  852MOL0     H12443   4.899   8.868  10.379 -2.7307 -2.2592 -0.6448
  852MOL0     H12444   4.657   8.962  10.220 -1.0370  0.8213 -0.0796
  852MOL0     H12445   4.686   9.034  10.381  3.4818 -0.5234 -0.0197
  852MOL0     H12446   5.375   9.234  10.365 -0.2685 -0.8350 -2.5172
  852MOL0     H12447   5.526   9.176  10.559 -1.3240 -0.1898  0.3614
  852MOL0     H12448   5.980   9.348  10.625  0.2894 -2.4094 -1.3423
  852MOL0     H12449   6.116   9.469  10.785 -1.6153  2.1311 -1.4692
  852MOL0     H12450   7.849   9.176  10.379  0.2067  2.3745  1.1727
  852MOL0     H12451   8.087   9.239  10.347 -1.0673 -1.2016 -1.5453
  852MOL0     H12452   8.512   9.105  10.826 -0.5165 -1.0403 -1.8133
  852MOL0     H12453   8.748   9.089  10.839  0.8206  1.8411  0.2345
  852MOL0     H12454   8.939   9.384  10.633 -0.8353 -0.7961  0.1028
  852MOL0     H12455   9.005   9.287  10.499 -0.7886 -1.0380  0.9746
  852MOL0     H12456   9.200   9.234  10.606  0.6912 -0.2346  0.5167
  852MOL0     H12457   9.152   9.412  10.637 -3.8833  0.0418 -0.3156
  852MOL0     H12458   9.229   9.269  10.861  1.2752 -1.6679  0.3248
  852MOL0     H12459   9.096   9.167  10.807 -3.0112  0.9846 -0.9491
  852MOL0     H12460   9.086   9.446  10.937  2.0905  1.0293 -1.6784
  852MOL0     H12461   8.953   9.393  10.830  0.1687  2.6143  1.4736
  852MOL0     H12462   8.884   9.102  11.119 -0.1975  1.0146  2.9167
  852MOL0     H12463   8.776   9.278  10.445 -2.7553  0.2620 -1.7106
  852MOL0     H12464   8.516   9.304  10.457  0.2075  0.3019  0.3159
  853MOL0     O12465   1.387   4.376   8.972 -0.5441 -0.1017  0.2478
  853MOL0     C12466   1.332   4.310   8.879  0.0872  0.0066 -0.8733
  853MOL0     O12467   1.205   4.310   8.842 -0.2234  0.2784  0.5494
  853MOL0     C12468   1.102   4.372   8.916  0.0914  0.6902  0.1221
  853MOL0     C12469   1.097   4.380   9.053 -0.0012  0.3928 -0.1048
  853MOL0     C12470   0.988   4.440   9.116 -0.0667  0.9627  0.5214
  853MOL0     C12471   0.882   4.501   9.042  0.0229 -0.8113  0.3767
  853MOL0     O12472   0.778   4.543   9.126 -0.0068 -0.2746 -0.2415
  853MOL0     C12473   0.667   4.586   9.056  0.4996  0.1024  0.8585
  853MOL0     C12474   0.551   4.589   9.157 -0.7419 -0.1398  0.4623
  853MOL0     C12475   0.450   4.694   9.122 -0.0230 -0.7884 -0.0542
  853MOL0     C12476   0.321   4.686   9.199 -0.0051  0.8817 -0.5514
  853MOL0     C12477   0.202   4.717   9.122 -0.2550  0.4765  1.4413
  853MOL0     C12478   0.075   4.704   9.204  0.6023  1.0965 -0.0918
  853MOL0     C12479  -0.047   4.631   9.143  0.5591  0.8908 -0.3840
  853MOL0     C12480  -0.178   4.644   9.218 -0.6817  0.5266  1.1152
  853MOL0     N12481  -0.301   4.578   9.159 -0.7711  0.7016 -0.4566
  853MOL0     C12482  -0.421   4.640   9.164  0.1194  0.4448  0.2348
  853MOL0     C12483  -0.515   4.542   9.149 -1.1847  0.0880  1.0879
  853MOL0     C12484  -0.668   4.536   9.143  0.0381 -0.2045 -0.8485
  853MOL0     C12485  -0.715   4.599   9.012 -0.1283 -0.4471 -0.1011
  853MOL0     C12486  -0.699   4.490   8.901 -0.0443 -0.0321  0.4336
  853MOL0     C12487  -0.739   4.532   8.755  0.9775 -0.7862 -0.5066
  853MOL0     O12488  -0.879   4.568   8.740 -0.5522  0.2983 -0.2243
  853MOL0     C12489  -0.926   4.625   8.627  0.5437 -0.5120  0.2424
  853MOL0     C12490  -1.065   4.665   8.619  0.1204  0.1647 -0.1321
  853MOL0     C12491  -1.116   4.748   8.516  0.5891 -0.7453 -0.3219
  853MOL0     C12492  -1.034   4.779   8.409 -0.3704 -0.6946 -0.4590
  853MOL0     C12493  -1.088   4.839   8.288  0.0540  1.0021 -0.0333
  853MOL0     O12494  -1.011   4.818   8.173 -0.4747 -0.8564 -0.0572
  853MOL0     C12495  -1.033   4.872   8.046 -0.6394  0.3932  0.0098
  853MOL0     C12496  -0.957   4.804   7.948  0.4542  0.5450 -0.3538
  853MOL0     C12497  -0.984   4.813   7.805  0.5945  0.2360 -0.1191
  853MOL0     C12498  -1.081   4.908   7.761 -0.4713  0.1245  0.0401
  853MOL0     O12499  -1.117   4.920   7.628 -0.1429 -0.3039 -0.5305
  853MOL0     C12500  -1.256   4.906   7.593 -0.2744  0.4258 -0.0359
  853MOL0     C12501  -1.325   5.033   7.560  0.3950  0.7664 -1.0049
  853MOL0     C12502  -1.470   5.010   7.520 -0.6110  0.0810  0.5841
  853MOL0     C12503  -1.538   5.124   7.435 -0.2871  0.2001  0.0012
  853MOL0     C12504  -1.678   5.098   7.408 -0.3634  0.7581  0.5943
  853MOL0     C12505  -1.742   5.203   7.322 -0.5328 -0.3671 -0.4356
  853MOL0     C12506  -1.875   5.141   7.269  0.4530  0.1746  0.2810
  853MOL0     C12507  -1.941   5.229   7.163  0.0302 -0.7677  0.2580
  853MOL0    Cl12508  -1.813   5.242   7.035  0.0692  0.0622  0.3606
  853MOL0     C12509  -1.145   4.986   7.860  0.0965 -0.6148 -1.3341
  853MOL0     C12510  -1.130   4.962   7.998  0.0435 -1.0454 -0.6279
  853MOL0     O12511  -1.198   4.887   8.292  0.2023  0.6124 -0.1887
  853MOL0     C12512  -0.900   4.717   8.412 -0.3489 -0.2115 -0.0732
  853MOL0     C12513  -0.852   4.643   8.513  0.2114 -0.3960  0.2115
  853MOL0     N12514  -0.446   4.422   9.127  0.2050  0.2238 -0.4650
  853MOL0     N12515  -0.319   4.444   9.139 -0.1776  0.2163  0.1038
  853MOL0     C12516   0.882   4.489   8.902  1.1535  0.4334 -0.2047
  853MOL0     C12517   0.991   4.422   8.841 -0.7471  0.3239 -0.0518
  853MOL0     C12518   1.423   4.230   8.809 -0.7092 -0.1078  0.8651
  853MOL0     C12519   1.533   4.165   8.867  0.1227  0.9753 -0.1820
  853MOL0     C12520   1.612   4.081   8.795 -0.4368  0.9164  0.2923
  853MOL0     C12521   1.585   4.053   8.660 -0.4103  0.6590 -0.1954
  853MOL0     O12522   1.656   3.970   8.582  0.4829  0.4042 -0.2861
  853MOL0     C12523   1.779   3.909   8.624  0.2115  0.8659 -0.0624
  853MOL0     C12524   1.767   3.758   8.600  0.2497 -0.3941 -0.4047
  853MOL0     C12525   1.879   3.681   8.686  0.4427  0.8324  0.2878
  853MOL0     C12526   1.843   3.650   8.828  0.2185 -0.2221 -0.6070
  853MOL0     C12527   1.735   3.553   8.823  0.4604  0.4285  0.5141
  853MOL0     C12528   1.631   3.483   8.821 -0.2918 -0.3086 -0.3990
  853MOL0     C12529   1.472   4.111   8.603 -0.2161  0.2603  0.1206
  853MOL0     C12530   1.392   4.192   8.678 -1.0339 -0.4542  0.6713
  853MOL0     H12531   1.182   4.351   9.115  0.8812  1.5001 -0.7545
  853MOL0     H12532   0.994   4.458   9.222  0.3834  1.3831  0.4298
  853MOL0     H12533   0.642   4.523   8.970 -0.1288  2.1678 -0.5448
  853MOL0     H12534   0.689   4.683   9.012 -1.3535 -0.0300 -0.4881
  853MOL0     H12535   0.580   4.595   9.263 -3.1355  0.1065  1.1524
  853MOL0     H12536   0.495   4.497   9.139 -1.9847  0.5313  0.7821
  853MOL0     H12537   0.429   4.686   9.015 -1.6335  2.8973 -0.1742
  853MOL0     H12538   0.497   4.790   9.147 -2.2796  0.4203 -0.1710
  853MOL0     H12539   0.309   4.587   9.245 -1.0967  1.9515  1.6158
  853MOL0     H12540   0.315   4.753   9.285 -1.4179 -1.8013  1.6156
  853MOL0     H12541   0.205   4.659   9.029  1.2224  3.1398 -0.2966
  853MOL0     H12542   0.209   4.823   9.096  0.9337  0.6263  2.2663
  853MOL0     H12543   0.041   4.806   9.221  4.2940  2.0091  3.5675
  853MOL0     H12544   0.109   4.659   9.298  0.5628 -2.3509 -1.5499
  853MOL0     H12545  -0.059   4.670   9.041 -1.0821 -0.2103 -0.6490
  853MOL0     H12546  -0.014   4.528   9.125 -0.8206  0.2343  0.6496
  853MOL0     H12547  -0.197   4.748   9.245 -0.1003  1.8192 -2.8600
  853MOL0     H12548  -0.165   4.590   9.312 -0.4991  0.1590  0.8808
  853MOL0     H12549  -0.449   4.744   9.174 -0.7811  0.2465 -0.1701
  853MOL0     H12550  -0.703   4.588   9.233  0.9105  1.1768 -1.2708
  853MOL0     H12551  -0.696   4.432   9.160  2.8377 -0.7700  0.9974
  853MOL0     H12552  -0.646   4.681   8.989 -1.8746  1.6760  1.6925
  853MOL0     H12553  -0.815   4.644   9.011  1.3117  3.1716 -1.3157
  853MOL0     H12554  -0.596   4.452   8.905  0.3451  1.0526  2.1864
  853MOL0     H12555  -0.759   4.402   8.925  0.1721 -1.0139 -2.3209
  853MOL0     H12556  -0.716   4.465   8.671 -1.5789  3.0902 -4.7731
  853MOL0     H12557  -0.685   4.626   8.740 -0.7683  0.1660 -1.0244
  853MOL0     H12558  -1.131   4.644   8.702  1.0790  0.9894  0.8692
  853MOL0     H12559  -1.215   4.790   8.527  2.0578  2.5792  1.6829
  853MOL0     H12560  -0.886   4.723   7.965  0.1972  0.5337  0.7460
  853MOL0     H12561  -0.923   4.761   7.732 -0.0442 -2.1412  0.9489
  853MOL0     H12562  -1.299   4.847   7.674  0.2167  3.4584  2.6162
  853MOL0     H12563  -1.260   4.864   7.492 -1.8284  3.1325 -1.2111
  853MOL0     H12564  -1.262   5.074   7.481  0.8619  0.7494 -0.6442
  853MOL0     H12565  -1.315   5.095   7.650  0.0363  1.0146 -1.1319
  853MOL0     H12566  -1.528   5.005   7.613 -0.9593  2.1377  0.5233
  853MOL0     H12567  -1.482   4.913   7.472  3.9177  0.6892 -2.3138
  853MOL0     H12568  -1.524   5.220   7.485  1.3552  0.3559 -0.6909
  853MOL0     H12569  -1.483   5.138   7.342 -1.8091  0.7142 -0.8551
  853MOL0     H12570  -1.727   5.090   7.506  1.3817  0.6397  1.4821
  853MOL0     H12571  -1.681   5.006   7.349 -1.5372  0.7438  0.6425
  853MOL0     H12572  -1.662   5.245   7.260  1.1681  0.9816  2.4765
  853MOL0     H12573  -1.767   5.299   7.367 -1.2182  0.3548 -2.2607
  853MOL0     H12574  -1.860   5.048   7.214  0.4261  0.9620 -1.0973
  853MOL0     H12575  -1.935   5.118   7.358  0.6690  1.1170  0.6841
  853MOL0     H12576  -1.970   5.329   7.197  1.3873  1.6152 -4.7281
  853MOL0     H12577  -2.028   5.176   7.124  0.6991 -0.1080 -2.3410
  853MOL0     H12578  -1.217   5.062   7.833  0.1585  1.9268  4.3059
  853MOL0     H12579  -1.200   5.000   8.071  0.2254  2.8801 -2.2421
  853MOL0     H12580  -0.830   4.736   8.332 -0.1376 -0.8651 -0.0513
  853MOL0     H12581  -0.746   4.624   8.507  0.8585  2.4379  0.8390
  853MOL0     H12582   0.805   4.522   8.832 -0.2760 -1.4949  0.3724
  853MOL0     H12583   0.995   4.404   8.734  2.7122  0.4456 -0.0573
  853MOL0     H12584   1.554   4.179   8.972  2.4285 -1.6741 -0.1834
  853MOL0     H12585   1.682   4.031   8.860 -0.2599 -2.2252 -2.0495
  853MOL0     H12586   1.801   3.926   8.730  1.3313  0.6755 -0.2552
  853MOL0     H12587   1.859   3.953   8.564 -1.9079 -1.0285 -4.7663
  853MOL0     H12588   1.673   3.719   8.640  1.1544 -0.5029  1.7497
  853MOL0     H12589   1.769   3.741   8.492 -0.9626  1.4877 -0.7632
  853MOL0     H12590   1.971   3.739   8.676  0.2496  1.4702  1.8874
  853MOL0     H12591   1.907   3.584   8.645 -0.2639  0.7824 -0.0965
  853MOL0     H12592   1.929   3.607   8.881  1.6372  1.1701 -1.6866
  853MOL0     H12593   1.810   3.737   8.884 -3.4393 -0.8312 -1.5943
  853MOL0     H12594   1.550   3.413   8.816  0.5247 -1.3411  0.2460
  853MOL0     H12595   1.450   4.087   8.500 -3.0469  1.2733  0.4168
  853MOL0     H12596   1.308   4.239   8.627 -0.3719  0.3606  0.2963
  854MOL0     O12597   4.694   3.879   9.942  0.2725  0.6078  0.0129
  854MOL0     C12598   4.723   3.916   9.828  0.1304  1.0111  0.2013
  854MOL0     O12599   4.793   4.034   9.792  0.3130 -0.2159 -0.0076
  854MOL0     C12600   4.853   4.099   9.896  0.5131 -0.4685 -0.1661
  854MOL0     C12601   4.998   4.097   9.894  0.1606  1.5352  0.1053
  854MOL0     C12602   5.070   4.169   9.996  0.8517  0.0640 -0.2752
  854MOL0     C12603   4.998   4.252  10.092 -0.2675  0.3085  0.2481
  854MOL0     O12604   5.084   4.315  10.179 -0.7777  0.6956  0.2677
  854MOL0     C12605   5.024   4.400  10.281 -0.4119  0.8113  0.3053
  854MOL0     C12606   5.125   4.494  10.362 -0.2681 -0.0004  0.2578
  854MOL0     C12607   5.243   4.423  10.429  1.4257  0.4321  0.3723
  854MOL0     C12608   5.228   4.428  10.579  0.4792 -1.0087 -0.0132
  854MOL0     C12609   5.316   4.341  10.662 -0.5360 -0.0383  0.2186
  854MOL0     C12610   5.274   4.196  10.675 -0.6918  1.5182  0.0651
  854MOL0     C12611   5.350   4.139  10.804  0.3411 -0.5794  0.0860
  854MOL0     C12612   5.316   3.985  10.834  0.3179 -0.5020  0.5216
  854MOL0     N12613   5.433   3.925  10.901  0.5404 -0.4570 -0.0671
  854MOL0     C12614   5.544   3.856  10.843  0.3906  0.0014  0.5366
  854MOL0     C12615   5.594   3.794  10.955 -0.0480  0.1374 -0.7085
  854MOL0     C12616   5.711   3.696  10.960 -0.4297 -0.1953  0.3554
  854MOL0     C12617   5.646   3.557  10.940  0.0587 -0.9345  0.2851
  854MOL0     C12618   5.732   3.433  10.956 -1.2774 -0.3418  0.2244
  854MOL0     C12619   5.805   3.432  11.090 -0.6623 -0.5381 -0.1098
  854MOL0     O12620   5.846   3.307  11.135 -0.2579  0.4616 -0.0695
  854MOL0     C12621   5.969   3.248  11.106  0.1420 -0.7961 -0.3061
  854MOL0     C12622   6.065   3.307  11.021 -0.5308  0.1007  0.0977
  854MOL0     C12623   6.190   3.258  11.010 -0.7428  0.0693  0.4267
  854MOL0     C12624   6.222   3.133  11.066  0.0232 -2.0488  0.7037
  854MOL0     C12625   6.353   3.075  11.039 -0.4427  1.0627  0.0881
  854MOL0     O12626   6.451   3.148  10.973 -0.0146 -0.1836 -0.0424
  854MOL0     C12627   6.573   3.096  10.945  0.1658  0.3518  0.4934
  854MOL0     C12628   6.579   2.975  10.872 -1.2497  1.0282 -0.6752
  854MOL0     C12629   6.699   2.919  10.823 -0.0384 -0.8020 -0.6010
  854MOL0     C12630   6.827   2.982  10.847 -0.0770 -0.5262 -0.7135
  854MOL0     O12631   6.933   2.918  10.791 -0.5473  0.3153  0.0706
  854MOL0     C12632   7.021   2.991  10.714  1.0478  0.5636  0.8633
  854MOL0     C12633   7.129   2.905  10.655 -0.3206 -0.4261 -0.1144
  854MOL0     C12634   7.210   2.997  10.558 -0.2003 -1.1038  0.2185
  854MOL0     C12635   7.325   2.901  10.501 -1.2165 -0.6577 -0.3227
  854MOL0     C12636   7.440   2.979  10.440 -0.9120  0.3172 -0.0443
  854MOL0     C12637   7.563   2.889  10.410  0.2929 -0.2399  0.4226
  854MOL0     C12638   7.670   2.952  10.322 -0.5027  0.9036  0.0550
  854MOL0     C12639   7.777   2.857  10.261 -0.5051  0.3711  0.2501
  854MOL0    Cl12640   7.898   2.766  10.348 -0.0840 -0.5823  0.1313
  854MOL0     C12641   6.820   3.110  10.911 -0.2808 -1.4313 -0.1291
  854MOL0     C12642   6.693   3.172  10.946  0.1151 -1.0526 -0.8350
  854MOL0     O12643   6.366   2.955  11.076  0.1864 -0.0185 -0.0108
  854MOL0     C12644   6.130   3.073  11.151  0.6327 -0.0685 -0.3582
  854MOL0     C12645   5.997   3.128  11.164  0.1101  0.1863  0.3410
  854MOL0     N12646   5.521   3.821  11.069 -0.4697  0.5272 -1.4215
  854MOL0     N12647   5.431   3.899  11.036  1.2084 -0.0791 -0.0731
  854MOL0     C12648   4.853   4.254  10.099  0.3528 -0.1797 -0.4687
  854MOL0     C12649   4.781   4.177   9.997  0.2926 -0.3554 -0.2306
  854MOL0     C12650   4.674   3.833   9.710 -0.6245 -0.6797  0.3931
  854MOL0     C12651   4.717   3.867   9.578  0.8607 -0.8989 -0.1888
  854MOL0     C12652   4.685   3.783   9.469  0.0688  0.5953 -0.4652
  854MOL0     C12653   4.611   3.666   9.491 -1.3258  0.0365  0.4499
  854MOL0     O12654   4.561   3.604   9.380  0.0583  0.3483 -0.0712
  854MOL0     C12655   4.455   3.679   9.320  0.6364 -0.6179 -0.2500
  854MOL0     C12656   4.346   3.579   9.282 -1.9272 -0.2482  0.1795
  854MOL0     C12657   4.306   3.588   9.131 -0.0811 -0.0108 -0.0221
  854MOL0     C12658   4.242   3.450   9.110  0.3002 -0.5435  0.8214
  854MOL0     C12659   4.156   3.447   8.992  0.5351 -1.1373 -0.1491
  854MOL0     C12660   4.081   3.447   8.896  0.7650  0.1139  0.6794
  854MOL0     C12661   4.568   3.624   9.622  1.1678 -0.3077  0.7530
  854MOL0     C12662   4.602   3.712   9.729  0.6752 -0.5184  0.8682
  854MOL0     H12663   5.046   4.051   9.808 -1.5374 -0.5623  0.1946
  854MOL0     H12664   5.178   4.163   9.994  1.0999  1.9843 -4.6871
  854MOL0     H12665   4.970   4.343  10.357  1.6232  0.3605  1.4873
  854MOL0     H12666   4.972   4.471  10.217 -0.8222 -0.2687 -0.6097
  854MOL0     H12667   5.060   4.551  10.429 -1.1165  0.1364 -0.6519
  854MOL0     H12668   5.174   4.561  10.291  0.0228 -2.1400 -1.6805
  854MOL0     H12669   5.340   4.464  10.401  1.5052  1.1318  1.6056
  854MOL0     H12670   5.244   4.320  10.393  0.9121 -0.1933  2.0258
  854MOL0     H12671   5.246   4.532  10.607  0.0839 -0.8277 -0.4195
  854MOL0     H12672   5.126   4.404  10.611  1.3234  0.0896  4.1789
  854MOL0     H12673   5.326   4.379  10.764  2.1982 -1.5357  0.6059
  854MOL0     H12674   5.417   4.348  10.620 -1.0654 -3.9853 -2.2694
  854MOL0     H12675   5.304   4.135  10.590  3.1663  1.9809  0.8973
  854MOL0     H12676   5.167   4.182  10.695 -0.2119 -1.4987  0.8938
  854MOL0     H12677   5.458   4.147  10.784  0.3409 -0.1621  0.2522
  854MOL0     H12678   5.328   4.207  10.887  0.9819  1.6879 -1.4884
  854MOL0     H12679   5.282   3.929  10.746 -1.9783  0.5053  0.7137
  854MOL0     H12680   5.226   3.989  10.895 -1.8893 -3.9616 -2.1211
  854MOL0     H12681   5.587   3.835  10.746  3.2360  0.8483  1.4992
  854MOL0     H12682   5.770   3.688  11.052 -0.2533  1.5877  0.4297
  854MOL0     H12683   5.778   3.721  10.878 -1.6416 -0.2365 -0.6776
  854MOL0     H12684   5.602   3.566  10.841  1.2699 -0.4117 -0.2275
  854MOL0     H12685   5.568   3.544  11.015  0.0077  1.6177  0.7677
  854MOL0     H12686   5.660   3.352  10.947 -1.6903 -0.0055  0.4553
  854MOL0     H12687   5.802   3.413  10.875 -0.9340 -0.9662  0.6746
  854MOL0     H12688   5.738   3.476  11.165 -0.9750 -0.1112 -0.6355
  854MOL0     H12689   5.892   3.497  11.073 -1.7587  0.5853 -1.7438
  854MOL0     H12690   6.035   3.394  10.963 -1.0489 -0.5360 -0.6094
  854MOL0     H12691   6.263   3.305  10.945 -2.1698  0.2655 -1.0847
  854MOL0     H12692   6.489   2.916  10.862 -1.4472  1.1749  0.1026
  854MOL0     H12693   6.690   2.838  10.752  3.7214 -0.1648 -2.0076
  854MOL0     H12694   7.064   3.082  10.759  0.1640  2.3353 -1.6322
  854MOL0     H12695   6.973   3.041  10.630  0.8993 -2.3206 -0.8914
  854MOL0     H12696   7.082   2.821  10.602 -1.7797 -1.1558  2.2038
  854MOL0     H12697   7.202   2.867  10.726  2.3277  0.5511 -2.1467
  854MOL0     H12698   7.258   3.081  10.609 -4.4479 -1.0653  4.8890
  854MOL0     H12699   7.152   3.037  10.474 -0.2846 -0.7978  0.4246
  854MOL0     H12700   7.369   2.831  10.572  1.8767  0.7235 -0.7459
  854MOL0     H12701   7.284   2.852  10.412 -0.8154 -2.0475  0.2365
  854MOL0     H12702   7.477   3.064  10.498  2.1341  0.6469 -2.2398
  854MOL0     H12703   7.405   3.027  10.349  1.5065  2.1234 -0.1140
  854MOL0     H12704   7.511   2.803  10.368  1.1963 -1.0024  0.8278
  854MOL0     H12705   7.612   2.858  10.503  0.0545 -0.2672  0.5395
  854MOL0     H12706   7.610   3.017  10.257 -3.7622 -0.0908  1.8132
  854MOL0     H12707   7.717   3.023  10.390  0.2343 -0.9267  1.5263
  854MOL0     H12708   7.833   2.925  10.196  2.0295  0.8119  2.7214
  854MOL0     H12709   7.727   2.777  10.206  0.9067 -1.2065  1.1515
  854MOL0     H12710   6.904   3.177  10.927 -0.0227 -2.0132  1.0941
  854MOL0     H12711   6.704   3.274  10.982  0.0649 -1.7640  1.3165
  854MOL0     H12712   6.148   2.974  11.190 -1.6269 -1.2771 -2.1294
  854MOL0     H12713   5.924   3.074  11.224 -0.3677 -0.1274 -0.4982
  854MOL0     H12714   4.804   4.308  10.179  2.9938  1.8711 -0.0878
  854MOL0     H12715   4.673   4.171   9.991  0.3168 -1.5039  0.1472
  854MOL0     H12716   4.777   3.955   9.557 -0.1096 -0.2674 -0.4151
  854MOL0     H12717   4.707   3.813   9.367 -0.1566  2.0330 -0.1032
  854MOL0     H12718   4.497   3.717   9.227  2.9929 -1.5513  0.3521
  854MOL0     H12719   4.413   3.759   9.381 -2.4295 -0.8822 -1.8338
  854MOL0     H12720   4.385   3.480   9.309  0.4069  0.4299 -0.4794
  854MOL0     H12721   4.250   3.587   9.335 -1.0699  1.9635  1.5030
  854MOL0     H12722   4.384   3.592   9.054  0.0184  2.3322  0.1346
  854MOL0     H12723   4.231   3.667   9.132  0.9560  0.9910  0.1450
  854MOL0     H12724   4.320   3.381   9.077  1.1166  1.5069 -1.9258
  854MOL0     H12725   4.187   3.420   9.200 -0.6795 -0.5019  0.2486
  854MOL0     H12726   4.003   3.449   8.823  1.1106 -1.7279  0.2131
  854MOL0     H12727   4.514   3.533   9.646  0.4073 -0.4804 -1.4297
  854MOL0     H12728   4.568   3.684   9.828 -1.2914 -1.8542 -0.1321
  855MOL0     O12729   5.623   0.917   4.044  0.0624 -0.0480 -0.3676
  855MOL0     C12730   5.676   0.814   4.009 -0.7011  0.5661  0.7564
  855MOL0     O12731   5.667   0.683   4.057 -0.5590 -0.1197 -0.2445
  855MOL0     C12732   5.567   0.636   4.140  0.2546 -0.4005  0.5336
  855MOL0     C12733   5.591   0.527   4.223 -1.3140  0.5151 -0.3592
  855MOL0     C12734   5.498   0.499   4.318 -0.2375 -0.4220 -0.7795
  855MOL0     C12735   5.374   0.553   4.322  0.1269  0.7427  0.7210
  855MOL0     O12736   5.282   0.511   4.405  0.3957 -0.1563  0.7213
  855MOL0     C12737   5.297   0.489   4.545 -0.0484 -0.2957 -0.6251
  855MOL0     C12738   5.161   0.459   4.616 -0.5457  0.8298  0.1701
  855MOL0     C12739   5.102   0.326   4.565 -0.1656 -0.9019 -0.3270
  855MOL0     C12740   4.987   0.257   4.633  0.7826 -0.0309 -0.1023
  855MOL0     C12741   4.951   0.123   4.566  0.4778 -0.3081 -0.3188
  855MOL0     C12742   4.798   0.097   4.570 -0.0998 -0.2420  0.4435
  855MOL0     C12743   4.742   0.077   4.708  0.4134  0.7306  0.3588
  855MOL0     C12744   4.799  -0.050   4.783 -0.7787 -0.1369 -0.1822
  855MOL0     N12745   4.730  -0.103   4.910 -0.1851 -0.3347 -0.7993
  855MOL0     C12746   4.610  -0.173   4.914 -0.2845 -0.0621  0.1465
  855MOL0     C12747   4.593  -0.231   5.034  0.7725  0.9201  0.7998
  855MOL0     C12748   4.472  -0.316   5.064 -0.6269 -0.0749 -0.3355
  855MOL0     C12749   4.356  -0.211   5.084 -0.1491  0.8540  0.0089
  855MOL0     C12750   4.370  -0.126   5.208 -0.0683  0.1880  0.4594
  855MOL0     C12751   4.243  -0.041   5.216 -0.3685 -0.1157 -0.5594
  855MOL0     O12752   4.271   0.088   5.273  0.5632 -0.6465  0.1632
  855MOL0     C12753   4.169   0.178   5.258  0.0861  0.0357 -0.5149
  855MOL0     C12754   4.125   0.243   5.378 -0.2676  0.2495  0.0976
  855MOL0     C12755   4.021   0.340   5.382  0.2607 -1.1560  0.6974
  855MOL0     C12756   3.950   0.373   5.268 -0.4032  0.2207  0.4641
  855MOL0     C12757   3.839   0.463   5.267 -0.9347  0.0703  0.2676
  855MOL0     O12758   3.781   0.513   5.385  0.4639  0.0881 -0.2351
  855MOL0     C12759   3.660   0.579   5.385 -0.7730 -0.0914 -0.3733
  855MOL0     C12760   3.653   0.692   5.455 -0.4437 -0.0453 -0.0960
  855MOL0     C12761   3.542   0.773   5.455  0.3234  0.1951 -0.0535
  855MOL0     C12762   3.432   0.746   5.376 -0.2397  1.4356  1.4905
  855MOL0     O12763   3.334   0.844   5.380 -0.0845 -0.4574  0.0705
  855MOL0     C12764   3.267   0.864   5.263  0.3586  0.4716  0.6783
  855MOL0     C12765   3.167   0.972   5.282  0.5834 -0.6601  1.1182
  855MOL0     C12766   3.054   0.931   5.384  0.2742 -0.5734 -0.3112
  855MOL0     C12767   2.959   1.054   5.411  0.5945  0.3422 -0.2954
  855MOL0     C12768   2.823   1.004   5.489 -0.0507 -0.2724  0.2694
  855MOL0     C12769   2.735   1.126   5.514  0.1080  0.5221 -0.2364
  855MOL0     C12770   2.609   1.096   5.594  0.2552  0.3372 -0.0436
  855MOL0     C12771   2.513   1.022   5.511  0.1625  0.2775  0.3937
  855MOL0    Cl12772   2.441   0.903   5.615  0.1283 -0.3452  0.0987
  855MOL0     C12773   3.427   0.619   5.303 -0.0203 -0.9498  0.0804
  855MOL0     C12774   3.549   0.546   5.312  0.8715  0.8020  0.6991
  855MOL0     O12775   3.803   0.499   5.157  0.2049 -0.0733 -0.1993
  855MOL0     C12776   4.000   0.319   5.150 -1.8470  0.0895 -0.0043
  855MOL0     C12777   4.107   0.224   5.143  0.3705  0.1913  0.2170
  855MOL0     N12778   4.707  -0.210   5.101  1.1594  0.4459  0.1749
  855MOL0     N12779   4.788  -0.125   5.037  0.5440  0.4512  0.4081
  855MOL0     C12780   5.329   0.638   4.219 -0.0836  0.0221 -0.4761
  855MOL0     C12781   5.431   0.693   4.138 -0.1041 -1.4735 -0.4505
  855MOL0     C12782   5.753   0.834   3.879 -0.1692  0.5583  1.2078
  855MOL0     C12783   5.728   0.948   3.800  0.2613 -1.1893 -0.2916
  855MOL0     C12784   5.823   0.975   3.694 -0.6045  0.0068 -0.1693
  855MOL0     C12785   5.931   0.885   3.667 -0.0451 -0.1212  0.3374
  855MOL0     O12786   6.004   0.933   3.561  0.1159  0.4202  0.1223
  855MOL0     C12787   6.143   0.892   3.553 -0.8360 -0.1500  0.2178
  855MOL0     C12788   6.164   0.767   3.463  0.0700 -0.8489  0.1354
  855MOL0     C12789   6.106   0.778   3.315 -0.9556  0.1081 -0.6451
  855MOL0     C12790   6.150   0.655   3.235  0.0605 -0.3896  0.3278
  855MOL0     C12791   6.294   0.658   3.211 -0.5492  1.0041 -0.3770
  855MOL0     C12792   6.414   0.665   3.207  0.1617 -0.2313  0.0542
  855MOL0     C12793   5.950   0.769   3.741 -0.3143 -1.0857 -0.5503
  855MOL0     C12794   5.861   0.742   3.842  0.0927 -0.8472 -0.0038
  855MOL0     H12795   5.689   0.479   4.222 -2.4527 -2.0706 -2.9340
  855MOL0     H12796   5.517   0.431   4.400 -2.2255 -1.9893 -1.5282
  855MOL0     H12797   5.341   0.577   4.593 -0.1172  1.3105 -3.2926
  855MOL0     H12798   5.359   0.404   4.575  0.5505  0.2422 -0.3016
  855MOL0     H12799   5.107   0.550   4.591  2.4541  2.4900 -0.7334
  855MOL0     H12800   5.179   0.455   4.724  0.2382 -3.6599  0.0781
  855MOL0     H12801   5.184   0.256   4.545 -0.8229 -1.4818 -1.1080
  855MOL0     H12802   5.048   0.348   4.473 -5.4969  2.8826  3.1003
  855MOL0     H12803   5.000   0.247   4.741 -1.1005 -1.3005  0.0626
  855MOL0     H12804   4.894   0.314   4.627  1.9597  2.0640  0.8277
  855MOL0     H12805   5.014   0.048   4.616  0.5109 -0.6921 -0.9299
  855MOL0     H12806   4.968   0.130   4.459  0.0746 -0.1223 -0.3722
  855MOL0     H12807   4.792   0.002   4.516  0.7813 -0.4183  0.6401
  855MOL0     H12808   4.745   0.173   4.511  0.4385  1.5322  2.1398
  855MOL0     H12809   4.750   0.178   4.749 -0.1637  0.4802  1.1015
  855MOL0     H12810   4.638   0.047   4.693  0.9090 -2.8580  2.9052
  855MOL0     H12811   4.900  -0.016   4.810 -1.3429  1.2886  0.2234
  855MOL0     H12812   4.794  -0.131   4.710  2.5677  0.4769 -1.2673
  855MOL0     H12813   4.545  -0.162   4.828 -1.0692  2.4402  0.9798
  855MOL0     H12814   4.475  -0.370   5.159 -2.1261  2.1782  1.0709
  855MOL0     H12815   4.447  -0.377   4.976  1.1648 -1.3392 -0.0225
  855MOL0     H12816   4.265  -0.271   5.095  1.0978 -0.9534  1.1135
  855MOL0     H12817   4.339  -0.157   4.991 -1.1475  0.3905 -0.1001
  855MOL0     H12818   4.391  -0.187   5.297  1.2939 -3.2391 -1.9990
  855MOL0     H12819   4.452  -0.056   5.188 -0.1033 -0.7272 -3.6902
  855MOL0     H12820   4.171  -0.095   5.279 -0.2675 -0.3102 -0.6095
  855MOL0     H12821   4.199  -0.034   5.116  0.6198  1.4154 -0.9159
  855MOL0     H12822   4.175   0.218   5.471  0.5556 -0.5127 -0.5312
  855MOL0     H12823   4.004   0.399   5.472 -0.6733  0.7199 -0.6432
  855MOL0     H12824   3.737   0.723   5.517 -1.5221  2.4043  0.2592
  855MOL0     H12825   3.544   0.857   5.523 -1.3771  0.2864 -0.0892
  855MOL0     H12826   3.223   0.773   5.222  1.9402  0.0982 -0.2279
  855MOL0     H12827   3.339   0.885   5.184  1.9086 -3.2978  0.8675
  855MOL0     H12828   3.126   0.988   5.182 -0.0672 -1.1796  1.2996
  855MOL0     H12829   3.207   1.069   5.315 -0.4939 -0.1211  0.8836
  855MOL0     H12830   3.101   0.901   5.477  2.4012 -0.3427 -1.2566
  855MOL0     H12831   3.005   0.845   5.339 -1.2709 -0.4933  1.1273
  855MOL0     H12832   3.016   1.128   5.468  2.7777 -2.2210  1.0633
  855MOL0     H12833   2.932   1.098   5.315  1.1686 -0.7939 -1.0033
  855MOL0     H12834   2.849   0.940   5.573  0.5323 -2.6709 -1.6209
  855MOL0     H12835   2.786   0.930   5.417  2.8621 -1.9805  0.3994
  855MOL0     H12836   2.711   1.183   5.424  0.5278  1.4912  0.2482
  855MOL0     H12837   2.795   1.187   5.583  2.8363 -2.6473  0.4506
  855MOL0     H12838   2.644   1.037   5.679  2.0684 -1.6411 -2.0239
  855MOL0     H12839   2.566   1.191   5.627 -0.4022 -0.1171  0.4338
  855MOL0     H12840   2.563   0.970   5.429  0.7969 -0.7744  1.4143
  855MOL0     H12841   2.441   1.092   5.467 -0.2890 -0.6455 -0.3779
  855MOL0     H12842   3.347   0.582   5.240 -1.4386 -1.9115  2.3194
  855MOL0     H12843   3.556   0.451   5.260 -4.2674 -0.7810  2.3273
  855MOL0     H12844   3.949   0.347   5.059 -0.7439  0.5732 -0.4983
  855MOL0     H12845   4.125   0.181   5.044  2.5663  0.3613  0.4836
  855MOL0     H12846   5.231   0.683   4.209 -1.1035 -2.0399 -0.3004
  855MOL0     H12847   5.395   0.760   4.059  1.5184  0.0610  0.0522
  855MOL0     H12848   5.656   1.017   3.840  1.6092  1.9438 -2.8429
  855MOL0     H12849   5.810   1.063   3.631 -0.4140 -3.1732 -5.2482
  855MOL0     H12850   6.182   0.892   3.656 -2.6847  3.4341  1.0726
  855MOL0     H12851   6.199   0.970   3.500  2.5289 -2.9660 -0.7418
  855MOL0     H12852   6.271   0.746   3.468 -0.3451 -3.0828  0.9532
  855MOL0     H12853   6.112   0.682   3.509  1.5256 -1.1865  1.2172
  855MOL0     H12854   6.121   0.870   3.258 -0.0032 -0.0774 -0.7152
  855MOL0     H12855   5.998   0.764   3.319 -1.1246  1.2821 -0.8034
  855MOL0     H12856   6.128   0.559   3.283  2.6150 -0.6821  1.0427
  855MOL0     H12857   6.092   0.643   3.143 -0.0162 -0.2940  0.3628
  855MOL0     H12858   6.521   0.661   3.205  0.1735 -2.3365 -3.4498
  855MOL0     H12859   6.031   0.699   3.727 -1.0352 -1.8048 -1.2551
  855MOL0     H12860   5.870   0.654   3.905 -1.1053  0.0074  1.4221
  856MOL0     O12861   7.347   8.292   8.431  0.3257  0.2585  0.8054
  856MOL0     C12862   7.408   8.392   8.461 -0.2833  0.3374 -0.1558
  856MOL0     O12863   7.457   8.486   8.378 -0.2950  0.2561  0.3744
  856MOL0     C12864   7.489   8.454   8.243  0.0690  0.4265  0.3841
  856MOL0     C12865   7.582   8.356   8.205  0.6444 -0.2303 -0.5789
  856MOL0     C12866   7.621   8.332   8.079 -0.1332 -1.1688 -0.3601
  856MOL0     C12867   7.584   8.419   7.985 -0.8915 -0.4489  0.5136
  856MOL0     O12868   7.641   8.380   7.862  0.0840 -0.4364  0.2710
  856MOL0     C12869   7.647   8.490   7.765  0.3386 -0.6442 -0.7033
  856MOL0     C12870   7.706   8.469   7.624 -0.8014 -0.3986 -0.2203
  856MOL0     C12871   7.858   8.498   7.619 -0.6825 -0.0548  0.1400
  856MOL0     C12872   7.910   8.484   7.471  0.2705 -0.5829 -0.3076
  856MOL0     C12873   8.065   8.516   7.467  0.5869 -0.0650 -0.1435
  856MOL0     C12874   8.077   8.670   7.459 -0.4075  1.2747  0.4611
  856MOL0     C12875   8.229   8.707   7.433  0.9724  0.7203 -0.8663
  856MOL0     C12876   8.250   8.851   7.482 -0.3828 -0.0373 -0.5156
  856MOL0     N12877   8.374   8.915   7.440 -0.9084 -0.5953  0.3408
  856MOL0     C12878   8.469   8.972   7.519  0.4940 -0.6372  0.5798
  856MOL0     C12879   8.575   8.978   7.438  0.0198 -0.1883 -0.1249
  856MOL0     C12880   8.704   9.023   7.506  0.1221  0.0858  1.1427
  856MOL0     C12881   8.839   8.982   7.439 -0.3391 -0.1233  0.4475
  856MOL0     C12882   8.953   9.056   7.497 -0.2621  0.5529  0.7118
  856MOL0     C12883   9.083   9.030   7.417 -0.4139  0.7436 -0.2114
  856MOL0     O12884   9.192   9.104   7.485 -0.3021 -0.3258 -0.7642
  856MOL0     C12885   9.289   9.141   7.399 -0.2860 -0.3272 -0.3920
  856MOL0     C12886   9.288   9.269   7.343 -0.5045  0.6633  0.1181
  856MOL0     C12887   9.395   9.318   7.270 -0.8548  0.1993 -0.4393
  856MOL0     C12888   9.512   9.231   7.260  0.2110 -0.6610  0.4932
  856MOL0     C12889   9.637   9.271   7.187 -0.2352  0.6100  0.7033
  856MOL0     O12890   9.645   9.411   7.173 -0.9387  0.2989  1.1094
  856MOL0     C12891   9.748   9.451   7.092  0.0084  0.4725  0.3969
  856MOL0     C12892   9.729   9.481   6.957 -0.5431  0.4392  0.3659
  856MOL0     C12893   9.842   9.534   6.888 -0.5467  0.2738 -0.2585
  856MOL0     C12894   9.970   9.544   6.960 -0.3038  0.8309  0.1321
  856MOL0     O12895  10.089   9.603   6.912  0.1851 -0.2268  0.2546
  856MOL0     C12896  10.100   9.620   6.772 -0.2212  0.6856  0.3114
  856MOL0     C12897  10.253   9.659   6.734  0.1395  1.0968  0.6208
  856MOL0     C12898  10.329   9.530   6.684 -0.6585 -0.4418 -0.5554
  856MOL0     C12899  10.482   9.553   6.690 -0.4304  0.0275  0.7418
  856MOL0     C12900  10.565   9.419   6.700  0.4629 -0.0568  0.9221
  856MOL0     C12901  10.555   9.298   6.593 -0.1274  0.1950  0.5300
  856MOL0     C12902  10.408   9.225   6.596 -0.5772  0.6581  0.4072
  856MOL0     C12903  10.398   9.127   6.486 -0.7800  0.2920  0.0205
  856MOL0    Cl12904  10.403   9.208   6.312 -0.2295  0.1428 -0.5966
  856MOL0     C12905   9.974   9.510   7.093 -0.2856  0.5092  0.7129
  856MOL0     C12906   9.860   9.468   7.155  0.2354  0.0588 -0.4593
  856MOL0     O12907   9.722   9.187   7.161 -0.2623  0.2232  1.1582
  856MOL0     C12908   9.514   9.112   7.325  0.4533 -0.2191  0.4236
  856MOL0     C12909   9.405   9.065   7.386 -0.4976 -0.1498  0.1057
  856MOL0     N12910   8.554   8.919   7.319 -0.3612  0.1125 -0.8374
  856MOL0     N12911   8.437   8.877   7.318 -0.8922  0.3499 -0.0706
  856MOL0     C12912   7.489   8.519   8.009  0.3809  1.0094 -0.1054
  856MOL0     C12913   7.439   8.540   8.144  0.0136  0.0172 -0.1895
  856MOL0     C12914   7.438   8.416   8.598  0.8894 -0.5685 -0.6180
  856MOL0     C12915   7.369   8.355   8.712  0.5215  0.5337  0.9639
  856MOL0     C12916   7.399   8.376   8.843  0.7782 -0.6865  0.6217
  856MOL0     C12917   7.505   8.467   8.869 -0.1451 -0.6180 -0.4536
  856MOL0     O12918   7.556   8.492   8.990  0.5006 -0.6235 -0.1550
  856MOL0     C12919   7.496   8.439   9.108 -0.6060  0.2509 -0.0768
  856MOL0     C12920   7.378   8.516   9.166 -0.3509 -0.0578 -0.1661
  856MOL0     C12921   7.398   8.662   9.165 -0.7252 -0.5811 -0.7780
  856MOL0     C12922   7.511   8.704   9.268 -0.2743  0.9963 -0.3141
  856MOL0     C12923   7.464   8.683   9.404 -0.6043  1.0370 -0.1794
  856MOL0     C12924   7.415   8.688   9.519  0.7928  0.3631  0.3391
  856MOL0     C12925   7.568   8.528   8.756 -0.7427 -0.5806 -0.4271
  856MOL0     C12926   7.535   8.511   8.627 -0.2910 -0.1645 -0.1234
  856MOL0     H12927   7.633   8.305   8.286 -3.0539 -1.2504  1.3051
  856MOL0     H12928   7.692   8.256   8.050 -0.5167 -1.1359 -1.4087
  856MOL0     H12929   7.696   8.572   7.818 -0.3539 -1.4097  1.2028
  856MOL0     H12930   7.546   8.526   7.745  0.2750  1.4445  2.5548
  856MOL0     H12931   7.658   8.540   7.555 -1.3894 -0.7260 -0.1577
  856MOL0     H12932   7.684   8.366   7.598  2.0610 -1.7399  2.0842
  856MOL0     H12933   7.908   8.432   7.691  0.6146  0.3452 -0.3602
  856MOL0     H12934   7.869   8.603   7.647  0.1536  0.0891 -0.6730
  856MOL0     H12935   7.890   8.382   7.435 -3.6548  0.4315 -1.5141
  856MOL0     H12936   7.854   8.549   7.403 -2.8668 -0.6929  1.9658
  856MOL0     H12937   8.107   8.473   7.375 -1.6550  0.5344 -1.5117
  856MOL0     H12938   8.122   8.475   7.551 -2.1097 -0.8712  1.3971
  856MOL0     H12939   8.045   8.730   7.544  0.8784 -0.1893  2.0466
  856MOL0     H12940   8.015   8.694   7.372 -0.8650  1.7066  0.9061
  856MOL0     H12941   8.306   8.639   7.470 -0.8643 -1.8003 -1.4198
  856MOL0     H12942   8.247   8.714   7.326 -2.0573  0.5275 -1.4694
  856MOL0     H12943   8.242   8.860   7.591  1.4165 -0.0654 -0.3547
  856MOL0     H12944   8.175   8.912   7.430  1.3272  1.0146 -1.8598
  856MOL0     H12945   8.469   8.987   7.626  1.0217  1.5833  0.3262
  856MOL0     H12946   8.700   9.003   7.613 -1.1212  4.5856  2.1625
  856MOL0     H12947   8.691   9.130   7.487 -2.0731 -0.6991 -3.0616
  856MOL0     H12948   8.825   8.992   7.330 -0.0529  0.0194  0.4225
  856MOL0     H12949   8.843   8.874   7.455  3.2404 -0.4442 -1.4036
  856MOL0     H12950   8.933   9.163   7.485  0.6922  0.6207 -0.4930
  856MOL0     H12951   8.969   9.022   7.600 -0.3366 -0.2718  0.4608
  856MOL0     H12952   9.064   9.066   7.315  1.4219  0.9101 -0.5289
  856MOL0     H12953   9.107   8.923   7.415  1.6088  1.1591 -0.8327
  856MOL0     H12954   9.205   9.337   7.358  1.2193  2.5541  1.6837
  856MOL0     H12955   9.380   9.415   7.226 -2.0047  0.4518  0.4510
  856MOL0     H12956   9.628   9.486   6.918 -0.4916  2.2711  0.3735
  856MOL0     H12957   9.828   9.554   6.782  3.5584 -0.6531 -1.1610
  856MOL0     H12958  10.046   9.712   6.750  1.2946  2.0268  1.8655
  856MOL0     H12959  10.068   9.533   6.713 -0.0988 -1.2665  2.9576
  856MOL0     H12960  10.303   9.690   6.826  2.2794 -1.1181  0.3047
  856MOL0     H12961  10.263   9.739   6.660  2.9964  2.5127  2.3721
  856MOL0     H12962  10.290   9.507   6.585  0.1980 -1.3951 -0.6821
  856MOL0     H12963  10.314   9.448   6.754  3.4318  1.2529  2.7964
  856MOL0     H12964  10.520   9.604   6.601  3.0563 -1.6759  1.1106
  856MOL0     H12965  10.488   9.622   6.774 -3.2624 -1.4743  2.3357
  856MOL0     H12966  10.542   9.371   6.795  1.0052  1.6870  1.9950
  856MOL0     H12967  10.672   9.440   6.709  0.8631  0.1897 -2.8912
  856MOL0     H12968  10.635   9.227   6.613  2.2946  2.3155 -1.0459
  856MOL0     H12969  10.578   9.334   6.492  1.5542  0.7875  1.0984
  856MOL0     H12970  10.397   9.171   6.690 -2.2418 -1.2379 -0.7907
  856MOL0     H12971  10.330   9.302   6.585 -2.0229 -0.1108  4.0398
  856MOL0     H12972  10.306   9.069   6.499 -1.2345  0.8713 -0.5608
  856MOL0     H12973  10.479   9.054   6.496 -1.5740 -0.3952  2.1396
  856MOL0     H12974  10.064   9.529   7.151 -0.1712 -1.1576  1.1319
  856MOL0     H12975   9.846   9.440   7.259 -1.5616 -0.6280 -0.8505
  856MOL0     H12976   9.602   9.049   7.326 -0.5138 -1.6586 -0.7763
  856MOL0     H12977   9.434   8.970   7.430  0.8761 -0.4539 -1.3673
  856MOL0     H12978   7.459   8.595   7.938  2.8027  1.1534 -1.1090
  856MOL0     H12979   7.369   8.618   8.172  0.9945  0.9199 -0.1640
  856MOL0     H12980   7.283   8.291   8.697  1.5665 -1.2026  2.0157
  856MOL0     H12981   7.341   8.322   8.917  0.2851 -1.1828 -0.1183
  856MOL0     H12982   7.572   8.436   9.186 -1.8125  0.2768  1.1383
  856MOL0     H12983   7.462   8.336   9.091  0.7166 -0.0811 -0.8241
  856MOL0     H12984   7.284   8.486   9.119  0.1914  0.5962 -1.7758
  856MOL0     H12985   7.382   8.481   9.269  1.0867  1.1278  0.2301
  856MOL0     H12986   7.307   8.713   9.200  0.3571  0.3667  0.8082
  856MOL0     H12987   7.417   8.702   9.066 -0.9747 -0.3225 -0.7236
  856MOL0     H12988   7.602   8.649   9.241 -0.1785  1.4817 -1.0035
  856MOL0     H12989   7.524   8.812   9.254  0.0001  0.7587 -2.0306
  856MOL0     H12990   7.369   8.689   9.616  0.6152  1.6179  0.2543
  856MOL0     H12991   7.660   8.579   8.785 -2.1692  1.9506 -0.0297
  856MOL0     H12992   7.594   8.567   8.556 -1.8769 -0.5320 -1.8065
  857MOL0     O12993   4.856   5.391   1.332  0.9022 -0.9099  0.0983
  857MOL0     C12994   4.876   5.318   1.427  0.5166  0.2573  0.5954
  857MOL0     O12995   4.783   5.233   1.479  0.0667  0.1568 -0.2788
  857MOL0     C12996   4.664   5.215   1.420  0.7296 -0.5841  0.1591
  857MOL0     C12997   4.613   5.087   1.400 -0.0721  0.6650  0.1371
  857MOL0     C12998   4.484   5.064   1.353  0.6912 -0.3930  0.5886
  857MOL0     C12999   4.390   5.171   1.342  0.0762 -0.2562 -0.6722
  857MOL0     O13000   4.269   5.156   1.291 -0.1901  0.5923  0.0350
  857MOL0     C13001   4.167   5.224   1.358  0.7853  0.5394 -0.5866
  857MOL0     C13002   4.038   5.159   1.311 -0.6152  0.0749  0.2890
  857MOL0     C13003   3.921   5.256   1.340  0.0382 -0.2383  0.0866
  857MOL0     C13004   3.778   5.200   1.339  0.0575  0.1540 -0.0574
  857MOL0     C13005   3.768   5.095   1.219  0.9242 -0.8646 -0.1944
  857MOL0     C13006   3.623   5.074   1.160 -0.6925  0.4343 -0.7209
  857MOL0     C13007   3.618   5.005   1.035 -0.3612  0.4764 -0.1335
  857MOL0     C13008   3.473   4.989   0.982  0.2064  1.2142  0.4194
  857MOL0     N13009   3.403   5.120   0.960  0.5229  0.4513 -0.8956
  857MOL0     C13010   3.440   5.214   0.861  0.1645 -0.1310 -0.5202
  857MOL0     C13011   3.375   5.324   0.905  0.3358  1.0842  0.4494
  857MOL0     C13012   3.374   5.455   0.841 -0.5110  0.8936  0.9922
  857MOL0     C13013   3.411   5.573   0.939 -0.0199  0.4021 -1.3902
  857MOL0     C13014   3.369   5.708   0.887  0.6200 -0.0011  0.3452
  857MOL0     C13015   3.404   5.740   0.738  0.7511 -0.6427  0.6135
  857MOL0     O13016   3.540   5.721   0.715 -0.1088  0.5807  0.0246
  857MOL0     C13017   3.583   5.728   0.587  0.2196 -0.4190 -0.4169
  857MOL0     C13018   3.505   5.749   0.480  0.6135 -0.9527 -0.1377
  857MOL0     C13019   3.559   5.763   0.352 -0.2606  0.1794 -0.3952
  857MOL0     C13020   3.699   5.759   0.333 -0.5646 -0.4399 -0.5335
  857MOL0     C13021   3.761   5.796   0.208  0.5464 -0.4397  0.2025
  857MOL0     O13022   3.899   5.813   0.209  0.3113 -0.2167 -0.1931
  857MOL0     C13023   3.958   5.861   0.097  0.4235 -1.1464  0.4006
  857MOL0     C13024   3.989   5.998   0.103  0.4085  0.1599  0.4780
  857MOL0     C13025   4.061   6.047   0.002 -0.2903  0.4960  0.0849
  857MOL0     C13026   4.104   5.960  -0.105  0.0705 -0.8131  0.5563
  857MOL0     O13027   4.170   6.003  -0.210 -0.6432 -0.8521  0.5306
  857MOL0     C13028   4.089   6.031  -0.324  0.8000  0.3911  0.0831
  857MOL0     C13029   4.186   6.079  -0.433 -0.2889  0.5356 -0.1759
  857MOL0     C13030   4.292   5.977  -0.473 -0.5058  0.0256  0.7433
  857MOL0     C13031   4.235   5.846  -0.529  0.8024  0.5402 -0.3938
  857MOL0     C13032   4.335   5.761  -0.605  0.5617  0.6698  0.4960
  857MOL0     C13033   4.445   5.701  -0.520 -0.3029 -0.4338 -1.0760
  857MOL0     C13034   4.548   5.615  -0.594 -0.1871  1.0271  0.5614
  857MOL0     C13035   4.622   5.677  -0.713 -0.2056  0.5055 -0.4695
  857MOL0    Cl13036   4.736   5.792  -0.656  0.1605 -0.2762 -0.4967
  857MOL0     C13037   4.075   5.825  -0.100 -0.7962  0.3026 -0.7175
  857MOL0     C13038   4.001   5.777   0.002  0.0153  1.6125  0.5616
  857MOL0     O13039   3.695   5.824   0.111  0.0437  0.2897  0.1421
  857MOL0     C13040   3.772   5.748   0.449 -0.8307 -0.0687 -0.0525
  857MOL0     C13041   3.716   5.727   0.576  0.4081 -0.8188  0.8264
  857MOL0     N13042   3.303   5.299   1.023 -0.2512  0.4182  0.5167
  857MOL0     N13043   3.322   5.176   1.053 -0.0508  0.3274 -0.4017
  857MOL0     C13044   4.434   5.298   1.367 -0.4666  0.2233 -0.5320
  857MOL0     C13045   4.567   5.322   1.417 -0.1950  0.4282 -0.1054
  857MOL0     C13046   5.016   5.298   1.472 -0.0050 -1.3449 -1.4099
  857MOL0     C13047   5.121   5.357   1.406 -0.6940 -1.1996 -0.4232
  857MOL0     C13048   5.248   5.337   1.448 -0.6467 -0.4825 -0.2903
  857MOL0     C13049   5.274   5.257   1.554  0.2185 -0.2906 -0.1310
  857MOL0     O13050   5.406   5.250   1.597  0.4888  0.3636  0.0818
  857MOL0     C13051   5.444   5.133   1.682 -0.3443  0.1797  0.5344
  857MOL0     C13052   5.588   5.152   1.725  0.2761  0.1865 -0.7888
  857MOL0     C13053   5.653   5.040   1.806  0.1598 -0.9246 -0.2357
  857MOL0     C13054   5.785   5.084   1.862  0.7231 -0.1346 -1.0441
  857MOL0     C13055   5.770   5.204   1.950  0.6823  0.9292  0.0170
  857MOL0     C13056   5.775   5.305   2.018  0.0291  0.3993  0.7574
  857MOL0     C13057   5.165   5.180   1.612 -0.3125  0.0901 -0.6042
  857MOL0     C13058   5.039   5.203   1.570 -0.1946 -0.9875 -0.4016
  857MOL0     H13059   4.683   5.009   1.427  1.9002  2.6904  1.1474
  857MOL0     H13060   4.456   4.959   1.347  1.7465 -0.6700  0.3607
  857MOL0     H13061   4.149   5.323   1.315 -3.0751  0.2508 -0.0628
  857MOL0     H13062   4.176   5.237   1.466  0.8315  0.7890 -0.6199
  857MOL0     H13063   4.021   5.062   1.359 -0.0831  0.3051  0.9594
  857MOL0     H13064   4.042   5.134   1.205  2.5644 -1.3998  0.6527
  857MOL0     H13065   3.923   5.332   1.262 -0.3486 -0.5054 -0.1872
  857MOL0     H13066   3.949   5.309   1.431  0.3243  1.6155 -1.0266
  857MOL0     H13067   3.756   5.158   1.438 -0.7056  3.9238  1.5661
  857MOL0     H13068   3.713   5.287   1.326  1.0820  0.9424 -0.0819
  857MOL0     H13069   3.789   4.992   1.250  1.0043 -0.4490  1.1625
  857MOL0     H13070   3.823   5.119   1.127 -0.8842 -2.0197 -1.6624
  857MOL0     H13071   3.579   5.171   1.135 -0.6217  0.4260 -0.8795
  857MOL0     H13072   3.566   5.024   1.238  2.4784 -3.4873 -0.6178
  857MOL0     H13073   3.676   5.064   0.963 -0.8479  2.6613  1.1484
  857MOL0     H13074   3.652   4.902   1.039 -2.6563 -0.4443 -1.8696
  857MOL0     H13075   3.425   4.934   1.063  2.4026 -2.0237 -0.2872
  857MOL0     H13076   3.463   4.940   0.885 -0.3372 -1.8084  1.8745
  857MOL0     H13077   3.501   5.204   0.771 -0.5892  0.9348 -1.1695
  857MOL0     H13078   3.272   5.458   0.801 -0.9138 -2.5122  1.4436
  857MOL0     H13079   3.448   5.443   0.761 -1.2023 -4.3135  0.7675
  857MOL0     H13080   3.517   5.566   0.967 -1.1114 -1.8927  3.2002
  857MOL0     H13081   3.364   5.567   1.038  4.4056 -0.4298  0.9406
  857MOL0     H13082   3.261   5.724   0.880  1.1072  3.4168 -3.2251
  857MOL0     H13083   3.411   5.789   0.947  0.5055  1.0950 -0.9994
  857MOL0     H13084   3.389   5.846   0.718  1.0427 -0.9534 -1.5533
  857MOL0     H13085   3.336   5.686   0.672  0.3978 -0.8049  1.1029
  857MOL0     H13086   3.397   5.745   0.472  0.4036  2.4407 -0.4323
  857MOL0     H13087   3.485   5.775   0.273 -1.9531 -1.5130  0.8454
  857MOL0     H13088   3.957   6.061   0.186 -2.8861 -1.6113  0.7252
  857MOL0     H13089   4.084   6.154  -0.003  1.8577  0.0797 -0.0949
  857MOL0     H13090   4.011   6.106  -0.307 -0.6804 -1.1130  0.2184
  857MOL0     H13091   4.042   5.935  -0.352  1.5508  0.6040 -2.1616
  857MOL0     H13092   4.243   6.165  -0.397 -1.3411  1.2045 -0.0634
  857MOL0     H13093   4.128   6.111  -0.520  0.8152  0.7689 -0.8460
  857MOL0     H13094   4.360   5.935  -0.398  2.2675 -1.5820 -2.4207
  857MOL0     H13095   4.360   6.030  -0.540 -1.2188  2.3038  1.7105
  857MOL0     H13096   4.186   5.781  -0.455 -2.5957  0.8576 -2.1854
  857MOL0     H13097   4.150   5.868  -0.595  0.2071  1.5600  0.6732
  857MOL0     H13098   4.377   5.812  -0.693  2.2750 -2.4347 -0.6532
  857MOL0     H13099   4.288   5.672  -0.648  0.9288  0.9996 -0.6247
  857MOL0     H13100   4.405   5.631  -0.445 -4.3955  2.3214 -0.3870
  857MOL0     H13101   4.488   5.778  -0.455 -2.2001  0.6692 -1.0832
  857MOL0     H13102   4.635   5.580  -0.538  2.4797  1.3459 -3.0794
  857MOL0     H13103   4.495   5.529  -0.636 -1.3975  2.0459 -0.0604
  857MOL0     H13104   4.549   5.721  -0.782  0.8446  1.3031 -1.0869
  857MOL0     H13105   4.687   5.608  -0.767  2.3789  1.9656  0.5878
  857MOL0     H13106   4.117   5.753  -0.169  3.3226  3.1349 -1.5322
  857MOL0     H13107   3.972   5.673   0.015  1.5900  0.5647 -3.1113
  857MOL0     H13108   3.879   5.764   0.455 -0.9061  0.7819 -0.8526
  857MOL0     H13109   3.775   5.720   0.667 -1.9705  1.9805  2.7741
  857MOL0     H13110   4.365   5.379   1.345 -0.5854  0.3534  0.2903
  857MOL0     H13111   4.592   5.428   1.421  1.3173  0.0663  1.3824
  857MOL0     H13112   5.101   5.426   1.324 -2.3048  1.3160  1.8974
  857MOL0     H13113   5.334   5.392   1.409 -1.0222  1.2345  1.1325
  857MOL0     H13114   5.441   5.034   1.636  0.6093 -0.7318  2.3238
  857MOL0     H13115   5.383   5.125   1.772 -0.2258 -3.6207  0.4143
  857MOL0     H13116   5.650   5.161   1.635  1.1477  1.4072 -0.0980
  857MOL0     H13117   5.593   5.252   1.768  1.2305 -0.8154  1.5922
  857MOL0     H13118   5.662   4.950   1.745  0.0906 -1.8567  1.0734
  857MOL0     H13119   5.579   5.026   1.886  1.4358 -0.4619  1.0704
  857MOL0     H13120   5.825   5.005   1.927  0.1042  1.5873  1.5650
  857MOL0     H13121   5.863   5.097   1.786  1.2843 -1.4234 -0.7230
  857MOL0     H13122   5.791   5.393   2.076 -1.3432  2.1766 -1.4131
  857MOL0     H13123   5.188   5.127   1.703  0.0646  0.9522 -0.1879
  857MOL0     H13124   4.957   5.161   1.628 -3.2877  3.4612 -1.0364
  858MOL0     O13125  10.374   6.642   5.499  0.0241  0.8009  0.3482
  858MOL0     C13126  10.444   6.682   5.407 -1.0741  0.5802 -0.3332
  858MOL0     O13127  10.419   6.655   5.270 -0.1586  0.1195 -0.0147
  858MOL0     C13128  10.301   6.599   5.230 -0.1681 -0.0745 -0.0488
  858MOL0     C13129  10.256   6.652   5.112  0.3361  0.1128  0.6659
  858MOL0     C13130  10.152   6.594   5.038  0.1850  0.1460 -0.2783
  858MOL0     C13131  10.096   6.475   5.091 -0.8729 -0.1810 -0.8173
  858MOL0     O13132   9.999   6.407   5.023  0.7299  0.1533 -0.0068
  858MOL0     C13133   9.869   6.475   5.031  0.0061  0.3661 -0.7396
  858MOL0     C13134   9.749   6.401   4.982  0.0933 -0.0720 -0.0134
  858MOL0     C13135   9.740   6.394   4.830 -0.4798 -0.0306 -0.6014
  858MOL0     C13136   9.609   6.317   4.784  0.3569  0.5742 -0.1018
  858MOL0     C13137   9.609   6.335   4.624 -0.0188  0.0623 -0.4507
  858MOL0     C13138   9.559   6.207   4.574 -0.7610  0.8708 -0.5212
  858MOL0     C13139   9.409   6.181   4.618  0.6020  0.3772 -0.1455
  858MOL0     C13140   9.351   6.055   4.564  0.2415 -0.1067  0.0125
  858MOL0     N13141   9.202   6.054   4.555 -0.4663  0.1671  0.0419
  858MOL0     C13142   9.114   6.058   4.659  0.8170  0.6421 -0.4330
  858MOL0     C13143   8.991   6.067   4.598  0.8304  0.4859 -0.3729
  858MOL0     C13144   8.864   6.078   4.673  0.0603  0.1167 -0.0803
  858MOL0     C13145   8.806   5.950   4.739  0.2324  0.2148 -0.4443
  858MOL0     C13146   8.679   5.978   4.824 -0.6951 -0.3500 -0.9412
  858MOL0     C13147   8.569   6.076   4.761 -0.6852  0.2444 -0.5956
  858MOL0     O13148   8.459   6.093   4.842  0.7771 -0.1386  0.3551
  858MOL0     C13149   8.350   6.016   4.804  0.1334 -1.1255  0.4160
  858MOL0     C13150   8.318   5.905   4.880 -0.1739 -0.8097 -0.1873
  858MOL0     C13151   8.211   5.835   4.836 -0.1548 -0.2426 -0.6407
  858MOL0     C13152   8.123   5.884   4.745 -0.5819 -0.3818  0.2377
  858MOL0     C13153   8.005   5.797   4.712 -0.6037 -0.5808  0.4941
  858MOL0     O13154   7.954   5.713   4.800 -0.0988  0.2430  0.0204
  858MOL0     C13155   7.828   5.669   4.780 -0.3008  0.9944  0.3031
  858MOL0     C13156   7.720   5.714   4.851 -0.0548  0.2509 -0.1531
  858MOL0     C13157   7.591   5.664   4.835 -0.2578 -0.0456 -0.1920
  858MOL0     C13158   7.566   5.558   4.739  1.0651 -0.9908 -0.7431
  858MOL0     O13159   7.441   5.500   4.714  0.3901 -0.3024  0.2861
  858MOL0     C13160   7.325   5.559   4.775  0.3413 -0.1341 -0.6504
  858MOL0     C13161   7.215   5.470   4.733 -0.6322 -0.7014 -0.7656
  858MOL0     C13162   7.083   5.479   4.793  0.5346  0.6642 -0.5852
  858MOL0     C13163   7.004   5.610   4.769  0.1384 -0.2830  0.3267
  858MOL0     C13164   6.868   5.602   4.844  0.1763  0.4421  0.5987
  858MOL0     C13165   6.798   5.738   4.875  0.0995  0.0807  0.2711
  858MOL0     C13166   6.876   5.824   4.966 -0.8979 -0.2240  0.0801
  858MOL0     C13167   6.863   5.973   4.924 -0.1643  0.9627 -0.9336
  858MOL0    Cl13168   7.006   6.041   5.005 -0.2121  0.0104  0.4945
  858MOL0     C13169   7.675   5.511   4.681  0.2086 -0.3978 -0.3076
  858MOL0     C13170   7.805   5.564   4.697  0.8487  0.5831  0.1993
  858MOL0     O13171   7.969   5.797   4.596 -0.5426  0.6574 -0.2713
  858MOL0     C13172   8.150   6.004   4.672 -0.2357  0.2211 -0.0544
  858MOL0     C13173   8.271   6.058   4.697 -0.1600 -0.1723 -0.8076
  858MOL0     N13174   9.004   6.057   4.461 -0.0988 -0.2505 -0.8111
  858MOL0     N13175   9.134   6.048   4.437 -0.9856 -0.3185 -0.3372
  858MOL0     C13176  10.152   6.416   5.208 -0.1445 -0.5060  0.0315
  858MOL0     C13177  10.249   6.481   5.284  0.3297 -0.4619  1.0137
  858MOL0     C13178  10.563   6.766   5.442 -0.3302 -0.4461 -0.9933
  858MOL0     C13179  10.611   6.863   5.356  0.3138  0.0282 -0.3828
  858MOL0     C13180  10.727   6.938   5.387  0.2564  0.3552  0.3745
  858MOL0     C13181  10.796   6.918   5.500 -0.6532  0.1779 -0.1789
  858MOL0     O13182  10.896   7.006   5.534  0.7185 -0.3964  0.4829
  858MOL0     C13183  10.990   6.996   5.641  0.0774  0.2984 -0.8353
  858MOL0     C13184  11.114   7.082   5.617 -0.3057  0.1699 -0.5559
  858MOL0     C13185  11.201   7.029   5.508  0.7084  0.6484 -1.9618
  858MOL0     C13186  11.330   7.103   5.479 -0.1682  0.4533  0.2881
  858MOL0     C13187  11.417   7.007   5.409  1.0672  0.4799  0.6416
  858MOL0     C13188  11.477   6.921   5.336  0.4644  0.8366  0.3348
  858MOL0     C13189  10.755   6.815   5.588 -0.8523  0.7497  0.6834
  858MOL0     C13190  10.636   6.751   5.561  0.7278  0.5012  0.2472
  858MOL0     H13191  10.292   6.745   5.070 -0.2075 -0.2906 -0.7559
  858MOL0     H13192  10.105   6.634   4.949 -0.4978 -0.6769 -0.2970
  858MOL0     H13193   9.865   6.572   4.979  0.7657 -1.1341 -3.8725
  858MOL0     H13194   9.857   6.489   5.138 -0.1365  2.7056 -1.0051
  858MOL0     H13195   9.657   6.442   5.025 -1.3137 -1.7856 -1.2373
  858MOL0     H13196   9.761   6.297   5.012  2.9428  0.8596  2.5725
  858MOL0     H13197   9.828   6.350   4.782  1.7206  0.8048  2.3901
  858MOL0     H13198   9.729   6.496   4.793 -1.8905  0.7407  1.7181
  858MOL0     H13199   9.618   6.210   4.809  0.0328  0.7609  0.8584
  858MOL0     H13200   9.522   6.368   4.827 -1.9202  1.4383 -5.1031
  858MOL0     H13201   9.707   6.355   4.579 -1.0421  1.4391 -2.1935
  858MOL0     H13202   9.536   6.413   4.599 -0.3411 -0.2464 -0.4691
  858MOL0     H13203   9.632   6.127   4.588  0.8969  2.7002  2.2885
  858MOL0     H13204   9.549   6.218   4.465 -0.5949 -0.9033 -0.7461
  858MOL0     H13205   9.400   6.166   4.726  0.5443  1.7435  0.0473
  858MOL0     H13206   9.352   6.265   4.576 -0.4476 -0.7892 -1.1557
  858MOL0     H13207   9.374   5.963   4.620 -2.9678 -1.8783 -1.3172
  858MOL0     H13208   9.390   6.030   4.465  0.4382  1.9766 -0.4824
  858MOL0     H13209   9.130   6.051   4.766 -0.8632 -1.8591 -0.2529
  858MOL0     H13210   8.782   6.123   4.616 -1.0906 -3.1659 -1.2484
  858MOL0     H13211   8.897   6.156   4.742  0.5377  1.9164 -2.1897
  858MOL0     H13212   8.880   5.895   4.798  1.3960  0.2526 -1.8002
  858MOL0     H13213   8.767   5.890   4.656 -0.5442 -1.9877  1.4214
  858MOL0     H13214   8.627   5.882   4.833  2.1489 -2.0981 -1.9372
  858MOL0     H13215   8.702   6.018   4.923 -0.7712  1.1728 -1.5039
  858MOL0     H13216   8.545   6.066   4.654  2.5669 -0.1564 -1.3960
  858MOL0     H13217   8.613   6.176   4.764 -1.7756  0.7241 -0.0234
  858MOL0     H13218   8.380   5.874   4.964 -2.4783 -2.7058  0.9394
  858MOL0     H13219   8.189   5.747   4.896  0.0428  0.0659 -0.1081
  858MOL0     H13220   7.732   5.791   4.927 -2.0661  0.3458  0.1119
  858MOL0     H13221   7.511   5.702   4.898  0.7142  2.1617 -0.2037
  858MOL0     H13222   7.303   5.657   4.733 -2.8976  0.2711  1.6704
  858MOL0     H13223   7.336   5.574   4.883  0.1484  2.8122 -0.9614
  858MOL0     H13224   7.257   5.371   4.752  1.0676  0.2334  0.5571
  858MOL0     H13225   7.205   5.474   4.624 -3.1597 -0.8410 -0.6108
  858MOL0     H13226   7.093   5.459   4.900 -0.6320  0.4404 -0.4994
  858MOL0     H13227   7.023   5.397   4.752  0.6981  1.0124 -1.5314
  858MOL0     H13228   7.068   5.698   4.779  0.1201 -0.0908 -1.0911
  858MOL0     H13229   6.980   5.625   4.663  0.7479  2.1621  0.4867
  858MOL0     H13230   6.880   5.556   4.943  1.6744 -1.4257 -0.3806
  858MOL0     H13231   6.801   5.530   4.795  3.0197 -3.5382  1.9633
  858MOL0     H13232   6.706   5.717   4.930 -0.0375 -1.0576 -0.3623
  858MOL0     H13233   6.783   5.796   4.783  0.8302  0.4313  0.3695
  858MOL0     H13234   6.850   5.812   5.072 -0.0117 -0.3802  0.2896
  858MOL0     H13235   6.983   5.800   4.969 -1.6210 -4.3915 -0.7669
  858MOL0     H13236   6.768   6.024   4.947  0.0804  1.1503 -0.3270
  858MOL0     H13237   6.883   5.978   4.816  3.0496 -1.6182 -0.6065
  858MOL0     H13238   7.659   5.435   4.604  2.2391  0.8964 -2.1529
  858MOL0     H13239   7.884   5.516   4.640 -0.5206 -1.8382  0.2091
  858MOL0     H13240   8.085   6.053   4.600  3.0407  2.1230 -2.0006
  858MOL0     H13241   8.297   6.147   4.640 -0.8614  0.8147  0.3652
  858MOL0     H13242  10.101   6.330   5.251 -0.7082  0.5966  1.6388
  858MOL0     H13243  10.287   6.420   5.365  3.8303 -2.9854 -2.1591
  858MOL0     H13244  10.563   6.901   5.266  0.3926  1.5794  0.1944
  858MOL0     H13245  10.770   7.012   5.320  0.8896 -0.7661 -0.5140
  858MOL0     H13246  11.035   6.896   5.641 -0.5414 -0.1183 -4.6180
  858MOL0     H13247  10.953   6.993   5.744 -0.8235  2.1685 -1.0714
  858MOL0     H13248  11.092   7.188   5.597  1.6367  0.9516  1.0967
  858MOL0     H13249  11.173   7.079   5.709  1.7349 -2.4963 -1.8296
  858MOL0     H13250  11.146   7.039   5.415 -2.7331 -0.4645 -0.2137
  858MOL0     H13251  11.232   6.927   5.532 -1.2001  0.6173  0.8547
  858MOL0     H13252  11.309   7.185   5.409  0.8041 -0.9182 -1.7255
  858MOL0     H13253  11.383   7.146   5.564  0.8437  0.4362 -0.3179
  858MOL0     H13254  11.509   6.856   5.258 -1.6657  1.0671 -0.8024
  858MOL0     H13255  10.798   6.807   5.687  0.9645 -0.6063 -0.1445
  858MOL0     H13256  10.587   6.691   5.638 -0.7943  0.8912 -0.3860
  859MOL0     O13257   5.006   9.636   1.861  0.9137  1.2849  0.2709
  859MOL0     C13258   5.045   9.518   1.843 -0.2603 -0.6598 -0.6389
  859MOL0     O13259   5.000   9.412   1.910 -1.0429  0.6070  0.3595
  859MOL0     C13260   4.890   9.435   1.993 -0.7271  0.2412 -0.9107
  859MOL0     C13261   4.910   9.436   2.135  0.8040  0.3099  0.3075
  859MOL0     C13262   4.797   9.450   2.219  0.7052  0.2594  1.8275
  859MOL0     C13263   4.672   9.470   2.171 -0.2728  1.3486 -0.3735
  859MOL0     O13264   4.561   9.484   2.255  0.6083  0.1646 -0.3794
  859MOL0     C13265   4.560   9.413   2.377 -0.6176 -0.6303  0.3042
  859MOL0     C13266   4.426   9.413   2.443 -0.6727 -0.2734 -0.0461
  859MOL0     C13267   4.365   9.554   2.474  0.1415  0.0027  0.3553
  859MOL0     C13268   4.230   9.528   2.553  0.2897  0.3561 -0.2604
  859MOL0     C13269   4.176   9.660   2.601 -0.5536 -0.4681 -0.7968
  859MOL0     C13270   4.038   9.641   2.660 -0.1320 -0.6129 -0.3884
  859MOL0     C13271   3.948   9.764   2.689 -0.6682  0.6244  0.4102
  859MOL0     C13272   4.013   9.870   2.764 -0.4802 -0.4308 -0.3064
  859MOL0     N13273   3.916   9.978   2.803 -0.6571  0.2446 -0.5225
  859MOL0     C13274   3.832  10.043   2.715  0.0324  0.1139 -0.1372
  859MOL0     C13275   3.736  10.090   2.800 -0.3042 -0.6971  0.5182
  859MOL0     C13276   3.600  10.144   2.770  0.8965  0.3053 -0.1022
  859MOL0     C13277   3.507  10.058   2.679  0.5314  0.4685  0.6346
  859MOL0     C13278   3.473   9.918   2.748 -0.0515  0.1900 -0.1306
  859MOL0     C13279   3.333   9.869   2.725 -0.4382  0.2366  0.2422
  859MOL0     O13280   3.227   9.923   2.806  0.2228 -0.1835 -1.0016
  859MOL0     C13281   3.136   9.831   2.860  0.3145 -0.8706  0.4729
  859MOL0     C13282   3.149   9.694   2.889  0.1451 -0.6763 -1.3359
  859MOL0     C13283   3.043   9.619   2.936  0.1409  0.0399  0.1395
  859MOL0     C13284   2.918   9.683   2.977  0.0792 -0.1934 -0.0518
  859MOL0     C13285   2.815   9.617   3.049 -0.2389 -0.2038  0.2541
  859MOL0     O13286   2.842   9.485   3.055 -0.3489  0.2723  0.2377
  859MOL0     C13287   2.769   9.418   3.146 -0.8929  0.0008  0.2425
  859MOL0     C13288   2.815   9.408   3.275 -0.1018 -0.0892  0.1496
  859MOL0     C13289   2.757   9.322   3.370  0.4283 -0.4576 -0.2635
  859MOL0     C13290   2.633   9.272   3.334  0.4407  1.2399 -0.6901
  859MOL0     O13291   2.556   9.209   3.430  0.4473 -0.6547  0.2994
  859MOL0     C13292   2.598   9.076   3.451  0.1361  0.4369 -0.2589
  859MOL0     C13293   2.468   8.988   3.463 -0.3845  0.0508  0.3878
  859MOL0     C13294   2.421   8.962   3.599 -0.0075 -0.5094  0.5738
  859MOL0     C13295   2.312   8.856   3.595  0.0961 -0.0142  0.1859
  859MOL0     C13296   2.278   8.802   3.733  0.1047  0.5067 -1.2117
  859MOL0     C13297   2.224   8.658   3.711  0.0604 -0.0149 -0.0434
  859MOL0     C13298   2.340   8.550   3.697 -0.2912 -0.2332 -0.8111
  859MOL0     C13299   2.302   8.416   3.774  0.6721 -0.0324 -0.1445
  859MOL0    Cl13300   2.417   8.285   3.724  0.0064  0.0265  0.0129
  859MOL0     C13301   2.577   9.294   3.206  0.2019  0.5092  0.1710
  859MOL0     C13302   2.651   9.360   3.106  0.4206  0.0675 -0.2197
  859MOL0     O13303   2.718   9.677   3.098 -0.0688 -0.7652 -0.2250
  859MOL0     C13304   2.910   9.817   2.955  0.0787 -1.0773  0.6640
  859MOL0     C13305   3.019   9.888   2.895  0.6260 -0.2322  0.1152
  859MOL0     N13306   3.765  10.067   2.934 -0.3691 -0.0580 -0.0035
  859MOL0     N13307   3.873   9.994   2.929 -0.5222  0.1203  0.9485
  859MOL0     C13308   4.653   9.468   2.033 -0.0264  1.0381  0.4384
  859MOL0     C13309   4.760   9.457   1.947  0.2256 -0.6992  0.3283
  859MOL0     C13310   5.154   9.502   1.736 -0.5205  0.6880  0.5227
  859MOL0     C13311   5.192   9.373   1.687  0.0911 -0.4989  0.3545
  859MOL0     C13312   5.286   9.365   1.589  0.2749  0.2548  0.2060
  859MOL0     C13313   5.348   9.480   1.541 -0.4303 -0.9474 -0.5797
  859MOL0     O13314   5.428   9.474   1.427  0.2470  0.4912  0.0109
  859MOL0     C13315   5.562   9.506   1.463 -0.2546 -0.3048  0.5044
  859MOL0     C13316   5.666   9.390   1.423 -0.0583  0.0983 -0.2935
  859MOL0     C13317   5.803   9.436   1.466  0.0680 -0.2924 -0.3994
  859MOL0     C13318   5.914   9.324   1.463 -0.3034  0.4602 -0.9965
  859MOL0     C13319   5.944   9.267   1.331 -0.4404  0.1191 -0.4149
  859MOL0     C13320   5.961   9.218   1.220  0.0121 -0.6979  0.2842
  859MOL0     C13321   5.311   9.606   1.584 -0.0383  0.0615 -0.0668
  859MOL0     C13322   5.216   9.615   1.683 -0.1683  1.0024  0.3959
  859MOL0     H13323   5.008   9.409   2.171  0.2614 -1.9614  0.2156
  859MOL0     H13324   4.833   9.441   2.321  3.0483  0.7127  1.1141
  859MOL0     H13325   4.626   9.463   2.448 -0.9514  1.1164 -0.5434
  859MOL0     H13326   4.578   9.310   2.347 -1.7663 -1.5388  2.5370
  859MOL0     H13327   4.448   9.355   2.534  1.7241 -2.9080 -2.1159
  859MOL0     H13328   4.355   9.356   2.382  0.2407  0.2454 -1.6262
  859MOL0     H13329   4.350   9.612   2.383 -0.8086  0.9762  1.1120
  859MOL0     H13330   4.440   9.601   2.538 -1.3322  2.3913  0.4242
  859MOL0     H13331   4.157   9.481   2.488  3.0242 -2.2669 -1.6643
  859MOL0     H13332   4.237   9.451   2.631 -2.1433 -1.5573 -1.7950
  859MOL0     H13333   4.183   9.726   2.514  0.2732 -1.2480 -1.3395
  859MOL0     H13334   4.248   9.704   2.671  0.2788 -0.7095 -1.4940
  859MOL0     H13335   4.051   9.587   2.755 -2.2801 -1.5113 -0.5419
  859MOL0     H13336   3.983   9.574   2.595 -3.3869 -0.0606  1.5401
  859MOL0     H13337   3.923   9.812   2.594 -0.3132 -0.5698 -0.3076
  859MOL0     H13338   3.857   9.730   2.740  0.6521  2.2610  4.2766
  859MOL0     H13339   4.088   9.916   2.700  1.1966  2.2372  3.2358
  859MOL0     H13340   4.061   9.826   2.852 -0.6029 -0.5446 -0.2955
  859MOL0     H13341   3.820  10.044   2.607  0.5444  0.8754 -0.1968
  859MOL0     H13342   3.610  10.246   2.732  4.2364 -0.5602 -1.8894
  859MOL0     H13343   3.543  10.146   2.864 -1.6682 -0.8766 -1.5351
  859MOL0     H13344   3.545  10.042   2.578 -1.2156  3.9983 -0.7793
  859MOL0     H13345   3.413  10.113   2.665 -1.1373 -2.1757  0.7640
  859MOL0     H13346   3.540   9.838   2.713 -0.9949  0.3429 -2.5079
  859MOL0     H13347   3.495   9.932   2.854  3.0975  0.1032 -0.6876
  859MOL0     H13348   3.345   9.760   2.729 -2.2146  0.0389  1.0601
  859MOL0     H13349   3.322   9.881   2.617  0.2619 -2.4615 -0.2057
  859MOL0     H13350   3.246   9.647   2.886 -0.2119 -1.3812 -2.7342
  859MOL0     H13351   3.050   9.512   2.949 -1.5075 -0.1720 -0.4975
  859MOL0     H13352   2.898   9.470   3.305  0.1079  0.2125 -1.0003
  859MOL0     H13353   2.802   9.314   3.468  0.6451 -0.2652 -0.3472
  859MOL0     H13354   2.668   9.071   3.535  0.8341  2.7530 -0.6302
  859MOL0     H13355   2.654   9.040   3.364  2.2189 -3.3000  2.3484
  859MOL0     H13356   2.479   8.897   3.404 -0.7131 -1.0609  1.9838
  859MOL0     H13357   2.392   9.041   3.405  0.4488  1.1936  0.3082
  859MOL0     H13358   2.392   9.062   3.631 -1.2713 -0.1555 -1.5053
  859MOL0     H13359   2.504   8.921   3.658  1.0005  1.8208  0.9021
  859MOL0     H13360   2.213   8.891   3.565  0.6239  0.0948 -1.5284
  859MOL0     H13361   2.336   8.771   3.530 -1.8747 -0.5999  0.1720
  859MOL0     H13362   2.200   8.857   3.786  1.6404  0.9175  0.7168
  859MOL0     H13363   2.363   8.788   3.800 -1.0185  0.3634  0.2157
  859MOL0     H13364   2.134   8.649   3.650 -0.4434  2.2884  0.2875
  859MOL0     H13365   2.184   8.648   3.812  0.5362 -0.7845  0.0780
  859MOL0     H13366   2.368   8.532   3.593  0.0392  2.6591 -1.3111
  859MOL0     H13367   2.431   8.578   3.751  0.2418 -1.4515 -1.0588
  859MOL0     H13368   2.201   8.396   3.737  0.8479  2.5422 -2.3899
  859MOL0     H13369   2.288   8.425   3.882  4.3341  0.6967  0.4107
  859MOL0     H13370   2.476   9.265   3.181  0.3840 -0.2749  0.3392
  859MOL0     H13371   2.620   9.374   3.002  1.9271  4.1215 -0.3199
  859MOL0     H13372   2.822   9.878   2.975  2.0471  2.1448  0.2150
  859MOL0     H13373   3.017   9.995   2.876 -2.1628  0.0485  1.4312
  859MOL0     H13374   4.547   9.467   2.010  0.1257  2.0439 -0.3671
  859MOL0     H13375   4.743   9.457   1.840  0.9418 -0.1697  0.2117
  859MOL0     H13376   5.148   9.278   1.717  1.3676 -0.5431  2.2059
  859MOL0     H13377   5.311   9.270   1.543  1.0215 -0.2253  1.5437
  859MOL0     H13378   5.570   9.540   1.566  2.8349  6.8763 -1.5047
  859MOL0     H13379   5.589   9.602   1.417  1.3852 -0.5756  0.8279
  859MOL0     H13380   5.647   9.293   1.470  0.1721 -0.1041 -0.6086
  859MOL0     H13381   5.656   9.371   1.316 -0.7719 -1.4037  0.0114
  859MOL0     H13382   5.794   9.462   1.572  1.1216  0.1739 -0.4158
  859MOL0     H13383   5.835   9.524   1.410  0.1563  1.4291  2.1753
  859MOL0     H13384   6.002   9.364   1.515  0.1452 -2.6153  0.8897
  859MOL0     H13385   5.884   9.241   1.528  2.9639 -0.2046 -0.1591
  859MOL0     H13386   5.970   9.181   1.120  0.2700 -0.1853  0.1135
  859MOL0     H13387   5.340   9.694   1.528 -2.0776  0.2543 -0.9042
  859MOL0     H13388   5.178   9.711   1.715 -2.6501 -0.9623  3.9968
  860MOL0     O13389   0.152   9.783   1.714  0.1914 -0.6531 -0.3899
  860MOL0     C13390   0.249   9.821   1.650  0.8742 -0.5412 -0.6190
  860MOL0     O13391   0.286   9.785   1.524  0.5611  0.6186  0.7609
  860MOL0     C13392   0.227   9.684   1.454  1.0216  0.0541  0.2097
  860MOL0     C13393   0.149   9.571   1.501 -0.0163  0.6143  1.1931
  860MOL0     C13394   0.071   9.494   1.418 -0.1007  0.2034 -0.7595
  860MOL0     C13395   0.074   9.520   1.276  0.1860 -0.3469 -0.2572
  860MOL0     O13396  -0.005   9.460   1.181 -0.3087  0.2680  0.1539
  860MOL0     C13397  -0.086   9.349   1.232  0.6184 -0.1349  0.2229
  860MOL0     C13398  -0.182   9.298   1.117  0.4323  0.8107  0.5218
  860MOL0     C13399  -0.228   9.152   1.132 -0.4313 -0.5522  0.0669
  860MOL0     C13400  -0.297   9.119   1.265  0.5553 -0.2066  0.3144
  860MOL0     C13401  -0.334   8.972   1.274  0.3518 -0.1559  0.6377
  860MOL0     C13402  -0.424   8.915   1.151 -0.2008  0.3819 -0.4651
  860MOL0     C13403  -0.492   8.789   1.196  0.3576  0.8034  0.4250
  860MOL0     C13404  -0.393   8.675   1.199  0.4095 -1.5230  0.1143
  860MOL0     N13405  -0.433   8.574   1.301  0.4399  0.0753  0.4848
  860MOL0     C13406  -0.499   8.453   1.276  0.1715 -0.5151  0.3055
  860MOL0     C13407  -0.520   8.405   1.402 -0.3696  0.6726 -0.7832
  860MOL0     C13408  -0.590   8.272   1.432 -0.6299  0.3865  0.2827
  860MOL0     C13409  -0.745   8.281   1.409  0.0464  0.3353  1.2487
  860MOL0     C13410  -0.807   8.355   1.527  0.2401 -0.1062 -0.3560
  860MOL0     C13411  -0.840   8.506   1.498 -0.6076  0.0467  0.1692
  860MOL0     O13412  -0.912   8.521   1.370  0.6936 -0.1604 -0.0862
  860MOL0     C13413  -0.884   8.636   1.300  0.2263  0.1896 -0.6936
  860MOL0     C13414  -0.888   8.767   1.357  1.0366  0.5859 -0.3396
  860MOL0     C13415  -0.860   8.876   1.270 -0.6476  1.1987 -0.3734
  860MOL0     C13416  -0.857   8.855   1.125 -0.6694 -0.8209 -0.9603
  860MOL0     C13417  -0.846   8.977   1.032 -0.7600 -1.0888 -0.3296
  860MOL0     O13418  -0.787   8.963   0.913 -0.0266 -0.4552 -0.0688
  860MOL0     C13419  -0.732   9.076   0.862  0.7312  0.8486  0.2802
  860MOL0     C13420  -0.743   9.094   0.727  1.2271 -0.2684  0.0875
  860MOL0     C13421  -0.667   9.195   0.657  0.7584 -0.1380  0.4350
  860MOL0     C13422  -0.567   9.271   0.729 -0.1595  0.3780 -0.5755
  860MOL0     O13423  -0.474   9.361   0.681  0.1079  0.7502  0.3786
  860MOL0     C13424  -0.501   9.412   0.543 -0.5517 -0.1349  0.2524
  860MOL0     C13425  -0.367   9.473   0.501 -0.1697 -1.2707 -0.0546
  860MOL0     C13426  -0.259   9.367   0.514  0.1462  0.7219 -0.6390
  860MOL0     C13427  -0.120   9.398   0.448  0.9591  0.5332  0.6374
  860MOL0     C13428  -0.017   9.275   0.460  0.4818  0.6366  0.0758
  860MOL0     C13429   0.101   9.289   0.364  0.2152  0.3941 -0.3311
  860MOL0     C13430   0.069   9.271   0.217 -0.4293  0.3612  0.8470
  860MOL0     C13431  -0.009   9.144   0.179 -0.1810 -0.1381 -0.0911
  860MOL0    Cl13432  -0.190   9.176   0.162 -0.5155  0.3863  0.1266
  860MOL0     C13433  -0.563   9.261   0.868 -0.3871 -0.1824  0.8707
  860MOL0     C13434  -0.639   9.157   0.933 -0.6183 -0.1724 -0.3689
  860MOL0     O13435  -0.890   9.078   1.085 -0.5676  0.5959 -0.4777
  860MOL0     C13436  -0.854   8.731   1.074  0.5363  0.1697 -0.2271
  860MOL0     C13437  -0.867   8.618   1.159 -0.4327 -0.8479  0.6812
  860MOL0     N13438  -0.465   8.492   1.499  0.4340  0.2631  0.3582
  860MOL0     N13439  -0.413   8.586   1.429  0.8812 -0.3550 -0.0562
  860MOL0     C13440   0.149   9.628   1.233 -0.3005 -0.0733 -0.4658
  860MOL0     C13441   0.231   9.703   1.319 -0.5764  0.7783  0.3391
  860MOL0     C13442   0.346   9.908   1.719 -0.0387 -0.3542 -0.4200
  860MOL0     C13443   0.298   9.993   1.816  0.0475 -0.1188 -0.6616
  860MOL0     C13444   0.377  10.093   1.877  0.0098  0.1906 -0.6959
  860MOL0     C13445   0.518  10.098   1.857  0.8816 -0.1633 -0.4121
  860MOL0     O13446   0.611  10.175   1.929  0.3319  0.3013 -0.4971
  860MOL0     C13447   0.562  10.266   2.023 -0.0956 -0.7980 -0.6585
  860MOL0     C13448   0.688  10.344   2.075 -0.5440  0.0954  1.0479
  860MOL0     C13449   0.654  10.416   2.207  0.0741  0.7081 -0.3314
  860MOL0     C13450   0.653  10.570   2.189  0.4634 -0.5091  0.4910
  860MOL0     C13451   0.547  10.625   2.105  0.1951 -0.7035 -0.1057
  860MOL0     C13452   0.458  10.667   2.040 -0.2817  0.0263 -0.5568
  860MOL0     C13453   0.564  10.000   1.765 -0.0571 -1.2901  0.8457
  860MOL0     C13454   0.489   9.907   1.695  0.7385 -0.1797 -1.1395
  860MOL0     H13455   0.138   9.553   1.607 -0.1039  0.1641  1.1103
  860MOL0     H13456   0.015   9.417   1.470  1.3153  1.1780  2.4115
  860MOL0     H13457  -0.141   9.380   1.321  1.1366  4.2749 -0.7716
  860MOL0     H13458  -0.021   9.269   1.269 -0.2373 -1.6674 -1.3949
  860MOL0     H13459  -0.116   9.311   1.031 -0.6496 -0.8778 -0.6249
  860MOL0     H13460  -0.273   9.356   1.099 -3.5660 -3.9745  2.7023
  860MOL0     H13461  -0.142   9.085   1.122  0.5292  0.0095  3.3978
  860MOL0     H13462  -0.291   9.135   1.045 -0.6747 -1.7695  0.4696
  860MOL0     H13463  -0.248   9.147   1.359  2.8840 -0.6744 -0.6985
  860MOL0     H13464  -0.382   9.187   1.265  0.7015 -0.0209  0.1780
  860MOL0     H13465  -0.392   8.951   1.364  2.9535 -4.6037  1.5585
  860MOL0     H13466  -0.244   8.911   1.265  0.1893 -0.5485  1.6099
  860MOL0     H13467  -0.362   8.894   1.064 -1.7153 -2.0530 -1.0443
  860MOL0     H13468  -0.506   8.981   1.121 -1.7580 -1.4800 -0.5388
  860MOL0     H13469  -0.546   8.809   1.289 -1.7297  0.6626 -0.7077
  860MOL0     H13470  -0.565   8.774   1.117  0.5165 -0.4515  0.5005
  860MOL0     H13471  -0.291   8.704   1.224 -0.4418  0.7164  1.4275
  860MOL0     H13472  -0.394   8.614   1.109  0.9593  0.8829 -1.6205
  860MOL0     H13473  -0.528   8.424   1.175  2.7129  1.4488 -1.1238
  860MOL0     H13474  -0.563   8.218   1.523 -0.4961  2.3480  1.4616
  860MOL0     H13475  -0.551   8.205   1.356 -0.9383 -0.8553  1.1931
  860MOL0     H13476  -0.786   8.180   1.399 -1.4340  1.1076 -1.2926
  860MOL0     H13477  -0.772   8.331   1.316 -0.1662 -0.0520  1.1014
  860MOL0     H13478  -0.903   8.307   1.547 -2.1592  3.0857 -3.1225
  860MOL0     H13479  -0.742   8.356   1.615  1.5116 -1.9087 -1.2150
  860MOL0     H13480  -0.746   8.560   1.493 -0.3227 -0.4171  0.3720
  860MOL0     H13481  -0.898   8.561   1.574 -0.0678  0.0708  0.5698
  860MOL0     H13482  -0.908   8.781   1.463 -0.1830 -0.7113 -0.3761
  860MOL0     H13483  -0.865   8.971   1.321  1.6766  0.3168  1.7025
  860MOL0     H13484  -0.822   9.036   0.681 -1.1850  2.5058  0.5070
  860MOL0     H13485  -0.687   9.209   0.551 -0.7315 -2.2288  0.3791
  860MOL0     H13486  -0.576   9.491   0.551 -0.3939 -0.0211  0.6190
  860MOL0     H13487  -0.535   9.325   0.486 -2.4358  0.1573  0.8547
  860MOL0     H13488  -0.337   9.556   0.566  1.6330 -1.2767 -0.8185
  860MOL0     H13489  -0.374   9.504   0.397  0.1906 -1.6837 -0.2043
  860MOL0     H13490  -0.298   9.278   0.463  0.7649 -0.7478  1.3703
  860MOL0     H13491  -0.244   9.348   0.620 -1.5810  0.4135 -0.4085
  860MOL0     H13492  -0.143   9.429   0.345 -3.4089  2.7451  2.0495
  860MOL0     H13493  -0.065   9.486   0.485  1.8425  0.6103 -0.7573
  860MOL0     H13494  -0.080   9.190   0.434 -1.6279  1.3946  2.3151
  860MOL0     H13495   0.016   9.264   0.563 -0.2233  1.0875  0.3566
  860MOL0     H13496   0.175   9.212   0.389  0.2996  0.4102 -0.5260
  860MOL0     H13497   0.146   9.388   0.372  0.0817  0.5547 -1.4352
  860MOL0     H13498   0.024   9.358   0.167  0.8797  0.0155 -1.0811
  860MOL0     H13499   0.166   9.264   0.166 -0.3172 -0.8375  1.2011
  860MOL0     H13500   0.002   9.079   0.266  0.5884  4.4015  3.5669
  860MOL0     H13501   0.035   9.094   0.092 -0.6561 -2.6843  1.0462
  860MOL0     H13502  -0.490   9.311   0.931  1.5325 -1.3972 -0.2849
  860MOL0     H13503  -0.639   9.148   1.041 -1.1534  1.0616 -0.2404
  860MOL0     H13504  -0.827   8.730   0.969  1.5963  1.3303  0.0187
  860MOL0     H13505  -0.869   8.515   1.124 -2.2628 -0.4894 -0.4388
  860MOL0     H13506   0.151   9.636   1.125  0.7004 -2.1353 -0.6657
  860MOL0     H13507   0.295   9.782   1.280 -1.1846  1.6949  1.1537
  860MOL0     H13508   0.194   9.999   1.848  0.8085  1.0375  1.8310
  860MOL0     H13509   0.331  10.169   1.940  0.4941  1.3988 -1.7681
  860MOL0     H13510   0.523  10.214   2.111  1.7072 -1.4055 -0.1790
  860MOL0     H13511   0.496  10.336   1.970  0.6142  0.9983  0.7139
  860MOL0     H13512   0.784  10.293   2.089  0.0652  1.0593  0.4970
  860MOL0     H13513   0.700  10.417   1.995 -0.6979  1.3752  2.1536
  860MOL0     H13514   0.727  10.385   2.282  0.0881 -1.4585 -1.1680
  860MOL0     H13515   0.556  10.387   2.247 -0.7876  0.2393 -2.6128
  860MOL0     H13516   0.637  10.612   2.289  0.1696 -2.2641  1.2096
  860MOL0     H13517   0.744  10.616   2.150 -0.5955 -0.3049 -1.9301
  860MOL0     H13518   0.366  10.699   1.995 -1.6587 -0.2236  1.9057
  860MOL0     H13519   0.671  10.001   1.749 -0.4133  2.7912 -3.5108
  860MOL0     H13520   0.532   9.846   1.616  3.5375  0.2207 -0.0687
  861MOL0     O13521   4.104  10.604   1.228 -1.1922 -0.1551 -0.8918
  861MOL0     C13522   4.078  10.671   1.334 -0.0843 -0.8161  0.5129
  861MOL0     O13523   4.161  10.700   1.435  0.1924 -0.2397 -0.1515
  861MOL0     C13524   4.288  10.640   1.436 -0.4481  0.6606  0.4734
  861MOL0     C13525   4.325  10.550   1.538  0.1841 -0.6683 -0.2440
  861MOL0     C13526   4.453  10.493   1.549 -0.6161 -0.3432  0.0952
  861MOL0     C13527   4.555  10.548   1.463  0.1122  0.8703 -0.0615
  861MOL0     O13528   4.679  10.498   1.475 -0.0183  0.2782 -0.9840
  861MOL0     C13529   4.758  10.456   1.360  0.4100  0.3001 -0.6233
  861MOL0     C13530   4.718  10.314   1.323  0.6017  0.2882 -0.4886
  861MOL0     C13531   4.719  10.297   1.169  0.5395 -0.0227 -0.1657
  861MOL0     C13532   4.838  10.333   1.091  0.6351  0.1611  0.1810
  861MOL0     C13533   4.814  10.322   0.937 -0.2346  0.0070 -0.4353
  861MOL0     C13534   4.877  10.438   0.857 -0.6719  0.4159 -0.9946
  861MOL0     C13535   4.800  10.465   0.728  0.0129 -0.7107  1.0321
  861MOL0     C13536   4.835  10.370   0.607  1.2368 -0.0363 -0.9854
  861MOL0     N13537   4.977  10.338   0.595  0.1389 -0.4329  0.4262
  861MOL0     C13538   5.082  10.419   0.560 -0.6950  0.1223  0.2273
  861MOL0     C13539   5.196  10.358   0.538  0.5456  0.2043  0.1988
  861MOL0     C13540   5.334  10.403   0.522 -0.0646 -0.1548  0.0731
  861MOL0     C13541   5.386  10.371   0.384 -0.3409 -0.8531 -0.4228
  861MOL0     C13542   5.538  10.397   0.372  0.2477 -0.1650 -0.7668
  861MOL0     C13543   5.582  10.523   0.448  0.0808 -0.5878  0.1963
  861MOL0     O13544   5.703  10.577   0.398 -0.0697 -0.1302 -0.3641
  861MOL0     C13545   5.815  10.543   0.467 -0.9488  0.0445 -0.0139
  861MOL0     C13546   5.920  10.535   0.383 -0.2597 -1.1783 -0.4920
  861MOL0     C13547   6.047  10.496   0.426  0.3345 -0.4107 -0.2281
  861MOL0     C13548   6.068  10.465   0.567 -0.2587  0.7127  0.8056
  861MOL0     C13549   6.200  10.425   0.623 -0.3524 -0.0282 -0.0051
  861MOL0     O13550   6.188  10.372   0.741 -0.8935 -0.8731 -0.4544
  861MOL0     C13551   6.300  10.360   0.824 -0.0811  0.5295 -0.0429
  861MOL0     C13552   6.302  10.259   0.932 -0.2461 -0.2371 -0.0972
  861MOL0     C13553   6.406  10.252   1.022 -0.8674  0.7086  0.1208
  861MOL0     C13554   6.517  10.342   1.009  0.4034 -0.5214 -0.4688
  861MOL0     O13555   6.616  10.351   1.103 -0.9312  0.2444 -0.8098
  861MOL0     C13556   6.680  10.225   1.132 -0.7659 -0.3849 -1.5426
  861MOL0     C13557   6.826  10.226   1.151 -0.7564  0.4059  0.2465
  861MOL0     C13558   6.886  10.371   1.172  0.3183  0.5719  0.1460
  861MOL0     C13559   7.042  10.387   1.174  0.6814 -0.0554  0.6778
  861MOL0     C13560   7.130  10.320   1.273  0.6819  0.5258  0.5837
  861MOL0     C13561   7.093  10.374   1.407  0.3966 -1.5832 -0.3083
  861MOL0     C13562   7.184  10.327   1.523  0.0626  0.2885 -0.7666
  861MOL0     C13563   7.198  10.421   1.638 -0.4872  0.1329 -0.2574
  861MOL0    Cl13564   7.032  10.483   1.689  0.1538 -0.2268  0.4610
  861MOL0     C13565   6.531  10.424   0.897  0.5981  0.2558  0.4063
  861MOL0     C13566   6.420  10.439   0.819 -0.3644  0.1365  0.5871
  861MOL0     O13567   6.303  10.443   0.560  0.2708 -0.4721  0.0768
  861MOL0     C13568   5.957  10.467   0.652  0.1661 -0.9897  0.5083
  861MOL0     C13569   5.828  10.501   0.598 -1.0344 -0.0008 -1.0972
  861MOL0     N13570   5.161  10.221   0.547  0.9503 -1.1853  0.5190
  861MOL0     N13571   5.030  10.208   0.565 -0.3763  0.3584  0.5585
  861MOL0     C13572   4.518  10.638   1.367  0.6186  1.0903  0.5215
  861MOL0     C13573   4.387  10.667   1.341  0.6333 -0.4363 -0.0475
  861MOL0     C13574   3.957  10.754   1.334  0.0768  0.2424  0.5619
  861MOL0     C13575   3.924  10.842   1.441  0.9809  0.2185  0.7345
  861MOL0     C13576   3.812  10.930   1.431 -0.6666  0.2426 -0.3439
  861MOL0     C13577   3.733  10.929   1.318  0.3950 -0.0168 -0.6090
  861MOL0     O13578   3.626  11.013   1.323  0.7932  0.0301 -0.0224
  861MOL0     C13579   3.521  11.015   1.225 -1.2153  0.4040 -0.3060
  861MOL0     C13580   3.420  10.900   1.238 -0.3547 -0.0675  0.0370
  861MOL0     C13581   3.465  10.762   1.180 -0.5896  0.2183  0.0608
  861MOL0     C13582   3.354  10.661   1.174 -0.8914 -0.5576  0.6933
  861MOL0     C13583   3.254  10.711   1.069 -1.0760 -1.2084  0.1051
  861MOL0     C13584   3.180  10.735   0.974  0.1845 -0.5979  0.0588
  861MOL0     C13585   3.776  10.857   1.204  0.6382  0.7021  0.1705
  861MOL0     C13586   3.883  10.772   1.221  0.0529  0.7524  0.8202
  861MOL0     H13587   4.248  10.528   1.612 -1.2923  2.3824 -0.7172
  861MOL0     H13588   4.482  10.419   1.623 -0.4560 -0.7626 -0.3783
  861MOL0     H13589   4.860  10.454   1.400  1.2433 -2.6974 -2.5478
  861MOL0     H13590   4.750  10.531   1.281  2.8483  1.2678 -0.0512
  861MOL0     H13591   4.627  10.287   1.376  0.8014 -2.5147 -1.3638
  861MOL0     H13592   4.798  10.252   1.364 -0.9824 -0.8319  1.0353
  861MOL0     H13593   4.638  10.364   1.138 -1.1741 -2.1110 -0.4345
  861MOL0     H13594   4.686  10.194   1.158 -2.1356  0.7870 -0.3520
  861MOL0     H13595   4.871  10.436   1.109  3.2536 -0.0912 -2.3607
  861MOL0     H13596   4.911  10.254   1.110 -2.4133 -2.3927  2.0949
  861MOL0     H13597   4.707  10.311   0.921 -0.0218 -2.5241 -0.5226
  861MOL0     H13598   4.861  10.229   0.902  0.6613  0.7234 -1.2188
  861MOL0     H13599   4.984  10.421   0.846 -1.0587 -2.4650 -1.0879
  861MOL0     H13600   4.863  10.529   0.916  1.8318 -0.5433  1.3145
  861MOL0     H13601   4.692  10.460   0.746 -0.3063  1.4534  0.0265
  861MOL0     H13602   4.835  10.567   0.709 -0.5420 -0.8661 -1.0049
  861MOL0     H13603   4.797  10.418   0.516 -3.7082 -1.0539  0.2702
  861MOL0     H13604   4.770  10.283   0.623 -1.1656  1.9875  1.2071
  861MOL0     H13605   5.074  10.527   0.550  1.3279  0.2503 -0.5619
  861MOL0     H13606   5.404  10.357   0.592  0.0418 -0.8522 -0.4869
  861MOL0     H13607   5.336  10.511   0.542 -0.6465  0.0237 -0.7893
  861MOL0     H13608   5.332  10.435   0.312 -0.0284  1.0031  0.9242
  861MOL0     H13609   5.353  10.271   0.352 -4.0350  0.0479  0.0895
  861MOL0     H13610   5.590  10.307   0.409  0.1470 -0.2152 -0.7499
  861MOL0     H13611   5.559  10.409   0.265 -1.9077 -3.0139 -1.6492
  861MOL0     H13612   5.577  10.522   0.557  1.4612  1.1221  0.3186
  861MOL0     H13613   5.506  10.598   0.423 -2.8747 -3.2321  0.5291
  861MOL0     H13614   5.905  10.561   0.279  1.5256  1.5047 -0.1780
  861MOL0     H13615   6.134  10.489   0.362  0.7167  1.4616  0.0335
  861MOL0     H13616   6.218  10.191   0.928 -1.2703  1.0429 -1.1463
  861MOL0     H13617   6.408  10.183   1.105  1.1747  1.4371  0.7422
  861MOL0     H13618   6.669  10.145   1.058 -1.0943 -3.0110  1.1527
  861MOL0     H13619   6.628  10.171   1.211 -0.5659 -0.8858 -1.7472
  861MOL0     H13620   6.871  10.194   1.057 -0.7822 -2.3623  1.1002
  861MOL0     H13621   6.857  10.150   1.223  0.3175 -0.4798 -1.0957
  861MOL0     H13622   6.847  10.415   1.264  0.0522  0.5019  0.0700
  861MOL0     H13623   6.852  10.435   1.089  0.7840 -1.0784 -1.3792
  861MOL0     H13624   7.083  10.348   1.080  2.0220 -0.7475  1.5241
  861MOL0     H13625   7.072  10.492   1.169  2.9391 -0.6888 -2.5630
  861MOL0     H13626   7.237  10.328   1.252  0.5560 -1.5633 -1.1460
  861MOL0     H13627   7.111  10.213   1.289  2.5846  0.2044  0.8724
  861MOL0     H13628   6.992  10.337   1.428  0.6886 -2.4734 -0.4327
  861MOL0     H13629   7.090  10.483   1.397  0.2254 -1.4048  1.4694
  861MOL0     H13630   7.142  10.236   1.568 -1.3208  2.0335  1.7787
  861MOL0     H13631   7.283  10.304   1.484 -0.3968 -2.5424 -0.4641
  861MOL0     H13632   7.267  10.505   1.626  0.4992 -0.4445  1.1205
  861MOL0     H13633   7.245  10.373   1.725  3.1276 -0.9683 -2.5878
  861MOL0     H13634   6.624  10.481   0.889  1.8843 -1.5935  1.3451
  861MOL0     H13635   6.424  10.519   0.745  0.3262 -1.8327 -1.6504
  861MOL0     H13636   5.957  10.433   0.755 -0.1170  3.1347  2.0247
  861MOL0     H13637   5.736  10.488   0.654 -1.3688 -2.7483 -2.1471
  861MOL0     H13638   4.602  10.682   1.313  0.2100  0.1631 -0.9439
  861MOL0     H13639   4.362  10.749   1.274 -0.2903  1.4473  2.4454
  861MOL0     H13640   3.979  10.830   1.533  3.5463 -1.2800 -0.8813
  861MOL0     H13641   3.774  10.992   1.512  0.1054 -2.3481  2.1902
  861MOL0     H13642   3.561  11.008   1.123 -3.3543 -2.8107 -1.0864
  861MOL0     H13643   3.463  11.106   1.243 -1.3365 -0.0848  2.1108
  861MOL0     H13644   3.407  10.880   1.345 -3.9223  2.6677  0.3083
  861MOL0     H13645   3.324  10.930   1.196 -3.8765 -6.5642  1.9777
  861MOL0     H13646   3.551  10.711   1.224 -1.0900 -0.6787  0.0183
  861MOL0     H13647   3.500  10.784   1.079  0.9488 -0.2617  0.4554
  861MOL0     H13648   3.398  10.567   1.141  2.1957  0.9828  0.1009
  861MOL0     H13649   3.306  10.649   1.271  1.0279  0.1548  1.7843
  861MOL0     H13650   3.107  10.755   0.898 -0.0316 -0.0440  0.4026
  861MOL0     H13651   3.725  10.869   1.109  0.5186  2.9460  0.4609
  861MOL0     H13652   3.900  10.715   1.129 -0.5558  1.2774  0.3736
  862MOL0     O13653   5.379   3.127   6.660 -0.9645  0.1385  0.6987
  862MOL0     C13654   5.361   3.051   6.565  0.0141 -0.8218 -0.5602
  862MOL0     O13655   5.443   3.032   6.453  0.1185 -0.5092  0.2999
  862MOL0     C13656   5.547   3.123   6.420  1.0071 -0.1105 -1.8288
  862MOL0     C13657   5.603   3.224   6.498  0.4378 -0.0861  0.3119
  862MOL0     C13658   5.707   3.302   6.449 -0.3786 -0.0654  0.3059
  862MOL0     C13659   5.768   3.272   6.323 -0.3294  0.6035 -0.2210
  862MOL0     O13660   5.863   3.368   6.277 -0.1398 -0.0401 -0.4788
  862MOL0     C13661   5.914   3.356   6.141 -0.6683 -0.0852 -0.3420
  862MOL0     C13662   5.990   3.479   6.101  0.9089 -0.0962  0.4976
  862MOL0     C13663   5.891   3.583   6.052  0.4264  0.0244 -0.2310
  862MOL0     C13664   5.959   3.719   6.009 -0.1834  1.1287 -0.6181
  862MOL0     C13665   5.904   3.785   5.892 -0.2967 -0.6927 -0.4526
  862MOL0     C13666   5.941   3.715   5.761 -0.2646  0.0879 -0.1766
  862MOL0     C13667   5.922   3.800   5.638 -0.1572  0.1396 -0.2307
  862MOL0     C13668   5.929   3.717   5.510  0.1516  0.2149  0.1707
  862MOL0     N13669   6.032   3.609   5.519 -0.6555 -0.5559  0.8771
  862MOL0     C13670   6.170   3.608   5.498 -0.4168 -0.6068  0.6952
  862MOL0     C13671   6.210   3.498   5.547 -0.1262  0.4459 -1.0957
  862MOL0     C13672   6.348   3.459   5.591  0.1795  0.6803  0.0710
  862MOL0     C13673   6.421   3.557   5.686  0.0514 -0.0401  0.1348
  862MOL0     C13674   6.543   3.491   5.755  0.1326 -0.0785 -0.3284
  862MOL0     C13675   6.625   3.596   5.817 -0.2422  0.0394  0.5747
  862MOL0     O13676   6.536   3.686   5.897  0.5625 -0.3414 -1.8347
  862MOL0     C13677   6.528   3.644   6.030 -0.2769  0.7654  0.4466
  862MOL0     C13678   6.620   3.669   6.126  0.0893  0.7906 -0.8510
  862MOL0     C13679   6.623   3.621   6.255  1.1145  0.9667  0.6847
  862MOL0     C13680   6.527   3.525   6.292  0.3686 -0.4330  0.0505
  862MOL0     C13681   6.543   3.457   6.425 -0.6807  0.4365 -1.2387
  862MOL0     O13682   6.630   3.515   6.515 -0.4793 -0.3291 -0.9406
  862MOL0     C13683   6.660   3.449   6.630 -0.3465  0.1688  0.1267
  862MOL0     C13684   6.779   3.368   6.635  1.0968 -0.7467 -0.0183
  862MOL0     C13685   6.811   3.296   6.747  0.5728 -0.5237  0.7472
  862MOL0     C13686   6.737   3.313   6.858  1.1936 -0.6471 -0.2901
  862MOL0     O13687   6.780   3.267   6.985  0.0725 -0.2356 -0.3257
  862MOL0     C13688   6.780   3.125   6.995 -0.2991  0.5925  0.1465
  862MOL0     C13689   6.660   3.073   7.077  0.3460  0.1738  0.4955
  862MOL0     C13690   6.657   3.142   7.208 -0.1253 -0.8020 -0.2880
  862MOL0     C13691   6.752   3.065   7.305 -0.6562  0.1167  0.1206
  862MOL0     C13692   6.746   3.116   7.448 -0.3169  0.2148 -0.3789
  862MOL0     C13693   6.814   3.010   7.527 -0.9658  0.7565 -0.0073
  862MOL0     C13694   6.825   3.047   7.680 -0.1006  0.5844  0.3808
  862MOL0     C13695   6.868   2.940   7.771 -1.1363 -0.2118 -0.0884
  862MOL0    Cl13696   6.903   3.012   7.928 -0.0702 -0.3293  0.3803
  862MOL0     C13697   6.626   3.394   6.862 -0.1475 -0.8030 -0.3370
  862MOL0     C13698   6.581   3.468   6.749  0.3410 -1.2066  1.2126
  862MOL0     O13699   6.483   3.354   6.457 -0.4134  0.7999 -0.2107
  862MOL0     C13700   6.421   3.508   6.194  0.2158  0.0958 -0.0307
  862MOL0     C13701   6.419   3.561   6.057  0.8375  0.1533 -0.8842
  862MOL0     N13702   6.098   3.423   5.597  0.3175  0.2504  0.2190
  862MOL0     N13703   5.993   3.486   5.563  0.3116 -0.1025 -0.5000
  862MOL0     C13704   5.698   3.179   6.240 -0.3489 -0.6914 -0.1785
  862MOL0     C13705   5.596   3.103   6.299 -0.0674  0.0679  0.2469
  862MOL0     C13706   5.239   2.972   6.564 -0.4938 -0.1448 -0.3308
  862MOL0     C13707   5.133   3.001   6.647  0.0591 -0.2215  0.0057
  862MOL0     C13708   5.020   2.913   6.660 -0.2343  0.5278  1.3147
  862MOL0     C13709   5.013   2.801   6.579 -0.6712  0.2558  0.0334
  862MOL0     O13710   4.901   2.726   6.594 -0.2481  0.4806  0.1800
  862MOL0     C13711   4.851   2.661   6.478  1.4463  0.6312  0.5534
  862MOL0     C13712   4.887   2.516   6.454 -0.2798  1.8275  0.3684
  862MOL0     C13713   4.803   2.450   6.349 -0.0524 -0.1328 -0.3653
  862MOL0     C13714   4.852   2.306   6.312 -0.5451 -0.0940  0.1429
  862MOL0     C13715   4.947   2.317   6.206 -0.5098 -0.1402 -0.3439
  862MOL0     C13716   5.029   2.334   6.109 -0.3657 -0.1687 -0.1095
  862MOL0     C13717   5.123   2.770   6.496  0.9120 -0.2275 -0.8361
  862MOL0     C13718   5.234   2.855   6.492 -0.1049  0.0640 -0.0642
  862MOL0     H13719   5.571   3.242   6.600  3.3402 -2.2676  1.7625
  862MOL0     H13720   5.738   3.387   6.507 -1.0339  1.3853 -1.3714
  862MOL0     H13721   5.821   3.354   6.083 -1.1845 -1.1174  0.4882
  862MOL0     H13722   5.976   3.266   6.139  2.0422  1.5496  2.1286
  862MOL0     H13723   6.049   3.448   6.014  1.1199  2.3521 -0.2991
  862MOL0     H13724   6.050   3.512   6.186  0.0194  0.9648  0.7366
  862MOL0     H13725   5.811   3.596   6.125 -0.5418  1.4973 -1.4916
  862MOL0     H13726   5.837   3.554   5.961  2.2066  2.1648 -2.0840
  862MOL0     H13727   5.938   3.787   6.092 -3.1949 -0.6085  0.1974
  862MOL0     H13728   6.067   3.701   6.014 -0.7376 -3.2200  3.8664
  862MOL0     H13729   5.951   3.883   5.900 -0.0013 -0.7533 -1.2803
  862MOL0     H13730   5.796   3.797   5.907 -0.1276 -0.7227  0.8705
  862MOL0     H13731   5.872   3.631   5.758  1.8357 -1.8867  2.0541
  862MOL0     H13732   6.048   3.694   5.776 -0.8403 -1.0448  3.2451
  862MOL0     H13733   5.821   3.839   5.625 -0.1008  0.6030  0.6296
  862MOL0     H13734   5.998   3.878   5.626 -1.9342  1.8422 -0.9521
  862MOL0     H13735   5.960   3.793   5.437 -0.5323  2.1638  1.8313
  862MOL0     H13736   5.833   3.670   5.485  1.8152 -2.7714 -1.2248
  862MOL0     H13737   6.238   3.690   5.476 -0.2999 -0.6521  0.8865
  862MOL0     H13738   6.399   3.453   5.495 -2.9916  0.9602 -1.7846
  862MOL0     H13739   6.332   3.363   5.642 -0.6956 -2.0257 -4.7270
  862MOL0     H13740   6.341   3.575   5.759 -2.2288 -0.8415 -2.0197
  862MOL0     H13741   6.451   3.654   5.646 -1.0338  0.6002  0.8115
  862MOL0     H13742   6.509   3.414   5.825 -1.3628  0.9974  0.1845
  862MOL0     H13743   6.612   3.450   5.681 -0.2871  2.5466 -2.3399
  862MOL0     H13744   6.688   3.658   5.753  0.4418 -0.1495  1.0521
  862MOL0     H13745   6.698   3.550   5.885 -2.5126 -0.4805  2.8308
  862MOL0     H13746   6.699   3.734   6.090  2.3487 -2.4609 -2.1726
  862MOL0     H13747   6.706   3.644   6.321  1.1220 -2.7825  2.2444
  862MOL0     H13748   6.840   3.357   6.546 -0.7747 -0.2543 -1.4405
  862MOL0     H13749   6.897   3.230   6.746  1.9897  1.2580 -0.9803
  862MOL0     H13750   6.873   3.099   7.047  0.1138 -1.9969 -1.6624
  862MOL0     H13751   6.792   3.078   6.897 -1.0340  2.1970 -0.7497
  862MOL0     H13752   6.668   2.964   7.082  3.1740  0.1268 -2.3571
  862MOL0     H13753   6.570   3.102   7.022  1.1749  2.3620  0.1849
  862MOL0     H13754   6.551   3.142   7.233 -1.1613 -0.2447 -4.0185
  862MOL0     H13755   6.692   3.245   7.193 -1.3674 -0.7384 -3.3890
  862MOL0     H13756   6.741   2.956   7.305  1.1252 -0.1099  1.5607
  862MOL0     H13757   6.850   3.083   7.261 -1.1621  0.8984 -0.7439
  862MOL0     H13758   6.642   3.127   7.480  0.2631 -2.0172  2.6907
  862MOL0     H13759   6.793   3.214   7.446  0.0531  0.0340 -2.3443
  862MOL0     H13760   6.912   2.997   7.481 -0.3725  2.5104  0.6679
  862MOL0     H13761   6.772   2.909   7.522  2.7572 -0.9505 -0.6069
  862MOL0     H13762   6.897   3.128   7.694  0.1131  0.0592  2.7025
  862MOL0     H13763   6.724   3.083   7.705 -0.6494  0.7278 -1.8162
  862MOL0     H13764   6.957   2.888   7.734  0.6471  0.3829  3.0919
  862MOL0     H13765   6.785   2.872   7.792 -0.3164 -0.7170  1.6277
  862MOL0     H13766   6.563   3.411   6.948  1.7277 -1.7057  1.2733
  862MOL0     H13767   6.495   3.534   6.750  0.0593 -1.5106 -0.2247
  862MOL0     H13768   6.336   3.446   6.222  2.9444 -2.4452  3.5798
  862MOL0     H13769   6.335   3.547   5.990  0.6646 -0.7224 -0.4960
  862MOL0     H13770   5.727   3.171   6.136 -0.2442  2.6684 -0.4981
  862MOL0     H13771   5.567   3.022   6.233 -1.3483  0.4502  0.3173
  862MOL0     H13772   5.148   3.086   6.713  0.8851 -1.6652  1.7834
  862MOL0     H13773   4.940   2.948   6.724 -0.5663  2.7686 -0.2203
  862MOL0     H13774   4.883   2.716   6.389  0.7712  0.1982  0.0371
  862MOL0     H13775   4.742   2.653   6.482  1.3605  1.8197  0.8881
  862MOL0     H13776   4.995   2.514   6.439 -0.4630 -0.4562 -1.0602
  862MOL0     H13777   4.870   2.467   6.551  4.0131 -1.7308 -0.3899
  862MOL0     H13778   4.797   2.516   6.262  0.6050  2.5589  1.5017
  862MOL0     H13779   4.703   2.437   6.392 -1.0892  1.3820 -2.1777
  862MOL0     H13780   4.893   2.265   6.405  0.0661  2.6413  1.1629
  862MOL0     H13781   4.771   2.241   6.276 -2.0658  2.4605 -1.3209
  862MOL0     H13782   5.088   2.349   6.021 -2.3161  1.1436 -1.2633
  862MOL0     H13783   5.118   2.678   6.439  0.4643 -2.2412  2.2222
  862MOL0     H13784   5.322   2.833   6.432 -0.2026 -3.3419  0.8291
  863MOL0     O13785   0.932   4.767   8.360 -0.5231 -0.1106 -0.1962
  863MOL0     C13786   0.856   4.680   8.413 -0.4150 -0.3563 -0.3882
  863MOL0     O13787   0.894   4.554   8.448  0.5015  0.4424 -0.2069
  863MOL0     C13788   1.026   4.528   8.432  0.4767 -0.2168 -0.0744
  863MOL0     C13789   1.078   4.493   8.309 -0.2469  0.1033  0.3654
  863MOL0     C13790   1.217   4.461   8.305 -1.4151  0.2584 -0.4854
  863MOL0     C13791   1.307   4.494   8.410 -0.7147  0.8291  0.2219
  863MOL0     O13792   1.438   4.456   8.385  0.3648 -0.7424  0.7606
  863MOL0     C13793   1.535   4.486   8.485  1.5036  0.2772  0.7510
  863MOL0     C13794   1.662   4.421   8.439  0.0993  0.8946  0.0694
  863MOL0     C13795   1.756   4.416   8.564 -0.4361 -0.8185 -0.0922
  863MOL0     C13796   1.879   4.331   8.528 -0.3543 -0.4935  0.6697
  863MOL0     C13797   1.962   4.310   8.660  0.1716 -0.8409  0.4857
  863MOL0     C13798   2.085   4.223   8.647 -0.7128  0.1406 -0.8321
  863MOL0     C13799   2.163   4.220   8.776  0.7769  0.4656 -0.0425
  863MOL0     C13800   2.301   4.139   8.758  0.5940 -0.6614  0.3467
  863MOL0     N13801   2.283   3.995   8.761  0.4749  0.7604  0.4182
  863MOL0     C13802   2.370   3.902   8.707 -0.0667  0.3348 -0.0294
  863MOL0     C13803   2.317   3.782   8.745  1.0718 -0.3960 -0.5725
  863MOL0     C13804   2.369   3.644   8.718  0.4349 -0.5788  0.2136
  863MOL0     C13805   2.434   3.648   8.575 -0.7357 -0.1188  0.3789
  863MOL0     C13806   2.338   3.691   8.465  0.9766  1.0493  0.7346
  863MOL0     C13807   2.394   3.674   8.322  0.1306 -0.3338  0.1830
  863MOL0     O13808   2.309   3.724   8.227 -0.4493  0.1118 -0.1216
  863MOL0     C13809   2.328   3.677   8.096 -0.5815  0.5409  0.1120
  863MOL0     C13810   2.438   3.603   8.059  0.2206 -0.0418  0.0139
  863MOL0     C13811   2.446   3.551   7.928 -0.2181 -0.9198  0.8738
  863MOL0     C13812   2.349   3.588   7.831 -0.8154 -0.6798  0.9287
  863MOL0     C13813   2.358   3.518   7.703  1.0091  0.4849 -0.1488
  863MOL0     O13814   2.467   3.439   7.674  0.0843 -0.1118 -0.0592
  863MOL0     C13815   2.453   3.334   7.595  0.1937 -0.0839  0.1872
  863MOL0     C13816   2.548   3.306   7.504 -0.3637 -0.0245  0.3009
  863MOL0     C13817   2.550   3.184   7.447  0.5674  0.2006  0.9145
  863MOL0     C13818   2.437   3.099   7.455  0.2615  1.4219  0.2369
  863MOL0     O13819   2.442   2.989   7.383  0.4542  0.0027  0.0656
  863MOL0     C13820   2.316   2.938   7.330 -0.1602 -0.3253 -0.2722
  863MOL0     C13821   2.330   2.834   7.224  0.1066  1.4683 -0.4156
  863MOL0     C13822   2.377   2.895   7.086 -0.3293  0.1405 -0.3650
  863MOL0     C13823   2.332   2.800   6.971  0.4314 -0.3351 -0.6296
  863MOL0     C13824   2.301   2.880   6.843 -0.3249  0.2304 -0.0770
  863MOL0     C13825   2.416   2.925   6.744  0.4533  1.0576 -0.4181
  863MOL0     C13826   2.497   3.039   6.806 -0.1911 -0.7621  0.3954
  863MOL0     C13827   2.587   3.124   6.718  0.2736 -0.2752  0.0778
  863MOL0    Cl13828   2.499   3.185   6.574  0.5324 -0.0668 -0.4029
  863MOL0     C13829   2.330   3.141   7.533  0.9458  0.0469 -1.0559
  863MOL0     C13830   2.341   3.254   7.608  0.1362 -0.6235  0.2494
  863MOL0     O13831   2.266   3.533   7.624 -0.1441 -0.3178  0.1368
  863MOL0     C13832   2.259   3.692   7.865  0.2530 -0.4272 -0.5020
  863MOL0     C13833   2.247   3.727   7.994  0.2864  0.2564 -0.6206
  863MOL0     N13834   2.192   3.802   8.810  0.0597  0.7062 -0.5914
  863MOL0     N13835   2.172   3.928   8.817 -0.0336  0.1489  0.2815
  863MOL0     C13836   1.247   4.530   8.530  0.9327  0.1198 -0.4747
  863MOL0     C13837   1.108   4.561   8.533 -0.4780 -0.2731 -0.5076
  863MOL0     C13838   0.717   4.720   8.426 -0.5835  1.2447 -0.2818
  863MOL0     C13839   0.612   4.634   8.455  0.0135  0.4848  0.9713
  863MOL0     C13840   0.481   4.670   8.450 -0.1197 -0.4514 -0.0022
  863MOL0     C13841   0.438   4.800   8.418  0.2412 -0.2021  0.7413
  863MOL0     O13842   0.305   4.823   8.414  0.5873  0.6224 -0.3377
  863MOL0     C13843   0.263   4.956   8.415  0.5987 -0.6717  0.1365
  863MOL0     C13844   0.109   4.958   8.462  1.0418 -0.6121 -0.0187
  863MOL0     C13845   0.051   5.112   8.459 -0.2383 -0.1200  0.1909
  863MOL0     C13846   0.048   5.168   8.321  0.3398  0.0927 -0.3009
  863MOL0     C13847   0.001   5.304   8.335  0.5114  0.4629 -0.8422
  863MOL0     C13848  -0.076   5.404   8.345 -0.0279  0.3264  0.2687
  863MOL0     C13849   0.538   4.889   8.386 -0.1227 -0.1577  0.2265
  863MOL0     C13850   0.666   4.849   8.379 -0.1056 -0.2925 -0.4833
  863MOL0     H13851   1.007   4.481   8.228 -1.5353 -1.5558  1.6713
  863MOL0     H13852   1.262   4.430   8.211  0.3886 -2.9800  1.2698
  863MOL0     H13853   1.491   4.456   8.581 -2.6837  1.6160 -0.5216
  863MOL0     H13854   1.549   4.595   8.489 -2.1106  0.8490  3.7115
  863MOL0     H13855   1.716   4.467   8.355  2.5656  0.2531  1.2124
  863MOL0     H13856   1.638   4.319   8.408  0.0074  0.4393  1.5536
  863MOL0     H13857   1.700   4.364   8.643  0.8291 -3.7805 -1.0137
  863MOL0     H13858   1.790   4.518   8.581 -0.6063  0.0280 -3.9487
  863MOL0     H13859   1.851   4.235   8.483  0.3239 -0.3261 -0.1374
  863MOL0     H13860   1.952   4.375   8.459  0.9923 -2.8550  0.4498
  863MOL0     H13861   1.901   4.259   8.736  2.0032 -1.1894  1.7887
  863MOL0     H13862   1.995   4.408   8.694  0.9450 -0.8791 -0.1359
  863MOL0     H13863   2.147   4.264   8.566 -2.2696  3.4360 -0.5134
  863MOL0     H13864   2.070   4.118   8.620  1.9893 -0.5660  0.1233
  863MOL0     H13865   2.194   4.322   8.799 -0.1192  0.9238 -0.7876
  863MOL0     H13866   2.117   4.172   8.863  2.5826  0.4985  0.9861
  863MOL0     H13867   2.375   4.167   8.834 -1.3858 -0.3212  2.2825
  863MOL0     H13868   2.331   4.163   8.656 -1.8842 -2.3656 -0.8999
  863MOL0     H13869   2.459   3.931   8.651 -0.9690  1.3618 -0.9750
  863MOL0     H13870   2.286   3.573   8.705  0.6406 -0.3570 -3.6124
  863MOL0     H13871   2.445   3.613   8.790  2.4493 -1.0054 -1.9646
  863MOL0     H13872   2.468   3.546   8.552  5.7110  1.5807  0.4210
  863MOL0     H13873   2.524   3.710   8.581 -0.6955 -0.1827  0.4281
  863MOL0     H13874   2.257   3.618   8.469  1.4120  0.4827 -0.2516
  863MOL0     H13875   2.300   3.793   8.476 -0.1600  0.9150 -1.4208
  863MOL0     H13876   2.425   3.571   8.304  2.7458  0.3744  0.1992
  863MOL0     H13877   2.495   3.718   8.318 -0.3113  0.8408  1.1718
  863MOL0     H13878   2.521   3.578   8.125  1.4718  1.0401 -1.0925
  863MOL0     H13879   2.524   3.478   7.911 -0.6635 -1.5946  1.6530
  863MOL0     H13880   2.637   3.368   7.500 -1.1949  1.1760 -2.8214
  863MOL0     H13881   2.633   3.155   7.384  0.5078 -1.4009  1.5377
  863MOL0     H13882   2.255   3.020   7.290  0.1513 -0.7625 -1.6997
  863MOL0     H13883   2.263   2.883   7.408  0.0665 -2.3470 -1.4797
  863MOL0     H13884   2.227   2.803   7.205  0.8043  0.5007 -3.0730
  863MOL0     H13885   2.394   2.752   7.258  0.1104  1.9449  0.7765
  863MOL0     H13886   2.486   2.903   7.080 -0.2575 -0.9683 -0.5989
  863MOL0     H13887   2.336   2.995   7.064  0.7067  0.1840 -2.3470
  863MOL0     H13888   2.402   2.719   6.951  1.6245  0.7840 -1.1682
  863MOL0     H13889   2.239   2.755   7.005  0.4078  0.1542 -0.0265
  863MOL0     H13890   2.255   2.976   6.868 -1.3177 -0.5065  1.0102
  863MOL0     H13891   2.230   2.821   6.784 -4.0414  1.0347  3.1961
  863MOL0     H13892   2.381   2.970   6.651  1.3599 -0.1145 -1.3675
  863MOL0     H13893   2.499   2.854   6.732  2.0187  2.2345  2.2925
  863MOL0     H13894   2.427   3.110   6.853 -0.6618 -1.1322  0.2644
  863MOL0     H13895   2.555   3.003   6.892 -1.9680 -0.4725  1.7924
  863MOL0     H13896   2.670   3.062   6.684  0.2597 -1.3352  1.8456
  863MOL0     H13897   2.629   3.198   6.787 -2.2285 -1.1687  2.8116
  863MOL0     H13898   2.239   3.082   7.530  1.3499 -0.8344  1.4332
  863MOL0     H13899   2.259   3.266   7.679  1.4623  1.3544  1.5588
  863MOL0     H13900   2.192   3.735   7.791 -2.4205 -2.2005  0.7302
  863MOL0     H13901   2.161   3.789   8.017 -1.0099 -1.4526 -0.7088
  863MOL0     H13902   1.322   4.549   8.605  2.7317 -3.2090 -1.2307
  863MOL0     H13903   1.072   4.604   8.626  2.0379 -0.9017  0.8474
  863MOL0     H13904   0.635   4.533   8.488  0.7933  1.2703  3.0041
  863MOL0     H13905   0.414   4.602   8.499  2.1152 -1.9501  1.1405
  863MOL0     H13906   0.274   5.013   8.322 -0.2659 -1.4922 -0.4989
  863MOL0     H13907   0.310   5.014   8.495  0.2356 -0.9948  0.5890
  863MOL0     H13908   0.051   4.893   8.396  0.5611 -1.1268  0.8897
  863MOL0     H13909   0.097   4.916   8.562 -0.6170 -1.3367 -0.4965
  863MOL0     H13910   0.114   5.172   8.525  1.2842 -1.7011  0.2646
  863MOL0     H13911  -0.050   5.096   8.496 -1.8177 -0.8454 -3.8718
  863MOL0     H13912   0.144   5.163   8.269  1.1333 -0.9224  1.1866
  863MOL0     H13913  -0.024   5.106   8.266 -1.5077 -2.0387  4.0609
  863MOL0     H13914  -0.159   5.471   8.358  0.3125  0.4063  2.3635
  863MOL0     H13915   0.528   4.994   8.363 -2.2972 -0.2928  0.3121
  863MOL0     H13916   0.746   4.920   8.360 -1.4384  0.7563 -2.4690
  864MOL0     O13917   0.816   2.400   6.540 -0.1007  0.2260 -0.4509
  864MOL0     C13918   0.839   2.468   6.639 -0.2025  0.8540  0.6329
  864MOL0     O13919   0.757   2.480   6.743  0.3232 -0.5944  0.0011
  864MOL0     C13920   0.668   2.378   6.764  0.1542  0.6307  0.3811
  864MOL0     C13921   0.709   2.245   6.791  0.3839 -0.3996  0.8850
  864MOL0     C13922   0.620   2.144   6.813  0.2278 -0.1053 -0.1431
  864MOL0     C13923   0.485   2.168   6.821 -0.4260  0.3257 -0.2500
  864MOL0     O13924   0.425   2.063   6.885  0.2871 -0.0289  0.1700
  864MOL0     C13925   0.288   2.085   6.933 -0.1636  0.1053  0.1502
  864MOL0     C13926   0.252   1.972   7.020  0.5998 -1.1298  0.5904
  864MOL0     C13927   0.340   1.932   7.142  0.0254 -1.1077 -0.2475
  864MOL0     C13928   0.291   1.792   7.187  0.1117  0.7613  0.5502
  864MOL0     C13929   0.337   1.748   7.326  0.6705  0.3463 -0.8040
  864MOL0     C13930   0.495   1.733   7.338 -0.0522  0.5632  0.7712
  864MOL0     C13931   0.520   1.641   7.461  0.4537  0.7517  0.0949
  864MOL0     C13932   0.461   1.694   7.597 -0.2603  0.1789 -0.6013
  864MOL0     N13933   0.522   1.821   7.637 -0.0081  0.4833 -0.3736
  864MOL0     C13934   0.645   1.823   7.695 -0.7329 -0.4035 -0.9840
  864MOL0     C13935   0.653   1.947   7.743  0.0720 -0.4475  0.8643
  864MOL0     C13936   0.777   1.992   7.809 -0.2166  0.0856 -0.1256
  864MOL0     C13937   0.805   1.902   7.921  0.3671 -0.0371 -0.4154
  864MOL0     C13938   0.882   1.984   8.028  0.8473 -0.5369  0.1024
  864MOL0     C13939   1.027   2.021   7.997  0.9509 -0.2422 -0.7984
  864MOL0     O13940   1.115   1.917   8.022 -0.4770  0.1007 -0.0224
  864MOL0     C13941   1.252   1.928   8.004  0.8836 -0.1007 -0.6031
  864MOL0     C13942   1.329   1.817   8.035  0.2989  0.4846 -0.1596
  864MOL0     C13943   1.464   1.811   8.012  0.0812 -0.1525 -1.1365
  864MOL0     C13944   1.534   1.928   7.956  0.9815  0.7715  0.5571
  864MOL0     C13945   1.672   1.930   7.923 -0.9472 -0.4399  0.3781
  864MOL0     O13946   1.754   1.828   7.960 -0.1536 -0.0363 -0.6916
  864MOL0     C13947   1.873   1.801   7.901  0.1656  1.0832  0.8132
  864MOL0     C13948   1.985   1.798   7.981 -0.0820  0.0029  0.2836
  864MOL0     C13949   2.110   1.775   7.922 -0.3110  0.2482  0.0898
  864MOL0     C13950   2.115   1.738   7.791 -0.1359  0.6414 -0.7539
  864MOL0     O13951   2.234   1.692   7.728  0.2673  0.0385  0.0254
  864MOL0     C13952   2.264   1.743   7.591 -0.2959  0.4187  0.7057
  864MOL0     C13953   2.415   1.780   7.553  0.4525  0.2889 -0.0638
  864MOL0     C13954   2.479   1.847   7.670 -0.4538 -0.3336  0.4777
  864MOL0     C13955   2.537   1.733   7.759  1.0533  0.8816  0.3809
  864MOL0     C13956   2.610   1.810   7.879  0.0462  0.5173  0.0781
  864MOL0     C13957   2.710   1.722   7.942  0.3569  0.5217 -0.1120
  864MOL0     C13958   2.767   1.775   8.068 -0.1872  0.0951 -0.0985
  864MOL0     C13959   2.848   1.675   8.155 -0.1674 -0.5592 -0.4154
  864MOL0    Cl13960   2.890   1.751   8.311 -0.4965 -0.0000  0.7897
  864MOL0     C13961   2.001   1.745   7.708  0.5572 -0.2107 -0.1547
  864MOL0     C13962   1.878   1.773   7.763 -0.3073 -0.0514  0.6741
  864MOL0     O13963   1.713   2.028   7.861  0.2145  0.0179  0.3716
  864MOL0     C13964   1.453   2.038   7.935 -0.1621 -0.2718  0.6866
  864MOL0     C13965   1.314   2.047   7.965 -0.7118  0.4263 -0.1905
  864MOL0     N13966   0.544   2.022   7.724  0.8142 -0.6360  0.6687
  864MOL0     N13967   0.453   1.944   7.662 -0.0675 -0.3870  0.7097
  864MOL0     C13968   0.437   2.295   6.786 -0.2291 -0.3495 -0.2493
  864MOL0     C13969   0.525   2.405   6.760 -0.5358 -0.1757  0.4559
  864MOL0     C13970   0.964   2.540   6.636 -0.7063  0.4284 -0.9027
  864MOL0     C13971   1.025   2.579   6.759 -0.1186  0.0780  0.0514
  864MOL0     C13972   1.155   2.634   6.755 -0.5517  0.3769  0.1764
  864MOL0     C13973   1.226   2.640   6.630 -0.3003  0.8074 -0.5474
  864MOL0     O13974   1.363   2.663   6.628 -0.1559 -0.5013 -0.3481
  864MOL0     C13975   1.434   2.600   6.737 -0.1502 -0.9782 -0.8586
  864MOL0     C13976   1.500   2.703   6.828 -1.1085  0.1016  0.6464
  864MOL0     C13977   1.608   2.789   6.754  0.7474  0.5788  0.3057
  864MOL0     C13978   1.694   2.869   6.852 -0.0375 -0.9155 -0.1306
  864MOL0     C13979   1.822   2.807   6.884 -0.5534 -0.3824 -0.5484
  864MOL0     C13980   1.937   2.781   6.922  0.9619  0.3721 -0.2974
  864MOL0     C13981   1.168   2.596   6.518 -0.1633  0.0051 -0.0842
  864MOL0     C13982   1.040   2.552   6.516  0.3883  0.5986 -0.4888
  864MOL0     H13983   0.811   2.208   6.785 -0.8175 -3.8391 -0.4793
  864MOL0     H13984   0.659   2.049   6.848  1.8655  0.7061  0.3427
  864MOL0     H13985   0.214   2.088   6.853  0.2816  1.4004 -0.2408
  864MOL0     H13986   0.280   2.175   6.994  1.5846 -0.8126  1.8564
  864MOL0     H13987   0.255   1.893   6.945 -0.8551  0.6046 -1.4158
  864MOL0     H13988   0.150   1.994   7.054  2.1631  1.1351  4.5167
  864MOL0     H13989   0.314   1.997   7.226 -3.5781 -0.9176 -1.3157
  864MOL0     H13990   0.448   1.932   7.127 -0.0763 -0.3878 -1.0603
  864MOL0     H13991   0.182   1.801   7.185  0.1685  1.9551  1.5179
  864MOL0     H13992   0.322   1.727   7.105  0.5153 -0.7914  1.8781
  864MOL0     H13993   0.285   1.654   7.342 -1.0180  1.5100  1.0189
  864MOL0     H13994   0.307   1.824   7.399  2.1622  1.4270 -1.2538
  864MOL0     H13995   0.550   1.827   7.346  1.3202 -0.0410 -0.9032
  864MOL0     H13996   0.544   1.678   7.257 -0.1331 -1.7342  2.1804
  864MOL0     H13997   0.465   1.548   7.449  1.6294 -0.0753  0.8849
  864MOL0     H13998   0.625   1.615   7.478  0.4483 -0.2283 -1.2203
  864MOL0     H13999   0.479   1.621   7.676  1.7220  2.8902  1.6602
  864MOL0     H14000   0.353   1.709   7.588 -0.7475 -1.8040  1.2297
  864MOL0     H14001   0.716   1.742   7.709 -0.0881  0.5543  1.6936
  864MOL0     H14002   0.761   2.096   7.838  2.0033  0.5963 -0.5528
  864MOL0     H14003   0.860   1.987   7.738  0.2610 -0.7546  0.4680
  864MOL0     H14004   0.854   1.813   7.881  1.2966 -0.4539  1.5637
  864MOL0     H14005   0.709   1.874   7.965  0.7688 -0.9966 -0.1299
  864MOL0     H14006   0.820   2.074   8.039 -0.0997 -1.2025  0.3365
  864MOL0     H14007   0.882   1.927   8.121  2.6110 -1.2651 -0.2969
  864MOL0     H14008   1.052   2.109   8.056  1.2672  1.4008 -3.2371
  864MOL0     H14009   1.030   2.061   7.895  0.6410  1.9964  0.0222
  864MOL0     H14010   1.280   1.725   8.064 -3.0591  1.1772 -2.8529
  864MOL0     H14011   1.515   1.716   8.026  1.2761  0.3592 -1.7931
  864MOL0     H14012   1.983   1.821   8.087  1.0944  1.8243 -0.0376
  864MOL0     H14013   2.194   1.782   7.991 -1.1839  2.7292  1.0202
  864MOL0     H14014   2.216   1.841   7.579 -2.2179 -0.3545  1.6661
  864MOL0     H14015   2.221   1.681   7.513 -2.8774  1.9359  0.8042
  864MOL0     H14016   2.401   1.851   7.471  1.2384  0.4992 -0.0216
  864MOL0     H14017   2.478   1.702   7.510  0.1365  1.7391 -3.4902
  864MOL0     H14018   2.405   1.903   7.728 -1.4884 -0.7769 -0.3769
  864MOL0     H14019   2.560   1.910   7.632 -2.9954  2.5797 -0.5598
  864MOL0     H14020   2.459   1.663   7.789  1.8565  0.9277  2.7697
  864MOL0     H14021   2.600   1.674   7.692 -1.1063 -2.6240  1.2231
  864MOL0     H14022   2.529   1.843   7.946 -1.4457 -0.5668 -1.1233
  864MOL0     H14023   2.655   1.905   7.848  2.0212  1.2136  4.3168
  864MOL0     H14024   2.792   1.715   7.870  0.0583  1.2857 -0.5280
  864MOL0     H14025   2.672   1.620   7.959  0.8277  0.1164 -1.4098
  864MOL0     H14026   2.837   1.856   8.045 -2.6694  2.4103 -0.0322
  864MOL0     H14027   2.685   1.813   8.129 -0.9916 -0.6397 -0.7008
  864MOL0     H14028   2.937   1.632   8.108  0.9651  1.4943 -0.2235
  864MOL0     H14029   2.772   1.600   8.177 -1.2955  0.5870 -0.3001
  864MOL0     H14030   2.017   1.739   7.600  2.2521 -0.6445  0.0833
  864MOL0     H14031   1.784   1.775   7.707 -0.5847  0.0559  1.1401
  864MOL0     H14032   1.486   2.134   7.897 -4.7739  0.7136 -1.5640
  864MOL0     H14033   1.260   2.139   7.945  0.4635  0.7089 -2.4854
  864MOL0     H14034   0.330   2.309   6.793 -0.3046 -1.5408  1.7001
  864MOL0     H14035   0.489   2.507   6.744 -1.1233 -0.5318 -0.5872
  864MOL0     H14036   0.985   2.584   6.860  3.3707  1.4215  1.5398
  864MOL0     H14037   1.205   2.664   6.845  1.5372 -4.6299  1.0501
  864MOL0     H14038   1.513   2.532   6.701  0.0719 -1.9372  1.2798
  864MOL0     H14039   1.380   2.546   6.815  0.6102  3.4393  3.0997
  864MOL0     H14040   1.435   2.772   6.883  0.7038  0.5496  2.3936
  864MOL0     H14041   1.552   2.648   6.908 -2.8579 -2.3106  0.2373
  864MOL0     H14042   1.542   2.858   6.700 -0.1464  1.2447  2.1598
  864MOL0     H14043   1.669   2.733   6.683 -1.7792  3.3632 -4.6434
  864MOL0     H14044   1.731   2.962   6.807  0.1168 -1.1297 -0.4402
  864MOL0     H14045   1.637   2.904   6.939 -2.0667 -1.6779 -1.0985
  864MOL0     H14046   2.036   2.760   6.959  0.3800  0.1138  1.1569
  864MOL0     H14047   1.224   2.573   6.428 -3.1586 -1.0294 -1.8170
  864MOL0     H14048   1.017   2.511   6.418  1.5865  0.8851 -0.8999
  865MOL0     O14049   8.751   1.446   0.155 -0.4994  0.0709  0.7573
  865MOL0     C14050   8.740   1.508   0.052  1.2471  0.5524  0.4110
  865MOL0     O14051   8.823   1.515  -0.051  0.5435 -0.1316 -0.3209
  865MOL0     C14052   8.963   1.494  -0.030  0.4016 -0.9485  0.2909
  865MOL0     C14053   9.038   1.495  -0.150  0.9124  0.1980 -0.1745
  865MOL0     C14054   9.171   1.465  -0.150  0.4301  0.4072 -0.1524
  865MOL0     C14055   9.240   1.467  -0.025 -0.3056 -0.0915  0.2893
  865MOL0     O14056   9.377   1.458  -0.031 -0.0861 -0.6568  0.9028
  865MOL0     C14057   9.451   1.541   0.051 -0.8764 -0.1712  0.4135
  865MOL0     C14058   9.581   1.524  -0.015  0.7038  0.6796  0.1732
  865MOL0     C14059   9.687   1.615   0.047  0.3337 -0.0760 -1.0081
  865MOL0     C14060   9.808   1.645  -0.037  0.2471 -0.4861  0.5161
  865MOL0     C14061   9.901   1.738   0.037 -0.7301  0.7125 -0.1912
  865MOL0     C14062  10.042   1.741  -0.033 -0.1008  0.0551 -0.0941
  865MOL0     C14063  10.158   1.798   0.047 -0.2516  1.1279 -0.6219
  865MOL0     C14064  10.119   1.943   0.091  0.1285  0.3902  0.4342
  865MOL0     N14065  10.191   1.979   0.212 -0.0522  0.4921  0.6495
  865MOL0     C14066  10.305   2.059   0.223 -0.8725 -0.1682 -0.2412
  865MOL0     C14067  10.345   2.037   0.349  1.1347 -0.1896 -0.6897
  865MOL0     C14068  10.468   2.076   0.415 -0.5176 -0.1058 -0.0431
  865MOL0     C14069  10.455   2.200   0.501 -0.6168  0.5674  0.4566
  865MOL0     C14070  10.360   2.179   0.614  0.2178  0.5912 -0.3725
  865MOL0     C14071  10.381   2.278   0.729 -0.0998 -0.0764  0.7624
  865MOL0     O14072  10.513   2.261   0.793 -0.2937 -0.0916  0.0076
  865MOL0     C14073  10.613   2.359   0.778 -0.3795  0.0441 -0.2058
  865MOL0     C14074  10.724   2.334   0.859  0.3662  0.3396  0.2194
  865MOL0     C14075  10.826   2.430   0.873 -0.2037  0.0254  0.4021
  865MOL0     C14076  10.824   2.552   0.793  0.1801 -0.2291 -0.3779
  865MOL0     C14077  10.933   2.646   0.796 -0.2974 -0.0982 -0.3830
  865MOL0     O14078  11.061   2.586   0.787 -0.4327  0.2978  0.9947
  865MOL0     C14079  11.167   2.677   0.798  0.1241 -0.6815  0.5330
  865MOL0     C14080  11.169   2.762   0.909 -1.2276 -0.7986 -0.4932
  865MOL0     C14081  11.283   2.852   0.913  0.2969 -0.7384 -0.1920
  865MOL0     C14082  11.384   2.852   0.820  0.2396 -0.2043  0.6010
  865MOL0     O14083  11.492   2.932   0.826  0.3147 -0.5324  0.0238
  865MOL0     C14084  11.599   2.888   0.914 -0.5900 -0.5066 -0.8632
  865MOL0     C14085  11.625   3.017   1.016  0.4837  0.6511  0.2929
  865MOL0     C14086  11.738   3.113   0.968  0.5409 -0.1839 -0.9588
  865MOL0     C14087  11.875   3.054   0.925 -0.6075  0.0756  0.3840
  865MOL0     C14088  11.942   2.967   1.034 -0.3908  0.1210 -0.7199
  865MOL0     C14089  12.072   2.903   0.991 -0.1120  0.5845  0.0745
  865MOL0     C14090  12.193   2.998   0.997  0.5947  0.1495  0.2229
  865MOL0     C14091  12.324   2.926   0.986 -1.2542 -0.3516 -0.0537
  865MOL0    Cl14092  12.336   2.808   0.852  0.3706 -0.0920 -0.0543
  865MOL0     C14093  11.394   2.743   0.732 -0.0121 -0.6630  0.1913
  865MOL0     C14094  11.285   2.654   0.720  0.2724 -0.8214 -1.0700
  865MOL0     O14095  10.907   2.767   0.793 -0.2471 -0.1388 -0.5310
  865MOL0     C14096  10.716   2.579   0.714  0.7065  0.6298 -0.7794
  865MOL0     C14097  10.614   2.479   0.707  0.5407  1.4903  0.0530
  865MOL0     N14098  10.262   1.949   0.413 -0.6500 -0.6329 -0.8761
  865MOL0     N14099  10.169   1.914   0.331 -0.8568  0.3564 -0.5848
  865MOL0     C14100   9.173   1.480   0.092 -0.1084  0.4393 -0.6056
  865MOL0     C14101   9.031   1.488   0.090  0.2735 -0.3872  0.1371
  865MOL0     C14102   8.615   1.582   0.038 -0.1227 -0.9830 -0.0604
  865MOL0     C14103   8.495   1.541   0.078  0.3865  0.1679 -0.1508
  865MOL0     C14104   8.380   1.610   0.036 -0.1069  0.0134 -0.7829
  865MOL0     C14105   8.390   1.734  -0.017 -0.8519 -0.3151 -0.5303
  865MOL0     O14106   8.292   1.820  -0.047 -0.7332 -0.4137 -0.6567
  865MOL0     C14107   8.162   1.806   0.009 -0.1608  0.3750  0.6580
  865MOL0     C14108   8.150   1.840   0.163  0.2632 -0.0905 -0.7077
  865MOL0     C14109   8.013   1.810   0.224 -0.1616 -0.0690 -0.5938
  865MOL0     C14110   8.014   1.671   0.294  0.8293  0.4044 -0.2144
  865MOL0     C14111   7.878   1.616   0.304 -0.1180 -0.3192  0.0738
  865MOL0     C14112   7.776   1.565   0.341  0.0806 -0.1817 -1.0495
  865MOL0     C14113   8.506   1.775  -0.074 -0.2114  0.3891  0.2810
  865MOL0     C14114   8.621   1.702  -0.048  0.1255  0.5085  0.1804
  865MOL0     H14115   8.973   1.493  -0.237  1.1799 -3.5069 -0.4594
  865MOL0     H14116   9.222   1.443  -0.243  0.4521 -1.6776  0.2965
  865MOL0     H14117   9.443   1.489   0.148  4.9283 -2.3629  0.0892
  865MOL0     H14118   9.415   1.644   0.048  2.9059  1.3060  0.2660
  865MOL0     H14119   9.567   1.560  -0.118 -3.3532  4.7177  1.7939
  865MOL0     H14120   9.605   1.417  -0.014 -4.4171 -0.7674  2.9171
  865MOL0     H14121   9.716   1.588   0.148 -1.1134  4.3727  0.8705
  865MOL0     H14122   9.643   1.713   0.071 -0.1426 -1.0107  2.4282
  865MOL0     H14123   9.853   1.548  -0.060  0.5576 -0.8714  2.5326
  865MOL0     H14124   9.787   1.681  -0.138  2.4352 -2.3390 -0.6864
  865MOL0     H14125   9.894   1.693   0.137  0.2107  0.8540 -0.0528
  865MOL0     H14126   9.862   1.840   0.035 -1.7149  0.4067  1.5244
  865MOL0     H14127  10.042   1.777  -0.136  4.5632  0.0271 -0.3039
  865MOL0     H14128  10.079   1.638  -0.034 -0.2299 -0.1224  3.0910
  865MOL0     H14129  10.187   1.733   0.130  3.7872  1.3996 -1.6090
  865MOL0     H14130  10.237   1.814  -0.027 -1.1362  2.6936 -1.2686
  865MOL0     H14131  10.013   1.954   0.117  0.7578 -0.4620  3.8135
  865MOL0     H14132  10.136   2.014   0.009  1.9702 -2.0632 -1.4572
  865MOL0     H14133  10.361   2.113   0.147 -3.9186  0.6474 -2.0488
  865MOL0     H14134  10.549   2.094   0.343 -2.6765 -0.4599 -2.7592
  865MOL0     H14135  10.496   1.995   0.484 -3.0983 -0.2947  0.8764
  865MOL0     H14136  10.429   2.278   0.429  2.9853 -1.3650 -3.3855
  865MOL0     H14137  10.553   2.223   0.545  0.3675 -0.2864 -1.2260
  865MOL0     H14138  10.254   2.185   0.590 -0.1254  0.1806  0.9170
  865MOL0     H14139  10.388   2.078   0.646 -0.2547  0.8607  0.9511
  865MOL0     H14140  10.306   2.263   0.807 -0.3920  0.9214  0.6846
  865MOL0     H14141  10.364   2.375   0.682  1.8468 -0.0864 -0.0476
  865MOL0     H14142  10.722   2.243   0.917  3.0708 -0.6244 -1.0324
  865MOL0     H14143  10.915   2.419   0.935  2.4844  1.8173 -2.8320
  865MOL0     H14144  11.091   2.772   0.984 -1.2809 -3.4586 -0.0989
  865MOL0     H14145  11.300   2.927   0.990  1.7048 -0.6755 -0.5509
  865MOL0     H14146  11.693   2.866   0.864  1.0589 -0.4849  2.0257
  865MOL0     H14147  11.568   2.798   0.968  1.4201 -0.4038  0.5572
  865MOL0     H14148  11.654   2.980   1.114  1.7546  0.4735 -0.1324
  865MOL0     H14149  11.530   3.064   1.043  1.0558  2.3440 -0.5355
  865MOL0     H14150  11.731   3.184   1.050 -1.5186 -0.2258 -1.0608
  865MOL0     H14151  11.690   3.157   0.880 -2.0814  0.4847  0.7241
  865MOL0     H14152  11.859   2.987   0.840  0.5815 -1.0346  0.9887
  865MOL0     H14153  11.945   3.133   0.897 -0.7539 -0.5063 -1.8212
  865MOL0     H14154  11.878   2.887   1.074  0.2975  0.7915  1.9487
  865MOL0     H14155  11.963   3.022   1.126  0.1968 -2.0870  0.5526
  865MOL0     H14156  12.064   2.853   0.895  1.0307 -1.2268  0.8508
  865MOL0     H14157  12.087   2.820   1.061  3.6936  0.2586 -0.9026
  865MOL0     H14158  12.189   3.059   0.906  0.4711 -0.3461 -0.1088
  865MOL0     H14159  12.186   3.057   1.089 -0.8977 -0.4294  0.5083
  865MOL0     H14160  12.335   2.859   1.072 -0.6298 -1.1281 -0.7197
  865MOL0     H14161  12.406   2.997   0.973 -1.4784 -0.5286 -3.2346
  865MOL0     H14162  11.486   2.717   0.681  0.0777  0.0269 -0.0058
  865MOL0     H14163  11.295   2.569   0.653  0.2278 -0.2012 -1.8803
  865MOL0     H14164  10.701   2.668   0.654  0.8967 -0.0971 -1.9311
  865MOL0     H14165  10.532   2.499   0.638 -0.3623 -0.9602  0.3221
  865MOL0     H14166   9.223   1.480   0.188  0.7715 -2.1665 -0.9844
  865MOL0     H14167   8.968   1.474   0.178 -3.5584 -1.0447 -2.4533
  865MOL0     H14168   8.493   1.458   0.148  1.0589  0.3747  0.1182
  865MOL0     H14169   8.290   1.571   0.082  1.3189 -3.2358 -0.5211
  865MOL0     H14170   8.132   1.702  -0.008 -2.4246  0.9426  0.9273
  865MOL0     H14171   8.086   1.859  -0.049 -1.6568 -1.6171  0.7052
  865MOL0     H14172   8.232   1.790   0.214 -2.0954 -3.3727  0.1694
  865MOL0     H14173   8.164   1.949   0.165 -1.0276  0.0840 -0.4792
  865MOL0     H14174   7.943   1.806   0.141  3.3058  1.9023 -3.9673
  865MOL0     H14175   7.979   1.895   0.283  1.3275  2.2421 -2.8380
  865MOL0     H14176   8.079   1.611   0.228  3.3614  2.5408  0.1631
  865MOL0     H14177   8.052   1.682   0.396 -3.8389  0.6293  1.7242
  865MOL0     H14178   7.686   1.518   0.376  1.2010  0.3771  3.1887
  865MOL0     H14179   8.505   1.860  -0.142 -0.4140  0.8611  0.8667
  865MOL0     H14180   8.712   1.731  -0.100  0.2968 -1.3524 -0.6182
  866MOL0     O14181   2.578   2.359   5.498 -0.6829 -0.1652 -0.3969
  866MOL0     C14182   2.691   2.327   5.438  0.9527  0.8810 -0.9766
  866MOL0     O14183   2.773   2.413   5.381  0.6964 -0.2115  0.4519
  866MOL0     C14184   2.747   2.540   5.400 -1.1416 -0.5499 -0.9438
  866MOL0     C14185   2.647   2.596   5.327 -0.2382  0.9655 -0.6127
  866MOL0     C14186   2.624   2.731   5.333  0.2678  0.0852  0.0461
  866MOL0     C14187   2.687   2.809   5.428 -1.1247 -0.1143  0.0533
  866MOL0     O14188   2.638   2.940   5.447 -0.1134  0.9050  0.1685
  866MOL0     C14189   2.730   3.025   5.511 -1.1192 -0.4424  0.6006
  866MOL0     C14190   2.681   3.167   5.522 -0.0116 -0.4221  0.8333
  866MOL0     C14191   2.676   3.228   5.389 -0.1755  0.4400  0.4163
  866MOL0     C14192   2.605   3.363   5.415  0.3302 -0.2160 -0.6115
  866MOL0     C14193   2.591   3.455   5.289  0.5842 -0.1854 -0.9926
  866MOL0     C14194   2.479   3.551   5.326  1.3349  0.2116 -0.2087
  866MOL0     C14195   2.475   3.673   5.242  0.0088 -0.3801  0.5249
  866MOL0     C14196   2.409   3.788   5.314 -0.3754  0.0445 -0.2676
  866MOL0     N14197   2.265   3.768   5.329  0.0123 -0.0438  0.0254
  866MOL0     C14198   2.184   3.741   5.229  0.0151 -0.0073  0.1011
  866MOL0     C14199   2.064   3.718   5.289  0.3258 -0.4318  0.9135
  866MOL0     C14200   1.934   3.688   5.226  0.3147 -0.4919 -0.2851
  866MOL0     C14201   1.855   3.827   5.203 -0.5399 -0.3091 -0.1718
  866MOL0     C14202   1.763   3.876   5.322  0.3774  1.3849  0.6532
  866MOL0     C14203   1.693   4.012   5.289 -1.4633  0.2852  0.3543
  866MOL0     O14204   1.578   3.990   5.203 -0.1484 -0.8240 -0.1397
  866MOL0     C14205   1.492   4.094   5.191 -0.5342  0.3731  0.9517
  866MOL0     C14206   1.365   4.065   5.136 -0.3218  0.2898 -0.9870
  866MOL0     C14207   1.278   4.168   5.130  0.0435 -0.4260  0.1107
  866MOL0     C14208   1.284   4.287   5.207 -0.9825 -0.0943 -0.7777
  866MOL0     C14209   1.175   4.379   5.224  1.0928 -0.6592 -1.1804
  866MOL0     O14210   1.192   4.484   5.324 -0.1864  0.9008  0.1057
  866MOL0     C14211   1.091   4.553   5.381 -0.1841 -0.7875  0.3737
  866MOL0     C14212   1.063   4.691   5.363 -0.0200 -0.6478 -0.1174
  866MOL0     C14213   0.966   4.757   5.441 -0.4253 -0.1856  1.2637
  866MOL0     C14214   0.882   4.700   5.524  0.5425  0.8008  0.9576
  866MOL0     O14215   0.786   4.776   5.594  0.3695  0.3916 -0.0282
  866MOL0     C14216   0.746   4.727   5.726 -0.7946  0.2177  0.1512
  866MOL0     C14217   0.698   4.848   5.808 -0.2844  0.2642 -1.4365
  866MOL0     C14218   0.616   4.814   5.937 -0.1224 -0.4306  0.3897
  866MOL0     C14219   0.466   4.783   5.901  0.1500 -0.5413  0.0924
  866MOL0     C14220   0.406   4.921   5.881  0.4819 -0.0448 -0.7952
  866MOL0     C14221   0.256   4.904   5.886  0.3706  0.0348 -0.7774
  866MOL0     C14222   0.200   4.894   5.750 -0.1646 -0.0596 -0.2491
  866MOL0     C14223   0.053   4.839   5.746  0.1685  0.8771 -0.0209
  866MOL0    Cl14224   0.024   4.687   5.842  0.5775  0.3064 -0.0396
  866MOL0     C14225   0.914   4.564   5.552 -0.0520 -0.1406  0.1987
  866MOL0     C14226   1.010   4.492   5.479 -0.4410  0.1749 -0.1278
  866MOL0     O14227   1.071   4.334   5.184  0.1214 -0.4953 -0.2630
  866MOL0     C14228   1.408   4.308   5.272  0.8373  0.5483  0.4290
  866MOL0     C14229   1.519   4.221   5.255 -0.1287 -0.0518 -1.1139
  866MOL0     N14230   2.081   3.728   5.430  0.8175  0.8069  0.9879
  866MOL0     N14231   2.202   3.743   5.448  0.1287  0.0223  0.3430
  866MOL0     C14232   2.792   2.748   5.494 -0.5447 -0.5387  0.1379
  866MOL0     C14233   2.818   2.616   5.485 -0.8205  0.0629  0.2599
  866MOL0     C14234   2.732   2.177   5.439  0.2608 -0.0471 -0.3284
  866MOL0     C14235   2.857   2.130   5.385 -0.3087 -0.6062 -0.4513
  866MOL0     C14236   2.884   1.989   5.389 -0.5515 -0.0145  0.1489
  866MOL0     C14237   2.800   1.896   5.443  0.9362 -1.1102  0.0359
  866MOL0     O14238   2.840   1.765   5.446  0.2298  0.2931  0.1138
  866MOL0     C14239   2.768   1.686   5.351  1.2454 -0.4593  0.7782
  866MOL0     C14240   2.814   1.538   5.361 -0.0589  0.0578 -0.0975
  866MOL0     C14241   2.940   1.529   5.275  0.2176  0.1473 -0.3560
  866MOL0     C14242   2.976   1.382   5.265  0.0594  0.8779 -0.4606
  866MOL0     C14243   3.102   1.364   5.178 -0.3036 -0.3575 -0.3105
  866MOL0     C14244   3.213   1.382   5.126  0.4384 -0.5208  0.5707
  866MOL0     C14245   2.676   1.941   5.487  0.7217  0.1355  0.0445
  866MOL0     C14246   2.653   2.082   5.497  0.9578  0.3362  0.3925
  866MOL0     H14247   2.586   2.538   5.259  1.4778 -1.3450 -0.2818
  866MOL0     H14248   2.542   2.775   5.277 -0.9232 -4.2152 -2.0406
  866MOL0     H14249   2.824   3.030   5.455  0.4108  0.1075  3.0496
  866MOL0     H14250   2.766   2.988   5.608 -0.9952 -2.9948 -0.3294
  866MOL0     H14251   2.743   3.219   5.596  0.1691 -0.2677  0.5724
  866MOL0     H14252   2.577   3.159   5.557 -0.2280 -0.1790  0.2601
  866MOL0     H14253   2.610   3.185   5.313 -1.1936  2.2720  0.1985
  866MOL0     H14254   2.777   3.224   5.348  0.2884  1.9863  1.3212
  866MOL0     H14255   2.503   3.358   5.453  1.0241 -0.4940  1.3643
  866MOL0     H14256   2.653   3.424   5.492 -0.0630  2.8753 -2.6244
  866MOL0     H14257   2.561   3.396   5.202 -2.4112 -2.4132  1.3185
  866MOL0     H14258   2.687   3.501   5.262 -0.6873  4.6338  1.5240
  866MOL0     H14259   2.496   3.584   5.429 -0.9355  1.9568 -0.2894
  866MOL0     H14260   2.379   3.505   5.322 -0.3282  3.3481  1.2226
  866MOL0     H14261   2.576   3.711   5.224 -0.7853  2.4171  1.4662
  866MOL0     H14262   2.424   3.669   5.145  1.6167  2.0693 -0.5096
  866MOL0     H14263   2.423   3.878   5.252  0.3748 -0.4013 -0.7615
  866MOL0     H14264   2.454   3.804   5.413 -1.3122  0.1641  0.1485
  866MOL0     H14265   2.204   3.740   5.122 -2.9940 -1.1827 -0.5462
  866MOL0     H14266   1.877   3.615   5.285 -0.7241  1.2804  1.0115
  866MOL0     H14267   1.961   3.650   5.127  0.9758 -1.8037  0.3757
  866MOL0     H14268   1.780   3.819   5.124  1.1703  0.1839 -1.9265
  866MOL0     H14269   1.940   3.887   5.168  0.9086 -2.8026 -1.1851
  866MOL0     H14270   1.684   3.803   5.343  0.5051  0.6334 -1.2401
  866MOL0     H14271   1.829   3.887   5.408 -1.0747  0.0201  1.9931
  866MOL0     H14272   1.767   4.067   5.229 -0.7811 -0.9750 -0.0010
  866MOL0     H14273   1.664   4.068   5.377 -1.7997  0.1843  0.3071
  866MOL0     H14274   1.338   3.973   5.087  1.0187 -0.6065 -0.1016
  866MOL0     H14275   1.187   4.151   5.073  0.8577 -1.5052 -0.9098
  866MOL0     H14276   1.123   4.761   5.305 -1.4699 -0.3505 -1.3041
  866MOL0     H14277   0.942   4.860   5.416  2.1578  0.6335  1.7770
  866MOL0     H14278   0.826   4.675   5.780  1.0853  2.4615 -0.3517
  866MOL0     H14279   0.669   4.649   5.722  2.4396 -3.2170 -1.6797
  866MOL0     H14280   0.650   4.925   5.746  0.4265  0.3780 -1.8538
  866MOL0     H14281   0.790   4.897   5.840 -1.1027  2.7177 -2.5630
  866MOL0     H14282   0.629   4.892   6.013  3.6430  1.5069 -1.9547
  866MOL0     H14283   0.666   4.724   5.973  3.1673  2.0264  2.5963
  866MOL0     H14284   0.454   4.715   5.816 -0.7290  0.2903 -0.4734
  866MOL0     H14285   0.417   4.730   5.983 -4.1773  1.5118 -0.9075
  866MOL0     H14286   0.450   4.966   5.791  0.1839  0.9888 -0.4373
  866MOL0     H14287   0.440   4.986   5.963 -0.6671  0.9794 -1.1033
  866MOL0     H14288   0.220   4.994   5.937  1.6117  0.3814 -0.4786
  866MOL0     H14289   0.230   4.813   5.941  2.6290 -0.0056  0.3572
  866MOL0     H14290   0.202   4.987   5.693  1.0857 -1.0526 -1.9559
  866MOL0     H14291   0.270   4.837   5.687  1.9694  1.9207  0.2152
  866MOL0     H14292   0.007   4.826   5.648  1.1752 -0.1426 -0.3844
  866MOL0     H14293  -0.009   4.913   5.796  0.1912 -0.2990  1.8408
  866MOL0     H14294   0.868   4.512   5.636  0.5444  0.4943  0.9311
  866MOL0     H14295   1.030   4.389   5.506  2.5838  0.9153  0.7837
  866MOL0     H14296   1.415   4.409   5.310 -3.7381  2.2145 -2.2339
  866MOL0     H14297   1.618   4.241   5.295 -0.0678 -1.3369 -0.5735
  866MOL0     H14298   2.840   2.789   5.582 -1.0259 -1.4624  0.8555
  866MOL0     H14299   2.897   2.565   5.539  0.2016 -0.3341 -1.5325
  866MOL0     H14300   2.940   2.192   5.354 -0.1289 -0.3802  0.4582
  866MOL0     H14301   2.987   1.960   5.369  0.0335  3.1620 -2.3171
  866MOL0     H14302   2.771   1.717   5.246  1.5882 -2.5225  0.1404
  866MOL0     H14303   2.662   1.696   5.373  0.9586 -0.5858 -0.5223
  866MOL0     H14304   2.829   1.503   5.463  1.8257 -0.0979 -0.3835
  866MOL0     H14305   2.737   1.477   5.313 -0.6091 -0.8253  1.8433
  866MOL0     H14306   3.030   1.577   5.315  2.9506 -2.8170 -2.4418
  866MOL0     H14307   2.922   1.569   5.175  1.5519 -0.8809 -1.0328
  866MOL0     H14308   2.987   1.335   5.363 -0.0207  1.4692 -0.1637
  866MOL0     H14309   2.889   1.328   5.226 -2.5085  0.7463  4.5649
  866MOL0     H14310   3.316   1.391   5.096  0.7742 -2.8052  0.8638
  866MOL0     H14311   2.597   1.877   5.528 -0.5111  3.3004  3.1260
  866MOL0     H14312   2.558   2.111   5.539  0.6200  1.4950 -1.0660
  867MOL0     O14313   7.375   5.950  10.084  0.1884 -0.0662 -0.1052
  867MOL0     C14314   7.290   6.029  10.123  0.0419 -0.3855  0.7244
  867MOL0     O14315   7.303   6.160  10.160 -0.0361  0.1302 -0.2331
  867MOL0     C14316   7.423   6.227  10.145  0.9366  0.2872  0.5043
  867MOL0     C14317   7.465   6.246  10.015  0.1322  0.8030  0.8920
  867MOL0     C14318   7.587   6.309   9.992  0.2640 -0.9082  0.0576
  867MOL0     C14319   7.657   6.369  10.098 -0.2541 -0.6935 -0.2030
  867MOL0     O14320   7.777   6.432  10.064  0.2012 -0.5986 -0.8275
  867MOL0     C14321   7.890   6.352  10.109 -0.4249 -0.3326 -0.0888
  867MOL0     C14322   7.987   6.364   9.994 -1.1559 -0.2811  0.7836
  867MOL0     C14323   7.961   6.261   9.881 -0.0210  0.1216  0.1740
  867MOL0     C14324   8.035   6.290   9.743 -0.4120 -0.8853  0.0733
  867MOL0     C14325   7.982   6.215   9.623 -0.2980 -0.1461  0.6809
  867MOL0     C14326   8.055   6.252   9.489  0.7624  0.2190 -1.0746
  867MOL0     C14327   8.200   6.215   9.484 -0.0019  0.3775 -0.2332
  867MOL0     C14328   8.213   6.066   9.477 -0.2109  0.8422  0.5281
  867MOL0     N14329   8.166   6.011   9.351  0.9840  0.4223  0.2588
  867MOL0     C14330   8.227   5.988   9.234 -0.0961  0.0036 -0.3301
  867MOL0     C14331   8.141   5.915   9.162 -0.3002 -0.2792 -0.3195
  867MOL0     C14332   8.180   5.871   9.025 -0.0318  0.4079  0.3788
  867MOL0     C14333   8.076   5.766   8.975  0.2005 -0.5047  0.0322
  867MOL0     C14334   8.092   5.621   9.030 -0.2418  0.1171 -0.9159
  867MOL0     C14335   7.956   5.552   9.026  0.0619  0.9157  0.1606
  867MOL0     O14336   7.951   5.490   8.903 -0.0707  0.7100 -0.5437
  867MOL0     C14337   7.827   5.478   8.854  1.0922  0.1911  0.5940
  867MOL0     C14338   7.756   5.362   8.875  0.4717 -0.1069  0.2912
  867MOL0     C14339   7.622   5.361   8.847  0.5435 -0.3892 -0.4180
  867MOL0     C14340   7.554   5.469   8.782  0.3364 -0.1394 -0.1394
  867MOL0     C14341   7.414   5.459   8.763 -0.0048 -0.0454  0.1065
  867MOL0     O14342   7.356   5.346   8.713  0.1920 -0.8535 -0.3247
  867MOL0     C14343   7.216   5.335   8.715 -0.5612 -0.9745 -0.3628
  867MOL0     C14344   7.146   5.376   8.609  0.1530 -0.0917 -0.0251
  867MOL0     C14345   7.010   5.341   8.605 -0.2553  1.0296 -0.6651
  867MOL0     C14346   6.944   5.261   8.695 -0.6711 -0.1527  0.4094
  867MOL0     O14347   6.809   5.249   8.676  0.4240  0.3960 -0.5653
  867MOL0     C14348   6.722   5.191   8.778  0.5040  0.3814 -0.4385
  867MOL0     C14349   6.593   5.269   8.772  0.8215 -0.7166 -1.2400
  867MOL0     C14350   6.526   5.292   8.636  0.5854 -0.0276  0.7717
  867MOL0     C14351   6.381   5.345   8.656 -0.2414 -0.5610  0.0094
  867MOL0     C14352   6.390   5.482   8.724  0.8612 -0.7379 -0.6559
  867MOL0     C14353   6.268   5.572   8.694  0.5369  0.4703  0.1474
  867MOL0     C14354   6.134   5.487   8.722  0.0631 -0.9856  0.4802
  867MOL0     C14355   6.018   5.580   8.732  0.3914 -0.4110  0.6165
  867MOL0    Cl14356   6.012   5.684   8.880 -0.6922  0.1283  1.0154
  867MOL0     C14357   7.018   5.214   8.804  0.7902  0.0382 -0.4169
  867MOL0     C14358   7.154   5.258   8.811 -0.9195 -0.7338 -0.4577
  867MOL0     O14359   7.355   5.562   8.798 -0.1180 -0.9387  0.2247
  867MOL0     C14360   7.634   5.578   8.746 -0.0260 -0.4281 -0.4598
  867MOL0     C14361   7.762   5.589   8.781 -0.9032  0.1906 -0.3570
  867MOL0     N14362   8.024   5.901   9.226 -0.2188 -0.0335 -0.9925
  867MOL0     N14363   8.036   5.957   9.346  0.2772  0.0388 -0.5150
  867MOL0     C14364   7.599   6.361  10.229 -0.5713  0.0597 -0.4385
  867MOL0     C14365   7.482   6.290  10.254 -0.1095 -0.6494 -0.5471
  867MOL0     C14366   7.156   5.975  10.159  0.2832  0.0254  1.1155
  867MOL0     C14367   7.090   6.022  10.271 -0.9214 -0.1643  0.0596
  867MOL0     C14368   6.976   5.950  10.322 -0.7547 -0.3622 -0.1962
  867MOL0     C14369   6.922   5.844  10.246  0.6406 -0.0676  0.3819
  867MOL0     O14370   6.813   5.794  10.307 -0.0365 -0.8588  0.1463
  867MOL0     C14371   6.731   5.700  10.247  0.6223  0.3336 -0.4134
  867MOL0     C14372   6.635   5.630  10.341 -0.6459  0.1866 -0.6052
  867MOL0     C14373   6.530   5.725  10.399 -0.8045  0.0705  0.2059
  867MOL0     C14374   6.429   5.735  10.292  1.1455 -0.1466 -0.3349
  867MOL0     C14375   6.319   5.819  10.345  0.0282 -0.9096  0.3010
  867MOL0     C14376   6.228   5.891  10.374  0.4352 -0.5448 -0.3559
  867MOL0     C14377   6.988   5.806  10.137 -0.0327  0.9159  0.6227
  867MOL0     C14378   7.103   5.859  10.100  0.2109  0.5689 -0.6166
  867MOL0     H14379   7.430   6.206   9.920 -0.1887  0.7776  1.0227
  867MOL0     H14380   7.637   6.304   9.896  0.6488  0.0319  0.2024
  867MOL0     H14381   7.867   6.249  10.139  2.9045 -0.4442  2.6978
  867MOL0     H14382   7.927   6.405  10.197 -0.0090 -1.6506  0.5535
  867MOL0     H14383   8.088   6.349  10.033  0.0813 -1.4142 -2.5166
  867MOL0     H14384   7.988   6.465   9.952  0.6389 -0.4796  0.2583
  867MOL0     H14385   7.854   6.267   9.859  0.0050  1.0760  0.2659
  867MOL0     H14386   7.984   6.157   9.908 -3.0616 -0.7137 -0.0430
  867MOL0     H14387   8.022   6.398   9.728  0.8696 -0.4484  1.7098
  867MOL0     H14388   8.141   6.269   9.758  0.5701  2.8708 -0.6550
  867MOL0     H14389   7.874   6.226   9.610 -0.2153  1.1211  0.9266
  867MOL0     H14390   7.995   6.109   9.647  4.9910 -0.2958 -1.3505
  867MOL0     H14391   8.063   6.361   9.488 -2.3283  0.5823  0.3046
  867MOL0     H14392   7.997   6.229   9.398 -2.3321  0.5355  0.6660
  867MOL0     H14393   8.251   6.273   9.406  2.7085 -2.1129 -0.5205
  867MOL0     H14394   8.262   6.253   9.566  0.8940 -2.1876  0.4035
  867MOL0     H14395   8.172   6.017   9.566  1.9042 -0.9098  0.6106
  867MOL0     H14396   8.319   6.044   9.468 -0.7913 -1.5059 -2.0567
  867MOL0     H14397   8.329   6.007   9.205  0.9327 -2.7324  1.1346
  867MOL0     H14398   8.279   5.825   9.015 -1.0146 -1.9134  0.7663
  867MOL0     H14399   8.171   5.955   8.955 -1.6152  0.4533  0.6141
  867MOL0     H14400   8.099   5.754   8.869  0.3934  3.2997 -0.5019
  867MOL0     H14401   7.971   5.799   8.975  0.0282 -1.0343  0.0407
  867MOL0     H14402   8.176   5.566   8.989  1.4307  1.1492  0.9237
  867MOL0     H14403   8.110   5.624   9.138  0.8918 -3.2133 -0.9229
  867MOL0     H14404   7.866   5.614   9.039 -0.9978 -0.8050  1.3540
  867MOL0     H14405   7.942   5.483   9.110 -2.5886  1.4669  0.2455
  867MOL0     H14406   7.798   5.278   8.931 -0.3464  0.9932  2.7072
  867MOL0     H14407   7.557   5.276   8.863  0.4136 -0.5122 -1.5071
  867MOL0     H14408   7.185   5.448   8.537  0.8830  0.7923  1.1956
  867MOL0     H14409   6.948   5.382   8.526  0.6370  2.8766 -0.4511
  867MOL0     H14410   6.767   5.189   8.877  3.1414  2.1724 -1.5053
  867MOL0     H14411   6.706   5.092   8.735  1.5214  0.8951 -2.0969
  867MOL0     H14412   6.616   5.368   8.813  0.3790 -1.3496  0.6362
  867MOL0     H14413   6.524   5.216   8.839  0.7224 -1.0788 -1.6206
  867MOL0     H14414   6.521   5.202   8.573 -2.8121  0.6622 -0.1318
  867MOL0     H14415   6.569   5.371   8.573  0.2746 -0.4978 -0.0444
  867MOL0     H14416   6.339   5.354   8.555 -2.2453 -1.8881  0.6493
  867MOL0     H14417   6.320   5.275   8.714  0.1491  0.3064  1.5294
  867MOL0     H14418   6.481   5.544   8.718  2.1859 -1.9166  3.8414
  867MOL0     H14419   6.377   5.458   8.830 -1.6447  2.7311  0.0129
  867MOL0     H14420   6.271   5.588   8.586  2.2848  0.8722  0.2303
  867MOL0     H14421   6.261   5.665   8.751  0.0791  1.5207 -1.5530
  867MOL0     H14422   6.117   5.428   8.632 -0.4799  2.1688 -1.6664
  867MOL0     H14423   6.151   5.422   8.809  2.4576 -0.2238  0.6380
  867MOL0     H14424   5.923   5.526   8.736  0.2546 -0.1953  0.3471
  867MOL0     H14425   6.013   5.642   8.642  2.4603  0.8017  1.2645
  867MOL0     H14426   6.968   5.154   8.879  3.6867 -1.7875  0.1909
  867MOL0     H14427   7.222   5.221   8.887 -0.7089 -3.5038 -1.8797
  867MOL0     H14428   7.584   5.652   8.686  0.4661 -1.3976 -2.1243
  867MOL0     H14429   7.823   5.675   8.754 -1.3672  1.4550  2.2689
  867MOL0     H14430   7.645   6.418  10.309 -0.6915 -1.3239  0.6611
  867MOL0     H14431   7.432   6.282  10.351  2.3861 -1.7242  0.7620
  867MOL0     H14432   7.119   6.115  10.318 -2.2708 -0.2056  1.0548
  867MOL0     H14433   6.919   5.976  10.410  0.2564 -1.6745  0.8728
  867MOL0     H14434   6.788   5.620  10.199  2.2152  2.1501 -1.7103
  867MOL0     H14435   6.678   5.756  10.169 -1.1359 -1.0113 -0.2508
  867MOL0     H14436   6.581   5.547  10.296 -1.7296  0.5591 -0.0199
  867MOL0     H14437   6.698   5.582  10.417 -0.6488  0.7434 -0.2422
  867MOL0     H14438   6.576   5.819  10.433 -1.4638 -0.1979  1.9215
  867MOL0     H14439   6.478   5.686  10.486 -0.4090  0.4753  0.6332
  867MOL0     H14440   6.473   5.786  10.206  1.1772  1.1946  0.4594
  867MOL0     H14441   6.371   5.649  10.256  2.6458  0.8373 -6.1193
  867MOL0     H14442   6.146   5.955  10.400 -0.6241 -2.4962  1.2953
  867MOL0     H14443   6.951   5.724  10.076 -1.3412  0.2331  2.2606
  867MOL0     H14444   7.138   5.823  10.005 -0.7427  1.6328 -1.4078
  868MOL0     O14445   7.716   5.016   3.887 -0.1099  0.0731 -0.3299
  868MOL0     C14446   7.766   4.944   3.967  0.0496 -0.0523  0.5052
  868MOL0     O14447   7.700   4.897   4.076  0.3829 -0.2010  1.1460
  868MOL0     C14448   7.572   4.953   4.095  0.4364  0.6638 -1.0631
  868MOL0     C14449   7.547   5.090   4.100 -0.0921 -0.0495  0.5612
  868MOL0     C14450   7.424   5.139   4.111  0.9591  0.1271 -0.7748
  868MOL0     C14451   7.311   5.053   4.109 -0.0726  0.1595  0.0697
  868MOL0     O14452   7.177   5.097   4.112  0.3583 -0.6499 -0.2680
  868MOL0     C14453   7.141   5.224   4.058  0.0411  0.2627  0.9295
  868MOL0     C14454   6.991   5.247   4.101 -0.0711 -0.6016  0.6213
  868MOL0     C14455   6.893   5.162   4.019  0.6549  1.2145  1.4472
  868MOL0     C14456   6.756   5.157   4.083 -0.7162 -0.3115 -0.1820
  868MOL0     C14457   6.643   5.079   4.006  0.9538 -0.3093  0.4012
  868MOL0     C14458   6.576   5.160   3.886 -0.8956  0.0749  0.4036
  868MOL0     C14459   6.455   5.076   3.826 -0.1880  0.3583  0.8648
  868MOL0     C14460   6.338   5.057   3.924  0.3063 -0.8854  0.1641
  868MOL0     N14461   6.263   5.180   3.925 -0.3130  0.4002  0.1446
  868MOL0     C14462   6.311   5.292   3.987  0.7497 -0.5527 -0.2306
  868MOL0     C14463   6.217   5.386   3.961 -0.3884  0.4251  0.8302
  868MOL0     C14464   6.218   5.533   3.983 -0.1183 -0.6382 -0.3057
  868MOL0     C14465   6.254   5.562   4.122 -0.0847  0.2349 -0.8270
  868MOL0     C14466   6.203   5.702   4.154 -1.1848 -0.2629  0.4204
  868MOL0     C14467   6.272   5.745   4.287  0.3123  0.4928  0.9600
  868MOL0     O14468   6.217   5.670   4.388 -0.3572 -0.2839  0.0631
  868MOL0     C14469   6.272   5.700   4.517  0.2854  0.0843  0.2162
  868MOL0     C14470   6.355   5.797   4.560 -1.0455  0.4191  1.0584
  868MOL0     C14471   6.410   5.803   4.688 -0.1840 -0.8241 -0.4006
  868MOL0     C14472   6.357   5.715   4.784 -0.3477 -0.1574  1.2641
  868MOL0     C14473   6.399   5.747   4.920  0.1651 -0.8263 -0.7681
  868MOL0     O14474   6.337   5.672   5.019 -0.7367 -0.6740  0.9929
  868MOL0     C14475   6.392   5.662   5.154  0.1868  0.6132  0.2694
  868MOL0     C14476   6.511   5.712   5.184 -0.7094 -0.2065 -0.0891
  868MOL0     C14477   6.544   5.722   5.318 -1.0264  0.1374 -0.5164
  868MOL0     C14478   6.462   5.663   5.419 -0.3387 -0.2942  0.4499
  868MOL0     O14479   6.505   5.672   5.551 -0.5640 -0.2341 -0.0305
  868MOL0     C14480   6.626   5.589   5.580 -0.2883  0.3987  0.3549
  868MOL0     C14481   6.749   5.676   5.604  0.2792 -0.2156 -0.4532
  868MOL0     C14482   6.886   5.606   5.586 -0.0796 -1.1140 -0.6292
  868MOL0     C14483   7.003   5.667   5.664  0.5300  0.2694 -0.1808
  868MOL0     C14484   7.129   5.581   5.628  1.0994 -0.0782  0.7177
  868MOL0     C14485   7.244   5.620   5.720  0.0010  0.0046  0.5444
  868MOL0     C14486   7.379   5.565   5.685 -0.0746 -0.2985  0.2759
  868MOL0     C14487   7.381   5.408   5.690 -0.0759 -0.0635  0.2483
  868MOL0    Cl14488   7.381   5.352   5.523 -0.3818 -0.1297  0.0298
  868MOL0     C14489   6.352   5.596   5.386  0.7417  0.3565  0.4779
  868MOL0     C14490   6.313   5.602   5.253  0.0053  1.0750  0.2411
  868MOL0     O14491   6.486   5.829   4.935 -1.5593 -0.7519 -0.1521
  868MOL0     C14492   6.267   5.615   4.747 -0.5604  0.0204 -1.3838
  868MOL0     C14493   6.220   5.615   4.615  0.5204  0.3212  0.1780
  868MOL0     N14494   6.112   5.322   3.895  0.2997  0.5055  0.2662
  868MOL0     N14495   6.140   5.203   3.862 -0.0048 -0.0811  0.3741
  868MOL0     C14496   7.333   4.913   4.122 -0.0937 -0.3859 -1.1221
  868MOL0     C14497   7.460   4.867   4.116 -0.2666 -0.1017  0.5121
  868MOL0     C14498   7.903   4.900   3.956  0.0554  0.7068 -0.2579
  868MOL0     C14499   7.980   4.967   3.862 -0.4594  0.9081 -0.5189
  868MOL0     C14500   8.113   4.927   3.847 -1.0372 -0.6541  1.1962
  868MOL0     C14501   8.171   4.816   3.916 -0.0399  0.2254  0.0411
  868MOL0     O14502   8.309   4.812   3.905  0.2391  0.1675  0.4784
  868MOL0     C14503   8.391   4.726   3.980  0.0953  0.2770  0.1409
  868MOL0     C14504   8.505   4.683   3.899 -0.5736 -0.0026 -0.6984
  868MOL0     C14505   8.585   4.574   3.976  0.3006 -0.6609  0.4095
  868MOL0     C14506   8.692   4.501   3.885  0.8198 -0.3156 -0.0846
  868MOL0     C14507   8.811   4.580   3.870 -0.3311  0.7478  0.2411
  868MOL0     C14508   8.923   4.636   3.860  0.9684 -0.0828 -1.2658
  868MOL0     C14509   8.091   4.748   4.009  0.9375 -0.7577 -1.0597
  868MOL0     C14510   7.956   4.792   4.033  0.1430 -0.0873  0.4110
  868MOL0     H14511   7.640   5.146   4.095  2.3391 -3.3382  3.7013
  868MOL0     H14512   7.415   5.247   4.125  3.3300  0.1411  1.5034
  868MOL0     H14513   7.165   5.237   3.952  0.1722  1.5367  1.1013
  868MOL0     H14514   7.205   5.296   4.110  2.1202 -1.3532  0.7876
  868MOL0     H14515   6.983   5.353   4.077  1.5226 -0.2183  1.5913
  868MOL0     H14516   6.962   5.237   4.206 -1.1244 -0.3663  0.3663
  868MOL0     H14517   6.916   5.056   4.007 -1.3123  0.9609 -0.9312
  868MOL0     H14518   6.883   5.211   3.921  0.7294  1.8541  1.7518
  868MOL0     H14519   6.757   5.121   4.186 -1.4985  0.2921  0.0398
  868MOL0     H14520   6.720   5.260   4.089 -1.6030 -0.6875  1.5265
  868MOL0     H14521   6.557   5.056   4.069 -1.9635  2.2237 -2.2783
  868MOL0     H14522   6.688   4.985   3.972  0.6422  0.8403 -3.8013
  868MOL0     H14523   6.646   5.177   3.803  1.3492  1.2520  2.3811
  868MOL0     H14524   6.558   5.263   3.920  2.4913  0.8892  0.1036
  868MOL0     H14525   6.420   5.110   3.729 -1.4535  0.0684  1.2052
  868MOL0     H14526   6.498   4.977   3.806 -1.9835 -0.5077  1.1342
  868MOL0     H14527   6.371   5.045   4.027 -1.0842 -0.3556  0.7004
  868MOL0     H14528   6.274   4.971   3.901  1.0910 -1.7507  1.1080
  868MOL0     H14529   6.399   5.309   4.048  0.9310  3.2227 -1.3125
  868MOL0     H14530   6.112   5.558   3.977 -0.2823 -0.5081  2.1031
  868MOL0     H14531   6.294   5.583   3.923  0.4387  0.3487  1.1647
  868MOL0     H14532   6.361   5.560   4.141 -0.4208  3.4094  2.6374
  868MOL0     H14533   6.213   5.493   4.196  2.8995  0.1939  0.9004
  868MOL0     H14534   6.232   5.767   4.070 -1.4621 -1.6107 -0.7668
  868MOL0     H14535   6.099   5.735   4.161 -0.3251  3.9707 -2.7093
  868MOL0     H14536   6.238   5.847   4.306 -1.1857 -0.3433  3.3019
  868MOL0     H14537   6.380   5.731   4.281  0.0641 -1.3106 -3.9976
  868MOL0     H14538   6.394   5.861   4.481 -0.8748 -0.0431  0.7676
  868MOL0     H14539   6.481   5.885   4.695 -2.3336  1.0618  0.6684
  868MOL0     H14540   6.591   5.756   5.125 -0.7686  1.1990  0.8164
  868MOL0     H14541   6.640   5.759   5.354 -1.2147 -0.6746  0.9299
  868MOL0     H14542   6.642   5.510   5.507  5.8825  1.2678  0.2844
  868MOL0     H14543   6.617   5.542   5.678  3.0289 -0.5204  0.3274
  868MOL0     H14544   6.752   5.729   5.700  0.0509  0.4637 -0.8107
  868MOL0     H14545   6.738   5.763   5.539  0.0614  0.7938  0.8647
  868MOL0     H14546   6.914   5.612   5.481  4.9846 -3.6308  0.2983
  868MOL0     H14547   6.867   5.504   5.622  0.3459 -0.1127  2.8597
  868MOL0     H14548   7.006   5.776   5.653 -1.1158  0.4415  0.7113
  868MOL0     H14549   6.983   5.654   5.770  3.0088  0.5309  0.3864
  868MOL0     H14550   7.160   5.589   5.523  1.1786 -2.4560  0.5101
  868MOL0     H14551   7.116   5.474   5.647 -2.8367 -0.5742 -3.0317
  868MOL0     H14552   7.222   5.593   5.823 -0.1190  0.8175  0.7390
  868MOL0     H14553   7.252   5.729   5.716  1.0591 -0.0959 -2.5375
  868MOL0     H14554   7.422   5.606   5.593  3.3636 -1.4354  1.2299
  868MOL0     H14555   7.448   5.601   5.761 -0.6107 -1.2130  1.2365
  868MOL0     H14556   7.303   5.355   5.747  1.5651 -5.7525 -2.0677
  868MOL0     H14557   7.477   5.369   5.724 -0.1765  0.2689  0.9236
  868MOL0     H14558   6.296   5.539   5.460 -0.9028  0.4242 -0.6616
  868MOL0     H14559   6.218   5.559   5.223  0.6953 -0.2911 -0.0248
  868MOL0     H14560   6.223   5.554   4.825  0.1274  0.5576 -0.5609
  868MOL0     H14561   6.146   5.544   4.579  1.1169 -0.9548  1.3798
  868MOL0     H14562   7.248   4.846   4.119 -0.5929  0.2100 -0.5185
  868MOL0     H14563   7.474   4.760   4.126  1.9544  0.2246  1.4978
  868MOL0     H14564   7.941   5.039   3.792 -0.4730  0.0386 -1.4306
  868MOL0     H14565   8.182   4.965   3.771 -0.2505  0.8227  2.6000
  868MOL0     H14566   8.327   4.639   3.999  0.3451 -0.1453 -0.9127
  868MOL0     H14567   8.420   4.780   4.071  1.5492 -0.6240  0.2480
  868MOL0     H14568   8.467   4.651   3.802 -1.5899 -0.0036 -0.3146
  868MOL0     H14569   8.570   4.770   3.888  1.7557 -1.2907  1.6227
  868MOL0     H14570   8.514   4.498   4.010 -3.4773  1.6215 -1.7110
  868MOL0     H14571   8.630   4.620   4.065  1.0607 -1.9466  0.7129
  868MOL0     H14572   8.707   4.403   3.931  1.2237 -1.4803 -2.5301
  868MOL0     H14573   8.637   4.491   3.792 -2.3913 -1.5348  1.7850
  868MOL0     H14574   9.017   4.687   3.850  0.7829  0.1140 -2.0093
  868MOL0     H14575   8.130   4.674   4.078 -0.1288 -0.9194 -0.6090
  868MOL0     H14576   7.891   4.736   4.099  0.7317 -2.8197 -1.1796
  869MOL0     O14577   7.740   1.431   8.092 -0.5076 -0.6063  0.6056
  869MOL0     C14578   7.846   1.460   8.150 -0.1426  0.3285  0.0152
  869MOL0     O14579   7.961   1.497   8.082 -0.0164 -0.1459 -0.6501
  869MOL0     C14580   7.968   1.474   7.955 -0.6747  0.4602  0.5832
  869MOL0     C14581   8.066   1.385   7.911 -0.2593 -0.0735  0.5646
  869MOL0     C14582   8.095   1.381   7.772 -0.0661 -0.9283 -0.3471
  869MOL0     C14583   8.029   1.469   7.679 -0.2647  0.7006 -0.6048
  869MOL0     O14584   8.074   1.462   7.551  0.3120 -0.1151 -0.6251
  869MOL0     C14585   7.979   1.460   7.446  0.4619  0.4426 -0.8391
  869MOL0     C14586   7.925   1.316   7.417 -0.1556 -0.7165 -0.2341
  869MOL0     C14587   7.781   1.327   7.378 -0.0504  0.4690 -1.0802
  869MOL0     C14588   7.711   1.191   7.331  0.4157 -0.8302 -0.1423
  869MOL0     C14589   7.651   1.130   7.459  0.0381  0.2048  0.8094
  869MOL0     C14590   7.596   0.984   7.427  0.3640  0.5737 -0.5709
  869MOL0     C14591   7.442   0.969   7.431 -0.2014 -0.1603  0.8758
  869MOL0     C14592   7.376   0.993   7.292  0.2410 -0.3384 -0.1427
  869MOL0     N14593   7.233   1.002   7.310  0.1709  0.1225  0.2348
  869MOL0     C14594   7.127   1.009   7.221 -1.2892  1.0834  0.1056
  869MOL0     C14595   7.014   0.990   7.283  0.4961 -0.8737 -0.5225
  869MOL0     C14596   6.869   1.003   7.223 -0.6010 -0.7613 -0.6862
  869MOL0     C14597   6.859   1.046   7.078 -0.2059  0.0774  0.0135
  869MOL0     C14598   6.745   0.974   7.002  0.1080  0.6784  0.2341
  869MOL0     C14599   6.607   1.049   7.000  0.1350  0.0025 -0.5778
  869MOL0     O14600   6.523   0.958   7.074 -0.1145 -0.0231  0.6568
  869MOL0     C14601   6.449   1.004   7.181  0.9616  0.4599  1.1228
  869MOL0     C14602   6.420   1.140   7.194  0.8868  0.0043 -0.8077
  869MOL0     C14603   6.320   1.179   7.283 -0.4836  0.2928 -0.0305
  869MOL0     C14604   6.283   1.087   7.387 -0.8302 -0.7598  0.7811
  869MOL0     C14605   6.196   1.121   7.500 -0.1454 -0.3175 -0.9729
  869MOL0     O14606   6.119   1.022   7.553 -0.1677 -0.0210  0.1367
  869MOL0     C14607   6.024   1.057   7.650  0.7597 -0.3400 -0.8708
  869MOL0     C14608   6.012   0.974   7.767  0.9361  0.2446 -0.9249
  869MOL0     C14609   5.926   1.010   7.870  0.0805 -0.9635 -0.3200
  869MOL0     C14610   5.830   1.113   7.841 -0.7995  0.4376 -0.5543
  869MOL0     O14611   5.745   1.148   7.945 -0.6574 -0.4363  0.4372
  869MOL0     C14612   5.721   1.288   7.971  0.2118 -0.5027  0.0094
  869MOL0     C14613   5.696   1.300   8.122  0.8584 -0.3947 -0.0899
  869MOL0     C14614   5.559   1.243   8.158 -0.5296  0.2066 -0.0599
  869MOL0     C14615   5.519   1.284   8.296  0.9392 -0.4542 -0.1348
  869MOL0     C14616   5.397   1.210   8.341 -0.5025  0.2570 -0.2965
  869MOL0     C14617   5.418   1.067   8.368 -0.2406 -1.1557 -0.0238
  869MOL0     C14618   5.288   0.991   8.406 -0.9828 -0.9229  0.1160
  869MOL0     C14619   5.323   0.857   8.471  0.3276 -0.7338  0.1330
  869MOL0    Cl14620   5.423   0.759   8.366  0.0425  0.3862  0.1070
  869MOL0     C14621   5.841   1.186   7.723 -0.2528  1.6207 -0.1876
  869MOL0     C14622   5.935   1.164   7.623  0.5069 -0.5230 -0.3280
  869MOL0     O14623   6.200   1.232   7.547 -0.2739  0.6302  0.4075
  869MOL0     C14624   6.317   0.949   7.367  0.2612  0.0404  0.2117
  869MOL0     C14625   6.397   0.906   7.266 -0.8184 -0.2501 -0.5976
  869MOL0     N14626   7.046   0.966   7.415 -0.7354 -0.4139 -0.1696
  869MOL0     N14627   7.173   0.979   7.426  0.1720  0.1073  0.9726
  869MOL0     C14628   7.941   1.562   7.729 -0.9812 -0.4777  0.0934
  869MOL0     C14629   7.905   1.566   7.870 -0.4815 -0.6991 -0.0835
  869MOL0     C14630   7.848   1.484   8.298 -0.6620 -0.2695 -0.3502
  869MOL0     C14631   7.744   1.437   8.381  0.5154 -0.4157  0.4214
  869MOL0     C14632   7.763   1.439   8.522  0.4565  0.0108 -0.3564
  869MOL0     C14633   7.886   1.475   8.586  0.8738  1.3914  0.0022
  869MOL0     O14634   7.897   1.461   8.720 -0.0097 -0.3610 -0.0869
  869MOL0     C14635   7.965   1.345   8.775  0.2130  0.3379 -0.0558
  869MOL0     C14636   7.906   1.313   8.915 -0.0072  0.2252 -0.0849
  869MOL0     C14637   7.938   1.162   8.963  0.0617 -0.7404  0.0582
  869MOL0     C14638   7.888   1.147   9.109  0.7907  0.3738  0.2017
  869MOL0     C14639   7.747   1.136   9.109  0.5856  1.0437 -0.3386
  869MOL0     C14640   7.626   1.134   9.122  0.1743  0.1060  0.2576
  869MOL0     C14641   7.981   1.525   8.507 -0.1286  0.4556 -0.0076
  869MOL0     C14642   7.968   1.520   8.367 -0.4499  0.2738 -0.2447
  869MOL0     H14643   8.121   1.324   7.982 -1.6537 -2.4450 -0.2586
  869MOL0     H14644   8.163   1.308   7.729  2.2580  2.0067 -2.0111
  869MOL0     H14645   8.036   1.498   7.360  2.1688  1.9889  0.8853
  869MOL0     H14646   7.897   1.531   7.457 -2.0444 -2.1500 -1.5538
  869MOL0     H14647   7.942   1.262   7.511 -0.5437  0.6299  0.6284
  869MOL0     H14648   7.981   1.263   7.339 -1.3545 -1.2382 -0.7729
  869MOL0     H14649   7.781   1.392   7.289  3.0589  0.7987 -0.9585
  869MOL0     H14650   7.723   1.365   7.462  1.2528  0.6725 -0.2459
  869MOL0     H14651   7.631   1.221   7.262 -0.3305 -1.7918  0.2794
  869MOL0     H14652   7.784   1.120   7.292  1.3907 -0.6634  1.2909
  869MOL0     H14653   7.575   1.201   7.493 -1.0679  0.8728 -2.6395
  869MOL0     H14654   7.729   1.128   7.536  0.2797  3.0609  0.7451
  869MOL0     H14655   7.636   0.926   7.510 -0.5697 -0.2259 -0.6558
  869MOL0     H14656   7.638   0.950   7.333  2.0811  3.3842 -0.9597
  869MOL0     H14657   7.404   0.875   7.473  1.4264 -0.0556  2.7132
  869MOL0     H14658   7.410   1.052   7.495 -1.6007 -2.2593  3.0760
  869MOL0     H14659   7.402   0.918   7.216  1.7857  1.3610 -1.3795
  869MOL0     H14660   7.414   1.084   7.245  1.0484 -0.7621 -0.3300
  869MOL0     H14661   7.135   1.039   7.117 -0.9567 -1.9636 -0.8381
  869MOL0     H14662   6.817   1.082   7.278 -0.9382 -1.4980  0.0749
  869MOL0     H14663   6.817   0.910   7.248 -2.2228 -0.1950 -1.7398
  869MOL0     H14664   6.946   1.025   7.015  0.0089 -0.1538  0.3821
  869MOL0     H14665   6.841   1.153   7.076 -0.3258  0.3094  4.4741
  869MOL0     H14666   6.779   0.961   6.899 -2.6075 -1.1038 -0.5411
  869MOL0     H14667   6.725   0.874   7.040 -0.1286  0.2361 -1.0302
  869MOL0     H14668   6.567   1.047   6.898 -0.9262  1.1232 -0.2071
  869MOL0     H14669   6.621   1.150   7.041 -4.2972  1.1629 -1.4551
  869MOL0     H14670   6.456   1.221   7.131 -0.2076 -0.4874 -2.1390
  869MOL0     H14671   6.272   1.276   7.285 -0.5761  0.2616 -0.7346
  869MOL0     H14672   6.094   0.904   7.782  3.0451  2.3420 -2.0959
  869MOL0     H14673   5.929   0.948   7.959  0.2187 -0.2128  0.2024
  869MOL0     H14674   5.640   1.330   7.912  1.2483  2.6254  0.6073
  869MOL0     H14675   5.806   1.342   7.928 -0.4000 -1.3057 -2.3070
  869MOL0     H14676   5.704   1.406   8.149  2.1983 -0.1634 -1.2601
  869MOL0     H14677   5.764   1.256   8.196 -1.6128 -3.7153  0.4509
  869MOL0     H14678   5.559   1.134   8.147 -2.5823 -0.0183  1.5014
  869MOL0     H14679   5.487   1.286   8.088 -2.0389  1.8386  2.3306
  869MOL0     H14680   5.603   1.289   8.367  0.7327 -2.7782  0.3567
  869MOL0     H14681   5.479   1.383   8.272  0.2123 -0.8883 -0.7708
  869MOL0     H14682   5.323   1.231   8.265  1.1590 -1.0443 -2.3926
  869MOL0     H14683   5.363   1.253   8.436  0.7530  0.4883  0.0717
  869MOL0     H14684   5.489   1.065   8.451  1.4531 -4.9380 -1.3448
  869MOL0     H14685   5.465   1.016   8.283 -0.9645  0.3843 -1.3940
  869MOL0     H14686   5.229   1.047   8.479  1.4889  0.7128  1.0219
  869MOL0     H14687   5.219   0.985   8.322 -1.0619  0.8863  0.0200
  869MOL0     H14688   5.222   0.816   8.485 -0.6420  1.2634 -0.6622
  869MOL0     H14689   5.375   0.875   8.566 -0.2813 -1.7416  0.6773
  869MOL0     H14690   5.782   1.276   7.707 -0.6489  2.0567  3.0453
  869MOL0     H14691   5.950   1.233   7.541  0.7589  1.3393  1.2040
  869MOL0     H14692   6.270   0.874   7.429  0.6030  0.2038  0.6777
  869MOL0     H14693   6.422   0.801   7.260  0.4577  0.0334 -0.5953
  869MOL0     H14694   7.896   1.636   7.664  1.4828  1.8764  0.8916
  869MOL0     H14695   7.837   1.645   7.899  0.0172  0.0247 -0.8281
  869MOL0     H14696   7.649   1.406   8.338 -0.3508  0.2565  1.7709
  869MOL0     H14697   7.682   1.403   8.584 -0.1106 -0.7515 -1.5065
  869MOL0     H14698   8.072   1.362   8.784  0.5959 -1.9702  0.4045
  869MOL0     H14699   7.959   1.270   8.696 -0.6573  3.6895 -3.4721
  869MOL0     H14700   7.937   1.389   8.987  1.6358  0.6523 -1.1710
  869MOL0     H14701   7.798   1.309   8.899 -0.0324  3.4477 -1.6375
  869MOL0     H14702   8.044   1.136   8.954 -0.1434 -1.2576 -1.0621
  869MOL0     H14703   7.900   1.089   8.891  0.0539  0.9516 -1.7145
  869MOL0     H14704   7.925   1.057   9.160 -0.6724  0.0593  0.7893
  869MOL0     H14705   7.908   1.231   9.176  1.1599 -0.6253  1.3936
  869MOL0     H14706   7.520   1.132   9.113  0.0990  1.2166  0.7728
  869MOL0     H14707   8.077   1.546   8.553  0.6291  5.0933 -3.0407
  869MOL0     H14708   8.059   1.547   8.315 -1.0564  1.4809 -0.7203
  870MOL0     O14709   3.156   2.538   6.178 -0.2806 -0.3618 -0.1584
  870MOL0     C14710   3.125   2.645   6.235  0.1135 -0.0948 -0.8043
  870MOL0     O14711   3.191   2.763   6.213 -0.2272 -0.0269 -0.4625
  870MOL0     C14712   3.292   2.764   6.122 -0.5357  0.6267  0.1515
  870MOL0     C14713   3.266   2.801   5.986 -0.6787 -0.7868  0.2655
  870MOL0     C14714   3.369   2.786   5.892  0.5749 -0.5157 -0.7622
  870MOL0     C14715   3.501   2.754   5.922  0.7754 -0.1370 -0.1275
  870MOL0     O14716   3.590   2.753   5.824 -0.0835 -0.2589  0.2231
  870MOL0     C14717   3.728   2.765   5.838 -0.2566  0.2553  0.5124
  870MOL0     C14718   3.786   2.625   5.844  0.3268  0.5830 -0.1712
  870MOL0     C14719   3.944   2.626   5.840  0.1133  0.5511  0.1091
  870MOL0     C14720   3.993   2.639   5.703  1.3341 -0.3959 -0.6330
  870MOL0     C14721   4.152   2.641   5.703  0.2152 -0.1223 -0.1697
  870MOL0     C14722   4.200   2.623   5.561 -0.5003  0.9019 -0.5557
  870MOL0     C14723   4.351   2.597   5.555 -0.1377  0.0718  1.0906
  870MOL0     C14724   4.375   2.558   5.409 -0.9106  0.7318  0.7516
  870MOL0     N14725   4.497   2.475   5.379  0.1870 -0.4413 -0.0445
  870MOL0     C14726   4.630   2.519   5.376 -0.0744  1.0486  0.3101
  870MOL0     C14727   4.696   2.395   5.382  0.7072  0.2190  1.0391
  870MOL0     C14728   4.846   2.374   5.409  0.2021 -0.2561  1.1668
  870MOL0     C14729   4.929   2.415   5.285  0.3045 -0.0883 -0.8777
  870MOL0     C14730   5.080   2.378   5.293  0.8891  0.1395  0.3550
  870MOL0     C14731   5.152   2.443   5.173 -0.2765  0.1805  0.2380
  870MOL0     O14732   5.283   2.470   5.229  0.8020 -0.3785  0.1633
  870MOL0     C14733   5.378   2.375   5.249  0.7287 -0.2731  0.2232
  870MOL0     C14734   5.505   2.429   5.271 -0.9225  0.0010 -0.1196
  870MOL0     C14735   5.616   2.343   5.272  0.7460 -1.1950  0.0969
  870MOL0     C14736   5.607   2.206   5.242  0.2977 -0.2677  0.1014
  870MOL0     C14737   5.730   2.120   5.262 -0.7105 -0.4181 -0.7829
  870MOL0     O14738   5.845   2.180   5.319  0.5678 -1.1230 -0.3693
  870MOL0     C14739   5.958   2.099   5.341 -0.2024 -0.3379  0.2948
  870MOL0     C14740   6.075   2.115   5.277 -0.0966 -0.6876 -0.3390
  870MOL0     C14741   6.182   2.029   5.296 -0.1621  1.1851  0.3037
  870MOL0     C14742   6.180   1.927   5.388  0.2421  0.3834  0.3731
  870MOL0     O14743   6.291   1.841   5.412  0.0241 -0.0758 -0.3481
  870MOL0     C14744   6.308   1.758   5.524 -0.3361 -0.6186  0.2324
  870MOL0     C14745   6.250   1.620   5.492  0.1984  0.2349  0.4689
  870MOL0     C14746   6.228   1.538   5.617 -0.1346 -0.4533 -0.1473
  870MOL0     C14747   6.198   1.393   5.595 -0.1598 -0.4015  0.8151
  870MOL0     C14748   6.191   1.298   5.712  0.1817  0.3434 -1.7498
  870MOL0     C14749   6.312   1.298   5.811 -0.4197  0.1624  0.1882
  870MOL0     C14750   6.440   1.250   5.743  0.1404  0.2067  0.0329
  870MOL0     C14751   6.533   1.203   5.859 -0.8989  0.3685 -0.7825
  870MOL0    Cl14752   6.668   1.131   5.774  0.2518  0.1324 -0.1532
  870MOL0     C14753   6.063   1.914   5.467 -0.1632  0.0104  0.2718
  870MOL0     C14754   5.957   2.002   5.439 -0.7131  0.9821  0.3336
  870MOL0     O14755   5.730   1.995   5.228 -0.2230 -0.2933 -0.3212
  870MOL0     C14756   5.483   2.148   5.220  0.6064 -0.1385 -0.2585
  870MOL0     C14757   5.367   2.229   5.226  0.3673 -0.4358 -0.1063
  870MOL0     N14758   4.605   2.292   5.361 -0.1604  0.4226 -0.8273
  870MOL0     N14759   4.490   2.336   5.371  0.7126 -0.0932 -0.3510
  870MOL0     C14760   3.532   2.742   6.055  0.6584 -0.3363 -1.2178
  870MOL0     C14761   3.430   2.739   6.156 -0.1220  0.3517  0.7429
  870MOL0     C14762   3.026   2.631   6.346 -0.1318 -0.1889  0.1337
  870MOL0     C14763   2.974   2.499   6.384  0.3025  0.0464 -0.8747
  870MOL0     C14764   2.885   2.503   6.497  0.5128 -0.2092 -0.5695
  870MOL0     C14765   2.850   2.617   6.564 -0.1957 -0.8197 -0.2318
  870MOL0     O14766   2.770   2.598   6.679 -0.5507  0.1278 -0.1864
  870MOL0     C14767   2.771   2.704   6.772  1.0068  0.1861 -0.4626
  870MOL0     C14768   2.714   2.669   6.899 -0.2792  0.4900 -0.5518
  870MOL0     C14769   2.784   2.561   6.979 -0.3241  0.2621 -0.1885
  870MOL0     C14770   2.786   2.420   6.928 -0.8263 -0.2493  0.1750
  870MOL0     C14771   2.854   2.326   7.014  0.9317  0.0217 -0.8081
  870MOL0     C14772   2.903   2.235   7.077 -0.4590 -0.8441  0.7291
  870MOL0     C14773   2.907   2.740   6.520  0.2877 -0.8666 -0.8393
  870MOL0     C14774   2.978   2.752   6.404  1.1140 -0.2136  0.1054
  870MOL0     H14775   3.171   2.832   5.941  0.8951  0.8416 -2.1889
  870MOL0     H14776   3.344   2.812   5.790 -0.3115  0.5795 -0.2829
  870MOL0     H14777   3.748   2.819   5.931 -0.5409  0.9958  0.1436
  870MOL0     H14778   3.763   2.824   5.753 -5.5318  0.9386 -1.5532
  870MOL0     H14779   3.751   2.573   5.754  2.8778  1.3140 -1.6892
  870MOL0     H14780   3.755   2.567   5.931 -0.7154 -0.9108 -1.4841
  870MOL0     H14781   3.975   2.531   5.885 -1.5271  1.1088  2.6471
  870MOL0     H14782   3.978   2.704   5.909 -2.6891  0.9509  1.2005
  870MOL0     H14783   3.954   2.561   5.636  2.8804 -0.2225 -1.8052
  870MOL0     H14784   3.956   2.737   5.672  4.3985  0.9876 -0.2617
  870MOL0     H14785   4.197   2.556   5.755  1.5673 -0.4335 -1.7737
  870MOL0     H14786   4.198   2.728   5.752  2.3142 -0.5336 -1.2918
  870MOL0     H14787   4.167   2.713   5.508 -0.0137  1.0277 -0.6524
  870MOL0     H14788   4.143   2.549   5.506  0.9781  0.0706 -1.0176
  870MOL0     H14789   4.412   2.685   5.577 -2.0164  1.6834  0.1665
  870MOL0     H14790   4.390   2.520   5.623  2.5124  0.5306  0.2063
  870MOL0     H14791   4.385   2.647   5.347 -0.7448 -0.0167 -0.3335
  870MOL0     H14792   4.290   2.501   5.369 -1.1759  0.3490  1.8148
  870MOL0     H14793   4.661   2.622   5.389  2.3990  0.6543 -1.5622
  870MOL0     H14794   4.864   2.268   5.429 -1.0508 -0.9354 -1.0265
  870MOL0     H14795   4.872   2.445   5.489  0.7984  1.1349 -0.2104
  870MOL0     H14796   4.914   2.523   5.274  1.7724  0.3866  1.3424
  870MOL0     H14797   4.884   2.373   5.194 -1.9317  0.5737 -0.1328
  870MOL0     H14798   5.117   2.416   5.389  4.0088 -1.7623  0.0148
  870MOL0     H14799   5.065   2.270   5.296 -0.5809  0.3323  1.7871
  870MOL0     H14800   5.111   2.531   5.123 -0.4625 -0.1871 -0.2687
  870MOL0     H14801   5.153   2.367   5.095  2.8719  0.6252 -0.2850
  870MOL0     H14802   5.534   2.532   5.288  2.4763 -0.1814 -3.3369
  870MOL0     H14803   5.715   2.387   5.279 -0.1209  0.5691  2.2634
  870MOL0     H14804   6.072   2.183   5.192 -3.1892  2.3574  1.9473
  870MOL0     H14805   6.271   2.031   5.233 -0.0302 -1.2833  0.3200
  870MOL0     H14806   6.244   1.786   5.608 -0.1242 -4.3796  1.8483
  870MOL0     H14807   6.413   1.746   5.552 -1.0149 -1.1203  2.8252
  870MOL0     H14808   6.306   1.562   5.418  0.5934 -1.5834  2.1133
  870MOL0     H14809   6.153   1.631   5.442 -0.5245 -1.9918  1.2899
  870MOL0     H14810   6.131   1.578   5.649 -0.1518  0.2384 -1.0042
  870MOL0     H14811   6.297   1.541   5.702 -2.6368  0.0473  1.9865
  870MOL0     H14812   6.104   1.391   5.539 -0.4747  0.8851  1.2592
  870MOL0     H14813   6.275   1.358   5.527 -0.0931  1.2547  0.0028
  870MOL0     H14814   6.185   1.195   5.676 -2.0827  0.9533 -3.3545
  870MOL0     H14815   6.100   1.326   5.766  3.2989  0.6601  4.1691
  870MOL0     H14816   6.299   1.237   5.901  1.8745 -2.3576 -1.0426
  870MOL0     H14817   6.341   1.398   5.845  2.9912 -0.9401  0.9297
  870MOL0     H14818   6.409   1.178   5.667 -1.6709 -0.1888  1.1023
  870MOL0     H14819   6.505   1.329   5.705  1.8797 -0.4609  1.4258
  870MOL0     H14820   6.490   1.121   5.917 -3.4629  0.9690 -1.7190
  870MOL0     H14821   6.567   1.284   5.925 -1.4118  1.2692 -1.6009
  870MOL0     H14822   6.047   1.835   5.539 -0.3342  1.1803  1.5565
  870MOL0     H14823   5.861   1.977   5.485 -1.2310  1.2522 -0.5684
  870MOL0     H14824   5.480   2.043   5.195  0.5631 -0.0293 -0.7445
  870MOL0     H14825   5.270   2.187   5.202 -0.7950  1.2516  1.3916
  870MOL0     H14826   3.634   2.728   6.090  1.3653  0.4152 -2.8908
  870MOL0     H14827   3.468   2.747   6.257  0.8671 -1.7042  0.5922
  870MOL0     H14828   3.006   2.403   6.345 -1.5236 -0.7788 -0.4307
  870MOL0     H14829   2.842   2.411   6.534  1.2872 -2.7240 -5.1648
  870MOL0     H14830   2.711   2.782   6.722  0.0507 -0.6186 -0.5976
  870MOL0     H14831   2.873   2.742   6.781  0.2734  2.0674  0.5591
  870MOL0     H14832   2.714   2.762   6.957  2.3513 -1.3475  2.8291
  870MOL0     H14833   2.612   2.631   6.889 -0.7150  2.0588 -2.6492
  870MOL0     H14834   2.727   2.564   7.072 -1.7433 -2.0630 -0.9164
  870MOL0     H14835   2.888   2.596   6.989 -1.1669  2.7931  0.6334
  870MOL0     H14836   2.682   2.388   6.923 -1.3079  1.3468 -0.7871
  870MOL0     H14837   2.838   2.420   6.832 -0.0539 -1.4586  0.5689
  870MOL0     H14838   2.946   2.150   7.125 -0.7974  0.2083  2.9924
  870MOL0     H14839   2.894   2.834   6.573 -4.4268  0.4210 -3.6890
  870MOL0     H14840   3.012   2.849   6.370  2.0026 -0.4731  0.2472
  871MOL0     O14841   5.237   7.081   2.357  0.0622 -0.3025  0.1206
  871MOL0     C14842   5.211   7.014   2.264  0.2178  0.4842 -0.6331
  871MOL0     O14843   5.173   7.052   2.149 -0.0503 -0.2465 -0.4269
  871MOL0     C14844   5.140   7.181   2.132  0.6908  0.1612 -1.0265
  871MOL0     C14845   5.022   7.206   2.080 -0.5066 -0.1636 -0.1280
  871MOL0     C14846   4.988   7.331   2.034  0.4265 -0.5774  0.6550
  871MOL0     C14847   5.080   7.437   2.041 -0.5728  0.5921  0.3301
  871MOL0     O14848   5.058   7.555   1.990  0.0718 -0.4761  0.3442
  871MOL0     C14849   4.925   7.612   1.995 -0.3573  0.6999 -0.3685
  871MOL0     C14850   4.926   7.761   1.986  0.0607 -0.9881 -0.9780
  871MOL0     C14851   4.782   7.807   1.947 -0.4477  0.0761 -0.0561
  871MOL0     C14852   4.790   7.949   1.941 -0.0028  0.3419 -0.2328
  871MOL0     C14853   4.641   7.992   1.905  0.4695 -0.5323  0.0228
  871MOL0     C14854   4.629   8.148   1.890 -0.7182 -0.6224 -1.4487
  871MOL0     C14855   4.482   8.178   1.894 -0.4427 -0.0536  0.5275
  871MOL0     C14856   4.447   8.318   1.856  0.0919  0.6696 -0.4505
  871MOL0     N14857   4.304   8.347   1.840  0.5392  0.2742  0.5393
  871MOL0     C14858   4.206   8.318   1.931  0.2194 -0.0280  0.1811
  871MOL0     C14859   4.090   8.362   1.880 -0.1143  0.1960 -0.9733
  871MOL0     C14860   3.967   8.376   1.972 -0.3065 -0.2293  0.4597
  871MOL0     C14861   3.835   8.373   1.900  1.0252 -0.5461 -0.6677
  871MOL0     C14862   3.726   8.395   2.017  0.6059  0.1431  0.9281
  871MOL0     C14863   3.583   8.423   1.972 -1.0277 -1.3690  0.4443
  871MOL0     O14864   3.504   8.474   2.080  0.1228  0.1161 -0.2361
  871MOL0     C14865   3.368   8.489   2.061 -0.5189 -0.4324 -0.6066
  871MOL0     C14866   3.304   8.469   1.940  0.3249  0.6599 -0.0568
  871MOL0     C14867   3.164   8.496   1.921  0.3538  0.0143  0.7370
  871MOL0     C14868   3.089   8.545   2.031 -0.1296  1.2792  0.9177
  871MOL0     C14869   2.937   8.559   2.016 -0.0242 -0.3399  0.3395
  871MOL0     O14870   2.881   8.519   1.893  0.2817 -0.3007 -0.5450
  871MOL0     C14871   2.752   8.490   1.881  0.6188  0.5963  0.1434
  871MOL0     C14872   2.657   8.592   1.877  0.3665 -0.1269 -1.2256
  871MOL0     C14873   2.526   8.569   1.859  0.4614 -0.8232 -0.5658
  871MOL0     C14874   2.472   8.438   1.849  0.8095 -1.2253 -0.2491
  871MOL0     O14875   2.346   8.401   1.816  0.4077  0.5634  0.3714
  871MOL0     C14876   2.226   8.488   1.828 -0.5469 -1.1776  0.2105
  871MOL0     C14877   2.195   8.564   1.700 -0.1896  0.0541 -0.2692
  871MOL0     C14878   2.166   8.461   1.586  0.8852 -0.9560  0.0100
  871MOL0     C14879   2.025   8.407   1.550  0.3937  0.0829 -0.1103
  871MOL0     C14880   1.932   8.526   1.536  0.2055 -0.5846  0.0796
  871MOL0     C14881   1.807   8.508   1.455  0.2002 -0.5843  0.1730
  871MOL0     C14882   1.737   8.631   1.440  0.3888 -0.8706 -0.3891
  871MOL0     C14883   1.626   8.623   1.325 -0.8297  0.7741 -0.9388
  871MOL0    Cl14884   1.507   8.502   1.358 -0.7009 -0.5875 -0.1181
  871MOL0     C14885   2.568   8.339   1.852 -0.3782 -0.3763  0.0314
  871MOL0     C14886   2.705   8.366   1.869 -0.2099 -0.4931  0.7083
  871MOL0     O14887   2.873   8.597   2.110 -0.3645 -0.1584  0.0828
  871MOL0     C14888   3.157   8.561   2.152  0.7956  0.5483  0.2448
  871MOL0     C14889   3.297   8.541   2.166  1.2302 -0.2991  0.5111
  871MOL0     N14890   4.119   8.412   1.753 -0.0634  1.5222  0.5455
  871MOL0     N14891   4.250   8.399   1.725 -0.3932 -0.4105  0.0920
  871MOL0     C14892   5.203   7.411   2.106  0.4051  0.3884  0.0566
  871MOL0     C14893   5.222   7.285   2.159 -1.3659 -0.7520  0.2467
  871MOL0     C14894   5.215   6.866   2.293  0.4095 -0.2348  0.1341
  871MOL0     C14895   5.244   6.821   2.420 -0.3194  0.3448  0.7204
  871MOL0     C14896   5.240   6.690   2.460  0.6957 -0.1656 -0.4999
  871MOL0     C14897   5.203   6.593   2.367 -0.0919  0.4374  1.0437
  871MOL0     O14898   5.182   6.452   2.387 -0.4120 -0.1209  0.2386
  871MOL0     C14899   5.224   6.396   2.505 -1.0651 -0.1993 -0.2287
  871MOL0     C14900   5.376   6.350   2.517 -0.0257 -0.0353  0.4733
  871MOL0     C14901   5.416   6.264   2.394  0.4488 -1.0215 -0.4143
  871MOL0     C14902   5.341   6.133   2.383 -0.6042  0.8103  0.5878
  871MOL0     C14903   5.402   6.024   2.458 -0.0151  0.3727  0.1320
  871MOL0     C14904   5.440   5.920   2.505  0.4385  0.1365  0.2426
  871MOL0     C14905   5.170   6.633   2.241  0.1198 -0.1833 -0.2560
  871MOL0     C14906   5.176   6.769   2.200  0.2032 -0.3511  0.1222
  871MOL0     H14907   4.954   7.123   2.068  2.0837 -2.2198 -1.5080
  871MOL0     H14908   4.898   7.350   1.976 -1.1310 -1.5738  2.6421
  871MOL0     H14909   4.884   7.588   2.094  2.5987  2.9206  1.6022
  871MOL0     H14910   4.874   7.574   1.906  0.6880  3.2116 -2.1525
  871MOL0     H14911   5.010   7.789   1.922 -0.0188 -0.1828 -0.7498
  871MOL0     H14912   4.946   7.814   2.080 -1.4886  0.5319 -1.4420
  871MOL0     H14913   4.717   7.776   2.029 -1.4333  0.4432 -0.6880
  871MOL0     H14914   4.754   7.758   1.853  3.1411 -0.9013 -0.7664
  871MOL0     H14915   4.820   7.992   2.037  0.9540  1.1096 -0.8584
  871MOL0     H14916   4.861   7.980   1.865  0.8548  1.3427  0.9297
  871MOL0     H14917   4.567   7.970   1.983  0.7448  2.5890  1.3065
  871MOL0     H14918   4.601   7.944   1.815 -1.9868 -2.1188  1.8172
  871MOL0     H14919   4.674   8.185   1.797  0.1536  0.0073 -0.7953
  871MOL0     H14920   4.669   8.193   1.981  0.7100 -1.9932 -1.3580
  871MOL0     H14921   4.429   8.111   1.826 -1.9697  0.7144  0.9184
  871MOL0     H14922   4.441   8.157   1.993 -0.0852  0.6164  0.8296
  871MOL0     H14923   4.487   8.336   1.755  0.0356 -0.6162 -0.7218
  871MOL0     H14924   4.479   8.389   1.933 -2.9077  0.8812  0.7208
  871MOL0     H14925   4.216   8.271   2.028 -0.1873 -0.8233 -0.1462
  871MOL0     H14926   3.991   8.473   2.017  1.2603  0.9704 -2.6817
  871MOL0     H14927   3.969   8.300   2.051 -0.9062  0.6464  1.3540
  871MOL0     H14928   3.814   8.274   1.859 -2.3296 -0.0904 -0.3395
  871MOL0     H14929   3.826   8.463   1.838 -3.4569  1.4155  2.2848
  871MOL0     H14930   3.731   8.315   2.092  3.6819  0.9724  1.7535
  871MOL0     H14931   3.764   8.479   2.075  0.6402  2.2201 -1.8942
  871MOL0     H14932   3.557   8.325   1.930  1.1463 -1.3984 -0.9399
  871MOL0     H14933   3.587   8.508   1.904 -1.8981 -1.9378 -0.3447
  871MOL0     H14934   3.364   8.432   1.858  1.3364  1.4204  0.3239
  871MOL0     H14935   3.118   8.487   1.822 -4.2286 -2.4706  2.7852
  871MOL0     H14936   2.690   8.692   1.907 -0.1050 -0.9568  2.6787
  871MOL0     H14937   2.457   8.652   1.853 -2.2159 -2.5349  2.9595
  871MOL0     H14938   2.242   8.559   1.909  0.8743 -2.5016  1.1616
  871MOL0     H14939   2.143   8.425   1.863 -1.5443  1.2053  2.4149
  871MOL0     H14940   2.272   8.639   1.678 -0.2234  0.6344  1.4126
  871MOL0     H14941   2.101   8.619   1.711  0.0101  0.2394  0.5475
  871MOL0     H14942   2.228   8.372   1.603 -1.8922 -3.6611 -2.7146
  871MOL0     H14943   2.189   8.511   1.492 -0.5446  0.1214  0.1961
  871MOL0     H14944   2.022   8.362   1.450 -1.2453  2.4143 -1.2224
  871MOL0     H14945   1.978   8.336   1.618 -0.2291 -0.5961 -1.2029
  871MOL0     H14946   1.983   8.601   1.474  1.4687 -0.0023  1.7531
  871MOL0     H14947   1.914   8.574   1.632  2.5970 -1.3272  0.9831
  871MOL0     H14948   1.742   8.439   1.511 -0.6279  0.5417  0.6484
  871MOL0     H14949   1.827   8.478   1.352 -1.2365  3.1580 -1.3724
  871MOL0     H14950   1.689   8.671   1.529 -1.3428  1.0864 -2.0919
  871MOL0     H14951   1.808   8.709   1.409 -1.3069 -0.4247 -3.5090
  871MOL0     H14952   1.675   8.592   1.233 -1.7053 -1.8472 -0.5797
  871MOL0     H14953   1.577   8.720   1.315 -1.5661  0.3727 -1.2235
  871MOL0     H14954   2.546   8.233   1.845 -0.7757 -0.2118 -1.8138
  871MOL0     H14955   2.777   8.285   1.871 -2.7246 -2.8586  1.9755
  871MOL0     H14956   3.109   8.620   2.229 -0.9487  1.9064 -1.7475
  871MOL0     H14957   3.345   8.575   2.256 -1.4192  1.6878  1.2891
  871MOL0     H14958   5.277   7.490   2.112 -0.1089  0.7934  4.2154
  871MOL0     H14959   5.310   7.266   2.219 -2.1217 -1.0365  1.2906
  871MOL0     H14960   5.284   6.891   2.492  1.0336 -1.3140  1.6613
  871MOL0     H14961   5.251   6.657   2.563 -1.9905 -0.9588 -0.3706
  871MOL0     H14962   5.160   6.308   2.516 -1.4989  0.0679 -0.5542
  871MOL0     H14963   5.208   6.464   2.589 -0.3400  1.8396 -1.6635
  871MOL0     H14964   5.438   6.440   2.509 -0.8075  0.5352  0.6188
  871MOL0     H14965   5.399   6.303   2.613  0.2652 -0.0828  0.3808
  871MOL0     H14966   5.521   6.239   2.408  0.4285 -0.5716  0.6442
  871MOL0     H14967   5.396   6.327   2.307  1.0998  1.4209  1.1174
  871MOL0     H14968   5.235   6.143   2.409 -0.8157 -0.3564  0.2386
  871MOL0     H14969   5.333   6.086   2.284  2.2524 -0.3882  0.8432
  871MOL0     H14970   5.478   5.825   2.538  1.4590  0.7032  0.7708
  871MOL0     H14971   5.128   6.567   2.166 -1.9143  3.3164 -2.4779
  871MOL0     H14972   5.143   6.801   2.102  1.7941 -0.8269 -0.6068
  872MOL0     O14973   2.703   1.315   3.326 -0.7271 -0.8010 -0.5977
  872MOL0     C14974   2.630   1.242   3.258  0.4131 -0.5348  0.4826
  872MOL0     O14975   2.497   1.253   3.244 -0.1954 -0.0322  1.1725
  872MOL0     C14976   2.443   1.366   3.281 -0.0079  0.1276  1.1861
  872MOL0     C14977   2.369   1.369   3.401 -0.1831 -0.1074 -0.6958
  872MOL0     C14978   2.313   1.483   3.450 -0.1553  0.0353  0.6664
  872MOL0     C14979   2.326   1.605   3.380 -0.3784 -0.4279 -0.0329
  872MOL0     O14980   2.252   1.714   3.415  0.4003 -0.0212  0.0880
  872MOL0     C14981   2.122   1.732   3.345  0.9736 -0.5314 -0.5132
  872MOL0     C14982   2.024   1.626   3.382  1.0099 -0.3319  0.1782
  872MOL0     C14983   1.967   1.659   3.522 -0.4041 -1.2134 -0.3476
  872MOL0     C14984   2.056   1.625   3.645  0.2028  0.0572  0.3482
  872MOL0     C14985   1.985   1.670   3.773  0.8964 -0.3228 -0.3781
  872MOL0     C14986   2.029   1.815   3.805 -0.2370 -0.0222 -0.2406
  872MOL0     C14987   1.958   1.853   3.936 -0.3532 -0.7622  0.2601
  872MOL0     C14988   1.951   2.005   3.954 -0.2404 -0.0179  1.3301
  872MOL0     N14989   1.878   2.042   4.078 -0.3011 -0.5778 -0.1904
  872MOL0     C14990   1.757   1.991   4.101  0.2537 -0.1736  0.2357
  872MOL0     C14991   1.705   2.076   4.192 -0.0310 -0.1524 -0.3026
  872MOL0     C14992   1.568   2.075   4.248  0.0673 -0.6869 -0.3377
  872MOL0     C14993   1.500   2.212   4.237  0.4185 -1.0243  0.4006
  872MOL0     C14994   1.391   2.233   4.340  0.8673  0.8148  0.0581
  872MOL0     C14995   1.281   2.129   4.317  0.5242 -0.3256  0.5940
  872MOL0     O14996   1.213   2.146   4.187 -0.3628 -0.5379  0.2817
  872MOL0     C14997   1.094   2.206   4.193  0.0867  0.1341 -0.1929
  872MOL0     C14998   1.027   2.217   4.066  0.4937 -0.6548 -1.0807
  872MOL0     C14999   0.896   2.268   4.038  0.0783  0.2470 -0.3512
  872MOL0     C15000   0.816   2.295   4.157 -0.7111  0.0883  0.2922
  872MOL0     C15001   0.688   2.369   4.141 -0.8063  0.0414  0.4492
  872MOL0     O15002   0.639   2.405   4.253  0.4660  0.2546 -1.0356
  872MOL0     C15003   0.506   2.440   4.258  0.3797  0.2428 -0.2640
  872MOL0     C15004   0.420   2.350   4.309 -0.2200  0.7242  0.8621
  872MOL0     C15005   0.283   2.377   4.305  0.1406  1.0233  0.8675
  872MOL0     C15006   0.227   2.495   4.262  0.2799  0.2220 -0.9359
  872MOL0     O15007   0.095   2.532   4.238  0.8959 -0.0637  0.1718
  872MOL0     C15008  -0.010   2.424   4.242 -0.1459  0.0185 -0.4999
  872MOL0     C15009  -0.145   2.494   4.252 -0.7445 -0.2304  0.4245
  872MOL0     C15010  -0.259   2.391   4.236 -0.4228 -0.8802  0.2546
  872MOL0     C15011  -0.267   2.275   4.327 -1.4433  0.0225  0.4730
  872MOL0     C15012  -0.370   2.184   4.289  0.1917  0.7057 -0.1058
  872MOL0     C15013  -0.397   2.070   4.392  0.2854 -1.0610  0.4504
  872MOL0     C15014  -0.536   2.004   4.367  0.6884 -0.1900  0.4758
  872MOL0     C15015  -0.572   1.893   4.469 -0.0899  0.7850  0.4158
  872MOL0    Cl15016  -0.487   1.735   4.421 -0.2565 -0.2159 -0.0785
  872MOL0     C15017   0.318   2.588   4.212  0.0317  0.0381 -0.2699
  872MOL0     C15018   0.455   2.562   4.217  0.7302  0.1938 -0.1997
  872MOL0     O15019   0.647   2.405   4.030  0.1259 -0.5091  0.0489
  872MOL0     C15020   0.881   2.281   4.283  2.1457  0.0178  0.3055
  872MOL0     C15021   1.004   2.229   4.300 -0.7402 -0.4648 -0.1134
  872MOL0     N15022   1.799   2.173   4.230  0.5355 -0.9030 -0.4031
  872MOL0     N15023   1.906   2.146   4.161  0.5450 -0.1836 -0.2370
  872MOL0     C15024   2.398   1.608   3.265  0.3578 -0.5504 -0.5598
  872MOL0     C15025   2.461   1.490   3.216 -0.7476  0.3580 -0.0553
  872MOL0     C15026   2.693   1.130   3.198 -0.3922 -0.3607 -0.7638
  872MOL0     C15027   2.832   1.120   3.193 -0.9833 -0.3501 -0.2076
  872MOL0     C15028   2.890   1.004   3.146  0.8817 -0.0891 -0.1123
  872MOL0     C15029   2.826   0.885   3.134  0.3408  0.8846  0.0449
  872MOL0     O15030   2.909   0.771   3.116 -0.2928  0.0164  0.4680
  872MOL0     C15031   2.859   0.643   3.127  0.6319 -0.5709  0.3472
  872MOL0     C15032   2.964   0.547   3.164 -0.3986 -0.7153  0.7110
  872MOL0     C15033   3.005   0.514   3.304 -0.2962 -0.3334  0.3297
  872MOL0     C15034   2.905   0.439   3.395  0.0830 -0.3892  0.6880
  872MOL0     C15035   2.971   0.391   3.513 -0.3550 -0.3511 -0.3381
  872MOL0     C15036   3.001   0.349   3.624  0.1894  0.1248 -0.0310
  872MOL0     C15037   2.685   0.893   3.140  0.6884 -0.4656  0.3477
  872MOL0     C15038   2.617   1.018   3.161 -0.0823  0.1358 -0.6348
  872MOL0     H15039   2.358   1.285   3.470 -1.1813  1.0070  0.5556
  872MOL0     H15040   2.251   1.449   3.533 -1.0931  1.1427  0.4505
  872MOL0     H15041   2.141   1.743   3.238 -0.5616  1.3771 -0.6440
  872MOL0     H15042   2.086   1.831   3.374  1.5087  0.5955 -3.3808
  872MOL0     H15043   2.051   1.521   3.396 -1.9373 -0.9560  2.3165
  872MOL0     H15044   1.939   1.636   3.313 -0.1156 -2.5376  1.1448
  872MOL0     H15045   1.880   1.593   3.524 -2.8820  1.8313 -0.7684
  872MOL0     H15046   1.929   1.762   3.526  1.8156 -0.2565 -1.9461
  872MOL0     H15047   2.074   1.517   3.638 -1.0209 -0.0712 -1.2097
  872MOL0     H15048   2.152   1.673   3.625  0.1275 -0.0731 -0.3453
  872MOL0     H15049   2.019   1.607   3.856  2.6889  2.5768  1.2666
  872MOL0     H15050   1.876   1.665   3.765  0.9978 -1.5074 -1.3426
  872MOL0     H15051   1.996   1.875   3.719  3.1637  1.3244 -0.7902
  872MOL0     H15052   2.138   1.820   3.803 -0.2547  0.8616  0.5785
  872MOL0     H15053   1.856   1.811   3.939 -1.5084  1.9210  2.3033
  872MOL0     H15054   2.021   1.817   4.017  2.1885  1.5004 -0.5732
  872MOL0     H15055   1.893   2.038   3.867  0.8320  0.2051  0.6882
  872MOL0     H15056   2.052   2.046   3.962  0.5323 -1.2900 -0.9682
  872MOL0     H15057   1.703   1.905   4.064 -0.4000 -0.2479  1.3310
  872MOL0     H15058   1.563   2.032   4.348  2.3953  0.4350  0.3303
  872MOL0     H15059   1.513   2.006   4.184 -0.2316  0.3318 -1.1982
  872MOL0     H15060   1.459   2.240   4.139 -0.5534  1.7854  1.5208
  872MOL0     H15061   1.570   2.293   4.259  0.3299  0.0862 -2.8038
  872MOL0     H15062   1.427   2.215   4.442 -1.5211 -1.1063  0.6422
  872MOL0     H15063   1.334   2.327   4.340 -1.5198 -0.5548  0.3840
  872MOL0     H15064   1.213   2.130   4.403 -2.0078  1.8776 -1.2473
  872MOL0     H15065   1.308   2.023   4.316  0.4465 -0.4135 -2.9033
  872MOL0     H15066   1.083   2.201   3.974  0.8638  0.0048 -0.9820
  872MOL0     H15067   0.858   2.285   3.938  1.2736 -2.3876 -1.3644
  872MOL0     H15068   0.476   2.268   4.352 -0.0274  0.8875  0.9272
  872MOL0     H15069   0.222   2.302   4.354  1.3541 -2.0503 -1.9635
  872MOL0     H15070   0.003   2.350   4.321  2.5395 -0.0223 -0.8857
  872MOL0     H15071  -0.005   2.378   4.143 -0.2698  1.7552 -1.3667
  872MOL0     H15072  -0.148   2.555   4.161  1.5297  0.1662  0.5697
  872MOL0     H15073  -0.160   2.549   4.345 -3.6331 -2.3159  1.3544
  872MOL0     H15074  -0.255   2.367   4.129  0.5195  0.8258 -0.1326
  872MOL0     H15075  -0.353   2.446   4.240 -0.3003 -0.4174 -1.8862
  872MOL0     H15076  -0.176   2.215   4.338  0.0825  2.3263  1.1708
  872MOL0     H15077  -0.280   2.319   4.426  0.3762 -0.1886  0.8407
  872MOL0     H15078  -0.341   2.132   4.197 -1.3984 -2.0974  0.8548
  872MOL0     H15079  -0.459   2.247   4.283  0.3937  0.9092 -1.0819
  872MOL0     H15080  -0.405   2.121   4.488 -2.5218  1.7791 -1.1042
  872MOL0     H15081  -0.311   2.005   4.409  0.6309 -0.8784 -0.5094
  872MOL0     H15082  -0.617   2.077   4.368  0.8212 -0.0148 -0.4481
  872MOL0     H15083  -0.536   1.965   4.265  3.2654 -0.4656  0.5028
  872MOL0     H15084  -0.681   1.881   4.470  0.1128 -1.5007  0.0850
  872MOL0     H15085  -0.545   1.918   4.572  0.2062 -0.8929  0.7678
  872MOL0     H15086   0.293   2.684   4.168  3.7701  0.7852 -1.1440
  872MOL0     H15087   0.524   2.627   4.165  2.9793 -0.7830  1.4031
  872MOL0     H15088   0.822   2.310   4.369 -1.4841 -0.2463 -1.8815
  872MOL0     H15089   1.036   2.214   4.403  0.0056  1.1813 -0.0822
  872MOL0     H15090   2.397   1.701   3.211 -2.4391  0.4574  1.0509
  872MOL0     H15091   2.518   1.490   3.124  0.3522  0.9065  0.6038
  872MOL0     H15092   2.892   1.209   3.213 -0.2137 -1.0287  0.5877
  872MOL0     H15093   2.994   1.002   3.116  1.1650 -1.6440  0.8816
  872MOL0     H15094   2.822   0.614   3.028  5.1897 -1.1521 -1.4366
  872MOL0     H15095   2.781   0.641   3.203 -1.4664 -2.3403 -1.7064
  872MOL0     H15096   2.946   0.443   3.134  0.2805 -0.6272 -0.0407
  872MOL0     H15097   3.054   0.578   3.111 -0.4575 -0.6241  0.6650
  872MOL0     H15098   3.035   0.607   3.352  0.5117 -0.8009  0.7476
  872MOL0     H15099   3.095   0.452   3.297 -1.5717 -2.5448  1.9934
  872MOL0     H15100   2.831   0.511   3.432 -0.3891 -0.6226  0.1930
  872MOL0     H15101   2.855   0.361   3.337 -0.6979  1.8533 -1.8706
  872MOL0     H15102   3.035   0.324   3.723  1.1976 -1.5076 -0.7468
  872MOL0     H15103   2.626   0.805   3.118 -1.8112  1.8352 -3.3701
  872MOL0     H15104   2.509   1.015   3.167  0.0140 -2.1194  2.2298
  873MOL0     O15105   6.241  10.557   4.104  0.1468 -0.0901 -0.0727
  873MOL0     C15106   6.216  10.444   4.137  0.0848  1.9109  0.5144
  873MOL0     O15107   6.294  10.330   4.100  0.0922  0.2980 -0.2539
  873MOL0     C15108   6.412  10.353   4.043  0.2200  0.2018 -0.0688
  873MOL0     C15109   6.431  10.330   3.903  1.0824  0.3741 -0.1749
  873MOL0     C15110   6.553  10.358   3.842  0.2244 -0.3296 -0.4732
  873MOL0     C15111   6.657  10.412   3.921  0.3696 -1.2860  0.0914
  873MOL0     O15112   6.772  10.456   3.865  0.0429  0.0431  0.4721
  873MOL0     C15113   6.788  10.468   3.719  0.4934  0.3963  0.6888
  873MOL0     C15114   6.900  10.571   3.682  0.2479  1.2742 -0.3920
  873MOL0     C15115   7.032  10.505   3.729 -0.3408  0.5702 -0.1363
  873MOL0     C15116   7.089  10.387   3.642 -0.0505 -0.5634  0.1777
  873MOL0     C15117   7.198  10.311   3.708  0.3415 -0.2783  0.6234
  873MOL0     C15118   7.324  10.389   3.747 -0.5098  0.8525  0.8279
  873MOL0     C15119   7.420  10.305   3.828 -0.2547 -0.2752 -0.8090
  873MOL0     C15120   7.516  10.390   3.903  0.5299 -0.2567 -0.5992
  873MOL0     N15121   7.646  10.329   3.920 -0.1199  0.1196 -0.2195
  873MOL0     C15122   7.742  10.318   3.826 -1.0371 -0.3760 -0.4952
  873MOL0     C15123   7.848  10.275   3.902  0.0362  0.0668  0.3394
  873MOL0     C15124   7.992  10.246   3.847  0.6334  1.2425 -0.7107
  873MOL0     C15125   8.052  10.129   3.927 -0.0100  0.0723  0.1494
  873MOL0     C15126   7.974   9.997   3.922 -0.2441 -0.6169 -0.1509
  873MOL0     C15127   8.068   9.896   3.994 -0.3589  0.5498  1.2218
  873MOL0     O15128   8.161   9.835   3.893 -0.1565 -0.0412  0.2413
  873MOL0     C15129   8.201   9.704   3.913  0.1840  0.4828  0.3362
  873MOL0     C15130   8.121   9.607   3.843 -0.5359  0.6018 -0.7120
  873MOL0     C15131   8.156   9.469   3.858  0.0998  0.0106 -0.2038
  873MOL0     C15132   8.268   9.430   3.946  0.4262 -0.3459 -0.6475
  873MOL0     C15133   8.297   9.292   3.985  0.4155  0.7194  0.6956
  873MOL0     O15134   8.186   9.215   3.950  0.3899 -0.2371  0.7513
  873MOL0     C15135   8.193   9.084   3.989  0.1334  0.0218 -0.5163
  873MOL0     C15136   8.088   9.027   4.054  0.9883 -0.7556 -0.2223
  873MOL0     C15137   8.097   8.896   4.092 -1.6025  0.4583 -0.4403
  873MOL0     C15138   8.206   8.816   4.057  0.6480 -0.4041  0.8721
  873MOL0     O15139   8.200   8.690   4.110 -0.1144  0.0080 -0.7186
  873MOL0     C15140   8.324   8.643   4.168  0.2908 -0.7362 -0.6356
  873MOL0     C15141   8.373   8.515   4.100 -0.7753 -0.2218  0.0045
  873MOL0     C15142   8.474   8.435   4.181 -0.4130 -0.8998  0.6257
  873MOL0     C15143   8.526   8.311   4.098  0.3752  0.3690 -1.2395
  873MOL0     C15144   8.617   8.208   4.170 -0.3501  0.5625  0.5683
  873MOL0     C15145   8.652   8.090   4.077  0.5448 -1.0246 -0.4903
  873MOL0     C15146   8.730   8.118   3.948 -0.4878  0.0823 -0.2636
  873MOL0     C15147   8.796   7.982   3.903 -0.5516  0.0295  0.3950
  873MOL0    Cl15148   8.909   8.025   3.765 -0.2589  0.1900 -0.0675
  873MOL0     C15149   8.297   8.863   3.963 -0.5335 -1.6588 -0.3639
  873MOL0     C15150   8.295   9.001   3.930 -0.1202 -0.1697 -0.1367
  873MOL0     O15151   8.386   9.260   4.064  0.7464  0.1286  0.0898
  873MOL0     C15152   8.341   9.535   4.020 -0.5756  0.4676 -0.2547
  873MOL0     C15153   8.295   9.668   4.011 -0.0875  0.8994 -0.7716
  873MOL0     N15154   7.807  10.240   4.031  0.8547  0.2135 -0.0457
  873MOL0     N15155   7.685  10.289   4.039  0.5038 -0.5704 -0.4059
  873MOL0     C15156   6.642  10.433   4.058  0.0706  0.6012  0.6633
  873MOL0     C15157   6.520  10.407   4.121  0.4663  0.1512  0.8571
  873MOL0     C15158   6.088  10.427   4.215  0.8463  0.6057 -0.5038
  873MOL0     C15159   6.032  10.533   4.286  0.5029 -0.3467 -0.3702
  873MOL0     C15160   5.922  10.514   4.367 -0.6979 -0.4690  0.3339
  873MOL0     C15161   5.852  10.393   4.363 -0.0956 -0.4785 -0.0434
  873MOL0     O15162   5.754  10.370   4.444  0.5302 -0.1462  0.6838
  873MOL0     C15163   5.692  10.479   4.513  0.5388  0.1062  0.4546
  873MOL0     C15164   5.737  10.463   4.651  0.0294  0.6660 -0.4903
  873MOL0     C15165   5.701  10.329   4.712 -0.2369 -0.4728  0.7589
  873MOL0     C15166   5.546  10.319   4.731  0.0125  0.5019  0.8539
  873MOL0     C15167   5.507  10.247   4.859  0.9050 -0.9847 -0.3057
  873MOL0     C15168   5.479  10.204   4.969 -0.1167  0.2153 -0.4561
  873MOL0     C15169   5.906  10.286   4.287 -0.3756 -0.0658 -1.0127
  873MOL0     C15170   6.028  10.302   4.214 -0.0517  0.0312 -0.5206
  873MOL0     H15171   6.352  10.286   3.843 -0.4740  1.5723  0.8983
  873MOL0     H15172   6.554  10.343   3.734 -0.8105  0.4838 -0.6173
  873MOL0     H15173   6.697  10.506   3.672  1.6086  1.0779 -1.0455
  873MOL0     H15174   6.805  10.369   3.676  1.6846  0.7650  0.2569
  873MOL0     H15175   6.877  10.668   3.728 -2.6495  0.0653  0.9973
  873MOL0     H15176   6.910  10.588   3.574  2.7887  2.1069 -0.0902
  873MOL0     H15177   7.016  10.471   3.832  0.0492 -0.5975 -0.4385
  873MOL0     H15178   7.109  10.582   3.734 -0.1899  0.5451 -1.6629
  873MOL0     H15179   7.000  10.330   3.616 -1.2038  2.3865 -3.2960
  873MOL0     H15180   7.126  10.423   3.545 -0.2524 -0.0836  0.2758
  873MOL0     H15181   7.231  10.234   3.638 -2.1406 -0.6190 -0.2848
  873MOL0     H15182   7.164  10.257   3.796 -0.6539 -0.6704  0.0164
  873MOL0     H15183   7.286  10.467   3.813 -1.5740 -1.4566  3.1005
  873MOL0     H15184   7.372  10.435   3.660 -0.0192 -0.7802  0.1910
  873MOL0     H15185   7.372  10.234   3.895  0.0718  0.2951  0.0471
  873MOL0     H15186   7.471  10.240   3.757  2.4740 -1.9288  2.4105
  873MOL0     H15187   7.467  10.423   3.996 -0.5986  1.5199 -1.7632
  873MOL0     H15188   7.534  10.488   3.858 -0.1384 -0.2516 -0.8558
  873MOL0     H15189   7.741  10.359   3.726  1.4283  2.4120  0.4680
  873MOL0     H15190   8.057  10.333   3.865 -0.9421  2.5214 -0.9291
  873MOL0     H15191   7.985  10.224   3.741 -2.6811  1.3321 -0.6016
  873MOL0     H15192   8.064  10.165   4.029  2.7091  1.4843 -0.5865
  873MOL0     H15193   8.148  10.121   3.876  3.1628  0.2104  5.4026
  873MOL0     H15194   7.887  10.000   3.988  0.3034 -0.0420  0.5661
  873MOL0     H15195   7.956   9.951   3.825  4.2094 -3.7811  0.2320
  873MOL0     H15196   8.012   9.805   4.015  0.5684 -0.2294  0.4566
  873MOL0     H15197   8.113   9.939   4.084  0.4301  1.2490  0.5192
  873MOL0     H15198   8.031   9.632   3.788 -2.6022 -6.9949 -1.8372
  873MOL0     H15199   8.078   9.395   3.838 -3.0931  2.3217  2.5202
  873MOL0     H15200   7.996   9.080   4.079  0.0118 -1.2218 -2.5644
  873MOL0     H15201   8.012   8.860   4.150  0.3204  0.2519  2.4697
  873MOL0     H15202   8.308   8.640   4.276  0.1125  2.7809 -0.4648
  873MOL0     H15203   8.400   8.718   4.146 -1.4310  0.9459 -1.1781
  873MOL0     H15204   8.418   8.555   4.009 -0.9281  0.9522  0.4294
  873MOL0     H15205   8.284   8.455   4.080 -1.9637  0.5074  2.6534
  873MOL0     H15206   8.435   8.399   4.277  1.8002 -0.8064  1.6245
  873MOL0     H15207   8.565   8.495   4.195 -0.6038 -0.9171  2.1208
  873MOL0     H15208   8.432   8.261   4.073 -1.7798  3.5861 -0.0605
  873MOL0     H15209   8.587   8.332   4.009  1.3761  0.6210 -0.5089
  873MOL0     H15210   8.570   8.177   4.263 -1.3010  1.4618  0.4145
  873MOL0     H15211   8.709   8.260   4.198  2.5981 -2.6579 -2.2294
  873MOL0     H15212   8.558   8.050   4.039  2.2817 -4.3688 -1.5835
  873MOL0     H15213   8.705   8.023   4.145 -0.1812 -0.2663  0.8737
  873MOL0     H15214   8.661   8.161   3.874 -2.1366  0.3678  1.3678
  873MOL0     H15215   8.808   8.192   3.969 -3.4475  2.3917  4.0597
  873MOL0     H15216   8.721   7.918   3.857 -0.0484 -0.4370  0.2149
  873MOL0     H15217   8.853   7.943   3.988 -0.7625 -1.6379 -0.1987
  873MOL0     H15218   8.387   8.806   3.940 -0.9961 -1.4099 -3.0690
  873MOL0     H15219   8.377   9.050   3.879  0.7046 -2.8527 -1.5548
  873MOL0     H15220   8.427   9.529   4.086  0.9398  0.1022 -2.1558
  873MOL0     H15221   8.347   9.732   4.082 -0.7197  2.0434 -1.3210
  873MOL0     H15222   6.715  10.483   4.120  3.8252 -2.8190 -0.5735
  873MOL0     H15223   6.508  10.425   4.227  0.4247 -0.0457  0.8866
  873MOL0     H15224   6.086  10.627   4.289  1.2052 -0.7710  1.0836
  873MOL0     H15225   5.903  10.605   4.424 -3.2360  1.5068 -3.2211
  873MOL0     H15226   5.583  10.469   4.516  0.3683  1.7010  0.0994
  873MOL0     H15227   5.703  10.581   4.475 -2.0248  2.1181  4.4120
  873MOL0     H15228   5.846  10.476   4.651  0.4907 -1.9921 -3.4012
  873MOL0     H15229   5.692  10.548   4.702  1.1564  0.9369  0.0942
  873MOL0     H15230   5.755  10.315   4.806  1.8936  1.9893  0.0173
  873MOL0     H15231   5.757  10.249   4.663  1.5058 -0.4405  2.5894
  873MOL0     H15232   5.500  10.419   4.733 -2.4282 -0.5421  0.3897
  873MOL0     H15233   5.487  10.280   4.648  0.4552  2.2220 -0.3129
  873MOL0     H15234   5.460  10.180   5.072 -1.8407  1.2135 -0.5110
  873MOL0     H15235   5.859  10.188   4.287  0.7892 -0.6516 -1.2524
  873MOL0     H15236   6.074  10.219   4.162 -0.6368 -1.2677  0.9504
  874MOL0     O15237   0.826   1.483   0.695 -0.1809 -0.7267  0.1147
  874MOL0     C15238   0.875   1.406   0.766 -1.0086  0.2126 -1.1604
  874MOL0     O15239   0.942   1.430   0.881  0.1034 -0.2172  0.0693
  874MOL0     C15240   0.931   1.550   0.945  0.5381  0.6441 -0.0403
  874MOL0     C15241   1.050   1.588   1.031  0.7524 -0.6020  0.6976
  874MOL0     C15242   1.057   1.715   1.080  0.0424 -0.8362  0.4300
  874MOL0     C15243   0.957   1.805   1.068  0.9291 -0.0308 -0.0758
  874MOL0     O15244   0.978   1.920   1.129 -0.1776  0.4016 -0.6007
  874MOL0     C15245   0.894   2.035   1.100 -0.5509  0.0206 -0.9351
  874MOL0     C15246   0.940   2.103   0.966  0.6584 -0.4344 -0.0594
  874MOL0     C15247   0.878   2.240   0.930  0.0585  0.5750  0.5137
  874MOL0     C15248   0.723   2.226   0.894 -0.5614  0.2691  0.5145
  874MOL0     C15249   0.643   2.340   0.921 -0.3151 -0.0143  0.0300
  874MOL0     C15250   0.703   2.453   0.842  0.6053 -0.2139 -1.2978
  874MOL0     C15251   0.604   2.573   0.844 -0.6704 -0.3135  0.1886
  874MOL0     C15252   0.466   2.542   0.770  0.1598  0.6845 -0.0010
  874MOL0     N15253   0.479   2.463   0.652 -0.5113  0.5786  0.5514
  874MOL0     C15254   0.543   2.492   0.531  0.0163 -0.3505  0.3812
  874MOL0     C15255   0.572   2.374   0.480  0.3844 -0.1383  0.4047
  874MOL0     C15256   0.680   2.364   0.380  0.0085  0.7963  0.7280
  874MOL0     C15257   0.649   2.270   0.267 -0.3977 -0.6318  0.5219
  874MOL0     C15258   0.612   2.353   0.134 -0.2884  0.2064  0.6999
  874MOL0     C15259   0.548   2.273   0.018  0.3781  0.2025  0.5404
  874MOL0     O15260   0.626   2.154  -0.003  0.7010 -0.0808 -0.6589
  874MOL0     C15261   0.608   2.064  -0.106  0.5740  0.7992 -0.3231
  874MOL0     C15262   0.672   1.936  -0.103 -0.1244  0.3022  0.0679
  874MOL0     C15263   0.650   1.841  -0.202  0.2575 -0.2128  0.1017
  874MOL0     C15264   0.571   1.874  -0.318  0.2717  1.1448  0.5878
  874MOL0     C15265   0.555   1.784  -0.435 -0.0935 -0.8255  0.1823
  874MOL0     O15266   0.618   1.668  -0.427 -0.4873 -0.3429  0.1540
  874MOL0     C15267   0.604   1.571  -0.526 -0.4585 -0.6611 -0.7371
  874MOL0     C15268   0.480   1.515  -0.559  0.3377 -0.9627 -0.7575
  874MOL0     C15269   0.468   1.402  -0.649  0.1073  0.0501 -0.3957
  874MOL0     C15270   0.587   1.340  -0.700  0.1217  0.8410  0.2680
  874MOL0     O15271   0.586   1.240  -0.795  0.7507 -0.3371 -0.2449
  874MOL0     C15272   0.699   1.204  -0.855 -0.6844 -0.5638 -0.6720
  874MOL0     C15273   0.651   1.106  -0.970  0.8096 -0.9794 -0.4231
  874MOL0     C15274   0.757   1.080  -1.066  0.7613 -0.4496  0.2147
  874MOL0     C15275   0.702   1.000  -1.183 -0.1314 -0.5171 -0.0904
  874MOL0     C15276   0.815   0.963  -1.275  0.5683  0.2725  0.7285
  874MOL0     C15277   0.875   0.826  -1.254 -0.3824 -0.4726 -0.7691
  874MOL0     C15278   0.978   0.792  -1.369 -0.2749 -0.1818  1.1392
  874MOL0     C15279   1.079   0.684  -1.336 -1.3666  0.0358  0.4527
  874MOL0    Cl15280   1.181   0.646  -1.483  0.2975 -0.2198  0.0593
  874MOL0     C15281   0.709   1.401  -0.660 -0.0895 -0.3526  0.2753
  874MOL0     C15282   0.722   1.510  -0.566 -0.5195 -0.1529  0.6558
  874MOL0     O15283   0.459   1.806  -0.511 -0.1204 -0.1372 -0.2037
  874MOL0     C15284   0.504   1.998  -0.323 -0.0667 -0.7733  0.5263
  874MOL0     C15285   0.527   2.098  -0.219 -0.3478  1.3231 -0.0980
  874MOL0     N15286   0.513   2.279   0.556  0.1136 -0.7753 -0.1821
  874MOL0     N15287   0.450   2.331   0.649  0.3545  0.2849 -0.1386
  874MOL0     C15288   0.839   1.765   1.002  0.7300  0.1727  0.8054
  874MOL0     C15289   0.831   1.641   0.937 -0.0110 -0.4572 -0.1809
  874MOL0     C15290   0.870   1.266   0.717 -0.1024 -0.2409 -0.2911
  874MOL0     C15291   0.807   1.227   0.595  0.8069  0.0109  0.3048
  874MOL0     C15292   0.816   1.088   0.557  0.5557 -1.0410 -0.0100
  874MOL0     C15293   0.889   0.998   0.628 -0.0667  0.8840  0.6110
  874MOL0     O15294   0.911   0.863   0.598 -0.5264 -0.0624 -0.1012
  874MOL0     C15295   0.819   0.790   0.526 -1.1891 -0.0631  0.7507
  874MOL0     C15296   0.867   0.645   0.518  0.3021  0.2349 -1.7024
  874MOL0     C15297   0.788   0.567   0.411 -0.2819 -0.4381  1.0371
  874MOL0     C15298   0.787   0.416   0.431  0.7974  0.7070 -0.8077
  874MOL0     C15299   0.921   0.354   0.477  0.0235 -0.5105  0.0484
  874MOL0     C15300   1.025   0.303   0.504 -0.5090 -0.8985 -0.0128
  874MOL0     C15301   0.968   1.041   0.736  0.1162  0.1495 -0.0609
  874MOL0     C15302   0.954   1.173   0.778 -0.7995 -0.7950  0.1646
  874MOL0     H15303   1.131   1.518   1.047  1.3901  0.0971  0.5724
  874MOL0     H15304   1.135   1.743   1.150 -1.7689 -1.3731  2.7781
  874MOL0     H15305   0.910   2.108   1.180  0.1644  0.6972 -1.6788
  874MOL0     H15306   0.785   2.022   1.099 -0.8512  1.8424  1.0387
  874MOL0     H15307   0.918   2.038   0.881  2.7341 -4.4669  2.1727
  874MOL0     H15308   1.049   2.107   0.973  0.6226 -1.7345  2.3612
  874MOL0     H15309   0.924   2.256   0.832  0.9867 -2.3927  0.3847
  874MOL0     H15310   0.907   2.315   1.005  0.3569 -0.3427  1.3306
  874MOL0     H15311   0.717   2.190   0.791 -2.3070 -2.7224  1.5024
  874MOL0     H15312   0.678   2.140   0.945  0.7797 -0.6969  0.1385
  874MOL0     H15313   0.656   2.356   1.029  0.2725 -0.0180 -0.0354
  874MOL0     H15314   0.537   2.336   0.898 -0.7272 -0.0400  1.7844
  874MOL0     H15315   0.719   2.427   0.736 -0.5849 -0.3257 -1.4588
  874MOL0     H15316   0.801   2.478   0.884  0.4833 -0.9659 -0.5540
  874MOL0     H15317   0.584   2.597   0.949  1.7288 -1.9893  1.1378
  874MOL0     H15318   0.658   2.653   0.793  0.5006 -2.3409 -1.9440
  874MOL0     H15319   0.424   2.642   0.757  5.3075  3.4235  1.7290
  874MOL0     H15320   0.395   2.490   0.836  0.6017  1.2235  0.9321
  874MOL0     H15321   0.581   2.589   0.501 -1.0269  0.5239  1.7831
  874MOL0     H15322   0.772   2.322   0.421 -0.8794 -2.0763  0.0477
  874MOL0     H15323   0.704   2.461   0.336 -0.5622 -1.1357 -4.5566
  874MOL0     H15324   0.581   2.189   0.295 -0.0715 -1.2295 -0.3866
  874MOL0     H15325   0.743   2.216   0.253  1.6091  2.8473 -0.3785
  874MOL0     H15326   0.543   2.436   0.150 -1.2852  0.0250 -2.0378
  874MOL0     H15327   0.704   2.400   0.098  0.3634 -2.0095 -0.7959
  874MOL0     H15328   0.545   2.333  -0.073 -2.1467 -2.5632 -1.4013
  874MOL0     H15329   0.442   2.253   0.032 -0.8462  3.3056 -2.6927
  874MOL0     H15330   0.733   1.898  -0.021 -0.1729 -0.8797 -0.4182
  874MOL0     H15331   0.691   1.742  -0.188 -0.4267 -0.4122  0.6994
  874MOL0     H15332   0.383   1.549  -0.523  2.7883  5.0790  1.2830
  874MOL0     H15333   0.373   1.363  -0.683 -0.5039  1.8611 -0.8471
  874MOL0     H15334   0.773   1.155  -0.791  3.7248  0.3755 -4.4750
  874MOL0     H15335   0.742   1.293  -0.902  0.4134 -1.9993 -2.5592
  874MOL0     H15336   0.581   1.172  -1.023  0.4247  0.5963  1.8836
  874MOL0     H15337   0.601   1.014  -0.939  1.4027 -1.4767 -0.9110
  874MOL0     H15338   0.838   1.026  -1.018  1.3983  1.1046  0.9586
  874MOL0     H15339   0.796   1.176  -1.101 -1.1242  0.5453  0.6627
  874MOL0     H15340   0.647   0.915  -1.143  0.4102 -1.2053 -0.7649
  874MOL0     H15341   0.640   1.068  -1.243  0.5545  0.3970  0.2039
  874MOL0     H15342   0.899   1.034  -1.274 -0.5421  1.6316  0.8067
  874MOL0     H15343   0.754   0.966  -1.366  1.1717  0.6260  0.3295
  874MOL0     H15344   0.795   0.751  -1.250  0.5374 -1.5592 -1.7960
  874MOL0     H15345   0.931   0.824  -1.160 -0.3825  2.1688 -0.6606
  874MOL0     H15346   0.930   0.749  -1.457 -1.4365 -0.2617  1.7976
  874MOL0     H15347   1.039   0.879  -1.397  0.3818 -0.0252  2.9481
  874MOL0     H15348   1.029   0.592  -1.304  1.8546 -2.6797 -1.6013
  874MOL0     H15349   1.139   0.725  -1.254  0.6231  0.8489 -1.3174
  874MOL0     H15350   0.803   1.352  -0.683 -0.4919 -0.6556 -0.7868
  874MOL0     H15351   0.819   1.548  -0.538 -0.7194 -0.6501  2.1442
  874MOL0     H15352   0.438   2.021  -0.407  0.3003 -1.0448  0.1547
  874MOL0     H15353   0.471   2.191  -0.225 -2.4437  0.3797  2.7930
  874MOL0     H15354   0.752   1.829   0.995  0.4130 -0.0214  2.6236
  874MOL0     H15355   0.738   1.611   0.891 -0.5346  0.2946  0.3780
  874MOL0     H15356   0.748   1.294   0.534  1.3145 -0.0374 -0.2512
  874MOL0     H15357   0.765   1.063   0.465 -0.9580  0.9614  0.2191
  874MOL0     H15358   0.797   0.835   0.429  0.3212 -0.3052  0.2707
  874MOL0     H15359   0.721   0.793   0.576 -1.0777  1.6689  0.9272
  874MOL0     H15360   0.972   0.644   0.485  0.9618  0.7810  0.2467
  874MOL0     H15361   0.866   0.610   0.622  2.9170  4.2105 -0.1020
  874MOL0     H15362   0.837   0.598   0.319 -1.7758 -0.8942  0.0451
  874MOL0     H15363   0.688   0.606   0.387  1.0128  1.1792 -2.4137
  874MOL0     H15364   0.717   0.398   0.513  1.3768  2.0077 -0.0116
  874MOL0     H15365   0.762   0.357   0.342  0.6911 -2.2047  0.9946
  874MOL0     H15366   1.109   0.241   0.528 -1.1792 -1.9341 -0.2967
  874MOL0     H15367   1.045   0.976   0.777 -0.9041 -1.0622  0.0117
  874MOL0     H15368   1.015   1.207   0.861 -0.8143 -0.9120  0.2226
  875MOL0     O15369   3.274  10.498   1.799 -0.3555  0.2348  0.1198
  875MOL0     C15370   3.350  10.505   1.893  0.5178 -0.5685 -0.0062
  875MOL0     O15371   3.340  10.598   1.992 -0.3060 -0.4874  0.0035
  875MOL0     C15372   3.215  10.664   2.020 -0.4306 -0.2453  0.7237
  875MOL0     C15373   3.092  10.605   1.999 -0.0149  0.0388 -0.3704
  875MOL0     C15374   2.969  10.666   2.018 -0.6439  0.6773 -0.5801
  875MOL0     C15375   2.980  10.787   2.079 -0.3387 -0.3206  0.0833
  875MOL0     O15376   2.868  10.858   2.107 -0.0820 -0.7285  0.3755
  875MOL0     C15377   2.727  10.811   2.095 -0.7268  0.2199  0.5751
  875MOL0     C15378   2.622  10.921   2.111 -0.2608  0.0792 -0.4239
  875MOL0     C15379   2.645  11.049   2.027 -0.0494  1.1284  0.3562
  875MOL0     C15380   2.658  11.033   1.878 -0.1523  0.8161 -0.4663
  875MOL0     C15381   2.545  10.943   1.820  0.1132 -1.0283 -0.0893
  875MOL0     C15382   2.559  10.922   1.672  0.5559  0.0628 -0.2306
  875MOL0     C15383   2.544  11.047   1.573 -0.1872  1.5001 -0.8721
  875MOL0     C15384   2.420  11.039   1.479 -0.3643  0.4409  0.0089
  875MOL0     N15385   2.358  11.167   1.429 -0.6228 -0.0094  0.2908
  875MOL0     C15386   2.225  11.199   1.417 -0.5876  0.0861 -0.2447
  875MOL0     C15387   2.226  11.306   1.328 -0.0300 -0.0168  0.1117
  875MOL0     C15388   2.111  11.388   1.273  0.3844 -0.3808  0.5500
  875MOL0     C15389   1.989  11.312   1.225 -0.5091 -0.2968 -0.4352
  875MOL0     C15390   1.884  11.419   1.203  0.7738  0.1801 -0.2138
  875MOL0     C15391   1.828  11.466   1.336 -0.0429 -0.3182  0.1662
  875MOL0     O15392   1.722  11.384   1.385  0.4628 -0.1291 -0.4151
  875MOL0     C15393   1.594  11.429   1.371  0.0938 -0.0443 -0.6435
  875MOL0     C15394   1.493  11.334   1.372  0.0375 -0.2345 -0.5542
  875MOL0     C15395   1.353  11.367   1.369 -0.9787 -0.7196 -0.6534
  875MOL0     C15396   1.312  11.505   1.369 -0.2809  0.4082  0.3487
  875MOL0     C15397   1.167  11.560   1.362 -0.9408  1.2951 -0.0019
  875MOL0     O15398   1.134  11.688   1.311 -0.5196  0.7799 -0.2413
  875MOL0     C15399   0.998  11.691   1.295 -0.3789  0.8084 -0.0603
  875MOL0     C15400   0.937  11.799   1.365  0.5004  0.1726  0.2960
  875MOL0     C15401   0.803  11.823   1.356  0.4036 -0.0780 -0.3549
  875MOL0     C15402   0.714  11.728   1.293 -0.1830 -0.2908  0.2118
  875MOL0     O15403   0.583  11.737   1.277  0.2994  0.2391  0.4714
  875MOL0     C15404   0.508  11.825   1.354  0.2883  0.2375  0.5416
  875MOL0     C15405   0.376  11.848   1.288  0.2169 -0.7076  0.1875
  875MOL0     C15406   0.295  11.712   1.270 -1.1825 -0.4183  0.7817
  875MOL0     C15407   0.243  11.660   1.400 -0.1623  0.0766 -0.6367
  875MOL0     C15408   0.132  11.554   1.404  0.4829 -0.6504 -0.3961
  875MOL0     C15409   0.172  11.412   1.359 -0.4628 -0.6519  0.4238
  875MOL0     C15410   0.271  11.337   1.460  0.5836 -0.0682 -0.4128
  875MOL0     C15411   0.295  11.186   1.415  0.7307  0.1143  0.1176
  875MOL0    Cl15412   0.131  11.097   1.391  0.0005 -0.3561  0.2007
  875MOL0     C15413   0.769  11.619   1.230 -1.0039  1.0133 -0.1360
  875MOL0     C15414   0.912  11.606   1.232 -0.0356  0.3182  0.8744
  875MOL0     O15415   1.090  11.492   1.431 -0.4351  0.1383  0.3031
  875MOL0     C15416   1.421  11.597   1.394  0.0831 -0.3296  0.7477
  875MOL0     C15417   1.555  11.563   1.387  0.5316 -0.6340  0.5850
  875MOL0     N15418   2.357  11.332   1.286  0.0062  0.8568 -0.7085
  875MOL0     N15419   2.430  11.251   1.353  0.1946 -0.3046 -0.0962
  875MOL0     C15420   3.094  10.855   2.113 -0.2042  0.4648 -0.2103
  875MOL0     C15421   3.222  10.790   2.086 -0.0089 -0.1579 -0.3318
  875MOL0     C15422   3.462  10.405   1.901  0.1180  0.0545 -0.6477
  875MOL0     C15423   3.547  10.404   2.011 -0.1758  0.5546 -1.0254
  875MOL0     C15424   3.645  10.302   2.013  0.4450 -0.2558 -0.6132
  875MOL0     C15425   3.649  10.205   1.923 -0.7874  1.0816 -0.5342
  875MOL0     O15426   3.742  10.107   1.945 -0.0409  0.4678  0.3328
  875MOL0     C15427   3.859  10.122   1.858  0.4578 -0.5432  0.2338
  875MOL0     C15428   3.971  10.033   1.899  0.5248 -0.4526  0.0984
  875MOL0     C15429   4.103  10.029   1.820  1.0198 -0.7913  0.0750
  875MOL0     C15430   4.197  10.146   1.880 -0.3944  0.3519  0.1595
  875MOL0     C15431   4.320  10.109   1.817 -0.3756  0.4968 -0.5638
  875MOL0     C15432   4.435  10.092   1.785 -1.3772  0.9223 -0.4919
  875MOL0     C15433   3.561  10.205   1.817 -0.2221  0.2945 -0.1548
  875MOL0     C15434   3.478  10.312   1.796  0.7831 -0.2871 -0.7789
  875MOL0     H15435   3.088  10.504   1.958 -2.3721  0.1173 -0.4616
  875MOL0     H15436   2.879  10.617   1.983 -0.5549  1.5438 -2.1027
  875MOL0     H15437   2.713  10.730   2.167  2.3632  0.8734  2.1015
  875MOL0     H15438   2.720  10.753   2.003  2.7389 -0.0608  0.3321
  875MOL0     H15439   2.618  10.942   2.218  1.0667 -2.9673  0.3277
  875MOL0     H15440   2.522  10.901   2.072  0.0019 -1.2530 -0.4610
  875MOL0     H15441   2.739  11.100   2.051 -0.1060  0.8163  1.2726
  875MOL0     H15442   2.557  11.109   2.053  0.4467  0.8950  2.8824
  875MOL0     H15443   2.664  11.135   1.840 -1.7150  1.7784  1.6525
  875MOL0     H15444   2.755  10.982   1.867 -0.0014  1.5602 -3.2444
  875MOL0     H15445   2.447  10.988   1.839  0.1482 -0.9738 -0.0388
  875MOL0     H15446   2.546  10.839   1.854  1.1055 -0.7429  0.8161
  875MOL0     H15447   2.487  10.851   1.629  0.7348 -0.7640  0.8122
  875MOL0     H15448   2.659  10.880   1.659  0.8612  1.0999 -1.5056
  875MOL0     H15449   2.540  11.142   1.628 -0.4950  0.0021  1.8841
  875MOL0     H15450   2.630  11.029   1.508  0.1837 -1.8012  0.3329
  875MOL0     H15451   2.335  10.991   1.529 -3.1080  3.3701 -1.4326
  875MOL0     H15452   2.447  10.973   1.396 -0.7388  2.0995 -1.4753
  875MOL0     H15453   2.135  11.156   1.458  1.6883 -3.6207  1.4219
  875MOL0     H15454   2.143  11.432   1.178  0.7140 -1.0173  0.3592
  875MOL0     H15455   2.086  11.461   1.349 -3.3399 -1.8298  0.9158
  875MOL0     H15456   1.959  11.251   1.311  0.8981 -0.6246 -0.1535
  875MOL0     H15457   2.020  11.267   1.130  3.7543  2.1658 -0.4601
  875MOL0     H15458   1.923  11.502   1.144 -1.9315  0.9043 -1.1263
  875MOL0     H15459   1.795  11.381   1.151 -1.5654  1.8587  2.2918
  875MOL0     H15460   1.798  11.571   1.324  2.7692  0.7514  1.6386
  875MOL0     H15461   1.909  11.478   1.409 -1.0474  1.5685  1.0562
  875MOL0     H15462   1.519  11.229   1.380  0.8998  0.1076  1.9204
  875MOL0     H15463   1.281  11.287   1.352  2.0788 -3.8873  0.1278
  875MOL0     H15464   1.001  11.867   1.421  1.7411 -0.8053  0.1087
  875MOL0     H15465   0.762  11.899   1.422  0.2056 -0.1108 -0.4390
  875MOL0     H15466   0.564  11.919   1.353  0.5005  0.1494  2.1247
  875MOL0     H15467   0.490  11.775   1.449 -3.0073 -2.3350 -1.1880
  875MOL0     H15468   0.390  11.892   1.189  0.0311  0.5031  0.6684
  875MOL0     H15469   0.316  11.930   1.331  1.3360  1.2081 -1.7176
  875MOL0     H15470   0.358  11.633   1.229  1.2513 -0.2244  3.7550
  875MOL0     H15471   0.210  11.727   1.203 -1.4534 -1.3872  0.8934
  875MOL0     H15472   0.328  11.610   1.448 -0.0593 -1.4652 -2.3071
  875MOL0     H15473   0.221  11.741   1.470  0.9508 -2.0812  2.4952
  875MOL0     H15474   0.052  11.604   1.348 -1.2766 -0.9415  1.7116
  875MOL0     H15475   0.092  11.540   1.505 -2.3815  0.4975 -1.2604
  875MOL0     H15476   0.232  11.418   1.267  0.9694 -0.1514  1.3606
  875MOL0     H15477   0.087  11.353   1.324 -2.1412  1.9572 -0.2497
  875MOL0     H15478   0.365  11.387   1.484  1.3293 -1.9564  0.8107
  875MOL0     H15479   0.224  11.327   1.558  1.2863 -2.8112 -0.2629
  875MOL0     H15480   0.358  11.139   1.491 -0.6997 -3.4645 -0.7205
  875MOL0     H15481   0.355  11.181   1.323  1.3560 -0.4637  0.5430
  875MOL0     H15482   0.700  11.548   1.185 -1.4233  1.8420 -0.8416
  875MOL0     H15483   0.941  11.513   1.184 -4.0391 -0.5376 -0.1908
  875MOL0     H15484   1.400  11.702   1.416 -3.8435 -0.4697 -1.3158
  875MOL0     H15485   1.621  11.640   1.424  1.0767  0.0314 -1.6374
  875MOL0     H15486   3.093  10.952   2.163  2.2111  0.4916 -0.1323
  875MOL0     H15487   3.316  10.843   2.098 -0.2236  0.3484 -0.8635
  875MOL0     H15488   3.559  10.483   2.085  0.8746 -0.4078 -0.1413
  875MOL0     H15489   3.712  10.305   2.098 -0.4644  1.3836  0.0957
  875MOL0     H15490   3.893  10.226   1.858  1.4558 -0.8175 -1.7119
  875MOL0     H15491   3.833  10.096   1.755  1.7089  1.2950 -0.5954
  875MOL0     H15492   3.983  10.049   2.007 -1.0472 -0.1116  0.2504
  875MOL0     H15493   3.917   9.939   1.886 -2.9652  1.4879 -0.8276
  875MOL0     H15494   4.095  10.030   1.711  0.9639 -2.8197  0.0149
  875MOL0     H15495   4.154   9.932   1.832  1.9335 -0.2735  0.4869
  875MOL0     H15496   4.170  10.248   1.850  2.0779  0.7478 -0.8897
  875MOL0     H15497   4.210  10.149   1.989 -1.4219  0.5249  0.2896
  875MOL0     H15498   4.534  10.077   1.747 -1.6333 -0.1739 -0.7609
  875MOL0     H15499   3.581  10.128   1.742  1.7244  0.1657  0.4389
  875MOL0     H15500   3.416  10.320   1.707 -2.7521  0.3772  1.5278
  876MOL0     O15501   1.793   6.048   0.667 -0.2635 -0.5342 -0.0307
  876MOL0     C15502   1.728   5.945   0.692 -0.4764 -0.2693  0.1047
  876MOL0     O15503   1.650   5.881   0.610 -0.5190 -1.4397 -0.7624
  876MOL0     C15504   1.674   5.888   0.473  0.2258 -0.9278  0.0326
  876MOL0     C15505   1.598   5.969   0.385  0.5323 -0.2804 -1.2059
  876MOL0     C15506   1.645   5.992   0.249 -0.1070 -0.4897  0.0232
  876MOL0     C15507   1.763   5.929   0.204 -0.4563 -0.8646  0.8418
  876MOL0     O15508   1.826   5.937   0.081 -0.0474 -1.2246 -0.2147
  876MOL0     C15509   1.793   6.055   0.009  0.3255  0.8018  0.3272
  876MOL0     C15510   1.899   6.100  -0.085 -1.2819  0.1503 -0.6381
  876MOL0     C15511   2.046   6.091  -0.020 -0.7231 -0.0762  0.2003
  876MOL0     C15512   2.152   6.057  -0.133 -0.3205  0.8167 -0.0710
  876MOL0     C15513   2.292   6.066  -0.084 -0.8546  0.1392 -0.0657
  876MOL0     C15514   2.338   6.212  -0.051 -1.0015 -0.7268 -0.1469
  876MOL0     C15515   2.482   6.232   0.002  0.6043 -0.4105  0.5315
  876MOL0     C15516   2.581   6.217  -0.113 -0.3662 -0.1436  0.0761
  876MOL0     N15517   2.724   6.241  -0.075 -0.1827 -0.3197  0.3877
  876MOL0     C15518   2.808   6.162  -0.011 -0.2309  0.0997 -0.1838
  876MOL0     C15519   2.921   6.231   0.017  0.6199 -0.1055  0.4342
  876MOL0     C15520   3.035   6.161   0.076  0.0521  0.9049  0.3680
  876MOL0     C15521   3.071   6.032   0.009  0.4113  0.2334 -0.9941
  876MOL0     C15522   3.206   5.966   0.055  0.3106 -0.8155 -0.4887
  876MOL0     C15523   3.257   5.874  -0.058  0.5245  0.1211 -0.7200
  876MOL0     O15524   3.198   5.748  -0.050  0.5628 -0.0757 -0.3503
  876MOL0     C15525   3.222   5.660  -0.151  0.1609 -0.4880 -0.2766
  876MOL0     C15526   3.332   5.660  -0.244 -0.6614 -0.1668  0.1913
  876MOL0     C15527   3.362   5.554  -0.329  0.7547 -0.7494  0.0950
  876MOL0     C15528   3.273   5.447  -0.332 -0.5946  0.4106 -0.1278
  876MOL0     C15529   3.319   5.326  -0.407 -0.3479 -0.1762 -0.0459
  876MOL0     O15530   3.235   5.220  -0.399 -0.1520  0.4218  0.7712
  876MOL0     C15531   3.270   5.116  -0.472  0.0934  0.1879  0.5934
  876MOL0     C15532   3.215   5.094  -0.597 -0.6646  0.0534  1.0369
  876MOL0     C15533   3.252   4.981  -0.679 -0.3944 -0.7180 -0.3774
  876MOL0     C15534   3.338   4.891  -0.629 -0.3252 -0.2936 -0.6173
  876MOL0     O15535   3.361   4.786  -0.712  0.6934  1.0627 -0.1538
  876MOL0     C15536   3.489   4.723  -0.712  0.5215 -0.3685 -0.8154
  876MOL0     C15537   3.482   4.604  -0.808  1.2258 -0.1922 -0.8935
  876MOL0     C15538   3.609   4.534  -0.835 -1.1688  0.1479 -0.1266
  876MOL0     C15539   3.565   4.419  -0.922 -0.1952 -0.0732  0.2581
  876MOL0     C15540   3.693   4.367  -0.986  0.8757 -0.0198 -0.0774
  876MOL0     C15541   3.663   4.295  -1.120 -1.0823 -0.7875  0.5643
  876MOL0     C15542   3.777   4.215  -1.192  0.7355 -0.1115  0.1284
  876MOL0     C15543   3.768   4.249  -1.333  0.2244  0.5373 -0.3410
  876MOL0    Cl15544   3.856   4.113  -1.415 -0.0390  0.3248  0.1299
  876MOL0     C15545   3.393   4.907  -0.496 -0.0554 -0.2846  0.7315
  876MOL0     C15546   3.349   5.021  -0.421 -0.7401  1.0002 -0.2788
  876MOL0     O15547   3.427   5.334  -0.477 -0.0850 -0.4967  0.2555
  876MOL0     C15548   3.165   5.446  -0.250  0.0109  0.0091  0.0761
  876MOL0     C15549   3.137   5.549  -0.166  0.2733  0.0386 -0.3159
  876MOL0     N15550   2.902   6.359  -0.027 -0.1889 -1.0957 -0.3691
  876MOL0     N15551   2.776   6.369  -0.075  0.0092 -0.0137 -0.1072
  876MOL0     C15552   1.825   5.843   0.295  0.0073  0.2879  0.5237
  876MOL0     C15553   1.787   5.826   0.426 -0.4913 -0.4934 -1.1534
  876MOL0     C15554   1.746   5.901   0.834 -0.1687  0.4482  0.0890
  876MOL0     C15555   1.673   5.783   0.875 -0.4864 -0.7313 -0.6925
  876MOL0     C15556   1.668   5.737   1.006  0.7771 -1.0810 -0.3345
  876MOL0     C15557   1.732   5.820   1.107 -0.7985  0.3600 -0.2831
  876MOL0     O15558   1.726   5.768   1.232  0.2440 -0.4133  0.7185
  876MOL0     C15559   1.816   5.831   1.327  0.7420 -0.0798 -0.2282
  876MOL0     C15560   1.824   5.732   1.448  0.1166 -1.2522  0.0382
  876MOL0     C15561   1.907   5.609   1.419 -1.0851  0.6440 -0.1210
  876MOL0     C15562   1.915   5.537   1.558 -0.1285 -0.4434 -0.3179
  876MOL0     C15563   1.987   5.413   1.525  0.0676 -0.4213  0.4564
  876MOL0     C15564   2.052   5.310   1.514  0.0170  0.0411 -0.0135
  876MOL0     C15565   1.799   5.936   1.068  0.1074 -0.0745  0.2372
  876MOL0     C15566   1.801   5.978   0.933  0.1797  1.0095  1.1367
  876MOL0     H15567   1.503   6.013   0.413  1.6114  0.4444  1.7469
  876MOL0     H15568   1.586   6.055   0.184 -1.4177 -0.8173  0.8553
  876MOL0     H15569   1.768   6.136   0.078 -1.9908 -0.5787  1.2242
  876MOL0     H15570   1.697   6.044  -0.043 -1.0581  0.6664  2.7651
  876MOL0     H15571   1.886   6.207  -0.107 -0.8694  0.1803 -0.7228
  876MOL0     H15572   1.900   6.039  -0.175 -0.3873  2.6057 -2.3931
  876MOL0     H15573   2.051   6.006   0.049 -2.9387 -1.8947 -1.7167
  876MOL0     H15574   2.065   6.185   0.032 -0.6501 -1.0408  2.0182
  876MOL0     H15575   2.131   5.961  -0.180 -0.3640  2.3022 -3.3203
  876MOL0     H15576   2.145   6.122  -0.221  0.7772 -2.2781 -2.6478
  876MOL0     H15577   2.359   6.035  -0.164  1.0154 -0.9491  1.8007
  876MOL0     H15578   2.311   6.002   0.003 -1.6458 -1.5906 -1.1193
  876MOL0     H15579   2.265   6.259   0.015 -0.7970 -1.6256  0.7466
  876MOL0     H15580   2.340   6.271  -0.143  0.1447  2.7816  1.9273
  876MOL0     H15581   2.487   6.333   0.043  0.1740 -0.6681  1.2227
  876MOL0     H15582   2.505   6.160   0.081 -0.6674 -0.6103  0.7310
  876MOL0     H15583   2.555   6.292  -0.187 -3.3161 -2.0355 -0.9612
  876MOL0     H15584   2.582   6.118  -0.159 -1.2881 -0.6573  1.1323
  876MOL0     H15585   2.800   6.056   0.008  0.1975  0.3188  1.3552
  876MOL0     H15586   3.023   6.156   0.184  2.6072  2.0640  0.7639
  876MOL0     H15587   3.122   6.224   0.057  0.6117  0.3422  1.0568
  876MOL0     H15588   3.068   6.045  -0.099  0.1898 -1.5154 -1.2398
  876MOL0     H15589   3.006   5.948   0.034  0.9450 -0.4534 -1.8445
  876MOL0     H15590   3.280   6.046   0.068 -0.0843 -0.7042  1.3609
  876MOL0     H15591   3.203   5.920   0.154 -1.5696  0.3903  0.0495
  876MOL0     H15592   3.364   5.853  -0.051  0.7214  0.0593 -3.0966
  876MOL0     H15593   3.246   5.927  -0.154 -1.3456  1.4901  0.1836
  876MOL0     H15594   3.411   5.735  -0.236 -0.4083 -0.1580 -1.7936
  876MOL0     H15595   3.460   5.555  -0.376  1.0999 -2.8941  0.6600
  876MOL0     H15596   3.165   5.182  -0.637 -0.8303 -1.1762 -1.6914
  876MOL0     H15597   3.207   4.956  -0.774 -0.8375  0.4279 -0.4838
  876MOL0     H15598   3.538   4.692  -0.619  0.3001 -0.8792 -0.8640
  876MOL0     H15599   3.562   4.795  -0.750  1.8395 -1.6234 -0.7415
  876MOL0     H15600   3.448   4.636  -0.907 -3.4217  2.1145  1.1352
  876MOL0     H15601   3.404   4.539  -0.766  1.5002  0.7967  1.2894
  876MOL0     H15602   3.668   4.507  -0.747  1.8816  0.1991 -2.0197
  876MOL0     H15603   3.677   4.596  -0.893  2.6663 -0.7913  2.9749
  876MOL0     H15604   3.532   4.341  -0.853  0.5196  0.6211  1.4079
  876MOL0     H15605   3.488   4.445  -0.995 -0.0177  1.4415  0.5844
  876MOL0     H15606   3.739   4.289  -0.926  0.7055  1.5193  2.1587
  876MOL0     H15607   3.761   4.452  -1.002  1.5491 -0.9488 -2.6762
  876MOL0     H15608   3.619   4.378  -1.176 -1.7318 -0.2754  1.7906
  876MOL0     H15609   3.587   4.218  -1.105 -0.0315 -1.7131  1.3547
  876MOL0     H15610   3.870   4.240  -1.139 -0.0118 -1.5938  2.2464
  876MOL0     H15611   3.766   4.107  -1.181  3.6295 -0.7119 -1.7876
  876MOL0     H15612   3.820   4.343  -1.355  2.1994 -0.8148 -1.6879
  876MOL0     H15613   3.664   4.245  -1.365 -0.8892 -1.8263  3.0438
  876MOL0     H15614   3.464   4.831  -0.465  1.4254  0.4307 -0.7043
  876MOL0     H15615   3.391   5.037  -0.322  2.6214  1.1464 -1.6165
  876MOL0     H15616   3.104   5.357  -0.237  1.8659 -0.9177  3.5927
  876MOL0     H15617   3.047   5.530  -0.109 -0.0169  1.6563 -0.1956
  876MOL0     H15618   1.917   5.796   0.262 -0.8192 -0.0186 -1.5359
  876MOL0     H15619   1.844   5.756   0.486  0.3469  0.7671 -0.4460
  876MOL0     H15620   1.620   5.723   0.802 -2.0863 -0.4798  0.2301
  876MOL0     H15621   1.614   5.646   1.030  0.5714 -1.8580 -3.3637
  876MOL0     H15622   1.784   5.931   1.358 -2.6703 -1.5111  1.4253
  876MOL0     H15623   1.914   5.838   1.280  1.4335 -0.5114  1.0930
  876MOL0     H15624   1.871   5.786   1.531 -1.4484  0.9092 -0.3839
  876MOL0     H15625   1.725   5.708   1.487 -0.8315  0.7938 -0.9310
  876MOL0     H15626   2.010   5.634   1.390 -0.2547  0.0093  2.0753
  876MOL0     H15627   1.865   5.549   1.338 -4.7090  3.1007 -0.2890
  876MOL0     H15628   1.971   5.588   1.636  1.4795 -3.6429  0.8057
  876MOL0     H15629   1.820   5.510   1.605 -0.8556  1.8149 -0.3843
  876MOL0     H15630   2.112   5.222   1.503  3.0560  1.7131  1.8407
  876MOL0     H15631   1.849   5.993   1.146 -1.7708 -0.2643  1.6538
  876MOL0     H15632   1.859   6.064   0.902  2.3318 -0.9117 -0.6034
  877MOL0     O15633   8.567   4.362   8.166  0.1132 -0.4047 -0.1888
  877MOL0     C15634   8.606   4.462   8.228 -0.1021  0.5397 -0.1258
  877MOL0     O15635   8.536   4.567   8.284 -0.4116 -0.1108  0.2249
  877MOL0     C15636   8.412   4.599   8.237  0.4817 -0.3647  1.0585
  877MOL0     C15637   8.390   4.710   8.154  0.3237  0.3454  1.2423
  877MOL0     C15638   8.263   4.762   8.127  0.5386  0.0502  0.2908
  877MOL0     C15639   8.153   4.688   8.178  0.6418 -0.8434  0.3989
  877MOL0     O15640   8.018   4.707   8.174  0.1324  0.0994  0.1537
  877MOL0     C15641   7.973   4.831   8.121  1.1503  0.0049 -0.7984
  877MOL0     C15642   7.823   4.836   8.081  0.3302  0.5881 -0.0757
  877MOL0     C15643   7.721   4.780   8.183 -0.6688  0.1404 -0.3021
  877MOL0     C15644   7.576   4.774   8.137  0.2013  0.3771 -0.6222
  877MOL0     C15645   7.475   4.760   8.244  0.2897 -0.3039 -0.0489
  877MOL0     C15646   7.334   4.770   8.186 -0.2910 -0.1409 -0.2254
  877MOL0     C15647   7.292   4.665   8.086 -1.1790  0.4387 -0.9534
  877MOL0     C15648   7.155   4.682   8.035 -0.9633 -0.6694 -0.2088
  877MOL0     N15649   7.054   4.669   8.141  0.5197  0.3144 -0.5735
  877MOL0     C15650   7.029   4.554   8.203  0.4843  0.2547  0.0225
  877MOL0     C15651   6.935   4.582   8.305 -0.2829 -1.1863 -0.5700
  877MOL0     C15652   6.878   4.487   8.412  0.3320  0.4054  0.0734
  877MOL0     C15653   6.773   4.551   8.507  0.4959  0.0808  0.2140
  877MOL0     C15654   6.682   4.433   8.539  0.3135  0.3057 -0.4931
  877MOL0     C15655   6.564   4.471   8.631 -0.0820  0.4590 -0.2002
  877MOL0     O15656   6.469   4.369   8.639 -0.0940  0.2921 -0.0648
  877MOL0     C15657   6.338   4.393   8.688  0.6170 -0.3484  0.4737
  877MOL0     C15658   6.303   4.499   8.763 -0.2515 -0.4437  0.1937
  877MOL0     C15659   6.169   4.507   8.798  0.5349  0.9423 -0.1575
  877MOL0     C15660   6.076   4.400   8.784 -0.4714 -0.6627  0.2950
  877MOL0     C15661   5.946   4.400   8.847 -0.9919  0.1154 -0.5680
  877MOL0     O15662   5.863   4.294   8.820 -0.2120 -0.7297  0.5774
  877MOL0     C15663   5.738   4.280   8.867 -0.0834  0.5501  0.5968
  877MOL0     C15664   5.639   4.387   8.876  0.1839  0.3676  0.3076
  877MOL0     C15665   5.510   4.356   8.910  0.4273 -0.1699 -0.1509
  877MOL0     C15666   5.474   4.228   8.940  0.1171 -0.5491  0.0688
  877MOL0     O15667   5.351   4.210   8.985  0.3696  0.0158  0.2796
  877MOL0     C15668   5.344   4.156   9.119  0.6371  0.0597  0.7714
  877MOL0     C15669   5.361   4.264   9.223 -0.0995 -0.0623 -1.0164
  877MOL0     C15670   5.336   4.218   9.367 -0.5305  0.4083 -0.0690
  877MOL0     C15671   5.187   4.178   9.394  0.5527 -0.8469 -1.6351
  877MOL0     C15672   5.143   4.198   9.540  0.1451  0.0916 -0.6153
  877MOL0     C15673   5.129   4.344   9.572  0.7579 -0.3664  0.2356
  877MOL0     C15674   4.983   4.389   9.613  0.2267  0.1104  0.4119
  877MOL0     C15675   4.872   4.392   9.500 -0.1123 -0.7867 -1.3460
  877MOL0    Cl15676   4.711   4.408   9.583  0.4985 -0.3550  0.3820
  877MOL0     C15677   5.572   4.127   8.938  1.1075 -0.0702  0.1117
  877MOL0     C15678   5.702   4.156   8.905  0.2215 -0.2670 -0.1915
  877MOL0     O15679   5.929   4.487   8.930 -0.1357  0.5513 -0.6659
  877MOL0     C15680   6.118   4.283   8.718 -0.5630 -0.3939 -0.5659
  877MOL0     C15681   6.249   4.293   8.661 -0.6883  1.3558  0.0086
  877MOL0     N15682   6.930   4.723   8.308  0.2886 -0.4537 -0.7573
  877MOL0     N15683   6.989   4.774   8.201  0.2685 -0.3798 -0.7406
  877MOL0     C15684   8.181   4.568   8.241  0.3936 -0.8028 -0.7728
  877MOL0     C15685   8.303   4.523   8.276 -0.5318 -0.0968  0.1506
  877MOL0     C15686   8.753   4.467   8.254 -0.0766  0.0473  0.5413
  877MOL0     C15687   8.837   4.422   8.152 -0.1896  0.8846 -0.7842
  877MOL0     C15688   8.970   4.448   8.173  0.2645 -0.1271  0.1202
  877MOL0     C15689   9.033   4.517   8.274 -0.0415  0.8876  0.2126
  877MOL0     O15690   9.166   4.543   8.270 -0.6422  0.6174  0.1279
  877MOL0     C15691   9.243   4.419   8.255 -0.0521  0.6617 -0.2820
  877MOL0     C15692   9.322   4.423   8.131  0.2649 -0.9407 -0.1340
  877MOL0     C15693   9.438   4.525   8.131  0.4148  0.0231  0.3924
  877MOL0     C15694   9.533   4.506   8.008 -0.7328  0.0913 -0.1000
  877MOL0     C15695   9.523   4.615   7.903  0.2210  0.0538 -0.8052
  877MOL0     C15696   9.532   4.691   7.817 -0.3440 -0.0052 -0.6446
  877MOL0     C15697   8.949   4.550   8.380 -0.0972  0.2077  0.5896
  877MOL0     C15698   8.810   4.524   8.372  0.2661 -0.5627 -1.1725
  877MOL0     H15699   8.469   4.767   8.106 -1.1687 -0.5675 -2.6307
  877MOL0     H15700   8.255   4.857   8.074 -0.5266  1.2630  2.4652
  877MOL0     H15701   8.030   4.853   8.030  3.8386  1.1181  1.0418
  877MOL0     H15702   7.988   4.908   8.197 -1.2021 -3.2226  3.4150
  877MOL0     H15703   7.800   4.780   7.991 -1.3728  1.0647  0.0144
  877MOL0     H15704   7.811   4.940   8.049  0.3502  1.3274  2.1497
  877MOL0     H15705   7.719   4.826   8.282 -1.3812 -3.1172  1.3370
  877MOL0     H15706   7.752   4.677   8.203 -1.8292  0.1252  1.6781
  877MOL0     H15707   7.551   4.858   8.071  2.4237 -0.0320 -2.1262
  877MOL0     H15708   7.585   4.688   8.070 -1.6305 -3.0344  3.0968
  877MOL0     H15709   7.477   4.843   8.314 -2.7737  0.1312 -0.3390
  877MOL0     H15710   7.472   4.667   8.300 -1.5587 -0.0957  0.2410
  877MOL0     H15711   7.341   4.865   8.133  2.0890  0.4409  0.9885
  877MOL0     H15712   7.263   4.799   8.263  1.5136  0.9115  1.1163
  877MOL0     H15713   7.360   4.650   8.002  0.3343 -1.6845  0.5392
  877MOL0     H15714   7.298   4.567   8.134  1.5010  0.0120 -2.0005
  877MOL0     H15715   7.133   4.620   7.947  2.8816  0.5995 -2.3013
  877MOL0     H15716   7.151   4.784   7.997  0.6138 -0.3076  0.5455
  877MOL0     H15717   7.080   4.464   8.170  1.4758  0.5115  0.7816
  877MOL0     H15718   6.968   4.468   8.472  0.6139  0.0565 -0.4514
  877MOL0     H15719   6.855   4.393   8.361 -1.3169  2.8113 -4.1924
  877MOL0     H15720   6.720   4.629   8.451 -0.6635  1.1535  2.6970
  877MOL0     H15721   6.821   4.595   8.595  3.8350 -1.2890 -0.7596
  877MOL0     H15722   6.637   4.390   8.449 -0.3883  2.8086 -1.4332
  877MOL0     H15723   6.735   4.353   8.591 -0.1718  0.1778 -0.1955
  877MOL0     H15724   6.512   4.559   8.593 -1.8207  0.1193  1.2329
  877MOL0     H15725   6.603   4.500   8.729 -2.6005  0.4893  0.8882
  877MOL0     H15726   6.374   4.578   8.786  2.8414 -2.8290 -0.5169
  877MOL0     H15727   6.145   4.600   8.849  0.5613  0.5830  0.5168
  877MOL0     H15728   5.665   4.490   8.851  0.4393 -0.6685 -4.5806
  877MOL0     H15729   5.425   4.424   8.913 -0.3036 -1.0700 -0.0346
  877MOL0     H15730   5.407   4.069   9.138 -1.3388 -1.0514  2.5755
  877MOL0     H15731   5.239   4.129   9.127  0.9463 -1.0411  1.2829
  877MOL0     H15732   5.304   4.352   9.191  1.5640  1.2120 -0.5827
  877MOL0     H15733   5.467   4.291   9.220  0.4299 -1.1139  2.6651
  877MOL0     H15734   5.361   4.301   9.433  0.0808 -2.1017  3.1072
  877MOL0     H15735   5.406   4.136   9.389 -0.6199  0.3948  0.1626
  877MOL0     H15736   5.120   4.226   9.322 -0.7086 -2.6548 -1.7344
  877MOL0     H15737   5.183   4.069   9.383 -0.4181 -0.9692 -0.2410
  877MOL0     H15738   5.224   4.157   9.601 -0.8590  1.4303  1.7300
  877MOL0     H15739   5.051   4.144   9.561 -1.8515  3.0502 -1.1754
  877MOL0     H15740   5.169   4.404   9.491  1.0434  0.7072  1.1419
  877MOL0     H15741   5.188   4.359   9.663  3.6262 -1.7625 -1.2516
  877MOL0     H15742   4.944   4.319   9.687 -2.8702  2.0477  0.8016
  877MOL0     H15743   4.985   4.487   9.661  2.6361 -1.1225  3.1529
  877MOL0     H15744   4.868   4.291   9.457 -0.3453 -2.4159  2.0869
  877MOL0     H15745   4.888   4.474   9.431  1.0705  0.0901 -0.0864
  877MOL0     H15746   5.538   4.027   8.962  0.1972  0.2645  0.2274
  877MOL0     H15747   5.777   4.078   8.915  0.1768 -0.7615 -2.9327
  877MOL0     H15748   6.063   4.189   8.710 -0.8089 -0.3106  0.0754
  877MOL0     H15749   6.291   4.205   8.614  3.3170  0.6696  4.2112
  877MOL0     H15750   8.095   4.509   8.274  0.0670 -0.5518 -1.1783
  877MOL0     H15751   8.319   4.436   8.339 -1.0915 -0.2709  0.0529
  877MOL0     H15752   8.796   4.362   8.071  1.1013 -1.3282  0.1316
  877MOL0     H15753   9.033   4.410   8.093  2.7197 -0.4644  2.0846
  877MOL0     H15754   9.176   4.333   8.258  2.8032 -1.7252 -0.4333
  877MOL0     H15755   9.316   4.405   8.335 -0.9550 -0.0575  0.4367
  877MOL0     H15756   9.363   4.323   8.116  4.0246 -0.2398  3.5310
  877MOL0     H15757   9.253   4.445   8.049 -2.5705 -2.0895  1.7994
  877MOL0     H15758   9.505   4.518   8.218  0.6866  2.4946  0.4593
  877MOL0     H15759   9.410   4.631   8.129  3.0763  0.7836 -1.5902
  877MOL0     H15760   9.634   4.515   8.048 -0.0972  2.1293 -1.9770
  877MOL0     H15761   9.521   4.404   7.969 -1.6376  0.6154 -1.2563
  877MOL0     H15762   9.560   4.758   7.738  1.9206  0.0617  0.1428
  877MOL0     H15763   8.970   4.617   8.463 -0.5508  1.9547 -0.6526
  877MOL0     H15764   8.744   4.554   8.452  0.3440  1.9442 -1.9671
  878MOL0     O15765   8.439  10.433   8.177 -0.0814 -0.4412  0.4119
  878MOL0     C15766   8.450  10.556   8.177 -0.5535 -0.0214  0.3922
  878MOL0     O15767   8.368  10.653   8.133  0.2583 -0.0629 -0.5043
  878MOL0     C15768   8.241  10.644   8.089  0.5550  0.6205 -0.4999
  878MOL0     C15769   8.182  10.759   8.040 -0.5886  0.2258  0.4400
  878MOL0     C15770   8.050  10.761   7.982 -0.2199 -0.6533 -1.3287
  878MOL0     C15771   7.978  10.648   7.989 -0.7527 -0.2631 -0.8655
  878MOL0     O15772   7.843  10.641   7.946 -0.5964 -0.3698 -0.3593
  878MOL0     C15773   7.784  10.754   7.874  0.7271 -1.0150  1.3485
  878MOL0     C15774   7.663  10.712   7.794 -0.1778  0.1901 -0.3533
  878MOL0     C15775   7.546  10.676   7.881  1.3157  0.1580 -1.0039
  878MOL0     C15776   7.464  10.797   7.926  0.3341  0.2042  0.4717
  878MOL0     C15777   7.318  10.765   7.929 -0.1670  0.7119 -0.2599
  878MOL0     C15778   7.291  10.700   8.066 -0.3516 -0.1501  0.2600
  878MOL0     C15779   7.160  10.614   8.056 -1.0853 -0.5609 -1.0674
  878MOL0     C15780   7.128  10.570   8.199 -0.3138  0.1743  0.5321
  878MOL0     N15781   7.004  10.487   8.199  1.1704  0.0719 -0.6342
  878MOL0     C15782   6.876  10.545   8.177 -0.2763  0.7028  0.7141
  878MOL0     C15783   6.796  10.437   8.182  0.9862  0.2321  0.5284
  878MOL0     C15784   6.647  10.452   8.182  0.1791 -0.2114 -0.0758
  878MOL0     C15785   6.591  10.350   8.074 -0.5849 -0.2406 -0.3038
  878MOL0     C15786   6.454  10.385   8.027  0.1387  1.2034 -0.3024
  878MOL0     C15787   6.342  10.369   8.136 -0.7076  0.6447  0.9528
  878MOL0     O15788   6.224  10.344   8.065 -0.0764  0.0703  0.2384
  878MOL0     C15789   6.145  10.452   8.035  0.9419 -0.0478 -0.9211
  878MOL0     C15790   6.192  10.584   8.026  0.5418  0.2669  0.0083
  878MOL0     C15791   6.101  10.689   7.996  0.4339  0.6691 -0.7428
  878MOL0     C15792   5.964  10.666   7.998  1.2055 -0.3105  0.8632
  878MOL0     C15793   5.874  10.784   7.983  0.3423 -0.1431  0.3844
  878MOL0     O15794   5.934  10.898   7.949  0.2588 -0.4976 -0.0180
  878MOL0     C15795   5.859  11.017   7.938 -0.6859  0.2786 -0.3418
  878MOL0     C15796   5.879  11.085   7.817 -0.2941  0.1683  0.5346
  878MOL0     C15797   5.824  11.213   7.803 -0.2289 -0.6806 -0.4305
  878MOL0     C15798   5.745  11.269   7.906 -0.7994  0.9623 -0.3630
  878MOL0     O15799   5.695  11.384   7.869 -0.4525 -0.2348 -0.3252
  878MOL0     C15800   5.589  11.438   7.948 -1.0791  0.5979  0.5767
  878MOL0     C15801   5.542  11.565   7.882  0.2326 -1.0298 -0.5979
  878MOL0     C15802   5.444  11.641   7.974  0.4691 -0.3368 -0.2014
  878MOL0     C15803   5.498  11.717   8.095 -0.2992 -0.3137 -0.2006
  878MOL0     C15804   5.416  11.843   8.118 -0.4971 -0.3352  0.5277
  878MOL0     C15805   5.269  11.826   8.136 -0.0198  0.2096  0.4988
  878MOL0     C15806   5.189  11.959   8.129 -0.7569 -0.3596  0.0713
  878MOL0     C15807   5.032  11.961   8.146 -0.4523  0.9524 -0.6203
  878MOL0    Cl15808   4.973  12.109   8.101  0.0140  0.1102  0.1165
  878MOL0     C15809   5.702  11.187   8.013 -0.5254 -0.6388 -0.7985
  878MOL0     C15810   5.766  11.060   8.034  0.1767  0.3629 -0.0642
  878MOL0     O15811   5.754  10.764   7.985  0.1123  0.0051 -0.9174
  878MOL0     C15812   5.917  10.527   7.991  0.7869 -0.4163 -0.5567
  878MOL0     C15813   6.009  10.425   8.016 -0.2385 -0.7320  1.5568
  878MOL0     N15814   6.861  10.319   8.211 -1.0870 -0.1653 -0.1452
  878MOL0     N15815   6.989  10.353   8.211  0.7722  0.0575 -0.2844
  878MOL0     C15816   8.032  10.526   8.043 -0.5274  0.5941  0.8521
  878MOL0     C15817   8.160  10.525   8.088 -0.6563 -0.6375  0.4409
  878MOL0     C15818   8.566  10.608   8.240 -0.9003  0.0234 -0.2815
  878MOL0     C15819   8.566  10.743   8.292 -0.0282 -0.6246  0.2172
  878MOL0     C15820   8.684  10.800   8.351 -0.1099  0.4136 -0.7583
  878MOL0     C15821   8.791  10.716   8.362 -0.2093  0.1630 -0.1387
  878MOL0     O15822   8.902  10.761   8.438 -0.5802 -0.2094  0.6413
  878MOL0     C15823   9.035  10.700   8.426  0.3400  0.8944  0.2436
  878MOL0     C15824   9.135  10.777   8.518 -0.3350  0.0176 -0.0886
  878MOL0     C15825   9.271  10.704   8.527 -0.0997  0.8082  0.5787
  878MOL0     C15826   9.372  10.735   8.422 -0.9155 -0.9033 -0.0374
  878MOL0     C15827   9.413  10.878   8.412  0.5597 -0.1655 -0.0759
  878MOL0     C15828   9.437  11.004   8.420 -1.1086  0.3070  0.0913
  878MOL0     C15829   8.800  10.582   8.305 -0.2597  0.0399 -1.1278
  878MOL0     C15830   8.680  10.529   8.240 -0.1140  0.3070  0.4794
  878MOL0     H15831   8.265  10.829   8.045  0.1397 -0.7111  1.9742
  878MOL0     H15832   8.016  10.853   7.936 -0.6632 -0.4672 -0.6362
  878MOL0     H15833   7.846  10.804   7.799 -2.6165  0.8066 -0.4209
  878MOL0     H15834   7.749  10.835   7.939  1.4047 -0.8094  1.4717
  878MOL0     H15835   7.691  10.632   7.724 -1.4535  2.9453 -4.4100
  878MOL0     H15836   7.638  10.796   7.729  2.3355  2.4876  1.3883
  878MOL0     H15837   7.560  10.607   7.965 -1.4949 -1.9625 -2.1020
  878MOL0     H15838   7.484  10.616   7.814  3.3383 -3.2040 -0.0790
  878MOL0     H15839   7.498  10.839   8.021  3.5731 -3.5636  1.2306
  878MOL0     H15840   7.473  10.881   7.856 -0.3368  1.9477  2.3900
  878MOL0     H15841   7.279  10.695   7.854 -2.3288  2.3053 -0.7157
  878MOL0     H15842   7.248  10.848   7.916 -2.6746 -1.0398  1.2730
  878MOL0     H15843   7.271  10.780   8.138  3.6166  0.8182  0.5280
  878MOL0     H15844   7.370  10.636   8.106  0.2944  1.6912  2.1614
  878MOL0     H15845   7.070  10.671   8.032 -0.4078  1.4840  0.9736
  878MOL0     H15846   7.163  10.538   7.977 -1.1114 -1.6444 -0.0607
  878MOL0     H15847   7.116  10.654   8.268 -3.1529  1.0054 -0.8253
  878MOL0     H15848   7.210  10.511   8.240 -0.2026  0.3349  0.5419
  878MOL0     H15849   6.855  10.651   8.161 -0.1869  0.6056 -0.1047
  878MOL0     H15850   6.612  10.553   8.159 -2.7429 -0.9644  0.5697
  878MOL0     H15851   6.621  10.445   8.288 -0.1697  1.5378 -0.0204
  878MOL0     H15852   6.597  10.247   8.111 -0.4388  0.4377  1.6692
  878MOL0     H15853   6.648  10.351   7.980 -0.3805 -1.1337 -0.1961
  878MOL0     H15854   6.453  10.485   7.984 -2.9751  0.3297 -2.5982
  878MOL0     H15855   6.440  10.318   7.942  1.0449  0.1656  0.3279
  878MOL0     H15856   6.316  10.452   8.202  0.3959 -0.6497  3.1322
  878MOL0     H15857   6.366  10.283   8.199 -0.0823  0.5915  0.6509
  878MOL0     H15858   6.296  10.612   8.036  1.0540  0.8863 -4.8034
  878MOL0     H15859   6.133  10.792   7.992 -2.7585  1.7856 -0.5533
  878MOL0     H15860   5.958  11.046   7.754 -0.6103  2.4719 -1.4420
  878MOL0     H15861   5.832  11.263   7.706  0.0896 -1.1314 -0.6425
  878MOL0     H15862   5.619  11.474   8.047 -0.0071  4.3579 -0.9359
  878MOL0     H15863   5.514  11.359   7.955 -3.0934  2.4760  1.1943
  878MOL0     H15864   5.485  11.537   7.793 -2.1095 -1.3063  0.8818
  878MOL0     H15865   5.626  11.632   7.863 -0.6615  0.2720 -0.1478
  878MOL0     H15866   5.361  11.576   8.004  1.3126 -0.1295  2.8550
  878MOL0     H15867   5.381  11.706   7.913 -3.3394 -2.1690  1.4455
  878MOL0     H15868   5.488  11.650   8.181 -0.3157 -1.8785 -1.3900
  878MOL0     H15869   5.603  11.743   8.084 -0.0185 -0.9215  0.9398
  878MOL0     H15870   5.443  11.914   8.039  1.3742  0.5145  1.8430
  878MOL0     H15871   5.462  11.889   8.206  5.0439 -1.5779 -1.2732
  878MOL0     H15872   5.241  11.762   8.220 -0.0214 -1.3536 -0.6597
  878MOL0     H15873   5.230  11.771   8.050  0.1143 -2.8751  2.2604
  878MOL0     H15874   5.219  12.016   8.217  1.8648 -1.8126  0.2234
  878MOL0     H15875   5.219  12.019   8.042 -2.4691  0.6854  0.1564
  878MOL0     H15876   5.007  11.926   8.247  1.6386 -1.7198 -0.9176
  878MOL0     H15877   4.989  11.894   8.072 -1.8279  1.8376 -0.6617
  878MOL0     H15878   5.620  11.218   8.077  1.7174  1.1798  1.4084
  878MOL0     H15879   5.749  10.991   8.117  3.0817 -2.0428 -1.2616
  878MOL0     H15880   5.812  10.501   7.986  0.4045  0.5036  1.4994
  878MOL0     H15881   5.966  10.326   8.024  1.1776 -1.5424 -0.0506
  878MOL0     H15882   7.985  10.429   8.030 -1.0725  0.8616  0.8066
  878MOL0     H15883   8.202  10.434   8.128 -1.0464 -1.8403 -1.6960
  878MOL0     H15884   8.476  10.803   8.282  0.1155 -0.6288 -1.2992
  878MOL0     H15885   8.702  10.900   8.387  1.9755  0.2886 -1.2639
  878MOL0     H15886   9.065  10.696   8.321 -3.1649  0.5706 -0.8999
  878MOL0     H15887   9.035  10.594   8.455 -1.9393 -0.3100 -3.3790
  878MOL0     H15888   9.167  10.868   8.468 -0.4895  0.4792  0.6335
  878MOL0     H15889   9.093  10.799   8.617 -1.9671  0.5798 -0.8778
  878MOL0     H15890   9.250  10.596   8.525  1.2912  0.5063 -2.3956
  878MOL0     H15891   9.323  10.726   8.621  2.1119 -1.0146 -0.1243
  878MOL0     H15892   9.468  10.687   8.443  0.5586  1.2071 -1.4899
  878MOL0     H15893   9.335  10.703   8.324 -1.1614 -0.2171 -0.1762
  878MOL0     H15894   9.450  11.109   8.432 -1.4343  0.2496  0.9978
  878MOL0     H15895   8.896  10.534   8.289  0.3812  1.4867 -1.8444
  878MOL0     H15896   8.680  10.430   8.196 -0.3618  1.1511 -1.5244
  879MOL0     O15897   6.642   0.077  10.564  0.0780  0.5789  0.2659
  879MOL0     C15898   6.570  -0.028  10.565  0.6656  0.2955  0.2687
  879MOL0     O15899   6.436  -0.029  10.552  0.0398  0.0737  0.2391
  879MOL0     C15900   6.373   0.079  10.496  0.2610 -0.0614 -0.4176
  879MOL0     C15901   6.428   0.140  10.377  1.0953  0.9835 -0.0475
  879MOL0     C15902   6.374   0.255  10.323 -0.0883  0.2272 -0.2326
  879MOL0     C15903   6.256   0.307  10.373  0.2764 -0.5317  0.0466
  879MOL0     O15904   6.230   0.433  10.330  0.8659 -0.0094  0.3561
  879MOL0     C15905   6.098   0.480  10.337  0.4460  0.2362 -0.2229
  879MOL0     C15906   6.060   0.608  10.268  0.8661  0.7143  0.3758
  879MOL0     C15907   5.909   0.634  10.266 -0.2998  0.3668  0.0093
  879MOL0     C15908   5.881   0.759  10.178 -0.6846 -0.3546  0.7738
  879MOL0     C15909   5.735   0.800  10.168 -0.2908  0.6517  0.7955
  879MOL0     C15910   5.640   0.682  10.135  0.1713 -0.5433  0.6201
  879MOL0     C15911   5.651   0.635   9.984  0.3488 -0.9705  0.1196
  879MOL0     C15912   5.643   0.482   9.965  0.2976 -0.4672 -0.6499
  879MOL0     N15913   5.512   0.422   9.991  0.4407  0.1679 -0.0478
  879MOL0     C15914   5.408   0.471  10.065 -0.5861  0.9391 -1.1758
  879MOL0     C15915   5.312   0.372  10.063  0.3178 -0.6467  0.2293
  879MOL0     C15916   5.195   0.385  10.151 -0.8569  0.6786 -0.2997
  879MOL0     C15917   5.077   0.297  10.110 -0.6264 -0.0188  0.3359
  879MOL0     C15918   4.959   0.306  10.209  0.2768 -0.3591  0.5079
  879MOL0     C15919   4.837   0.209  10.181 -0.2444  0.0200 -0.9904
  879MOL0     O15920   4.729   0.220  10.271 -0.2426 -0.1812  0.4303
  879MOL0     C15921   4.608   0.164  10.242 -0.3614 -0.0101 -0.4185
  879MOL0     C15922   4.501   0.170  10.332  0.4005  0.0456  0.8659
  879MOL0     C15923   4.379   0.112  10.305 -0.1695 -0.3559 -0.2377
  879MOL0     C15924   4.344   0.048  10.189  0.0756  0.1216 -1.3987
  879MOL0     C15925   4.212  -0.016  10.171 -0.3754  0.2855  0.2493
  879MOL0     O15926   4.191  -0.055  10.052 -0.1230  0.3942  0.1524
  879MOL0     C15927   4.066  -0.070  10.002 -0.3535 -0.5074  0.6103
  879MOL0     C15928   3.965   0.032  10.003 -0.0922  0.5580 -0.0462
  879MOL0     C15929   3.843   0.007   9.933 -0.5080  0.0891  0.1660
  879MOL0     C15930   3.815  -0.116   9.868  0.3032 -0.0425 -0.5527
  879MOL0     O15931   3.686  -0.125   9.823  0.5658 -0.2488 -0.1318
  879MOL0     C15932   3.629  -0.259   9.855 -0.2354  0.7919 -0.4319
  879MOL0     C15933   3.478  -0.240   9.834 -0.1765  1.1865  0.0576
  879MOL0     C15934   3.411  -0.379   9.856 -0.1402 -0.9571 -0.2229
  879MOL0     C15935   3.262  -0.375   9.881  0.5039 -0.4449 -0.3429
  879MOL0     C15936   3.215  -0.317  10.015  0.4545 -0.4887  0.0266
  879MOL0     C15937   3.282  -0.373  10.134  0.1321  0.1927 -0.4081
  879MOL0     C15938   3.236  -0.299  10.266  1.3025 -0.1849 -0.0077
  879MOL0     C15939   3.315  -0.340  10.391  0.1259 -0.3247  0.1635
  879MOL0    Cl15940   3.232  -0.241  10.519  0.2227  0.0059 -0.5083
  879MOL0     C15941   3.918  -0.202   9.841 -0.1535 -0.0899 -0.1594
  879MOL0     C15942   4.040  -0.186   9.922  0.0298  0.1643  0.3839
  879MOL0     O15943   4.133  -0.005  10.270 -0.0964  0.1431 -0.1308
  879MOL0     C15944   4.449   0.038  10.101  0.9136 -0.3242  1.2429
  879MOL0     C15945   4.577   0.095  10.125  0.0997  0.6979  0.2004
  879MOL0     N15946   5.363   0.265   9.994 -1.0273  0.1386 -0.3782
  879MOL0     N15947   5.470   0.303   9.942 -0.9698 -0.0313 -0.7107
  879MOL0     C15948   6.191   0.245  10.481 -0.6083  0.1571 -0.9733
  879MOL0     C15949   6.261   0.141  10.544 -0.2459  0.7927  0.2672
  879MOL0     C15950   6.626  -0.155  10.614  0.9294 -0.0532 -0.5039
  879MOL0     C15951   6.746  -0.154  10.681 -0.9166  0.5022 -0.6710
  879MOL0     C15952   6.809  -0.265  10.728  0.4475  0.2433 -0.5181
  879MOL0     C15953   6.738  -0.390  10.710 -0.6154  0.2342  0.0459
  879MOL0     O15954   6.776  -0.511  10.767 -0.9911  0.6782 -0.3478
  879MOL0     C15955   6.911  -0.531  10.810 -0.7409  0.6902  0.5872
  879MOL0     C15956   6.915  -0.663  10.883  0.2159  0.6858  0.4590
  879MOL0     C15957   7.048  -0.669  10.956 -0.2763 -0.0253 -0.4841
  879MOL0     C15958   7.098  -0.805  10.976 -0.7916 -0.9920 -0.1776
  879MOL0     C15959   7.002  -0.892  11.049 -0.2386 -1.0707 -1.0766
  879MOL0     C15960   6.931  -0.962  11.124 -0.6460 -0.1556 -0.1566
  879MOL0     C15961   6.608  -0.390  10.652  0.4007 -0.1476 -0.1548
  879MOL0     C15962   6.560  -0.277  10.592  0.5649 -1.0750  0.1979
  879MOL0     H15963   6.516   0.101  10.327  3.2987  3.6363  1.4699
  879MOL0     H15964   6.412   0.307  10.236  1.0624  1.2561  0.8445
  879MOL0     H15965   6.061   0.479  10.440  1.0223  1.0695  0.0027
  879MOL0     H15966   6.038   0.402  10.289  0.5156 -0.5203  0.8721
  879MOL0     H15967   6.099   0.610  10.166  0.4502 -1.9966  0.0891
  879MOL0     H15968   6.113   0.691  10.316  5.7052 -1.7659 -0.1040
  879MOL0     H15969   5.865   0.650  10.364  2.2009 -1.3056  1.5129
  879MOL0     H15970   5.854   0.549  10.223  2.3414 -2.7441  2.2287
  879MOL0     H15971   5.937   0.847  10.210 -0.3141 -1.3230  2.9937
  879MOL0     H15972   5.908   0.737  10.074  1.0753  1.3674  0.8149
  879MOL0     H15973   5.729   0.868  10.082  0.9422 -1.3112 -0.9182
  879MOL0     H15974   5.694   0.838  10.262  0.0689 -1.0734  1.6796
  879MOL0     H15975   5.543   0.728  10.155  0.4509 -0.7161  2.5342
  879MOL0     H15976   5.640   0.604  10.211 -1.3728  0.2056  1.4349
  879MOL0     H15977   5.566   0.681   9.932  1.3297  0.9067  0.0823
  879MOL0     H15978   5.735   0.678   9.929 -0.5957  3.0424  1.4187
  879MOL0     H15979   5.707   0.434  10.040 -1.6133 -4.9045 -1.5651
  879MOL0     H15980   5.677   0.445   9.868  0.7285  2.6079 -1.7951
  879MOL0     H15981   5.414   0.558  10.130 -0.2738 -0.4598  0.7737
  879MOL0     H15982   5.158   0.487  10.162 -1.5831  0.2835  1.1498
  879MOL0     H15983   5.221   0.351  10.252 -3.5230  0.0508  0.2306
  879MOL0     H15984   5.109   0.193  10.116  0.8006  0.4483  1.1795
  879MOL0     H15985   5.039   0.318  10.009 -2.1293  2.2619  1.2881
  879MOL0     H15986   4.991   0.294  10.313  0.2062  1.0229  0.7148
  879MOL0     H15987   4.919   0.408  10.201  0.8040 -0.2969 -2.2411
  879MOL0     H15988   4.876   0.108  10.162 -1.2742 -0.8687  1.2517
  879MOL0     H15989   4.802   0.259  10.090 -0.1317  1.2426 -0.3779
  879MOL0     H15990   4.514   0.210  10.432  0.0238  2.1843  0.1064
  879MOL0     H15991   4.309   0.125  10.387  1.8824 -0.0866  1.5775
  879MOL0     H15992   3.985   0.125  10.056  6.2481  0.2663 -1.1338
  879MOL0     H15993   3.763   0.080   9.924  0.3624  0.9163 -1.6040
  879MOL0     H15994   3.648  -0.296   9.957 -1.3866  2.3719  0.3980
  879MOL0     H15995   3.669  -0.341   9.796  1.1314  0.5982  0.7004
  879MOL0     H15996   3.460  -0.199   9.734  2.4125  0.5582 -0.7571
  879MOL0     H15997   3.440  -0.163   9.902 -1.8845  2.6636 -2.4200
  879MOL0     H15998   3.459  -0.437   9.936  2.3669 -0.3914 -1.2534
  879MOL0     H15999   3.434  -0.437   9.766  0.8053 -0.5495 -0.2541
  879MOL0     H16000   3.216  -0.311   9.805  4.1014  1.5043 -1.1149
  879MOL0     H16001   3.227  -0.478   9.881  2.1409 -1.0529  1.4285
  879MOL0     H16002   3.106  -0.320  10.028  0.1064  2.3860 -1.2832
  879MOL0     H16003   3.240  -0.210  10.020 -0.2615 -0.3356  0.4425
  879MOL0     H16004   3.391  -0.368  10.135  0.0756  2.6701  0.9261
  879MOL0     H16005   3.249  -0.477  10.133 -0.3575  0.1693 -5.2037
  879MOL0     H16006   3.240  -0.192  10.246  0.2080 -0.4267 -1.7179
  879MOL0     H16007   3.131  -0.329  10.280  0.6877  0.6167 -2.3916
  879MOL0     H16008   3.419  -0.312  10.374 -0.5401  0.7275 -2.6287
  879MOL0     H16009   3.301  -0.448  10.403  1.2516 -0.7199 -1.7309
  879MOL0     H16010   3.900  -0.281   9.769  4.7361 -0.0655 -1.7810
  879MOL0     H16011   4.126  -0.251   9.910  0.9064  1.2400  0.5985
  879MOL0     H16012   4.433  -0.007  10.003  0.4443 -1.0751  1.6596
  879MOL0     H16013   4.659   0.096  10.053 -0.5941  0.9808 -0.6080
  879MOL0     H16014   6.108   0.293  10.532  0.1420  1.0008 -0.5298
  879MOL0     H16015   6.217   0.098  10.634  0.1995  0.5143  0.3534
  879MOL0     H16016   6.795  -0.065  10.719 -1.7418 -0.3281  2.6390
  879MOL0     H16017   6.888  -0.252  10.801  0.3454 -0.2746 -0.3089
  879MOL0     H16018   6.946  -0.455  10.880 -2.2704  0.2752  1.8395
  879MOL0     H16019   6.975  -0.533  10.721 -3.6290 -1.6874 -1.6341
  879MOL0     H16020   6.832  -0.681  10.950  1.4915 -1.9062  1.4969
  879MOL0     H16021   6.908  -0.748  10.814  0.5678  0.1926  1.0206
  879MOL0     H16022   7.036  -0.625  11.055 -0.7211 -0.2870 -0.4193
  879MOL0     H16023   7.127  -0.611  10.906 -0.2521  0.8230  0.5083
  879MOL0     H16024   7.123  -0.843  10.877  2.4140 -0.7291  0.4132
  879MOL0     H16025   7.196  -0.804  11.026 -0.9690  1.7570  0.3104
  879MOL0     H16026   6.871  -1.027  11.185 -0.5595 -0.3619 -0.2927
  879MOL0     H16027   6.556  -0.485  10.648 -3.7346  1.7728  1.9406
  879MOL0     H16028   6.463  -0.267  10.545  0.1399 -0.8017  1.1192
  880MOL0     O16029   5.995   1.246   8.351  0.2372 -0.1704 -0.0059
  880MOL0     C16030   6.028   1.205   8.242  1.5071  0.2376  0.2481
  880MOL0     O16031   6.031   1.071   8.206 -0.5549 -0.3025  0.1491
  880MOL0     C16032   5.978   0.972   8.282  1.2967  1.0349  0.0139
  880MOL0     C16033   6.051   0.863   8.328  0.1294 -0.6090  0.4526
  880MOL0     C16034   5.989   0.778   8.429 -0.0467 -0.5102  0.1661
  880MOL0     C16035   5.853   0.782   8.469  0.3365  0.4902 -0.0136
  880MOL0     O16036   5.781   0.709   8.560  0.1607  0.5019  1.0976
  880MOL0     C16037   5.836   0.580   8.603 -1.3063  0.2760 -0.6198
  880MOL0     C16038   5.785   0.471   8.507  0.5968  0.0770 -1.2331
  880MOL0     C16039   5.628   0.464   8.501 -0.9243 -0.3258 -0.2789
  880MOL0     C16040   5.575   0.352   8.592 -1.1241  0.5054 -0.5008
  880MOL0     C16041   5.424   0.348   8.597 -1.0766 -0.4170 -0.0455
  880MOL0     C16042   5.361   0.261   8.714  0.6510  0.0408 -0.4045
  880MOL0     C16043   5.397   0.313   8.854 -0.3368  0.0833 -0.8145
  880MOL0     C16044   5.366   0.210   8.966  0.5788 -0.8390  0.6223
  880MOL0     N16045   5.462   0.211   9.082 -0.6881  0.1609  0.5495
  880MOL0     C16046   5.422   0.228   9.210 -0.0856  0.0777  0.3293
  880MOL0     C16047   5.536   0.235   9.279 -0.7621 -0.0410 -0.3589
  880MOL0     C16048   5.552   0.281   9.424 -0.0547 -0.6368 -0.7203
  880MOL0     C16049   5.651   0.393   9.425  0.1096 -0.1750  0.6570
  880MOL0     C16050   5.691   0.430   9.576  0.3640  0.3680 -0.0633
  880MOL0     C16051   5.761   0.562   9.598 -0.3225  0.3681 -0.7234
  880MOL0     O16052   5.843   0.570   9.489 -0.7000 -0.3554  0.7472
  880MOL0     C16053   5.918   0.682   9.469 -1.6755 -0.5880  0.0024
  880MOL0     C16054   5.984   0.755   9.574 -0.2297 -0.1721 -0.3507
  880MOL0     C16055   6.062   0.861   9.552  0.1716 -0.4126 -0.1463
  880MOL0     C16056   6.083   0.902   9.421  0.6411  0.0540 -0.3019
  880MOL0     C16057   6.172   1.013   9.391 -0.2427 -0.8998 -1.2560
  880MOL0     O16058   6.239   1.021   9.269  0.1140 -0.0180  0.6909
  880MOL0     C16059   6.334   1.116   9.252 -0.7770  0.1066  0.4058
  880MOL0     C16060   6.342   1.250   9.289 -0.4504  0.2674 -0.1613
  880MOL0     C16061   6.462   1.330   9.270 -0.4954 -0.1500 -0.1187
  880MOL0     C16062   6.570   1.281   9.200  0.8086  0.4125 -0.1771
  880MOL0     O16063   6.694   1.353   9.199  0.9627  0.9116 -0.5089
  880MOL0     C16064   6.802   1.307   9.284 -0.5892 -0.4003  0.2409
  880MOL0     C16065   6.896   1.426   9.275  0.9964  0.2640 -0.1223
  880MOL0     C16066   7.030   1.395   9.333 -0.4243  0.1563  0.1254
  880MOL0     C16067   7.140   1.494   9.309  0.2610 -0.0906 -0.7690
  880MOL0     C16068   7.268   1.441   9.378 -0.1256 -0.1284  0.4404
  880MOL0     C16069   7.388   1.517   9.317 -0.3428  0.8428  0.9251
  880MOL0     C16070   7.521   1.447   9.355  0.6725  0.3362  0.2719
  880MOL0     C16071   7.551   1.414   9.501 -0.4234 -0.9630  0.0274
  880MOL0    Cl16072   7.709   1.332   9.524  0.1316 -0.0752  0.0186
  880MOL0     C16073   6.564   1.146   9.160  0.7926 -0.4379  0.4627
  880MOL0     C16074   6.443   1.065   9.176 -0.3602  0.1984 -0.2715
  880MOL0     O16075   6.168   1.110   9.473 -0.1168 -0.4870 -0.2596
  880MOL0     C16076   6.013   0.836   9.314 -0.0230 -0.1170 -0.1073
  880MOL0     C16077   5.940   0.716   9.335  0.0646  0.6874 -0.6954
  880MOL0     N16078   5.646   0.200   9.194 -0.1522 -0.6836 -0.1947
  880MOL0     N16079   5.594   0.196   9.076  0.2035 -0.1996  0.9049
  880MOL0     C16080   5.780   0.884   8.402 -0.1775  0.0057  0.3394
  880MOL0     C16081   5.844   0.976   8.316  0.7904 -0.5106 -0.6249
  880MOL0     C16082   6.058   1.302   8.136 -0.3709 -0.0491 -0.0007
  880MOL0     C16083   6.102   1.261   8.016 -0.0022  1.1549  0.9156
  880MOL0     C16084   6.126   1.356   7.911  0.1131  0.7230 -1.3055
  880MOL0     C16085   6.135   1.490   7.947 -0.1883  0.3349  1.3616
  880MOL0     O16086   6.174   1.594   7.859  0.2394  0.5345 -0.2581
  880MOL0     C16087   6.224   1.564   7.728 -0.2395 -0.1125 -0.5086
  880MOL0     C16088   6.249   1.689   7.652 -0.2037 -0.2045  1.2215
  880MOL0     C16089   6.382   1.740   7.690 -0.1275  0.4899  0.5499
  880MOL0     C16090   6.415   1.876   7.623  0.0549 -0.3606 -1.0737
  880MOL0     C16091   6.534   1.939   7.686 -0.2620 -0.7128 -0.1946
  880MOL0     C16092   6.624   1.993   7.749 -0.6001 -0.8127 -0.1175
  880MOL0     C16093   6.112   1.528   8.077  0.0781 -0.2790 -1.3000
  880MOL0     C16094   6.076   1.436   8.166  1.5141 -0.7760 -0.5687
  880MOL0     H16095   6.154   0.843   8.299  1.6395  3.9388  1.8332
  880MOL0     H16096   6.048   0.693   8.464  0.5352  0.4444  1.6165
  880MOL0     H16097   5.795   0.563   8.703  0.0317 -2.4404 -0.4300
  880MOL0     H16098   5.945   0.579   8.604 -1.2499  0.2112 -2.3917
  880MOL0     H16099   5.822   0.371   8.528 -0.5168 -0.8876 -3.4899
  880MOL0     H16100   5.816   0.501   8.406  3.2884  1.0044 -0.2355
  880MOL0     H16101   5.594   0.445   8.399 -2.8847 -3.3277  0.7939
  880MOL0     H16102   5.590   0.564   8.527  1.6222  0.4874  0.6266
  880MOL0     H16103   5.611   0.251   8.569 -2.1136 -0.3702  1.5169
  880MOL0     H16104   5.605   0.367   8.696 -3.1590 -0.5719  0.2847
  880MOL0     H16105   5.392   0.316   8.497  0.0721  0.2672 -0.6545
  880MOL0     H16106   5.388   0.450   8.614  1.2537  0.1893  1.7439
  880MOL0     H16107   5.394   0.158   8.700  1.2445  0.2677 -0.7124
  880MOL0     H16108   5.253   0.276   8.700  0.4846  0.6993  1.3089
  880MOL0     H16109   5.506   0.322   8.864 -0.5832  1.2493  1.2598
  880MOL0     H16110   5.353   0.411   8.875  2.7031  1.1032  1.6602
  880MOL0     H16111   5.371   0.108   8.928 -1.6960 -1.3205  1.4921
  880MOL0     H16112   5.263   0.232   8.995 -0.5667 -1.4092 -2.6389
  880MOL0     H16113   5.321   0.239   9.250 -0.9324 -0.3522 -1.5885
  880MOL0     H16114   5.582   0.203   9.494  0.4068 -0.7483 -1.0431
  880MOL0     H16115   5.459   0.328   9.458 -0.6189 -1.8333 -0.5700
  880MOL0     H16116   5.612   0.484   9.377 -0.2441 -0.7256 -0.1112
  880MOL0     H16117   5.744   0.357   9.381  1.4483  1.4921  1.9670
  880MOL0     H16118   5.595   0.437   9.627 -0.3861  0.7460 -1.4650
  880MOL0     H16119   5.744   0.347   9.624  0.2611  0.9719  1.1444
  880MOL0     H16120   5.820   0.555   9.690  3.1102  1.2424 -2.6885
  880MOL0     H16121   5.684   0.638   9.611 -0.0622  0.3183  1.3561
  880MOL0     H16122   5.979   0.727   9.678  0.4300  1.8607  0.2774
  880MOL0     H16123   6.130   0.913   9.619  0.0881  1.3227 -1.3289
  880MOL0     H16124   6.267   1.297   9.351 -0.4857  1.7580 -1.2672
  880MOL0     H16125   6.469   1.427   9.318 -0.3363  1.7355 -3.5670
  880MOL0     H16126   6.849   1.212   9.258  0.5092 -0.7871  3.2826
  880MOL0     H16127   6.773   1.284   9.387  1.4895  1.0628  1.2065
  880MOL0     H16128   6.862   1.513   9.331 -0.6631 -1.7039  2.1332
  880MOL0     H16129   6.909   1.460   9.171  0.7549  1.0359  0.0978
  880MOL0     H16130   7.054   1.298   9.289  0.6313  0.2309  0.5148
  880MOL0     H16131   7.030   1.387   9.442  3.3744  1.3493  0.3502
  880MOL0     H16132   7.161   1.504   9.202 -1.4347  0.1684 -1.1004
  880MOL0     H16133   7.112   1.591   9.350 -0.7640 -0.6044 -0.2119
  880MOL0     H16134   7.269   1.332   9.371  0.4369 -0.1405  0.6642
  880MOL0     H16135   7.259   1.468   9.484  1.3689 -0.2379  0.6196
  880MOL0     H16136   7.401   1.618   9.358 -1.3284  1.6479 -0.6497
  880MOL0     H16137   7.378   1.527   9.209  0.7963  0.3047  0.7542
  880MOL0     H16138   7.522   1.351   9.304  0.4577 -1.7315  3.8070
  880MOL0     H16139   7.602   1.515   9.329 -0.3984  1.3423 -0.5625
  880MOL0     H16140   7.476   1.346   9.543  2.1197 -3.8926  0.2301
  880MOL0     H16141   7.552   1.499   9.569 -2.1314 -0.9704  0.1141
  880MOL0     H16142   6.645   1.109   9.097  0.1064 -1.4779  0.1739
  880MOL0     H16143   6.451   0.964   9.138  1.2722  0.6884 -1.3259
  880MOL0     H16144   6.044   0.873   9.217  2.2618 -2.6397 -0.4796
  880MOL0     H16145   5.916   0.649   9.253  0.6854  1.0283 -1.1726
  880MOL0     H16146   5.673   0.891   8.420 -0.1223  0.5916  0.4745
  880MOL0     H16147   5.784   1.063   8.290 -0.2478 -1.4408 -1.4214
  880MOL0     H16148   6.107   1.153   8.001 -1.0169  1.5196 -2.7844
  880MOL0     H16149   6.152   1.316   7.813  0.8609 -2.2101 -0.0287
  880MOL0     H16150   6.134   1.510   7.697 -3.7734  4.3227  0.9965
  880MOL0     H16151   6.306   1.491   7.728 -0.2247 -0.1124 -1.9263
  880MOL0     H16152   6.242   1.654   7.549  0.3816 -1.1702  1.4892
  880MOL0     H16153   6.171   1.764   7.667 -2.5028 -2.1939 -0.0369
  880MOL0     H16154   6.454   1.658   7.679 -1.4092 -0.6892  0.6541
  880MOL0     H16155   6.376   1.765   7.796 -3.4893  1.1758  0.2904
  880MOL0     H16156   6.436   1.854   7.518  1.0488 -0.6456 -0.8201
  880MOL0     H16157   6.326   1.936   7.645 -1.1312 -2.6841  1.0345
  880MOL0     H16158   6.707   2.035   7.803 -1.6559 -2.0554  2.6665
  880MOL0     H16159   6.121   1.635   8.091 -0.0436 -0.3082 -1.0069
  880MOL0     H16160   6.034   1.472   8.260 -2.9748  0.5878 -2.8490
  881MOL0     O16161   9.561   0.783   1.551 -0.3477 -0.6288 -0.1715
  881MOL0     C16162   9.517   0.688   1.612  0.5128  0.4694 -0.1455
  881MOL0     O16163   9.580   0.622   1.714 -0.2845 -0.5845  0.0550
  881MOL0     C16164   9.692   0.677   1.775 -1.1807 -0.4541  0.0748
  881MOL0     C16165   9.823   0.628   1.743 -0.5394  0.4870  0.2678
  881MOL0     C16166   9.928   0.691   1.817 -0.3789  0.0165  0.0834
  881MOL0     C16167   9.902   0.797   1.907  0.4697  0.8344  0.4080
  881MOL0     O16168  10.010   0.852   1.964  0.5253  0.1976 -1.5701
  881MOL0     C16169  10.029   0.868   2.103 -0.4203  0.9538  0.8156
  881MOL0     C16170  10.179   0.825   2.149 -0.7033  0.0941  1.0881
  881MOL0     C16171  10.285   0.915   2.089  0.4918 -0.7225 -0.2453
  881MOL0     C16172  10.265   1.064   2.109 -1.2575 -0.3656  0.2679
  881MOL0     C16173  10.226   1.149   1.982 -0.3480  0.5563  0.0989
  881MOL0     C16174  10.352   1.165   1.891  1.5880 -1.0475 -0.3661
  881MOL0     C16175  10.296   1.192   1.753  0.9461  0.2496  0.4906
  881MOL0     C16176  10.410   1.198   1.654  1.5600 -0.4226 -0.0752
  881MOL0     N16177  10.480   1.332   1.650 -0.0236  0.2652  0.0993
  881MOL0     C16178  10.472   1.423   1.548  0.4903 -0.9447  0.5423
  881MOL0     C16179  10.574   1.515   1.580 -0.1446  0.7861  1.0013
  881MOL0     C16180  10.599   1.643   1.508  0.3825  0.6158  0.9627
  881MOL0     C16181  10.467   1.723   1.519  0.1965  0.0215  0.6417
  881MOL0     C16182  10.456   1.811   1.642 -0.3742  0.2854  0.1835
  881MOL0     C16183  10.523   1.946   1.628  0.8136  0.0825 -0.1205
  881MOL0     O16184  10.467   2.029   1.534 -0.3347  0.6298  0.2827
  881MOL0     C16185  10.376   2.121   1.565 -0.0298  0.4388 -0.4617
  881MOL0     C16186  10.337   2.196   1.454 -0.4606 -0.5877  0.7824
  881MOL0     C16187  10.253   2.309   1.463 -1.8883  0.2028 -0.5491
  881MOL0     C16188  10.217   2.355   1.585 -0.1980  0.0115 -0.8057
  881MOL0     C16189  10.127   2.474   1.594 -0.4089  0.6125 -0.6621
  881MOL0     O16190  10.041   2.483   1.488  0.4703 -0.2536  0.0289
  881MOL0     C16191   9.989   2.606   1.462  0.0389  0.1341 -0.1411
  881MOL0     C16192   9.898   2.662   1.557  0.1477  0.1348 -0.6925
  881MOL0     C16193   9.850   2.785   1.536 -0.4053  0.8464 -0.1249
  881MOL0     C16194   9.888   2.861   1.440  0.2232 -0.1327 -0.5817
  881MOL0     O16195   9.836   2.987   1.433 -0.8804 -0.5763 -0.1133
  881MOL0     C16196   9.852   3.074   1.317  0.3742  0.8553 -0.2697
  881MOL0     C16197   9.771   3.204   1.328  0.2156  0.9937  0.3336
  881MOL0     C16198   9.737   3.264   1.189 -0.3761 -0.2787 -0.1444
  881MOL0     C16199   9.628   3.364   1.184 -0.7888 -0.1295 -0.2817
  881MOL0     C16200   9.496   3.303   1.227  0.6860  0.0532 -0.4703
  881MOL0     C16201   9.372   3.399   1.254  0.1035  0.5519  0.4251
  881MOL0     C16202   9.241   3.331   1.294 -0.5213 -0.0355 -0.5888
  881MOL0     C16203   9.211   3.292   1.439 -0.7924 -1.0196 -0.5990
  881MOL0    Cl16204   9.197   3.466   1.527  0.2620  0.0394 -0.0651
  881MOL0     C16205   9.985   2.817   1.354  0.2500 -0.3461  0.5947
  881MOL0     C16206  10.035   2.689   1.352 -0.1352 -0.0464 -0.7631
  881MOL0     O16207  10.144   2.557   1.685  0.2506 -0.5658  0.7974
  881MOL0     C16208  10.247   2.283   1.698 -0.3579  0.4562  0.5630
  881MOL0     C16209  10.319   2.166   1.690 -1.7234  0.7962 -0.0576
  881MOL0     N16210  10.650   1.472   1.691  0.0773  0.1801 -0.0667
  881MOL0     N16211  10.590   1.360   1.727  0.4594  0.3887 -0.0826
  881MOL0     C16212   9.773   0.833   1.934 -0.6399  0.0593 -0.1313
  881MOL0     C16213   9.666   0.778   1.871 -0.5772  0.7647 -0.4166
  881MOL0     C16214   9.382   0.633   1.575 -0.1922  0.1516  0.7460
  881MOL0     C16215   9.294   0.569   1.663 -1.3141  0.0793 -0.1644
  881MOL0     C16216   9.160   0.550   1.636  0.5148 -0.3323 -0.1515
  881MOL0     C16217   9.113   0.566   1.503  0.2315  0.8938 -0.4074
  881MOL0     O16218   8.983   0.550   1.468  0.1625  0.9071  0.2051
  881MOL0     C16219   8.876   0.543   1.561 -0.0939 -0.2882 -0.8337
  881MOL0     C16220   8.733   0.506   1.510  1.1209  0.0881 -0.2716
  881MOL0     C16221   8.682   0.602   1.411 -0.0413 -0.2806  0.2397
  881MOL0     C16222   8.536   0.556   1.373 -0.6016 -0.0195  0.1372
  881MOL0     C16223   8.492   0.638   1.264 -0.2794  0.0355  0.8664
  881MOL0     C16224   8.437   0.707   1.177  0.8590  1.1011 -0.2947
  881MOL0     C16225   9.206   0.614   1.407  0.1638  0.2499 -0.0300
  881MOL0     C16226   9.339   0.652   1.445  0.7957 -0.3176 -0.1068
  881MOL0     H16227   9.851   0.546   1.678  2.1716  0.8073  0.8948
  881MOL0     H16228  10.032   0.658   1.819 -0.8434 -1.5604 -0.1049
  881MOL0     H16229   9.947   0.817   2.154 -1.5005 -0.7126 -2.2941
  881MOL0     H16230  10.011   0.975   2.122 -2.1979  1.0977 -1.2443
  881MOL0     H16231  10.191   0.718   2.126  0.5934  0.9437 -3.0726
  881MOL0     H16232  10.183   0.833   2.258  0.9474 -1.9220  1.2476
  881MOL0     H16233  10.307   0.896   1.983 -2.1099  2.0170 -1.4535
  881MOL0     H16234  10.369   0.893   2.154  0.8822 -2.4456 -1.2872
  881MOL0     H16235  10.197   1.072   2.194 -3.9257 -0.7998 -1.6998
  881MOL0     H16236  10.366   1.094   2.136 -0.2352 -2.2456 -1.2415
  881MOL0     H16237  10.195   1.247   2.020 -3.3663 -0.1980 -0.1659
  881MOL0     H16238  10.147   1.095   1.930 -0.7161 -0.1610  1.3597
  881MOL0     H16239  10.412   1.073   1.886 -0.3249 -2.3211 -1.1912
  881MOL0     H16240  10.401   1.251   1.938  0.8060 -1.7480  1.8723
  881MOL0     H16241  10.222   1.117   1.723  0.5116  1.1164 -0.7046
  881MOL0     H16242  10.240   1.286   1.757 -1.1242 -0.9626  1.6697
  881MOL0     H16243  10.376   1.174   1.553  3.5356  2.2548 -1.5205
  881MOL0     H16244  10.480   1.118   1.680  0.0247 -2.7531 -2.6428
  881MOL0     H16245  10.395   1.425   1.472  0.1296 -1.0928  0.9035
  881MOL0     H16246  10.614   1.615   1.404  1.6339 -0.2936  1.3531
  881MOL0     H16247  10.678   1.708   1.548  1.2242  1.2321 -1.5315
  881MOL0     H16248  10.374   1.665   1.522  0.5299 -0.5133  0.6770
  881MOL0     H16249  10.455   1.790   1.433 -1.7360  1.1276  1.6941
  881MOL0     H16250  10.350   1.823   1.666  0.4959  0.0570  5.3889
  881MOL0     H16251  10.498   1.765   1.732 -0.0477 -1.0858 -0.6507
  881MOL0     H16252  10.629   1.933   1.606  0.3436  0.6875 -3.1277
  881MOL0     H16253  10.517   1.995   1.726  0.9961  1.7078 -0.9012
  881MOL0     H16254  10.371   2.170   1.355 -2.5965  0.9066 -0.4249
  881MOL0     H16255  10.221   2.354   1.369  0.8476  2.1926 -0.6884
  881MOL0     H16256   9.863   2.624   1.652 -3.1783 -0.6631 -2.0957
  881MOL0     H16257   9.782   2.828   1.608 -0.5421 -2.3907  1.8644
  881MOL0     H16258   9.832   3.007   1.232  1.7000 -0.8713  0.7136
  881MOL0     H16259   9.957   3.103   1.314  0.0963  2.0705  0.7289
  881MOL0     H16260   9.814   3.284   1.389  1.5365  1.5881 -1.2676
  881MOL0     H16261   9.681   3.160   1.372  0.3893  0.2625 -0.0261
  881MOL0     H16262   9.717   3.176   1.128 -0.2981 -1.8689  2.0425
  881MOL0     H16263   9.824   3.320   1.152  0.2515 -0.6188  0.7817
  881MOL0     H16264   9.662   3.433   1.261  2.1377  0.2112 -1.7381
  881MOL0     H16265   9.625   3.425   1.092 -0.7122  0.3121  0.0050
  881MOL0     H16266   9.506   3.248   1.321 -1.2141  0.0456 -0.2310
  881MOL0     H16267   9.467   3.231   1.150 -0.7177  1.5637 -1.4185
  881MOL0     H16268   9.342   3.431   1.154 -1.2951  1.6630  1.1554
  881MOL0     H16269   9.389   3.482   1.323  1.2672  0.4942  0.2342
  881MOL0     H16270   9.153   3.381   1.253  0.0433  1.0253 -0.5257
  881MOL0     H16271   9.237   3.232   1.246  3.1907 -1.8578  2.3469
  881MOL0     H16272   9.289   3.223   1.474  0.2476  0.2605 -0.2999
  881MOL0     H16273   9.116   3.239   1.442 -2.4686  1.8452  0.5362
  881MOL0     H16274  10.029   2.884   1.281  3.5436 -3.1509 -0.2830
  881MOL0     H16275  10.114   2.664   1.281  1.4890  0.7939  0.6775
  881MOL0     H16276  10.221   2.318   1.797  0.5197  1.7165  0.3689
  881MOL0     H16277  10.350   2.111   1.778  1.4705  1.2731 -0.7407
  881MOL0     H16278   9.753   0.910   2.009 -2.7357  0.8593 -1.4272
  881MOL0     H16279   9.568   0.812   1.901 -0.0699  3.7106 -1.7417
  881MOL0     H16280   9.315   0.560   1.769 -1.4289  0.1343 -0.1375
  881MOL0     H16281   9.103   0.527   1.726 -0.2773 -0.4264 -0.6676
  881MOL0     H16282   8.875   0.641   1.609  0.5196 -1.1260  0.9492
  881MOL0     H16283   8.880   0.468   1.641 -3.4385 -0.6446 -0.8593
  881MOL0     H16284   8.739   0.404   1.471 -2.2428 -0.0614 -0.6848
  881MOL0     H16285   8.654   0.516   1.585 -0.6608  0.0387 -2.0681
  881MOL0     H16286   8.751   0.598   1.325 -1.8210 -1.2454 -1.2209
  881MOL0     H16287   8.688   0.702   1.453  0.0380  0.1211 -0.7018
  881MOL0     H16288   8.534   0.456   1.329 -0.1558 -0.5432  1.2703
  881MOL0     H16289   8.474   0.562   1.463 -0.1287 -0.0082  0.4670
  881MOL0     H16290   8.394   0.760   1.095  1.8803  0.3947 -1.3015
  881MOL0     H16291   9.179   0.625   1.302 -1.2040 -1.3579  0.1069
  881MOL0     H16292   9.385   0.718   1.372  0.0344  1.0088  0.5633
  882MOL0     O16293   0.646   8.815   1.159 -0.2161 -0.3758 -0.1235
  882MOL0     C16294   0.657   8.696   1.162 -0.1592 -0.3596  0.3317
  882MOL0     O16295   0.585   8.608   1.087 -0.8734  0.4509  0.1895
  882MOL0     C16296   0.469   8.649   1.029  0.0920 -0.0305  0.2077
  882MOL0     C16297   0.378   8.726   1.098 -0.4866 -0.6265  0.4689
  882MOL0     C16298   0.262   8.770   1.037 -0.3749 -0.1718  0.0878
  882MOL0     C16299   0.225   8.721   0.907 -0.4553 -0.1740 -1.0260
  882MOL0     O16300   0.101   8.766   0.873 -0.0090  0.0302 -0.1607
  882MOL0     C16301   0.087   8.759   0.729 -0.5171 -0.6847 -0.3712
  882MOL0     C16302   0.015   8.889   0.693 -0.3899  0.3756  0.1444
  882MOL0     C16303  -0.139   8.871   0.723 -0.4362  0.1479  0.2848
  882MOL0     C16304  -0.203   9.000   0.664 -0.1427 -0.1545  0.4429
  882MOL0     C16305  -0.359   9.011   0.690 -0.9967 -0.9947  0.9830
  882MOL0     C16306  -0.436   8.890   0.620  0.8705 -0.1807 -0.0630
  882MOL0     C16307  -0.481   8.777   0.727 -0.5969  0.1384  0.7113
  882MOL0     C16308  -0.601   8.699   0.672  0.1612 -0.2296 -0.4264
  882MOL0     N16309  -0.663   8.608   0.773 -0.2680  0.4747 -0.5173
  882MOL0     C16310  -0.741   8.501   0.734  0.8201  0.0569  0.4695
  882MOL0     C16311  -0.749   8.430   0.846 -0.7717  0.7401 -0.3264
  882MOL0     C16312  -0.803   8.300   0.836  0.1135 -0.9158 -0.7963
  882MOL0     C16313  -0.697   8.196   0.810 -0.1785 -0.1809  0.4262
  882MOL0     C16314  -0.617   8.153   0.933  0.2954 -0.7429  0.8235
  882MOL0     C16315  -0.489   8.075   0.913 -0.2292  0.8622 -0.5035
  882MOL0     O16316  -0.420   8.076   1.034  0.4886  0.0915 -0.3109
  882MOL0     C16317  -0.296   8.022   1.027  0.4138  0.0400  0.7308
  882MOL0     C16318  -0.202   8.064   1.117 -0.3967  0.4021 -0.4628
  882MOL0     C16319  -0.070   8.029   1.123  0.3292  0.0372  0.2038
  882MOL0     C16320  -0.033   7.911   1.048  0.0595 -0.2152  0.2966
  882MOL0     C16321   0.112   7.854   1.071  0.4530  0.0045 -0.4162
  882MOL0     O16322   0.161   7.750   0.990 -0.9136 -0.3257  0.1439
  882MOL0     C16323   0.263   7.678   1.045  0.0936  0.4791 -0.4587
  882MOL0     C16324   0.219   7.559   1.114 -0.7233  0.0427  0.3843
  882MOL0     C16325   0.316   7.473   1.169  0.6537 -0.9041 -0.9169
  882MOL0     C16326   0.450   7.508   1.156  0.9010 -0.2886 -0.0695
  882MOL0     O16327   0.533   7.417   1.215  0.2065 -1.1774 -0.7330
  882MOL0     C16328   0.610   7.352   1.117 -0.3772 -0.2394  0.5285
  882MOL0     C16329   0.666   7.224   1.167 -0.7530  1.0376 -0.1052
  882MOL0     C16330   0.741   7.228   1.298 -0.0160 -0.4380 -0.9602
  882MOL0     C16331   0.819   7.103   1.336  0.9524  0.0741  0.9335
  882MOL0     C16332   0.927   7.115   1.443  0.1734  0.1682 -0.4949
  882MOL0     C16333   0.871   7.146   1.573 -0.1001 -0.3786 -0.5394
  882MOL0     C16334   0.983   7.158   1.681  0.1961 -0.1231  0.0345
  882MOL0     C16335   0.938   7.203   1.817  0.5315 -0.8456 -0.2615
  882MOL0    Cl16336   0.789   7.116   1.893 -0.3906  0.3292  0.0582
  882MOL0     C16337   0.490   7.618   1.082  0.0396 -0.2808 -0.3265
  882MOL0     C16338   0.393   7.709   1.029  0.3936 -0.1948  0.1993
  882MOL0     O16339   0.173   7.910   1.161 -0.8316  0.7457  0.2724
  882MOL0     C16340  -0.127   7.862   0.950  0.5468 -0.2794 -0.2693
  882MOL0     C16341  -0.254   7.923   0.934 -0.6549  1.4018 -0.1912
  882MOL0     N16342  -0.669   8.476   0.947 -0.4829  0.0644 -0.0501
  882MOL0     N16343  -0.611   8.581   0.894  0.7704 -0.2941  0.1099
  882MOL0     C16344   0.308   8.629   0.838 -0.0792  0.7022 -0.7444
  882MOL0     C16345   0.433   8.603   0.901 -0.7600 -0.6854 -0.2335
  882MOL0     C16346   0.768   8.629   1.238  0.1623 -0.6872  0.8353
  882MOL0     C16347   0.871   8.695   1.303 -0.4652 -0.0891  0.3618
  882MOL0     C16348   0.990   8.636   1.352  0.0256 -0.1208 -0.2672
  882MOL0     C16349   1.005   8.504   1.333  0.4490 -0.5263 -0.2857
  882MOL0     O16350   1.125   8.471   1.382  0.7546 -0.0832 -0.5580
  882MOL0     C16351   1.152   8.330   1.378  0.7491  0.3238 -0.5138
  882MOL0     C16352   1.189   8.295   1.236 -0.8987 -0.3055  0.2647
  882MOL0     C16353   1.320   8.207   1.222 -0.4718  0.4102  0.6951
  882MOL0     C16354   1.298   8.092   1.111  0.5528  0.1971 -0.6709
  882MOL0     C16355   1.425   8.035   1.072  0.2814 -0.0733  0.4149
  882MOL0     C16356   1.532   7.995   1.054 -0.3659 -0.0973 -0.2141
  882MOL0     C16357   0.898   8.427   1.275  0.9776  0.3472  0.2378
  882MOL0     C16358   0.783   8.495   1.234 -0.4618  1.0415  0.9248
  882MOL0     H16359   0.389   8.746   1.204 -1.4816  0.6277  0.3602
  882MOL0     H16360   0.200   8.841   1.091  1.4848  0.0292  2.1321
  882MOL0     H16361   0.028   8.668   0.713 -0.6582 -1.0080  1.6454
  882MOL0     H16362   0.177   8.749   0.668  0.2876  3.6127 -0.2341
  882MOL0     H16363   0.026   8.920   0.589 -1.3234  1.5386  0.3635
  882MOL0     H16364   0.050   8.974   0.751  1.3006 -1.0454  1.2936
  882MOL0     H16365  -0.150   8.854   0.830  0.2893  0.1145  0.3569
  882MOL0     H16366  -0.171   8.779   0.673 -1.3098 -0.9351  2.6906
  882MOL0     H16367  -0.148   9.078   0.717 -0.6215  0.2958  0.2778
  882MOL0     H16368  -0.165   8.998   0.562  0.4192 -3.2739  0.6111
  882MOL0     H16369  -0.390   9.099   0.634  0.9999 -1.8998 -1.7445
  882MOL0     H16370  -0.384   9.014   0.797  1.0122  0.1488  1.4791
  882MOL0     H16371  -0.370   8.842   0.548 -1.6608 -1.3178 -1.8086
  882MOL0     H16372  -0.522   8.934   0.567  1.7942  1.6730 -0.1009
  882MOL0     H16373  -0.397   8.711   0.749  1.8680  2.0514 -2.1598
  882MOL0     H16374  -0.503   8.835   0.818  0.0232  0.2881  0.7714
  882MOL0     H16375  -0.577   8.643   0.581 -1.6618 -1.2488 -0.3210
  882MOL0     H16376  -0.669   8.781   0.644  0.4908  0.3016  0.2929
  882MOL0     H16377  -0.789   8.476   0.640  0.9280 -4.0045  1.3204
  882MOL0     H16378  -0.890   8.309   0.770  1.0315 -2.2156 -2.2540
  882MOL0     H16379  -0.840   8.282   0.938  2.1018  0.6603  0.2778
  882MOL0     H16380  -0.638   8.236   0.727  0.5931  2.6704  2.2359
  882MOL0     H16381  -0.755   8.106   0.788  0.5980 -1.4070  2.9985
  882MOL0     H16382  -0.591   8.245   0.987 -1.1976  0.6975 -0.7908
  882MOL0     H16383  -0.682   8.099   1.003 -1.4932 -0.4081 -0.5353
  882MOL0     H16384  -0.421   8.111   0.835  0.0060 -0.3850 -0.8999
  882MOL0     H16385  -0.524   7.975   0.887 -0.2120  0.1341  2.0166
  882MOL0     H16386  -0.233   8.145   1.182 -0.0273 -0.1325  0.3986
  882MOL0     H16387   0.006   8.068   1.191  1.2403 -0.8427 -0.3030
  882MOL0     H16388   0.114   7.537   1.127 -1.3027 -0.1923 -3.4314
  882MOL0     H16389   0.280   7.394   1.233  1.4300 -0.6709 -0.1726
  882MOL0     H16390   0.690   7.420   1.086 -1.4152  0.0330 -1.8041
  882MOL0     H16391   0.552   7.335   1.026  0.5871  0.2254 -0.1892
  882MOL0     H16392   0.734   7.175   1.096 -3.3445 -2.5040 -0.4328
  882MOL0     H16393   0.582   7.154   1.172  1.4533 -1.7586  0.5693
  882MOL0     H16394   0.667   7.243   1.377 -1.2869 -0.9887 -2.0211
  882MOL0     H16395   0.795   7.323   1.306 -4.2157  2.1146  0.2192
  882MOL0     H16396   0.752   7.024   1.372  0.4050 -0.4662 -1.0941
  882MOL0     H16397   0.871   7.057   1.252  0.3641 -0.6096  0.9335
  882MOL0     H16398   1.000   7.180   1.394  2.6435 -1.9985  0.1300
  882MOL0     H16399   0.983   7.022   1.452 -1.0795 -0.4942  0.9790
  882MOL0     H16400   0.784   7.087   1.603 -2.8044  1.0570 -4.6673
  882MOL0     H16401   0.829   7.247   1.567 -0.0909 -0.2737  0.8601
  882MOL0     H16402   1.033   7.063   1.704  0.7659  0.6356  2.1275
  882MOL0     H16403   1.051   7.230   1.635 -1.7800  0.2769 -2.4779
  882MOL0     H16404   0.923   7.311   1.819 -1.8902 -1.0328 -2.6016
  882MOL0     H16405   1.018   7.187   1.891  1.4948 -0.5694 -1.2201
  882MOL0     H16406   0.597   7.630   1.066  0.0482 -0.5151 -0.4490
  882MOL0     H16407   0.418   7.800   0.975  2.3182 -2.6536 -3.5061
  882MOL0     H16408  -0.110   7.769   0.896  1.0085 -0.5259  0.2935
  882MOL0     H16409  -0.314   7.878   0.856 -2.9588 -0.1994  2.3182
  882MOL0     H16410   0.301   8.584   0.740  2.2861  1.9096 -1.5438
  882MOL0     H16411   0.503   8.532   0.860  0.2900 -1.0588  2.0434
  882MOL0     H16412   0.871   8.803   1.309  2.7593  0.0256 -0.2547
  882MOL0     H16413   1.068   8.687   1.408  0.9628  1.8221 -3.1560
  882MOL0     H16414   1.076   8.264   1.421  0.5893  1.5615  1.2111
  882MOL0     H16415   1.233   8.306   1.448 -1.6998 -3.3321  1.3920
  882MOL0     H16416   1.105   8.238   1.196  0.4101 -0.1272 -3.0270
  882MOL0     H16417   1.202   8.384   1.175 -3.8513  0.9364  1.2709
  882MOL0     H16418   1.359   8.160   1.312  1.9476 -0.3139 -0.6535
  882MOL0     H16419   1.403   8.272   1.193 -0.0555 -0.0856  0.7577
  882MOL0     H16420   1.227   8.023   1.157  1.0331  2.0194  3.2089
  882MOL0     H16421   1.255   8.124   1.015  2.8695 -1.6265 -2.4045
  882MOL0     H16422   1.628   7.957   1.025  0.5941  1.5417  0.6747
  882MOL0     H16423   0.915   8.322   1.256 -2.3619 -0.2944  0.2967
  882MOL0     H16424   0.711   8.431   1.183  2.2002 -1.7824  0.4029
  883MOL0     O16425  10.237   0.712   6.606 -0.4145 -0.6634 -0.2881
  883MOL0     C16426  10.274   0.779   6.700 -0.5194  0.2257  0.8152
  883MOL0     O16427  10.410   0.796   6.733  0.1320  0.7148 -0.4456
  883MOL0     C16428  10.504   0.835   6.640  0.5725  0.7533  0.2350
  883MOL0     C16429  10.499   0.816   6.499  1.2878  0.0414 -0.2522
  883MOL0     C16430  10.610   0.837   6.420  0.1939 -0.4176 -0.2543
  883MOL0     C16431  10.737   0.871   6.486  0.3756 -1.0314  0.6786
  883MOL0     O16432  10.842   0.908   6.410 -0.5700  1.1091  0.1763
  883MOL0     C16433  10.896   0.822   6.309  0.4436 -0.7421 -0.8509
  883MOL0     C16434  11.028   0.885   6.268 -0.0654  0.5862 -0.3819
  883MOL0     C16435  11.111   0.923   6.395  0.2715 -0.2442  0.2184
  883MOL0     C16436  11.260   0.943   6.355 -0.6196  1.1286  1.2191
  883MOL0     C16437  11.295   1.086   6.318 -0.0533  0.8896 -0.1127
  883MOL0     C16438  11.419   1.082   6.239 -0.6806  0.0353 -0.3647
  883MOL0     C16439  11.496   1.216   6.259 -0.5195 -0.8566 -0.2639
  883MOL0     C16440  11.438   1.346   6.220 -0.5049  0.0981 -0.0132
  883MOL0     N16441  11.392   1.354   6.074 -0.4833 -0.7363 -0.2825
  883MOL0     C16442  11.265   1.343   6.031  0.7105 -0.0921 -0.2824
  883MOL0     C16443  11.265   1.356   5.901  0.0370  0.7502  0.2204
  883MOL0     C16444  11.144   1.346   5.822  0.4084  0.0652 -0.9071
  883MOL0     C16445  11.066   1.485   5.836 -0.1769 -0.6673 -0.5747
  883MOL0     C16446  10.944   1.452   5.929 -0.9341  0.5142 -0.7214
  883MOL0     C16447  10.840   1.363   5.857 -0.5783  0.9115  0.1942
  883MOL0     O16448  10.713   1.432   5.861 -1.2514  0.6358 -0.4681
  883MOL0     C16449  10.606   1.345   5.869 -0.8427  0.5731  0.8668
  883MOL0     C16450  10.577   1.263   5.759 -0.5162  0.3264  1.0752
  883MOL0     C16451  10.460   1.186   5.767  0.6988  0.2520  0.6199
  883MOL0     C16452  10.376   1.190   5.878  0.6689  0.0043  0.8237
  883MOL0     C16453  10.248   1.109   5.882 -0.4706  0.3453 -0.4436
  883MOL0     O16454  10.164   1.141   5.986  0.6741 -0.2576  0.0664
  883MOL0     C16455  10.029   1.119   5.979 -0.2862  0.0515  0.0178
  883MOL0     C16456   9.970   1.038   6.072 -0.0926  0.5847  0.2414
  883MOL0     C16457   9.837   1.006   6.061  0.2475  0.2078  0.5085
  883MOL0     C16458   9.760   1.045   5.955 -0.3064 -0.5518  0.1617
  883MOL0     O16459   9.635   0.992   5.948  0.8204  0.3122  0.1053
  883MOL0     C16460   9.573   0.970   5.826  0.6920  0.6195 -0.0406
  883MOL0     C16461   9.418   0.967   5.841 -0.5641 -0.3425  0.3268
  883MOL0     C16462   9.359   0.859   5.769  0.2774 -0.0427  1.6238
  883MOL0     C16463   9.213   0.829   5.789 -0.2817 -0.0406  0.4015
  883MOL0     C16464   9.164   0.711   5.698 -1.1241  0.0108  0.5389
  883MOL0     C16465   9.030   0.663   5.746 -1.2337 -0.4490  0.7214
  883MOL0     C16466   8.979   0.563   5.646 -0.6219 -0.4286  0.5570
  883MOL0     C16467   8.824   0.549   5.666 -0.5652  0.1546  0.6296
  883MOL0    Cl16468   8.729   0.470   5.545 -0.3296  0.1154 -0.3605
  883MOL0     C16469   9.819   1.135   5.860 -0.3601  0.5466  0.0335
  883MOL0     C16470   9.953   1.178   5.874  0.3613  0.7804 -0.4450
  883MOL0     O16471  10.230   1.034   5.789 -0.0519  0.0653  0.1024
  883MOL0     C16472  10.415   1.261   5.993 -0.2897 -0.2471 -0.9648
  883MOL0     C16473  10.529   1.342   5.982 -1.0722 -0.5338 -0.1665
  883MOL0     N16474  11.397   1.385   5.868 -0.1381 -0.3713  0.0496
  883MOL0     N16475  11.479   1.359   5.969  0.9496 -0.2408  0.6655
  883MOL0     C16476  10.740   0.894   6.619 -0.2266  0.4401 -0.6625
  883MOL0     C16477  10.628   0.873   6.696 -0.3983  0.5797  0.3055
  883MOL0     C16478  10.181   0.827   6.803  0.5790 -0.3523 -0.1259
  883MOL0     C16479  10.225   0.897   6.920  0.5194  0.0921  0.0568
  883MOL0     C16480  10.133   0.938   7.018  0.3819  0.3221  0.4048
  883MOL0     C16481   9.995   0.911   6.994 -0.2465 -0.3947  0.4332
  883MOL0     O16482   9.890   0.959   7.070  0.0625  1.0364 -0.3400
  883MOL0     C16483   9.920   1.008   7.198 -1.0181 -0.1962  0.4100
  883MOL0     C16484   9.795   1.058   7.276 -0.6188  0.7229  0.8147
  883MOL0     C16485   9.720   1.168   7.192  0.1501 -0.1882  0.2549
  883MOL0     C16486   9.803   1.292   7.142  0.2750  0.1683 -0.4349
  883MOL0     C16487   9.710   1.398   7.123 -0.8613  0.9885  0.0123
  883MOL0     C16488   9.646   1.493   7.115 -0.2653 -0.4675 -0.5355
  883MOL0     C16489   9.953   0.853   6.876  0.4482  0.1861 -0.1441
  883MOL0     C16490  10.043   0.811   6.782  0.8641  0.4371  0.3654
  883MOL0     H16491  10.413   0.781   6.443  2.0512 -1.6212 -0.4228
  883MOL0     H16492  10.595   0.825   6.313 -0.3907  0.1174 -0.2377
  883MOL0     H16493  10.835   0.811   6.219 -1.4976 -2.1635  0.5602
  883MOL0     H16494  10.902   0.722   6.352 -1.7169  0.5280  3.0121
  883MOL0     H16495  11.000   0.967   6.202  0.5216 -0.7515 -2.3775
  883MOL0     H16496  11.078   0.811   6.205  2.7629  3.1231 -1.2816
  883MOL0     H16497  11.089   0.837   6.459 -0.3060  0.5183  1.0701
  883MOL0     H16498  11.081   1.014   6.448 -0.8908  1.0181 -2.4345
  883MOL0     H16499  11.332   0.897   6.425  1.4813  1.5388 -0.5425
  883MOL0     H16500  11.279   0.880   6.268 -2.6267  1.1835  0.7120
  883MOL0     H16501  11.311   1.137   6.414 -1.5060  0.1348  0.5624
  883MOL0     H16502  11.222   1.149   6.267  0.9185  1.0249 -1.3894
  883MOL0     H16503  11.400   1.059   6.134 -1.2696 -2.5121  0.2292
  883MOL0     H16504  11.487   1.001   6.267 -2.6833 -1.6611 -0.1568
  883MOL0     H16505  11.500   1.225   6.367 -0.6033 -2.7378 -0.0626
  883MOL0     H16506  11.594   1.222   6.210 -1.3299  1.5374 -1.7676
  883MOL0     H16507  11.512   1.424   6.242 -0.3339 -0.5506  1.8630
  883MOL0     H16508  11.351   1.370   6.280 -0.7071  0.4540 -0.4370
  883MOL0     H16509  11.177   1.334   6.095  0.1785 -0.3419 -1.0337
  883MOL0     H16510  11.078   1.262   5.845 -1.0126  1.5752  1.0198
  883MOL0     H16511  11.173   1.339   5.717  1.2335  1.1481 -0.7667
  883MOL0     H16512  11.022   1.512   5.740 -2.1435  1.7410  0.8942
  883MOL0     H16513  11.129   1.565   5.874  3.2196 -3.3863  0.0279
  883MOL0     H16514  10.985   1.399   6.016 -0.6437 -0.6511 -1.5452
  883MOL0     H16515  10.901   1.550   5.950  1.2289  1.3143  0.3087
  883MOL0     H16516  10.837   1.272   5.918  3.1017  1.1732  0.9906
  883MOL0     H16517  10.871   1.340   5.755 -1.6728 -1.9983  0.4034
  883MOL0     H16518  10.621   1.270   5.660 -4.8303  3.8679 -0.9453
  883MOL0     H16519  10.425   1.139   5.675  0.5795  3.3163 -1.0302
  883MOL0     H16520  10.024   0.992   6.154 -1.3348  1.0365  1.3447
  883MOL0     H16521   9.788   0.933   6.124 -1.4615  0.8483 -0.0121
  883MOL0     H16522   9.622   0.884   5.781  2.7160  0.3697  2.4059
  883MOL0     H16523   9.591   1.055   5.759  2.1713 -0.0023 -0.4703
  883MOL0     H16524   9.379   1.060   5.798  0.2678 -1.3200 -2.8096
  883MOL0     H16525   9.400   0.962   5.949  2.1952 -0.5034  0.8572
  883MOL0     H16526   9.400   0.763   5.800 -2.3383 -2.6353 -2.0437
  883MOL0     H16527   9.378   0.871   5.662 -0.9304  0.0651  1.4013
  883MOL0     H16528   9.200   0.804   5.895  0.2917  0.1199  0.5125
  883MOL0     H16529   9.163   0.921   5.757 -1.0722 -0.3260  0.7856
  883MOL0     H16530   9.224   0.620   5.695 -1.8081 -0.4972  1.5485
  883MOL0     H16531   9.165   0.749   5.596  1.5785 -0.9450  0.1359
  883MOL0     H16532   8.963   0.750   5.753 -1.6468 -0.8317  1.8171
  883MOL0     H16533   9.040   0.614   5.843  1.8689 -3.2267 -0.8066
  883MOL0     H16534   8.991   0.603   5.545 -1.0329 -0.7763  0.3629
  883MOL0     H16535   9.029   0.467   5.660 -0.5409 -0.5652 -0.5439
  883MOL0     H16536   8.778   0.648   5.675  2.7887  1.9928 -0.5265
  883MOL0     H16537   8.808   0.496   5.760  1.0809 -1.4356  0.0898
  883MOL0     H16538   9.769   1.156   5.765  1.0339  2.4313 -0.3339
  883MOL0     H16539  10.000   1.247   5.804 -0.4874  0.6162 -1.1959
  883MOL0     H16540  10.352   1.255   6.081 -0.4682 -0.2580 -1.0935
  883MOL0     H16541  10.572   1.407   6.057  0.4782  3.2490 -3.9357
  883MOL0     H16542  10.827   0.944   6.658 -0.3410  0.9269 -1.0189
  883MOL0     H16543  10.633   0.879   6.804  3.0547 -0.4165  0.3208
  883MOL0     H16544  10.331   0.898   6.947 -0.1316 -1.3776  3.0781
  883MOL0     H16545  10.172   0.990   7.105 -1.8670 -0.3552  1.9048
  883MOL0     H16546   9.988   1.093   7.190 -2.6402  0.9671 -2.8546
  883MOL0     H16547   9.962   0.922   7.252  0.9709 -2.0447 -3.6518
  883MOL0     H16548   9.728   0.975   7.301  2.3685 -1.5696  1.7904
  883MOL0     H16549   9.827   1.091   7.375 -0.9614 -0.8066  1.4718
  883MOL0     H16550   9.645   1.202   7.263  1.6089 -2.6664  3.2402
  883MOL0     H16551   9.659   1.123   7.113  1.2351 -2.5379  0.6538
  883MOL0     H16552   9.863   1.321   7.229  1.5475 -1.1901 -0.8262
  883MOL0     H16553   9.853   1.257   7.052 -1.5996 -3.1126 -0.3501
  883MOL0     H16554   9.603   1.589   7.096 -0.3422 -0.4301 -0.1670
  883MOL0     H16555   9.845   0.850   6.868  0.3463 -0.1568  1.1030
  883MOL0     H16556  10.005   0.762   6.693 -0.7385 -1.6849  2.0839
  884MOL0     O16557  10.643   1.400   8.389 -0.3071  0.6101 -0.2215
  884MOL0     C16558  10.751   1.448   8.428  0.3512  0.0045  0.1818
  884MOL0     O16559  10.796   1.453   8.561  0.5914  0.3055  0.2947
  884MOL0     C16560  10.727   1.365   8.645 -0.7543  1.4465  0.0073
  884MOL0     C16561  10.625   1.411   8.725  0.3972  0.5508 -0.7087
  884MOL0     C16562  10.566   1.331   8.826 -0.5445 -0.4723  0.5918
  884MOL0     C16563  10.597   1.194   8.834  0.6643  0.6845  0.4177
  884MOL0     O16564  10.522   1.105   8.912 -0.6313 -0.6303 -0.2611
  884MOL0     C16565  10.484   1.172   9.036  0.5349  0.1853 -0.1793
  884MOL0     C16566  10.433   1.080   9.147  0.7928  0.0058  0.2948
  884MOL0     C16567  10.354   1.152   9.259 -1.0108  0.1549 -0.4092
  884MOL0     C16568  10.302   1.046   9.354 -0.2389 -0.9965  0.0351
  884MOL0     C16569  10.243   1.110   9.484  0.1710  0.0722  0.3878
  884MOL0     C16570  10.253   1.021   9.606  0.8880  0.5043 -0.3253
  884MOL0     C16571  10.168   0.895   9.602  0.0313  0.4730  0.1751
  884MOL0     C16572  10.212   0.809   9.719  0.6974  0.6162  0.8106
  884MOL0     N16573  10.193   0.869   9.851 -0.2369 -0.2652  0.7528
  884MOL0     C16574  10.073   0.911   9.900  0.6428  0.2792 -0.3619
  884MOL0     C16575  10.100   0.968  10.026 -0.7114 -0.3229 -0.5868
  884MOL0     C16576  10.004   0.999  10.140 -0.1812  0.2488  0.3007
  884MOL0     C16577   9.892   1.084  10.087 -0.2643 -1.2132 -0.1145
  884MOL0     C16578   9.813   1.148  10.211  0.2630 -0.1765 -0.8892
  884MOL0     C16579   9.695   1.225  10.158 -0.7113 -0.4470 -0.1629
  884MOL0     O16580   9.594   1.125  10.131  0.0791  0.0646 -0.3275
  884MOL0     C16581   9.460   1.169  10.128  0.6646 -0.1908 -0.2413
  884MOL0     C16582   9.366   1.077  10.169 -0.6487  0.1600  0.4185
  884MOL0     C16583   9.236   1.099  10.162  0.6373  0.3434 -0.8659
  884MOL0     C16584   9.189   1.233  10.122  0.5546 -0.3238 -0.3948
  884MOL0     C16585   9.040   1.255  10.108 -0.9273  0.6914 -0.2987
  884MOL0     O16586   8.951   1.149  10.140 -0.0222 -0.0763 -0.0595
  884MOL0     C16587   8.817   1.169  10.166 -0.0536 -0.0026 -0.5149
  884MOL0     C16588   8.731   1.239  10.086 -0.7703  0.6841 -0.2297
  884MOL0     C16589   8.597   1.267  10.125  0.2810  0.1511 -0.4454
  884MOL0     C16590   8.560   1.222  10.258 -0.5359 -0.0380  0.1352
  884MOL0     O16591   8.451   1.267  10.333  0.6765 -0.7395 -0.1148
  884MOL0     C16592   8.322   1.252  10.262  0.0253  0.7193  1.3424
  884MOL0     C16593   8.222   1.246  10.378 -1.4818 -0.8099  0.0651
  884MOL0     C16594   8.082   1.217  10.331 -0.7831  0.3189 -0.4193
  884MOL0     C16595   7.980   1.216  10.444 -0.0577  0.7965  0.2041
  884MOL0     C16596   7.839   1.246  10.399  0.3437  0.8938 -0.0345
  884MOL0     C16597   7.786   1.169  10.271  0.0676  0.0652 -0.6413
  884MOL0     C16598   7.633   1.172  10.250 -1.4085 -0.6001  0.0780
  884MOL0     C16599   7.595   1.124  10.109 -0.7809  0.1460  1.4800
  884MOL0    Cl16600   7.644   1.240   9.980  0.2238  0.2348 -0.3575
  884MOL0     C16601   8.647   1.146  10.332 -0.5592 -0.2050 -0.3055
  884MOL0     C16602   8.781   1.133  10.297  0.2984  0.0147 -0.3011
  884MOL0     O16603   9.000   1.368  10.090 -0.0873 -0.0327 -0.8432
  884MOL0     C16604   9.280   1.329  10.086 -0.4814 -0.5175  0.3571
  884MOL0     C16605   9.415   1.304  10.092  0.3068  0.1892 -0.3931
  884MOL0     N16606  10.238   0.949  10.043 -0.0659 -0.4484 -0.2815
  884MOL0     N16607  10.293   0.898   9.936  0.2321 -0.2328 -0.1413
  884MOL0     C16608  10.690   1.146   8.744 -0.0704 -0.3472 -0.2668
  884MOL0     C16609  10.759   1.225   8.650 -0.2151  0.0452 -1.1730
  884MOL0     C16610  10.847   1.517   8.336 -0.6704 -0.2260 -0.0904
  884MOL0     C16611  10.865   1.483   8.202 -0.8499  0.4137 -0.1655
  884MOL0     C16612  10.971   1.512   8.122 -0.8210  0.1835  0.3439
  884MOL0     C16613  11.067   1.588   8.166 -0.7413 -0.5504 -0.9669
  884MOL0     O16614  11.169   1.622   8.093 -0.3953  0.9605  0.2546
  884MOL0     C16615  11.249   1.520   8.036 -0.2340 -0.4865 -1.1403
  884MOL0     C16616  11.345   1.587   7.938  0.6997 -0.1749 -0.4003
  884MOL0     C16617  11.441   1.687   8.000 -0.1671  0.5127  0.2651
  884MOL0     C16618  11.571   1.670   7.906  0.3676 -0.4440  0.1294
  884MOL0     C16619  11.661   1.779   7.928 -0.0665  0.0745  0.2212
  884MOL0     C16620  11.739   1.872   7.935  0.7273 -0.0007  0.2343
  884MOL0     C16621  11.061   1.642   8.300  0.8366 -0.6117 -0.6164
  884MOL0     C16622  10.953   1.604   8.386 -0.3384  0.6291 -0.2978
  884MOL0     H16623  10.603   1.516   8.711  0.0900  0.8481  1.6822
  884MOL0     H16624  10.488   1.374   8.887 -2.4987 -1.5487 -1.0141
  884MOL0     H16625  10.411   1.253   9.026  1.0907  0.5016 -2.0676
  884MOL0     H16626  10.573   1.224   9.072  1.2155 -0.6220 -0.6588
  884MOL0     H16627  10.517   1.025   9.190  1.3635  1.6397  1.4027
  884MOL0     H16628  10.369   1.003   9.104  2.1219 -1.1882  0.3681
  884MOL0     H16629  10.272   1.207   9.211 -0.0921  1.3856 -0.6122
  884MOL0     H16630  10.417   1.225   9.310 -1.3310 -0.5885  1.1129
  884MOL0     H16631  10.236   0.971   9.309 -0.9039 -0.7045  0.5036
  884MOL0     H16632  10.372   0.966   9.379 -2.3397 -2.4742  1.5286
  884MOL0     H16633  10.138   1.137   9.476 -0.3587 -0.8639  3.0112
  884MOL0     H16634  10.304   1.198   9.505  2.6747 -0.8729 -2.2647
  884MOL0     H16635  10.216   1.087   9.685  1.2698  4.1347 -2.9234
  884MOL0     H16636  10.359   1.007   9.632  0.9967  1.1606 -0.3925
  884MOL0     H16637  10.062   0.923   9.599 -0.2492 -0.6574 -1.8886
  884MOL0     H16638  10.181   0.827   9.517 -1.1402 -0.4067  0.6820
  884MOL0     H16639  10.321   0.797   9.715  0.8517  1.9012 -2.4527
  884MOL0     H16640  10.161   0.713   9.716  2.7200 -0.4871 -0.3778
  884MOL0     H16641   9.972   0.899   9.864  0.3232  1.8008 -0.0423
  884MOL0     H16642  10.062   1.046  10.220 -0.9491  1.5232  0.1278
  884MOL0     H16643   9.958   0.911  10.186  0.5234  1.3954  3.4275
  884MOL0     H16644   9.816   1.036  10.026 -3.1290  1.6515  0.9006
  884MOL0     H16645   9.922   1.167  10.023  0.3381 -1.7441 -0.5330
  884MOL0     H16646   9.771   1.077  10.283 -1.1901 -0.1536 -1.6711
  884MOL0     H16647   9.880   1.216  10.263 -3.8891  2.8485  1.0239
  884MOL0     H16648   9.729   1.271  10.066  1.0306 -0.1870  0.5777
  884MOL0     H16649   9.656   1.300  10.227  1.4194  0.5255  0.0667
  884MOL0     H16650   9.392   0.985  10.220  0.7141  0.3984  0.2079
  884MOL0     H16651   9.167   1.028  10.206 -1.4702  1.8718 -1.5449
  884MOL0     H16652   8.775   1.282   9.997  2.4227  4.4421  2.7686
  884MOL0     H16653   8.519   1.322  10.075  0.0331  0.9927  0.7979
  884MOL0     H16654   8.322   1.156  10.210  0.2975 -0.3555  3.2313
  884MOL0     H16655   8.301   1.331  10.189  1.5656  1.3710  1.5462
  884MOL0     H16656   8.196   1.339  10.429 -0.9180 -0.1936 -0.7402
  884MOL0     H16657   8.269   1.179  10.450 -1.5069  0.9237  1.7718
  884MOL0     H16658   8.084   1.113  10.297  0.3384 -0.3394  1.4867
  884MOL0     H16659   8.050   1.278  10.247 -1.8586 -2.0621 -1.8343
  884MOL0     H16660   7.985   1.118  10.492  1.4263  1.3841  1.3365
  884MOL0     H16661   8.011   1.290  10.519  0.7338 -1.2209  1.9686
  884MOL0     H16662   7.824   1.353  10.386 -0.6248  0.7623 -0.0861
  884MOL0     H16663   7.768   1.216  10.477  1.4690 -0.3961  0.5379
  884MOL0     H16664   7.810   1.064  10.289 -1.0631  0.3461  3.4515
  884MOL0     H16665   7.843   1.207  10.185  0.1885  0.6221 -0.3229
  884MOL0     H16666   7.600   1.100  10.326  1.9044  0.3926  2.7264
  884MOL0     H16667   7.581   1.266  10.268 -2.2083 -0.9857 -0.1538
  884MOL0     H16668   7.490   1.098  10.092 -0.4441 -0.5861  0.4328
  884MOL0     H16669   7.645   1.029  10.085 -1.1812  0.6659 -1.7542
  884MOL0     H16670   8.623   1.113  10.433 -1.9968 -1.2445 -0.9519
  884MOL0     H16671   8.856   1.083  10.359 -0.9566  0.4131  1.6009
  884MOL0     H16672   9.246   1.426  10.051 -1.9746 -1.2262 -0.2373
  884MOL0     H16673   9.486   1.383  10.070 -1.5022  3.1588  3.3229
  884MOL0     H16674  10.721   1.042   8.756  1.2320  0.0861  0.3790
  884MOL0     H16675  10.842   1.180   8.597  2.2720 -1.7660  3.7013
  884MOL0     H16676  10.794   1.417   8.153 -0.9856  0.7445 -0.4140
  884MOL0     H16677  10.978   1.492   8.015 -1.4289  0.9741  0.1464
  884MOL0     H16678  11.191   1.443   7.983 -2.5461 -1.4900  2.4859
  884MOL0     H16679  11.296   1.463   8.117 -1.1008  2.2471  1.4575
  884MOL0     H16680  11.394   1.500   7.893  0.6066 -0.5933  0.2852
  884MOL0     H16681  11.290   1.636   7.858  2.1057 -0.6134 -1.6798
  884MOL0     H16682  11.472   1.666   8.102  4.5661 -1.2886 -1.2308
  884MOL0     H16683  11.397   1.787   8.005 -0.5091  0.4730 -1.2796
  884MOL0     H16684  11.615   1.571   7.925  2.6378 -0.3645 -3.7086
  884MOL0     H16685  11.546   1.682   7.800  1.0533 -0.5906 -0.0565
  884MOL0     H16686  11.804   1.957   7.944  2.3214 -1.2618  1.1473
  884MOL0     H16687  11.132   1.713   8.342 -0.3253 -0.4012  1.1011
  884MOL0     H16688  10.964   1.645   8.486  0.5522  0.7776 -0.4468
  885MOL0     O16689   5.536   3.639   4.410  0.1159  0.2939  0.1463
  885MOL0     C16690   5.606   3.547   4.370  1.4040  0.5175 -0.5750
  885MOL0     O16691   5.567   3.417   4.363  0.3616  1.0885  0.1621
  885MOL0     C16692   5.468   3.359   4.434 -0.0631  0.7436  0.7115
  885MOL0     C16693   5.430   3.418   4.551  0.9042 -0.4217 -0.6961
  885MOL0     C16694   5.335   3.356   4.629  0.0193  0.1389 -1.0529
  885MOL0     C16695   5.265   3.246   4.588  0.6342 -0.2344 -0.3487
  885MOL0     O16696   5.168   3.181   4.672 -0.5842  0.0886 -0.5418
  885MOL0     C16697   5.116   3.248   4.788 -0.1504 -0.7658 -0.7489
  885MOL0     C16698   5.015   3.159   4.863 -0.1932 -0.4275  0.3017
  885MOL0     C16699   4.874   3.146   4.793 -0.4366  0.7198  0.0540
  885MOL0     C16700   4.766   3.082   4.891 -0.7161 -0.2818  0.5269
  885MOL0     C16701   4.644   3.030   4.818 -0.8719  0.2740  0.4636
  885MOL0     C16702   4.522   2.991   4.905 -1.2988  0.3085  0.0732
  885MOL0     C16703   4.400   2.968   4.818  0.5329 -0.1486  0.7792
  885MOL0     C16704   4.408   2.854   4.727  0.0748 -0.3992  0.2781
  885MOL0     N16705   4.287   2.853   4.642  0.4265 -0.4359  0.0999
  885MOL0     C16706   4.266   2.933   4.529  0.3343  0.3779  0.6036
  885MOL0     C16707   4.149   2.888   4.470 -0.8099  0.3187  0.0872
  885MOL0     C16708   4.106   2.935   4.338  0.0880  0.1911  0.5528
  885MOL0     C16709   4.053   3.085   4.340 -0.3929 -0.2036  0.2529
  885MOL0     C16710   3.949   3.113   4.454  0.0413  0.5725 -0.0128
  885MOL0     C16711   3.896   3.260   4.445 -0.1679 -0.7222 -0.0435
  885MOL0     O16712   3.800   3.277   4.550  0.0343  0.4033  0.2426
  885MOL0     C16713   3.681   3.207   4.555 -0.4398  0.0808  1.2578
  885MOL0     C16714   3.628   3.135   4.444  0.3306 -1.1356 -0.4382
  885MOL0     C16715   3.508   3.070   4.451  0.2395  0.1127 -0.1903
  885MOL0     C16716   3.423   3.079   4.559 -0.3205  0.5462 -0.4457
  885MOL0     C16717   3.287   3.018   4.551  0.4189  0.0454 -0.7728
  885MOL0     O16718   3.278   2.901   4.486 -0.7931 -0.2247  0.2456
  885MOL0     C16719   3.153   2.855   4.464 -0.5149  0.7791 -0.1413
  885MOL0     C16720   3.096   2.752   4.544 -0.4065 -0.9288  0.4398
  885MOL0     C16721   2.976   2.688   4.511  0.2955  0.2206 -0.2856
  885MOL0     C16722   2.904   2.743   4.406 -0.5670  0.3561  0.0906
  885MOL0     O16723   2.784   2.685   4.380 -0.4640 -0.5082 -0.7846
  885MOL0     C16724   2.723   2.713   4.257 -0.0153 -0.5181 -0.0746
  885MOL0     C16725   2.620   2.832   4.280  0.4410 -0.7702  1.0039
  885MOL0     C16726   2.527   2.837   4.153 -0.7094 -0.2482  0.9217
  885MOL0     C16727   2.425   2.959   4.165 -1.2399  0.3022 -0.4341
  885MOL0     C16728   2.337   2.970   4.039  0.6454  0.3508 -0.4239
  885MOL0     C16729   2.240   3.092   4.044 -0.2137 -1.0638  0.3296
  885MOL0     C16730   2.138   3.071   3.942 -0.2952  0.6222  0.1387
  885MOL0     C16731   2.024   3.166   3.964 -0.0131 -0.1400 -1.1483
  885MOL0    Cl16732   2.073   3.334   3.959  0.6031  0.0559  0.1197
  885MOL0     C16733   2.949   2.853   4.338 -0.4238  0.6893 -0.0131
  885MOL0     C16734   3.075   2.905   4.365  0.2869 -0.2220  0.7908
  885MOL0     O16735   3.195   3.072   4.610  1.1560 -0.3034 -0.3616
  885MOL0     C16736   3.473   3.154   4.671 -0.7296  0.0600  0.3966
  885MOL0     C16737   3.603   3.220   4.666 -0.3229 -0.2702 -0.7567
  885MOL0     N16738   4.102   2.782   4.553 -0.0411  0.3697 -0.7908
  885MOL0     N16739   4.182   2.767   4.661 -0.9939 -0.1843  0.2515
  885MOL0     C16740   5.301   3.188   4.463 -0.1300 -0.1705 -1.1837
  885MOL0     C16741   5.403   3.243   4.389  0.1558 -0.1801 -0.6525
  885MOL0     C16742   5.746   3.579   4.337 -0.1671 -0.6775 -0.1833
  885MOL0     C16743   5.805   3.691   4.272  0.0780 -0.4607  0.3897
  885MOL0     C16744   5.939   3.700   4.236  0.7311  0.1866 -0.5168
  885MOL0     C16745   6.019   3.586   4.260  0.9323 -0.6935  0.8477
  885MOL0     O16746   6.156   3.588   4.240  0.7878  0.1382 -0.3010
  885MOL0     C16747   6.224   3.709   4.200 -0.8178 -0.1255 -0.0246
  885MOL0     C16748   6.197   3.747   4.054 -0.2490  0.2780 -0.0026
  885MOL0     C16749   6.210   3.644   3.948  0.0442 -0.0122 -0.4197
  885MOL0     C16750   6.339   3.557   3.960  0.8669  0.4094 -0.4870
  885MOL0     C16751   6.459   3.632   3.922  0.1993 -0.3092 -1.9013
  885MOL0     C16752   6.558   3.684   3.874 -0.9877  0.8220 -0.2091
  885MOL0     C16753   5.960   3.475   4.313 -1.1537 -0.3350 -0.3339
  885MOL0     C16754   5.830   3.472   4.355  0.6842 -0.3161  0.7778
  885MOL0     H16755   5.478   3.505   4.595 -0.4591  1.3791 -2.6165
  885MOL0     H16756   5.322   3.410   4.722  0.9510  4.8589 -3.3887
  885MOL0     H16757   5.068   3.342   4.761 -0.4565  0.3564  3.0587
  885MOL0     H16758   5.192   3.275   4.863 -1.6864 -4.3842  2.4670
  885MOL0     H16759   5.007   3.204   4.963  3.4604 -0.1482  0.5956
  885MOL0     H16760   5.061   3.061   4.878  3.7448  1.3299  0.7801
  885MOL0     H16761   4.879   3.087   4.702 -0.0688 -3.0487  2.3184
  885MOL0     H16762   4.844   3.250   4.772  2.3473  2.0053  1.8658
  885MOL0     H16763   4.811   3.001   4.949 -3.2730  0.3569  3.6594
  885MOL0     H16764   4.738   3.153   4.970 -1.9841 -3.5378  3.2358
  885MOL0     H16765   4.678   2.939   4.767  3.1694  1.9770 -0.2839
  885MOL0     H16766   4.612   3.101   4.741 -0.2363  0.5362  0.4303
  885MOL0     H16767   4.500   3.081   4.963 -1.2774  2.2740 -2.7852
  885MOL0     H16768   4.537   2.900   4.964  2.0545 -0.7811 -2.1631
  885MOL0     H16769   4.309   2.941   4.872 -1.3095 -2.3420 -2.9903
  885MOL0     H16770   4.374   3.065   4.774  1.8719 -0.0001  0.2414
  885MOL0     H16771   4.419   2.761   4.783  0.9124 -1.5652 -1.7141
  885MOL0     H16772   4.492   2.869   4.658  0.7334  0.3498  1.2163
  885MOL0     H16773   4.332   3.004   4.482  1.0011  0.8139  2.1418
  885MOL0     H16774   4.029   2.860   4.314  1.2591 -0.5012 -1.2860
  885MOL0     H16775   4.176   2.935   4.253 -1.9388  2.7225 -1.3132
  885MOL0     H16776   4.016   3.118   4.243 -1.3679 -1.8386  0.0303
  885MOL0     H16777   4.144   3.143   4.360 -1.5155  1.5614  0.4802
  885MOL0     H16778   3.874   3.034   4.462 -0.7624  1.2262 -0.8082
  885MOL0     H16779   4.007   3.112   4.547  0.6907 -0.9924 -0.4020
  885MOL0     H16780   3.834   3.281   4.357 -0.6043 -1.0963  0.1713
  885MOL0     H16781   3.982   3.328   4.449  0.1360 -1.1258  0.3157
  885MOL0     H16782   3.679   3.137   4.348 -0.1267 -1.3865 -0.6921
  885MOL0     H16783   3.475   3.032   4.355 -0.4021  1.4771 -0.5254
  885MOL0     H16784   3.145   2.709   4.631 -2.6398 -2.5319  1.0111
  885MOL0     H16785   2.933   2.610   4.572 -0.4649 -0.9642 -2.2244
  885MOL0     H16786   2.670   2.624   4.223 -1.3274  0.0804  0.3179
  885MOL0     H16787   2.791   2.734   4.174  1.8931  0.8685  1.7219
  885MOL0     H16788   2.663   2.931   4.300 -1.8521  0.0126  2.3586
  885MOL0     H16789   2.558   2.811   4.367 -2.3494  0.3092 -0.6019
  885MOL0     H16790   2.478   2.740   4.140  0.3446 -0.9376  1.8678
  885MOL0     H16791   2.594   2.849   4.067 -0.0588 -2.1054  1.1174
  885MOL0     H16792   2.365   2.944   4.256  3.4578  0.8534  3.1495
  885MOL0     H16793   2.490   3.045   4.186  1.2533 -1.2235 -1.5538
  885MOL0     H16794   2.283   2.875   4.025  1.4379  0.0730 -1.9007
  885MOL0     H16795   2.406   2.968   3.954 -0.1988 -1.1174 -1.1167
  885MOL0     H16796   2.289   3.188   4.028 -1.8213 -0.0470  1.1876
  885MOL0     H16797   2.186   3.097   4.139  0.2199  4.6818  0.6178
  885MOL0     H16798   2.170   3.098   3.841 -0.8497 -0.1186 -0.2448
  885MOL0     H16799   2.092   2.972   3.944 -0.2648  0.5602 -1.1728
  885MOL0     H16800   1.977   3.150   4.061  0.3676 -0.1616 -0.9674
  885MOL0     H16801   1.946   3.156   3.887 -0.4443  1.4224 -0.9456
  885MOL0     H16802   2.898   2.916   4.267  0.3572  0.2164 -1.0340
  885MOL0     H16803   3.108   2.980   4.294 -0.3514  1.7084  2.4349
  885MOL0     H16804   3.409   3.169   4.757 -2.2614  3.7594 -1.2003
  885MOL0     H16805   3.631   3.280   4.752 -2.5840 -0.6272  0.3063
  885MOL0     H16806   5.268   3.095   4.418 -0.2585  0.5305 -2.5987
  885MOL0     H16807   5.438   3.184   4.306  2.1760  0.4340 -0.2863
  885MOL0     H16808   5.750   3.775   4.231 -0.4568 -0.3099  1.3811
  885MOL0     H16809   5.965   3.796   4.191  3.8408 -1.1660 -1.8839
  885MOL0     H16810   6.332   3.709   4.221 -0.9021  1.5289  0.5349
  885MOL0     H16811   6.175   3.788   4.258 -2.3491 -1.0774  0.0249
  885MOL0     H16812   6.097   3.791   4.053 -0.6006 -0.5063 -0.6835
  885MOL0     H16813   6.266   3.830   4.032 -0.5739  0.3499 -0.8040
  885MOL0     H16814   6.200   3.689   3.849 -1.7662 -0.1418 -0.3315
  885MOL0     H16815   6.118   3.589   3.971  0.2872 -0.5663 -0.7375
  885MOL0     H16816   6.359   3.506   4.054  2.8727 -2.4439 -2.2689
  885MOL0     H16817   6.324   3.472   3.892  1.9568 -1.2839  1.2781
  885MOL0     H16818   6.638   3.740   3.832 -0.4514  1.0347  1.0573
  885MOL0     H16819   6.028   3.399   4.350 -0.4657 -0.0368 -0.9626
  885MOL0     H16820   5.795   3.380   4.400  1.7230  0.2683  2.9175
  886MOL0     O16821   9.161   7.824   7.252 -0.1278 -0.0805  0.2519
  886MOL0     C16822   9.134   7.763   7.357  0.1855  0.5923 -0.4238
  886MOL0     O16823   9.071   7.812   7.475 -0.1353 -0.4029  0.7053
  886MOL0     C16824   9.035   7.948   7.469  0.1639  0.1678  0.2751
  886MOL0     C16825   9.113   8.054   7.521  0.7860 -0.2356  0.4025
  886MOL0     C16826   9.080   8.189   7.488  0.0758  0.2615 -0.6220
  886MOL0     C16827   8.974   8.222   7.406  0.1522 -0.1024 -0.2208
  886MOL0     O16828   8.950   8.348   7.355  0.1855 -0.4555 -0.0117
  886MOL0     C16829   9.058   8.438   7.329  0.1958  0.0798  0.5924
  886MOL0     C16830   9.016   8.557   7.247  0.4810  0.6636 -0.3656
  886MOL0     C16831   9.146   8.633   7.213  0.1146 -0.0527  0.3658
  886MOL0     C16832   9.126   8.765   7.129 -0.3058 -0.9208  0.1360
  886MOL0     C16833   9.246   8.862   7.138 -0.0386  0.3478  0.1815
  886MOL0     C16834   9.368   8.802   7.081  0.5325  0.7371 -0.4352
  886MOL0     C16835   9.479   8.907   7.055 -0.0898  0.2867  0.2099
  886MOL0     C16836   9.603   8.852   6.989  0.0463 -0.0807  0.1125
  886MOL0     N16837   9.575   8.804   6.851 -1.4816  0.6207 -0.5491
  886MOL0     C16838   9.550   8.680   6.796 -0.0469 -0.3813 -0.3634
  886MOL0     C16839   9.535   8.703   6.664 -0.3163  0.2534  0.3810
  886MOL0     C16840   9.490   8.597   6.570  0.4042 -0.8010  0.7716
  886MOL0     C16841   9.601   8.510   6.509  0.2123 -0.8930  0.3236
  886MOL0     C16842   9.544   8.366   6.490  0.4828  0.1225 -0.7938
  886MOL0     C16843   9.650   8.264   6.449  0.1896  0.3306 -0.2672
  886MOL0     O16844   9.681   8.303   6.311  0.8533 -0.1045  0.4295
  886MOL0     C16845   9.799   8.358   6.278 -0.6954 -0.3754  0.7686
  886MOL0     C16846   9.796   8.432   6.158  0.6762  0.8458 -0.5724
  886MOL0     C16847   9.912   8.497   6.099 -0.7535  0.1723  0.6081
  886MOL0     C16848  10.036   8.473   6.163 -0.1770  0.6543  0.2392
  886MOL0     C16849  10.165   8.498   6.091  0.5839  0.0642  0.1346
  886MOL0     O16850  10.145   8.565   5.967  0.4138 -0.7139  0.2324
  886MOL0     C16851  10.237   8.641   5.897  0.5632  0.0267 -0.4122
  886MOL0     C16852  10.377   8.631   5.909  0.2242 -0.4447  0.2530
  886MOL0     C16853  10.459   8.709   5.829 -0.7140 -0.1188 -0.1554
  886MOL0     C16854  10.417   8.819   5.756 -0.0892 -0.4641  0.2562
  886MOL0     O16855  10.498   8.889   5.674 -0.5203  0.6800  0.3706
  886MOL0     C16856  10.479   9.033   5.661 -0.4613 -0.9149  0.0472
  886MOL0     C16857  10.586   9.094   5.576 -0.7333 -0.2159 -0.3265
  886MOL0     C16858  10.708   9.138   5.659 -0.1235 -0.1898  0.4430
  886MOL0     C16859  10.790   9.020   5.712 -0.7941  0.0561  0.5770
  886MOL0     C16860  10.927   9.066   5.768 -0.1820 -0.0796 -0.3008
  886MOL0     C16861  11.035   9.151   5.697 -0.1158  0.0014  0.3599
  886MOL0     C16862  11.116   9.081   5.595 -0.6297 -0.5001  0.8113
  886MOL0     C16863  11.228   9.171   5.540  0.1532 -0.9855 -0.8222
  886MOL0    Cl16864  11.288   9.086   5.404  0.0283 -0.0955  0.1000
  886MOL0     C16865  10.279   8.837   5.752  0.0126  0.3768  0.1163
  886MOL0     C16866  10.186   8.747   5.820  0.2085  0.1028  0.5826
  886MOL0     O16867  10.271   8.467   6.151 -0.0672 -0.7675 -0.6895
  886MOL0     C16868  10.031   8.395   6.284 -0.4439 -0.1890  0.1691
  886MOL0     C16869   9.923   8.338   6.343  0.2810  0.2112 -0.1019
  886MOL0     N16870   9.542   8.839   6.635  0.8880  0.2513  0.6555
  886MOL0     N16871   9.573   8.892   6.746 -0.5566  0.4965 -0.2362
  886MOL0     C16872   8.901   8.112   7.368  0.1370 -0.6799 -0.4787
  886MOL0     C16873   8.928   7.978   7.390 -0.0792 -0.2969  0.3130
  886MOL0     C16874   9.164   7.619   7.363  0.0129  0.4519 -0.1732
  886MOL0     C16875   9.130   7.544   7.476  0.3825  0.8776 -1.0241
  886MOL0     C16876   9.143   7.402   7.476  0.4757  1.1066  0.9007
  886MOL0     C16877   9.194   7.342   7.361 -0.0199  0.7449  0.8169
  886MOL0     O16878   9.206   7.200   7.360 -0.0787  0.2615 -0.7562
  886MOL0     C16879   9.095   7.122   7.406  0.4238 -0.6900 -0.0638
  886MOL0     C16880   9.113   6.966   7.392  1.1568 -0.0735 -0.4731
  886MOL0     C16881   8.973   6.895   7.409 -0.7347  0.3141  0.4603
  886MOL0     C16882   8.952   6.775   7.319  0.3729  0.3834 -0.0190
  886MOL0     C16883   9.034   6.673   7.382 -0.1802  0.4055 -0.5803
  886MOL0     C16884   9.108   6.592   7.423  1.0791  0.3066 -0.3375
  886MOL0     C16885   9.238   7.419   7.246 -0.4937 -0.1594 -1.0814
  886MOL0     C16886   9.223   7.559   7.251 -0.5127 -0.0523 -0.7587
  886MOL0     H16887   9.194   8.040   7.591  1.0473  3.1541  0.9619
  886MOL0     H16888   9.134   8.274   7.528 -0.0467  0.8965 -1.7660
  886MOL0     H16889   9.126   8.390   7.258  2.4744 -0.1793  2.8432
  886MOL0     H16890   9.113   8.469   7.418 -0.8948  0.7129  1.0715
  886MOL0     H16891   8.945   8.618   7.304 -2.0761  0.0401 -2.6834
  886MOL0     H16892   8.968   8.526   7.154  1.8976  3.7119 -2.2446
  886MOL0     H16893   9.216   8.568   7.160  0.4425  0.7095 -0.1665
  886MOL0     H16894   9.190   8.661   7.309 -0.7380  1.2211  0.4063
  886MOL0     H16895   9.115   8.730   7.026 -0.7380 -0.4996  0.0329
  886MOL0     H16896   9.033   8.810   7.165 -0.3613 -1.3980  0.6069
  886MOL0     H16897   9.257   8.890   7.243 -0.9229 -0.5290  0.5260
  886MOL0     H16898   9.210   8.945   7.076 -2.3097 -2.1020 -2.0453
  886MOL0     H16899   9.342   8.760   6.983  2.1259  1.2955 -1.1387
  886MOL0     H16900   9.396   8.720   7.147  0.6320  1.6518  0.6825
  886MOL0     H16901   9.441   8.988   6.991  2.2921  2.5142  1.4274
  886MOL0     H16902   9.511   8.947   7.151  0.4507 -0.5210  0.3781
  886MOL0     H16903   9.647   8.781   7.060  1.5155 -0.3430 -1.0018
  886MOL0     H16904   9.680   8.930   6.991  0.7613 -0.4220 -4.2420
  886MOL0     H16905   9.558   8.590   6.855  1.3921 -0.2909 -0.3854
  886MOL0     H16906   9.438   8.646   6.487  0.0972 -0.9896  0.8527
  886MOL0     H16907   9.420   8.531   6.623 -2.3728  0.7034 -0.7681
  886MOL0     H16908   9.679   8.499   6.586  0.8058 -1.8908 -0.3894
  886MOL0     H16909   9.646   8.557   6.421  1.7287 -0.1297  1.4559
  886MOL0     H16910   9.504   8.331   6.586  1.6498  0.8589 -0.0083
  886MOL0     H16911   9.457   8.378   6.425  1.1705 -0.1913 -1.7812
  886MOL0     H16912   9.596   8.169   6.457 -4.1750  2.6032  0.7021
  886MOL0     H16913   9.744   8.267   6.505 -0.0761  1.9264  0.1336
  886MOL0     H16914   9.699   8.433   6.111 -0.3170 -1.7944  1.1761
  886MOL0     H16915   9.904   8.555   6.007 -1.1870 -2.5010 -1.1584
  886MOL0     H16916  10.416   8.543   5.959 -0.6256 -1.0416 -0.1206
  886MOL0     H16917  10.567   8.701   5.839 -0.4734  2.5137  0.2050
  886MOL0     H16918  10.486   9.091   5.753  0.7894  1.4093 -1.4155
  886MOL0     H16919  10.383   9.049   5.613 -1.3592  0.9615  2.3183
  886MOL0     H16920  10.549   9.184   5.526  2.3386  1.6477  0.4735
  886MOL0     H16921  10.631   9.022   5.508  1.6648  0.6862  0.2249
  886MOL0     H16922  10.669   9.204   5.737  0.2320 -0.7389  1.0951
  886MOL0     H16923  10.773   9.199   5.596  0.3571 -0.5782  0.5556
  886MOL0     H16924  10.736   8.968   5.792  0.6408 -0.7481  1.0470
  886MOL0     H16925  10.803   8.943   5.635  1.8627 -0.5678  1.5810
  886MOL0     H16926  10.966   8.991   5.838 -0.0264  1.1623  0.9911
  886MOL0     H16927  10.890   9.134   5.845 -0.1873  1.2381 -1.4393
  886MOL0     H16928  11.102   9.200   5.769  1.9596 -3.0989  0.7221
  886MOL0     H16929  10.987   9.236   5.647 -1.2803 -1.1926 -0.5999
  886MOL0     H16930  11.140   8.989   5.649 -1.6905 -1.0389  0.3924
  886MOL0     H16931  11.055   9.042   5.513  1.0920  0.4478 -1.0012
  886MOL0     H16932  11.312   9.179   5.610 -2.5550  0.5039  2.5423
  886MOL0     H16933  11.188   9.271   5.520 -0.8069 -1.0927  0.4352
  886MOL0     H16934  10.242   8.917   5.689  2.2276  0.0097 -1.7782
  886MOL0     H16935  10.078   8.762   5.815  0.3622  1.0714 -0.1382
  886MOL0     H16936  10.117   8.409   6.349  1.5935  1.0759 -2.6293
  886MOL0     H16937   9.941   8.294   6.441 -0.8102  2.0911  1.0118
  886MOL0     H16938   8.809   8.133   7.313  0.9965 -0.4002 -1.8567
  886MOL0     H16939   8.854   7.906   7.358 -2.3134  2.2730 -0.7262
  886MOL0     H16940   9.105   7.581   7.575  1.9368  1.7996 -0.9533
  886MOL0     H16941   9.116   7.336   7.558  1.4825 -3.8595 -2.3211
  886MOL0     H16942   9.008   7.156   7.350 -0.8120 -2.1147  0.9398
  886MOL0     H16943   9.071   7.142   7.511 -0.3024 -0.8015 -0.2032
  886MOL0     H16944   9.143   6.971   7.287  2.3780  1.1065 -0.0904
  886MOL0     H16945   9.195   6.918   7.446  1.3568  0.0548 -0.6604
  886MOL0     H16946   8.896   6.971   7.391  2.3624  4.5760  3.2997
  886MOL0     H16947   8.958   6.876   7.515 -0.6929 -0.1905  0.3778
  886MOL0     H16948   8.848   6.748   7.302  0.2095  2.1476 -2.2944
  886MOL0     H16949   8.988   6.807   7.221 -0.6965  1.8133  0.0260
  886MOL0     H16950   9.181   6.520   7.452 -1.4178 -2.5917 -0.7236
  886MOL0     H16951   9.282   7.368   7.161  1.5846  0.0306 -0.1919
  886MOL0     H16952   9.266   7.612   7.167  1.0405 -1.7527 -1.1198
  887MOL0     O16953   7.988   3.114   4.892 -0.4535 -1.2665  0.3428
  887MOL0     C16954   7.954   3.225   4.926 -0.3658  0.1212  0.1591
  887MOL0     O16955   8.032   3.334   4.920  0.1684  0.2538  0.4893
  887MOL0     C16956   8.164   3.299   4.897 -1.0758 -1.0621  0.8911
  887MOL0     C16957   8.252   3.230   4.977  0.4464  0.7297  0.2655
  887MOL0     C16958   8.382   3.236   4.940 -0.2283  0.0793 -0.2908
  887MOL0     C16959   8.427   3.287   4.822 -0.5279  0.0114  0.5629
  887MOL0     O16960   8.551   3.270   4.779  0.2069  0.0846 -0.1416
  887MOL0     C16961   8.563   3.155   4.690  0.1779 -0.0246 -0.4391
  887MOL0     C16962   8.586   3.206   4.547  0.9966  0.7204  0.4639
  887MOL0     C16963   8.695   3.323   4.540  0.3891 -0.1684 -1.0765
  887MOL0     C16964   8.828   3.271   4.520  0.1065 -0.3892 -0.6091
  887MOL0     C16965   8.930   3.397   4.518  0.4578  0.1233 -0.4102
  887MOL0     C16966   9.079   3.354   4.524  0.4241  0.6791 -0.2947
  887MOL0     C16967   9.171   3.475   4.516 -0.1733  0.1751 -0.1816
  887MOL0     C16968   9.304   3.436   4.569  0.1077 -0.0062 -0.2987
  887MOL0     N16969   9.385   3.557   4.571  0.1210 -0.6012 -0.6119
  887MOL0     C16970   9.436   3.616   4.686 -0.3228  0.2959  0.3574
  887MOL0     C16971   9.513   3.732   4.646 -0.4067  0.4097  0.1426
  887MOL0     C16972   9.590   3.819   4.744  0.7019  0.0015 -0.2957
  887MOL0     C16973   9.718   3.734   4.790 -0.2643 -0.8376  0.2859
  887MOL0     C16974   9.803   3.812   4.877 -0.6696  1.0784  0.1785
  887MOL0     C16975   9.926   3.735   4.923  0.6437  0.0773 -1.2181
  887MOL0     O16976  10.013   3.725   4.809  0.9750 -0.1049 -1.1120
  887MOL0     C16977  10.144   3.684   4.820  0.6629  0.1747 -0.3296
  887MOL0     C16978  10.211   3.643   4.937  0.4940 -0.0790 -0.2392
  887MOL0     C16979  10.351   3.609   4.948  0.0951 -1.0531 -0.2544
  887MOL0     C16980  10.427   3.607   4.827 -0.1083  0.2570 -0.1058
  887MOL0     C16981  10.563   3.566   4.823 -0.3523 -0.5194  0.0635
  887MOL0     O16982  10.639   3.586   4.939 -0.2700 -0.0321  1.0447
  887MOL0     C16983  10.768   3.547   4.940 -0.0888  0.5410 -0.3892
  887MOL0     C16984  10.813   3.448   5.021  0.8156  0.4996 -0.1163
  887MOL0     C16985  10.947   3.407   5.034  0.3964 -0.0246 -0.9471
  887MOL0     C16986  11.050   3.474   4.957 -0.2205  1.1495  1.1452
  887MOL0     O16987  11.180   3.437   4.979  0.8490  0.0715  0.3352
  887MOL0     C16988  11.293   3.515   4.918 -0.2875 -0.8237 -0.8087
  887MOL0     C16989  11.426   3.488   4.996 -0.7681 -0.7566  0.4762
  887MOL0     C16990  11.548   3.560   4.952 -0.3502 -0.5671 -0.1686
  887MOL0     C16991  11.662   3.484   5.029 -0.6723  0.0867  0.6334
  887MOL0     C16992  11.794   3.568   5.041 -1.1522  0.4111  0.0043
  887MOL0     C16993  11.912   3.483   5.105  0.6408 -0.5062  0.6541
  887MOL0     C16994  12.050   3.530   5.070 -1.0352  0.5746  0.3960
  887MOL0     C16995  12.170   3.451   5.134  0.7473 -0.1622  0.8760
  887MOL0    Cl16996  12.181   3.459   5.310  0.0324 -0.5299 -0.0712
  887MOL0     C16997  11.005   3.590   4.888  0.5335  0.1075 -0.3710
  887MOL0     C16998  10.864   3.621   4.873  0.1500 -0.5822 -0.4300
  887MOL0     O16999  10.596   3.500   4.723 -0.1499  0.2195 -0.3074
  887MOL0     C17000  10.364   3.651   4.711  1.0448  0.5683  0.3226
  887MOL0     C17001  10.226   3.691   4.707  0.1522  0.7656 -0.3207
  887MOL0     N17002   9.506   3.729   4.512 -0.2296 -1.2708  0.6435
  887MOL0     N17003   9.429   3.632   4.460 -0.8686  0.0541 -0.1434
  887MOL0     C17004   8.347   3.355   4.738  0.7269  0.5569  0.3111
  887MOL0     C17005   8.212   3.355   4.773 -0.5954  0.8856 -0.1045
  887MOL0     C17006   7.814   3.233   4.973  1.5546  0.3223  0.3949
  887MOL0     C17007   7.733   3.118   4.976  0.0596 -0.0894 -1.2127
  887MOL0     C17008   7.604   3.124   5.030  0.3381 -1.2031  0.0062
  887MOL0     C17009   7.544   3.245   5.077  0.3784  0.0161 -0.0584
  887MOL0     O17010   7.427   3.249   5.148 -0.0485  0.5748  0.0378
  887MOL0     C17011   7.398   3.359   5.225 -0.0163  0.3540  0.3698
  887MOL0     C17012   7.274   3.323   5.315 -0.1458  0.9148  0.2739
  887MOL0     C17013   7.234   3.447   5.392 -0.1417  0.1626 -0.8518
  887MOL0     C17014   7.092   3.462   5.431  0.2594 -0.2984 -0.8912
  887MOL0     C17015   7.032   3.344   5.509 -0.7845  0.0033  0.1347
  887MOL0     C17016   6.999   3.256   5.582  0.2418  0.2471  0.9810
  887MOL0     C17017   7.633   3.355   5.065  0.1544  0.5620  0.4982
  887MOL0     C17018   7.764   3.354   5.020  0.3805 -0.4655  0.2356
  887MOL0     H17019   8.209   3.196   5.071 -1.7117  0.1723 -0.8495
  887MOL0     H17020   8.460   3.186   4.996 -2.0894 -1.4039  1.1026
  887MOL0     H17021   8.481   3.083   4.698 -2.3545  2.6852  0.0896
  887MOL0     H17022   8.654   3.101   4.717 -0.3826 -1.0815 -0.6163
  887MOL0     H17023   8.486   3.230   4.510  0.4042  0.2198  1.6767
  887MOL0     H17024   8.624   3.122   4.489  2.3232  1.3649  0.3794
  887MOL0     H17025   8.689   3.394   4.623 -0.2398 -0.2418 -1.0551
  887MOL0     H17026   8.665   3.375   4.449 -0.7277 -0.7523 -1.0565
  887MOL0     H17027   8.858   3.201   4.598 -1.3336 -0.6668 -0.2760
  887MOL0     H17028   8.827   3.222   4.422 -0.4058  0.1463 -0.8756
  887MOL0     H17029   8.907   3.459   4.605 -1.5150 -0.1658 -0.6838
  887MOL0     H17030   8.911   3.459   4.430 -2.1064 -0.9679 -0.7109
  887MOL0     H17031   9.100   3.294   4.434 -1.0995  0.7464 -0.7212
  887MOL0     H17032   9.116   3.307   4.616  1.6697  3.0584  0.5017
  887MOL0     H17033   9.176   3.502   4.410  0.5103 -2.0630 -0.7687
  887MOL0     H17034   9.126   3.562   4.565 -1.0281  0.2769 -1.1167
  887MOL0     H17035   9.356   3.361   4.509  2.0374  1.1283 -0.1436
  887MOL0     H17036   9.306   3.396   4.671  2.1574  1.2703  0.2226
  887MOL0     H17037   9.425   3.584   4.790  2.0190 -1.3095  0.1794
  887MOL0     H17038   9.524   3.837   4.829 -1.1698  1.9188 -2.0411
  887MOL0     H17039   9.604   3.920   4.704  1.4265 -0.3781 -1.0094
  887MOL0     H17040   9.782   3.713   4.704  0.3733  0.7901  0.3130
  887MOL0     H17041   9.690   3.639   4.835  0.0327 -0.2153  1.8498
  887MOL0     H17042   9.847   3.892   4.816  4.9297 -0.5213  1.5004
  887MOL0     H17043   9.759   3.850   4.970  1.9438  0.1864  1.8763
  887MOL0     H17044   9.908   3.636   4.965  0.8455 -0.4633 -2.3476
  887MOL0     H17045   9.986   3.801   4.986  2.0283  0.7837 -3.1602
  887MOL0     H17046  10.142   3.647   5.021 -1.4806 -2.0130 -1.6734
  887MOL0     H17047  10.381   3.575   5.047  0.8963  3.4511  1.3082
  887MOL0     H17048  10.736   3.395   5.076  0.7694  0.3232 -0.3462
  887MOL0     H17049  10.985   3.331   5.101  0.1399  3.0763  3.0927
  887MOL0     H17050  11.274   3.622   4.925  0.3023 -0.3752 -4.2041
  887MOL0     H17051  11.297   3.491   4.811 -2.0151 -0.1929 -1.0428
  887MOL0     H17052  11.430   3.378   5.002  0.4851 -0.6537  2.2227
  887MOL0     H17053  11.411   3.526   5.097  1.6113 -1.1012  1.0346
  887MOL0     H17054  11.548   3.667   4.974  0.2917 -0.4964 -0.4763
  887MOL0     H17055  11.561   3.554   4.844  0.2863  3.3630 -0.4511
  887MOL0     H17056  11.625   3.449   5.126 -1.1648 -0.6297  0.1950
  887MOL0     H17057  11.685   3.391   4.977  0.4985  0.3725  0.6159
  887MOL0     H17058  11.788   3.660   5.099  1.2380  1.6026 -1.4504
  887MOL0     H17059  11.833   3.586   4.940 -1.1207 -0.3275 -0.1259
  887MOL0     H17060  11.899   3.382   5.067  1.1353  0.0427 -1.0965
  887MOL0     H17061  11.890   3.485   5.212  0.3701  5.0372  0.7769
  887MOL0     H17062  12.056   3.525   4.961 -0.2461 -1.6012  0.4822
  887MOL0     H17063  12.074   3.631   5.103  1.0498  0.8321 -1.6977
  887MOL0     H17064  12.264   3.496   5.101 -0.2522  2.4081  1.2675
  887MOL0     H17065  12.173   3.343   5.116 -2.0573 -0.2666  0.5004
  887MOL0     H17066  11.068   3.651   4.824  1.1623 -1.6098 -1.4460
  887MOL0     H17067  10.820   3.701   4.815  2.4930 -0.3983 -2.0925
  887MOL0     H17068  10.408   3.678   4.616 -2.0193 -1.0103 -1.6922
  887MOL0     H17069  10.185   3.717   4.610 -1.6996 -1.4597 -0.2514
  887MOL0     H17070   8.359   3.397   4.639 -0.1945  1.1939  0.4620
  887MOL0     H17071   8.148   3.385   4.690 -4.4681 -1.5924  1.6688
  887MOL0     H17072   7.754   3.016   4.946 -1.0191 -0.0853 -2.0087
  887MOL0     H17073   7.532   3.043   5.028 -1.0098 -0.0207 -0.8182
  887MOL0     H17074   7.387   3.450   5.164  2.1538  0.7298  0.4576
  887MOL0     H17075   7.475   3.376   5.301 -1.1306  1.1407  1.3659
  887MOL0     H17076   7.181   3.304   5.261 -1.6154  6.7263  0.0161
  887MOL0     H17077   7.299   3.240   5.382 -1.4657 -0.1862 -0.5434
  887MOL0     H17078   7.267   3.532   5.332  1.2333 -0.7797 -1.4734
  887MOL0     H17079   7.287   3.445   5.488  0.9156  2.6807 -1.3017
  887MOL0     H17080   7.086   3.553   5.492  0.1353 -1.1059  0.3344
  887MOL0     H17081   7.031   3.479   5.343 -1.1793  1.1671  0.3266
  887MOL0     H17082   6.944   3.180   5.634  0.4476 -0.1509  0.6222
  887MOL0     H17083   7.582   3.447   5.090 -2.3557 -0.3990 -0.7644
  887MOL0     H17084   7.815   3.448   5.003 -0.3835 -0.3672 -1.7248
  888MOL0     O17085  10.502   8.793   5.334 -0.0268  0.6600  0.9237
  888MOL0     C17086  10.515   8.675   5.304 -0.5825 -0.2548  0.2612
  888MOL0     O17087  10.600   8.627   5.208 -0.2973  0.7029  0.3220
  888MOL0     C17088  10.698   8.709   5.166 -1.6676 -1.6058  0.4858
  888MOL0     C17089  10.727   8.714   5.031 -0.4116  0.3642 -0.8138
  888MOL0     C17090  10.842   8.783   4.976  1.2544 -0.3413 -0.5212
  888MOL0     C17091  10.935   8.838   5.052 -0.7431  0.5574 -0.0427
  888MOL0     O17092  11.042   8.910   5.013 -0.4621  0.2956 -0.0482
  888MOL0     C17093  11.062   8.946   4.877  0.3687 -0.1098  0.4422
  888MOL0     C17094  11.139   9.083   4.871  0.6028 -0.1856  0.2257
  888MOL0     C17095  11.164   9.136   4.732  0.0519  0.1569 -0.3540
  888MOL0     C17096  11.258   9.059   4.638 -0.2393  0.6426  0.2211
  888MOL0     C17097  11.266   9.128   4.498  0.2937 -0.6169 -0.5004
  888MOL0     C17098  11.334   9.034   4.393  0.5255 -0.0898 -0.1672
  888MOL0     C17099  11.481   9.019   4.412  0.2057  0.1600  0.0789
  888MOL0     C17100  11.565   9.139   4.350  0.3279  0.1296 -0.8676
  888MOL0     N17101  11.706   9.126   4.399  0.5454 -0.4437  0.5216
  888MOL0     C17102  11.808   9.062   4.336 -0.3999 -0.5538 -0.2246
  888MOL0     C17103  11.921   9.095   4.408 -0.2786  0.1423 -0.2615
  888MOL0     C17104  12.063   9.035   4.399  1.2716 -0.0447 -0.0095
  888MOL0     C17105  12.164   9.144   4.357  0.0839 -0.4278 -1.0749
  888MOL0     C17106  12.185   9.270   4.453  0.3370 -0.8656  0.1667
  888MOL0     C17107  12.305   9.347   4.403 -0.2491 -1.4362  0.2443
  888MOL0     O17108  12.429   9.309   4.467 -0.7884 -0.4763  0.6543
  888MOL0     C17109  12.554   9.362   4.432  0.5350 -0.5147 -0.7360
  888MOL0     C17110  12.655   9.354   4.531 -0.4749  0.9643  0.1229
  888MOL0     C17111  12.768   9.432   4.518 -0.4261  0.0691 -0.0355
  888MOL0     C17112  12.788   9.521   4.408 -0.7227  0.4209  0.4093
  888MOL0     C17113  12.898   9.620   4.403 -0.3699  0.8472 -0.7478
  888MOL0     O17114  12.917   9.688   4.283 -0.5224  0.9639  0.3422
  888MOL0     C17115  13.026   9.765   4.272 -0.0668 -0.4253  0.4994
  888MOL0     C17116  13.127   9.730   4.197  1.1889 -0.2313  0.9469
  888MOL0     C17117  13.243   9.811   4.187  0.5156  0.3241  0.9708
  888MOL0     C17118  13.264   9.933   4.258 -0.0765  0.1632  0.4173
  888MOL0     O17119  13.371  10.017   4.244 -0.6445  0.2255 -0.3009
  888MOL0     C17120  13.478   9.985   4.150  1.3025 -0.2972 -0.1013
  888MOL0     C17121  13.587  10.081   4.167 -0.5192  0.2675  0.5151
  888MOL0     C17122  13.666  10.035   4.287  0.5994  0.2684 -0.3110
  888MOL0     C17123  13.807  10.098   4.291  0.1738  0.0210  0.8054
  888MOL0     C17124  13.872  10.070   4.425  0.2743  0.5315  0.1124
  888MOL0     C17125  14.005  10.159   4.449 -0.8529 -0.2882  0.5137
  888MOL0     C17126  14.128  10.084   4.387 -0.1943 -0.1905  0.3055
  888MOL0     C17127  14.258  10.152   4.424 -0.8400  0.5858 -0.1642
  888MOL0    Cl17128  14.399  10.064   4.379  0.1576  0.0185  0.1417
  888MOL0     C17129  13.150   9.978   4.324 -0.0557  0.3645 -0.9635
  888MOL0     C17130  13.034   9.895   4.337  0.3635  0.0424 -0.4920
  888MOL0     O17131  12.964   9.632   4.504 -0.8899 -0.4113  0.0418
  888MOL0     C17132  12.686   9.519   4.307 -0.1395  0.2162 -0.2607
  888MOL0     C17133  12.570   9.439   4.322 -1.2643  0.5999  0.7544
  888MOL0     N17134  11.879   9.179   4.509 -0.1734 -0.7274 -0.1938
  888MOL0     N17135  11.750   9.192   4.504  1.0794  0.1451  0.0951
  888MOL0     C17136  10.907   8.834   5.187  0.4554  0.0261 -0.3743
  888MOL0     C17137  10.803   8.763   5.244 -1.0813 -0.6055 -0.5320
  888MOL0     C17138  10.429   8.571   5.366  0.3238 -0.3203  0.2004
  888MOL0     C17139  10.428   8.430   5.336  0.4506  0.0271  0.3390
  888MOL0     C17140  10.345   8.340   5.400  1.3635  0.3007  0.1755
  888MOL0     C17141  10.257   8.378   5.497 -0.4141  0.3747  0.0109
  888MOL0     O17142  10.198   8.278   5.573 -0.1565 -0.2181 -0.4034
  888MOL0     C17143  10.142   8.309   5.701  0.5604 -0.7106  0.2440
  888MOL0     C17144  10.073   8.190   5.762 -0.3659 -0.3037 -1.5328
  888MOL0     C17145   9.996   8.229   5.893 -0.4668  0.4570 -0.0658
  888MOL0     C17146   9.928   8.102   5.949  0.3827 -0.5250  0.9318
  888MOL0     C17147  10.036   8.024   6.015  0.9643 -0.5200  1.6470
  888MOL0     C17148  10.121   7.954   6.062 -0.1956 -0.8338  0.1343
  888MOL0     C17149  10.247   8.515   5.524 -0.8326  0.7997 -1.1046
  888MOL0     C17150  10.333   8.605   5.467  0.4903  0.0542 -0.1922
  888MOL0     H17151  10.646   8.676   4.969 -0.8429  0.8207 -0.5369
  888MOL0     H17152  10.825   8.786   4.869 -1.7851 -1.6904 -0.1769
  888MOL0     H17153  10.966   8.962   4.828  0.6220 -0.0833 -0.0531
  888MOL0     H17154  11.121   8.873   4.821  0.2415  0.8269 -0.9591
  888MOL0     H17155  11.243   9.075   4.904  0.4038 -1.4855  0.6022
  888MOL0     H17156  11.081   9.153   4.931 -2.5154 -2.8013  0.5059
  888MOL0     H17157  11.216   9.231   4.743  0.6663 -0.1726 -0.3769
  888MOL0     H17158  11.069   9.156   4.681 -0.9905  0.4672  1.6238
  888MOL0     H17159  11.359   9.066   4.678 -0.3561  1.7177  0.3732
  888MOL0     H17160  11.229   8.954   4.634  2.4062 -0.1174 -1.5700
  888MOL0     H17161  11.320   9.223   4.490  1.2708 -1.0175  0.9135
  888MOL0     H17162  11.162   9.158   4.482  0.5058  0.7224  0.4320
  888MOL0     H17163  11.306   9.075   4.295 -2.6450  2.2238  1.5179
  888MOL0     H17164  11.289   8.934   4.388 -2.8694  1.3225 -3.3563
  888MOL0     H17165  11.511   9.005   4.516  0.1698 -3.9944 -0.3110
  888MOL0     H17166  11.501   8.923   4.364  0.1447 -1.8413  3.7115
  888MOL0     H17167  11.513   9.232   4.374 -3.9915 -2.4190  0.9467
  888MOL0     H17168  11.554   9.124   4.242 -2.2142 -0.2092 -0.6230
  888MOL0     H17169  11.798   8.990   4.256  2.1040 -2.6026  1.1446
  888MOL0     H17170  12.064   8.960   4.319 -0.1423  0.9315 -0.9885
  888MOL0     H17171  12.096   8.992   4.494 -0.2149 -1.0438  0.0714
  888MOL0     H17172  12.147   9.186   4.257  3.7188  0.2136 -1.5904
  888MOL0     H17173  12.262   9.095   4.356  0.4454  0.1223  1.4982
  888MOL0     H17174  12.090   9.325   4.457  1.4194  1.2030 -1.1434
  888MOL0     H17175  12.194   9.235   4.556 -3.1964  1.3198  1.4198
  888MOL0     H17176  12.291   9.452   4.431 -2.2428 -2.0679  1.8344
  888MOL0     H17177  12.309   9.350   4.294 -0.3373  2.9583  0.1568
  888MOL0     H17178  12.653   9.288   4.618 -1.3004  0.1281 -0.5020
  888MOL0     H17179  12.841   9.432   4.599  1.1563  1.7636 -1.3538
  888MOL0     H17180  13.114   9.637   4.143  0.8243  0.8975 -1.0188
  888MOL0     H17181  13.325   9.769   4.131 -1.3415 -0.4026 -1.3607
  888MOL0     H17182  13.438   9.986   4.048 -0.7736  0.6205  0.6758
  888MOL0     H17183  13.510   9.883   4.172  2.0202 -0.2029 -0.6577
  888MOL0     H17184  13.545  10.180   4.189 -1.6199 -0.1780  0.4631
  888MOL0     H17185  13.650  10.086   4.078  0.8280  0.2087  1.4477
  888MOL0     H17186  13.684   9.927   4.287 -2.4323 -0.3198 -0.6222
  888MOL0     H17187  13.606  10.063   4.373 -0.5166  0.2740 -1.0803
  888MOL0     H17188  13.874  10.053   4.217 -0.7878 -0.9043  0.4686
  888MOL0     H17189  13.803  10.207   4.284  2.5248  0.0587 -2.1129
  888MOL0     H17190  13.898   9.966   4.446 -0.4021 -0.1183 -2.0539
  888MOL0     H17191  13.802  10.098   4.505  2.9388  2.0142  2.0709
  888MOL0     H17192  14.009  10.163   4.558  0.1683  2.4478  0.4552
  888MOL0     H17193  13.990  10.262   4.416 -1.7633 -1.0885 -1.7431
  888MOL0     H17194  14.118   9.983   4.428  0.7369  0.5801  2.5564
  888MOL0     H17195  14.120  10.084   4.278 -5.6397  2.3053  0.3909
  888MOL0     H17196  14.243  10.176   4.529  1.3508  1.4585 -0.0056
  888MOL0     H17197  14.266  10.248   4.372  1.7210  1.3989  1.5200
  888MOL0     H17198  13.154  10.078   4.367  1.0270  2.1271 -4.7296
  888MOL0     H17199  12.946   9.917   4.396 -1.9964  1.6763 -4.2039
  888MOL0     H17200  12.696   9.568   4.210  1.1276 -0.4606 -0.4979
  888MOL0     H17201  12.497   9.441   4.242  0.7582 -0.2265 -1.1976
  888MOL0     H17202  10.980   8.887   5.247  1.7123 -1.1525 -0.8027
  888MOL0     H17203  10.803   8.762   5.353  2.9466  0.9437 -0.3388
  888MOL0     H17204  10.483   8.394   5.249 -2.0424 -1.9076 -0.5586
  888MOL0     H17205  10.365   8.235   5.382  4.0053  0.4630  1.7019
  888MOL0     H17206  10.078   8.397   5.687  0.3876 -0.5466  1.8434
  888MOL0     H17207  10.225   8.329   5.769 -0.3097 -1.2004  1.4998
  888MOL0     H17208  10.003   8.148   5.688  1.1492  0.7898 -3.7044
  888MOL0     H17209  10.149   8.113   5.776  1.6596  1.8317 -0.2063
  888MOL0     H17210   9.920   8.303   5.866 -1.5540 -0.7754 -0.4891
  888MOL0     H17211  10.076   8.270   5.955  0.1521 -0.7088 -0.0599
  888MOL0     H17212   9.851   8.135   6.019 -1.2157  3.6711 -2.3411
  888MOL0     H17213   9.870   8.038   5.881 -1.1707  0.5242  1.2092
  888MOL0     H17214  10.189   7.889   6.113 -0.6609 -1.0882  0.4377
  888MOL0     H17215  10.190   8.545   5.611  0.9511  0.8980  0.0842
  888MOL0     H17216  10.330   8.704   5.510 -0.5085  0.8357 -1.9319
  889MOL0     O17217  10.959   7.465   9.550  0.0147 -0.6065 -0.7824
  889MOL0     C17218  11.053   7.475   9.630 -0.3806 -0.1516  0.7920
  889MOL0     O17219  11.172   7.549   9.611  0.9380  0.3515  0.3168
  889MOL0     C17220  11.184   7.640   9.511 -0.4354  0.1556 -0.6356
  889MOL0     C17221  11.312   7.704   9.515 -0.2253  0.6819 -0.0293
  889MOL0     C17222  11.345   7.798   9.414  0.0737 -0.8243 -0.9693
  889MOL0     C17223  11.247   7.833   9.318  1.0976 -0.3142  0.0414
  889MOL0     O17224  11.272   7.915   9.210  0.3674  0.1581  0.2798
  889MOL0     C17225  11.398   7.992   9.221  0.0132  0.2181 -0.2851
  889MOL0     C17226  11.383   8.127   9.149  0.9394 -0.0917  0.5592
  889MOL0     C17227  11.512   8.207   9.139 -1.7191  0.0743 -0.7886
  889MOL0     C17228  11.503   8.331   9.046  1.1407  1.2749  0.1839
  889MOL0     C17229  11.625   8.419   9.063 -0.6820  0.3671  0.2312
  889MOL0     C17230  11.648   8.495   8.937  0.5507  0.8423  0.4470
  889MOL0     C17231  11.751   8.607   8.957 -0.4522 -1.0613  0.1395
  889MOL0     C17232  11.894   8.571   8.995  0.7233  0.4038  0.3959
  889MOL0     N17233  11.964   8.480   8.902  0.1532 -0.2506  0.3351
  889MOL0     C17234  12.022   8.529   8.784 -0.6179 -0.1385 -1.2324
  889MOL0     C17235  12.126   8.438   8.761  0.0244 -0.1868  0.8424
  889MOL0     C17236  12.219   8.461   8.650 -1.0521 -0.3474 -0.1290
  889MOL0     C17237  12.359   8.531   8.686  0.3844  0.0746  0.2499
  889MOL0     C17238  12.427   8.455   8.795 -1.2130  0.2468  1.1085
  889MOL0     C17239  12.588   8.469   8.796 -0.1050  0.4538 -0.2719
  889MOL0     O17240  12.658   8.430   8.674 -0.0319 -0.4680  0.0982
  889MOL0     C17241  12.679   8.305   8.630  0.2095 -0.0295 -0.0599
  889MOL0     C17242  12.600   8.198   8.662  0.3511 -0.1134  0.4451
  889MOL0     C17243  12.620   8.073   8.610 -0.3872  0.4448 -0.7257
  889MOL0     C17244  12.722   8.059   8.520 -1.0342  0.3411  0.9069
  889MOL0     C17245  12.769   7.918   8.480  0.2226  0.1335 -0.5084
  889MOL0     O17246  12.900   7.897   8.437 -0.2145  0.7535 -0.0109
  889MOL0     C17247  12.954   7.775   8.395 -0.0228  1.1282 -0.2836
  889MOL0     C17248  12.931   7.661   8.461 -0.2376  0.6230 -0.3414
  889MOL0     C17249  12.974   7.532   8.409 -0.2624  0.5384  0.5790
  889MOL0     C17250  13.050   7.536   8.297  0.9063 -0.4380  0.5631
  889MOL0     O17251  13.090   7.411   8.245  0.0450 -0.4482 -0.6308
  889MOL0     C17252  13.036   7.380   8.115 -0.1121  0.3922 -0.1250
  889MOL0     C17253  13.084   7.237   8.061  0.0436  0.0471  0.5593
  889MOL0     C17254  13.036   7.114   8.131 -0.3282 -0.3564  0.0309
  889MOL0     C17255  12.900   7.074   8.093  1.0479  0.5358 -0.0078
  889MOL0     C17256  12.832   6.952   8.161 -0.0024  0.4700  0.0160
  889MOL0     C17257  12.685   6.945   8.133  0.3715 -0.7387  0.4352
  889MOL0     C17258  12.611   6.860   8.231  0.5717  0.8257 -0.3283
  889MOL0     C17259  12.672   6.717   8.233  0.2540 -0.0519  0.5264
  889MOL0    Cl17260  12.575   6.607   8.350  0.5469  0.1123  0.0060
  889MOL0     C17261  13.077   7.650   8.227 -0.0347 -0.7299 -0.2975
  889MOL0     C17262  13.023   7.771   8.269  0.1809  0.8728 -0.2794
  889MOL0     O17263  12.682   7.831   8.493 -0.4280  0.3973  0.5223
  889MOL0     C17264  12.808   8.165   8.480  0.2326 -0.3673 -0.0323
  889MOL0     C17265  12.780   8.291   8.532  0.1651  0.2032 -0.3016
  889MOL0     N17266  12.114   8.336   8.848  0.7202  0.1969 -0.4103
  889MOL0     N17267  12.021   8.359   8.935  0.2879  0.2007 -0.6949
  889MOL0     C17268  11.132   7.761   9.310 -0.8352 -0.6661  0.8659
  889MOL0     C17269  11.100   7.675   9.411 -0.5209  0.3197  0.0559
  889MOL0     C17270  11.036   7.403   9.758  0.1675  0.3496  0.1572
  889MOL0     C17271  11.122   7.439   9.866  0.0598  0.0695 -0.0701
  889MOL0     C17272  11.091   7.387   9.993  0.1426 -0.7971 -0.6569
  889MOL0     C17273  11.000   7.289  10.010  0.1912  0.2226  0.6191
  889MOL0     O17274  11.015   7.246  10.140  0.0416 -0.1363  0.2318
  889MOL0     C17275  10.910   7.172  10.201  0.6224  0.2341 -1.0447
  889MOL0     C17276  10.791   7.266  10.230  0.1791  0.0973 -0.6084
  889MOL0     C17277  10.691   7.219  10.332  0.0085  0.8039 -0.1531
  889MOL0     C17278  10.587   7.322  10.368 -0.6372  0.6585  0.3177
  889MOL0     C17279  10.514   7.279  10.487  0.5907 -0.1837  0.5166
  889MOL0     C17280  10.436   7.242  10.576  0.1721 -0.0679 -0.4276
  889MOL0     C17281  10.919   7.252   9.907  0.2616  0.2042  0.0004
  889MOL0     C17282  10.932   7.310   9.779  0.1073 -0.3718  0.0398
  889MOL0     H17283  11.391   7.685   9.586  0.3413  1.2330 -0.5003
  889MOL0     H17284  11.442   7.846   9.414 -0.5267  0.5125  1.0174
  889MOL0     H17285  11.488   7.932   9.202  2.9566  4.0081  0.4045
  889MOL0     H17286  11.418   8.023   9.324  1.1617 -1.7707  0.1611
  889MOL0     H17287  11.304   8.193   9.187  0.4077 -0.5866  0.3357
  889MOL0     H17288  11.342   8.100   9.051 -1.3549 -2.4623  2.0175
  889MOL0     H17289  11.592   8.142   9.101  0.2755 -0.0795  3.1534
  889MOL0     H17290  11.546   8.227   9.241 -2.4314  2.7297 -1.0221
  889MOL0     H17291  11.488   8.290   8.946 -0.1017 -1.4023  1.3743
  889MOL0     H17292  11.417   8.391   9.077 -0.9489 -2.5130  2.4697
  889MOL0     H17293  11.715   8.360   9.079 -0.0703  1.6114  1.5378
  889MOL0     H17294  11.610   8.488   9.146 -2.1077 -0.3943  0.6425
  889MOL0     H17295  11.554   8.535   8.898  0.8848  2.7114  1.4468
  889MOL0     H17296  11.696   8.428   8.865 -0.1469  2.3292 -1.5077
  889MOL0     H17297  11.758   8.662   8.863 -1.5698 -2.1002 -0.5930
  889MOL0     H17298  11.708   8.670   9.035 -1.1319 -1.5106  0.1372
  889MOL0     H17299  11.895   8.525   9.094  1.8552  0.8362  0.6013
  889MOL0     H17300  11.954   8.662   9.002  1.2519  0.1713 -0.8683
  889MOL0     H17301  12.011   8.623   8.732 -1.5931 -1.5095 -3.7163
  889MOL0     H17302  12.162   8.515   8.574 -1.7631 -0.0914  0.5719
  889MOL0     H17303  12.237   8.358   8.618 -0.7510 -0.5306  0.6022
  889MOL0     H17304  12.326   8.626   8.729  2.3195  0.4120  1.0840
  889MOL0     H17305  12.414   8.550   8.593 -3.3704 -1.0636 -2.4627
  889MOL0     H17306  12.401   8.478   8.899 -1.4814 -0.2903  1.1665
  889MOL0     H17307  12.402   8.349   8.781  2.3712 -0.5231 -0.8787
  889MOL0     H17308  12.626   8.399   8.871  2.7413 -0.8718 -2.7113
  889MOL0     H17309  12.627   8.567   8.825 -0.1428  0.6891 -0.9884
  889MOL0     H17310  12.524   8.207   8.738  0.6518  0.9290  0.6418
  889MOL0     H17311  12.554   7.988   8.627  0.5345  0.0055  0.8305
  889MOL0     H17312  12.877   7.666   8.554 -0.0453 -3.4770  0.1819
  889MOL0     H17313  12.951   7.442   8.467 -2.3188  0.4623 -0.2601
  889MOL0     H17314  13.067   7.464   8.052 -0.7778  1.5686  1.0629
  889MOL0     H17315  12.927   7.382   8.115 -0.1670  2.8567 -2.4113
  889MOL0     H17316  13.193   7.233   8.071  0.0805  0.6371  0.4117
  889MOL0     H17317  13.058   7.233   7.955 -2.9545  3.1564  1.0143
  889MOL0     H17318  13.046   7.129   8.239  0.4069 -2.8929  0.3850
  889MOL0     H17319  13.106   7.033   8.113 -0.8932 -0.9551  0.4786
  889MOL0     H17320  12.824   7.150   8.110 -2.7450 -2.6130 -1.2899
  889MOL0     H17321  12.902   7.050   7.986  0.2617 -0.7940  0.2414
  889MOL0     H17322  12.846   6.968   8.268 -0.4519 -1.0885  0.3262
  889MOL0     H17323  12.889   6.860   8.144  1.9452  1.8196 -1.2265
  889MOL0     H17324  12.675   6.907   8.030 -0.4395  1.7833 -0.4807
  889MOL0     H17325  12.642   7.045   8.130  2.5904  0.2428 -1.0265
  889MOL0     H17326  12.617   6.903   8.332  3.5625 -0.2821  0.0786
  889MOL0     H17327  12.503   6.851   8.217  0.5869 -0.5343  0.2495
  889MOL0     H17328  12.776   6.719   8.269  0.9279  0.3135 -1.3219
  889MOL0     H17329  12.665   6.677   8.131 -0.7256  1.5441 -0.0721
  889MOL0     H17330  13.138   7.655   8.138  2.1926  0.9526  1.2114
  889MOL0     H17331  13.042   7.866   8.220 -2.4327  1.5434 -0.1532
  889MOL0     H17332  12.896   8.150   8.418  1.1612 -2.0083  1.5791
  889MOL0     H17333  12.831   8.375   8.487 -0.6831  0.9429  0.0871
  889MOL0     H17334  11.061   7.800   9.238  2.5129  1.4256 -1.5932
  889MOL0     H17335  11.005   7.628   9.389 -1.9797  3.0025  0.3128
  889MOL0     H17336  11.204   7.510   9.855  1.7171 -1.3103  2.3531
  889MOL0     H17337  11.143   7.433  10.077 -1.1167 -1.0204  0.2650
  889MOL0     H17338  10.946   7.130  10.295  1.4672  2.1510 -0.4582
  889MOL0     H17339  10.871   7.092  10.138 -3.8237  1.3244 -0.0509
  889MOL0     H17340  10.840   7.351  10.279 -1.3063  1.2946 -1.0933
  889MOL0     H17341  10.750   7.299  10.134  1.8886 -2.1891 -2.2472
  889MOL0     H17342  10.740   7.192  10.426  1.2111  0.6163 -0.8073
  889MOL0     H17343  10.648   7.123  10.304  2.7932 -0.7875  0.5881
  889MOL0     H17344  10.645   7.412  10.392 -0.6375  0.1384  2.4024
  889MOL0     H17345  10.522   7.337  10.281  1.1352  1.1958 -0.9847
  889MOL0     H17346  10.365   7.208  10.649 -0.1233 -1.0129 -1.1306
  889MOL0     H17347  10.861   7.160   9.912 -0.7291  0.8292  0.1391
  889MOL0     H17348  10.864   7.273   9.703  1.9792 -1.6361 -1.0852
  890MOL0     O17349   1.794   5.330   5.881 -0.1250  0.9822 -0.1622
  890MOL0     C17350   1.683   5.306   5.918  0.2784 -0.7986  0.7351
  890MOL0     O17351   1.636   5.173   5.942 -0.6276 -0.5852  0.0802
  890MOL0     C17352   1.727   5.079   5.902 -0.3149  0.4094 -0.6164
  890MOL0     C17353   1.770   4.993   5.994  0.0682  0.3606 -0.1818
  890MOL0     C17354   1.885   4.910   5.972  0.5776  0.0293 -0.7223
  890MOL0     C17355   1.944   4.910   5.846 -0.2399 -1.0871  0.6304
  890MOL0     O17356   2.035   4.809   5.834  1.1366  0.0466 -0.3359
  890MOL0     C17357   2.114   4.802   5.725  0.7542  0.5104 -0.8701
  890MOL0     C17358   2.046   4.747   5.594 -0.2549 -0.6978 -0.5762
  890MOL0     C17359   2.138   4.704   5.485 -0.2964  0.3969 -1.0306
  890MOL0     C17360   2.221   4.824   5.437 -0.5122  0.0602  1.1146
  890MOL0     C17361   2.289   4.790   5.308 -0.5264  0.2489  0.5823
  890MOL0     C17362   2.410   4.875   5.272 -0.1982  0.5244  0.7413
  890MOL0     C17363   2.494   4.823   5.152  0.0218 -0.1053 -0.3930
  890MOL0     C17364   2.590   4.707   5.198 -0.4485  0.9005 -0.1621
  890MOL0     N17365   2.614   4.616   5.094  0.4140  0.0394 -0.0192
  890MOL0     C17366   2.727   4.598   5.019 -0.1530 -0.5570  0.3030
  890MOL0     C17367   2.700   4.504   4.938  0.7916  0.2794 -0.8843
  890MOL0     C17368   2.795   4.451   4.832  0.1892  0.5310  0.8087
  890MOL0     C17369   2.935   4.430   4.903 -0.3957 -0.2951 -0.2832
  890MOL0     C17370   3.028   4.352   4.820 -0.4800 -0.5055  0.3347
  890MOL0     C17371   3.172   4.361   4.861  0.4407 -0.7919 -0.1802
  890MOL0     O17372   3.241   4.480   4.814 -0.2470  1.1920  0.7234
  890MOL0     C17373   3.379   4.473   4.787  0.7497  0.3410 -0.2953
  890MOL0     C17374   3.438   4.583   4.740 -0.2850 -0.8867 -0.9017
  890MOL0     C17375   3.573   4.597   4.721 -1.0113  0.2314  0.2248
  890MOL0     C17376   3.660   4.486   4.747 -0.0551 -0.4559 -0.2849
  890MOL0     C17377   3.808   4.494   4.719 -0.4331  0.1894  0.9020
  890MOL0     O17378   3.852   4.584   4.628 -0.3188  0.1684 -0.4831
  890MOL0     C17379   3.983   4.604   4.606 -0.8124  0.7265  0.0179
  890MOL0     C17380   4.075   4.499   4.584  0.7189  0.2307  0.4375
  890MOL0     C17381   4.197   4.517   4.529  0.1069  1.0488 -0.7393
  890MOL0     C17382   4.242   4.648   4.514  0.5002 -0.0432 -0.1611
  890MOL0     O17383   4.359   4.662   4.444 -0.0745 -0.6861 -0.0011
  890MOL0     C17384   4.449   4.766   4.485  0.0276 -0.3286  0.7873
  890MOL0     C17385   4.589   4.708   4.505 -0.1927  0.4097 -0.9449
  890MOL0     C17386   4.585   4.631   4.641 -1.4381  0.5535 -0.4569
  890MOL0     C17387   4.734   4.579   4.674  0.4905 -0.5314  0.0354
  890MOL0     C17388   4.745   4.541   4.825 -0.8443  0.1475  0.1825
  890MOL0     C17389   4.889   4.489   4.841  0.5662  0.3728 -0.2993
  890MOL0     C17390   4.895   4.436   4.984  0.3668 -0.6745  0.3844
  890MOL0     C17391   5.034   4.378   5.023  0.4189  0.1285  0.7694
  890MOL0    Cl17392   5.151   4.506   5.070  0.1423  0.4559  0.2809
  890MOL0     C17393   4.165   4.756   4.555  0.1647  0.0396 -0.5600
  890MOL0     C17394   4.035   4.733   4.615  0.8820 -0.8022  0.1977
  890MOL0     O17395   3.873   4.407   4.774 -0.9744 -0.4138 -0.3776
  890MOL0     C17396   3.593   4.372   4.797  0.1520  0.0466  0.4559
  890MOL0     C17397   3.455   4.365   4.814 -0.4283  0.2188  0.0209
  890MOL0     N17398   2.571   4.460   4.953  0.3124 -1.3301 -0.8326
  890MOL0     N17399   2.515   4.532   5.053  0.1941 -0.2819  0.0826
  890MOL0     C17400   1.900   5.002   5.749 -0.8468  1.4771 -0.5130
  890MOL0     C17401   1.786   5.083   5.772 -1.0602 -0.1602  0.2578
  890MOL0     C17402   1.594   5.407   5.967 -0.2413  0.2364  1.1155
  890MOL0     C17403   1.648   5.540   5.982 -0.0536  0.6034 -0.2579
  890MOL0     C17404   1.557   5.649   6.011 -0.8390  0.3387 -0.8340
  890MOL0     C17405   1.425   5.623   6.045  0.6723 -0.6547  0.6235
  890MOL0     O17406   1.327   5.713   6.060 -0.0129 -0.3397 -0.1097
  890MOL0     C17407   1.372   5.849   6.103 -0.8666  0.4707  0.2167
  890MOL0     C17408   1.247   5.923   6.152 -0.3049 -0.3878 -0.5926
  890MOL0     C17409   1.167   5.990   6.045  0.6230  0.0844 -0.0118
  890MOL0     C17410   1.027   6.047   6.077 -0.0810  0.4168  0.0425
  890MOL0     C17411   1.027   6.115   6.211 -0.6269 -0.1140 -0.5326
  890MOL0     C17412   1.040   6.184   6.307  0.7573  1.2792 -0.9237
  890MOL0     C17413   1.373   5.486   6.025 -0.0609 -0.3318  0.4539
  890MOL0     C17414   1.454   5.386   5.990  0.6011  0.6291 -0.7597
  890MOL0     H17415   1.718   4.974   6.087 -2.7812 -2.2800 -2.1146
  890MOL0     H17416   1.920   4.851   6.056  0.9620  3.1765  1.5258
  890MOL0     H17417   2.193   4.729   5.746 -1.2668 -0.7662  3.5031
  890MOL0     H17418   2.156   4.900   5.700  0.5983  1.4470  2.1096
  890MOL0     H17419   1.978   4.818   5.546  0.2219 -1.4018 -2.3508
  890MOL0     H17420   1.991   4.657   5.622 -1.4781  0.5076  1.1173
  890MOL0     H17421   2.073   4.666   5.406 -2.0469 -2.0024  1.3616
  890MOL0     H17422   2.204   4.624   5.519  1.5844  1.9252 -0.9421
  890MOL0     H17423   2.163   4.915   5.417  1.2359  0.4892 -3.2167
  890MOL0     H17424   2.296   4.853   5.511  0.2023 -1.4184  1.0028
  890MOL0     H17425   2.215   4.804   5.228  2.1817 -0.6269 -2.2982
  890MOL0     H17426   2.318   4.685   5.317  2.0136  0.8574  0.4343
  890MOL0     H17427   2.476   4.889   5.359 -0.7182 -0.0784  1.2494
  890MOL0     H17428   2.363   4.970   5.247 -2.2032  0.3603  3.3857
  890MOL0     H17429   2.434   4.809   5.062  1.1467  4.1102 -2.0526
  890MOL0     H17430   2.556   4.909   5.122  0.6437  0.6464  2.7174
  890MOL0     H17431   2.540   4.661   5.284  2.6414 -0.7796  0.8993
  890MOL0     H17432   2.681   4.749   5.242 -0.9547 -0.1410  2.0230
  890MOL0     H17433   2.816   4.660   5.021 -0.2053 -0.1907 -3.1393
  890MOL0     H17434   2.802   4.521   4.749 -0.1691 -0.6400 -0.2324
  890MOL0     H17435   2.748   4.358   4.797 -0.0749  1.4096 -1.2736
  890MOL0     H17436   2.921   4.367   4.991 -1.4630 -4.1990 -2.9950
  890MOL0     H17437   2.976   4.527   4.934 -0.9518 -0.4136  0.8697
  890MOL0     H17438   3.008   4.244   4.821  0.1209 -0.8138 -3.5072
  890MOL0     H17439   3.022   4.376   4.713  2.7805 -3.2987 -0.6681
  890MOL0     H17440   3.211   4.270   4.814  0.8605 -0.5826 -0.2411
  890MOL0     H17441   3.177   4.348   4.970 -1.4974  0.3657  0.0970
  890MOL0     H17442   3.368   4.661   4.711 -0.1229 -1.3330 -2.6500
  890MOL0     H17443   3.615   4.692   4.688  1.0143  0.0356  2.0114
  890MOL0     H17444   4.050   4.393   4.591  1.0731  0.1971  1.3292
  890MOL0     H17445   4.247   4.427   4.496 -1.6027 -0.1611 -0.1681
  890MOL0     H17446   4.415   4.810   4.580  0.8422  1.5449  0.2362
  890MOL0     H17447   4.444   4.843   4.408 -2.6853  0.4853  1.6492
  890MOL0     H17448   4.661   4.791   4.507  1.4136 -0.9414 -0.9602
  890MOL0     H17449   4.622   4.645   4.422  1.0234 -0.6126  0.2617
  890MOL0     H17450   4.528   4.539   4.622  1.8970 -2.1214  1.2810
  890MOL0     H17451   4.541   4.686   4.724 -1.2731 -0.9367  0.6541
  890MOL0     H17452   4.766   4.491   4.617  2.6580  0.5385 -0.4919
  890MOL0     H17453   4.800   4.664   4.654 -0.3032 -0.0866 -0.7414
  890MOL0     H17454   4.669   4.471   4.860  1.4905 -0.9097  3.7286
  890MOL0     H17455   4.730   4.631   4.884 -0.5759 -1.7094  3.3586
  890MOL0     H17456   4.959   4.573   4.834 -0.0842  0.8741 -1.0062
  890MOL0     H17457   4.908   4.416   4.763  1.5616 -2.2662  2.2264
  890MOL0     H17458   4.871   4.504   5.066  2.8396 -0.4722  1.0269
  890MOL0     H17459   4.819   4.357   4.992 -0.7928 -0.2594 -4.1020
  890MOL0     H17460   5.073   4.320   4.939 -1.4519  0.0692 -0.0939
  890MOL0     H17461   5.010   4.315   5.109  4.6523  1.5340  3.2849
  890MOL0     H17462   4.202   4.856   4.540  0.1997  0.2169  0.5941
  890MOL0     H17463   3.968   4.816   4.637  1.7769  0.6780 -2.2154
  890MOL0     H17464   3.654   4.288   4.829  0.1547 -0.5917 -1.1472
  890MOL0     H17465   3.424   4.276   4.867  0.8970 -0.6373 -0.5744
  890MOL0     H17466   1.940   5.012   5.648  2.0952  0.8600  0.4739
  890MOL0     H17467   1.757   5.150   5.691  2.5842 -0.7583 -1.7439
  890MOL0     H17468   1.754   5.562   5.969  0.4281 -1.4024 -0.2196
  890MOL0     H17469   1.604   5.746   6.022  0.8597 -0.6433  1.6601
  890MOL0     H17470   1.412   5.900   6.015  2.4063  0.1520  1.3833
  890MOL0     H17471   1.449   5.859   6.179 -0.8409  0.3601  0.2047
  890MOL0     H17472   1.189   5.855   6.216  0.2224  2.2494  2.9946
  890MOL0     H17473   1.283   5.990   6.230  0.8169 -3.1543  1.4499
  890MOL0     H17474   1.155   5.919   5.962 -2.0099 -0.2273  0.5488
  890MOL0     H17475   1.230   6.077   6.028  2.6495 -1.3505 -0.2524
  890MOL0     H17476   0.998   6.111   5.993 -0.4307  0.4030  0.1511
  890MOL0     H17477   0.960   5.961   6.077  1.6583 -1.0033 -0.8234
  890MOL0     H17478   1.043   6.256   6.387 -0.4981  1.0165 -0.6193
  890MOL0     H17479   1.266   5.470   6.028  0.1494 -2.1409 -0.2027
  890MOL0     H17480   1.414   5.292   5.952 -0.4514  1.3561 -1.4976
  891MOL0     O17481   0.193   1.770  10.242 -0.5135  0.3631 -0.0893
  891MOL0     C17482   0.280   1.713  10.303  0.4424  0.4242  0.7908
  891MOL0     O17483   0.291   1.706  10.436 -0.5800  0.0682 -0.5593
  891MOL0     C17484   0.195   1.761  10.522 -0.2865  0.5555  1.0118
  891MOL0     C17485   0.059   1.715  10.519 -0.0621 -0.7698  0.0929
  891MOL0     C17486  -0.030   1.774  10.604 -0.0036 -0.5502 -0.0061
  891MOL0     C17487   0.003   1.860  10.709  0.3152  0.7626  0.4043
  891MOL0     O17488  -0.104   1.928  10.771 -0.3486 -0.3056 -0.3617
  891MOL0     C17489  -0.077   2.049  10.842  0.1131  0.1530 -0.0510
  891MOL0     C17490  -0.026   2.039  10.980 -0.5401  0.2004 -0.8237
  891MOL0     C17491  -0.019   2.165  11.055 -1.1052 -0.3742  0.0097
  891MOL0     C17492  -0.154   2.198  11.111 -0.1247 -0.6625 -0.4896
  891MOL0     C17493  -0.154   2.327  11.187 -0.1953 -0.1126  0.9354
  891MOL0     C17494  -0.287   2.362  11.249  0.4412  0.1113 -0.0031
  891MOL0     C17495  -0.320   2.287  11.371 -0.0983  0.1725 -0.5571
  891MOL0     C17496  -0.442   2.344  11.443  0.7621 -0.1196 -0.6295
  891MOL0     N17497  -0.496   2.256  11.547  0.0127 -0.3887  0.5707
  891MOL0     C17498  -0.451   2.131  11.572  0.0214 -0.2248 -0.7422
  891MOL0     C17499  -0.522   2.102  11.686  0.3202 -0.5008  0.1796
  891MOL0     C17500  -0.499   1.966  11.756 -0.1428 -0.5468 -0.0752
  891MOL0     C17501  -0.496   1.983  11.902  0.2901  0.1319 -0.3225
  891MOL0     C17502  -0.635   1.970  11.976  0.0268  0.1384 -0.0871
  891MOL0     C17503  -0.619   1.912  12.117 -0.0576  0.8870  0.0322
  891MOL0     O17504  -0.521   1.986  12.195 -1.2775 -0.1540 -0.1558
  891MOL0     C17505  -0.432   1.921  12.286  0.0762  0.1925 -0.1547
  891MOL0     C17506  -0.318   1.987  12.336  0.8184  0.8619  0.3430
  891MOL0     C17507  -0.221   1.926  12.416 -0.7845  1.1343  0.1875
  891MOL0     C17508  -0.223   1.784  12.428  0.4111 -0.0257 -0.1072
  891MOL0     C17509  -0.141   1.698  12.521 -0.5421  0.4650 -1.7373
  891MOL0     O17510  -0.164   1.566  12.538  0.4122  0.4343  0.0567
  891MOL0     C17511  -0.065   1.485  12.593  0.1287 -1.3690 -0.3310
  891MOL0     C17512  -0.109   1.394  12.691 -0.0268 -0.7800  0.1174
  891MOL0     C17513  -0.018   1.320  12.767  0.3681  0.0396  1.4932
  891MOL0     C17514   0.118   1.323  12.733 -0.0359 -0.6628 -0.2407
  891MOL0     O17515   0.204   1.247  12.794  0.2006  0.5651 -0.8457
  891MOL0     C17516   0.290   1.165  12.707 -0.0173  0.2807  0.3558
  891MOL0     C17517   0.402   1.089  12.791  0.8239 -0.2512 -0.3483
  891MOL0     C17518   0.343   0.998  12.888 -0.5749 -0.2473 -0.8469
  891MOL0     C17519   0.436   0.912  12.965 -0.6923  0.3749  0.4608
  891MOL0     C17520   0.383   0.780  13.032  0.9156 -0.2476  0.1165
  891MOL0     C17521   0.482   0.673  13.077 -0.3275  1.4074 -0.6958
  891MOL0     C17522   0.568   0.725  13.192  1.4740 -0.6270 -0.1035
  891MOL0     C17523   0.694   0.643  13.211 -0.1127  0.4765  0.5447
  891MOL0    Cl17524   0.794   0.633  13.058  0.1219 -0.2925  0.5610
  891MOL0     C17525   0.161   1.418  12.648 -0.1367 -1.0244  0.0205
  891MOL0     C17526   0.072   1.493  12.573  1.0498  0.1236 -0.2600
  891MOL0     O17527  -0.059   1.762  12.581 -0.6271  0.6012 -0.4479
  891MOL0     C17528  -0.338   1.714  12.382 -0.7735  0.3147  0.2401
  891MOL0     C17529  -0.442   1.782  12.320  0.2037  0.1737  0.0414
  891MOL0     N17530  -0.610   2.202  11.721  0.7647  0.8656  0.4268
  891MOL0     N17531  -0.591   2.295  11.638  0.3750 -0.4227 -0.1442
  891MOL0     C17532   0.143   1.889  10.719 -0.3695 -0.9837 -0.0548
  891MOL0     C17533   0.238   1.841  10.629  0.4167 -0.5684 -0.1318
  891MOL0     C17534   0.403   1.666  10.233 -0.0076  0.3819  0.6725
  891MOL0     C17535   0.392   1.636  10.102  0.0711 -0.7531 -0.1260
  891MOL0     C17536   0.498   1.563  10.044  0.0826 -0.6631 -0.4115
  891MOL0     C17537   0.612   1.518  10.111 -0.6198  0.0699  0.8160
  891MOL0     O17538   0.710   1.442  10.043  0.4051 -0.6874 -0.3519
  891MOL0     C17539   0.846   1.452  10.099 -0.2927 -0.3248 -0.1078
  891MOL0     C17540   0.920   1.579  10.025  0.4801  0.3770  0.6245
  891MOL0     C17541   0.998   1.537   9.899 -0.0621 -0.0214  0.7070
  891MOL0     C17542   1.119   1.465   9.946 -0.9703 -0.2535  0.6311
  891MOL0     C17543   1.186   1.430   9.814 -0.1029  0.3746 -1.2165
  891MOL0     C17544   1.225   1.431   9.702 -0.5458 -0.0323  0.4419
  891MOL0     C17545   0.608   1.537  10.249 -0.6455  0.3760 -1.0716
  891MOL0     C17546   0.508   1.608  10.300 -0.3552 -0.2263 -0.2019
  891MOL0     H17547   0.039   1.642  10.441  1.1471 -1.1622  0.1343
  891MOL0     H17548  -0.134   1.743  10.600 -0.5076  1.1221 -0.4586
  891MOL0     H17549  -0.156   2.123  10.831  1.3071  1.2336 -1.8172
  891MOL0     H17550   0.004   2.103  10.793  0.6256  2.8518  3.3410
  891MOL0     H17551   0.076   2.001  10.963 -0.4460 -1.6962  2.9303
  891MOL0     H17552  -0.081   1.971  11.046 -0.7131  1.9439  0.9225
  891MOL0     H17553   0.023   2.247  10.997 -0.4742 -0.8238 -0.1908
  891MOL0     H17554   0.053   2.144  11.136  2.0174  4.8725 -0.9287
  891MOL0     H17555  -0.225   2.201  11.028  2.4324  0.8826 -2.7750
  891MOL0     H17556  -0.174   2.126  11.191 -0.1895  0.5507  0.6273
  891MOL0     H17557  -0.115   2.404  11.119  1.7411 -1.1843  0.7790
  891MOL0     H17558  -0.085   2.320  11.271  1.0309  0.3969 -0.0006
  891MOL0     H17559  -0.372   2.342  11.183 -0.2480 -3.1462  1.6460
  891MOL0     H17560  -0.274   2.467  11.280  0.3407  0.0732  0.1712
  891MOL0     H17561  -0.326   2.184  11.335  0.1191 -0.3085  0.7372
  891MOL0     H17562  -0.231   2.286  11.434 -1.8790  0.3153  2.0784
  891MOL0     H17563  -0.518   2.351  11.365 -0.6140 -1.5017  0.5200
  891MOL0     H17564  -0.435   2.448  11.473 -0.1228 -0.2188 -0.0460
  891MOL0     H17565  -0.378   2.073  11.517 -0.1764 -0.1578 -1.0763
  891MOL0     H17566  -0.403   1.923  11.729  0.2353 -0.6346  1.3599
  891MOL0     H17567  -0.578   1.896  11.727  1.2629 -3.4307  2.5302
  891MOL0     H17568  -0.461   2.084  11.927 -4.1274  1.4828  1.3738
  891MOL0     H17569  -0.424   1.910  11.939 -0.5657 -1.3850 -1.5479
  891MOL0     H17570  -0.672   2.073  11.985  0.9150  0.6916 -2.1872
  891MOL0     H17571  -0.716   1.911  11.931  2.1363  0.3331 -4.6588
  891MOL0     H17572  -0.599   1.806  12.104 -0.8945  0.6893  0.3221
  891MOL0     H17573  -0.720   1.908  12.158  0.8650  1.7649  2.5482
  891MOL0     H17574  -0.316   2.094  12.319 -0.4527  0.8520  0.0475
  891MOL0     H17575  -0.143   1.989  12.458  0.3828 -2.0499  3.2521
  891MOL0     H17576  -0.209   1.378  12.729  0.5897 -0.5180  1.9072
  891MOL0     H17577  -0.059   1.259  12.847  0.5921 -0.8234  0.9593
  891MOL0     H17578   0.356   1.216  12.637  1.8589 -1.6587  0.5849
  891MOL0     H17579   0.224   1.094  12.656 -0.9605  1.8278 -0.6661
  891MOL0     H17580   0.450   1.160  12.859 -2.1167  2.1660 -0.6114
  891MOL0     H17581   0.464   1.038  12.717 -0.4821  0.3192 -1.8811
  891MOL0     H17582   0.283   0.921  12.839 -0.2680 -2.4626  1.9568
  891MOL0     H17583   0.279   1.052  12.959 -0.7234  1.1181 -1.9751
  891MOL0     H17584   0.509   0.876  12.893 -1.6107 -1.5028  0.4051
  891MOL0     H17585   0.491   0.973  13.037 -0.0676 -2.2128  2.3158
  891MOL0     H17586   0.319   0.744  12.951  0.5102  1.6114 -0.4434
  891MOL0     H17587   0.323   0.804  13.120  2.1632  1.7520  0.4821
  891MOL0     H17588   0.548   0.647  12.994 -0.9831 -0.4019 -0.6928
  891MOL0     H17589   0.430   0.582  13.108  1.5847  0.5945  0.2729
  891MOL0     H17590   0.598   0.827  13.169 -0.8345  0.1682  0.1869
  891MOL0     H17591   0.505   0.713  13.281  0.9939 -0.0459 -0.3596
  891MOL0     H17592   0.672   0.551  13.266 -2.0628  0.4178 -0.2464
  891MOL0     H17593   0.758   0.702  13.277  1.8415 -1.1616  0.2326
  891MOL0     H17594   0.267   1.414  12.622 -0.5302  0.1166 -1.9642
  891MOL0     H17595   0.113   1.553  12.492  2.5913 -0.6082 -0.0536
  891MOL0     H17596  -0.352   1.607  12.395  0.5034  0.2426  1.2854
  891MOL0     H17597  -0.528   1.726  12.287  2.2190 -2.1503 -1.6463
  891MOL0     H17598   0.179   1.965  10.788  0.7597 -0.9106 -0.7024
  891MOL0     H17599   0.340   1.879  10.629  0.4116 -0.3163 -2.9834
  891MOL0     H17600   0.299   1.649  10.048 -1.8295 -1.0866  2.8657
  891MOL0     H17601   0.489   1.555   9.937 -0.3938 -4.1052 -0.2361
  891MOL0     H17602   0.881   1.352  10.072 -2.5702 -1.6006  1.3850
  891MOL0     H17603   0.860   1.460  10.208  1.3632  3.5951 -0.4323
  891MOL0     H17604   0.828   1.629   9.993  0.8153  0.7809  0.2936
  891MOL0     H17605   0.973   1.647  10.092 -2.7230  0.5158  3.3010
  891MOL0     H17606   1.019   1.623   9.835  2.0101 -1.8200 -1.1355
  891MOL0     H17607   0.942   1.467   9.837 -1.3029 -1.1802  2.9924
  891MOL0     H17608   1.190   1.527  10.002  0.4735 -2.2670  1.1139
  891MOL0     H17609   1.108   1.368   9.994 -0.3495 -1.0855 -0.8282
  891MOL0     H17610   1.258   1.428   9.600 -2.4701  2.6576 -0.3508
  891MOL0     H17611   0.692   1.506  10.310 -1.9625  1.7346  1.5920
  891MOL0     H17612   0.510   1.614  10.408  2.8833  1.2712 -0.2309
  892MOL0     O17613   7.457   9.455   1.309  0.1868  0.5637 -0.1368
  892MOL0     C17614   7.555   9.420   1.374  0.2829 -0.8758 -0.1720
  892MOL0     O17615   7.600   9.292   1.387 -0.8779  0.1478 -0.3655
  892MOL0     C17616   7.534   9.185   1.336  0.5532  0.7545  0.3566
  892MOL0     C17617   7.524   9.073   1.419 -1.1817 -0.5110  0.1735
  892MOL0     C17618   7.452   8.964   1.376  0.3999 -0.0727 -0.7816
  892MOL0     C17619   7.389   8.962   1.248 -0.4981 -0.3786 -0.1871
  892MOL0     O17620   7.312   8.858   1.203 -0.6314 -0.0068  0.2917
  892MOL0     C17621   7.182   8.896   1.149 -0.6330  0.3908 -0.5380
  892MOL0     C17622   7.118   8.762   1.162 -0.4037  1.3275 -0.2077
  892MOL0     C17623   6.992   8.757   1.077 -0.5133  0.1681  0.3481
  892MOL0     C17624   6.879   8.658   1.118 -0.6173  0.9617 -0.3666
  892MOL0     C17625   6.808   8.714   1.238  0.0071  0.4176  0.1763
  892MOL0     C17626   6.691   8.617   1.273  0.0757 -0.3393  0.3159
  892MOL0     C17627   6.627   8.652   1.401  0.4133 -0.1642  0.6859
  892MOL0     C17628   6.506   8.559   1.427 -0.5209  0.3293 -0.4851
  892MOL0     N17629   6.443   8.611   1.549  0.4043 -0.8944  0.0364
  892MOL0     C17630   6.460   8.566   1.678 -0.1676  0.3445  0.7321
  892MOL0     C17631   6.345   8.608   1.743  0.1425  0.1855 -0.2122
  892MOL0     C17632   6.301   8.560   1.883  0.3799  0.1862 -0.5348
  892MOL0     C17633   6.159   8.600   1.929 -0.1708 -0.4713  0.9717
  892MOL0     C17634   6.101   8.506   2.033 -0.9546  0.0274  0.1409
  892MOL0     C17635   5.957   8.544   2.070  0.1164 -1.0188 -0.3128
  892MOL0     O17636   5.943   8.645   2.162 -0.2287 -0.0002  0.9430
  892MOL0     C17637   5.813   8.667   2.206 -0.4133 -0.4242 -0.6599
  892MOL0     C17638   5.794   8.783   2.280  0.4996 -0.3444 -0.2804
  892MOL0     C17639   5.670   8.822   2.344  0.1289 -0.3816 -0.2217
  892MOL0     C17640   5.564   8.733   2.327 -0.5400  0.4193  0.4780
  892MOL0     C17641   5.430   8.753   2.388 -0.1705 -0.7034  0.5927
  892MOL0     O17642   5.330   8.661   2.361  0.7595  0.3344 -0.9351
  892MOL0     C17643   5.203   8.678   2.429 -0.4596 -0.1000  0.0731
  892MOL0     C17644   5.188   8.720   2.555  0.4210 -0.7526  0.2479
  892MOL0     C17645   5.064   8.730   2.613  0.0615 -0.8590  0.8112
  892MOL0     C17646   4.947   8.697   2.549 -0.0366 -0.8129 -0.7024
  892MOL0     O17647   4.836   8.729   2.616  0.4462  0.2496 -1.2287
  892MOL0     C17648   4.721   8.710   2.544  1.3253 -0.5713 -0.4521
  892MOL0     C17649   4.597   8.764   2.618  0.7913  0.0526  0.4679
  892MOL0     C17650   4.623   8.910   2.680 -0.5312  0.1640 -0.1035
  892MOL0     C17651   4.490   8.969   2.742 -0.2453 -0.4438  0.2463
  892MOL0     C17652   4.385   8.867   2.801  0.0158  0.4199 -0.4226
  892MOL0     C17653   4.284   8.934   2.901  0.2080 -1.5917  0.9345
  892MOL0     C17654   4.182   9.023   2.827  0.4460  0.1792 -0.5207
  892MOL0     C17655   4.066   8.937   2.778  1.4322 -0.5784 -0.0135
  892MOL0    Cl17656   3.969   8.861   2.919  0.0280  0.4303  0.1524
  892MOL0     C17657   4.951   8.640   2.419  0.4421  0.8347 -0.2160
  892MOL0     C17658   5.082   8.630   2.363 -0.6011 -0.1831 -0.7857
  892MOL0     O17659   5.416   8.857   2.447 -0.4868  0.7085  0.4008
  892MOL0     C17660   5.583   8.613   2.257 -0.4310 -0.4179 -0.0182
  892MOL0     C17661   5.706   8.579   2.200  0.7660 -0.1281 -0.5548
  892MOL0     N17662   6.256   8.664   1.652  0.6234  0.1391  0.1566
  892MOL0     N17663   6.316   8.655   1.533 -0.2786  0.7632 -0.3992
  892MOL0     C17664   7.411   9.062   1.166  0.9772 -0.8777  0.3414
  892MOL0     C17665   7.484   9.174   1.206  0.2488 -0.0026  1.0801
  892MOL0     C17666   7.647   9.537   1.414 -0.1636  1.2600 -0.6461
  892MOL0     C17667   7.754   9.509   1.512  0.3494 -0.2160  0.7604
  892MOL0     C17668   7.836   9.618   1.535 -0.3022  0.0562  0.1403
  892MOL0     C17669   7.820   9.741   1.484  0.3479 -0.4653 -0.1931
  892MOL0     O17670   7.896   9.851   1.520 -0.5410 -0.1796  0.3915
  892MOL0     C17671   8.029   9.860   1.460 -0.1405  0.4970 -0.2647
  892MOL0     C17672   8.139   9.847   1.568  0.8154 -0.1484  0.0513
  892MOL0     C17673   8.151   9.970   1.653 -0.3402 -0.8052  0.0046
  892MOL0     C17674   8.198  10.089   1.578  0.2767  0.4205  0.4514
  892MOL0     C17675   8.221  10.203   1.658 -0.5509 -0.4822 -0.0152
  892MOL0     C17676   8.261  10.298   1.714  0.2807 -0.5652 -0.5782
  892MOL0     C17677   7.718   9.770   1.392  0.4939  0.0049  0.6766
  892MOL0     C17678   7.630   9.666   1.358  0.1604  0.2005  0.0789
  892MOL0     H17679   7.573   9.078   1.515 -1.6651 -4.3408  0.7571
  892MOL0     H17680   7.439   8.876   1.439  0.4921 -1.6505 -2.8611
  892MOL0     H17681   7.187   8.920   1.042  0.7277  0.6902 -0.4338
  892MOL0     H17682   7.131   8.970   1.211  1.4192 -0.5806  2.5839
  892MOL0     H17683   7.097   8.733   1.266 -3.7157 -0.7169 -1.2842
  892MOL0     H17684   7.188   8.691   1.117 -1.9768  1.5733 -3.2800
  892MOL0     H17685   7.011   8.714   0.978 -2.1779 -1.7582  0.7792
  892MOL0     H17686   6.944   8.853   1.059 -1.0599  0.4970  3.0239
  892MOL0     H17687   6.816   8.643   1.030  0.4022 -1.6765 -0.7073
  892MOL0     H17688   6.931   8.568   1.152  3.6867  3.8414  1.5737
  892MOL0     H17689   6.762   8.811   1.217 -0.1717  0.4829  0.8298
  892MOL0     H17690   6.881   8.714   1.320 -0.1840 -2.7602  0.4654
  892MOL0     H17691   6.743   8.521   1.286  1.0475  0.1162 -0.1428
  892MOL0     H17692   6.621   8.599   1.191  1.7174 -0.9253 -1.0347
  892MOL0     H17693   6.716   8.642   1.463  0.6954  2.4725  0.8178
  892MOL0     H17694   6.586   8.752   1.415 -0.5147 -0.5979  1.1291
  892MOL0     H17695   6.556   8.462   1.436 -1.4723 -0.2078 -0.8592
  892MOL0     H17696   6.425   8.558   1.354 -0.6394 -1.1116 -0.3631
  892MOL0     H17697   6.546   8.513   1.717  0.3952 -0.2517 -1.2312
  892MOL0     H17698   6.374   8.599   1.954  1.4942  0.0206 -1.5667
  892MOL0     H17699   6.319   8.453   1.890  0.2481  0.2805  2.9443
  892MOL0     H17700   6.105   8.598   1.834  1.1710 -1.5067  0.1950
  892MOL0     H17701   6.165   8.702   1.967  4.1555 -0.2097  0.0093
  892MOL0     H17702   6.104   8.404   1.994 -0.3280 -1.1777  3.1273
  892MOL0     H17703   6.173   8.512   2.115  0.8643  0.1308 -1.3638
  892MOL0     H17704   5.909   8.452   2.104 -2.6569 -0.8411 -3.1979
  892MOL0     H17705   5.897   8.577   1.985  0.1743 -0.8510 -0.2887
  892MOL0     H17706   5.882   8.846   2.275  1.3081 -1.4393 -0.1737
  892MOL0     H17707   5.643   8.918   2.386 -0.1220 -1.1268  1.3947
  892MOL0     H17708   5.278   8.739   2.613  0.4873  2.2873 -0.6700
  892MOL0     H17709   5.056   8.773   2.712  2.7603  3.1195 -0.4360
  892MOL0     H17710   4.705   8.602   2.532  0.9647 -0.8039  1.6744
  892MOL0     H17711   4.710   8.754   2.444  0.7260 -0.6583 -0.4296
  892MOL0     H17712   4.572   8.683   2.687  0.3856 -0.4042 -0.2089
  892MOL0     H17713   4.515   8.762   2.545  2.1057 -2.0769 -1.0747
  892MOL0     H17714   4.659   8.980   2.605 -1.7236 -1.8404 -2.7189
  892MOL0     H17715   4.712   8.909   2.744  1.2479 -1.7740 -2.4021
  892MOL0     H17716   4.523   9.040   2.819 -0.6101  2.2257 -1.8983
  892MOL0     H17717   4.429   9.025   2.670 -0.2383 -1.9764 -0.9879
  892MOL0     H17718   4.417   8.778   2.855 -3.0795 -1.9966 -2.1826
  892MOL0     H17719   4.339   8.826   2.711  2.8457  0.1332 -1.8095
  892MOL0     H17720   4.338   8.988   2.979  1.5886 -3.9770  1.7213
  892MOL0     H17721   4.230   8.857   2.957 -1.0516 -0.0963  1.8730
  892MOL0     H17722   4.139   9.102   2.890 -1.7867 -0.1502 -1.5251
  892MOL0     H17723   4.222   9.072   2.738  1.1034 -0.4409 -0.5748
  892MOL0     H17724   4.111   8.858   2.717  1.8649  0.5617 -1.2130
  892MOL0     H17725   3.999   8.993   2.713 -1.3491 -0.2779  2.8383
  892MOL0     H17726   4.864   8.603   2.366  1.8902 -3.1617 -0.1573
  892MOL0     H17727   5.093   8.588   2.264 -1.8823 -4.2784  0.5869
  892MOL0     H17728   5.506   8.539   2.237 -0.4764  0.3066 -3.1670
  892MOL0     H17729   5.709   8.484   2.148  3.5006  0.4930 -1.6845
  892MOL0     H17730   7.367   9.072   1.068  0.5092 -0.5481  0.5822
  892MOL0     H17731   7.516   9.258   1.145  1.6269  0.5691  2.4979
  892MOL0     H17732   7.765   9.412   1.560  0.6567 -1.7328 -2.1321
  892MOL0     H17733   7.912   9.611   1.613  1.0339  1.0915 -1.0202
  892MOL0     H17734   8.041   9.956   1.409 -2.2222  0.8141 -0.2458
  892MOL0     H17735   8.028   9.784   1.381 -3.9272  1.1290 -0.9873
  892MOL0     H17736   8.115   9.769   1.640  1.8515 -1.0435 -0.5459
  892MOL0     H17737   8.238   9.840   1.523  0.8315 -0.2961  0.1117
  892MOL0     H17738   8.231   9.940   1.721  0.1235  2.5593  1.1234
  892MOL0     H17739   8.060  10.010   1.698  0.0563  0.7321 -0.4832
  892MOL0     H17740   8.294  10.065   1.532 -0.4657 -3.3733  0.5974
  892MOL0     H17741   8.123  10.102   1.499  0.7383 -4.2074 -1.0644
  892MOL0     H17742   8.309  10.377   1.768 -1.2315 -0.0814  0.1234
  892MOL0     H17743   7.704   9.873   1.363 -1.0587 -1.2071 -3.4888
  892MOL0     H17744   7.540   9.699   1.308 -0.6706  1.8684  2.4813
  893MOL0     O17745   9.148   8.919   9.371  0.8093 -0.5679 -0.7038
  893MOL0     C17746   9.028   8.927   9.392  0.2794  0.7050 -0.2177
  893MOL0     O17747   8.930   8.840   9.337  0.3672 -0.3985 -0.5227
  893MOL0     C17748   8.953   8.737   9.254 -0.3496  1.2820  0.5603
  893MOL0     C17749   8.837   8.700   9.180  0.5287 -0.2950 -0.1859
  893MOL0     C17750   8.833   8.581   9.112  0.2842  0.4336 -0.3194
  893MOL0     C17751   8.950   8.512   9.080  0.6939  0.4531 -0.3509
  893MOL0     O17752   8.917   8.394   9.012 -1.9577 -0.7650 -0.0923
  893MOL0     C17753   9.027   8.315   8.964  0.4775  0.1452 -0.6755
  893MOL0     C17754   9.103   8.382   8.849  0.0841  0.5184 -0.2341
  893MOL0     C17755   9.227   8.294   8.813 -0.5562  0.6154  0.1370
  893MOL0     C17756   9.193   8.179   8.724  0.5977  0.1269  0.9520
  893MOL0     C17757   9.301   8.166   8.611  1.1107  0.5724  0.3561
  893MOL0     C17758   9.442   8.155   8.652 -0.7571 -0.1105 -0.6063
  893MOL0     C17759   9.467   8.030   8.738  0.4379  0.7021 -0.5411
  893MOL0     C17760   9.609   8.012   8.807  0.6528  0.0110  0.2505
  893MOL0     N17761   9.720   7.993   8.710  0.3294 -0.6691 -1.2387
  893MOL0     C17762   9.718   7.903   8.609  0.3560 -0.1545 -0.9551
  893MOL0     C17763   9.830   7.920   8.545 -0.3024 -0.7195 -0.3870
  893MOL0     C17764   9.845   7.868   8.405 -1.2131  0.0803 -0.8242
  893MOL0     C17765   9.726   7.913   8.318 -0.1902  0.0839 -0.7780
  893MOL0     C17766   9.763   7.883   8.170 -0.1619 -0.2308 -0.0762
  893MOL0     C17767   9.646   7.880   8.078  0.4171  0.2717  0.2659
  893MOL0     O17768   9.531   7.806   8.114 -0.4029  0.0825  0.2128
  893MOL0     C17769   9.406   7.846   8.099 -0.9107 -0.3701 -0.1362
  893MOL0     C17770   9.319   7.826   8.204  0.4754 -0.0494 -0.8395
  893MOL0     C17771   9.200   7.890   8.207 -0.1239  0.9433  0.7354
  893MOL0     C17772   9.161   7.968   8.101  0.4278 -0.3577  0.7455
  893MOL0     C17773   9.032   8.046   8.108 -0.7184 -0.0596 -0.3370
  893MOL0     O17774   9.022   8.147   8.020 -0.7808 -0.1249 -0.1073
  893MOL0     C17775   8.900   8.202   7.967  0.0649 -0.6811 -0.4355
  893MOL0     C17776   8.911   8.309   7.879  0.1414 -0.1281  0.6021
  893MOL0     C17777   8.792   8.378   7.845  0.4037  0.0946 -0.3329
  893MOL0     C17778   8.663   8.336   7.886 -0.7491  0.8350 -0.3722
  893MOL0     O17779   8.546   8.409   7.871 -0.3746  0.0011  0.3712
  893MOL0     C17780   8.557   8.555   7.853 -0.9846 -0.1404  0.4868
  893MOL0     C17781   8.431   8.628   7.909  0.4273 -0.3185 -0.6100
  893MOL0     C17782   8.310   8.626   7.799 -0.7277  0.6458  0.2989
  893MOL0     C17783   8.193   8.695   7.837 -0.6988  0.5099  0.2479
  893MOL0     C17784   8.120   8.635   7.970 -0.3473  0.0483  0.8975
  893MOL0     C17785   7.977   8.688   7.983 -1.1709 -0.0264 -0.0193
  893MOL0     C17786   7.905   8.626   8.108 -0.5241 -0.0758  0.5294
  893MOL0     C17787   7.925   8.700   8.238  0.0554  0.3763  0.7855
  893MOL0    Cl17788   7.830   8.637   8.384  0.1099  0.2778  0.0701
  893MOL0     C17789   8.653   8.226   7.969  0.5551 -0.8453 -0.2666
  893MOL0     C17790   8.772   8.167   8.006  0.4582  0.3599  0.1635
  893MOL0     O17791   8.945   8.005   8.181  0.3090  0.9543 -0.6083
  893MOL0     C17792   9.238   7.966   7.981 -0.2580 -0.3357  0.2691
  893MOL0     C17793   9.363   7.914   7.984 -0.5588  0.9456 -0.3988
  893MOL0     N17794   9.892   8.036   8.602 -0.0729  0.0080 -0.4668
  893MOL0     N17795   9.819   8.080   8.693 -0.0328  0.3581  0.0646
  893MOL0     C17796   9.067   8.555   9.132 -0.6504  0.5031  0.2257
  893MOL0     C17797   9.076   8.669   9.220  0.1630 -0.1915 -0.6552
  893MOL0     C17798   8.995   9.026   9.494  0.9141 -1.0828 -0.4787
  893MOL0     C17799   9.101   9.079   9.575  1.1025 -0.5322  0.2101
  893MOL0     C17800   9.069   9.153   9.689  0.7092 -0.1292 -0.1601
  893MOL0     C17801   8.935   9.195   9.712  0.3096 -0.1818  0.5140
  893MOL0     O17802   8.912   9.269   9.820  0.5364  0.4056 -0.4568
  893MOL0     C17803   8.825   9.214   9.928  0.0391 -0.0947  0.5217
  893MOL0     C17804   8.911   9.150  10.039 -0.5551  0.3683  0.5559
  893MOL0     C17805   8.930   9.252  10.161  1.0586  0.3502 -0.6834
  893MOL0     C17806   9.019   9.361  10.116 -0.0748  0.2598  0.3046
  893MOL0     C17807   9.033   9.460  10.233  0.2943  0.3345  0.5626
  893MOL0     C17808   9.062   9.538  10.323 -0.1704 -0.8661 -0.4787
  893MOL0     C17809   8.839   9.153   9.620  0.0022 -0.6830 -0.7119
  893MOL0     C17810   8.858   9.062   9.514 -0.3379 -0.2604  0.4200
  893MOL0     H17811   8.750   8.758   9.210 -1.8113 -2.9606 -1.3741
  893MOL0     H17812   8.737   8.573   9.061 -0.5969  5.7740 -0.1330
  893MOL0     H17813   8.994   8.225   8.910  1.7037  0.6684 -2.3945
  893MOL0     H17814   9.104   8.295   9.039 -0.3731 -3.6469 -0.5687
  893MOL0     H17815   9.132   8.481   8.886  0.4513 -0.0405  1.0470
  893MOL0     H17816   9.034   8.391   8.765 -2.4066  1.8315  1.7981
  893MOL0     H17817   9.291   8.267   8.897 -0.8105 -2.2450 -0.4499
  893MOL0     H17818   9.278   8.366   8.749  1.9458  1.2795  2.6883
  893MOL0     H17819   9.178   8.082   8.771 -0.3069 -1.6802 -2.6528
  893MOL0     H17820   9.096   8.190   8.674  0.6382  0.4927  0.9523
  893MOL0     H17821   9.284   8.250   8.543  0.8286 -0.4551 -0.8877
  893MOL0     H17822   9.268   8.080   8.552  3.4424  0.2063 -0.5381
  893MOL0     H17823   9.461   8.242   8.716 -2.8046 -0.2909  0.3296
  893MOL0     H17824   9.506   8.159   8.563  1.2229  2.2137  0.7894
  893MOL0     H17825   9.396   8.036   8.821  0.2093  1.6935 -0.7890
  893MOL0     H17826   9.449   7.941   8.677  1.9241  0.8809 -1.2836
  893MOL0     H17827   9.627   7.927   8.873  2.4607  1.2999  1.5457
  893MOL0     H17828   9.626   8.103   8.867  3.0398  0.0725 -0.4021
  893MOL0     H17829   9.634   7.836   8.597 -0.7745  0.6199  1.8509
  893MOL0     H17830   9.848   7.759   8.388  0.5442  0.3028 -2.1695
  893MOL0     H17831   9.945   7.900   8.374  0.0826 -1.5769  1.3862
  893MOL0     H17832   9.691   8.015   8.337 -0.1784 -0.2153  1.0352
  893MOL0     H17833   9.644   7.848   8.349  1.4126 -1.5949  0.1586
  893MOL0     H17834   9.826   7.964   8.133 -2.8938  1.2758 -1.7868
  893MOL0     H17835   9.809   7.784   8.181 -1.9029 -0.9175  1.5429
  893MOL0     H17836   9.684   7.841   7.983 -2.7767 -0.1211 -0.9568
  893MOL0     H17837   9.619   7.985   8.064 -0.8779 -0.2199 -1.2422
  893MOL0     H17838   9.361   7.781   8.294  0.1665 -0.1178 -0.7290
  893MOL0     H17839   9.131   7.878   8.289 -1.9062  2.1458 -0.5056
  893MOL0     H17840   9.012   8.346   7.865  0.7111 -2.0353 -0.9064
  893MOL0     H17841   8.803   8.469   7.786 -0.0294 -1.7439 -3.4694
  893MOL0     H17842   8.566   8.567   7.744  1.8550  3.0392  0.8896
  893MOL0     H17843   8.640   8.607   7.901 -1.2033 -0.0309  0.7535
  893MOL0     H17844   8.456   8.734   7.922 -1.4931 -0.0309  1.1569
  893MOL0     H17845   8.408   8.602   8.012  1.4394  1.1413  0.0240
  893MOL0     H17846   8.289   8.519   7.796  3.1483 -0.2633  0.5625
  893MOL0     H17847   8.333   8.661   7.698 -1.6253  1.3585  0.3226
  893MOL0     H17848   8.221   8.799   7.857  2.2094 -0.0549 -0.4370
  893MOL0     H17849   8.130   8.705   7.748  3.2814 -0.9541 -3.0506
  893MOL0     H17850   8.172   8.669   8.060 -0.9953  0.0829  1.2619
  893MOL0     H17851   8.116   8.526   7.961 -2.7669  0.2313 -1.6898
  893MOL0     H17852   7.935   8.654   7.888 -1.5877 -2.8875  1.1069
  893MOL0     H17853   7.958   8.796   7.991 -2.5835 -0.1863 -0.8873
  893MOL0     H17854   7.799   8.633   8.081 -0.3197 -1.3960 -0.7884
  893MOL0     H17855   7.933   8.520   8.115 -1.0239 -0.2345  0.2261
  893MOL0     H17856   7.892   8.804   8.226 -0.5350  0.2834  1.5727
  893MOL0     H17857   8.034   8.698   8.253  0.0377 -2.2724  1.0230
  893MOL0     H17858   8.555   8.197   8.006  0.5238 -1.7912 -1.0443
  893MOL0     H17859   8.749   8.090   8.079  2.3359 -2.1514 -1.7023
  893MOL0     H17860   9.197   8.024   7.899 -2.2842 -0.4378  1.1509
  893MOL0     H17861   9.441   7.928   7.911 -1.0259 -0.1293 -1.1446
  893MOL0     H17862   9.161   8.503   9.115 -0.2619  0.2743  2.6944
  893MOL0     H17863   9.174   8.692   9.259 -0.4469 -2.5224  2.7270
  893MOL0     H17864   9.204   9.076   9.542  1.7279 -0.8575  2.1003
  893MOL0     H17865   9.139   9.191   9.762 -1.8616  3.0363  0.8778
  893MOL0     H17866   8.744   9.150   9.892 -1.0827  1.2182  0.5989
  893MOL0     H17867   8.769   9.297   9.973 -3.9447 -3.2981  2.0998
  893MOL0     H17868   8.872   9.053  10.071 -0.1379 -0.3314 -0.9805
  893MOL0     H17869   9.002   9.133   9.981 -0.1707  2.2622  0.5351
  893MOL0     H17870   8.975   9.199  10.244  1.0410  3.0891  1.2104
  893MOL0     H17871   8.834   9.287  10.201  0.9663 -0.6049 -0.0659
  893MOL0     H17872   9.113   9.318  10.082 -0.7622 -3.0044  2.0935
  893MOL0     H17873   8.978   9.415  10.030  0.8602 -3.4376 -2.7183
  893MOL0     H17874   9.085   9.597  10.409 -0.8101  0.9476 -1.4996
  893MOL0     H17875   8.736   9.183   9.635  0.2337  1.0542 -2.3019
  893MOL0     H17876   8.776   9.021   9.457 -1.0495  2.2547 -0.4659
  894MOL0     O17877  10.390   9.568   7.422  0.7675  0.5140  0.1136
  894MOL0     C17878  10.287   9.632   7.446 -0.7129  0.0651  0.5926
  894MOL0     O17879  10.271   9.765   7.412 -0.2359 -0.1357 -0.2460
  894MOL0     C17880  10.370   9.824   7.338 -0.1363  0.4022  0.9217
  894MOL0     C17881  10.495   9.858   7.386  0.0432  0.6234  0.8399
  894MOL0     C17882  10.587   9.910   7.295 -0.3230 -0.7464 -0.3726
  894MOL0     C17883  10.553   9.923   7.160  0.0412 -0.5850 -0.5315
  894MOL0     O17884  10.658   9.990   7.090  0.1441 -0.6471  0.0232
  894MOL0     C17885  10.634  10.024   6.954  0.3033 -0.3582 -0.4821
  894MOL0     C17886  10.689  10.175   6.935 -0.0415  0.3083  0.0075
  894MOL0     C17887  10.819  10.201   7.020  0.1828  0.3625 -0.2644
  894MOL0     C17888  10.882  10.338   6.987 -0.3008 -0.0846  0.1878
  894MOL0     C17889  11.027  10.339   7.032 -0.6935 -0.3885 -0.0727
  894MOL0     C17890  11.085  10.476   7.036 -0.1068 -0.1600 -0.2374
  894MOL0     C17891  11.235  10.467   7.040 -0.3094 -0.1881  1.0106
  894MOL0     C17892  11.302  10.582   7.124 -0.6494  0.4467 -0.0496
  894MOL0     N17893  11.258  10.722   7.074 -0.4782 -0.4522 -0.1932
  894MOL0     C17894  11.141  10.785   7.086 -0.3269  0.3939  0.1444
  894MOL0     C17895  11.153  10.905   7.019 -0.7282  0.1575  0.1280
  894MOL0     C17896  11.039  11.009   7.030 -0.6154  0.2383  0.3297
  894MOL0     C17897  10.944  10.990   6.927  0.4192  0.0526  0.3695
  894MOL0     C17898  10.839  11.097   6.946 -0.2044 -0.7406  0.1208
  894MOL0     C17899  10.737  11.091   6.832  0.2298 -0.5576  0.3055
  894MOL0     O17900  10.668  10.971   6.810 -0.2352  0.1078  0.1550
  894MOL0     C17901  10.551  10.968   6.873  0.8236  0.2649  0.8277
  894MOL0     C17902  10.531  10.864   6.960  0.0517  0.6813 -0.1447
  894MOL0     C17903  10.412  10.830   7.021  0.5169 -0.2845 -0.3306
  894MOL0     C17904  10.307  10.913   6.991 -0.3713  0.6729 -0.4955
  894MOL0     C17905  10.176  10.898   7.064 -0.4611  0.4439 -2.0120
  894MOL0     O17906  10.171  10.805   7.165 -0.9348  0.0716 -0.2373
  894MOL0     C17907  10.050  10.778   7.228  1.0245  0.1668  0.3727
  894MOL0     C17908   9.991  10.866   7.317  0.2121 -0.1152  0.1757
  894MOL0     C17909   9.858  10.835   7.356  0.0851  0.3743 -0.2269
  894MOL0     C17910   9.791  10.718   7.328  0.4868 -0.5324 -0.8014
  894MOL0     O17911   9.663  10.709   7.383  0.1622 -0.2210 -0.1173
  894MOL0     C17912   9.557  10.646   7.316  0.7415  0.2829 -0.2917
  894MOL0     C17913   9.530  10.697   7.173 -0.0354 -0.4205 -0.5165
  894MOL0     C17914   9.394  10.675   7.110  0.0881  0.1151  0.4386
  894MOL0     C17915   9.329  10.530   7.116 -0.4818  0.0742  0.1568
  894MOL0     C17916   9.181  10.545   7.108 -1.0547  0.1369 -0.2414
  894MOL0     C17917   9.137  10.402   7.114  0.0627 -0.1034  0.4203
  894MOL0     C17918   8.985  10.385   7.105 -0.2926  0.4237 -0.2536
  894MOL0     C17919   8.940  10.232   7.115  0.3968  0.4006 -0.1782
  894MOL0    Cl17920   8.974  10.163   7.278 -0.4613 -0.2924  0.5278
  894MOL0     C17921   9.850  10.629   7.244 -0.3528 -0.3369 -0.0163
  894MOL0     C17922   9.980  10.657   7.200 -0.1566  0.5028 -0.2295
  894MOL0     O17923  10.079  10.976   7.038  0.1574  0.7831 -0.5771
  894MOL0     C17924  10.314  11.017   6.893 -0.1387  0.0546 -0.0796
  894MOL0     C17925  10.438  11.046   6.834  0.9363 -0.0925 -0.2125
  894MOL0     N17926  11.284  10.905   6.968 -0.3289  0.6260  0.6309
  894MOL0     N17927  11.347  10.796   6.993 -0.2841  0.1515 -0.3461
  894MOL0     C17928  10.427   9.892   7.106 -0.1733  0.2235  0.0473
  894MOL0     C17929  10.334   9.851   7.202 -0.3533  0.7785 -0.1690
  894MOL0     C17930  10.168   9.566   7.498  0.1224  0.1050  0.3701
  894MOL0     C17931  10.041   9.627   7.476 -0.2800  0.5491 -1.0821
  894MOL0     C17932   9.926   9.573   7.519 -0.4262  0.0644 -0.2639
  894MOL0     C17933   9.926   9.450   7.580  0.0349 -1.3203 -0.1078
  894MOL0     O17934   9.805   9.411   7.633  0.2808 -1.3745  0.0415
  894MOL0     C17935   9.795   9.300   7.723  0.3142 -0.4122  0.2062
  894MOL0     C17936   9.704   9.199   7.649  0.3115 -0.1848  0.2708
  894MOL0     C17937   9.619   9.111   7.748  0.0945  0.2893  0.4598
  894MOL0     C17938   9.467   9.149   7.753 -0.3889  0.7309 -0.7631
  894MOL0     C17939   9.452   9.286   7.795  0.7574  1.0251  0.2786
  894MOL0     C17940   9.438   9.395   7.830 -0.2141  0.0963  0.0378
  894MOL0     C17941  10.053   9.384   7.598 -0.0392  0.3649  0.0496
  894MOL0     C17942  10.172   9.441   7.557  0.5377 -1.0089  0.6773
  894MOL0     H17943  10.534   9.849   7.487  2.0635 -1.9339 -0.0679
  894MOL0     H17944  10.687   9.929   7.334 -0.0134 -2.8542 -0.0438
  894MOL0     H17945  10.527  10.022   6.930  1.0345 -2.2272 -4.3062
  894MOL0     H17946  10.693   9.958   6.890 -1.9375  0.2080 -3.3540
  894MOL0     H17947  10.615  10.253   6.954  0.7037  0.5085  2.3926
  894MOL0     H17948  10.708  10.194   6.829 -0.4940 -0.4488 -0.2198
  894MOL0     H17949  10.885  10.116   7.001 -2.9119 -1.9631 -1.5464
  894MOL0     H17950  10.792  10.189   7.125 -0.6387  0.2569 -0.4824
  894MOL0     H17951  10.873  10.363   6.881  2.9266 -1.0141 -0.4389
  894MOL0     H17952  10.813  10.398   7.047 -2.1480 -1.1967 -0.7278
  894MOL0     H17953  11.079  10.275   6.960 -0.7519  0.4930 -0.9184
  894MOL0     H17954  11.035  10.286   7.128  0.4172  3.4067  2.1298
  894MOL0     H17955  11.051  10.528   7.126  1.2315 -0.5176  0.4999
  894MOL0     H17956  11.043  10.529   6.950  1.3248  3.6718  1.1915
  894MOL0     H17957  11.264  10.376   7.093  1.4699 -0.2879 -0.0747
  894MOL0     H17958  11.284  10.463   6.942 -0.6546 -1.5448  0.8660
  894MOL0     H17959  11.410  10.568   7.119 -0.6437 -2.0219  3.3153
  894MOL0     H17960  11.274  10.587   7.230 -3.1834 -1.4061 -0.5373
  894MOL0     H17961  11.050  10.757   7.138 -1.0873  0.5217 -1.0631
  894MOL0     H17962  11.082  11.108   7.015 -1.6766  0.8841  1.3249
  894MOL0     H17963  10.989  10.998   7.127 -2.3299  3.6229 -0.0005
  894MOL0     H17964  10.889  10.898   6.949 -2.3946  1.3784 -0.6062
  894MOL0     H17965  10.984  11.001   6.826 -0.2049  0.8725  0.1953
  894MOL0     H17966  10.797  11.076   7.045  1.6331 -0.1670  1.0624
  894MOL0     H17967  10.886  11.195   6.939  0.4348 -0.8742  2.0430
  894MOL0     H17968  10.796  11.100   6.741 -0.5325 -0.1240 -0.1549
  894MOL0     H17969  10.682  11.185   6.832 -1.9983 -1.7777 -1.4943
  894MOL0     H17970  10.615  10.802   6.990 -1.4852 -1.1475  0.6420
  894MOL0     H17971  10.408  10.744   7.087 -1.0464 -1.3446 -1.7430
  894MOL0     H17972  10.027  10.967   7.330 -0.7901  0.0691  1.7208
  894MOL0     H17973   9.819  10.911   7.423 -1.0193  1.6200 -2.1994
  894MOL0     H17974   9.470  10.659   7.381  0.4819 -1.4169 -0.2553
  894MOL0     H17975   9.573  10.538   7.306  2.3169  0.6260 -2.2462
  894MOL0     H17976   9.605  10.648   7.110  1.8953  0.3750  1.0860
  894MOL0     H17977   9.556  10.803   7.177 -1.0141 -0.1991  2.2519
  894MOL0     H17978   9.402  10.689   7.002 -0.0857  1.1885  0.5568
  894MOL0     H17979   9.331  10.750   7.160 -0.9224  0.1603 -0.8441
  894MOL0     H17980   9.375  10.469   7.038  1.6807  2.2256 -0.3795
  894MOL0     H17981   9.358  10.480   7.209 -1.2064  0.5463  0.6437
  894MOL0     H17982   9.163  10.602   7.016  3.6750 -0.4164 -1.7905
  894MOL0     H17983   9.139  10.586   7.200  1.0237 -0.0900  0.8857
  894MOL0     H17984   9.169  10.358   7.209  1.9995  0.6237  0.1492
  894MOL0     H17985   9.188  10.347   7.035  1.2680  2.3682 -0.6476
  894MOL0     H17986   8.945  10.443   7.189 -3.4075  0.2780 -1.4963
  894MOL0     H17987   8.954  10.423   7.007  0.5015  2.2748  0.1706
  894MOL0     H17988   8.989  10.164   7.044  0.6958 -1.5080  1.7481
  894MOL0     H17989   8.833  10.227   7.094  0.4965  1.2469 -0.9848
  894MOL0     H17990   9.816  10.527   7.228  2.3355 -1.3195  0.0678
  894MOL0     H17991  10.034  10.581   7.144 -2.2547 -0.8810 -0.4948
  894MOL0     H17992  10.230  11.075   6.856  1.0269  0.7249 -1.8054
  894MOL0     H17993  10.447  11.124   6.760 -1.8543 -0.2154 -0.7694
  894MOL0     H17994  10.397   9.901   7.002  2.5135  0.4602 -0.7725
  894MOL0     H17995  10.230   9.829   7.180 -0.2615  0.5567 -0.3822
  894MOL0     H17996  10.023   9.723   7.428 -1.2010  0.8144 -0.2303
  894MOL0     H17997   9.831   9.619   7.494 -0.8908 -1.7858 -2.2138
  894MOL0     H17998   9.751   9.345   7.812  1.4304  0.5224  0.3121
  894MOL0     H17999   9.892   9.259   7.753  2.8831  2.6535 -2.9873
  894MOL0     H18000   9.640   9.258   7.582  0.3364 -0.0971  0.3243
  894MOL0     H18001   9.764   9.127   7.593  0.9788  0.5784 -0.0234
  894MOL0     H18002   9.657   9.112   7.850 -0.5264 -3.0412  0.8230
  894MOL0     H18003   9.619   9.004   7.727 -3.0468  0.0579  1.2322
  894MOL0     H18004   9.422   9.131   7.655 -0.4894  0.1044 -0.6063
  894MOL0     H18005   9.404   9.092   7.822 -1.2741  0.7218 -1.5528
  894MOL0     H18006   9.416   9.496   7.857 -0.4408  0.1258 -0.2502
  894MOL0     H18007  10.062   9.289   7.650 -3.3710  0.0177  0.2328
  894MOL0     H18008  10.265   9.384   7.564 -0.5253 -2.9418 -0.0353
  895MOL0     O18009   9.955   9.121   1.980 -0.0765  0.2467 -0.1305
  895MOL0     C18010   9.914   9.224   1.934 -0.3052 -0.3592 -0.8743
  895MOL0     O18011   9.815   9.237   1.844  0.2742  0.1219 -0.0785
  895MOL0     C18012   9.759   9.127   1.790  0.3331  0.6564  0.5142
  895MOL0     C18013   9.677   9.037   1.863  1.5738 -0.5368  0.0395
  895MOL0     C18014   9.602   8.925   1.805 -0.7662  1.1146  0.8133
  895MOL0     C18015   9.618   8.904   1.660  0.0846 -0.3546 -0.6719
  895MOL0     O18016   9.568   8.803   1.587  0.5822 -0.3555  0.3455
  895MOL0     C18017   9.469   8.714   1.634 -0.5289 -0.4820 -0.5682
  895MOL0     C18018   9.420   8.617   1.525  0.3358  0.0357 -0.2954
  895MOL0     C18019   9.351   8.690   1.409 -0.3482 -0.4572  0.3281
  895MOL0     C18020   9.247   8.790   1.444  0.2082  0.1679  0.3864
  895MOL0     C18021   9.183   8.849   1.315  0.9358  0.5060  1.7588
  895MOL0     C18022   9.167   8.761   1.184 -0.0118 -0.3594 -0.5972
  895MOL0     C18023   9.145   8.849   1.055 -0.2211  0.3404  0.0768
  895MOL0     C18024   9.110   8.781   0.923  0.0901 -0.2125 -0.1380
  895MOL0     N18025   8.981   8.712   0.946 -0.6157 -0.8016  0.3722
  895MOL0     C18026   8.957   8.575   0.964 -0.9614  0.4625  0.3522
  895MOL0     C18027   8.821   8.568   0.991  0.5217 -0.5473 -0.1019
  895MOL0     C18028   8.732   8.450   1.021  0.4180  1.4138 -0.1929
  895MOL0     C18029   8.617   8.437   0.916 -1.2278  0.0961 -0.4542
  895MOL0     C18030   8.529   8.323   0.954  0.5914 -0.3398 -0.0411
  895MOL0     C18031   8.405   8.319   0.871 -0.9648  0.0164 -0.4196
  895MOL0     O18032   8.443   8.277   0.739  0.1517 -0.1858 -0.0594
  895MOL0     C18033   8.428   8.146   0.710 -0.4429 -0.1723  0.5202
  895MOL0     C18034   8.339   8.053   0.760  0.2855  0.0685 -0.0348
  895MOL0     C18035   8.328   7.927   0.711 -0.5046  0.1547  0.1744
  895MOL0     C18036   8.397   7.888   0.597  0.0447 -0.7497 -0.1908
  895MOL0     C18037   8.371   7.763   0.525  0.6071 -1.6334  0.0711
  895MOL0     O18038   8.260   7.688   0.558 -0.0301  0.9612 -0.8131
  895MOL0     C18039   8.218   7.587   0.471 -0.8306 -0.2280  0.6516
  895MOL0     C18040   8.268   7.560   0.338  0.2146 -0.4611 -0.2671
  895MOL0     C18041   8.200   7.454   0.267  0.4119 -0.6512  0.2461
  895MOL0     C18042   8.131   7.354   0.333 -1.2270  0.6277 -0.1741
  895MOL0     O18043   8.082   7.250   0.267  0.3901  0.3278  0.0888
  895MOL0     C18044   8.176   7.154   0.237  0.3237  0.3950  0.1105
  895MOL0     C18045   8.097   7.031   0.190 -0.4566  0.7409 -0.1464
  895MOL0     C18046   8.031   6.945   0.298 -1.3680 -0.0736  0.2835
  895MOL0     C18047   7.935   6.843   0.232  0.3653  0.4604  0.7287
  895MOL0     C18048   7.988   6.700   0.253 -0.1541  0.0131  0.6251
  895MOL0     C18049   7.893   6.606   0.183  0.3374 -0.0879  0.0440
  895MOL0     C18050   7.921   6.467   0.230  0.2991 -0.2336  0.2222
  895MOL0     C18051   8.035   6.398   0.180  0.4952  0.0120  0.0208
  895MOL0    Cl18052   8.054   6.434   0.006 -0.2843  0.2598  0.3183
  895MOL0     C18053   8.099   7.379   0.462  0.9078 -0.0030 -0.1612
  895MOL0     C18054   8.132   7.496   0.531 -0.8168  0.3211 -0.3610
  895MOL0     O18055   8.449   7.740   0.433 -0.4483  0.3731  0.8929
  895MOL0     C18056   8.487   7.988   0.532  0.7053  0.5855 -0.4006
  895MOL0     C18057   8.507   8.109   0.602  0.3420  0.3663  0.0941
  895MOL0     N18058   8.767   8.700   1.005  0.3819 -0.7497  0.2523
  895MOL0     N18059   8.864   8.778   0.967  0.3588  0.2302  0.2909
  895MOL0     C18060   9.693   9.003   1.587 -0.9500  0.7776 -0.1923
  895MOL0     C18061   9.762   9.105   1.652 -0.4116 -0.5374  0.1933
  895MOL0     C18062   9.978   9.349   1.977 -0.8596  0.3744 -0.1856
  895MOL0     C18063  10.112   9.344   2.038  0.3380  0.3921  0.0127
  895MOL0     C18064  10.176   9.464   2.060  0.3229  0.0707 -0.1845
  895MOL0     C18065  10.124   9.581   2.004  0.0313 -0.1648  0.2258
  895MOL0     O18066  10.200   9.693   2.018  0.0164  0.3741  0.4029
  895MOL0     C18067  10.151   9.777   2.121  0.4268  0.1502 -0.0777
  895MOL0     C18068  10.187   9.914   2.098  1.1495 -1.2129 -0.2261
  895MOL0     C18069  10.326   9.936   2.138 -0.5116  0.0297  0.7510
  895MOL0     C18070  10.328   9.985   2.285 -0.9876 -0.0003  0.0210
  895MOL0     C18071  10.465  10.001   2.325 -0.4732 -0.3964  0.5337
  895MOL0     C18072  10.577   9.978   2.360  0.2937 -0.0940 -1.1008
  895MOL0     C18073  10.001   9.595   1.949 -0.1679  0.2349 -0.3116
  895MOL0     C18074   9.925   9.478   1.937  0.1360  0.6167 -0.7958
  895MOL0     H18075   9.662   9.056   1.969 -2.4688 -3.4101  0.2383
  895MOL0     H18076   9.548   8.862   1.874  1.4323 -0.0716  1.5638
  895MOL0     H18077   9.387   8.759   1.691 -0.1193  0.6665 -0.8632
  895MOL0     H18078   9.525   8.650   1.702 -3.0212 -1.8492  0.3435
  895MOL0     H18079   9.364   8.541   1.580  3.6281 -0.2702  2.9922
  895MOL0     H18080   9.512   8.566   1.493  2.5055  1.3104  3.3452
  895MOL0     H18081   9.302   8.612   1.350  0.9608 -1.3794  0.4297
  895MOL0     H18082   9.430   8.742   1.354 -1.2936  0.8716  0.1628
  895MOL0     H18083   9.181   8.746   1.519  0.1728  2.4571  1.8022
  895MOL0     H18084   9.292   8.875   1.497 -0.0972 -1.1859  2.9756
  895MOL0     H18085   9.256   8.911   1.263  1.9302 -2.1432 -0.2310
  895MOL0     H18086   9.094   8.906   1.343 -0.1254 -0.1050 -0.1950
  895MOL0     H18087   9.079   8.701   1.210 -2.5583  2.5912 -1.7315
  895MOL0     H18088   9.258   8.706   1.155 -0.8992 -3.9021  2.4986
  895MOL0     H18089   9.063   8.915   1.084 -0.2972  0.3370 -0.1292
  895MOL0     H18090   9.225   8.923   1.042 -0.5147  0.4475 -1.2566
  895MOL0     H18091   9.194   8.715   0.903  0.6399 -1.2354  4.4880
  895MOL0     H18092   9.097   8.856   0.844  0.2647  1.0680  1.0108
  895MOL0     H18093   9.039   8.505   0.970 -0.4896  0.7729 -1.6881
  895MOL0     H18094   8.689   8.462   1.121 -2.0352 -2.8412 -0.4925
  895MOL0     H18095   8.792   8.360   1.011 -1.7953 -0.0194 -1.3767
  895MOL0     H18096   8.654   8.420   0.815  0.4232  1.6325 -0.1516
  895MOL0     H18097   8.565   8.533   0.921  1.1315  1.4242  0.1669
  895MOL0     H18098   8.582   8.230   0.931  1.2138 -0.0197  0.0741
  895MOL0     H18099   8.502   8.332   1.059 -0.8189 -0.6425 -0.3562
  895MOL0     H18100   8.376   8.424   0.867  0.9761  0.5815 -1.0673
  895MOL0     H18101   8.327   8.263   0.923 -0.9153  1.8937  1.8670
  895MOL0     H18102   8.261   8.084   0.829  0.4803 -0.7162  0.5427
  895MOL0     H18103   8.249   7.865   0.751  1.3955 -0.4313  3.3482
  895MOL0     H18104   8.320   7.632   0.276 -1.3624 -2.1738 -3.8496
  895MOL0     H18105   8.229   7.433   0.164 -1.1961  1.6432 -0.7689
  895MOL0     H18106   8.231   7.127   0.328  0.5275 -3.1527 -0.8891
  895MOL0     H18107   8.247   7.189   0.162  1.9533  1.2515  1.9742
  895MOL0     H18108   8.163   6.982   0.117  0.1681  2.1378 -0.5541
  895MOL0     H18109   8.014   7.068   0.128 -1.4052 -2.4505 -0.9684
  895MOL0     H18110   7.979   7.020   0.359 -1.4601 -0.0878  0.2223
  895MOL0     H18111   8.114   6.897   0.350  0.3392  0.2563 -1.9622
  895MOL0     H18112   7.833   6.858   0.268  0.0156  0.2412 -0.1606
  895MOL0     H18113   7.923   6.863   0.126  0.1755  2.2017  1.0447
  895MOL0     H18114   8.000   6.691   0.361  1.5277 -0.7917  0.4025
  895MOL0     H18115   8.083   6.686   0.200 -0.2304  1.5068  0.0502
  895MOL0     H18116   7.907   6.617   0.075  3.5714 -1.4304  0.2183
  895MOL0     H18117   7.793   6.641   0.209 -0.0348 -1.1915  0.1350
  895MOL0     H18118   7.928   6.455   0.338  0.3158 -1.1262  0.1269
  895MOL0     H18119   7.826   6.417   0.209  0.2437  0.2719 -0.7812
  895MOL0     H18120   8.021   6.291   0.199  2.7685 -0.3779 -0.2462
  895MOL0     H18121   8.121   6.434   0.238  1.4425  0.2476 -1.4665
  895MOL0     H18122   8.044   7.302   0.516 -0.4035  0.2895 -1.0385
  895MOL0     H18123   8.107   7.507   0.635 -2.8738 -0.8130 -0.6779
  895MOL0     H18124   8.529   7.970   0.433  1.0242 -0.2327 -0.1253
  895MOL0     H18125   8.581   8.178   0.561  0.6711 -0.5545 -0.9032
  895MOL0     H18126   9.700   8.989   1.479  2.5957 -1.9961  0.2227
  895MOL0     H18127   9.832   9.172   1.602  0.3536 -0.6298  1.1159
  895MOL0     H18128  10.149   9.247   2.066  1.0547  0.7012  0.1447
  895MOL0     H18129  10.268   9.450   2.115  0.1581 -1.9832 -0.3223
  895MOL0     H18130  10.187   9.737   2.216  0.9251  3.6793  1.3608
  895MOL0     H18131  10.042   9.769   2.133  0.3868  0.8717  0.0637
  895MOL0     H18132  10.182   9.923   1.989  3.0376  0.6749 -0.2251
  895MOL0     H18133  10.114   9.980   2.145  1.5937  2.0599 -3.6454
  895MOL0     H18134  10.371  10.016   2.078  0.9421 -2.0066 -1.0019
  895MOL0     H18135  10.385   9.845   2.123 -0.8077  0.1372 -1.4795
  895MOL0     H18136  10.272  10.077   2.305  0.4767  1.0449 -0.4750
  895MOL0     H18137  10.288   9.912   2.355  5.2789 -2.5674  1.6266
  895MOL0     H18138  10.666   9.991   2.419 -2.1839  1.6057  2.6809
  895MOL0     H18139   9.969   9.690   1.908  0.0841  0.7711  0.7151
  895MOL0     H18140   9.835   9.484   1.876 -0.3725  2.7381  0.0736
  896MOL0     O18141   6.626   6.184   0.379 -0.0555 -0.0121  0.0559
  896MOL0     C18142   6.620   6.101   0.478  0.0496  0.5546 -0.0559
  896MOL0     O18143   6.726   6.023   0.525  0.2854 -0.4146  0.9190
  896MOL0     C18144   6.839   6.010   0.439  0.3544 -0.0491 -0.2288
  896MOL0     C18145   6.963   6.028   0.492 -0.0610  0.7721 -0.2570
  896MOL0     C18146   7.071   6.003   0.406 -0.5436 -0.4557 -0.1756
  896MOL0     C18147   7.058   5.961   0.275 -0.1443 -0.4084 -0.8243
  896MOL0     O18148   7.166   5.948   0.194 -0.7843 -0.5070 -0.9100
  896MOL0     C18149   7.297   5.911   0.255  0.0037 -0.3989  0.3998
  896MOL0     C18150   7.377   5.831   0.154 -0.3476  0.1435 -0.1199
  896MOL0     C18151   7.420   5.930   0.043 -0.0378  0.0307  0.3655
  896MOL0     C18152   7.548   6.007   0.071 -0.4855  0.8673  0.2567
  896MOL0     C18153   7.605   6.074  -0.056  0.7593  0.5400 -0.7350
  896MOL0     C18154   7.734   6.155  -0.028 -0.5995 -0.5191 -0.2255
  896MOL0     C18155   7.815   6.196  -0.160 -0.2428 -0.1308  0.5056
  896MOL0     C18156   7.724   6.276  -0.259 -0.0618  0.4516  0.4891
  896MOL0     N18157   7.786   6.405  -0.315  1.0833  1.1199  0.2881
  896MOL0     C18158   7.818   6.512  -0.236 -1.3969 -1.2943 -0.5414
  896MOL0     C18159   7.865   6.590  -0.333  1.1931 -1.5451  0.3330
  896MOL0     C18160   7.889   6.734  -0.308  0.8296  0.0347  0.6394
  896MOL0     C18161   7.978   6.751  -0.180 -0.3965  0.8746 -1.1369
  896MOL0     C18162   8.053   6.884  -0.164 -0.3996 -0.4570  0.5147
  896MOL0     C18163   7.962   7.000  -0.175  0.0217 -0.0122 -0.0247
  896MOL0     O18164   8.041   7.119  -0.193  0.1202 -0.2554 -0.8297
  896MOL0     C18165   8.092   7.150  -0.320 -0.9875  0.1387 -0.9749
  896MOL0     C18166   8.093   7.068  -0.432 -0.6286  0.1445  0.6327
  896MOL0     C18167   8.155   7.107  -0.554  0.0811  0.4222  0.2348
  896MOL0     C18168   8.225   7.237  -0.558 -0.1749  0.1205 -0.0887
  896MOL0     C18169   8.260   7.288  -0.692 -0.3003  0.4040 -0.3575
  896MOL0     O18170   8.287   7.199  -0.793 -0.1645 -0.3445 -0.1450
  896MOL0     C18171   8.267   7.250  -0.924  0.6431 -0.0543 -0.2950
  896MOL0     C18172   8.330   7.364  -0.983  0.0984  0.5903  0.0050
  896MOL0     C18173   8.323   7.387  -1.118 -0.5036 -0.5994  0.6146
  896MOL0     C18174   8.238   7.308  -1.194  0.7308  0.2522 -0.0078
  896MOL0     O18175   8.214   7.329  -1.326  0.1260  0.0184 -0.1822
  896MOL0     C18176   8.341   7.348  -1.405  0.0979  0.1256 -0.3282
  896MOL0     C18177   8.316   7.315  -1.549  0.6829  0.3155 -0.2464
  896MOL0     C18178   8.265   7.164  -1.564  0.0522  0.1235  0.8167
  896MOL0     C18179   8.297   7.109  -1.709  0.4051 -0.1406  0.6937
  896MOL0     C18180   8.288   6.953  -1.721 -0.3555 -0.1720  0.0735
  896MOL0     C18181   8.283   6.883  -1.857 -0.8264 -0.6167  0.6384
  896MOL0     C18182   8.341   6.743  -1.837 -0.6903  0.7674  0.2157
  896MOL0     C18183   8.323   6.647  -1.956 -0.6749  0.2633 -0.9675
  896MOL0    Cl18184   8.147   6.630  -2.003  0.1349 -0.4257  0.4230
  896MOL0     C18185   8.174   7.200  -1.133  0.0391  0.9544  0.2384
  896MOL0     C18186   8.179   7.172  -0.999 -0.5917 -0.2676  0.5483
  896MOL0     O18187   8.238   7.407  -0.706 -1.0014 -0.0724 -0.3394
  896MOL0     C18188   8.232   7.313  -0.445  1.5370  0.1775  0.4189
  896MOL0     C18189   8.174   7.266  -0.323 -0.1596 -0.1783 -0.4310
  896MOL0     N18190   7.855   6.541  -0.460  0.5910 -0.8638  0.2386
  896MOL0     N18191   7.816   6.421  -0.448 -0.3694  0.3849 -0.1811
  896MOL0     C18192   6.928   5.941   0.227  0.4359 -0.7645  0.1243
  896MOL0     C18193   6.820   5.978   0.308 -0.0736  0.3292 -0.6108
  896MOL0     C18194   6.492   6.080   0.550 -0.4332 -1.5312  0.3111
  896MOL0     C18195   6.490   6.024   0.672  0.4314  0.2581  0.3392
  896MOL0     C18196   6.367   5.993   0.728 -0.8495  0.3079 -0.1078
  896MOL0     C18197   6.244   6.012   0.661  0.0203 -0.6412  1.0054
  896MOL0     O18198   6.130   5.980   0.729  0.4928  0.3677  0.0073
  896MOL0     C18199   5.999   5.972   0.675  0.6571 -0.3456  0.0254
  896MOL0     C18200   5.962   5.846   0.604  0.0726 -0.6345  0.3092
  896MOL0     C18201   6.025   5.830   0.469 -0.5595 -0.2289  0.6860
  896MOL0     C18202   6.012   5.692   0.400 -0.3488 -0.0939  0.1705
  896MOL0     C18203   5.875   5.646   0.384  0.6830 -0.2623  0.4176
  896MOL0     C18204   5.765   5.614   0.372 -0.2546  0.5237 -0.6138
  896MOL0     C18205   6.247   6.089   0.546  0.1328  1.0188  0.4230
  896MOL0     C18206   6.367   6.120   0.485  0.1409  0.4482  0.1297
  896MOL0     H18207   6.975   6.041   0.599  0.0766 -2.5151  0.2081
  896MOL0     H18208   7.165   6.032   0.452  0.2807 -1.2607 -1.2967
  896MOL0     H18209   7.295   5.854   0.348  3.3893 -2.8079 -0.8076
  896MOL0     H18210   7.359   6.001   0.265  0.7421 -0.2800 -3.5110
  896MOL0     H18211   7.314   5.751   0.114  2.1131 -0.5611 -2.9139
  896MOL0     H18212   7.458   5.787   0.212  1.1059  1.3743 -1.1342
  896MOL0     H18213   7.338   6.000   0.023  0.9220  1.3169  0.7683
  896MOL0     H18214   7.442   5.876  -0.050  0.7809 -3.0925  2.2373
  896MOL0     H18215   7.539   6.088   0.143 -0.9953  2.1079 -1.1585
  896MOL0     H18216   7.627   5.943   0.110 -1.2559  0.2114  0.7966
  896MOL0     H18217   7.526   6.139  -0.095 -1.8237 -1.0920  1.4396
  896MOL0     H18218   7.624   5.993  -0.126 -2.8794 -0.3770 -0.8931
  896MOL0     H18219   7.801   6.097   0.035 -1.0475 -0.6275  0.1528
  896MOL0     H18220   7.696   6.245   0.020 -0.4942 -0.2851 -0.5747
  896MOL0     H18221   7.908   6.239  -0.124  0.6893 -0.1355 -1.7569
  896MOL0     H18222   7.847   6.105  -0.211  1.6274 -0.2911  1.8837
  896MOL0     H18223   7.639   6.314  -0.201  1.9153  2.3643  2.3306
  896MOL0     H18224   7.697   6.202  -0.335  3.4937  1.3859 -1.9217
  896MOL0     H18225   7.812   6.534  -0.130  0.7328  0.2314 -0.6802
  896MOL0     H18226   7.791   6.779  -0.286  1.1582 -0.9118  4.9363
  896MOL0     H18227   7.945   6.780  -0.390  1.2987 -0.0127  0.9288
  896MOL0     H18228   8.041   6.662  -0.173  0.3889  1.4585 -0.7062
  896MOL0     H18229   7.909   6.755  -0.096  1.0757  2.6349  0.0519
  896MOL0     H18230   8.096   6.890  -0.064  1.2060  2.2292 -0.2291
  896MOL0     H18231   8.134   6.888  -0.238 -0.8647  1.0908  0.0585
  896MOL0     H18232   7.921   7.001  -0.074  3.5812 -1.2326  1.5922
  896MOL0     H18233   7.882   7.001  -0.250 -0.3578 -0.5663  0.3633
  896MOL0     H18234   8.025   6.983  -0.428 -2.2864  1.3335 -0.8242
  896MOL0     H18235   8.160   7.040  -0.639 -2.7947 -0.2329  0.4733
  896MOL0     H18236   8.409   7.411  -0.925 -0.6492 -1.2860  2.7608
  896MOL0     H18237   8.392   7.455  -1.166 -0.6836 -0.9669 -0.1789
  896MOL0     H18238   8.423   7.289  -1.362  1.0109  1.0142 -0.8123
  896MOL0     H18239   8.370   7.453  -1.405 -0.4220  0.3419  2.2723
  896MOL0     H18240   8.410   7.332  -1.602  1.4645 -0.6846  0.7720
  896MOL0     H18241   8.245   7.389  -1.588 -1.1405 -0.9222  0.5574
  896MOL0     H18242   8.158   7.158  -1.545 -0.4991  2.9116 -0.8295
  896MOL0     H18243   8.320   7.109  -1.487 -1.7768 -0.8077  1.5173
  896MOL0     H18244   8.240   7.165  -1.784  0.1060  0.9756  1.7286
  896MOL0     H18245   8.402   7.129  -1.729 -0.0699  5.9357  2.3637
  896MOL0     H18246   8.196   6.914  -1.675  1.0285 -0.8817  2.4192
  896MOL0     H18247   8.374   6.919  -1.664 -1.1301  0.0054  1.3899
  896MOL0     H18248   8.355   6.937  -1.920 -3.2985  0.3842 -1.5052
  896MOL0     H18249   8.185   6.894  -1.903  0.5054  3.8679 -1.8060
  896MOL0     H18250   8.450   6.750  -1.835 -0.5430  0.0544 -1.9857
  896MOL0     H18251   8.315   6.697  -1.742  1.8108 -0.9377  0.1561
  896MOL0     H18252   8.362   6.554  -1.915 -0.8790 -0.3672 -2.1555
  896MOL0     H18253   8.389   6.691  -2.032  3.4340  0.0817  2.1410
  896MOL0     H18254   8.120   7.135  -1.202  3.3076 -1.0138 -0.7000
  896MOL0     H18255   8.138   7.080  -0.959 -1.4333 -0.1741 -0.0726
  896MOL0     H18256   8.271   7.414  -0.458 -0.2285  0.4627 -4.4194
  896MOL0     H18257   8.178   7.323  -0.230  1.8181 -0.4603 -0.2911
  896MOL0     H18258   6.899   5.916   0.125 -2.0919  2.7037 -0.1766
  896MOL0     H18259   6.721   5.984   0.263 -0.7377 -0.7445  0.6440
  896MOL0     H18260   6.584   6.013   0.724  0.2622 -1.8141  0.2805
  896MOL0     H18261   6.348   5.951   0.826 -3.0147  0.4452 -0.4263
  896MOL0     H18262   5.977   6.069   0.630  2.6639  1.0141  1.7952
  896MOL0     H18263   5.931   5.957   0.759 -0.5069 -2.7473 -1.2412
  896MOL0     H18264   5.996   5.760   0.663  0.1547 -0.1184  1.0391
  896MOL0     H18265   5.853   5.852   0.595  0.2597  3.5013 -1.4487
  896MOL0     H18266   6.131   5.856   0.472 -0.0057 -1.6569 -2.3531
  896MOL0     H18267   5.972   5.901   0.404 -2.2283 -2.3620 -0.4281
  896MOL0     H18268   6.063   5.698   0.304 -1.7645  1.2300 -0.5263
  896MOL0     H18269   6.071   5.620   0.459  3.8250  1.8082 -1.2946
  896MOL0     H18270   5.665   5.586   0.346  0.1461  1.4481 -3.6190
  896MOL0     H18271   6.150   6.125   0.511  1.7573  3.0048 -2.4600
  896MOL0     H18272   6.363   6.168   0.388  1.3382 -1.8331 -1.1372
  897MOL0     O18273   4.434   2.270   0.599  0.5462  0.4973 -0.3099
  897MOL0     C18274   4.472   2.152   0.606  0.1557  0.0995  0.7799
  897MOL0     O18275   4.592   2.110   0.563  0.2907  0.0703  0.0679
  897MOL0     C18276   4.668   2.177   0.463 -0.0412  1.1767 -0.1135
  897MOL0     C18277   4.706   2.308   0.448 -0.2760 -0.5199  1.1202
  897MOL0     C18278   4.775   2.352   0.333  0.8995  0.0584  0.5411
  897MOL0     C18279   4.821   2.259   0.243 -0.9332 -0.2239  0.3242
  897MOL0     O18280   4.866   2.316   0.128 -0.6383  0.1040  0.1126
  897MOL0     C18281   4.974   2.245   0.072 -0.0702  0.0001 -0.3510
  897MOL0     C18282   5.108   2.312   0.119  0.5860  0.4625  0.6631
  897MOL0     C18283   5.205   2.335   0.001 -0.8711  0.2292 -0.0624
  897MOL0     C18284   5.340   2.408   0.045  0.2864 -0.2436  0.5106
  897MOL0     C18285   5.316   2.559   0.056  0.2583  0.9413  0.0028
  897MOL0     C18286   5.355   2.638  -0.065 -0.4316 -0.5060  0.0066
  897MOL0     C18287   5.507   2.639  -0.091 -0.7012  0.2693  0.3799
  897MOL0     C18288   5.577   2.748  -0.006 -0.2401  0.1179  1.1328
  897MOL0     N18289   5.726   2.747  -0.015  0.7810  0.6211  0.2683
  897MOL0     C18290   5.805   2.637  -0.010 -0.7850  0.6432  0.2471
  897MOL0     C18291   5.929   2.682  -0.050  1.2176  0.1684 -0.4499
  897MOL0     C18292   6.044   2.582  -0.048 -0.0176 -0.2340  0.0541
  897MOL0     C18293   6.171   2.642  -0.097  0.5345  0.5177  0.6695
  897MOL0     C18294   6.284   2.543  -0.119 -0.1773  0.1396  0.4689
  897MOL0     C18295   6.386   2.599  -0.206 -0.3680 -0.1945  0.2214
  897MOL0     O18296   6.490   2.495  -0.225  0.3489  0.0379  0.6691
  897MOL0     C18297   6.616   2.520  -0.271 -0.1800  0.5254  0.1082
  897MOL0     C18298   6.666   2.645  -0.302  0.4133  0.2667  0.1861
  897MOL0     C18299   6.793   2.665  -0.353 -0.2737  0.6645 -0.0430
  897MOL0     C18300   6.886   2.554  -0.355 -0.3686  0.0866  0.7620
  897MOL0     C18301   7.033   2.581  -0.392  0.5334 -0.3845 -1.2079
  897MOL0     O18302   7.101   2.465  -0.422 -1.3392 -0.4551 -0.0224
  897MOL0     C18303   7.234   2.474  -0.471 -0.4230 -0.1227 -1.0572
  897MOL0     C18304   7.272   2.529  -0.591  0.5594 -0.7612  0.6436
  897MOL0     C18305   7.408   2.566  -0.616  0.4269 -0.6308 -0.6534
  897MOL0     C18306   7.496   2.538  -0.515 -0.5314 -0.2187  0.2031
  897MOL0     O18307   7.634   2.563  -0.524 -0.1733 -0.6186 -0.3640
  897MOL0     C18308   7.688   2.613  -0.656  0.6978 -0.4781 -0.5532
  897MOL0     C18309   7.827   2.674  -0.642 -0.0531  0.4817  0.7564
  897MOL0     C18310   7.933   2.575  -0.611 -1.0862  0.5365 -1.1447
  897MOL0     C18311   8.067   2.623  -0.559  0.4140 -0.2566  0.1989
  897MOL0     C18312   8.178   2.521  -0.558  0.1124  0.4901  0.4163
  897MOL0     C18313   8.298   2.581  -0.503  0.1274  0.0152 -0.1933
  897MOL0     C18314   8.423   2.494  -0.538  0.0727  0.1796  1.2436
  897MOL0     C18315   8.537   2.585  -0.503 -1.2604 -0.0726 -0.0768
  897MOL0    Cl18316   8.681   2.497  -0.526  0.0461 -0.8463 -0.4217
  897MOL0     C18317   7.462   2.463  -0.393  0.0964  0.7650 -0.2169
  897MOL0     C18318   7.332   2.447  -0.373 -0.3917 -0.3991 -0.8530
  897MOL0     O18319   7.079   2.693  -0.394  0.7706  0.0333  0.9471
  897MOL0     C18320   6.824   2.426  -0.336  0.5361 -0.5892  0.4260
  897MOL0     C18321   6.693   2.413  -0.294  0.4273 -0.0136  0.4497
  897MOL0     N18322   5.917   2.819  -0.073  0.3824 -0.5143 -0.6015
  897MOL0     N18323   5.796   2.857  -0.052  1.2212 -1.0747  0.5745
  897MOL0     C18324   4.805   2.123   0.261  0.1799 -0.3314  0.3944
  897MOL0     C18325   4.728   2.085   0.377 -0.6795  0.3024 -0.2539
  897MOL0     C18326   4.385   2.053   0.666  0.0317  0.9462  0.2627
  897MOL0     C18327   4.278   2.088   0.757  0.9337  0.0545  0.7735
  897MOL0     C18328   4.196   1.992   0.817  0.2310 -0.8479 -0.1475
  897MOL0     C18329   4.211   1.854   0.787 -0.2975  0.1638  0.4024
  897MOL0     O18330   4.126   1.756   0.841  0.1327  0.3324  0.0275
  897MOL0     C18331   4.014   1.785   0.926 -0.0232  0.3198 -0.8297
  897MOL0     C18332   3.990   1.662   1.009  0.9517 -0.0129  0.2160
  897MOL0     C18333   3.939   1.700   1.143  0.9558 -0.0880  0.6583
  897MOL0     C18334   3.882   1.579   1.212  0.3739 -0.0780  0.7108
  897MOL0     C18335   3.842   1.618   1.352 -0.5850 -0.5983  0.8377
  897MOL0     C18336   3.793   1.644   1.463  0.1820 -0.4641 -0.3497
  897MOL0     C18337   4.315   1.824   0.696 -0.0119  1.2061  0.2942
  897MOL0     C18338   4.407   1.913   0.640  1.1615  0.5267  0.1604
  897MOL0     H18339   4.676   2.390   0.513  3.5467  2.3347 -0.3230
  897MOL0     H18340   4.786   2.459   0.320  0.4477  0.2207  1.3705
  897MOL0     H18341   4.954   2.234  -0.035  0.3342 -1.4033 -0.3078
  897MOL0     H18342   4.981   2.143   0.112 -2.4192  1.1784  3.5729
  897MOL0     H18343   5.152   2.253   0.200 -0.8022 -0.4849  0.7702
  897MOL0     H18344   5.090   2.406   0.172 -3.8128  0.3460 -0.1959
  897MOL0     H18345   5.142   2.388  -0.071 -3.5220 -2.0983  0.3307
  897MOL0     H18346   5.229   2.236  -0.039  0.3385  0.1478  0.8231
  897MOL0     H18347   5.368   2.384   0.148  2.5689  2.5202  0.6796
  897MOL0     H18348   5.421   2.378  -0.023  1.9965 -1.3272  2.8729
  897MOL0     H18349   5.382   2.590   0.137 -0.6854 -1.0473  1.6371
  897MOL0     H18350   5.211   2.579   0.081 -0.3506 -0.8436 -0.9291
  897MOL0     H18351   5.321   2.742  -0.056 -2.9472 -1.1938 -0.8177
  897MOL0     H18352   5.311   2.593  -0.155  3.6392  0.1935 -2.6140
  897MOL0     H18353   5.554   2.546  -0.058 -0.7478 -0.9169 -2.6174
  897MOL0     H18354   5.521   2.655  -0.198 -2.4941  1.8092  0.3386
  897MOL0     H18355   5.533   2.743   0.094 -3.3508 -0.9582 -0.1694
  897MOL0     H18356   5.544   2.846  -0.043 -3.0173 -1.8401 -2.1038
  897MOL0     H18357   5.780   2.533   0.010  0.7987 -0.0394 -1.0804
  897MOL0     H18358   6.017   2.504  -0.120  1.9573 -1.0724  0.1738
  897MOL0     H18359   6.056   2.534   0.049  1.3358 -0.7917 -0.3783
  897MOL0     H18360   6.209   2.724  -0.035  0.2839  1.6000 -0.5523
  897MOL0     H18361   6.152   2.692  -0.193  0.6426  3.2851  1.9927
  897MOL0     H18362   6.317   2.517  -0.018 -2.4549  0.9786  1.4854
  897MOL0     H18363   6.255   2.450  -0.169 -2.4740  1.5584 -0.9784
  897MOL0     H18364   6.428   2.689  -0.161 -0.6560 -0.4065  0.9231
  897MOL0     H18365   6.345   2.624  -0.304  0.9443  2.9623  0.3590
  897MOL0     H18366   6.601   2.731  -0.289 -0.2777  0.3933 -3.2450
  897MOL0     H18367   6.829   2.766  -0.371  0.9447  0.1846 -0.4205
  897MOL0     H18368   7.201   2.558  -0.669  1.9602  2.5994  0.4282
  897MOL0     H18369   7.421   2.634  -0.699 -2.5479  1.2777  0.2922
  897MOL0     H18370   7.624   2.691  -0.697  1.7101  1.3521  1.1458
  897MOL0     H18371   7.690   2.531  -0.729 -0.7526 -0.2553 -0.8697
  897MOL0     H18372   7.820   2.747  -0.560  2.7817  1.4094  0.2826
  897MOL0     H18373   7.847   2.716  -0.741 -1.5645 -1.2268 -0.3390
  897MOL0     H18374   7.959   2.517  -0.700 -2.1392  0.5779 -1.4962
  897MOL0     H18375   7.887   2.516  -0.532 -0.9977  0.6679 -0.9941
  897MOL0     H18376   8.087   2.707  -0.626 -1.7454 -1.5898 -2.3244
  897MOL0     H18377   8.057   2.668  -0.460 -3.2998 -0.4188  0.0312
  897MOL0     H18378   8.205   2.488  -0.659  2.9143 -0.2904  1.3148
  897MOL0     H18379   8.135   2.440  -0.500 -3.4953  2.0164  0.0976
  897MOL0     H18380   8.299   2.588  -0.394  1.5874 -2.6659  0.0443
  897MOL0     H18381   8.312   2.681  -0.545  2.8815 -0.7934 -1.4357
  897MOL0     H18382   8.431   2.406  -0.474  0.6938  0.1879  1.1886
  897MOL0     H18383   8.441   2.465  -0.642  1.5991 -0.9402  1.7850
  897MOL0     H18384   8.525   2.613  -0.397 -0.7564 -1.7265  0.4418
  897MOL0     H18385   8.531   2.675  -0.565  0.7807  0.4187  0.3699
  897MOL0     H18386   7.529   2.421  -0.318 -1.9444  0.9159  1.8158
  897MOL0     H18387   7.294   2.401  -0.282  1.2826 -0.5939 -0.2155
  897MOL0     H18388   6.876   2.332  -0.353  2.7618  0.6972 -0.3842
  897MOL0     H18389   6.653   2.313  -0.281  3.4650 -1.0810  2.8957
  897MOL0     H18390   4.830   2.043   0.193 -0.0648 -0.1676  0.1088
  897MOL0     H18391   4.700   1.981   0.374  1.4166 -0.3490 -3.8081
  897MOL0     H18392   4.278   2.195   0.777  1.3230  0.3680 -0.7770
  897MOL0     H18393   4.125   2.030   0.890  0.6814  0.3838 -0.3246
  897MOL0     H18394   3.927   1.818   0.868 -0.9418  1.3302  1.0159
  897MOL0     H18395   4.028   1.877   0.985  3.3063 -0.8207  0.4153
  897MOL0     H18396   3.919   1.596   0.958 -0.8428  1.8715  0.1234
  897MOL0     H18397   4.076   1.596   1.025  1.0193  0.0648  0.1758
  897MOL0     H18398   3.861   1.774   1.124 -0.9322 -2.7367 -3.1878
  897MOL0     H18399   4.027   1.736   1.197  1.4763 -0.2159 -0.0911
  897MOL0     H18400   3.793   1.546   1.156  0.3158  3.7729 -1.8554
  897MOL0     H18401   3.942   1.488   1.218 -2.2377 -2.1297 -1.5009
  897MOL0     H18402   3.726   1.672   1.541 -1.7710 -1.0856 -1.7048
  897MOL0     H18403   4.327   1.717   0.689 -1.7571  0.9453  0.9226
  897MOL0     H18404   4.482   1.886   0.568 -0.4308 -1.0503 -0.9916
  898MOL0     O18405   2.245   7.651   7.049 -0.1129  0.2576  0.3677
  898MOL0     C18406   2.260   7.695   7.163 -0.8456  0.7461  0.6403
  898MOL0     O18407   2.182   7.790   7.224 -0.3360  0.1227 -0.3974
  898MOL0     C18408   2.066   7.841   7.160 -0.4302  0.1943 -0.0046
  898MOL0     C18409   1.945   7.842   7.246 -0.1854 -1.1633 -0.4192
  898MOL0     C18410   1.819   7.886   7.186  0.1340  0.0817 -0.1322
  898MOL0     C18411   1.814   7.915   7.051  0.1306 -0.5644  0.2768
  898MOL0     O18412   1.693   7.942   6.990  0.1236  0.3048  0.1313
  898MOL0     C18413   1.571   7.933   7.059  0.2045 -0.0154 -0.4217
  898MOL0     C18414   1.447   7.964   6.978  0.8992 -0.0610 -0.0112
  898MOL0     C18415   1.471   8.104   6.914  0.1065 -0.6891 -0.5629
  898MOL0     C18416   1.344   8.166   6.843  0.2582 -0.7873  0.3205
  898MOL0     C18417   1.232   8.192   6.944 -0.4415  0.0184 -1.5036
  898MOL0     C18418   1.089   8.185   6.891  0.3381  0.3427  0.6811
  898MOL0     C18419   0.982   8.249   6.981  0.0130 -0.6096  0.4888
  898MOL0     C18420   0.972   8.188   7.117  0.5635 -0.9105  0.4193
  898MOL0     N18421   0.934   8.043   7.112  0.5542 -0.4260  0.3686
  898MOL0     C18422   0.807   7.992   7.083  0.5791  0.2818  0.0710
  898MOL0     C18423   0.822   7.865   7.026  0.5414 -0.0015  0.0990
  898MOL0     C18424   0.726   7.768   6.980  0.3678  0.7057  0.3959
  898MOL0     C18425   0.633   7.824   6.874 -0.5830  0.8845  0.1367
  898MOL0     C18426   0.528   7.712   6.841  0.9625 -0.4058 -0.6086
  898MOL0     C18427   0.431   7.785   6.753  0.2486  0.4710  0.3516
  898MOL0     O18428   0.304   7.727   6.748 -0.3688  0.0038  0.3403
  898MOL0     C18429   0.284   7.591   6.698 -0.6632 -0.3750 -0.3650
  898MOL0     C18430   0.171   7.514   6.720  0.2255 -0.2162 -0.6233
  898MOL0     C18431   0.158   7.394   6.658 -0.2879 -0.2113 -0.7940
  898MOL0     C18432   0.236   7.350   6.556 -0.4865 -0.3497 -0.5097
  898MOL0     C18433   0.214   7.214   6.504 -0.2444 -0.4421  0.6636
  898MOL0     O18434   0.111   7.141   6.540  0.1369  0.5299  0.0019
  898MOL0     C18435   0.109   7.005   6.522  0.1817 -0.3183  0.6045
  898MOL0     C18436   0.028   6.947   6.429  0.5645  0.0893 -0.3104
  898MOL0     C18437   0.026   6.801   6.429 -0.6694 -0.5594  0.6624
  898MOL0     C18438   0.116   6.728   6.505  0.1222 -0.3068 -1.0276
  898MOL0     O18439   0.120   6.597   6.478 -0.3336 -1.1357 -0.9108
  898MOL0     C18440   0.214   6.509   6.538 -0.1157  0.1408 -0.2202
  898MOL0     C18441   0.159   6.364   6.514  0.1596 -0.0107  0.1167
  898MOL0     C18442   0.179   6.330   6.370 -0.6963 -0.1854 -0.0584
  898MOL0     C18443   0.169   6.182   6.345 -0.3437  0.0047  0.4109
  898MOL0     C18444   0.283   6.131   6.261  0.5787  0.0639 -0.8573
  898MOL0     C18445   0.409   6.127   6.350 -0.3406 -1.0053 -0.6657
  898MOL0     C18446   0.516   6.040   6.294  0.1049  0.0984 -0.3170
  898MOL0     C18447   0.640   6.035   6.387  0.8652 -0.7227  0.7077
  898MOL0    Cl18448   0.701   6.178   6.454 -0.1781 -0.1689 -0.5248
  898MOL0     C18449   0.187   6.792   6.599 -0.3416 -0.4100 -0.0126
  898MOL0     C18450   0.176   6.932   6.616  0.7411 -0.6145  0.8738
  898MOL0     O18451   0.315   7.179   6.442  0.8130  0.3882 -1.3769
  898MOL0     C18452   0.341   7.434   6.530 -0.3200  0.7214 -0.1887
  898MOL0     C18453   0.364   7.554   6.591  0.7758 -0.1101  0.1093
  898MOL0     N18454   0.958   7.841   7.041  0.7544 -0.4396  0.1595
  898MOL0     N18455   1.020   7.942   7.093 -0.1353 -0.0504  0.1096
  898MOL0     C18456   1.932   7.918   6.973 -1.3185 -0.2655  1.3910
  898MOL0     C18457   2.055   7.893   7.032 -0.3102 -0.4163 -0.6381
  898MOL0     C18458   2.366   7.636   7.251 -0.4595  0.9759  0.2718
  898MOL0     C18459   2.375   7.664   7.387  0.2738 -0.1602  1.0654
  898MOL0     C18460   2.486   7.614   7.462  0.0911  0.4615  0.1474
  898MOL0     C18461   2.593   7.560   7.392 -0.4270  0.6982 -0.0617
  898MOL0     O18462   2.694   7.517   7.471 -0.1103 -0.2723  0.1235
  898MOL0     C18463   2.828   7.503   7.433 -0.6065  0.0616 -0.1336
  898MOL0     C18464   2.907   7.452   7.549 -0.7300  0.1441  0.2027
  898MOL0     C18465   2.864   7.315   7.607  0.4202  0.3166  0.5425
  898MOL0     C18466   2.936   7.269   7.726 -0.5579  0.5434 -0.1373
  898MOL0     C18467   3.079   7.272   7.702  0.3891  0.3741 -0.2709
  898MOL0     C18468   3.198   7.284   7.687 -0.3534  1.1208 -0.2216
  898MOL0     C18469   2.592   7.546   7.251 -0.2559 -0.3902  0.0759
  898MOL0     C18470   2.482   7.586   7.183  1.3660 -0.2778  0.4988
  898MOL0     H18471   1.969   7.803   7.344  1.9629  3.1903  1.0317
  898MOL0     H18472   1.736   7.873   7.255 -3.1894  3.0310 -3.1834
  898MOL0     H18473   1.578   8.006   7.140 -1.0217 -1.1827  0.7812
  898MOL0     H18474   1.570   7.831   7.100 -1.4832  1.2228  3.0147
  898MOL0     H18475   1.366   7.969   7.052  1.7517  1.6372  0.8503
  898MOL0     H18476   1.426   7.881   6.910  2.4209 -1.3707  1.0667
  898MOL0     H18477   1.544   8.094   6.833 -1.3977  1.9108 -2.3938
  898MOL0     H18478   1.508   8.180   6.985  2.6761 -3.4831  1.3552
  898MOL0     H18479   1.369   8.257   6.786  0.4537 -0.8944  0.2311
  898MOL0     H18480   1.298   8.095   6.774 -1.0208 -1.2744  1.6340
  898MOL0     H18481   1.259   8.292   6.982 -2.0365 -0.7841  2.1448
  898MOL0     H18482   1.238   8.124   7.030 -1.6956  0.5967 -0.9308
  898MOL0     H18483   1.068   8.079   6.871 -0.4841  0.0552  2.8188
  898MOL0     H18484   1.091   8.244   6.798 -1.5623 -1.0049 -0.2850
  898MOL0     H18485   1.013   8.353   6.990 -2.8691  0.7289 -2.8870
  898MOL0     H18486   0.875   8.249   6.958 -0.5229 -0.8989  2.7782
  898MOL0     H18487   0.899   8.233   7.185 -0.2839 -2.8329  0.8460
  898MOL0     H18488   1.071   8.214   7.155  0.7324  1.1837 -1.2476
  898MOL0     H18489   0.715   8.038   7.116  0.2767 -0.2915  0.0497
  898MOL0     H18490   0.663   7.750   7.067  2.3793  0.6402  1.8921
  898MOL0     H18491   0.769   7.669   6.959 -0.8768  0.0890  0.6102
  898MOL0     H18492   0.692   7.854   6.788 -0.5710 -1.8035 -0.8991
  898MOL0     H18493   0.594   7.915   6.921 -0.0502  0.8513  0.6621
  898MOL0     H18494   0.577   7.627   6.792  0.1306 -1.9807  1.1786
  898MOL0     H18495   0.476   7.681   6.932 -0.5559  0.6693 -1.0817
  898MOL0     H18496   0.463   7.797   6.650 -0.4617 -0.3488  0.0262
  898MOL0     H18497   0.415   7.890   6.781  0.2138  0.2836  1.0755
  898MOL0     H18498   0.093   7.531   6.795 -0.4156 -1.6616 -0.9221
  898MOL0     H18499   0.079   7.330   6.696  2.0227 -2.3393  0.7100
  898MOL0     H18500  -0.031   7.012   6.365  0.3922  1.4807  1.2262
  898MOL0     H18501  -0.038   6.756   6.354 -0.3079  0.2241 -0.1295
  898MOL0     H18502   0.238   6.514   6.645  0.9279 -3.0917 -0.2197
  898MOL0     H18503   0.309   6.522   6.486 -0.9199 -0.0896 -1.8046
  898MOL0     H18504   0.060   6.333   6.549 -0.2554  1.2150  0.0684
  898MOL0     H18505   0.228   6.297   6.566  0.2331 -0.2249 -0.2538
  898MOL0     H18506   0.263   6.377   6.320 -1.1022  0.0699 -0.5074
  898MOL0     H18507   0.098   6.379   6.314  0.2233 -1.2602 -2.4611
  898MOL0     H18508   0.149   6.121   6.434 -3.0541 -0.3383 -0.3588
  898MOL0     H18509   0.084   6.162   6.279  0.2967 -3.1123  0.4181
  898MOL0     H18510   0.293   6.199   6.176 -0.0335  0.8728 -0.2963
  898MOL0     H18511   0.247   6.035   6.221 -1.8375  1.4022 -2.0728
  898MOL0     H18512   0.394   6.098   6.454  1.4042 -0.7151 -0.2982
  898MOL0     H18513   0.445   6.230   6.360 -2.2303 -0.2233 -1.4124
  898MOL0     H18514   0.481   5.937   6.282  1.8218 -0.5495  0.0455
  898MOL0     H18515   0.544   6.079   6.196  0.7691  0.3977 -0.0132
  898MOL0     H18516   0.720   5.988   6.329  1.0164  0.4849 -0.0972
  898MOL0     H18517   0.623   5.965   6.469  0.2532 -1.9499 -0.4364
  898MOL0     H18518   0.252   6.734   6.664  0.4857 -2.1404 -2.2604
  898MOL0     H18519   0.225   6.979   6.700 -0.3641 -2.5615  2.7084
  898MOL0     H18520   0.417   7.396   6.463 -0.3731 -0.1559  0.2301
  898MOL0     H18521   0.457   7.598   6.555  4.0982 -3.9994  2.8869
  898MOL0     H18522   1.913   7.937   6.868 -0.4088 -0.9151  1.1022
  898MOL0     H18523   2.151   7.899   6.981  1.2112  3.2943  2.1512
  898MOL0     H18524   2.287   7.716   7.425  0.2905 -0.4012  1.4301
  898MOL0     H18525   2.480   7.629   7.569 -0.0074 -3.1917  0.7641
  898MOL0     H18526   2.876   7.601   7.426 -0.1394 -0.1753 -0.2807
  898MOL0     H18527   2.844   7.440   7.344 -1.2439  2.3502 -1.9740
  898MOL0     H18528   3.013   7.453   7.521 -1.2118  0.0605 -1.7513
  898MOL0     H18529   2.899   7.518   7.636  2.0670  1.3840 -0.3746
  898MOL0     H18530   2.852   7.240   7.529 -2.8272  0.9012  0.3490
  898MOL0     H18531   2.760   7.335   7.635  0.1779 -0.1712  0.0071
  898MOL0     H18532   2.914   7.307   7.826  0.9675 -0.0995  0.4825
  898MOL0     H18533   2.911   7.163   7.738 -0.0749  0.3981 -0.3860
  898MOL0     H18534   3.305   7.284   7.680 -0.3022  0.9187  0.4237
  898MOL0     H18535   2.678   7.509   7.195 -1.7950 -2.5022 -1.0034
  898MOL0     H18536   2.484   7.588   7.075  0.5350 -0.6809  0.4652
  899MOL0     O18537   8.153   9.770   3.035  0.1644  0.3491  0.0407
  899MOL0     C18538   8.081   9.865   3.041 -0.0604 -0.0113  1.1567
  899MOL0     O18539   7.950   9.858   3.085 -0.0094  0.1026 -0.6034
  899MOL0     C18540   7.866   9.752   3.117 -0.2862  0.6845 -0.5488
  899MOL0     C18541   7.884   9.629   3.070  0.5717  0.5868  0.2116
  899MOL0     C18542   7.803   9.523   3.120  0.7818  0.9446 -0.1518
  899MOL0     C18543   7.696   9.554   3.200 -0.0285  0.1111  0.3695
  899MOL0     O18544   7.591   9.463   3.222  0.1029  0.6329  0.3443
  899MOL0     C18545   7.550   9.437   3.363 -0.1183 -0.0666  0.1150
  899MOL0     C18546   7.574   9.285   3.395 -0.3993 -0.9696  0.5766
  899MOL0     C18547   7.693   9.235   3.304  0.0912  0.4585 -0.1727
  899MOL0     C18548   7.746   9.090   3.333  0.1772 -0.8293 -0.0580
  899MOL0     C18549   7.647   8.980   3.301 -0.2599 -0.0684  0.2129
  899MOL0     C18550   7.661   8.869   3.397  0.1388  1.2165 -0.3941
  899MOL0     C18551   7.810   8.813   3.407 -0.1402 -1.1139 -0.3901
  899MOL0     C18552   7.848   8.753   3.273  1.0235 -0.1622 -0.5017
  899MOL0     N18553   7.976   8.687   3.290 -0.0000  1.1529 -0.8448
  899MOL0     C18554   7.991   8.549   3.293 -0.3976  0.1035 -1.1008
  899MOL0     C18555   8.119   8.525   3.262 -0.3589 -0.0953 -0.0642
  899MOL0     C18556   8.202   8.397   3.239  0.1889 -0.0838  1.2918
  899MOL0     C18557   8.124   8.259   3.206  0.4881  0.8659 -0.2523
  899MOL0     C18558   8.074   8.231   3.064  0.2284  0.4350 -0.1709
  899MOL0     C18559   7.965   8.314   2.998 -0.4432  0.1446 -0.0575
  899MOL0     O18560   7.863   8.293   3.087 -0.0106  0.2071  0.0389
  899MOL0     C18561   7.759   8.387   3.093 -0.7853 -1.1161  0.9070
  899MOL0     C18562   7.756   8.507   3.002 -0.5128  0.2208  0.1181
  899MOL0     C18563   7.658   8.601   3.025  0.4096 -0.6822  0.5215
  899MOL0     C18564   7.556   8.582   3.125  0.3043 -0.0604  0.2371
  899MOL0     C18565   7.451   8.682   3.133 -0.2426  0.8518 -0.1751
  899MOL0     O18566   7.372   8.684   3.245  0.1861 -0.3339  0.4482
  899MOL0     C18567   7.274   8.774   3.269  0.3308 -0.8120 -0.1136
  899MOL0     C18568   7.284   8.896   3.343  0.1382 -0.8707 -0.4003
  899MOL0     C18569   7.176   8.984   3.366  0.2178  1.1560  0.0708
  899MOL0     C18570   7.051   8.965   3.305 -0.8427 -0.5814 -0.8468
  899MOL0     O18571   6.952   9.058   3.330 -0.5234  0.1889 -0.1952
  899MOL0     C18572   6.868   9.103   3.227 -0.3187  0.1444  0.3812
  899MOL0     C18573   6.755   9.193   3.277 -0.2040 -0.3707  1.2880
  899MOL0     C18574   6.823   9.318   3.349  0.2678  0.1714 -0.1658
  899MOL0     C18575   6.902   9.404   3.253 -0.7957 -0.1658 -0.1966
  899MOL0     C18576   6.984   9.508   3.326  0.0944  0.6192  0.1231
  899MOL0     C18577   6.910   9.639   3.345  0.0496 -0.1563  0.2287
  899MOL0     C18578   6.999   9.743   3.408  0.0374  0.1050 -0.2227
  899MOL0     C18579   6.949   9.857   3.512 -0.5682  0.0614  0.3735
  899MOL0    Cl18580   7.086   9.976   3.526  0.3291 -0.4388  0.0705
  899MOL0     C18581   7.043   8.847   3.224  0.5438  0.3398  0.9682
  899MOL0     C18582   7.149   8.756   3.212  0.2626  0.0365 -0.3036
  899MOL0     O18583   7.441   8.765   3.039  0.0486 -0.0133  0.9270
  899MOL0     C18584   7.550   8.458   3.194  0.6319 -0.1187  0.3616
  899MOL0     C18585   7.649   8.371   3.177  0.1228  0.5500  0.4713
  899MOL0     N18586   8.181   8.649   3.253  0.1039  0.3438  0.1901
  899MOL0     N18587   8.099   8.742   3.270 -0.2689  0.0280  0.8985
  899MOL0     C18588   7.676   9.680   3.253  0.5436 -0.1843  0.7668
  899MOL0     C18589   7.765   9.787   3.213 -0.3275  0.0657  0.1957
  899MOL0     C18590   8.132   9.998   2.999 -0.6140 -0.4834 -0.1677
  899MOL0     C18591   8.252  10.008   2.919  0.2219 -0.7344  0.1062
  899MOL0     C18592   8.294  10.137   2.877 -0.9307 -0.4517 -1.1887
  899MOL0     C18593   8.220  10.253   2.912  0.1141  1.1929  0.4858
  899MOL0     O18594   8.261  10.383   2.881 -0.4005 -0.1698  0.2509
  899MOL0     C18595   8.361  10.400   2.784  0.7096 -0.0256  0.2020
  899MOL0     C18596   8.346  10.534   2.719 -0.3137 -0.0122  0.7920
  899MOL0     C18597   8.200  10.562   2.661 -0.0218  0.8469  0.1107
  899MOL0     C18598   8.203  10.659   2.546 -0.1431 -0.2087 -0.2614
  899MOL0     C18599   8.062  10.697   2.521  0.2565  0.4861 -0.8247
  899MOL0     C18600   7.940  10.733   2.508 -0.7456 -0.7528  0.1817
  899MOL0     C18601   8.117  10.238   3.009 -0.9028  0.1073  0.1180
  899MOL0     C18602   8.070  10.120   3.052 -0.1946  0.8424  0.0332
  899MOL0     H18603   7.965   9.597   3.006 -0.8211  0.7614 -1.7268
  899MOL0     H18604   7.804   9.417   3.099  0.7289 -0.0797  4.1505
  899MOL0     H18605   7.443   9.460   3.373  0.0150  1.0773 -0.8946
  899MOL0     H18606   7.615   9.489   3.435 -0.9767 -1.4498  1.9744
  899MOL0     H18607   7.486   9.228   3.364  0.3593 -1.9238  0.1432
  899MOL0     H18608   7.590   9.286   3.503  2.8553 -0.2217  0.1930
  899MOL0     H18609   7.779   9.302   3.314 -1.0620  2.0175 -0.3860
  899MOL0     H18610   7.657   9.241   3.201 -1.1020 -1.2210  0.1029
  899MOL0     H18611   7.837   9.072   3.276 -0.8191 -3.2760 -1.0346
  899MOL0     H18612   7.772   9.093   3.439  2.7852 -0.7660 -0.6468
  899MOL0     H18613   7.651   8.955   3.194  1.0070  3.7921 -0.8377
  899MOL0     H18614   7.545   9.021   3.305 -0.6188 -0.8134 -0.8352
  899MOL0     H18615   7.587   8.790   3.385  0.2494  0.2744  3.5811
  899MOL0     H18616   7.640   8.913   3.495 -1.5532  3.6154 -1.7364
  899MOL0     H18617   7.885   8.890   3.428 -0.5607 -1.1188  1.3624
  899MOL0     H18618   7.820   8.742   3.489 -0.7550 -1.4231 -0.5786
  899MOL0     H18619   7.876   8.822   3.193  0.5314  2.5764  1.5320
  899MOL0     H18620   7.774   8.682   3.235  0.9360  0.5727 -1.7669
  899MOL0     H18621   7.922   8.469   3.318  2.1388 -1.6468  0.7282
  899MOL0     H18622   8.262   8.382   3.329 -2.7671 -1.9925  3.1081
  899MOL0     H18623   8.274   8.407   3.157  1.5096  1.4257  2.5888
  899MOL0     H18624   8.039   8.260   3.275  1.0959 -0.6633  0.5620
  899MOL0     H18625   8.194   8.181   3.238  0.8618  1.5337  0.6104
  899MOL0     H18626   8.164   8.231   3.002  0.1317 -0.0601 -0.3223
  899MOL0     H18627   8.033   8.129   3.056 -0.0816  0.4527  0.9770
  899MOL0     H18628   7.944   8.261   2.904 -1.7087 -3.0456  1.8366
  899MOL0     H18629   7.992   8.419   2.988 -2.8147  0.6142 -3.0191
  899MOL0     H18630   7.828   8.529   2.924 -0.4297  2.9426  0.8625
  899MOL0     H18631   7.659   8.695   2.970 -0.6627 -1.3402 -0.6836
  899MOL0     H18632   7.365   8.916   3.412 -0.3708  3.3186 -0.7165
  899MOL0     H18633   7.184   9.074   3.427  0.8382  1.5468 -0.5777
  899MOL0     H18634   6.820   9.014   3.186  0.2917  0.4095 -0.9449
  899MOL0     H18635   6.932   9.155   3.155 -3.4508  1.7955 -1.4402
  899MOL0     H18636   6.678   9.141   3.334 -0.3071  0.3113  1.7904
  899MOL0     H18637   6.700   9.243   3.197 -0.7590 -0.6215  1.5114
  899MOL0     H18638   6.875   9.277   3.436 -4.0701 -0.5893  2.3970
  899MOL0     H18639   6.753   9.387   3.396 -1.7669 -3.2918  2.4244
  899MOL0     H18640   6.969   9.343   3.192 -3.1007 -3.3019  0.1623
  899MOL0     H18641   6.834   9.436   3.174  2.0629  1.6110 -2.1286
  899MOL0     H18642   7.068   9.528   3.259  2.3593 -2.2604  1.8612
  899MOL0     H18643   7.022   9.469   3.421  0.6953  1.1424  0.1066
  899MOL0     H18644   6.823   9.621   3.409 -0.7910  3.5986  0.3826
  899MOL0     H18645   6.872   9.674   3.249  0.9044 -0.0888 -0.0923
  899MOL0     H18646   7.094   9.709   3.450 -0.8838 -1.9410  0.3114
  899MOL0     H18647   7.025   9.804   3.320  0.7564  0.9504  0.5566
  899MOL0     H18648   6.921   9.821   3.611 -0.6682  2.3406  1.2324
  899MOL0     H18649   6.866   9.916   3.472 -1.6038  0.4217  2.9109
  899MOL0     H18650   6.948   8.817   3.180 -0.7261  2.9743  1.7206
  899MOL0     H18651   7.128   8.668   3.153 -1.6002 -1.4841  2.4392
  899MOL0     H18652   7.477   8.433   3.270  0.9359  2.0049  1.4532
  899MOL0     H18653   7.653   8.276   3.228  1.3491  1.5893  2.4554
  899MOL0     H18654   7.586   9.709   3.307 -0.1031 -1.7801  0.5936
  899MOL0     H18655   7.755   9.887   3.255 -0.5621  0.5456 -0.9646
  899MOL0     H18656   8.304   9.921   2.879  0.1876 -0.9999  0.6343
  899MOL0     H18657   8.389  10.138   2.826  1.1973 -1.9999  2.3659
  899MOL0     H18658   8.362  10.331   2.699  2.8218  1.8407 -1.4195
  899MOL0     H18659   8.457  10.376   2.831  0.9538  0.0079 -0.2652
  899MOL0     H18660   8.378  10.618   2.781 -1.2492 -0.0707  1.3779
  899MOL0     H18661   8.413  10.525   2.633 -0.4520 -1.2209  0.8010
  899MOL0     H18662   8.140  10.592   2.748 -1.0300 -3.6603  1.2493
  899MOL0     H18663   8.149  10.472   2.626 -1.3926  0.9427  1.7091
  899MOL0     H18664   8.263  10.747   2.572 -2.8195  1.8713 -0.6820
  899MOL0     H18665   8.247  10.617   2.454  3.3440  1.6779  0.3505
  899MOL0     H18666   7.847  10.774   2.476  0.0109  2.1880  1.4784
  899MOL0     H18667   8.064  10.331   3.030 -1.7807  0.6172 -3.6305
  899MOL0     H18668   7.987  10.124   3.122 -1.0124  3.5846 -0.9808
  900MOL0     O18669   8.296   1.940   9.030 -0.4576  0.1398  0.1814
  900MOL0     C18670   8.286   1.996   9.138  0.5672  1.1052  0.3083
  900MOL0     O18671   8.205   2.104   9.164 -0.2294  0.5959  0.2242
  900MOL0     C18672   8.129   2.158   9.061  0.1880  1.2428 -0.1345
  900MOL0     C18673   8.191   2.245   8.964 -0.4055  0.6105 -0.3100
  900MOL0     C18674   8.115   2.311   8.869  0.0599 -0.0568 -0.5468
  900MOL0     C18675   7.974   2.311   8.872 -0.6462 -0.0741  0.0116
  900MOL0     O18676   7.896   2.385   8.787  0.5686 -0.7179  0.4780
  900MOL0     C18677   7.962   2.463   8.689  0.1829 -0.0017 -0.4635
  900MOL0     C18678   8.027   2.390   8.569  0.5831  0.3295  0.3369
  900MOL0     C18679   7.993   2.473   8.441 -0.2371 -0.3118 -0.1954
  900MOL0     C18680   8.045   2.412   8.311 -0.5441 -0.2607  0.3195
  900MOL0     C18681   8.102   2.520   8.220 -0.3971 -0.5520  0.0059
  900MOL0     C18682   8.164   2.450   8.099 -0.9528 -0.7920  0.3598
  900MOL0     C18683   8.233   2.557   8.007 -0.0512 -0.5184  0.3788
  900MOL0     C18684   8.148   2.628   7.899 -0.1684 -0.1466 -0.5010
  900MOL0     N18685   8.133   2.557   7.762 -0.5169 -0.1663  0.2678
  900MOL0     C18686   8.131   2.417   7.740  0.8325  0.6688  0.4435
  900MOL0     C18687   8.108   2.387   7.605 -0.2893 -0.1174 -0.3394
  900MOL0     C18688   8.088   2.256   7.542 -0.6462  0.3572  0.7893
  900MOL0     C18689   7.948   2.208   7.572  0.7135 -0.3245  0.0736
  900MOL0     C18690   7.921   2.054   7.557 -0.1037 -0.4120 -0.4806
  900MOL0     C18691   7.858   2.042   7.417 -0.6582  0.7495  0.4637
  900MOL0     O18692   7.787   1.917   7.408  0.5145  0.6584 -0.7433
  900MOL0     C18693   7.727   1.875   7.290 -0.1335  0.4937 -0.1506
  900MOL0     C18694   7.626   1.775   7.297 -0.6984 -0.3061 -0.7051
  900MOL0     C18695   7.559   1.731   7.185  0.2132  0.3024 -0.9412
  900MOL0     C18696   7.575   1.788   7.064  0.4212 -0.2771 -0.5516
  900MOL0     C18697   7.521   1.723   6.932 -1.4237  0.2386  0.2332
  900MOL0     O18698   7.547   1.795   6.815  0.2296  0.1974 -0.1328
  900MOL0     C18699   7.525   1.738   6.688 -0.5991  0.1592 -0.0242
  900MOL0     C18700   7.482   1.819   6.578  0.0238  0.5992 -0.6499
  900MOL0     C18701   7.474   1.767   6.456 -1.1316 -0.2438 -0.0213
  900MOL0     C18702   7.511   1.640   6.419 -0.3300  0.0474 -0.5556
  900MOL0     O18703   7.516   1.596   6.292  0.1598 -0.5502 -0.5875
  900MOL0     C18704   7.416   1.636   6.199 -0.2123  0.2476 -0.5167
  900MOL0     C18705   7.473   1.712   6.070 -0.5048 -0.4711  0.0171
  900MOL0     C18706   7.532   1.626   5.959 -0.2091 -0.0780 -0.7341
  900MOL0     C18707   7.638   1.531   6.017 -0.7332 -0.0856  0.0512
  900MOL0     C18708   7.691   1.441   5.910  0.0214 -0.5560  0.3508
  900MOL0     C18709   7.814   1.368   5.955 -0.2947  0.1499  0.3850
  900MOL0     C18710   7.875   1.280   5.840 -0.3046  0.2520 -0.4631
  900MOL0     C18711   7.909   1.133   5.882 -0.1833 -0.1902  0.0348
  900MOL0    Cl18712   8.022   1.139   6.031  0.1019 -0.0890 -0.0547
  900MOL0     C18713   7.555   1.556   6.522  0.0446  0.5303 -1.0250
  900MOL0     C18714   7.554   1.597   6.659 -0.6654 -0.1209 -0.1310
  900MOL0     O18715   7.466   1.617   6.939  0.1550 -0.1781 -0.3841
  900MOL0     C18716   7.668   1.897   7.057 -0.0692  0.1692 -0.4045
  900MOL0     C18717   7.744   1.934   7.168 -1.0654 -0.1634 -0.4629
  900MOL0     N18718   8.109   2.512   7.549  0.1147  0.1184 -0.0244
  900MOL0     N18719   8.131   2.610   7.636  0.8411  0.7784 -0.0179
  900MOL0     C18720   7.918   2.239   8.971  1.0013  0.2342  0.0562
  900MOL0     C18721   7.985   2.154   9.058  0.4322  0.1110  0.1061
  900MOL0     C18722   8.365   1.947   9.255 -0.1622 -0.8970 -0.7237
  900MOL0     C18723   8.366   2.025   9.372  0.3583 -0.3329  0.0652
  900MOL0     C18724   8.453   1.982   9.468  0.5074 -0.0551 -0.6791
  900MOL0     C18725   8.528   1.862   9.469 -0.8849  0.1221 -0.0567
  900MOL0     O18726   8.617   1.819   9.561 -0.2677 -0.1360 -0.6172
  900MOL0     C18727   8.611   1.891   9.687 -0.2205  0.2950 -0.4746
  900MOL0     C18728   8.695   2.017   9.690 -0.5346  0.3246 -1.0013
  900MOL0     C18729   8.670   2.092   9.813 -0.1353 -1.4930 -0.5689
  900MOL0     C18730   8.755   2.218   9.807 -0.4132  0.5309  0.4514
  900MOL0     C18731   8.738   2.305   9.921 -0.1869  0.2354  0.2519
  900MOL0     C18732   8.724   2.392  10.008 -0.1473  0.6346 -0.9252
  900MOL0     C18733   8.519   1.788   9.348 -0.2534  0.1558 -1.1526
  900MOL0     C18734   8.433   1.822   9.250  0.2773 -0.1980 -0.5521
  900MOL0     H18735   8.297   2.249   8.943 -0.9070 -1.4793 -4.1550
  900MOL0     H18736   8.166   2.371   8.794 -2.6666  3.8797  0.4644
  900MOL0     H18737   8.031   2.540   8.725  3.4683 -2.5745 -0.8222
  900MOL0     H18738   7.874   2.517   8.653  0.4443  1.5579  1.1055
  900MOL0     H18739   7.975   2.294   8.567  1.1599  0.0094  0.4315
  900MOL0     H18740   8.136   2.380   8.575  0.4396 -1.8460  0.2052
  900MOL0     H18741   8.039   2.571   8.457  1.2812 -0.4154 -3.3413
  900MOL0     H18742   7.886   2.480   8.421 -0.4046 -2.9662 -0.6256
  900MOL0     H18743   8.135   2.354   8.333  1.5305  1.8604 -1.9842
  900MOL0     H18744   7.966   2.351   8.266  0.3027 -1.6451  0.6374
  900MOL0     H18745   8.178   2.575   8.274 -1.5942  0.4976  0.6820
  900MOL0     H18746   8.012   2.578   8.198 -1.3249 -1.4129  1.3630
  900MOL0     H18747   8.098   2.382   8.043  2.2176 -2.3310 -1.8372
  900MOL0     H18748   8.248   2.391   8.135 -1.2444 -0.5747  1.4111
  900MOL0     H18749   8.279   2.644   8.055 -1.1862  0.9943 -1.1441
  900MOL0     H18750   8.322   2.512   7.961  1.2972  3.1763 -0.9866
  900MOL0     H18751   8.211   2.716   7.885  0.5866 -0.4025  1.1546
  900MOL0     H18752   8.055   2.664   7.944  1.2848  5.3109 -1.1235
  900MOL0     H18753   8.132   2.337   7.814  2.4037  0.3711  0.1354
  900MOL0     H18754   8.159   2.182   7.580 -0.5732  0.3131  0.5678
  900MOL0     H18755   8.106   2.274   7.435  0.2134  0.6770  0.9751
  900MOL0     H18756   7.867   2.258   7.518  0.5066 -0.1455  0.5428
  900MOL0     H18757   7.945   2.222   7.681  3.7468  1.1614  0.0588
  900MOL0     H18758   8.002   1.983   7.573 -2.4898 -2.9393  1.2381
  900MOL0     H18759   7.847   2.034   7.635 -1.1577 -1.3602 -1.6718
  900MOL0     H18760   7.938   2.052   7.343 -2.5261  2.0175 -1.4704
  900MOL0     H18761   7.793   2.125   7.388  1.4542  1.9850 -1.0201
  900MOL0     H18762   7.612   1.716   7.387  0.6604  1.9036  1.0318
  900MOL0     H18763   7.492   1.645   7.184 -1.0602  1.2538 -2.3494
  900MOL0     H18764   7.457   1.923   6.590  0.3807  0.4962  1.3524
  900MOL0     H18765   7.442   1.837   6.379 -0.8154  1.4670  1.3370
  900MOL0     H18766   7.334   1.689   6.248  0.8012 -0.2591  1.8920
  900MOL0     H18767   7.371   1.543   6.163  4.8916 -2.4932 -0.8105
  900MOL0     H18768   7.548   1.777   6.117  1.1505 -1.5710 -0.9814
  900MOL0     H18769   7.395   1.766   6.015 -0.9540 -0.4806  0.6477
  900MOL0     H18770   7.572   1.687   5.878 -1.0560  1.7257  0.1650
  900MOL0     H18771   7.448   1.566   5.923 -1.4162 -0.7206  2.7542
  900MOL0     H18772   7.725   1.587   6.053 -0.9427 -0.4906  1.2142
  900MOL0     H18773   7.602   1.470   6.100 -0.7246 -1.9857 -1.2509
  900MOL0     H18774   7.702   1.497   5.817 -2.1604 -2.6553 -1.3093
  900MOL0     H18775   7.615   1.369   5.877  0.0434  0.4562 -2.0935
  900MOL0     H18776   7.787   1.302   6.038  2.1206  1.3264  2.2388
  900MOL0     H18777   7.878   1.443   6.002 -0.3340 -1.6606  3.5854
  900MOL0     H18778   7.806   1.282   5.755 -0.9586 -0.3585  0.0350
  900MOL0     H18779   7.963   1.337   5.809  0.6266 -0.0502  1.4818
  900MOL0     H18780   7.971   1.092   5.802 -3.0776 -1.9414 -1.4566
  900MOL0     H18781   7.824   1.065   5.891 -0.1535 -0.0736  1.4275
  900MOL0     H18782   7.583   1.453   6.507  0.1512  0.5080 -0.6771
  900MOL0     H18783   7.573   1.523   6.736 -1.3296 -1.0397 -0.8190
  900MOL0     H18784   7.675   1.945   6.960 -1.1914  1.6733  0.2322
  900MOL0     H18785   7.834   1.992   7.150 -0.5178  0.3434  3.2876
  900MOL0     H18786   7.811   2.238   8.955  1.3552  3.0689 -3.5943
  900MOL0     H18787   7.941   2.093   9.136 -0.6207  2.3248  1.3198
  900MOL0     H18788   8.296   2.107   9.389  1.8563  0.6930  1.7608
  900MOL0     H18789   8.442   2.034   9.563 -1.1420  1.1104 -1.4609
  900MOL0     H18790   8.654   1.826   9.764 -0.4689  2.5117  1.6375
  900MOL0     H18791   8.507   1.908   9.717 -0.9404 -5.9232  2.1817
  900MOL0     H18792   8.799   1.992   9.664 -1.0101  1.2637 -4.2195
  900MOL0     H18793   8.663   2.079   9.606 -2.0245  0.8888 -0.0496
  900MOL0     H18794   8.702   2.033   9.899  4.5797  1.4654  0.0412
  900MOL0     H18795   8.563   2.115   9.821 -0.3467 -2.9408  1.4458
  900MOL0     H18796   8.859   2.187   9.792 -0.2205  2.7484 -5.6074
  900MOL0     H18797   8.746   2.282   9.719  1.9826 -0.6812 -0.7769
  900MOL0     H18798   8.706   2.453  10.094  0.1625  1.1436 -1.2135
  900MOL0     H18799   8.574   1.696   9.330 -2.0364 -1.4430  1.0754
  900MOL0     H18800   8.419   1.755   9.165  0.7594 -1.1606  0.1008
  901MOL0     O18801   4.537   0.475  10.861 -0.6436  0.4143 -0.5435
  901MOL0     C18802   4.437   0.509  10.798  0.0479 -0.4271  0.1109
  901MOL0     O18803   4.439   0.535  10.660 -0.0703  1.0495 -0.3413
  901MOL0     C18804   4.566   0.561  10.610  0.1405  0.1119  0.0906
  901MOL0     C18805   4.648   0.459  10.554  0.5646 -1.0334 -0.2826
  901MOL0     C18806   4.768   0.496  10.496  0.5011 -0.5499 -0.0600
  901MOL0     C18807   4.809   0.631  10.481 -0.2161  0.0101 -0.0580
  901MOL0     O18808   4.923   0.655  10.405 -0.0373  0.0597  0.1982
  901MOL0     C18809   4.914   0.782  10.331 -0.1859  0.6750 -0.5236
  901MOL0     C18810   5.050   0.816  10.283  0.4234 -0.8869  0.0146
  901MOL0     C18811   5.123   0.897  10.403  0.5558 -1.1990  0.1631
  901MOL0     C18812   5.262   0.925  10.378 -0.4085  0.3900 -1.2472
  901MOL0     C18813   5.340   0.956  10.513  0.1576  1.0098  0.2484
  901MOL0     C18814   5.290   1.102  10.555 -1.0812  0.7055 -0.8699
  901MOL0     C18815   5.328   1.123  10.705 -0.2134  0.2792  0.6411
  901MOL0     C18816   5.477   1.116  10.740 -1.2866  0.0850 -0.3582
  901MOL0     N18817   5.556   1.224  10.665  0.4499  0.3108  0.0280
  901MOL0     C18818   5.694   1.232  10.649 -0.9969  0.3081 -0.6541
  901MOL0     C18819   5.706   1.348  10.579  0.5559  0.0974 -0.1507
  901MOL0     C18820   5.830   1.417  10.516 -0.6031  0.5512 -1.2451
  901MOL0     C18821   5.946   1.411  10.629  0.5040 -1.0078 -0.3196
  901MOL0     C18822   6.037   1.535  10.622  0.4691 -0.4784 -1.1244
  901MOL0     C18823   6.092   1.574  10.474  0.0095  1.0682 -0.0885
  901MOL0     O18824   6.178   1.475  10.415 -0.3772  0.1304 -0.3055
  901MOL0     C18825   6.306   1.510  10.383 -0.3666  1.0386 -0.4010
  901MOL0     C18826   6.400   1.417  10.422 -0.1865 -0.2088 -0.2756
  901MOL0     C18827   6.539   1.434  10.392  0.1044  0.2273  0.1707
  901MOL0     C18828   6.575   1.553  10.316 -0.5829  0.1550  0.8828
  901MOL0     C18829   6.723   1.599  10.289  0.1749  0.3249  0.1245
  901MOL0     O18830   6.820   1.514  10.345 -0.4977 -0.0626  0.3079
  901MOL0     C18831   6.952   1.549  10.320 -0.2825  0.5355 -0.1498
  901MOL0     C18832   7.039   1.578  10.421 -0.0827 -0.9454  0.3981
  901MOL0     C18833   7.172   1.607  10.394 -0.2209  0.2210 -1.2783
  901MOL0     C18834   7.218   1.618  10.266  0.0021 -0.5089 -0.7405
  901MOL0     O18835   7.341   1.657  10.231 -1.0279 -0.2658 -0.4964
  901MOL0     C18836   7.448   1.660  10.317 -0.0463  0.3710 -0.6629
  901MOL0     C18837   7.575   1.689  10.248 -0.0878  0.2851  0.4676
  901MOL0     C18838   7.628   1.560  10.185 -0.9507 -0.3489  0.1682
  901MOL0     C18839   7.734   1.603  10.079 -0.0805  0.1418  0.2476
  901MOL0     C18840   7.874   1.617  10.139 -0.2789 -0.5333  0.7630
  901MOL0     C18841   7.962   1.658  10.017  0.3903  0.2434  0.0206
  901MOL0     C18842   8.111   1.674  10.072  0.2901 -0.1985 -0.0243
  901MOL0     C18843   8.226   1.688   9.972  0.8169 -0.0725  0.2126
  901MOL0    Cl18844   8.213   1.827   9.853 -0.1932 -0.0811  0.6824
  901MOL0     C18845   7.131   1.606  10.158  1.4238 -0.9820 -0.5345
  901MOL0     C18846   6.997   1.565  10.188 -0.4860  0.9814 -0.6204
  901MOL0     O18847   6.733   1.706  10.229 -0.0378  0.1876 -0.3795
  901MOL0     C18848   6.475   1.652  10.293  0.5764 -0.3096 -0.0987
  901MOL0     C18849   6.340   1.627  10.327  0.5122  0.2262 -0.6666
  901MOL0     N18850   5.587   1.402  10.550 -0.2853 -0.0341  0.1094
  901MOL0     N18851   5.497   1.335  10.606  0.1198 -0.4506  0.0193
  901MOL0     C18852   4.731   0.730  10.541  0.1321 -0.2459  0.4123
  901MOL0     C18853   4.610   0.701  10.602  0.1543  0.3734  0.2731
  901MOL0     C18854   4.302   0.512  10.864  1.0754  0.1172  1.1327
  901MOL0     C18855   4.286   0.523  10.999  0.0309 -0.4264  0.0551
  901MOL0     C18856   4.159   0.536  11.060  0.8946  0.7657  0.2813
  901MOL0     C18857   4.044   0.533  10.980  0.5536 -0.3435  0.3196
  901MOL0     O18858   3.916   0.538  11.031  0.2837  0.1152  0.4849
  901MOL0     C18859   3.896   0.540  11.177  0.5146 -0.0643 -0.0755
  901MOL0     C18860   3.758   0.477  11.203  1.4952  0.1395  1.1423
  901MOL0     C18861   3.669   0.507  11.086  1.0309 -0.1295 -0.6125
  901MOL0     C18862   3.528   0.458  11.129 -0.0664  0.3450  0.2958
  901MOL0     C18863   3.436   0.454  11.014 -0.5242  0.2261  0.2847
  901MOL0     C18864   3.379   0.485  10.907 -0.7010  0.6890 -0.7175
  901MOL0     C18865   4.057   0.497  10.840  0.6171 -0.3093  0.2290
  901MOL0     C18866   4.183   0.499  10.786 -0.3078  0.4937 -0.0827
  901MOL0     H18867   4.622   0.354  10.567 -1.1902 -0.6529 -0.4684
  901MOL0     H18868   4.842   0.420  10.470  2.1693 -0.7944  4.5138
  901MOL0     H18869   4.867   0.867  10.380  1.7446  1.4890 -0.0023
  901MOL0     H18870   4.849   0.770  10.243  0.3426  1.7805 -1.0860
  901MOL0     H18871   5.046   0.885  10.198 -0.2496 -0.5994  0.2755
  901MOL0     H18872   5.088   0.725  10.235 -1.7451 -1.2259 -1.1665
  901MOL0     H18873   5.102   0.837  10.492 -0.5611 -1.7385 -0.4360
  901MOL0     H18874   5.073   0.994  10.407  0.6803 -0.9862 -2.1258
  901MOL0     H18875   5.294   0.823  10.355  0.4841  0.7141 -1.4903
  901MOL0     H18876   5.285   0.994  10.296 -1.2904  1.5500 -0.5363
  901MOL0     H18877   5.448   0.946  10.496  0.5311  0.4818  2.5079
  901MOL0     H18878   5.318   0.884  10.593 -4.4437  0.0363 -1.5460
  901MOL0     H18879   5.184   1.126  10.560 -0.8473  2.1151 -2.0572
  901MOL0     H18880   5.340   1.173  10.489 -1.7508  0.8078 -1.2785
  901MOL0     H18881   5.292   1.222  10.733  2.7086  0.8006  2.9247
  901MOL0     H18882   5.285   1.046  10.770 -0.6472  1.6963  2.0935
  901MOL0     H18883   5.521   1.019  10.716  0.7491  1.1323 -1.1457
  901MOL0     H18884   5.488   1.143  10.845 -0.5764 -1.4614 -0.0066
  901MOL0     H18885   5.770   1.162  10.683 -0.9371 -0.3410 -2.0633
  901MOL0     H18886   5.810   1.513  10.468 -4.2815  1.3055  1.3772
  901MOL0     H18887   5.870   1.347  10.442  1.2958  1.7632 -1.4457
  901MOL0     H18888   6.016   1.327  10.616  2.5291  0.5578 -0.0358
  901MOL0     H18889   5.895   1.399  10.725 -1.4133  1.0304 -1.0108
  901MOL0     H18890   5.983   1.618  10.668 -2.6076 -2.1144 -1.5138
  901MOL0     H18891   6.124   1.505  10.682  0.2722 -0.5317 -0.8622
  901MOL0     H18892   6.167   1.649  10.501  3.4359 -2.6291  1.7951
  901MOL0     H18893   6.016   1.607  10.403 -2.3983  0.2879  1.9849
  901MOL0     H18894   6.359   1.327  10.468 -0.6461 -0.7492 -1.6575
  901MOL0     H18895   6.618   1.370  10.429  0.7072  2.8299  3.9421
  901MOL0     H18896   6.983   1.573  10.514 -1.8893  1.5144 -0.4525
  901MOL0     H18897   7.236   1.613  10.482 -0.5699 -4.6697 -0.4460
  901MOL0     H18898   7.456   1.564  10.369  0.6195  1.5982  1.5938
  901MOL0     H18899   7.437   1.737  10.393 -1.6708  0.4590 -0.9509
  901MOL0     H18900   7.644   1.730  10.323 -1.3533 -0.2413  2.0032
  901MOL0     H18901   7.548   1.772  10.182  0.7991  1.1638  1.1874
  901MOL0     H18902   7.556   1.489  10.143  0.1385 -2.7355  2.0496
  901MOL0     H18903   7.681   1.506  10.264  0.4589  2.3563  1.1977
  901MOL0     H18904   7.731   1.522  10.005 -0.5553  1.2991 -1.0584
  901MOL0     H18905   7.713   1.688  10.012 -1.3176  0.5844  1.1687
  901MOL0     H18906   7.922   1.541  10.202  0.0667 -2.0705 -1.2528
  901MOL0     H18907   7.860   1.710  10.195 -2.3478  0.7915 -1.7372
  901MOL0     H18908   7.929   1.757   9.984  2.5556  0.8863 -0.4138
  901MOL0     H18909   7.937   1.589   9.935 -0.0561 -0.7788  0.9925
  901MOL0     H18910   8.116   1.761  10.138 -0.1355 -0.2515  0.0795
  901MOL0     H18911   8.132   1.599  10.149 -3.9691 -1.7184 -0.0818
  901MOL0     H18912   8.238   1.594   9.917  1.1596 -1.1896  2.1179
  901MOL0     H18913   8.316   1.691  10.033 -2.3633  0.1932  5.4914
  901MOL0     H18914   7.160   1.643  10.060 -1.5623 -0.6412 -1.3870
  901MOL0     H18915   6.939   1.529  10.104  0.7737 -1.6366 -0.4754
  901MOL0     H18916   6.495   1.748  10.246 -1.2687 -0.1521 -0.6537
  901MOL0     H18917   6.261   1.694  10.294  0.6027 -0.9669 -3.6017
  901MOL0     H18918   4.755   0.835  10.533 -0.1517 -0.2243 -0.2044
  901MOL0     H18919   4.554   0.786  10.641  1.9371  1.5395  0.4528
  901MOL0     H18920   4.369   0.554  11.062 -1.1200 -1.2067  2.0476
  901MOL0     H18921   4.147   0.540  11.168 -1.0174 -0.7545  0.1808
  901MOL0     H18922   3.888   0.647  11.200 -1.6038  0.0722 -1.1716
  901MOL0     H18923   3.969   0.491  11.242 -0.8135  1.3002  2.6534
  901MOL0     H18924   3.771   0.369  11.205 -3.4909 -0.6734  1.7953
  901MOL0     H18925   3.710   0.501  11.298 -0.5337  0.5639  0.0578
  901MOL0     H18926   3.692   0.455  10.993 -2.0242  1.0071 -2.1636
  901MOL0     H18927   3.660   0.615  11.070 -2.1382  0.7406  4.5263
  901MOL0     H18928   3.537   0.358  11.173 -2.0085  0.4333  0.9791
  901MOL0     H18929   3.493   0.528  11.206 -2.8361 -1.3890  0.7479
  901MOL0     H18930   3.327   0.529  10.824 -4.0013  0.6385  1.1648
  901MOL0     H18931   3.977   0.483  10.767 -0.6222  2.1032  1.0099
  901MOL0     H18932   4.198   0.484  10.680  6.3706 -3.6127  0.8780
  902MOL0     O18933   5.795  10.990   3.966 -0.0138 -0.1830  0.1358
  902MOL0     C18934   5.878  10.917   4.015 -0.0553  0.4988 -0.7236
  902MOL0     O18935   5.859  10.780   4.038  0.1228  1.1786  0.0963
  902MOL0     C18936   5.741  10.712   4.007 -1.1917  0.1097  0.0987
  902MOL0     C18937   5.644  10.742   3.910  0.7955 -0.0810 -0.2769
  902MOL0     C18938   5.534  10.659   3.901  0.1600  0.2469 -0.2009
  902MOL0     C18939   5.515  10.549   3.983  0.0230  0.0383 -0.4752
  902MOL0     O18940   5.391  10.488   3.969  0.1868 -0.4363 -1.2194
  902MOL0     C18941   5.340  10.420   4.090  0.9858 -0.7226 -0.0283
  902MOL0     C18942   5.202  10.477   4.140  0.5483 -0.0957 -0.1913
  902MOL0     C18943   5.221  10.615   4.204  0.8767  0.7025 -0.3923
  902MOL0     C18944   5.278  10.604   4.345 -0.3177 -0.2777 -0.1753
  902MOL0     C18945   5.269  10.752   4.411 -0.0309  0.2202  0.4754
  902MOL0     C18946   5.352  10.757   4.541 -0.6731  0.5801 -0.1446
  902MOL0     C18947   5.356  10.898   4.593  0.5959  0.9236  0.1282
  902MOL0     C18948   5.458  10.928   4.696 -0.4305 -0.0209  0.5381
  902MOL0     N18949   5.447  10.851   4.822  0.1571  0.5179  0.4965
  902MOL0     C18950   5.334  10.817   4.895  0.4091  1.0788  0.2259
  902MOL0     C18951   5.369  10.733   5.000  0.2554 -0.0117 -0.8940
  902MOL0     C18952   5.298  10.670   5.114  0.4591  1.2759 -0.4834
  902MOL0     C18953   5.305  10.521   5.118 -0.4592 -0.5153 -0.6661
  902MOL0     C18954   5.194  10.438   5.050  0.4501  0.7201  0.0400
  902MOL0     C18955   5.055  10.453   5.113  0.5736  0.7283 -0.3391
  902MOL0     O18956   4.953  10.377   5.042  0.8936  1.1074 -0.0045
  902MOL0     C18957   4.821  10.358   5.083  0.6847  0.7246  0.2310
  902MOL0     C18958   4.732  10.303   4.994  0.8840  0.2226  0.6411
  902MOL0     C18959   4.595  10.282   5.028  0.3674  0.3168 -0.4804
  902MOL0     C18960   4.544  10.316   5.158 -0.3539  0.4357  0.3054
  902MOL0     C18961   4.402  10.299   5.205 -0.1555 -0.3515 -0.4776
  902MOL0     O18962   4.307  10.277   5.104  0.7085 -0.1977  0.0600
  902MOL0     C18963   4.176  10.305   5.134 -0.4255  0.6367  0.4124
  902MOL0     C18964   4.128  10.434   5.164 -0.3273  0.3803 -0.6526
  902MOL0     C18965   3.999  10.451   5.208  0.2249 -0.5643 -0.0974
  902MOL0     C18966   3.907  10.352   5.214  0.0136 -0.3409  0.2358
  902MOL0     O18967   3.777  10.381   5.238 -1.1757 -0.7904 -0.2358
  902MOL0     C18968   3.722  10.493   5.182 -0.5347 -0.1600  0.6311
  902MOL0     C18969   3.569  10.519   5.198 -0.5297 -0.9011  0.0309
  902MOL0     C18970   3.499  10.628   5.096  0.3426 -0.6660  0.1135
  902MOL0     C18971   3.388  10.699   5.178  0.3753  0.0219 -0.2221
  902MOL0     C18972   3.330  10.806   5.093 -0.4925 -0.0195  0.1565
  902MOL0     C18973   3.247  10.897   5.180 -0.8060 -0.1550 -0.4664
  902MOL0     C18974   3.182  11.014   5.104  0.1237 -0.3778  0.5810
  902MOL0     C18975   3.165  11.129   5.195  0.6647 -1.3464 -0.7671
  902MOL0    Cl18976   3.052  11.235   5.111 -0.7692 -0.1580 -0.3052
  902MOL0     C18977   3.949  10.222   5.178  0.2868  0.5491  0.2353
  902MOL0     C18978   4.079  10.197   5.135  0.3556  0.4919 -0.2238
  902MOL0     O18979   4.380  10.304   5.327 -0.3916 -0.4131  0.0493
  902MOL0     C18980   4.643  10.374   5.247  0.4438 -0.3252  0.6153
  902MOL0     C18981   4.777  10.388   5.210  0.0098  0.0240 -0.3807
  902MOL0     N18982   5.507  10.718   4.983 -1.0278 -0.8702 -0.1533
  902MOL0     N18983   5.552  10.792   4.886 -0.0483  0.0006 -0.1864
  902MOL0     C18984   5.614  10.519   4.081  0.2713  0.4548  0.1040
  902MOL0     C18985   5.725  10.599   4.090 -0.2162 -0.0578  0.5988
  902MOL0     C18986   6.010  10.974   4.048 -0.0683  0.7709 -0.0918
  902MOL0     C18987   6.034  11.118   4.044  0.7553  0.5585  0.1997
  902MOL0     C18988   6.160  11.164   4.087  0.3077  0.2663 -0.7855
  902MOL0     C18989   6.267  11.074   4.108 -0.1913 -0.1302 -1.0498
  902MOL0     O18990   6.380  11.114   4.171  0.2628  0.5552  0.4193
  902MOL0     C18991   6.442  11.232   4.126  0.5743  0.2448  0.8637
  902MOL0     C18992   6.584  11.252   4.168 -0.0086 -0.4771 -0.3567
  902MOL0     C18993   6.658  11.360   4.098  0.1422 -0.2799 -0.1295
  902MOL0     C18994   6.813  11.323   4.085 -0.2643 -0.5612 -0.4490
  902MOL0     C18995   6.882  11.437   4.020  0.9361  0.0858  0.1693
  902MOL0     C18996   6.951  11.531   3.985 -0.5826 -0.9207  0.1673
  902MOL0     C18997   6.244  10.936   4.098  0.2477  2.0105  1.4576
  902MOL0     C18998   6.119  10.884   4.060 -0.6264  0.6537  0.4090
  902MOL0     H18999   5.677  10.803   3.826  3.4132 -1.8360 -0.6565
  902MOL0     H19000   5.464  10.706   3.834 -2.2277  0.5805  2.3497
  902MOL0     H19001   5.413  10.401   4.169  0.5332 -0.3283  0.4931
  902MOL0     H19002   5.317  10.318   4.057 -0.4603 -0.1240 -0.9649
  902MOL0     H19003   5.173  10.413   4.224  2.9570 -0.4818  0.4213
  902MOL0     H19004   5.128  10.484   4.059  0.7758  1.3653 -0.3014
  902MOL0     H19005   5.116  10.644   4.201 -0.2466 -3.0054 -1.1305
  902MOL0     H19006   5.287  10.681   4.146  4.8976 -1.4949  1.2857
  902MOL0     H19007   5.235  10.525   4.407 -0.7081 -2.3579 -2.8903
  902MOL0     H19008   5.381  10.568   4.342 -0.3616 -0.5284  0.9497
  902MOL0     H19009   5.168  10.780   4.441 -0.5782 -0.5275 -0.6383
  902MOL0     H19010   5.297  10.827   4.336 -3.3631 -0.3106 -1.4863
  902MOL0     H19011   5.453  10.719   4.522  0.1119  2.3861  0.2223
  902MOL0     H19012   5.313  10.688   4.616  0.8860  0.1215  0.2856
  902MOL0     H19013   5.359  10.975   4.516 -4.3869  1.2265 -0.1012
  902MOL0     H19014   5.262  10.925   4.643 -0.2020  2.2435 -1.9569
  902MOL0     H19015   5.483  11.032   4.720 -1.1107  0.1159  0.6851
  902MOL0     H19016   5.550  10.886   4.654  0.9983 -2.2288  5.1909
  902MOL0     H19017   5.234  10.849   4.865 -0.5657 -0.3313  1.7627
  902MOL0     H19018   5.196  10.710   5.109  0.2991  1.0549  0.6677
  902MOL0     H19019   5.340  10.712   5.206  0.1993  2.7868 -1.0243
  902MOL0     H19020   5.303  10.490   5.223  1.6265 -0.2316 -0.5065
  902MOL0     H19021   5.395  10.477   5.075  2.2688  0.9270  2.9659
  902MOL0     H19022   5.191  10.463   4.943 -0.5012  0.0545 -0.1040
  902MOL0     H19023   5.210  10.331   5.065 -5.3544 -0.3630  0.8500
  902MOL0     H19024   5.016  10.555   5.122 -1.7485  0.0813 -1.9843
  902MOL0     H19025   5.057  10.422   5.218  1.3465 -0.2401 -0.6259
  902MOL0     H19026   4.764  10.274   4.895  1.0652  3.2526 -0.2976
  902MOL0     H19027   4.538  10.224   4.956  1.7211  1.3689 -2.4982
  902MOL0     H19028   4.210  10.505   5.163  0.4354 -0.4698 -1.9213
  902MOL0     H19029   3.979  10.557   5.224 -0.8763 -0.4745 -1.8751
  902MOL0     H19030   3.731  10.494   5.073 -1.9414  3.2095  0.4265
  902MOL0     H19031   3.770  10.581   5.224 -3.2925  1.2546  1.0112
  902MOL0     H19032   3.570  10.552   5.302  2.3423  1.2298 -0.5382
  902MOL0     H19033   3.531  10.417   5.182 -1.2987 -0.9061  1.7470
  902MOL0     H19034   3.461  10.573   5.010  0.2517 -0.7680  0.2197
  902MOL0     H19035   3.568  10.709   5.068 -3.2075  1.8592 -2.2012
  902MOL0     H19036   3.310  10.631   5.214  1.5316 -0.4566  1.5062
  902MOL0     H19037   3.425  10.741   5.272 -0.8515  2.0907 -0.6064
  902MOL0     H19038   3.264  10.762   5.018 -0.0246 -4.3790  1.9605
  902MOL0     H19039   3.413  10.859   5.044  0.2179 -0.4412  0.8699
  902MOL0     H19040   3.311  10.941   5.257  0.2053 -0.0822 -1.3308
  902MOL0     H19041   3.166  10.848   5.235  0.4705  0.5734  2.2780
  902MOL0     H19042   3.243  11.046   5.019 -0.1963  1.8021  1.1291
  902MOL0     H19043   3.086  10.974   5.070  0.5525 -1.3702  0.4820
  902MOL0     H19044   3.259  11.185   5.203 -0.2389  0.1526 -0.1772
  902MOL0     H19045   3.122  11.106   5.293 -0.6145 -0.8117 -1.1799
  902MOL0     H19046   3.878  10.141   5.195  0.2118  0.8507  1.4327
  902MOL0     H19047   4.113  10.101   5.099 -0.1645  0.5495 -0.8864
  902MOL0     H19048   4.602  10.394   5.346  0.2738 -3.2998  1.2308
  902MOL0     H19049   4.841  10.423   5.289 -1.0021 -1.5840  1.2248
  902MOL0     H19050   5.613  10.438   4.154  3.3804 -0.1956 -0.4543
  902MOL0     H19051   5.803  10.587   4.165 -1.0967  0.6353  1.6525
  902MOL0     H19052   5.951  11.182   4.018 -2.5133 -2.5787  1.9326
  902MOL0     H19053   6.167  11.271   4.103  2.8180 -0.1696  2.0167
  902MOL0     H19054   6.386  11.326   4.127 -1.9950 -1.0634 -2.3972
  902MOL0     H19055   6.448  11.225   4.017  1.1408 -0.7983  0.9462
  902MOL0     H19056   6.590  11.285   4.272 -1.9197  1.2724 -0.7398
  902MOL0     H19057   6.626  11.153   4.146  0.8150 -0.3963  0.7757
  902MOL0     H19058   6.645  11.452   4.155  2.2043 -0.5824  0.9252
  902MOL0     H19059   6.615  11.385   4.000  2.3174  0.8091 -0.8742
  902MOL0     H19060   6.860  11.307   4.183 -0.2615 -1.3001 -0.5634
  902MOL0     H19061   6.829  11.230   4.030  1.0562 -1.1234  0.8248
  902MOL0     H19062   7.014  11.609   3.949 -0.0751 -1.0189  0.8168
  902MOL0     H19063   6.331  10.871   4.109 -1.7402 -1.1867 -0.1357
  902MOL0     H19064   6.088  10.780   4.060 -1.3966  0.6866 -4.0744
  903MOL0     O19065   2.286   2.185  11.208  0.7123 -0.5593 -0.2039
  903MOL0     C19066   2.253   2.303  11.193  0.3015 -0.2369  0.7251
  903MOL0     O19067   2.200   2.355  11.069 -0.3021  0.2462 -0.0608
  903MOL0     C19068   2.182   2.273  10.958 -1.1106 -0.3534  0.1840
  903MOL0     C19069   2.294   2.216  10.892  0.5185 -0.2312 -0.0984
  903MOL0     C19070   2.282   2.115  10.791  0.1142  0.1512 -0.0863
  903MOL0     C19071   2.157   2.072  10.742 -1.6341 -0.7013 -0.7726
  903MOL0     O19072   2.153   1.974  10.642 -0.3583 -0.1795 -0.6217
  903MOL0     C19073   2.035   1.975  10.566 -0.7462  0.3031 -0.0216
  903MOL0     C19074   2.039   1.866  10.449  0.2026 -0.2200  0.3526
  903MOL0     C19075   1.911   1.868  10.371  0.5774  0.1712 -0.2382
  903MOL0     C19076   1.909   1.775  10.245 -0.4891  0.2004 -0.2190
  903MOL0     C19077   1.811   1.823  10.138 -0.0823  0.7628 -1.2131
  903MOL0     C19078   1.664   1.816  10.162  0.3418 -0.5516  0.0516
  903MOL0     C19079   1.612   1.678  10.207  0.3207  0.2343  0.1459
  903MOL0     C19080   1.461   1.675  10.206 -0.3206  0.1255  0.1145
  903MOL0     N19081   1.399   1.766  10.299  0.1419 -0.5738  0.9167
  903MOL0     C19082   1.393   1.757  10.432  0.4087  0.2940  0.5265
  903MOL0     C19083   1.336   1.878  10.477  0.0001  0.3250 -0.5979
  903MOL0     C19084   1.326   1.923  10.620 -0.3564 -0.0637 -0.3774
  903MOL0     C19085   1.417   2.050  10.658 -0.5648  0.2270 -0.0180
  903MOL0     C19086   1.558   2.052  10.597  0.1429 -0.4873  0.2028
  903MOL0     C19087   1.639   2.166  10.671  0.4443 -1.3032  0.5974
  903MOL0     O19088   1.679   2.131  10.795 -0.5682  0.4342  0.1585
  903MOL0     C19089   1.699   2.237  10.881  0.5089  0.0025  0.2109
  903MOL0     C19090   1.740   2.368  10.839  0.4459 -0.6521 -0.1317
  903MOL0     C19091   1.759   2.468  10.938  0.4216 -0.3134 -0.1244
  903MOL0     C19092   1.759   2.446  11.076  0.1247  0.5708 -0.5735
  903MOL0     C19093   1.804   2.548  11.169  0.2407  0.0220  0.3593
  903MOL0     O19094   1.820   2.678  11.123 -0.1804 -0.3218  0.1352
  903MOL0     C19095   1.857   2.780  11.212 -0.0014  0.7042  0.2103
  903MOL0     C19096   1.991   2.783  11.252 -0.0672  0.5211  0.8097
  903MOL0     C19097   2.034   2.873  11.349  0.8321 -0.9942 -0.4561
  903MOL0     C19098   1.956   2.970  11.404  0.3295  0.7998  0.6989
  903MOL0     O19099   2.015   3.073  11.485 -0.7527  0.8561 -0.2627
  903MOL0     C19100   1.932   3.109  11.601  0.2747 -0.1007  0.5986
  903MOL0     C19101   1.851   3.234  11.553 -0.1868 -0.1040 -0.1502
  903MOL0     C19102   1.929   3.357  11.602 -0.3908  0.5716  0.0428
  903MOL0     C19103   2.071   3.381  11.547 -0.3305 -0.2850 -0.4942
  903MOL0     C19104   2.137   3.490  11.617  0.5665 -0.2151 -0.1478
  903MOL0     C19105   2.182   3.442  11.756 -0.1636  0.0769  0.5995
  903MOL0     C19106   2.180   3.544  11.858  0.2898 -0.5906 -1.1864
  903MOL0     C19107   2.077   3.507  11.971  0.2086  1.4507 -0.0523
  903MOL0    Cl19108   1.911   3.555  11.922  0.1321  0.1140 -0.1801
  903MOL0     C19109   1.818   2.974  11.365 -0.6474 -0.5028  1.2879
  903MOL0     C19110   1.778   2.884  11.267  0.8713 -0.2315 -0.2405
  903MOL0     O19111   1.830   2.516  11.282 -0.2143  0.4897 -0.4835
  903MOL0     C19112   1.728   2.307  11.115 -0.4868  0.2465  0.3489
  903MOL0     C19113   1.703   2.214  11.017  1.0888  0.8082 -0.4515
  903MOL0     N19114   1.301   1.951  10.366 -0.2615  0.3827  0.7081
  903MOL0     N19115   1.358   1.891  10.264 -0.3845 -0.1648 -0.9472
  903MOL0     C19116   2.043   2.133  10.803  0.0324  0.8530  0.9012
  903MOL0     C19117   2.056   2.227  10.913 -0.0226 -0.1905 -0.1561
  903MOL0     C19118   2.279   2.393  11.304  1.1555 -0.0779  0.3366
  903MOL0     C19119   2.268   2.528  11.292 -0.8776 -0.9628  0.5451
  903MOL0     C19120   2.287   2.613  11.402 -0.2009 -0.7329 -0.1368
  903MOL0     C19121   2.320   2.554  11.532 -0.4550 -1.0646 -0.5890
  903MOL0     O19122   2.345   2.631  11.647 -0.6715  0.9647 -0.4424
  903MOL0     C19123   2.325   2.771  11.645 -0.3360 -0.4466 -1.3017
  903MOL0     C19124   2.423   2.840  11.742  0.5500 -0.0086  0.8374
  903MOL0     C19125   2.376   2.980  11.777 -0.6122 -0.4389 -0.3623
  903MOL0     C19126   2.447   3.013  11.906 -0.2748  0.2534  0.1751
  903MOL0     C19127   2.389   3.145  11.951  0.5443 -0.6649 -0.9666
  903MOL0     C19128   2.353   3.249  12.006  0.1246 -0.4707 -0.5722
  903MOL0     C19129   2.327   2.420  11.540 -0.2779  1.0339 -0.1037
  903MOL0     C19130   2.306   2.336  11.429  0.8949  0.2477 -0.4306
  903MOL0     H19131   2.396   2.238  10.923  0.7079 -1.4618  0.2123
  903MOL0     H19132   2.365   2.074  10.735  0.3268 -0.0652  0.3829
  903MOL0     H19133   2.014   2.072  10.520 -2.8941  1.7900  3.7008
  903MOL0     H19134   1.951   1.961  10.635 -1.8526  3.9649 -0.4292
  903MOL0     H19135   2.057   1.770  10.497  0.7678  0.9416  2.6283
  903MOL0     H19136   2.122   1.888  10.382  3.0923  0.0705  3.7007
  903MOL0     H19137   1.892   1.970  10.339  2.4428  0.2847 -1.1537
  903MOL0     H19138   1.824   1.835  10.429  0.6743 -0.0676 -0.2250
  903MOL0     H19139   2.014   1.772  10.216 -0.3252  0.5906  0.3356
  903MOL0     H19140   1.896   1.671  10.279 -0.5562  0.5426  0.8148
  903MOL0     H19141   1.829   1.757  10.052 -1.6960 -0.4621 -0.6614
  903MOL0     H19142   1.837   1.927  10.117 -0.5079  1.5870  1.8170
  903MOL0     H19143   1.614   1.844  10.069 -1.1663 -2.3072  0.2559
  903MOL0     H19144   1.635   1.885  10.242 -1.8380 -2.0670  0.6826
  903MOL0     H19145   1.659   1.605  10.142  4.3937  3.7452 -1.2911
  903MOL0     H19146   1.650   1.652  10.306  0.1966  1.1963  0.4649
  903MOL0     H19147   1.424   1.574  10.223  0.3780 -0.6950 -2.6821
  903MOL0     H19148   1.431   1.701  10.104 -1.4780  2.6111  1.0154
  903MOL0     H19149   1.429   1.677  10.496 -2.3486  0.1530  2.0518
  903MOL0     H19150   1.364   1.833  10.671  2.6448 -0.0540 -2.3129
  903MOL0     H19151   1.220   1.940  10.640 -0.9857  0.0394 -3.4195
  903MOL0     H19152   1.423   2.035  10.766 -0.8963  0.5391  0.0457
  903MOL0     H19153   1.358   2.140  10.639  2.8749  2.8169  0.4039
  903MOL0     H19154   1.621   1.965  10.616  0.3036 -0.4010  0.0613
  903MOL0     H19155   1.546   2.078  10.492 -4.5961 -2.0274  0.1257
  903MOL0     H19156   1.572   2.253  10.674 -1.9747 -2.8513 -2.5366
  903MOL0     H19157   1.734   2.185  10.620 -0.2646 -3.4265 -1.7165
  903MOL0     H19158   1.747   2.388  10.733 -1.1964 -2.6186 -0.6671
  903MOL0     H19159   1.790   2.567  10.905 -2.6076  0.5442 -0.6867
  903MOL0     H19160   2.052   2.713  11.196 -0.9244  1.3533 -1.2627
  903MOL0     H19161   2.137   2.861  11.381  0.3417 -1.5338  1.0309
  903MOL0     H19162   1.992   3.127  11.690 -2.9599  0.7421  2.7571
  903MOL0     H19163   1.860   3.032  11.631  0.3016  0.5940  2.5252
  903MOL0     H19164   1.748   3.249  11.586  0.0514  1.6883 -0.1115
  903MOL0     H19165   1.845   3.234  11.444 -2.1944 -4.3576 -0.2561
  903MOL0     H19166   1.935   3.348  11.710 -0.0876  3.3435  0.3259
  903MOL0     H19167   1.867   3.445  11.579  0.2590  1.0929  0.2493
  903MOL0     H19168   2.126   3.289  11.569  0.5716 -0.2702 -2.4969
  903MOL0     H19169   2.061   3.410  11.442  0.4848 -0.7467 -0.7067
  903MOL0     H19170   2.067   3.573  11.630 -2.6566 -2.9469  1.6527
  903MOL0     H19171   2.219   3.528  11.556 -0.6455  1.4594 -0.7882
  903MOL0     H19172   2.282   3.401  11.739  0.3518  1.5070  0.1012
  903MOL0     H19173   2.133   3.350  11.790  2.6005 -0.8044  2.5196
  903MOL0     H19174   2.274   3.548  11.914 -1.0436 -0.2475  1.1796
  903MOL0     H19175   2.157   3.644  11.819  1.8649  0.8762  1.3530
  903MOL0     H19176   2.089   3.574  12.056  1.9884  0.7139  0.3197
  903MOL0     H19177   2.089   3.402  11.998 -0.1013  1.8253  1.6452
  903MOL0     H19178   1.761   3.063  11.389  1.8851  0.9286  2.3199
  903MOL0     H19179   1.675   2.883  11.232  1.0357  1.3802 -0.8609
  903MOL0     H19180   1.719   2.276  11.218  0.7044 -1.4077 -0.0028
  903MOL0     H19181   1.662   2.121  11.055 -0.3427  1.7046  0.3015
  903MOL0     H19182   1.941   2.131  10.767  1.0325 -0.8524 -2.3071
  903MOL0     H19183   1.965   2.266  10.959 -0.0879  0.6885 -1.0179
  903MOL0     H19184   2.258   2.577  11.196  2.8858  0.3760  0.6876
  903MOL0     H19185   2.293   2.715  11.367 -0.3906 -1.3349 -1.9906
  903MOL0     H19186   2.221   2.799  11.664  0.0086  0.3513 -0.4956
  903MOL0     H19187   2.347   2.813  11.546  2.7789 -0.7440 -0.8340
  903MOL0     H19188   2.438   2.777  11.830 -3.0794 -1.2943  0.7138
  903MOL0     H19189   2.521   2.854  11.696 -0.5354  1.1707 -1.3060
  903MOL0     H19190   2.268   2.986  11.788 -0.2665  3.1847  3.8329
  903MOL0     H19191   2.399   3.042  11.689 -0.5820 -3.0835 -2.3532
  903MOL0     H19192   2.426   2.935  11.980  0.7795 -3.5848 -3.2020
  903MOL0     H19193   2.556   3.029  11.904 -0.4968  3.9749  3.8155
  903MOL0     H19194   2.326   3.339  12.058  0.9166  0.6545 -2.0487
  903MOL0     H19195   2.351   2.373  11.635  0.3656  1.2143 -0.1725
  903MOL0     H19196   2.287   2.230  11.437 -3.0436  0.0892 -6.2746
  904MOL0     O19197   5.190   5.503   6.059  0.0503  0.6782  0.0685
  904MOL0     C19198   5.262   5.493   5.963  0.3493  0.0309 -0.2700
  904MOL0     O19199   5.252   5.402   5.858  0.0280  0.0089 -0.4632
  904MOL0     C19200   5.142   5.320   5.859 -0.1726 -0.0802  0.5201
  904MOL0     C19201   5.124   5.234   5.957  0.1894 -0.2429  0.3791
  904MOL0     C19202   4.996   5.174   5.967 -0.2910 -0.0823  0.3061
  904MOL0     C19203   4.892   5.218   5.878 -0.0619  0.8924 -0.6995
  904MOL0     O19204   4.769   5.170   5.876  0.6454  0.3271 -0.1690
  904MOL0     C19205   4.678   5.213   5.980  0.1853 -0.4781 -0.7280
  904MOL0     C19206   4.713   5.138   6.108  0.8125  0.6662 -0.2472
  904MOL0     C19207   4.586   5.113   6.186 -0.5764 -0.4765  0.7190
  904MOL0     C19208   4.482   5.011   6.126 -1.1126 -0.8579 -0.8209
  904MOL0     C19209   4.368   5.013   6.230 -0.1487 -0.9758 -0.1283
  904MOL0     C19210   4.253   4.922   6.196  0.0206  0.2972  0.4766
  904MOL0     C19211   4.125   4.941   6.280 -0.0981 -0.1550 -0.4942
  904MOL0     C19212   4.120   4.904   6.434  0.0077  0.2456 -0.4529
  904MOL0     N19213   4.210   4.972   6.526 -0.3228  0.2407  0.2622
  904MOL0     C19214   4.250   5.102   6.537 -0.0430 -0.5749 -0.2961
  904MOL0     C19215   4.335   5.102   6.640 -0.3128  0.0150 -0.6024
  904MOL0     C19216   4.411   5.229   6.688 -0.9940 -0.4999  0.6215
  904MOL0     C19217   4.544   5.263   6.623 -0.1515  0.6288 -0.0884
  904MOL0     C19218   4.661   5.160   6.653 -0.7553  0.2146  0.5306
  904MOL0     C19219   4.785   5.202   6.569 -0.3644  0.5373 -0.5804
  904MOL0     O19220   4.822   5.331   6.608 -0.7511 -0.3262 -0.0626
  904MOL0     C19221   4.951   5.362   6.649  0.2015  0.7976  0.2960
  904MOL0     C19222   5.039   5.271   6.704 -1.0403 -0.2527 -0.8857
  904MOL0     C19223   5.168   5.319   6.739  0.0820 -0.2959  0.5443
  904MOL0     C19224   5.212   5.449   6.721 -0.2170 -0.1113 -0.4551
  904MOL0     C19225   5.339   5.497   6.801  0.3273  0.0014 -0.8012
  904MOL0     O19226   5.362   5.631   6.814 -0.0205  0.7315  0.3023
  904MOL0     C19227   5.485   5.667   6.862  0.4750  0.4477  0.7315
  904MOL0     C19228   5.504   5.735   6.978  0.4797 -0.7197 -0.4030
  904MOL0     C19229   5.638   5.769   7.017  0.9018  0.5595 -0.9178
  904MOL0     C19230   5.754   5.741   6.938 -0.7156  0.6655  0.0964
  904MOL0     O19231   5.888   5.759   6.960 -0.7758  0.1867  0.0629
  904MOL0     C19232   5.933   5.829   7.077 -0.1194  0.7701  0.0343
  904MOL0     C19233   6.005   5.951   7.042 -0.2023 -0.2659 -0.3917
  904MOL0     C19234   6.012   6.057   7.155  0.7595 -0.2376  0.2219
  904MOL0     C19235   6.108   6.013   7.265  0.8362 -0.2817  0.6459
  904MOL0     C19236   6.128   6.115   7.374  0.8599 -0.7775  0.5825
  904MOL0     C19237   6.012   6.123   7.476  0.6908 -0.2524  1.1663
  904MOL0     C19238   6.011   6.262   7.550  0.0974  0.0982  0.8964
  904MOL0     C19239   6.081   6.249   7.688 -0.6022  0.2156 -0.5188
  904MOL0    Cl19240   6.261   6.238   7.678  0.1025 -0.4086 -0.2768
  904MOL0     C19241   5.722   5.675   6.823 -0.9351  1.2940 -0.6122
  904MOL0     C19242   5.597   5.639   6.788 -0.0066  1.1228 -0.7280
  904MOL0     O19243   5.414   5.409   6.843  0.3351 -0.3633  0.8439
  904MOL0     C19244   5.130   5.531   6.642 -0.1546  0.2284  1.1827
  904MOL0     C19245   4.996   5.483   6.608 -0.2158 -0.0438 -0.3487
  904MOL0     N19246   4.344   4.976   6.696 -0.4640  0.0007 -0.8477
  904MOL0     N19247   4.284   4.895   6.618 -0.1694 -0.0309 -0.2407
  904MOL0     C19248   4.918   5.317   5.782 -0.0242 -0.1324 -0.8438
  904MOL0     C19249   5.041   5.370   5.773  0.1946 -0.0540  0.4845
  904MOL0     C19250   5.373   5.585   5.954 -0.0998  0.5198 -0.2630
  904MOL0     C19251   5.405   5.686   6.055 -1.0275  0.5937 -0.0096
  904MOL0     C19252   5.519   5.774   6.041  1.1305 -0.2484 -1.0666
  904MOL0     C19253   5.589   5.782   5.930 -0.0533 -0.0359  0.2930
  904MOL0     O19254   5.674   5.885   5.903  0.6649  0.1310  0.4479
  904MOL0     C19255   5.702   5.966   6.011  0.2078  0.5297  0.0847
  904MOL0     C19256   5.844   6.025   5.997 -0.3821 -0.2968  0.2296
  904MOL0     C19257   5.898   6.100   5.868 -0.2487 -0.2954  0.3321
  904MOL0     C19258   6.013   6.202   5.886 -0.4002 -1.1500 -0.0884
  904MOL0     C19259   6.110   6.201   5.771 -0.2888 -0.6604  0.0880
  904MOL0     C19260   6.180   6.200   5.675 -0.2736 -1.0678 -1.0563
  904MOL0     C19261   5.559   5.688   5.825  0.2874 -0.3201  0.4568
  904MOL0     C19262   5.456   5.589   5.840 -0.1004  0.1978 -0.1447
  904MOL0     H19263   5.207   5.213   6.024  1.7089  1.0299 -1.0351
  904MOL0     H19264   5.000   5.096   6.043 -1.5471 -0.2541  0.2097
  904MOL0     H19265   4.577   5.210   5.937 -0.2474  1.7135  0.0178
  904MOL0     H19266   4.693   5.320   5.995 -3.9730  0.0419  1.0510
  904MOL0     H19267   4.784   5.196   6.168 -1.8216  2.0092  1.8308
  904MOL0     H19268   4.752   5.043   6.071  0.7483  1.5932 -2.8392
  904MOL0     H19269   4.531   5.207   6.198 -1.9703 -0.9152 -1.6834
  904MOL0     H19270   4.615   5.069   6.282  3.3988  2.1113  0.9487
  904MOL0     H19271   4.442   5.060   6.037 -3.2859 -1.8072 -0.4382
  904MOL0     H19272   4.525   4.915   6.097 -0.5693 -0.7968 -0.2409
  904MOL0     H19273   4.319   5.111   6.239  0.2002 -0.8995  1.0790
  904MOL0     H19274   4.413   4.977   6.323  2.0391 -0.1094 -0.7920
  904MOL0     H19275   4.297   4.823   6.212  0.7195 -0.0148 -2.7268
  904MOL0     H19276   4.223   4.928   6.091  2.3855 -1.3317 -0.4072
  904MOL0     H19277   4.109   5.049   6.276 -0.2944 -0.2204 -2.2314
  904MOL0     H19278   4.033   4.904   6.233 -0.9046 -0.0661  0.9393
  904MOL0     H19279   4.132   4.796   6.447 -2.3881 -0.4078 -2.8662
  904MOL0     H19280   4.015   4.921   6.462 -0.5463 -3.0633 -0.0986
  904MOL0     H19281   4.226   5.179   6.464  2.0273  0.7559  0.3392
  904MOL0     H19282   4.426   5.218   6.796 -2.6301  5.1583  1.7095
  904MOL0     H19283   4.340   5.310   6.672 -2.2452 -1.7527 -0.3382
  904MOL0     H19284   4.579   5.361   6.654  1.9909  0.4233 -1.6108
  904MOL0     H19285   4.525   5.276   6.516  1.8631  0.0521 -0.5698
  904MOL0     H19286   4.680   5.161   6.761  1.5978  1.5746  0.1532
  904MOL0     H19287   4.630   5.059   6.624 -0.5302  0.4991 -0.7250
  904MOL0     H19288   4.751   5.217   6.466  1.4034  2.0890 -0.9936
  904MOL0     H19289   4.864   5.127   6.570 -0.5687  0.1981 -3.2028
  904MOL0     H19290   5.004   5.171   6.728 -2.7134  0.3284 -0.7415
  904MOL0     H19291   5.227   5.244   6.790 -0.0901 -1.2371 -0.5798
  904MOL0     H19292   5.414   5.771   7.027  0.8740 -0.5626  0.2181
  904MOL0     H19293   5.644   5.817   7.115  0.7148 -3.3500  1.1918
  904MOL0     H19294   6.009   5.777   7.136 -1.8254 -1.0624  0.7384
  904MOL0     H19295   5.850   5.849   7.146 -0.5454 -0.0757 -0.2131
  904MOL0     H19296   5.947   5.998   6.962  0.9255  0.0486 -1.0548
  904MOL0     H19297   6.109   5.941   7.010 -0.0595 -0.5394  0.1523
  904MOL0     H19298   5.911   6.081   7.189 -0.0737  0.6897 -2.6010
  904MOL0     H19299   6.039   6.159   7.128 -0.3652 -0.1822 -0.7840
  904MOL0     H19300   6.063   5.926   7.314 -2.6597  1.4130  0.7201
  904MOL0     H19301   6.206   5.997   7.218 -0.5600 -1.4493 -2.0864
  904MOL0     H19302   6.134   6.208   7.317 -1.9557 -0.9849 -0.2018
  904MOL0     H19303   6.217   6.091   7.433  0.0353 -3.3732  0.9218
  904MOL0     H19304   6.020   6.033   7.538 -0.5506  0.3860  2.3096
  904MOL0     H19305   5.917   6.113   7.422 -0.8067  1.0195  3.3789
  904MOL0     H19306   6.063   6.345   7.500  1.3671 -0.8584  0.5777
  904MOL0     H19307   5.913   6.302   7.577 -0.4136  1.3587 -2.3803
  904MOL0     H19308   6.049   6.157   7.737  2.4712 -0.8805 -0.3806
  904MOL0     H19309   6.057   6.336   7.751  1.0225  1.0839 -1.0325
  904MOL0     H19310   5.796   5.677   6.743  1.4824 -1.4957  1.3094
  904MOL0     H19311   5.605   5.575   6.701  3.5786  0.3397  0.0366
  904MOL0     H19312   5.155   5.635   6.623  2.3256 -0.8106 -2.5528
  904MOL0     H19313   4.920   5.546   6.563 -1.5615 -1.8187 -0.6640
  904MOL0     H19314   4.840   5.345   5.712  2.3423  3.9419 -2.2423
  904MOL0     H19315   5.062   5.456   5.710 -0.5704  0.2610  0.6456
  904MOL0     H19316   5.357   5.678   6.152 -1.4078  1.1992 -0.1428
  904MOL0     H19317   5.524   5.839   6.128  0.4005 -0.2980 -0.9772
  904MOL0     H19318   5.711   5.914   6.107 -0.5577  1.6448  0.7810
  904MOL0     H19319   5.622   6.036   6.036 -2.7776 -2.4999 -0.3275
  904MOL0     H19320   5.833   6.108   6.067  1.1051 -0.1805  0.3673
  904MOL0     H19321   5.916   5.947   6.023  2.1001  0.3280 -3.8548
  904MOL0     H19322   5.817   6.157   5.820 -0.3599 -1.1016 -0.4613
  904MOL0     H19323   5.938   6.026   5.798  1.3097 -0.5531  1.4280
  904MOL0     H19324   5.970   6.302   5.901 -2.5981 -2.2137  1.2129
  904MOL0     H19325   6.071   6.176   5.975  0.5942 -2.8177 -1.1894
  904MOL0     H19326   6.242   6.189   5.588  1.8285 -1.4090  0.4270
  904MOL0     H19327   5.613   5.667   5.734 -1.3466 -3.2779  0.0388
  904MOL0     H19328   5.450   5.522   5.754 -0.6884 -0.3908  0.3438
  905MOL0     O19329  10.140   2.573   7.691  0.0237  0.7629 -0.3471
  905MOL0     C19330  10.162   2.498   7.593 -0.1811  0.4146 -1.1645
  905MOL0     O19331  10.211   2.371   7.598  0.0309  0.3110  0.2748
  905MOL0     C19332  10.209   2.292   7.710 -0.9434  0.7551 -0.0877
  905MOL0     C19333  10.118   2.306   7.814  0.6430  0.0526 -0.2176
  905MOL0     C19334  10.134   2.241   7.941  0.6800 -0.2123 -0.0794
  905MOL0     C19335  10.240   2.150   7.956  0.3984 -0.8968 -0.6056
  905MOL0     O19336  10.260   2.070   8.070 -0.2407 -0.4236  0.5849
  905MOL0     C19337  10.233   2.136   8.194  0.3156  0.7805  0.1562
  905MOL0     C19338  10.251   2.037   8.303  0.3835  0.1508  0.3893
  905MOL0     C19339  10.248   2.088   8.449 -0.0356 -0.0059  0.2753
  905MOL0     C19340  10.106   2.112   8.498 -0.8645 -0.6333  0.3859
  905MOL0     C19341  10.092   2.072   8.647 -0.4616 -0.6208 -0.1457
  905MOL0     C19342  10.191   2.108   8.760 -0.2856 -0.5841  0.7100
  905MOL0     C19343  10.140   2.073   8.903 -0.0159  0.4272  1.4214
  905MOL0     C19344  10.250   2.100   9.001 -0.0231  0.2591 -0.2377
  905MOL0     N19345  10.200   2.082   9.140 -0.1177 -0.6403 -0.5269
  905MOL0     C19346  10.074   2.125   9.196 -0.9730 -0.5287  0.1106
  905MOL0     C19347  10.095   2.114   9.324  1.5406 -0.0507 -0.2101
  905MOL0     C19348   9.996   2.136   9.431 -0.5656  0.0950  0.7541
  905MOL0     C19349   9.854   2.081   9.395 -0.8261 -0.2750  0.0014
  905MOL0     C19350   9.749   2.121   9.504 -0.3468 -0.9313  0.5097
  905MOL0     C19351   9.797   2.065   9.643  0.3939  0.4167 -0.2125
  905MOL0     O19352   9.788   1.923   9.634 -0.3486  0.6187 -0.5544
  905MOL0     C19353   9.669   1.859   9.663 -0.1752 -0.0851 -0.6124
  905MOL0     C19354   9.536   1.903   9.666  0.0895 -0.5595  0.1583
  905MOL0     C19355   9.435   1.809   9.687 -0.2791 -0.5058 -0.7168
  905MOL0     C19356   9.446   1.680   9.691 -0.6906  0.5119  0.6653
  905MOL0     C19357   9.332   1.590   9.720 -0.1793  0.4694 -0.1348
  905MOL0     O19358   9.216   1.639   9.691 -0.4142  0.1659 -0.3983
  905MOL0     C19359   9.103   1.559   9.684 -0.4434 -0.3036 -0.8207
  905MOL0     C19360   9.004   1.632   9.610 -0.3319  0.7668  0.0794
  905MOL0     C19361   8.878   1.576   9.605 -0.1534  0.4555  0.4805
  905MOL0     C19362   8.852   1.452   9.661  0.3890  0.5912  0.4719
  905MOL0     O19363   8.741   1.378   9.640  0.1384  0.0837 -0.4124
  905MOL0     C19364   8.616   1.431   9.693 -0.4384  0.1392  0.2285
  905MOL0     C19365   8.503   1.332   9.706 -0.1420  0.1412  0.4514
  905MOL0     C19366   8.371   1.405   9.723  0.2133  0.4906 -0.3844
  905MOL0     C19367   8.316   1.517   9.634  0.3519  0.8550  0.1524
  905MOL0     C19368   8.161   1.505   9.624  0.0257 -0.6610  0.6191
  905MOL0     C19369   8.110   1.574   9.495 -1.0574 -0.0208 -0.2039
  905MOL0     C19370   8.132   1.481   9.366  0.0967  0.3325 -0.2260
  905MOL0     C19371   8.037   1.510   9.266  0.4613 -0.0608  0.2030
  905MOL0    Cl19372   8.054   1.676   9.209  0.4104 -0.2462 -0.6949
  905MOL0     C19373   8.948   1.386   9.733 -0.2046 -0.1647  0.0437
  905MOL0     C19374   9.076   1.440   9.749 -0.5318 -0.2806  0.6029
  905MOL0     O19375   9.360   1.479   9.752  0.0678  0.8846 -0.8810
  905MOL0     C19376   9.575   1.628   9.675 -0.3034  0.3073  0.2256
  905MOL0     C19377   9.687   1.721   9.662 -0.6061  0.8007 -0.6646
  905MOL0     N19378  10.220   2.063   9.353 -0.2917 -0.3349  0.1486
  905MOL0     N19379  10.282   2.036   9.241  1.0756  0.7555 -0.0669
  905MOL0     C19380  10.331   2.134   7.854  1.1034  0.6805 -0.4797
  905MOL0     C19381  10.308   2.198   7.728 -0.0387  0.3226 -0.7470
  905MOL0     C19382  10.169   2.557   7.457 -1.4705  0.1238  0.5409
  905MOL0     C19383  10.235   2.678   7.428 -0.7220  1.0894  1.0097
  905MOL0     C19384  10.238   2.717   7.296 -0.0721 -0.2258 -0.7207
  905MOL0     C19385  10.183   2.636   7.190  0.7276  0.1219 -0.7441
  905MOL0     O19386  10.201   2.677   7.066  0.6962 -0.8215  1.0476
  905MOL0     C19387  10.337   2.684   7.024 -1.1505  0.3785 -0.0585
  905MOL0     C19388  10.409   2.547   6.993 -0.1568  0.0746 -0.9520
  905MOL0     C19389  10.521   2.563   6.883  1.2638 -0.6003 -0.9457
  905MOL0     C19390  10.638   2.640   6.927 -0.1328  0.3755 -0.6592
  905MOL0     C19391  10.719   2.669   6.811  0.4497 -0.0421  1.3703
  905MOL0     C19392  10.767   2.706   6.704  0.0136  0.7115 -0.2829
  905MOL0     C19393  10.119   2.513   7.223  0.2343  0.4775  0.0810
  905MOL0     C19394  10.109   2.471   7.363  0.0475 -0.5968  0.9409
  905MOL0     H19395  10.037   2.375   7.796 -0.2920 -1.3194 -1.4835
  905MOL0     H19396  10.060   2.259   8.018  1.3492 -4.8727  2.0023
  905MOL0     H19397  10.131   2.174   8.199  1.1227  3.2273 -0.5899
  905MOL0     H19398  10.309   2.214   8.203  1.4902 -0.4809  1.8345
  905MOL0     H19399  10.346   1.989   8.282 -0.9086 -2.5125  0.1983
  905MOL0     H19400  10.179   1.954   8.297 -0.0379  0.2873  2.6655
  905MOL0     H19401  10.311   2.178   8.456  0.7845 -0.4357 -1.1707
  905MOL0     H19402  10.289   2.016   8.520 -1.0794 -1.2333 -0.3303
  905MOL0     H19403  10.082   2.218   8.489 -1.1537 -0.8171 -1.2695
  905MOL0     H19404  10.033   2.049   8.446  0.1685 -1.7421  0.2350
  905MOL0     H19405  10.077   1.964   8.656  0.6997 -0.7315  0.8057
  905MOL0     H19406   9.997   2.115   8.679 -0.4537  1.2402 -2.3699
  905MOL0     H19407  10.222   2.212   8.747 -1.2882 -0.5610 -2.7203
  905MOL0     H19408  10.283   2.050   8.750  0.1222  0.3522 -1.5624
  905MOL0     H19409  10.051   2.131   8.930 -1.2478 -1.0156  0.5478
  905MOL0     H19410  10.099   1.973   8.890 -2.3116  1.3440  1.1156
  905MOL0     H19411  10.284   2.203   8.988  0.9939 -0.3941 -3.5568
  905MOL0     H19412  10.332   2.027   8.996  1.7468  2.2419 -1.9642
  905MOL0     H19413   9.984   2.162   9.146 -0.7573  1.2575  0.9677
  905MOL0     H19414   9.983   2.241   9.456 -2.9497 -0.2166  1.1626
  905MOL0     H19415  10.040   2.084   9.517  2.2435 -0.3598 -0.8610
  905MOL0     H19416   9.871   1.974   9.413  2.8186 -0.3324 -2.8084
  905MOL0     H19417   9.820   2.103   9.293  2.8327  1.5564 -0.9784
  905MOL0     H19418   9.734   2.230   9.507  1.6682 -0.5282 -1.3389
  905MOL0     H19419   9.654   2.079   9.473 -0.4332 -0.0266 -0.5323
  905MOL0     H19420   9.730   2.102   9.721 -0.4176  1.9176 -1.5354
  905MOL0     H19421   9.896   2.086   9.682  0.1856 -0.6726  0.9744
  905MOL0     H19422   9.516   2.010   9.657 -1.3014 -0.8173 -0.1047
  905MOL0     H19423   9.343   1.864   9.700  1.3919  2.6167 -1.0869
  905MOL0     H19424   9.021   1.724   9.555 -4.2583  1.2817 -0.5563
  905MOL0     H19425   8.809   1.636   9.546  2.8264  1.2904 -2.3982
  905MOL0     H19426   8.583   1.518   9.637 -0.1862 -0.7809 -1.4029
  905MOL0     H19427   8.632   1.468   9.795 -0.9262  1.1391 -0.0530
  905MOL0     H19428   8.513   1.259   9.787 -0.4008 -2.8575 -2.0391
  905MOL0     H19429   8.503   1.267   9.618 -2.1479  1.1520 -0.3548
  905MOL0     H19430   8.380   1.445   9.824 -1.8522 -1.0328  0.4590
  905MOL0     H19431   8.298   1.324   9.719  0.3929  0.3018  0.1259
  905MOL0     H19432   8.341   1.618   9.668  3.1167 -0.2883  1.9228
  905MOL0     H19433   8.363   1.510   9.536  1.5383  2.8569  0.5304
  905MOL0     H19434   8.108   1.559   9.702  1.4276  1.6370  0.0570
  905MOL0     H19435   8.124   1.402   9.630 -2.8717  0.3625  3.6532
  905MOL0     H19436   8.157   1.671   9.474  1.7233 -1.1357  0.3364
  905MOL0     H19437   8.005   1.595   9.516 -0.4019 -0.4779  4.8240
  905MOL0     H19438   8.233   1.495   9.325 -0.6090  0.7077 -1.9107
  905MOL0     H19439   8.119   1.374   9.386 -0.2586  0.4816  0.3572
  905MOL0     H19440   7.938   1.479   9.300 -0.7292 -1.0276 -3.6548
  905MOL0     H19441   8.049   1.445   9.179  1.8446 -0.5510  0.7356
  905MOL0     H19442   8.924   1.291   9.780  0.8493  0.3697  1.7680
  905MOL0     H19443   9.140   1.398   9.825  0.4787  0.5166  0.2193
  905MOL0     H19444   9.597   1.523   9.656  3.6824  1.4780 -2.9259
  905MOL0     H19445   9.788   1.686   9.646 -0.4294  1.6545 -1.5194
  905MOL0     H19446  10.409   2.061   7.870  0.6083  0.4636  1.1641
  905MOL0     H19447  10.379   2.181   7.648  2.8962  1.0963  1.5593
  905MOL0     H19448  10.293   2.730   7.503  2.2094 -0.4223 -0.0778
  905MOL0     H19449  10.279   2.814   7.269  4.0289 -1.0115  1.8046
  905MOL0     H19450  10.398   2.751   7.084 -0.0586  0.3835 -1.1300
  905MOL0     H19451  10.323   2.740   6.931 -2.8836  1.4031  0.7642
  905MOL0     H19452  10.440   2.505   7.088 -0.9733  2.0601  0.2462
  905MOL0     H19453  10.328   2.493   6.942 -2.8541 -0.3995  3.3224
  905MOL0     H19454  10.476   2.623   6.803 -2.7918 -0.7547  0.9207
  905MOL0     H19455  10.555   2.461   6.868 -0.5153 -1.3838  0.0597
  905MOL0     H19456  10.618   2.727   6.990  1.4943 -1.4122  2.5699
  905MOL0     H19457  10.686   2.572   6.998 -1.0051  1.9905  1.5994
  905MOL0     H19458  10.797   2.728   6.604 -0.4201 -3.1470 -1.4300
  905MOL0     H19459  10.083   2.442   7.149  0.0194 -1.6219  2.0656
  905MOL0     H19460  10.075   2.376   7.402 -2.1660  0.0683  0.7630
  906MOL0     O19461  10.444  10.110   6.712  0.3024  0.2402  0.0907
  906MOL0     C19462  10.368  10.200   6.681  0.1092 -0.0439 -1.0944
  906MOL0     O19463  10.385  10.327   6.657  0.2738  0.5472  0.9926
  906MOL0     C19464  10.516  10.380   6.656 -0.3813 -0.1477 -0.6398
  906MOL0     C19465  10.622  10.325   6.604 -1.2307  0.1409  0.0981
  906MOL0     C19466  10.747  10.390   6.607  0.1833 -0.9353  0.0441
  906MOL0     C19467  10.764  10.509   6.684  0.3187  0.8809  0.5080
  906MOL0     O19468  10.896  10.555   6.691  0.0984  0.2038 -0.1325
  906MOL0     C19469  10.923  10.689   6.743 -1.0291  0.1115 -0.1442
  906MOL0     C19470  11.071  10.709   6.723 -0.6740  0.0335 -0.4493
  906MOL0     C19471  11.109  10.751   6.576  0.0490 -0.7423 -0.7047
  906MOL0     C19472  11.237  10.829   6.556 -0.5108  0.2993  0.2092
  906MOL0     C19473  11.258  10.960   6.636  0.3836  0.6136  0.4823
  906MOL0     C19474  11.381  11.046   6.596 -0.6459  0.0195 -0.1898
  906MOL0     C19475  11.418  11.146   6.705  1.1148 -0.0879 -0.3289
  906MOL0     C19476  11.561  11.210   6.702  0.1419  0.1781  0.2296
  906MOL0     N19477  11.665  11.110   6.744  0.2442  0.2781  0.1282
  906MOL0     C19478  11.655  11.055   6.868 -0.7247  0.4897 -0.8891
  906MOL0     C19479  11.768  10.979   6.874  1.3836 -0.3231  0.1988
  906MOL0     C19480  11.805  10.906   7.004 -0.0258 -0.1263  0.2517
  906MOL0     C19481  11.703  10.808   7.067 -0.4193 -0.4058  0.3571
  906MOL0     C19482  11.721  10.803   7.221 -0.6072  0.3224 -0.2545
  906MOL0     C19483  11.622  10.706   7.283  0.4257  0.2269 -0.2065
  906MOL0     O19484  11.627  10.728   7.421 -0.3158  0.0684 -0.1098
  906MOL0     C19485  11.563  10.630   7.490 -1.1865 -0.2854 -0.3372
  906MOL0     C19486  11.588  10.640   7.625  0.6152  0.3679  0.2933
  906MOL0     C19487  11.542  10.546   7.703 -0.5369  0.5648 -0.2671
  906MOL0     C19488  11.468  10.434   7.665 -0.3493 -0.5854  0.3509
  906MOL0     C19489  11.421  10.332   7.750  0.0146 -0.5127 -0.0259
  906MOL0     O19490  11.400  10.373   7.880  0.7229 -0.0210  0.4102
  906MOL0     C19491  11.367  10.271   7.964  0.1355  0.7475 -0.7469
  906MOL0     C19492  11.261  10.290   8.052 -1.2031 -0.2559  0.5572
  906MOL0     C19493  11.224  10.195   8.154  0.3902  0.3965 -1.5720
  906MOL0     C19494  11.289  10.077   8.150  0.8534 -0.5796  0.4382
  906MOL0     O19495  11.232   9.991   8.243 -0.1738  0.1568  0.1864
  906MOL0     C19496  11.307   9.867   8.269 -0.6937  0.4573 -0.4863
  906MOL0     C19497  11.238   9.800   8.390 -0.2673 -0.4088 -0.1705
  906MOL0     C19498  11.329   9.699   8.454  0.8067  0.7694  0.4856
  906MOL0     C19499  11.255   9.662   8.583 -0.7734  0.3896 -0.4660
  906MOL0     C19500  11.301   9.529   8.640  0.8112  0.1861 -0.4607
  906MOL0     C19501  11.449   9.531   8.690 -0.2269  0.3805  0.8326
  906MOL0     C19502  11.483   9.382   8.744  0.0212  0.4945 -0.2963
  906MOL0     C19503  11.462   9.264   8.647 -0.1355  0.4594  1.1820
  906MOL0    Cl19504  11.545   9.124   8.729 -0.1567 -0.4528  0.0867
  906MOL0     C19505  11.412  10.069   8.077 -0.1196  0.0709  0.4337
  906MOL0     C19506  11.448  10.158   7.980 -0.3644  0.4021  0.5318
  906MOL0     O19507  11.396  10.220   7.704 -0.2709  0.1636 -0.0594
  906MOL0     C19508  11.447  10.430   7.523  0.4327 -0.6993 -0.6080
  906MOL0     C19509  11.487  10.528   7.444 -0.2926 -0.6185  1.1959
  906MOL0     N19510  11.844  11.005   6.761 -0.7744  0.2818  0.1498
  906MOL0     N19511  11.780  11.086   6.679 -0.2099 -0.1329 -0.2434
  906MOL0     C19512  10.650  10.560   6.752 -1.1886  0.4398 -0.3029
  906MOL0     C19513  10.526  10.491   6.740 -0.1658 -0.6076  0.6833
  906MOL0     C19514  10.226  10.164   6.689  0.3126  0.7535 -0.6485
  906MOL0     C19515  10.130  10.247   6.631  0.4265  0.4019  0.7497
  906MOL0     C19516   9.988  10.218   6.651  0.4937 -1.3263 -0.4680
  906MOL0     C19517   9.944  10.108   6.725 -0.1682 -0.0455  0.3577
  906MOL0     O19518   9.814  10.071   6.723  1.0440 -0.1069 -0.2044
  906MOL0     C19519   9.756  10.015   6.604 -1.3855 -0.4131 -0.8567
  906MOL0     C19520   9.618   9.952   6.630  0.6624  0.8531 -0.0881
  906MOL0     C19521   9.613   9.862   6.754 -0.9427  0.2206  0.7255
  906MOL0     C19522   9.479   9.782   6.762  0.7842 -0.5551  0.4256
  906MOL0     C19523   9.459   9.703   6.889 -0.1308  0.0391  0.8239
  906MOL0     C19524   9.448   9.636   6.984  0.5335  0.9316  0.3364
  906MOL0     C19525  10.041  10.026   6.786 -0.4177 -0.3152 -0.5655
  906MOL0     C19526  10.179  10.057   6.766  0.1466  0.1329  0.6058
  906MOL0     H19527  10.616  10.221   6.574 -2.5652  0.1319  0.3401
  906MOL0     H19528  10.834  10.341   6.565  0.1160 -0.0497 -1.1603
  906MOL0     H19529  10.907  10.696   6.851  1.0390 -3.0488  0.4968
  906MOL0     H19530  10.865  10.764   6.689 -2.8439 -1.6423 -0.7191
  906MOL0     H19531  11.129  10.626   6.765 -1.6668 -0.7651 -0.6289
  906MOL0     H19532  11.114  10.790   6.783  0.9067  0.6189 -2.2539
  906MOL0     H19533  11.025  10.818   6.553  1.3792  2.0658  1.8767
  906MOL0     H19534  11.101  10.661   6.515  2.9721 -1.5780 -0.0149
  906MOL0     H19535  11.323  10.769   6.588 -0.3787  1.1920  1.6306
  906MOL0     H19536  11.252  10.849   6.450  0.0723 -1.1424  0.0016
  906MOL0     H19537  11.279  10.924   6.737 -1.8452  0.0247  0.7994
  906MOL0     H19538  11.166  11.019   6.631  0.2946  0.4355 -0.0997
  906MOL0     H19539  11.338  11.100   6.511 -1.9929 -0.6711  0.0208
  906MOL0     H19540  11.463  10.981   6.566  0.0482 -0.9366  3.2884
  906MOL0     H19541  11.357  11.237   6.697  0.3372 -0.4384  1.1529
  906MOL0     H19542  11.398  11.104   6.804 -0.4289  1.7133  0.1862
  906MOL0     H19543  11.564  11.300   6.764  0.7751 -0.5213  1.2413
  906MOL0     H19544  11.575  11.246   6.599  0.5188 -0.0459  0.2004
  906MOL0     H19545  11.580  11.068   6.945 -1.1609 -1.7752 -0.8705
  906MOL0     H19546  11.827  10.983   7.079 -1.0345 -1.3336  1.8507
  906MOL0     H19547  11.901  10.856   6.991  0.2989  1.2292 -3.7631
  906MOL0     H19548  11.711  10.706   7.028 -0.4504 -1.8260  3.7208
  906MOL0     H19549  11.600  10.837   7.046 -0.7983 -3.0540 -2.2082
  906MOL0     H19550  11.820  10.765   7.249 -1.3433 -1.6202 -0.1039
  906MOL0     H19551  11.699  10.904   7.255  2.5376  1.0994 -0.1977
  906MOL0     H19552  11.662  10.607   7.257 -0.5404  0.1688 -1.5436
  906MOL0     H19553  11.520  10.723   7.247  0.0261  0.3276  0.9331
  906MOL0     H19554  11.642  10.718   7.677 -1.4863  1.1464  1.4453
  906MOL0     H19555  11.561  10.564   7.808 -2.2155 -0.1759  0.1907
  906MOL0     H19556  11.202  10.379   8.037 -0.0234  0.1897 -1.9372
  906MOL0     H19557  11.145  10.208   8.226  0.8138  1.3291 -1.2504
  906MOL0     H19558  11.409   9.887   8.303 -1.7713 -0.2354  3.6909
  906MOL0     H19559  11.310   9.804   8.180 -1.9053 -1.1551  0.5636
  906MOL0     H19560  11.140   9.761   8.363  0.5804 -2.1971 -0.8553
  906MOL0     H19561  11.232   9.876   8.468  1.3796  0.2364 -0.6222
  906MOL0     H19562  11.432   9.731   8.471  3.0502 -2.6080 -4.4783
  906MOL0     H19563  11.330   9.623   8.376  0.2902  2.0676 -0.8351
  906MOL0     H19564  11.267   9.736   8.663 -0.0801  1.4538 -1.5048
  906MOL0     H19565  11.151   9.634   8.565 -0.2301 -1.0468 -1.5467
  906MOL0     H19566  11.299   9.455   8.560  3.4766 -0.1671 -0.2868
  906MOL0     H19567  11.233   9.499   8.720  1.2510 -0.2707 -0.2552
  906MOL0     H19568  11.467   9.616   8.757  0.3288  1.7667 -0.9739
  906MOL0     H19569  11.511   9.542   8.601  0.6260 -3.0582  0.8875
  906MOL0     H19570  11.588   9.378   8.774 -0.3995 -1.4670  1.1280
  906MOL0     H19571  11.421   9.364   8.832 -1.9128 -1.7253 -1.9763
  906MOL0     H19572  11.499   9.284   8.546  1.4910 -1.8119  1.2397
  906MOL0     H19573  11.355   9.246   8.637 -0.3259  2.1732 -0.5709
  906MOL0     H19574  11.477   9.984   8.095 -0.8681 -0.0433  3.0779
  906MOL0     H19575  11.539  10.143   7.922 -0.5995  1.5509 -0.1699
  906MOL0     H19576  11.387  10.347   7.486  1.1857 -0.5351 -2.2838
  906MOL0     H19577  11.472  10.522   7.337  2.5309 -1.1497  0.7382
  906MOL0     H19578  10.659  10.652   6.808  2.3989 -0.1841  0.3689
  906MOL0     H19579  10.447  10.508   6.813  0.4082  0.4849  1.0847
  906MOL0     H19580  10.143  10.333   6.566 -3.6470  0.3113 -0.4829
  906MOL0     H19581   9.903  10.270   6.609  1.9111 -0.0360 -1.8921
  906MOL0     H19582   9.813   9.925   6.579 -0.8659 -0.9989  2.0635
  906MOL0     H19583   9.748  10.093   6.527 -0.2579  1.4679  0.8257
  906MOL0     H19584   9.542  10.030   6.640 -1.3164 -1.2519  2.8735
  906MOL0     H19585   9.589   9.891   6.545 -1.4410  1.2434  0.3011
  906MOL0     H19586   9.621   9.919   6.847  0.2864  1.1651  0.0639
  906MOL0     H19587   9.689   9.783   6.753 -2.5724 -1.4265  1.3663
  906MOL0     H19588   9.406   9.863   6.755  2.4021  1.2717  2.8129
  906MOL0     H19589   9.472   9.718   6.674  0.4918 -1.2923  0.9664
  906MOL0     H19590   9.416   9.558   7.050  0.8269  0.5431  0.0148
  906MOL0     H19591  10.028   9.936   6.845  0.5375  0.3435  0.7199
  906MOL0     H19592  10.243   9.987   6.820  1.1815 -0.0389 -0.7784
  907MOL0     O19593   4.685   3.481   1.889 -0.8662 -0.4487 -0.3237
  907MOL0     C19594   4.676   3.381   1.964  0.4379 -0.3687  0.2463
  907MOL0     O19595   4.601   3.271   1.942  0.2639  0.2681 -0.7236
  907MOL0     C19596   4.515   3.280   1.835  0.6455 -0.4489  0.3431
  907MOL0     C19597   4.383   3.338   1.853  1.3353 -0.9186  0.6123
  907MOL0     C19598   4.294   3.359   1.741  0.1863 -1.1181 -0.3472
  907MOL0     C19599   4.333   3.310   1.618 -0.6486  0.5374  0.3588
  907MOL0     O19600   4.236   3.324   1.516  0.0238  0.1803 -0.5294
  907MOL0     C19601   4.256   3.287   1.376 -0.0885  1.6323  0.9905
  907MOL0     C19602   4.352   3.375   1.301 -0.6521 -0.7679 -0.5157
  907MOL0     C19603   4.349   3.344   1.154  0.8133 -0.0603  0.6172
  907MOL0     C19604   4.249   3.436   1.068  0.1659 -0.3696 -0.4949
  907MOL0     C19605   4.277   3.434   0.916  0.5570 -0.1447 -0.0325
  907MOL0     C19606   4.412   3.495   0.886 -0.9024 -0.4868  0.0713
  907MOL0     C19607   4.470   3.488   0.746 -0.1796 -0.5939  0.0338
  907MOL0     C19608   4.361   3.555   0.650 -0.2621  0.4580 -0.1084
  907MOL0     N19609   4.427   3.601   0.537 -0.6828 -0.5736  0.2397
  907MOL0     C19610   4.440   3.530   0.424  0.3647  0.0179 -0.2923
  907MOL0     C19611   4.512   3.604   0.340  0.6593  0.1422 -0.6218
  907MOL0     C19612   4.535   3.566   0.195 -0.5081  0.2903  0.6996
  907MOL0     C19613   4.439   3.607   0.080 -0.4444 -0.1615  0.0276
  907MOL0     C19614   4.497   3.573  -0.055  0.6146 -0.6752 -0.7708
  907MOL0     C19615   4.445   3.671  -0.164 -1.0289  0.1002  0.8458
  907MOL0     O19616   4.519   3.682  -0.287 -0.0956 -0.0802  0.4406
  907MOL0     C19617   4.533   3.579  -0.376 -0.2975 -0.5170 -0.4560
  907MOL0     C19618   4.491   3.451  -0.357 -0.0302  0.4054  0.1013
  907MOL0     C19619   4.514   3.355  -0.447 -1.3253  0.0881  0.1357
  907MOL0     C19620   4.597   3.378  -0.565  0.4265 -0.0654 -0.1441
  907MOL0     C19621   4.642   3.267  -0.652  0.0860 -0.0037 -0.7598
  907MOL0     O19622   4.701   3.294  -0.774  0.0860  0.1220  0.9252
  907MOL0     C19623   4.734   3.189  -0.851  0.0662  1.2002 -0.3320
  907MOL0     C19624   4.653   3.084  -0.898 -0.2853  0.6487  0.5842
  907MOL0     C19625   4.705   2.976  -0.976 -0.6405 -0.4405 -0.0827
  907MOL0     C19626   4.843   2.968  -1.011 -0.2538 -0.1682  0.8575
  907MOL0     O19627   4.883   2.873  -1.099  0.8715  0.4659 -0.1604
  907MOL0     C19628   5.015   2.815  -1.085 -0.0145 -0.2042 -0.1497
  907MOL0     C19629   5.047   2.717  -1.188 -0.1209  0.1561 -0.2046
  907MOL0     C19630   4.956   2.590  -1.163 -1.0679 -0.8685 -0.6846
  907MOL0     C19631   4.978   2.477  -1.246  0.4682 -0.2137  0.5157
  907MOL0     C19632   4.875   2.369  -1.243  0.0477 -1.0667 -0.3663
  907MOL0     C19633   4.917   2.259  -1.341  0.3555 -0.4128  0.4647
  907MOL0     C19634   4.846   2.127  -1.313 -0.3318 -0.0493 -0.0265
  907MOL0     C19635   4.874   2.020  -1.421  0.0702 -0.2822  0.0076
  907MOL0    Cl19636   5.044   1.987  -1.439 -0.3275  0.4277  0.2009
  907MOL0     C19637   4.920   3.081  -0.974 -0.0220  0.3102 -0.1374
  907MOL0     C19638   4.871   3.184  -0.892 -0.4404 -0.5175  1.1133
  907MOL0     O19639   4.620   3.155  -0.607 -0.3781  0.5872 -0.5901
  907MOL0     C19640   4.639   3.516  -0.584  0.2751  0.2313  0.0905
  907MOL0     C19641   4.603   3.611  -0.489  0.3797 -0.6126 -0.8983
  907MOL0     N19642   4.547   3.718   0.397 -0.1719 -0.5800  0.3407
  907MOL0     N19643   4.491   3.725   0.518  0.6121 -0.2742  0.3945
  907MOL0     C19644   4.457   3.243   1.601  0.4053 -0.4106  0.8948
  907MOL0     C19645   4.544   3.234   1.705 -0.6812  0.4236 -0.6872
  907MOL0     C19646   4.739   3.388   2.109 -0.0020 -0.5948  0.3858
  907MOL0     C19647   4.710   3.294   2.209  0.1812  0.8865  0.2348
  907MOL0     C19648   4.772   3.308   2.335 -0.2622 -0.2300  0.1929
  907MOL0     C19649   4.857   3.420   2.364  0.5620  0.0456 -0.0451
  907MOL0     O19650   4.908   3.433   2.489 -0.9161 -0.6274  0.6140
  907MOL0     C19651   4.820   3.468   2.599  0.4800 -0.2289 -0.5146
  907MOL0     C19652   4.720   3.573   2.560 -0.2759  0.4548  0.6247
  907MOL0     C19653   4.648   3.629   2.682  0.1738 -0.1988  0.7546
  907MOL0     C19654   4.528   3.712   2.641  0.4319 -0.6086 -0.1326
  907MOL0     C19655   4.558   3.830   2.566  0.1414 -1.0319  0.4446
  907MOL0     C19656   4.584   3.936   2.510 -0.8737 -0.8844 -0.8673
  907MOL0     C19657   4.888   3.507   2.262 -1.2212  0.0766  0.2422
  907MOL0     C19658   4.823   3.497   2.140 -0.4325 -0.3126  0.7087
  907MOL0     H19659   4.349   3.369   1.951 -1.4903 -0.9680 -0.2680
  907MOL0     H19660   4.205   3.415   1.769  2.4857  2.0801  1.2840
  907MOL0     H19661   4.156   3.284   1.333  0.0345  0.0873  0.7354
  907MOL0     H19662   4.292   3.184   1.368  1.2233  2.2443 -2.9781
  907MOL0     H19663   4.452   3.350   1.337  0.4410  0.7478 -2.2859
  907MOL0     H19664   4.339   3.482   1.323 -0.2565 -0.2719 -2.4896
  907MOL0     H19665   4.303   3.246   1.140  1.6069 -0.5731  1.4607
  907MOL0     H19666   4.449   3.337   1.109  1.1391  0.3379  1.2656
  907MOL0     H19667   4.149   3.392   1.075 -0.9704  1.7696 -2.0935
  907MOL0     H19668   4.257   3.536   1.112  0.0108 -0.7601  0.4523
  907MOL0     H19669   4.195   3.493   0.873 -0.4168 -1.5765 -0.2133
  907MOL0     H19670   4.257   3.339   0.868  1.7492 -0.1116 -0.6282
  907MOL0     H19671   4.489   3.438   0.940 -1.9019 -0.6015  1.4252
  907MOL0     H19672   4.416   3.602   0.907 -1.5523  0.1238 -2.5444
  907MOL0     H19673   4.559   3.552   0.749 -0.5574 -0.0457 -0.3469
  907MOL0     H19674   4.482   3.388   0.702 -2.4339  0.2641 -2.8868
  907MOL0     H19675   4.321   3.647   0.694  0.5294  1.2381 -0.9786
  907MOL0     H19676   4.292   3.473   0.629 -0.7217  1.6679 -3.8957
  907MOL0     H19677   4.390   3.434   0.413 -2.0510  1.1583  0.0098
  907MOL0     H19678   4.542   3.457   0.193  0.2381  0.3143  1.2524
  907MOL0     H19679   4.637   3.601   0.174 -0.5041 -1.5859 -3.4052
  907MOL0     H19680   4.420   3.714   0.077  0.4710  0.0100 -0.0487
  907MOL0     H19681   4.339   3.566   0.092  0.4951 -2.5390  0.3937
  907MOL0     H19682   4.606   3.578  -0.051  0.9192 -2.1821 -3.7253
  907MOL0     H19683   4.469   3.470  -0.081 -2.4680 -0.4618  1.2215
  907MOL0     H19684   4.447   3.772  -0.122 -0.4515  0.3310  0.2753
  907MOL0     H19685   4.341   3.662  -0.196 -0.0231 -0.6307 -2.5725
  907MOL0     H19686   4.428   3.421  -0.274 -0.6399  1.9535  0.2391
  907MOL0     H19687   4.486   3.251  -0.436  0.4954 -0.2062  2.7939
  907MOL0     H19688   4.546   3.085  -0.876 -0.3175  0.1989  0.4440
  907MOL0     H19689   4.644   2.891  -1.005 -1.4752 -0.1478  0.7780
  907MOL0     H19690   5.032   2.781  -0.982 -0.9591  1.2458  0.5148
  907MOL0     H19691   5.093   2.887  -1.110  0.4378 -1.2581 -1.9463
  907MOL0     H19692   5.153   2.692  -1.187 -0.9321 -4.1127 -0.6870
  907MOL0     H19693   5.027   2.761  -1.287  3.2439  1.4125 -0.4425
  907MOL0     H19694   4.861   2.639  -1.185  0.6224  2.7122 -0.5953
  907MOL0     H19695   4.963   2.567  -1.057  3.8662 -2.1668 -1.0092
  907MOL0     H19696   4.978   2.505  -1.351 -0.0775 -0.4734  0.4479
  907MOL0     H19697   5.074   2.431  -1.219  1.1576  1.1203  0.4257
  907MOL0     H19698   4.774   2.404  -1.267  1.4838  2.8401 -1.4537
  907MOL0     H19699   4.871   2.316  -1.147 -0.8592 -1.3983 -0.5799
  907MOL0     H19700   5.023   2.235  -1.348  0.3435 -0.5781  0.8218
  907MOL0     H19701   4.883   2.290  -1.440  2.4159 -1.5623 -0.6734
  907MOL0     H19702   4.894   2.087  -1.223 -1.9567 -0.2125  0.8120
  907MOL0     H19703   4.738   2.132  -1.299 -0.3204  2.7997 -0.3891
  907MOL0     H19704   4.832   2.051  -1.517  0.9165  2.3019  0.3828
  907MOL0     H19705   4.831   1.927  -1.384 -1.6639 -1.9009 -5.2124
  907MOL0     H19706   5.026   3.075  -0.997  0.5902 -1.8668  2.7852
  907MOL0     H19707   4.938   3.266  -0.868  0.1885  0.0019 -2.0079
  907MOL0     H19708   4.710   3.530  -0.665  2.0403  0.0840  1.5305
  907MOL0     H19709   4.631   3.713  -0.511 -1.2749 -0.5932 -3.2456
  907MOL0     H19710   4.476   3.209   1.500 -0.5025  0.0999  0.5392
  907MOL0     H19711   4.636   3.178   1.688 -0.5469  1.0682 -2.2668
  907MOL0     H19712   4.638   3.214   2.199  0.3206  0.6460  1.0553
  907MOL0     H19713   4.747   3.249   2.423 -2.0170  1.8725  1.2322
  907MOL0     H19714   4.884   3.521   2.670 -1.9971  0.6552  1.1819
  907MOL0     H19715   4.789   3.381   2.658 -0.6761  1.1305  0.9326
  907MOL0     H19716   4.760   3.659   2.505 -1.6124  1.4633  1.1543
  907MOL0     H19717   4.648   3.526   2.492 -1.5619  2.5689  0.4211
  907MOL0     H19718   4.720   3.689   2.738 -0.4407  0.5789  0.7166
  907MOL0     H19719   4.609   3.560   2.758  0.9291  2.5454  3.8588
  907MOL0     H19720   4.443   3.664   2.592 -2.1670  1.4962  2.0061
  907MOL0     H19721   4.487   3.755   2.733 -1.5191  4.1245 -2.8221
  907MOL0     H19722   4.626   4.023   2.464  1.0229 -2.7469 -2.9230
  907MOL0     H19723   4.962   3.586   2.270  1.1346 -1.8316 -1.3378
  907MOL0     H19724   4.841   3.577   2.068 -0.6093 -0.2280  0.7575
  908MOL0     O19725   2.732  10.916  11.161 -0.2325 -0.3313 -0.3966
  908MOL0     C19726   2.649  10.997  11.198  0.4059 -0.4152 -0.5256
  908MOL0     O19727   2.616  11.022  11.324  0.3274  0.1405 -0.5106
  908MOL0     C19728   2.640  10.920  11.420  0.4602 -1.1266  0.7251
  908MOL0     C19729   2.522  10.862  11.465  0.2457 -0.7438  0.0997
  908MOL0     C19730   2.541  10.747  11.545  0.3789  0.2320  0.6244
  908MOL0     C19731   2.660  10.686  11.579 -0.8166  0.6692 -0.0114
  908MOL0     O19732   2.661  10.577  11.659 -0.7633 -0.0697  0.2497
  908MOL0     C19733   2.775  10.482  11.654  0.4903  0.2049 -0.4879
  908MOL0     C19734   2.855  10.492  11.782 -0.8032 -0.1324  0.1650
  908MOL0     C19735   2.793  10.424  11.908  0.7269  0.1967  0.2507
  908MOL0     C19736   2.891  10.430  12.023 -0.2487  0.1010 -0.1708
  908MOL0     C19737   2.846  10.350  12.152  0.4657 -0.2591  0.0759
  908MOL0     C19738   2.738  10.423  12.246 -0.1202 -0.1041  0.5515
  908MOL0     C19739   2.603  10.367  12.206  0.2284  0.6900 -0.4454
  908MOL0     C19740   2.507  10.385  12.325  0.7672 -0.0121 -1.3201
  908MOL0     N19741   2.377  10.323  12.294  0.6433  0.0507  0.4355
  908MOL0     C19742   2.328  10.194  12.320  0.4447 -0.4674  0.6730
  908MOL0     C19743   2.198  10.192  12.288  0.9692 -0.0059  1.0079
  908MOL0     C19744   2.103  10.073  12.269  0.0447 -0.4018  0.4129
  908MOL0     C19745   1.979  10.086  12.361  0.5330 -0.2124  0.4338
  908MOL0     C19746   1.858  10.172  12.310 -0.2686  0.5861  0.1561
  908MOL0     C19747   1.766  10.200  12.427  0.9044  0.1078 -0.6743
  908MOL0     O19748   1.724  10.075  12.495  0.3966 -0.5089 -0.0966
  908MOL0     C19749   1.637   9.982  12.438  0.6843 -0.1896 -0.3664
  908MOL0     C19750   1.620   9.866  12.520 -0.1928 -0.0620  0.3857
  908MOL0     C19751   1.541   9.766  12.469 -0.0901 -0.6972  0.2747
  908MOL0     C19752   1.465   9.784  12.353 -0.2930 -0.6956  0.1048
  908MOL0     C19753   1.384   9.670  12.304 -0.2567 -0.9864  0.8782
  908MOL0     O19754   1.414   9.543  12.346  0.5189  0.6146  0.7510
  908MOL0     C19755   1.340   9.434  12.294 -0.1600 -0.3992  0.5610
  908MOL0     C19756   1.202   9.420  12.302  0.3572 -0.4907 -0.2962
  908MOL0     C19757   1.132   9.314  12.243  0.3483 -0.4447 -0.4703
  908MOL0     C19758   1.196   9.220  12.166  0.3185  0.9204  0.3148
  908MOL0     O19759   1.127   9.110  12.120 -0.3895  0.7330 -0.4787
  908MOL0     C19760   1.039   9.156  12.013 -0.1940  1.1154 -0.1154
  908MOL0     C19761   0.987   9.038  11.942  0.5323 -0.0396 -0.0827
  908MOL0     C19762   1.100   8.983  11.846  0.8547 -0.0164  0.3041
  908MOL0     C19763   1.064   8.836  11.788  0.9783 -0.5576 -1.2600
  908MOL0     C19764   1.169   8.781  11.690  0.6937 -0.1878 -0.2974
  908MOL0     C19765   1.283   8.713  11.761  0.3192 -0.7802  0.4662
  908MOL0     C19766   1.375   8.625  11.675 -0.6450  0.2594  0.5239
  908MOL0     C19767   1.462   8.509  11.746  0.5986 -0.0345  0.0129
  908MOL0    Cl19768   1.350   8.384  11.804 -0.3741  0.6987 -0.3647
  908MOL0     C19769   1.336   9.224  12.155 -0.2353 -0.9145  0.2607
  908MOL0     C19770   1.408   9.338  12.215  0.2240  0.2052  0.3303
  908MOL0     O19771   1.299   9.700  12.223 -0.2478  0.1001  0.4341
  908MOL0     C19772   1.475   9.902  12.278 -0.4178  0.0948 -0.1536
  908MOL0     C19773   1.565  10.000  12.319 -0.3205  0.0819  0.1645
  908MOL0     N19774   2.171  10.315  12.223 -0.1089 -0.2138 -0.4067
  908MOL0     N19775   2.275  10.389  12.229  1.3260  0.1247 -0.3152
  908MOL0     C19776   2.778  10.748  11.541  0.1793 -0.0638  0.3341
  908MOL0     C19777   2.762  10.863  11.458 -0.1636 -0.1643 -0.7140
  908MOL0     C19778   2.590  11.081  11.094  1.0462 -1.1377  0.4439
  908MOL0     C19779   2.622  11.076  10.954  0.5464 -1.2668  0.2499
  908MOL0     C19780   2.569  11.175  10.870  0.9820 -0.7342  0.0338
  908MOL0     C19781   2.498  11.280  10.923 -0.0333  0.3991  1.0143
  908MOL0     O19782   2.457  11.368  10.821  0.7653 -0.1305 -0.0765
  908MOL0     C19783   2.521  11.499  10.827  0.6524  0.3688  0.1080
  908MOL0     C19784   2.579  11.539  10.689  0.3824  0.2136 -0.6637
  908MOL0     C19785   2.683  11.657  10.711 -0.0797 -0.0775  0.4320
  908MOL0     C19786   2.730  11.706  10.574 -0.0880  0.0779 -0.7421
  908MOL0     C19787   2.846  11.623  10.520  0.7082  1.2808 -0.0870
  908MOL0     C19788   2.939  11.555  10.476  0.8293 -0.8614  1.0925
  908MOL0     C19789   2.463  11.294  11.053 -0.7618 -0.9576 -0.2615
  908MOL0     C19790   2.513  11.197  11.142  0.2145 -0.1238  0.3326
  908MOL0     H19791   2.420  10.882  11.433  0.3045 -2.4053 -1.2500
  908MOL0     H19792   2.450  10.698  11.575 -1.2912  0.5178 -3.2903
  908MOL0     H19793   2.828  10.489  11.559 -0.5137 -0.8807 -1.1610
  908MOL0     H19794   2.730  10.384  11.637 -0.9884  0.4467  1.5577
  908MOL0     H19795   2.881  10.597  11.801  1.6556 -0.7237  0.4394
  908MOL0     H19796   2.950  10.441  11.761 -1.1893 -0.1240 -1.7315
  908MOL0     H19797   2.762  10.322  11.883  0.8631 -0.6055  3.0204
  908MOL0     H19798   2.699  10.471  11.938  0.1175 -2.2698  2.5739
  908MOL0     H19799   2.986  10.391  11.988 -0.3183 -0.4066  0.1879
  908MOL0     H19800   2.907  10.533  12.057 -3.6776  0.5517  0.4349
  908MOL0     H19801   2.930  10.346  12.221 -1.1782  3.0017  2.5147
  908MOL0     H19802   2.816  10.246  12.139 -0.3609 -0.2018  1.3661
  908MOL0     H19803   2.744  10.528  12.218  0.8240  0.2330  1.9274
  908MOL0     H19804   2.752  10.426  12.354 -2.6149  3.0562  0.9182
  908MOL0     H19805   2.558  10.418  12.120 -0.2993 -1.7542 -1.7237
  908MOL0     H19806   2.606  10.258  12.192 -0.1994  0.1376  2.8902
  908MOL0     H19807   2.476  10.488  12.343 -1.0953 -0.8926  1.0592
  908MOL0     H19808   2.533  10.349  12.425 -1.4705  3.3637  0.6758
  908MOL0     H19809   2.387  10.114  12.363  0.2590 -0.3773  1.1063
  908MOL0     H19810   2.138   9.976  12.308 -3.6405 -0.9141  2.9675
  908MOL0     H19811   2.066  10.063  12.167  4.9306  0.4765 -1.7202
  908MOL0     H19812   2.013  10.126  12.456 -0.4702 -0.1654  0.7886
  908MOL0     H19813   1.941   9.986  12.385 -1.2023  0.7089  1.7144
  908MOL0     H19814   1.896  10.266  12.270  1.3735 -0.1647 -0.1003
  908MOL0     H19815   1.795  10.119  12.237 -2.0104  0.7727  1.4492
  908MOL0     H19816   1.681  10.255  12.386  1.1212  1.6674  0.8144
  908MOL0     H19817   1.815  10.265  12.501  2.5929  0.9252 -2.3989
  908MOL0     H19818   1.678   9.842  12.609  0.3525  0.7613  0.2652
  908MOL0     H19819   1.532   9.674  12.527 -3.2145  0.8039  2.4888
  908MOL0     H19820   1.148   9.488  12.366  1.3112 -1.4355  1.5867
  908MOL0     H19821   1.024   9.308  12.250  0.3282  1.2733  2.2331
  908MOL0     H19822   1.083   9.224  11.940  0.0546 -1.5211 -2.6560
  908MOL0     H19823   0.959   9.215  12.057 -0.6877  0.2275  0.2168
  908MOL0     H19824   0.892   9.059  11.892 -0.5032 -4.6516 -0.4639
  908MOL0     H19825   0.960   8.954  12.008 -0.0927 -0.3389 -0.7128
  908MOL0     H19826   1.191   8.969  11.906  1.1367  1.6779  0.3056
  908MOL0     H19827   1.127   9.056  11.770 -0.6171 -2.2103 -2.5129
  908MOL0     H19828   1.052   8.766  11.871  1.3940  0.7230 -0.0678
  908MOL0     H19829   0.966   8.839  11.740 -0.6199 -0.0425  1.7755
  908MOL0     H19830   1.208   8.857  11.622 -2.9415  0.0532 -2.3814
  908MOL0     H19831   1.110   8.711  11.629 -1.3078  2.9745 -2.2741
  908MOL0     H19832   1.239   8.655  11.843 -1.0434  0.2732  0.5166
  908MOL0     H19833   1.352   8.784  11.808  1.6296 -1.2052 -0.7747
  908MOL0     H19834   1.307   8.575  11.605  2.3691  1.3105 -3.5280
  908MOL0     H19835   1.439   8.697  11.623 -2.0090  2.5306  1.8060
  908MOL0     H19836   1.512   8.551  11.834 -2.1335  0.8347  1.2736
  908MOL0     H19837   1.535   8.467  11.676 -0.0256 -2.2284  0.6095
  908MOL0     H19838   1.394   9.157  12.092  1.8352  1.9932 -1.1569
  908MOL0     H19839   1.516   9.344  12.199  0.0696  1.7330 -0.3099
  908MOL0     H19840   1.421   9.898  12.184  0.1045 -2.7972 -0.4064
  908MOL0     H19841   1.579  10.084  12.252 -0.2891 -0.6885 -0.8023
  908MOL0     H19842   2.876  10.700  11.542 -0.3449 -1.4074 -2.6777
  908MOL0     H19843   2.849  10.886  11.397  1.4100 -1.3254  0.9710
  908MOL0     H19844   2.688  11.003  10.909  0.6616 -2.2985  1.9855
  908MOL0     H19845   2.577  11.188  10.762 -1.7432  3.2913  0.0734
  908MOL0     H19846   2.609  11.493  10.891  1.2873 -2.5678 -0.8531
  908MOL0     H19847   2.459  11.577  10.872  2.0397  1.2918  0.4878
  908MOL0     H19848   2.620  11.449  10.644  2.7395  0.2400  1.2770
  908MOL0     H19849   2.488  11.578  10.642  1.2650  0.1483 -2.5346
  908MOL0     H19850   2.767  11.628  10.775  1.7169 -1.0012 -2.1716
  908MOL0     H19851   2.629  11.736  10.763  0.5218  1.5093 -1.2586
  908MOL0     H19852   2.646  11.726  10.507  0.5662  2.8814 -0.8348
  908MOL0     H19853   2.789  11.798  10.572  2.7586 -1.5229  1.5662
  908MOL0     H19854   3.012  11.487  10.436  0.2603 -0.4596 -0.7403
  908MOL0     H19855   2.403  11.379  11.083  2.6998  2.0810 -1.1375
  908MOL0     H19856   2.483  11.206  11.246 -2.7484 -0.1523 -0.4160
  909MOL0     O19857   4.713   9.191  10.710 -0.2360 -0.0671  0.4718
  909MOL0     C19858   4.726   9.067  10.702 -1.0261  0.5767 -0.5971
  909MOL0     O19859   4.627   8.982  10.677 -0.4029 -0.5887 -0.0896
  909MOL0     C19860   4.492   9.023  10.680 -0.3885  0.2748 -1.0869
  909MOL0     C19861   4.439   9.147  10.660 -0.0997 -0.0665  0.3550
  909MOL0     C19862   4.300   9.164  10.658  0.9363  0.3977 -0.0727
  909MOL0     C19863   4.213   9.056  10.666 -0.1110 -0.5543 -0.5846
  909MOL0     O19864   4.079   9.086  10.650 -1.3292  0.9985  0.2771
  909MOL0     C19865   3.989   8.987  10.699 -0.6627 -0.1326  0.4213
  909MOL0     C19866   3.850   9.027  10.660  0.6878  0.1102 -0.0260
  909MOL0     C19867   3.818   9.173  10.681 -0.6995 -0.4209  0.6324
  909MOL0     C19868   3.815   9.219  10.830 -0.5787  0.6361  0.5090
  909MOL0     C19869   3.885   9.352  10.845  0.0031  0.4104  1.5350
  909MOL0     C19870   3.905   9.392  10.990  0.2197 -0.4344 -0.6639
  909MOL0     C19871   4.023   9.318  11.058  0.8742  0.3377  0.1677
  909MOL0     C19872   4.039   9.349  11.205 -0.3959 -0.7430 -0.4490
  909MOL0     N19873   4.157   9.429  11.227  0.9884  0.6633  0.0218
  909MOL0     C19874   4.284   9.378  11.204 -0.5679 -0.7228 -0.6121
  909MOL0     C19875   4.356   9.490  11.207 -0.4227  0.3211  0.0051
  909MOL0     C19876   4.509   9.500  11.191 -0.8514  0.5203 -0.2741
  909MOL0     C19877   4.540   9.455  11.044 -0.8224 -0.2100 -0.0245
  909MOL0     C19878   4.677   9.511  11.001  1.1055 -0.2933 -0.4235
  909MOL0     C19879   4.766   9.426  10.918  0.0726  0.1809 -0.0595
  909MOL0     O19880   4.880   9.512  10.877 -0.8313 -0.5666 -1.0381
  909MOL0     C19881   4.971   9.556  10.981  0.6461 -0.2621 -0.5151
  909MOL0     C19882   5.030   9.673  10.947 -0.1806 -0.3582  0.6518
  909MOL0     C19883   5.143   9.727  11.018  0.7614  0.7840  0.5970
  909MOL0     C19884   5.187   9.653  11.131 -0.2349  0.5716  0.1037
  909MOL0     C19885   5.301   9.699  11.203 -0.2750 -0.8656 -0.0814
  909MOL0     O19886   5.326   9.830  11.181  0.0610  0.1584  0.0881
  909MOL0     C19887   5.416   9.896  11.259 -0.0790 -0.5760 -0.2730
  909MOL0     C19888   5.540   9.848  11.277 -1.0695 -0.4983  0.1466
  909MOL0     C19889   5.637   9.929  11.344  0.5382  0.6672 -0.6776
  909MOL0     C19890   5.598  10.051  11.395  0.4776  0.0050  0.2152
  909MOL0     O19891   5.687  10.116  11.472  0.4882 -0.5104 -0.0802
  909MOL0     C19892   5.723  10.235  11.417 -0.8088 -0.0794  0.4702
  909MOL0     C19893   5.838  10.298  11.503  0.0539 -0.1444  0.5134
  909MOL0     C19894   5.962  10.214  11.476  0.0794  0.6860 -0.6388
  909MOL0     C19895   6.075  10.273  11.567 -0.1550  0.2235 -0.8329
  909MOL0     C19896   6.221  10.227  11.531  0.2290 -0.6953  0.5729
  909MOL0     C19897   6.252  10.095  11.595 -0.7184  0.2655 -0.6449
  909MOL0     C19898   6.388  10.037  11.546  0.1550 -0.0475 -0.1426
  909MOL0     C19899   6.437   9.936  11.644  0.6226 -0.1408  0.1125
  909MOL0    Cl19900   6.540   9.809  11.561 -0.0322 -0.3993 -0.0470
  909MOL0     C19901   5.459  10.099  11.385  0.0608 -0.2905 -1.6198
  909MOL0     C19902   5.373  10.018  11.315  0.8352  0.0966  0.7473
  909MOL0     O19903   5.364   9.620  11.268  0.2172 -0.1367 -0.0071
  909MOL0     C19904   5.112   9.536  11.168 -0.4361  0.7021  0.8109
  909MOL0     C19905   5.013   9.483  11.091 -0.0183  0.2979  0.7896
  909MOL0     N19906   4.277   9.596  11.212  0.1945  0.5639  0.0944
  909MOL0     N19907   4.148   9.563  11.226  0.3564 -0.5086  0.4120
  909MOL0     C19908   4.271   8.929  10.686 -1.1130  0.6097 -0.0791
  909MOL0     C19909   4.411   8.914  10.691  0.5537  0.6427 -0.1744
  909MOL0     C19910   4.861   9.011  10.709 -0.5564 -0.0208  0.8127
  909MOL0     C19911   4.891   8.890  10.645 -0.5764 -0.0313 -0.7005
  909MOL0     C19912   5.015   8.832  10.643  0.0759 -0.9953 -0.1256
  909MOL0     C19913   5.127   8.898  10.706 -0.1271 -0.1926  0.7199
  909MOL0     O19914   5.257   8.843  10.702 -0.4863  0.5901  0.2028
  909MOL0     C19915   5.372   8.907  10.762  0.7113 -0.1235  0.4557
  909MOL0     C19916   5.401   8.882  10.910  0.6764  0.0833  1.0225
  909MOL0     C19917   5.324   8.770  10.976  0.1260 -0.4769 -0.0235
  909MOL0     C19918   5.355   8.766  11.125  0.4160  0.2194 -0.0178
  909MOL0     C19919   5.242   8.694  11.184  0.8736 -0.3114 -0.2227
  909MOL0     C19920   5.148   8.652  11.242 -0.1720  0.1111 -0.7458
  909MOL0     C19921   5.091   9.011  10.784 -0.4921 -0.5007  0.1801
  909MOL0     C19922   4.968   9.078  10.774  0.2333 -0.0546  0.3530
  909MOL0     H19923   4.501   9.236  10.656 -2.0117  1.2991 -0.5682
  909MOL0     H19924   4.246   9.257  10.644 -2.5164 -1.0068  2.5923
  909MOL0     H19925   3.987   8.984  10.808 -1.2038  0.2359  0.4275
  909MOL0     H19926   4.015   8.885  10.668 -0.3823 -0.2781  1.1183
  909MOL0     H19927   3.772   8.962  10.702 -3.2771  2.5007 -3.0228
  909MOL0     H19928   3.835   9.010  10.553  0.8309 -0.0906 -0.0163
  909MOL0     H19929   3.724   9.195  10.628  0.1292  0.1105 -0.6742
  909MOL0     H19930   3.894   9.233  10.630  1.8194 -2.2770  2.0376
  909MOL0     H19931   3.716   9.213  10.875 -0.5745 -0.6169  0.3855
  909MOL0     H19932   3.855   9.137  10.889 -4.1960 -0.6886  1.3876
  909MOL0     H19933   3.821   9.426  10.797  0.8908 -1.5021 -3.0791
  909MOL0     H19934   3.982   9.364  10.795  0.6912 -0.7306  2.5314
  909MOL0     H19935   3.813   9.378  11.048 -0.3301  0.9711 -1.1392
  909MOL0     H19936   3.931   9.498  10.985  2.8755 -1.0746 -2.5622
  909MOL0     H19937   3.999   9.211  11.054 -5.7566  0.8157  6.4438
  909MOL0     H19938   4.115   9.339  11.003  0.8685  2.0206  0.7447
  909MOL0     H19939   4.035   9.254  11.260  0.1455 -1.3607 -1.4474
  909MOL0     H19940   3.955   9.412  11.236  1.6126  1.7226  0.3218
  909MOL0     H19941   4.307   9.272  11.199 -2.7128 -1.2560 -0.2028
  909MOL0     H19942   4.556   9.439  11.268 -0.7304  1.3319  0.3069
  909MOL0     H19943   4.547   9.599  11.216  2.1465 -0.6366  0.1925
  909MOL0     H19944   4.474   9.485  10.962  0.9905 -2.0768 -2.3258
  909MOL0     H19945   4.538   9.346  11.040  2.0032 -0.4244  1.6273
  909MOL0     H19946   4.646   9.591  10.933 -2.2909 -0.3678  0.8378
  909MOL0     H19947   4.725   9.554  11.089 -1.4576  0.8013  0.5319
  909MOL0     H19948   4.712   9.398  10.828  0.0329  3.3604 -1.1493
  909MOL0     H19949   4.780   9.325  10.958 -1.6933 -2.3750 -5.0856
  909MOL0     H19950   4.982   9.705  10.855  2.5399 -1.3220 -1.2209
  909MOL0     H19951   5.186   9.820  10.982 -0.4580  1.1442  0.0368
  909MOL0     H19952   5.582   9.754  11.243 -1.5461 -0.6475 -0.0312
  909MOL0     H19953   5.741   9.904  11.363  0.0483 -0.7153  0.3053
  909MOL0     H19954   5.634  10.297  11.405 -2.6511 -2.7412 -0.7667
  909MOL0     H19955   5.767  10.235  11.317 -0.4081 -0.2444  0.6440
  909MOL0     H19956   5.814  10.295  11.610 -2.2652  0.8068  0.0901
  909MOL0     H19957   5.859  10.402  11.476  0.7165  0.4828  3.1771
  909MOL0     H19958   5.994  10.193  11.374  1.9922 -4.7936  0.7370
  909MOL0     H19959   5.932  10.121  11.525 -0.1149  1.2389  0.3245
  909MOL0     H19960   6.081  10.382  11.566 -1.8543  0.3451 -0.5418
  909MOL0     H19961   6.056  10.236  11.668 -2.3711 -0.5982 -1.4830
  909MOL0     H19962   6.285  10.313  11.556  0.5811 -0.4279 -1.1095
  909MOL0     H19963   6.239  10.218  11.424  1.3662 -0.4146  0.7219
  909MOL0     H19964   6.179  10.016  11.579  3.6726 -4.4098 -0.1538
  909MOL0     H19965   6.253  10.099  11.704 -0.9045 -0.4675 -0.6096
  909MOL0     H19966   6.379   9.995  11.445 -1.5304 -2.2725  0.8390
  909MOL0     H19967   6.462  10.117  11.552  1.3861 -1.0496 -1.3116
  909MOL0     H19968   6.355   9.878  11.689  1.3155 -1.1290  0.1355
  909MOL0     H19969   6.495   9.982  11.724  4.6711 -1.5926 -1.7406
  909MOL0     H19970   5.419  10.187  11.435  1.3472 -0.2738 -0.5695
  909MOL0     H19971   5.272  10.040  11.284  0.6703 -0.5332  0.8288
  909MOL0     H19972   5.150   9.478  11.252 -2.4885 -0.1357  1.2290
  909MOL0     H19973   4.960   9.390  11.110 -1.2922  0.7874 -0.1912
  909MOL0     H19974   4.206   8.842  10.687 -0.4193  0.0765  1.5370
  909MOL0     H19975   4.456   8.815  10.694  1.4038  1.0192 -0.0852
  909MOL0     H19976   4.814   8.840  10.587  0.1927 -2.0279 -0.0643
  909MOL0     H19977   5.038   8.740  10.590  1.9787  0.0624 -1.2636
  909MOL0     H19978   5.375   9.015  10.744 -1.0296 -0.1516 -0.1974
  909MOL0     H19979   5.454   8.865  10.702 -1.7487 -1.5259 -2.1664
  909MOL0     H19980   5.505   8.852  10.924  0.6980 -2.0331 -2.4342
  909MOL0     H19981   5.366   8.972  10.962  1.1010  0.6440  0.3589
  909MOL0     H19982   5.339   8.673  10.927  0.1044  0.6936 -2.4865
  909MOL0     H19983   5.219   8.792  10.956  1.1293  2.1353 -3.1385
  909MOL0     H19984   5.450   8.716  11.144  2.0980  2.5717 -1.7146
  909MOL0     H19985   5.359   8.872  11.152  1.5866 -0.1417  1.2920
  909MOL0     H19986   5.064   8.604  11.288  0.8088  0.5110  1.6048
  909MOL0     H19987   5.172   9.063  10.835 -0.6677  1.2816 -1.2875
  909MOL0     H19988   4.955   9.170  10.831 -1.2259  0.1394 -0.2428
  910MOL0     O19989   2.768   9.435   9.315  0.0377 -0.2839 -0.2885
  910MOL0     C19990   2.688   9.435   9.406  0.2208 -0.3893 -0.5072
  910MOL0     O19991   2.714   9.386   9.537  0.9561  0.3817  0.3813
  910MOL0     C19992   2.834   9.347   9.560 -0.5233  0.1180 -0.6997
  910MOL0     C19993   2.919   9.421   9.638  0.5708 -0.0199  0.0314
  910MOL0     C19994   3.047   9.376   9.661 -0.4156 -0.0188 -0.4632
  910MOL0     C19995   3.096   9.255   9.610  0.3546  0.6519 -0.2101
  910MOL0     O19996   3.225   9.198   9.644  0.0667  0.2369  0.6854
  910MOL0     C19997   3.304   9.266   9.741 -1.1144  0.3616 -0.7877
  910MOL0     C19998   3.437   9.209   9.712 -0.6625  0.4349 -0.5394
  910MOL0     C19999   3.538   9.256   9.809  0.0548 -0.2023 -0.1060
  910MOL0     C20000   3.673   9.174   9.796 -0.0058  0.4434  0.2023
  910MOL0     C20001   3.785   9.225   9.888 -0.7737 -1.2706 -0.3796
  910MOL0     C20002   3.896   9.119   9.890  0.3388  0.5243  0.7662
  910MOL0     C20003   4.036   9.177   9.942  0.0981  0.4827  0.1510
  910MOL0     C20004   4.141   9.061   9.951  0.9568  0.0808  0.4310
  910MOL0     N20005   4.243   9.084  10.061  0.4697  0.1658 -0.3270
  910MOL0     C20006   4.273   9.200  10.129  0.7125 -0.9040 -0.4874
  910MOL0     C20007   4.380   9.168  10.205 -0.3477 -0.6608 -0.1959
  910MOL0     C20008   4.459   9.235  10.315  0.2250 -0.3947 -0.0881
  910MOL0     C20009   4.574   9.330  10.268 -0.4367  0.5199  0.6404
  910MOL0     C20010   4.684   9.348  10.371 -0.0890 -0.1858 -0.3349
  910MOL0     C20011   4.747   9.488  10.372 -0.2399  0.0126  0.5112
  910MOL0     O20012   4.885   9.511  10.328 -0.0165 -0.1257  1.1129
  910MOL0     C20013   4.979   9.471  10.412  0.7758 -0.7725  0.4904
  910MOL0     C20014   5.110   9.511  10.378  0.0530  1.3659  0.1062
  910MOL0     C20015   5.214   9.488  10.461 -0.2793  0.5680  0.7242
  910MOL0     C20016   5.200   9.429  10.588  0.7775 -0.9320  0.0993
  910MOL0     C20017   5.306   9.427  10.689  0.4162  0.0590  0.0982
  910MOL0     O20018   5.394   9.534  10.687  0.5455 -0.0164  0.3465
  910MOL0     C20019   5.499   9.529  10.764  0.1842 -0.7570  0.3982
  910MOL0     C20020   5.624   9.551  10.710 -0.0058  0.2182  1.3109
  910MOL0     C20021   5.739   9.565  10.788  0.3029 -0.0310 -0.2033
  910MOL0     C20022   5.726   9.569  10.924  0.3606 -0.2365 -0.1286
  910MOL0     O20023   5.831   9.607  10.998  0.2802  0.2793 -0.4482
  910MOL0     C20024   5.874   9.742  10.982 -0.5939  1.2250  0.2757
  910MOL0     C20025   5.938   9.777  11.119  0.1273  0.3139 -0.7979
  910MOL0     C20026   6.004   9.903  11.123  0.5143  0.3872  0.7323
  910MOL0     C20027   6.133   9.909  11.052 -0.5919  0.2534  0.6844
  910MOL0     C20028   6.199  10.034  11.102 -0.0953 -0.3156 -0.0278
  910MOL0     C20029   6.330  10.074  11.030  0.2087 -0.6207 -0.3685
  910MOL0     C20030   6.386  10.196  11.097 -0.3261 -0.4285 -1.3340
  910MOL0     C20031   6.537  10.182  11.115  0.0604  0.2780  0.9214
  910MOL0    Cl20032   6.607  10.332  11.185 -0.0083 -0.2870 -0.1746
  910MOL0     C20033   5.597   9.546  10.983 -1.1272  1.2497  0.1781
  910MOL0     C20034   5.489   9.516  10.905 -0.0525  0.1464 -0.5105
  910MOL0     O20035   5.313   9.328  10.768  0.1503 -0.2783  0.1894
  910MOL0     C20036   5.069   9.406  10.638  0.0203  0.2464 -1.0233
  910MOL0     C20037   4.963   9.418  10.542  0.3175 -0.3551 -0.7675
  910MOL0     N20038   4.413   9.039  10.172  0.5307 -0.2402 -0.4197
  910MOL0     N20039   4.320   8.987  10.096  0.0905 -0.6678 -0.5997
  910MOL0     C20040   3.007   9.183   9.534 -0.5363  0.3355  1.0990
  910MOL0     C20041   2.879   9.229   9.509  0.5819  0.2774  0.4239
  910MOL0     C20042   2.558   9.476   9.378 -0.1048  0.4845  0.5466
  910MOL0     C20043   2.465   9.486   9.480 -1.3995  1.4234  0.5881
  910MOL0     C20044   2.336   9.521   9.458  0.6918  0.0105  0.7312
  910MOL0     C20045   2.290   9.562   9.329  0.2343 -0.1228  0.1533
  910MOL0     O20046   2.157   9.588   9.293  0.0179  0.3313 -0.3909
  910MOL0     C20047   2.060   9.595   9.398  0.0831  0.0679  0.5936
  910MOL0     C20048   1.934   9.670   9.345 -0.0045 -0.2709  0.5527
  910MOL0     C20049   1.900   9.597   9.215 -0.8729  0.6744 -0.8251
  910MOL0     C20050   1.819   9.687   9.121  0.3237 -0.3832  0.1124
  910MOL0     C20051   1.834   9.632   8.987 -0.1505  0.2125 -0.6042
  910MOL0     C20052   1.837   9.567   8.884 -0.1671  0.1170  0.5711
  910MOL0     C20053   2.379   9.564   9.225 -0.3308 -0.1613 -0.4022
  910MOL0     C20054   2.506   9.522   9.251  1.1228 -0.0076  0.6185
  910MOL0     H20055   2.899   9.515   9.689 -0.3510  0.3984 -1.0329
  910MOL0     H20056   3.113   9.428   9.730  0.7364 -4.0114  1.8141
  910MOL0     H20057   3.269   9.260   9.845  1.6263 -0.1424  0.1872
  910MOL0     H20058   3.309   9.368   9.701  1.3397  0.1594 -1.1683
  910MOL0     H20059   3.468   9.214   9.607  2.4949 -4.8475 -0.1941
  910MOL0     H20060   3.428   9.101   9.726  5.0120 -0.9958 -4.4632
  910MOL0     H20061   3.511   9.237   9.914 -0.4252 -2.6539 -0.6088
  910MOL0     H20062   3.566   9.360   9.791  6.5404 -1.5713 -0.4752
  910MOL0     H20063   3.659   9.067   9.815  1.3256 -0.0370 -1.2783
  910MOL0     H20064   3.705   9.183   9.691  0.1346 -2.2188 -0.0541
  910MOL0     H20065   3.767   9.252   9.992 -0.5255  0.0089 -0.6506
  910MOL0     H20066   3.823   9.317   9.842 -1.4739  0.3330  2.0506
  910MOL0     H20067   3.916   9.078   9.791  1.8947  0.0754  1.2290
  910MOL0     H20068   3.874   9.032   9.953  1.9409  0.4769  1.3258
  910MOL0     H20069   4.057   9.256   9.870 -1.5857 -1.4716 -2.6896
  910MOL0     H20070   4.020   9.208  10.045  0.4936 -1.0944  0.7223
  910MOL0     H20071   4.181   9.045   9.850 -3.3615 -0.1196 -1.4792
  910MOL0     H20072   4.072   8.977   9.965 -0.6429  1.2234 -0.3800
  910MOL0     H20073   4.220   9.295  10.123 -0.1339 -1.4064 -1.4162
  910MOL0     H20074   4.489   9.152  10.380 -4.0365 -0.7966  1.7084
  910MOL0     H20075   4.394   9.288  10.385  0.0196 -2.4983  1.4258
  910MOL0     H20076   4.528   9.428  10.250 -3.3505 -0.8029  0.3168
  910MOL0     H20077   4.607   9.308  10.167  0.6232 -2.2455  1.4941
  910MOL0     H20078   4.635   9.339  10.469 -0.0562 -0.9086 -0.3757
  910MOL0     H20079   4.756   9.267  10.351 -1.2064 -0.8005 -2.0614
  910MOL0     H20080   4.752   9.528  10.473  1.6488 -0.7437  0.7518
  910MOL0     H20081   4.688   9.560  10.313  1.7727  0.7838 -0.6628
  910MOL0     H20082   5.130   9.556  10.281  2.9893 -0.6204 -0.3460
  910MOL0     H20083   5.311   9.518  10.425  1.0443 -0.4975  3.1532
  910MOL0     H20084   5.627   9.561  10.602 -3.2118 -1.0347  0.9895
  910MOL0     H20085   5.838   9.579  10.745  1.1974  0.5526  1.9181
  910MOL0     H20086   5.791   9.813  10.987 -0.6154  1.1961  0.3204
  910MOL0     H20087   5.943   9.764  10.899 -0.8012  0.2191 -0.1746
  910MOL0     H20088   6.005   9.697  11.153 -0.3561 -1.0689 -2.8657
  910MOL0     H20089   5.854   9.779  11.189 -0.2853 -0.1845 -1.2680
  910MOL0     H20090   6.012   9.928  11.229 -0.2028 -1.4313  1.2533
  910MOL0     H20091   5.933   9.977  11.084  1.1723  1.0007  0.6876
  910MOL0     H20092   6.195   9.820  11.047 -0.0212  0.7177 -2.5625
  910MOL0     H20093   6.112   9.929  10.946  1.7773 -0.7921 -0.0384
  910MOL0     H20094   6.228  10.010  11.205 -0.6170 -1.8972 -0.2323
  910MOL0     H20095   6.131  10.119  11.111  0.8363  0.3030  2.0028
  910MOL0     H20096   6.304  10.105  10.928 -0.1359  2.3273  0.5022
  910MOL0     H20097   6.397   9.988  11.032 -0.7452 -1.4236 -1.4276
  910MOL0     H20098   6.381  10.284  11.032  3.3646 -0.3678 -1.7708
  910MOL0     H20099   6.330  10.229  11.185 -0.4024 -2.6588 -0.4825
  910MOL0     H20100   6.580  10.168  11.015 -0.4607 -1.5983  0.9280
  910MOL0     H20101   6.564  10.089  11.166  3.3356 -0.8958 -2.4654
  910MOL0     H20102   5.594   9.539  11.091  0.5975  0.2453  0.2059
  910MOL0     H20103   5.395   9.504  10.959  1.4000  1.1137  2.4278
  910MOL0     H20104   5.054   9.358  10.735  1.4296 -0.3432 -1.0742
  910MOL0     H20105   4.865   9.388  10.577  0.6939  2.6418  3.5994
  910MOL0     H20106   3.020   9.081   9.498  2.3770  1.2599 -0.7796
  910MOL0     H20107   2.829   9.170   9.433  4.2518 -0.8634 -1.3041
  910MOL0     H20108   2.488   9.454   9.582  2.3236  1.6775 -0.0264
  910MOL0     H20109   2.276   9.514   9.547  1.2778 -1.7488  1.0290
  910MOL0     H20110   2.095   9.655   9.483 -4.0385  3.8748 -0.0189
  910MOL0     H20111   2.045   9.491   9.427  0.0613 -0.3051 -0.7147
  910MOL0     H20112   1.856   9.665   9.422 -0.1609 -0.6315  0.3706
  910MOL0     H20113   1.959   9.775   9.327  2.1460 -0.7561  0.5175
  910MOL0     H20114   1.849   9.503   9.240  0.8064 -0.2863 -0.8451
  910MOL0     H20115   1.991   9.567   9.163  2.1163  0.8757  3.7878
  910MOL0     H20116   1.713   9.688   9.147  0.2695 -3.0615  0.2651
  910MOL0     H20117   1.859   9.789   9.118  0.9060 -0.6088  0.1214
  910MOL0     H20118   1.845   9.509   8.795  0.7035  1.7593 -0.4600
  910MOL0     H20119   2.348   9.606   9.130  1.9794 -0.5171 -1.3935
  910MOL0     H20120   2.585   9.528   9.178  0.7397  0.3451  0.2292
  911MOL0     O20121   7.888   7.636   9.405  0.0528  0.0148  0.2759
  911MOL0     C20122   7.800   7.719   9.378 -0.2686 -0.1231  1.3311
  911MOL0     O20123   7.674   7.694   9.342 -0.2307 -0.1791  0.0958
  911MOL0     C20124   7.639   7.564   9.340 -1.0261 -0.1471 -1.1470
  911MOL0     C20125   7.671   7.483   9.230  0.1715 -1.0633  0.2610
  911MOL0     C20126   7.632   7.349   9.224  0.0347  0.1983  0.4673
  911MOL0     C20127   7.557   7.294   9.330 -0.1380  0.1102 -0.0562
  911MOL0     O20128   7.546   7.155   9.318  0.8773 -0.3355 -0.2801
  911MOL0     C20129   7.463   7.093   9.420 -0.1457  0.2842 -1.0367
  911MOL0     C20130   7.464   6.931   9.420  0.3562 -1.0488 -0.0943
  911MOL0     C20131   7.426   6.875   9.286  0.1681  1.5849 -0.2232
  911MOL0     C20132   7.399   6.721   9.302  0.0080 -0.4462  0.3170
  911MOL0     C20133   7.370   6.638   9.172 -0.9981 -0.6842  0.0118
  911MOL0     C20134   7.257   6.534   9.202 -0.1181 -0.1362  0.4762
  911MOL0     C20135   7.199   6.483   9.066  0.4466  0.1467  0.7564
  911MOL0     C20136   7.298   6.384   9.001  0.9239  0.8147 -0.5540
  911MOL0     N20137   7.235   6.282   8.920 -0.7413  0.5661  0.2965
  911MOL0     C20138   7.214   6.306   8.792 -0.3058  0.3691  0.9719
  911MOL0     C20139   7.190   6.177   8.740  0.2891 -1.0749 -0.1668
  911MOL0     C20140   7.125   6.138   8.609 -0.4187  0.5071 -0.2522
  911MOL0     C20141   7.132   6.234   8.497  0.6431  0.1058  0.5150
  911MOL0     C20142   7.278   6.245   8.460 -0.9918 -0.6356 -0.0190
  911MOL0     C20143   7.296   6.331   8.335  0.1709  1.2638 -0.7354
  911MOL0     O20144   7.438   6.318   8.292  1.0036 -0.1427  0.0648
  911MOL0     C20145   7.445   6.303   8.159  0.0488  0.9744 -1.0684
  911MOL0     C20146   7.480   6.407   8.074 -0.0706  0.6185  0.3262
  911MOL0     C20147   7.477   6.397   7.933 -0.0420  0.7533 -0.5725
  911MOL0     C20148   7.436   6.273   7.874 -0.0238  0.3507  0.7912
  911MOL0     C20149   7.429   6.279   7.724 -0.5929  0.2386 -0.2653
  911MOL0     O20150   7.444   6.152   7.665 -0.4702 -0.0712  0.9334
  911MOL0     C20151   7.471   6.145   7.527  0.5021  0.4082 -0.0191
  911MOL0     C20152   7.470   6.021   7.469 -0.8326  0.8637  0.0543
  911MOL0     C20153   7.496   6.003   7.333  0.1209  0.4048 -0.2862
  911MOL0     C20154   7.514   6.109   7.245  0.2753 -0.8552 -0.3998
  911MOL0     O20155   7.508   6.108   7.098  0.3059 -0.3264 -0.1711
  911MOL0     C20156   7.482   5.987   7.042 -0.6871  0.6156  0.3047
  911MOL0     C20157   7.451   5.998   6.892  0.4574  0.0503  0.7349
  911MOL0     C20158   7.579   6.015   6.807 -0.0038 -0.5845  0.9640
  911MOL0     C20159   7.646   5.881   6.770  0.1636 -0.4638 -0.3113
  911MOL0     C20160   7.802   5.904   6.728  0.4101 -0.7428  0.3062
  911MOL0     C20161   7.816   6.008   6.617  0.1122  1.0578 -0.7603
  911MOL0     C20162   7.947   6.016   6.538  1.6549 -0.0449 -0.4525
  911MOL0     C20163   7.922   6.138   6.437 -0.2959 -0.2139 -0.1798
  911MOL0    Cl20164   8.069   6.180   6.350 -0.1475 -0.3957 -0.0199
  911MOL0     C20165   7.521   6.236   7.305  0.0463 -0.2741  0.1307
  911MOL0     C20166   7.511   6.254   7.445 -0.3878 -0.2054  0.4576
  911MOL0     O20167   7.387   6.377   7.667  0.4856  0.1305 -0.4913
  911MOL0     C20168   7.404   6.160   7.960 -0.1200 -0.2007 -0.5359
  911MOL0     C20169   7.407   6.185   8.097 -0.3329 -0.0426  0.6858
  911MOL0     N20170   7.194   6.085   8.835  0.2192 -1.6984  0.0636
  911MOL0     N20171   7.236   6.144   8.943  0.1894 -0.1914  0.6234
  911MOL0     C20172   7.525   7.386   9.431  1.0785  0.4665  0.5425
  911MOL0     C20173   7.559   7.517   9.438  0.3903 -0.5855  0.1660
  911MOL0     C20174   7.830   7.866   9.394 -0.1767  1.0481 -0.7337
  911MOL0     C20175   7.734   7.958   9.372  1.0129  1.2260  0.0729
  911MOL0     C20176   7.750   8.089   9.398 -0.6257  0.6218  0.4282
  911MOL0     C20177   7.858   8.132   9.473 -0.1041 -0.1717  0.1604
  911MOL0     O20178   7.867   8.249   9.539 -0.1602  0.0729  0.5502
  911MOL0     C20179   7.766   8.350   9.531 -0.2407  0.2467 -0.1978
  911MOL0     C20180   7.827   8.494   9.549  0.1594  0.1443 -0.2621
  911MOL0     C20181   7.927   8.529   9.443  0.5551  0.1393 -0.9779
  911MOL0     C20182   7.978   8.679   9.448 -0.8500 -1.0206  0.0213
  911MOL0     C20183   8.049   8.717   9.323  0.3206  0.6681  0.1436
  911MOL0     C20184   8.125   8.721   9.229 -0.2275 -0.2795  1.1338
  911MOL0     C20185   7.961   8.035   9.491 -0.0129  0.4879 -0.1418
  911MOL0     C20186   7.953   7.903   9.457  0.6427 -0.6051 -0.4320
  911MOL0     H20187   7.730   7.538   9.157 -1.6981  0.6632 -0.0310
  911MOL0     H20188   7.655   7.281   9.142 -3.4663 -1.8493  0.9771
  911MOL0     H20189   7.361   7.124   9.397 -0.1748  0.4040 -0.7484
  911MOL0     H20190   7.486   7.119   9.524 -0.3161 -0.2546 -0.8596
  911MOL0     H20191   7.412   6.900   9.511  1.4929 -2.0548  0.2427
  911MOL0     H20192   7.559   6.886   9.451  0.5729  0.1785  1.1243
  911MOL0     H20193   7.511   6.877   9.217  0.7321 -0.7582  0.3153
  911MOL0     H20194   7.340   6.926   9.241 -0.9874  1.1883  1.4706
  911MOL0     H20195   7.481   6.671   9.353 -0.8293  0.5081  2.7165
  911MOL0     H20196   7.308   6.709   9.361  1.3955 -1.2143  2.3983
  911MOL0     H20197   7.469   6.607   9.135 -0.9944 -0.0459 -0.5441
  911MOL0     H20198   7.321   6.715   9.111 -0.0256  1.7817  2.1382
  911MOL0     H20199   7.184   6.579   9.270 -1.0866 -3.6031  2.0048
  911MOL0     H20200   7.297   6.445   9.251 -2.2052 -0.9821  0.7662
  911MOL0     H20201   7.107   6.426   9.077  0.0920 -0.1164 -2.5295
  911MOL0     H20202   7.189   6.558   8.987 -1.0664  0.1695  0.9549
  911MOL0     H20203   7.342   6.331   9.087 -2.4276 -0.7651  0.3532
  911MOL0     H20204   7.377   6.424   8.936  1.7248 -1.0952 -0.8288
  911MOL0     H20205   7.208   6.403   8.744  1.1407  0.6902  1.3889
  911MOL0     H20206   7.024   6.110   8.640 -1.3652  2.3968 -1.4704
  911MOL0     H20207   7.181   6.051   8.572 -2.9850 -2.4024  2.1533
  911MOL0     H20208   7.098   6.335   8.521 -2.0299 -1.1303  2.4589
  911MOL0     H20209   7.085   6.182   8.413 -1.3686  0.1202  1.5736
  911MOL0     H20210   7.338   6.274   8.547  1.4795 -1.2272 -1.3987
  911MOL0     H20211   7.328   6.149   8.440  0.2351 -0.1386  0.5165
  911MOL0     H20212   7.287   6.438   8.359  4.1510  1.3036  1.2797
  911MOL0     H20213   7.226   6.301   8.256 -0.1449  0.5011 -0.1789
  911MOL0     H20214   7.511   6.497   8.127  3.8874  0.3407 -1.2301
  911MOL0     H20215   7.508   6.479   7.869 -0.6319  1.0417 -0.4917
  911MOL0     H20216   7.446   5.935   7.531  0.2233 -0.3025 -1.1133
  911MOL0     H20217   7.501   5.897   7.307 -1.7014 -0.1226  1.3003
  911MOL0     H20218   7.397   5.933   7.086 -0.3769  0.9303  1.3214
  911MOL0     H20219   7.564   5.915   7.048  0.0714  1.2953 -1.4859
  911MOL0     H20220   7.369   6.068   6.876  0.4899 -0.1066 -0.2500
  911MOL0     H20221   7.395   5.912   6.852 -1.6065  2.7996 -2.8779
  911MOL0     H20222   7.650   6.075   6.864  0.9771 -1.0791  0.2941
  911MOL0     H20223   7.555   6.064   6.712  0.6950  0.7328  1.4506
  911MOL0     H20224   7.644   5.828   6.866  0.9840 -0.6917 -0.4160
  911MOL0     H20225   7.581   5.828   6.700 -2.4575  0.0857  1.5441
  911MOL0     H20226   7.866   5.815   6.722 -0.4574 -1.2805 -1.9655
  911MOL0     H20227   7.846   5.959   6.812  0.3761 -0.2713  0.0193
  911MOL0     H20228   7.790   6.101   6.667 -2.6822 -1.3720  2.8333
  911MOL0     H20229   7.729   5.978   6.557 -2.0186  3.5996  0.8050
  911MOL0     H20230   8.033   6.031   6.604  0.0035  0.3383  1.7236
  911MOL0     H20231   7.956   5.920   6.485  0.2534 -0.4856  0.0780
  911MOL0     H20232   7.900   6.224   6.501  1.3797 -0.7834  1.2415
  911MOL0     H20233   7.843   6.110   6.368 -1.1960 -0.6620  1.0035
  911MOL0     H20234   7.540   6.320   7.238  3.5277 -1.4149 -0.5104
  911MOL0     H20235   7.525   6.356   7.482 -0.6653 -1.1261  3.3493
  911MOL0     H20236   7.392   6.060   7.920  2.7982 -0.6193 -0.5749
  911MOL0     H20237   7.373   6.102   8.158 -0.6838  0.6838  1.5024
  911MOL0     H20238   7.462   7.352   9.513  2.5034 -1.0696  1.0675
  911MOL0     H20239   7.531   7.584   9.518 -0.2102  0.1723 -0.6468
  911MOL0     H20240   7.641   7.922   9.330  1.0925 -1.4395  1.9503
  911MOL0     H20241   7.671   8.160   9.376  0.1687  1.3061 -0.3208
  911MOL0     H20242   7.678   8.329   9.592 -1.3371 -1.2078 -2.1333
  911MOL0     H20243   7.723   8.359   9.431  2.1147  1.9121 -1.1324
  911MOL0     H20244   7.746   8.567   9.536  0.5335  0.6273  0.1103
  911MOL0     H20245   7.870   8.518   9.646 -2.6498 -1.3346  1.4787
  911MOL0     H20246   7.886   8.510   9.343 -1.5323 -1.7210  0.1237
  911MOL0     H20247   8.012   8.463   9.461  0.4788  0.6800  1.9517
  911MOL0     H20248   7.889   8.741   9.438 -0.3959 -0.5867 -1.5406
  911MOL0     H20249   8.035   8.716   9.534 -2.3680  4.2859 -0.9059
  911MOL0     H20250   8.180   8.735   9.138 -1.5131  0.4929  0.4309
  911MOL0     H20251   8.047   8.067   9.548 -1.2958 -1.2242  3.0176
  911MOL0     H20252   8.044   7.845   9.471  1.8691  1.8228  3.2150
  912MOL0     O20253   2.845   3.777   8.464 -0.6803 -0.3976 -0.4089
  912MOL0     C20254   2.857   3.758   8.345 -0.1289 -0.1450 -0.2405
  912MOL0     O20255   2.786   3.807   8.241 -0.8030 -1.2130 -0.1081
  912MOL0     C20256   2.681   3.901   8.255 -1.1053  0.3161  0.0778
  912MOL0     C20257   2.648   3.968   8.372 -0.4509 -1.0844  0.0588
  912MOL0     C20258   2.520   4.026   8.396  0.2355 -0.0270 -0.0861
  912MOL0     C20259   2.419   4.032   8.297 -0.8427 -0.1607  0.6744
  912MOL0     O20260   2.300   4.073   8.343 -0.0530 -0.3201 -0.0661
  912MOL0     C20261   2.196   4.098   8.248 -0.2194 -0.6026  0.0562
  912MOL0     C20262   2.084   3.990   8.273  0.9811  0.0662  0.6602
  912MOL0     C20263   1.972   3.999   8.178  0.7572 -0.0091  0.0569
  912MOL0     C20264   1.856   3.911   8.210  0.0438 -0.4127 -0.7005
  912MOL0     C20265   1.764   3.868   8.099 -0.5208 -0.1395  0.1929
  912MOL0     C20266   1.808   3.763   7.997 -0.4149  0.2070  1.0739
  912MOL0     C20267   1.698   3.753   7.893  0.8601  0.6590 -0.2475
  912MOL0     C20268   1.737   3.710   7.759 -0.1560  0.2923 -1.2775
  912MOL0     N20269   1.814   3.802   7.679  0.3576  0.3715 -0.3221
  912MOL0     C20270   1.945   3.794   7.643  0.3134 -0.1297  0.0888
  912MOL0     C20271   1.976   3.912   7.583 -0.6205  0.0540 -0.6735
  912MOL0     C20272   2.110   3.957   7.547  0.3293  0.3568  0.3517
  912MOL0     C20273   2.122   4.090   7.485  0.4432 -0.3216 -0.5003
  912MOL0     C20274   2.256   4.122   7.425 -0.3072 -0.2139 -0.1427
  912MOL0     C20275   2.371   4.081   7.512  0.2452 -0.5445  0.1306
  912MOL0     O20276   2.407   3.943   7.493 -0.0590  0.3564 -0.0517
  912MOL0     C20277   2.509   3.878   7.566  0.1489  0.4505  0.0429
  912MOL0     C20278   2.565   3.913   7.680 -0.8795  0.2073 -0.1181
  912MOL0     C20279   2.673   3.828   7.732  0.8778 -0.1748 -0.1463
  912MOL0     C20280   2.707   3.705   7.677 -0.2308 -0.8191 -1.5173
  912MOL0     C20281   2.803   3.606   7.741 -0.2831  0.1167 -0.6876
  912MOL0     O20282   2.828   3.486   7.680  0.4713  0.8662 -0.7993
  912MOL0     C20283   2.944   3.416   7.698 -0.1400  0.1596 -0.7662
  912MOL0     C20284   2.949   3.285   7.662 -0.2379  0.1576  0.9266
  912MOL0     C20285   3.072   3.218   7.653  1.3788  0.2377  0.0285
  912MOL0     C20286   3.194   3.275   7.691  0.1991  0.7528  0.1157
  912MOL0     O20287   3.316   3.210   7.682 -0.8969 -0.5157 -0.8006
  912MOL0     C20288   3.336   3.103   7.773 -0.0437 -0.5712  0.1559
  912MOL0     C20289   3.471   3.044   7.753  0.3479 -0.4718 -1.9468
  912MOL0     C20290   3.464   2.915   7.839 -0.9435 -0.3000  0.2881
  912MOL0     C20291   3.611   2.860   7.848 -0.0647 -0.8540  0.1103
  912MOL0     C20292   3.619   2.716   7.903 -0.3867  0.3655 -0.0812
  912MOL0     C20293   3.768   2.686   7.900  0.2151 -0.3922  0.3675
  912MOL0     C20294   3.801   2.547   7.949 -0.6274 -0.4104 -0.4385
  912MOL0     C20295   3.782   2.536   8.101  0.1498 -0.1377  0.9354
  912MOL0    Cl20296   3.919   2.608   8.191 -0.2185 -0.4396 -0.3002
  912MOL0     C20297   3.185   3.409   7.733 -0.3260  0.8911  0.9340
  912MOL0     C20298   3.060   3.477   7.733 -1.4708 -0.3326  0.3994
  912MOL0     O20299   2.853   3.643   7.848 -0.6388  0.3580  0.0511
  912MOL0     C20300   2.640   3.675   7.562 -0.1007  0.2025  0.8712
  912MOL0     C20301   2.545   3.756   7.505 -0.2288 -0.8896  0.4741
  912MOL0     N20302   1.862   3.992   7.596  0.1269 -0.3983  0.1540
  912MOL0     N20303   1.762   3.921   7.638 -0.4727  0.8923 -0.6381
  912MOL0     C20304   2.466   3.983   8.171 -0.1579 -0.3502  0.9519
  912MOL0     C20305   2.588   3.913   8.154  0.0862  0.7314 -1.1154
  912MOL0     C20306   2.950   3.649   8.313  0.5407 -0.1933 -0.0295
  912MOL0     C20307   2.987   3.622   8.176  0.6882 -0.4347 -0.1387
  912MOL0     C20308   3.050   3.502   8.134  0.6649  0.5810  0.5632
  912MOL0     C20309   3.091   3.420   8.238 -0.1242  0.2414  0.2725
  912MOL0     O20310   3.137   3.293   8.216 -0.2582 -0.0291  0.1074
  912MOL0     C20311   3.087   3.220   8.111 -0.7274 -0.0680  0.4439
  912MOL0     C20312   3.129   3.075   8.134 -0.4470  0.8784 -0.3505
  912MOL0     C20313   3.070   2.986   8.025 -0.5810  0.4021  0.3849
  912MOL0     C20314   3.122   2.838   8.039  0.1291 -0.1091  0.4823
  912MOL0     C20315   3.137   2.772   7.911 -0.1840 -0.2757 -0.0029
  912MOL0     C20316   3.149   2.708   7.809 -0.3683  0.0881 -0.0396
  912MOL0     C20317   3.093   3.455   8.372  0.2764 -0.8819 -0.8163
  912MOL0     C20318   3.018   3.568   8.413  0.2412  0.4644  0.3956
  912MOL0     H20319   2.717   3.976   8.456  0.8687  0.2056 -1.1018
  912MOL0     H20320   2.483   4.067   8.490 -2.3028 -2.3845  0.0602
  912MOL0     H20321   2.217   4.113   8.142 -1.6056  0.8060 -0.0647
  912MOL0     H20322   2.147   4.186   8.290 -2.4984 -2.7731  2.3885
  912MOL0     H20323   2.035   4.015   8.368  0.2215  3.8371 -0.5705
  912MOL0     H20324   2.124   3.889   8.260  1.0116  0.0936  0.5467
  912MOL0     H20325   2.016   3.965   8.084  1.0662 -1.0160  0.5456
  912MOL0     H20326   1.931   4.100   8.177 -0.4567 -0.4405  1.7321
  912MOL0     H20327   1.888   3.817   8.255 -0.5933 -1.5397 -2.4676
  912MOL0     H20328   1.792   3.965   8.280 -1.1843 -2.1159 -0.4488
  912MOL0     H20329   1.729   3.955   8.043 -3.0185 -1.9075 -1.1430
  912MOL0     H20330   1.673   3.820   8.134  0.5117 -2.1833  0.2019
  912MOL0     H20331   1.818   3.667   8.048 -0.1799  0.1035  0.8413
  912MOL0     H20332   1.906   3.793   7.958 -1.9873  2.2918 -1.6398
  912MOL0     H20333   1.614   3.696   7.932  1.8681  0.2359  1.4218
  912MOL0     H20334   1.662   3.855   7.876 -0.9236  0.0039 -0.5925
  912MOL0     H20335   1.636   3.699   7.718 -0.1021 -0.0170 -1.3292
  912MOL0     H20336   1.782   3.610   7.759 -0.5979  0.0550  0.4631
  912MOL0     H20337   2.003   3.706   7.670 -3.8684 -2.4939  2.3464
  912MOL0     H20338   2.157   3.884   7.481 -1.8353  0.0297 -0.8944
  912MOL0     H20339   2.160   3.955   7.645  0.8807  1.0639  0.0933
  912MOL0     H20340   2.099   4.170   7.556  0.5583 -0.6912 -0.0482
  912MOL0     H20341   2.046   4.104   7.407  0.6514  3.7116 -0.2015
  912MOL0     H20342   2.264   4.077   7.326  2.5943  3.2323 -1.7170
  912MOL0     H20343   2.264   4.231   7.414  1.2371 -0.1935  0.8895
  912MOL0     H20344   2.342   4.100   7.616 -1.0646  0.7978 -0.4483
  912MOL0     H20345   2.458   4.137   7.478 -1.2682  1.6994 -0.2409
  912MOL0     H20346   2.524   3.995   7.739 -2.7871  0.0616 -1.1768
  912MOL0     H20347   2.720   3.855   7.826 -1.1933  3.8416 -0.0698
  912MOL0     H20348   2.852   3.247   7.631 -0.8186  0.1463  2.6407
  912MOL0     H20349   3.070   3.115   7.616 -4.7604  0.2880 -0.7623
  912MOL0     H20350   3.271   3.018   7.750 -1.1467  0.5690 -1.1481
  912MOL0     H20351   3.326   3.137   7.876  1.2520  4.6450 -1.1645
  912MOL0     H20352   3.551   3.111   7.785  0.5324 -1.5077 -0.1533
  912MOL0     H20353   3.497   3.013   7.651 -0.3019 -2.1968 -1.6219
  912MOL0     H20354   3.398   2.841   7.794 -0.9638 -0.6578  0.8830
  912MOL0     H20355   3.426   2.924   7.942 -0.3537 -1.5363  0.6365
  912MOL0     H20356   3.645   2.868   7.745 -0.8982  3.4388 -0.0209
  912MOL0     H20357   3.678   2.920   7.910 -2.6320  1.0535  1.2194
  912MOL0     H20358   3.561   2.642   7.847  0.6550 -0.6983  0.1921
  912MOL0     H20359   3.577   2.718   8.004  0.9928 -0.0746  0.5258
  912MOL0     H20360   3.811   2.772   7.952 -1.5397  2.3004 -2.2509
  912MOL0     H20361   3.797   2.709   7.797 -3.4884 -0.0733 -0.7645
  912MOL0     H20362   3.753   2.469   7.889 -2.9474  1.3158 -0.9630
  912MOL0     H20363   3.906   2.521   7.933 -0.2151  1.0255 -0.2275
  912MOL0     H20364   3.781   2.429   8.125  2.2773  0.2002  2.9301
  912MOL0     H20365   3.686   2.575   8.137  0.9467 -0.0474  3.1252
  912MOL0     H20366   3.275   3.466   7.756  1.8853 -1.3109 -1.5292
  912MOL0     H20367   3.063   3.583   7.753 -1.1866  0.1234 -1.8111
  912MOL0     H20368   2.667   3.582   7.512  0.8032  1.2053 -0.5496
  912MOL0     H20369   2.509   3.733   7.405  0.3339  0.2960 -0.0193
  912MOL0     H20370   2.393   3.979   8.091  0.7391  1.4541 -0.0208
  912MOL0     H20371   2.606   3.853   8.064  1.0551 -0.8945  0.0941
  912MOL0     H20372   2.946   3.676   8.092 -3.2132 -1.4320  0.9276
  912MOL0     H20373   3.072   3.474   8.031  1.7103 -3.7309  1.7492
  912MOL0     H20374   3.129   3.253   8.016 -2.1171 -0.9442 -0.5091
  912MOL0     H20375   2.979   3.237   8.111 -0.4914  1.6363  0.8107
  912MOL0     H20376   3.238   3.063   8.130 -0.3107  1.4375  1.0714
  912MOL0     H20377   3.078   3.044   8.226 -1.3441  1.6048 -0.5939
  912MOL0     H20378   3.105   3.025   7.929  1.8304  2.1075  1.8459
  912MOL0     H20379   2.960   2.989   8.030 -0.6302  2.6682 -0.7532
  912MOL0     H20380   3.215   2.838   8.096  1.8720  0.0062 -2.1745
  912MOL0     H20381   3.055   2.775   8.098  1.6086 -0.6963  1.5999
  912MOL0     H20382   3.172   2.640   7.730  1.2322 -0.2088  0.6377
  912MOL0     H20383   3.124   3.393   8.455  0.8945  0.5986  0.1132
  912MOL0     H20384   3.018   3.589   8.519 -1.6609 -0.2226  0.5771
  913MOL0     O20385   4.571   9.457   0.141 -0.1331 -0.2591 -0.4204
  913MOL0     C20386   4.657   9.551   0.163  0.2589  0.0976  0.4097
  913MOL0     O20387   4.617   9.677   0.201 -0.2588  0.3814 -0.3633
  913MOL0     C20388   4.483   9.723   0.194 -0.2070  0.4484  0.7509
  913MOL0     C20389   4.436   9.808   0.300  0.0028  0.6181 -0.3186
  913MOL0     C20390   4.305   9.844   0.327  0.7041 -0.5445  0.1641
  913MOL0     C20391   4.208   9.785   0.241 -0.0530 -0.4123 -1.1097
  913MOL0     O20392   4.074   9.815   0.253  0.3230 -0.4562  0.1504
  913MOL0     C20393   4.040   9.953   0.266  0.2138 -1.0333 -0.4351
  913MOL0     C20394   3.885   9.983   0.265 -0.3097 -0.8061  0.0840
  913MOL0     C20395   3.807   9.894   0.357  0.4130  0.9525  0.4460
  913MOL0     C20396   3.789   9.938   0.498  0.3281 -0.4065  0.4896
  913MOL0     C20397   3.662   9.883   0.551 -0.4178 -0.2355 -1.0919
  913MOL0     C20398   3.627   9.925   0.693  0.0213  0.2492  0.0176
  913MOL0     C20399   3.697   9.872   0.811 -0.2184  0.0405  0.4101
  913MOL0     C20400   3.684   9.960   0.923  0.0472  0.4698 -0.1421
  913MOL0     N20401   3.556   9.959   0.980 -0.8439  0.0855 -1.1946
  913MOL0     C20402   3.517   9.892   1.098 -0.6545 -0.2882  0.2887
  913MOL0     C20403   3.388   9.921   1.099  0.2489  0.8146 -0.1385
  913MOL0     C20404   3.278   9.871   1.196 -0.4838  0.7018 -0.2553
  913MOL0     C20405   3.295   9.721   1.234  0.2858 -0.8211  0.2244
  913MOL0     C20406   3.228   9.695   1.370  0.7909  0.9018 -0.3810
  913MOL0     C20407   3.094   9.638   1.354 -0.5646 -0.2847 -0.4121
  913MOL0     O20408   3.003   9.729   1.289  0.2436  0.0301  0.4491
  913MOL0     C20409   2.908   9.663   1.205 -0.1179 -1.2696  0.3518
  913MOL0     C20410   2.923   9.669   1.066 -0.2914 -1.1063  0.1226
  913MOL0     C20411   2.845   9.586   0.980  0.4519  0.1340  0.5138
  913MOL0     C20412   2.742   9.507   1.031  0.2373 -0.2962 -0.3275
  913MOL0     C20413   2.642   9.441   0.938 -0.0976 -0.0333  0.1349
  913MOL0     O20414   2.544   9.362   1.003 -0.1054  1.1437 -0.1987
  913MOL0     C20415   2.448   9.300   0.937 -0.2664  0.6538  0.3091
  913MOL0     C20416   2.422   9.298   0.803 -0.0373 -0.8268 -0.0361
  913MOL0     C20417   2.307   9.229   0.748 -0.3861 -0.1289 -0.9867
  913MOL0     C20418   2.221   9.157   0.825 -0.0970 -0.2321 -0.5574
  913MOL0     O20419   2.109   9.091   0.780  0.8348 -0.0078 -0.1800
  913MOL0     C20420   2.064   9.122   0.643  0.4215  0.3220  0.0542
  913MOL0     C20421   1.991   9.263   0.633 -0.0444 -0.2046  0.9010
  913MOL0     C20422   1.842   9.252   0.669  0.4324  0.3517 -0.0717
  913MOL0     C20423   1.756   9.165   0.569  0.2096  0.2060  0.3581
  913MOL0     C20424   1.727   9.246   0.443  0.5421  0.0703  0.4177
  913MOL0     C20425   1.619   9.175   0.359 -0.5105 -0.2048  0.0578
  913MOL0     C20426   1.564   9.255   0.245 -0.0101  0.0881 -0.7484
  913MOL0     C20427   1.435   9.193   0.199  0.9753 -0.2949 -0.1906
  913MOL0    Cl20428   1.301   9.239   0.312 -0.3836  0.0562  0.4799
  913MOL0     C20429   2.247   9.152   0.962 -0.0590 -0.1861 -0.6337
  913MOL0     C20430   2.357   9.228   1.017 -0.0819 -0.6223 -0.5970
  913MOL0     O20431   2.681   9.438   0.819 -0.0005 -0.4945 -0.5571
  913MOL0     C20432   2.726   9.510   1.169  0.5708 -0.2760  0.6758
  913MOL0     C20433   2.808   9.584   1.252 -0.4005  0.3523 -0.7394
  913MOL0     N20434   3.351  10.001   0.997  0.3689  0.3256  0.7243
  913MOL0     N20435   3.454  10.028   0.928  0.6298 -0.1270 -0.7398
  913MOL0     C20436   4.247   9.702   0.135  0.1249  0.3778 -0.0010
  913MOL0     C20437   4.377   9.667   0.113 -1.1586  0.2427  0.4307
  913MOL0     C20438   4.803   9.522   0.151 -0.2875 -0.3298 -1.1889
  913MOL0     C20439   4.859   9.394   0.124  0.1158 -0.0698  0.6680
  913MOL0     C20440   4.996   9.366   0.121  0.5458 -0.2384 -0.4203
  913MOL0     C20441   5.089   9.470   0.139  0.2793  0.4055 -0.3733
  913MOL0     O20442   5.224   9.458   0.125  0.3262  0.9902 -0.0621
  913MOL0     C20443   5.283   9.324   0.119 -0.7477 -0.0298  0.6842
  913MOL0     C20444   5.428   9.319   0.154 -0.1244  0.1607 -0.1598
  913MOL0     C20445   5.517   9.394   0.060 -0.6521 -0.2213  0.4581
  913MOL0     C20446   5.661   9.359   0.095 -0.2670 -0.3207 -0.0803
  913MOL0     C20447   5.758   9.437   0.014  0.7077  0.4201 -0.7702
  913MOL0     C20448   5.825   9.496  -0.066  0.5709  0.7598  0.1005
  913MOL0     C20449   5.040   9.604   0.158 -0.4039 -0.2880  0.3012
  913MOL0     C20450   4.899   9.626   0.182  0.3917  1.4504 -1.1235
  913MOL0     H20451   4.501   9.829   0.384  0.5183 -0.5069 -0.4154
  913MOL0     H20452   4.277   9.911   0.408  0.9758 -1.2148  0.8260
  913MOL0     H20453   4.075  10.019   0.186 -0.3810 -1.0069 -0.6722
  913MOL0     H20454   4.068   9.996   0.363 -0.2602  0.0053 -0.7472
  913MOL0     H20455   3.855   9.956   0.164 -1.8881 -1.3980  0.6835
  913MOL0     H20456   3.859  10.088   0.281  0.6764 -0.1062 -2.4340
  913MOL0     H20457   3.844   9.791   0.354 -1.0236  0.4138  0.2720
  913MOL0     H20458   3.707   9.888   0.312  1.7554  3.5840 -3.3617
  913MOL0     H20459   3.864   9.886   0.558  2.6872  0.4136 -1.5679
  913MOL0     H20460   3.793  10.046   0.514 -1.7221 -0.5753  2.7826
  913MOL0     H20461   3.662   9.774   0.549  1.3741 -0.2730 -0.8785
  913MOL0     H20462   3.582   9.928   0.491 -1.4434  0.5113  0.7464
  913MOL0     H20463   3.523   9.895   0.711 -0.0414  0.3604 -0.1517
  913MOL0     H20464   3.642  10.033   0.686 -1.4482  0.5851  1.5186
  913MOL0     H20465   3.661   9.771   0.831  0.3421 -0.9418 -2.8721
  913MOL0     H20466   3.803   9.873   0.783 -1.0223 -2.3782 -3.5589
  913MOL0     H20467   3.716  10.064   0.911  0.8244  0.0966 -1.4637
  913MOL0     H20468   3.751   9.917   0.998  0.0931  0.9232  0.0804
  913MOL0     H20469   3.566   9.815   1.157  2.3656  1.0687 -0.2453
  913MOL0     H20470   3.182   9.882   1.144 -0.5724  0.6306 -0.1071
  913MOL0     H20471   3.287   9.927   1.289 -1.3954 -0.4241  0.5319
  913MOL0     H20472   3.399   9.691   1.250  1.0883  2.6152  2.6320
  913MOL0     H20473   3.269   9.653   1.152  0.3362  2.5599 -2.8621
  913MOL0     H20474   3.285   9.627   1.434 -1.4393  0.7146  1.5216
  913MOL0     H20475   3.203   9.787   1.424 -1.6922  0.3639 -0.5040
  913MOL0     H20476   3.059   9.612   1.455 -0.8620  0.2657 -0.3652
  913MOL0     H20477   3.100   9.548   1.293 -0.1436 -0.0114 -0.7823
  913MOL0     H20478   2.994   9.737   1.020 -1.5625  0.6802  0.6678
  913MOL0     H20479   2.866   9.588   0.874  0.8565 -0.0148  0.5919
  913MOL0     H20480   2.479   9.339   0.720 -0.8751  0.5158  0.0276
  913MOL0     H20481   2.282   9.242   0.643  3.9184  1.9644 -1.9676
  913MOL0     H20482   1.990   9.042   0.634 -2.1403  2.0328  3.4903
  913MOL0     H20483   2.137   9.111   0.563 -0.5720  0.3591 -0.8799
  913MOL0     H20484   2.000   9.309   0.534 -0.4819  4.1940  2.6616
  913MOL0     H20485   2.027   9.343   0.699  1.3831 -0.1131  0.0488
  913MOL0     H20486   1.801   9.353   0.678  1.5270  0.6586  2.4561
  913MOL0     H20487   1.824   9.207   0.767  0.9821  0.7013  0.1951
  913MOL0     H20488   1.808   9.071   0.550  3.0269  1.2366  2.3287
  913MOL0     H20489   1.655   9.150   0.607 -0.0515  0.1104 -0.3463
  913MOL0     H20490   1.817   9.278   0.389  0.1341  1.6331  0.6141
  913MOL0     H20491   1.672   9.338   0.465  0.8542  0.3134  0.1957
  913MOL0     H20492   1.542   9.154   0.434  1.5752  2.8869  3.3819
  913MOL0     H20493   1.651   9.083   0.310  1.4327  1.1270 -1.3039
  913MOL0     H20494   1.543   9.360   0.268 -1.2697  0.5877 -3.7130
  913MOL0     H20495   1.636   9.270   0.164  2.0568 -2.1509  0.5073
  913MOL0     H20496   1.437   9.085   0.186  1.1675 -0.5801  1.9381
  913MOL0     H20497   1.423   9.227   0.095 -0.7147  0.3553  0.1802
  913MOL0     H20498   2.184   9.093   1.028 -0.5871  1.4002  0.3683
  913MOL0     H20499   2.370   9.215   1.124 -3.0346  0.8201  0.0412
  913MOL0     H20500   2.650   9.445   1.210 -1.1600 -0.1835 -2.1393
  913MOL0     H20501   2.808   9.572   1.359  4.4696  3.3721 -0.0907
  913MOL0     H20502   4.165   9.663   0.075 -0.9523  0.9970  1.0165
  913MOL0     H20503   4.387   9.598   0.030 -2.2910  0.7467 -0.1431
  913MOL0     H20504   4.795   9.308   0.104 -1.7187  1.2836  0.3819
  913MOL0     H20505   5.029   9.268   0.089  1.7676 -0.0981  0.3699
  913MOL0     H20506   5.266   9.290   0.016 -0.5513  2.1971 -0.1453
  913MOL0     H20507   5.229   9.265   0.193  0.0844 -0.3426  1.0533
  913MOL0     H20508   5.431   9.353   0.258  0.4067 -0.7654  0.1462
  913MOL0     H20509   5.450   9.212   0.149 -0.0443  0.2354 -1.8401
  913MOL0     H20510   5.487   9.499   0.066 -0.7859 -0.0084 -2.4568
  913MOL0     H20511   5.497   9.363  -0.043  3.5459  2.3765 -1.4152
  913MOL0     H20512   5.663   9.371   0.204 -2.0900 -0.6142  0.0119
  913MOL0     H20513   5.663   9.254   0.063 -3.0037 -0.1958 -0.8811
  913MOL0     H20514   5.885   9.561  -0.127  1.9285 -0.8036 -0.2902
  913MOL0     H20515   5.111   9.684   0.175  0.9320 -0.8280 -2.2835
  913MOL0     H20516   4.854   9.716   0.223 -1.5145  2.4964 -4.9862
  914MOL0     O20517  10.671   9.401   8.828 -0.5088 -0.8328  0.7561
  914MOL0     C20518  10.693   9.335   8.728 -0.4182  0.4809  0.0300
  914MOL0     O20519  10.647   9.206   8.694 -0.7179 -0.3043  0.0155
  914MOL0     C20520  10.575   9.146   8.797 -0.8546 -0.2235  0.3773
  914MOL0     C20521  10.467   9.203   8.863  0.5095  0.3056 -0.0135
  914MOL0     C20522  10.409   9.133   8.963  0.8984  0.2589  0.2837
  914MOL0     C20523  10.444   9.002   8.994 -0.6687 -0.1085 -0.9197
  914MOL0     O20524  10.371   8.945   9.097 -0.1836  0.3463  0.1344
  914MOL0     C20525  10.434   8.837   9.177 -0.2528 -0.3209 -0.1420
  914MOL0     C20526  10.345   8.807   9.300 -1.0637 -0.3902  0.2357
  914MOL0     C20527  10.268   8.676   9.292 -0.0176  0.4102  0.2242
  914MOL0     C20528  10.191   8.649   9.429 -0.4587 -0.3342  0.5195
  914MOL0     C20529  10.130   8.512   9.422 -1.2814 -0.1473 -0.2447
  914MOL0     C20530  10.120   8.479   9.577 -0.8395  0.4552  0.1725
  914MOL0     C20531  10.046   8.347   9.614  0.4879  0.9042 -0.3639
  914MOL0     C20532  10.097   8.230   9.524  1.0021 -0.5189  0.8159
  914MOL0     N20533  10.038   8.098   9.550 -0.4662 -0.1475 -0.2948
  914MOL0     C20534   9.909   8.080   9.516  0.6671 -0.1568  0.9671
  914MOL0     C20535   9.864   7.974   9.579  0.5716 -0.1751  0.1320
  914MOL0     C20536   9.725   7.907   9.566 -0.2204 -0.3520 -0.6731
  914MOL0     C20537   9.692   7.844   9.426 -0.0984  0.2120  1.1076
  914MOL0     C20538   9.548   7.861   9.381 -0.5680  0.5692  0.6788
  914MOL0     C20539   9.519   7.809   9.234 -0.4683  1.1529  0.6990
  914MOL0     O20540   9.379   7.812   9.216  0.3743 -0.0870 -0.3812
  914MOL0     C20541   9.322   7.789   9.098  0.0961 -0.0494  0.1263
  914MOL0     C20542   9.396   7.730   8.997  0.5105 -0.1651  0.6091
  914MOL0     C20543   9.332   7.711   8.877  0.1658 -0.8165  0.1662
  914MOL0     C20544   9.200   7.756   8.853  0.4096  0.8113 -0.2506
  914MOL0     C20545   9.128   7.756   8.725 -0.0380  0.4566 -1.1968
  914MOL0     O20546   8.994   7.784   8.739  0.0710  0.5338  0.0032
  914MOL0     C20547   8.919   7.782   8.630 -0.5555 -0.0882 -0.0477
  914MOL0     C20548   8.859   7.665   8.579 -0.3917 -0.1203 -0.0255
  914MOL0     C20549   8.766   7.673   8.474  0.3842 -0.7085  0.4275
  914MOL0     C20550   8.725   7.798   8.417  0.5614  0.5674 -0.4293
  914MOL0     O20551   8.623   7.802   8.324 -0.4043 -0.3035  0.5482
  914MOL0     C20552   8.502   7.869   8.362 -0.2232  0.1324  0.7826
  914MOL0     C20553   8.387   7.780   8.380 -0.1820  0.0597 -0.8058
  914MOL0     C20554   8.269   7.825   8.466 -0.6610 -0.6182  0.1071
  914MOL0     C20555   8.175   7.728   8.527  0.5995  0.5818  0.2365
  914MOL0     C20556   8.084   7.669   8.422 -0.1917  0.0122 -0.1515
  914MOL0     C20557   8.008   7.543   8.461  0.3885 -0.7575  0.3712
  914MOL0     C20558   8.097   7.428   8.510 -0.0461  0.6998  0.6258
  914MOL0     C20559   8.138   7.334   8.402  0.3921  0.0375 -0.1682
  914MOL0    Cl20560   8.269   7.395   8.299 -0.2486  0.0970 -0.0871
  914MOL0     C20561   8.779   7.909   8.470 -0.1367  0.1948 -0.1825
  914MOL0     C20562   8.876   7.900   8.570  0.1841  0.3706 -0.1223
  914MOL0     O20563   9.183   7.714   8.625 -0.5788  0.0018  0.2195
  914MOL0     C20564   9.131   7.808   8.962  0.4442 -0.0149  0.2720
  914MOL0     C20565   9.188   7.822   9.083 -0.5019  0.5736 -0.0291
  914MOL0     N20566   9.965   7.938   9.667  1.0400 -0.4371 -0.3489
  914MOL0     N20567  10.079   8.008   9.649  0.2567 -0.7573  0.4413
  914MOL0     C20568  10.553   8.947   8.926 -0.4519  0.5428 -0.0868
  914MOL0     C20569  10.611   9.014   8.821 -0.4629 -0.9117  0.7903
  914MOL0     C20570  10.768   9.390   8.612 -0.1815  0.5455 -0.3028
  914MOL0     C20571  10.858   9.300   8.544  0.2115  0.0547 -0.3442
  914MOL0     C20572  10.928   9.348   8.433 -0.2457 -0.9912 -0.3174
  914MOL0     C20573  10.908   9.477   8.385 -0.1419 -0.3100 -0.3016
  914MOL0     O20574  10.971   9.520   8.265  0.3769 -0.1167 -0.2412
  914MOL0     C20575  11.085   9.463   8.207 -0.3723  0.4664 -0.6556
  914MOL0     C20576  11.145   9.545   8.099  0.0718 -0.1938  1.1952
  914MOL0     C20577  11.036   9.571   7.990  0.1924  0.7471 -0.3241
  914MOL0     C20578  11.101   9.627   7.863  0.3971  0.4733  0.5424
  914MOL0     C20579  11.136   9.766   7.864  0.6312  0.1868  0.1528
  914MOL0     C20580  11.144   9.884   7.889 -0.9936  0.6460  0.2876
  914MOL0     C20581  10.832   9.565   8.462 -0.0955 -0.9980 -0.4521
  914MOL0     C20582  10.758   9.528   8.575  0.3013 -0.2962 -0.7618
  914MOL0     H20583  10.432   9.300   8.829  1.8657  0.2727 -1.6318
  914MOL0     H20584  10.330   9.184   9.016 -2.0330 -0.9513 -2.5687
  914MOL0     H20585  10.533   8.869   9.212 -0.6298  0.1349  0.5304
  914MOL0     H20586  10.443   8.748   9.115 -0.2535  1.6457 -3.1573
  914MOL0     H20587  10.271   8.887   9.307 -0.6635  0.2634 -2.0315
  914MOL0     H20588  10.412   8.818   9.387 -1.2992  0.3270  0.3360
  914MOL0     H20589  10.343   8.597   9.284 -0.8841 -0.3365 -0.8885
  914MOL0     H20590  10.199   8.689   9.209  1.6593 -1.0748 -1.4844
  914MOL0     H20591  10.264   8.660   9.509 -0.7421  4.7987  0.4381
  914MOL0     H20592  10.136   8.743   9.436  3.5170  2.2231  0.9910
  914MOL0     H20593  10.190   8.439   9.366  0.0325 -0.9719  2.1024
  914MOL0     H20594  10.030   8.519   9.378 -0.3299  3.2874 -2.2810
  914MOL0     H20595  10.058   8.557   9.622 -0.5431 -0.2233  1.8009
  914MOL0     H20596  10.216   8.472   9.628 -2.4159  0.7159  3.3739
  914MOL0     H20597  10.044   8.326   9.721  0.3372 -0.9866 -0.7003
  914MOL0     H20598   9.943   8.364   9.582 -0.1103 -2.3818 -0.5258
  914MOL0     H20599  10.202   8.206   9.543  0.6896 -0.5132  2.7352
  914MOL0     H20600  10.086   8.257   9.418 -1.3036  1.6635  1.5204
  914MOL0     H20601   9.843   8.141   9.455  0.7886  0.7347  1.7019
  914MOL0     H20602   9.655   7.990   9.579  0.4826  0.0571  0.7770
  914MOL0     H20603   9.726   7.852   9.660 -3.0629  0.7222  0.0772
  914MOL0     H20604   9.705   7.735   9.428 -0.9562 -0.2834 -4.2159
  914MOL0     H20605   9.766   7.883   9.355 -1.5682 -1.7576 -1.7437
  914MOL0     H20606   9.476   7.810   9.445 -2.8975  1.4646 -1.0636
  914MOL0     H20607   9.534   7.970   9.380  1.9065  0.9456  0.9910
  914MOL0     H20608   9.559   7.709   9.213  1.7471  2.1324 -0.0888
  914MOL0     H20609   9.570   7.863   9.153 -1.1099 -2.1321 -2.1368
  914MOL0     H20610   9.496   7.690   9.010  0.5083 -1.1816 -2.0182
  914MOL0     H20611   9.389   7.674   8.792 -0.0770 -2.0405  0.5167
  914MOL0     H20612   8.903   7.574   8.619 -0.7185 -0.7694 -1.1012
  914MOL0     H20613   8.715   7.590   8.427  0.0436 -0.7935  0.9390
  914MOL0     H20614   8.468   7.942   8.289  1.4036 -0.0645 -0.2217
  914MOL0     H20615   8.524   7.923   8.455 -0.3440  3.2919 -0.9156
  914MOL0     H20616   8.427   7.691   8.429  0.7832  1.6301  1.3995
  914MOL0     H20617   8.352   7.756   8.279 -3.9196  3.0825 -0.4761
  914MOL0     H20618   8.214   7.899   8.407 -0.2641  1.4346  2.1509
  914MOL0     H20619   8.291   7.891   8.551 -2.1245  0.0429  0.0040
  914MOL0     H20620   8.238   7.666   8.593  2.7823  1.8544 -0.5532
  914MOL0     H20621   8.102   7.779   8.591  2.6051  4.9746 -0.6360
  914MOL0     H20622   8.140   7.633   8.334 -2.3912 -3.0775 -0.4344
  914MOL0     H20623   8.010   7.742   8.389 -1.6220 -1.8207 -1.2095
  914MOL0     H20624   7.942   7.507   8.382 -2.0399  0.0744  1.9161
  914MOL0     H20625   7.943   7.567   8.546 -2.1042  1.0338 -1.8660
  914MOL0     H20626   8.185   7.459   8.567  1.3733 -1.6450 -0.1525
  914MOL0     H20627   8.034   7.363   8.571 -1.6055  0.3734 -1.2608
  914MOL0     H20628   8.053   7.313   8.335  0.7282 -3.8181  0.3968
  914MOL0     H20629   8.176   7.245   8.454  2.6644 -0.2160 -2.1037
  914MOL0     H20630   8.763   8.013   8.442  2.5484  0.1613 -2.2324
  914MOL0     H20631   8.900   7.993   8.621  1.4427  0.6719 -1.2092
  914MOL0     H20632   9.024   7.826   8.965  0.2651 -0.8243 -0.8925
  914MOL0     H20633   9.129   7.873   9.158 -1.7974 -0.9984  0.0688
  914MOL0     H20634  10.581   8.851   8.967  3.0083  1.8213  0.9037
  914MOL0     H20635  10.696   8.968   8.771  2.6437  0.9297  3.9505
  914MOL0     H20636  10.877   9.198   8.578  1.5032  0.6592  0.8669
  914MOL0     H20637  11.014   9.298   8.389  1.7739  0.7026  1.4974
  914MOL0     H20638  11.059   9.365   8.164  3.3838 -1.8313  1.7390
  914MOL0     H20639  11.166   9.444   8.278  0.0342 -2.1231 -1.7205
  914MOL0     H20640  11.172   9.637   8.152  0.1963  0.8971 -0.7030
  914MOL0     H20641  11.230   9.490   8.057  0.9251  2.6665 -1.0758
  914MOL0     H20642  10.965   9.647   8.023  0.9107  1.9364 -1.4007
  914MOL0     H20643  10.999   9.469   7.972  0.9568 -0.0463  2.2028
  914MOL0     H20644  11.186   9.565   7.832 -1.1822  0.1402 -3.6788
  914MOL0     H20645  11.026   9.612   7.785  1.1821  1.9684 -0.5365
  914MOL0     H20646  11.145   9.991   7.899  3.2259  0.8007 -0.2092
  914MOL0     H20647  10.821   9.664   8.420  0.4246 -1.5607 -1.9769
  914MOL0     H20648  10.694   9.603   8.621 -1.8303 -0.6428 -2.9073
  915MOL0     O20649   6.268   2.310   3.339 -0.0226  0.2753 -0.1502
  915MOL0     C20650   6.279   2.191   3.375 -1.0701  0.4755 -0.8553
  915MOL0     O20651   6.390   2.128   3.404 -0.4350  0.5745  0.0385
  915MOL0     C20652   6.514   2.186   3.384  0.7601 -0.5123 -0.6073
  915MOL0     C20653   6.600   2.115   3.301 -0.1431  1.1139 -0.9211
  915MOL0     C20654   6.730   2.164   3.274 -0.6522 -0.6042  0.5115
  915MOL0     C20655   6.775   2.287   3.324  0.6691  0.1663 -0.4484
  915MOL0     O20656   6.899   2.339   3.306  0.0637 -1.3341  0.0262
  915MOL0     C20657   6.932   2.329   3.170  0.3489 -0.7942 -0.2343
  915MOL0     C20658   7.077   2.361   3.162  0.6606  0.1138  0.4609
  915MOL0     C20659   7.108   2.514   3.192 -0.1498  0.0948 -1.0155
  915MOL0     C20660   7.255   2.532   3.252  0.9115  0.2405  0.3907
  915MOL0     C20661   7.361   2.518   3.145  0.0120 -0.3216  0.0330
  915MOL0     C20662   7.497   2.552   3.214  0.4851 -0.1336 -0.3884
  915MOL0     C20663   7.618   2.564   3.122 -0.4337  0.0093 -0.2158
  915MOL0     C20664   7.664   2.432   3.042 -0.8480  0.0886  0.1091
  915MOL0     N20665   7.809   2.426   3.035  0.4232 -0.2935  1.0921
  915MOL0     C20666   7.888   2.514   2.959 -0.2462 -0.5524  0.0084
  915MOL0     C20667   8.008   2.490   3.008 -0.5455  0.0329  0.5307
  915MOL0     C20668   8.138   2.561   2.976 -0.0491 -0.3971 -0.6650
  915MOL0     C20669   8.212   2.476   2.872 -1.4154 -0.4107  0.4542
  915MOL0     C20670   8.367   2.507   2.867  0.0026 -0.1379  0.6727
  915MOL0     C20671   8.449   2.386   2.807 -0.1216 -0.4990 -1.2909
  915MOL0     O20672   8.589   2.401   2.831 -0.1727 -0.0563 -0.3194
  915MOL0     C20673   8.664   2.478   2.745  0.3357  0.4284 -0.1137
  915MOL0     C20674   8.717   2.403   2.633  1.3574 -0.2503  0.0517
  915MOL0     C20675   8.787   2.472   2.538 -0.4888  0.7125 -0.5064
  915MOL0     C20676   8.810   2.615   2.559 -0.1216  0.5603 -0.2480
  915MOL0     C20677   8.886   2.701   2.464  0.1947  0.6320  0.0300
  915MOL0     O20678   8.869   2.659   2.338  0.8640  0.4335  0.7240
  915MOL0     C20679   8.917   2.732   2.240 -0.9502  0.0867 -0.2804
  915MOL0     C20680   9.055   2.771   2.235  0.5218 -0.5785 -0.2503
  915MOL0     C20681   9.098   2.842   2.118  0.0050  0.3968  0.2028
  915MOL0     C20682   9.013   2.846   2.008 -0.7489 -0.0209  0.3566
  915MOL0     O20683   9.061   2.882   1.885 -0.2834 -0.8148  0.6725
  915MOL0     C20684   8.995   2.999   1.823  0.8860 -0.3315  0.1842
  915MOL0     C20685   9.109   3.080   1.769  0.5159  0.7968 -0.7645
  915MOL0     C20686   9.206   3.110   1.883 -0.2054 -0.5763 -0.1079
  915MOL0     C20687   9.336   3.167   1.833 -0.0861  0.9642  0.2887
  915MOL0     C20688   9.444   3.153   1.940  0.2540  0.7293  0.2713
  915MOL0     C20689   9.569   3.203   1.884 -0.8326  0.4273 -0.5390
  915MOL0     C20690   9.666   3.208   2.002 -0.5704 -0.6446  0.6126
  915MOL0     C20691   9.798   3.272   1.972  1.3782 -0.0983 -0.0077
  915MOL0    Cl20692   9.929   3.237   2.091 -0.0128 -0.1566 -0.0550
  915MOL0     C20693   8.885   2.801   2.020  0.5811 -0.2400  0.5601
  915MOL0     C20694   8.826   2.750   2.137  0.7380  0.0984 -0.4806
  915MOL0     O20695   8.953   2.796   2.498 -0.0409  0.9296  0.1071
  915MOL0     C20696   8.769   2.678   2.678  0.1337 -0.2064  0.0015
  915MOL0     C20697   8.689   2.609   2.767  0.0499  1.0702  0.0745
  915MOL0     N20698   8.002   2.398   3.110  0.5081  0.8176 -0.2160
  915MOL0     N20699   7.881   2.354   3.125  0.0045 -0.5654 -0.4081
  915MOL0     C20700   6.679   2.360   3.397 -0.5822 -0.2163 -0.4647
  915MOL0     C20701   6.550   2.316   3.423 -0.2054 -0.5872  0.7577
  915MOL0     C20702   6.156   2.111   3.374 -0.1827 -0.1395  0.4990
  915MOL0     C20703   6.033   2.175   3.387  0.4700 -0.2579  0.5860
  915MOL0     C20704   5.913   2.105   3.387 -0.3419  0.1251 -0.6912
  915MOL0     C20705   5.910   1.970   3.382  0.1970  0.7995 -0.3975
  915MOL0     O20706   5.791   1.919   3.396 -0.3156  0.0379 -0.4352
  915MOL0     C20707   5.780   1.780   3.437 -0.8326 -1.0564 -0.1018
  915MOL0     C20708   5.658   1.743   3.528  0.0156  0.2074  1.0669
  915MOL0     C20709   5.637   1.828   3.653 -0.0003  0.0458  0.5568
  915MOL0     C20710   5.543   1.772   3.759 -0.5712 -0.7505 -1.0236
  915MOL0     C20711   5.525   1.875   3.867 -0.2861 -0.6360 -0.4873
  915MOL0     C20712   5.511   1.948   3.961  0.8806 -0.6301 -0.0030
  915MOL0     C20713   6.036   1.895   3.363  0.1112  0.0304 -0.2511
  915MOL0     C20714   6.157   1.966   3.369 -1.1824 -0.0012 -0.2401
  915MOL0     H20715   6.570   2.014   3.276  0.9337  0.4012  0.5109
  915MOL0     H20716   6.798   2.106   3.213  0.7360  0.3403  1.1242
  915MOL0     H20717   6.869   2.396   3.109 -0.6131 -0.9689  0.5454
  915MOL0     H20718   6.923   2.225   3.138  1.2993 -1.0404  0.3052
  915MOL0     H20719   7.121   2.339   3.064 -0.1717 -1.7363  0.4724
  915MOL0     H20720   7.128   2.285   3.222  0.1209 -2.2371 -1.8590
  915MOL0     H20721   7.035   2.540   3.269  2.0247 -1.2997  1.6479
  915MOL0     H20722   7.090   2.575   3.102  1.0722  1.4847 -0.3563
  915MOL0     H20723   7.258   2.633   3.295 -1.3300  0.1552  0.8611
  915MOL0     H20724   7.265   2.477   3.346  1.4730  1.7582  1.2589
  915MOL0     H20725   7.340   2.595   3.071  1.5337 -0.8634 -1.0133
  915MOL0     H20726   7.359   2.416   3.106  2.4582 -1.4804  2.5816
  915MOL0     H20727   7.504   2.481   3.297 -2.8293  0.5266  0.6035
  915MOL0     H20728   7.495   2.651   3.260 -0.0498 -0.0526 -0.5922
  915MOL0     H20729   7.596   2.642   3.048  2.3784 -1.3604 -2.7361
  915MOL0     H20730   7.702   2.597   3.183 -0.5064  2.8707 -1.4892
  915MOL0     H20731   7.630   2.425   2.939 -1.8585  3.0340  0.1450
  915MOL0     H20732   7.627   2.353   3.108 -1.4416  1.8376  1.9950
  915MOL0     H20733   7.858   2.605   2.908 -0.7748 -0.4590  0.4783
  915MOL0     H20734   8.201   2.581   3.063 -1.1306  0.8564 -0.1219
  915MOL0     H20735   8.114   2.658   2.930  1.8079  0.0078 -0.8303
  915MOL0     H20736   8.168   2.487   2.772 -1.4890  0.3292  0.5563
  915MOL0     H20737   8.187   2.371   2.888 -3.4545 -0.7413 -3.6136
  915MOL0     H20738   8.384   2.600   2.812 -2.7483  0.1888  0.2286
  915MOL0     H20739   8.397   2.521   2.971  0.8518  1.5827  0.2361
  915MOL0     H20740   8.433   2.369   2.700 -2.4104  0.7485 -1.2065
  915MOL0     H20741   8.404   2.302   2.861  1.4166  1.0181  2.7033
  915MOL0     H20742   8.700   2.297   2.615  1.7469 -0.1188 -1.1582
  915MOL0     H20743   8.812   2.417   2.447 -2.5234 -3.2946  1.1242
  915MOL0     H20744   9.120   2.757   2.321  0.5950  0.3955 -0.1437
  915MOL0     H20745   9.200   2.876   2.103 -1.1138  2.9940 -2.5614
  915MOL0     H20746   8.934   3.057   1.892  1.9804  0.4122  0.5508
  915MOL0     H20747   8.931   2.962   1.741 -0.6677  0.6198  0.9265
  915MOL0     H20748   9.078   3.178   1.729  1.2924  1.2481 -0.2906
  915MOL0     H20749   9.170   3.027   1.696  3.6814  3.1654 -0.0572
  915MOL0     H20750   9.238   3.018   1.933  0.9593 -0.5839 -0.8373
  915MOL0     H20751   9.164   3.181   1.955 -0.4778 -2.2917  1.5222
  915MOL0     H20752   9.360   3.117   1.739 -0.9877 -0.0080  0.5641
  915MOL0     H20753   9.322   3.272   1.805 -5.2835  0.0514 -1.5762
  915MOL0     H20754   9.452   3.050   1.976 -0.4560  0.4417 -0.3808
  915MOL0     H20755   9.414   3.216   2.025 -2.0059  1.2578 -0.8349
  915MOL0     H20756   9.546   3.299   1.838 -1.1612  0.8022  0.3815
  915MOL0     H20757   9.611   3.130   1.813  1.5125  1.0104  0.1702
  915MOL0     H20758   9.631   3.248   2.098  1.2238 -1.3058  1.5863
  915MOL0     H20759   9.698   3.105   2.014  3.2541  0.5534  2.4698
  915MOL0     H20760   9.796   3.381   1.969  4.4991  0.2166  3.0984
  915MOL0     H20761   9.839   3.239   1.877 -0.3462  3.7466 -2.2970
  915MOL0     H20762   8.827   2.795   1.928  0.4263  0.4726  0.5990
  915MOL0     H20763   8.728   2.703   2.137  0.5524  0.4483  0.9802
  915MOL0     H20764   8.800   2.782   2.688 -1.3217  0.8867 -4.4587
  915MOL0     H20765   8.654   2.653   2.859 -1.8166 -2.0158  1.0074
  915MOL0     H20766   6.711   2.440   3.464 -1.3750  1.2037 -1.7188
  915MOL0     H20767   6.484   2.390   3.467 -3.2640 -3.6500  1.8085
  915MOL0     H20768   6.037   2.283   3.398  3.8335  0.0573 -2.0950
  915MOL0     H20769   5.821   2.157   3.413  0.4175  1.1838 -0.0476
  915MOL0     H20770   5.865   1.753   3.500 -1.6123 -1.9146  0.6035
  915MOL0     H20771   5.795   1.713   3.351  1.1676  0.9515 -1.4516
  915MOL0     H20772   5.559   1.749   3.482 -0.1716 -0.0789  1.4224
  915MOL0     H20773   5.671   1.637   3.550 -1.9852 -0.3179 -0.0281
  915MOL0     H20774   5.609   1.928   3.619  3.1578  0.4802 -1.1639
  915MOL0     H20775   5.737   1.827   3.699 -0.3950 -3.9663  1.7053
  915MOL0     H20776   5.451   1.742   3.708 -1.9396 -1.1326  1.5395
  915MOL0     H20777   5.578   1.678   3.802 -0.8379 -1.4395 -2.2648
  915MOL0     H20778   5.493   2.016   4.042 -2.2490  0.3622 -1.3796
  915MOL0     H20779   6.037   1.787   3.356  0.0931  0.0413 -0.4221
  915MOL0     H20780   6.257   1.926   3.371 -0.0547  2.5513 -0.9129
  916MOL0     O20781   2.009   5.246   5.479 -0.0252  0.6385  0.1884
  916MOL0     C20782   2.130   5.238   5.478  0.3536  0.0923 -0.0137
  916MOL0     O20783   2.202   5.254   5.365 -0.3884 -0.0907  0.1965
  916MOL0     C20784   2.133   5.257   5.242 -0.1465  0.3985  0.0754
  916MOL0     C20785   2.100   5.138   5.179  0.0818  0.4591  0.1417
  916MOL0     C20786   2.068   5.139   5.046  0.2732  0.3001  0.2311
  916MOL0     C20787   2.046   5.263   4.974 -0.5735  0.2993  0.2203
  916MOL0     O20788   1.984   5.271   4.851 -0.2306 -0.5060  1.2486
  916MOL0     C20789   1.844   5.228   4.842 -0.0848  0.0836  0.1695
  916MOL0     C20790   1.804   5.171   4.704 -0.3804 -0.3926 -0.0091
  916MOL0     C20791   1.903   5.094   4.619 -0.0197  0.8309 -0.2180
  916MOL0     C20792   1.891   4.941   4.649 -0.5232 -0.4586  0.5196
  916MOL0     C20793   1.984   4.862   4.555  0.5047 -0.2273 -0.2959
  916MOL0     C20794   1.982   4.721   4.615  0.2456  1.0728  0.3230
  916MOL0     C20795   2.069   4.625   4.531  0.1422  0.8385 -0.5919
  916MOL0     C20796   2.120   4.504   4.609  0.1860  0.0012  0.0677
  916MOL0     N20797   2.038   4.381   4.597 -0.2898  0.2010  0.2647
  916MOL0     C20798   1.910   4.368   4.649  0.2978  0.9347 -0.8979
  916MOL0     C20799   1.872   4.250   4.594 -0.2516  0.4859  0.2257
  916MOL0     C20800   1.739   4.182   4.626  0.2450  0.8239  0.8893
  916MOL0     C20801   1.739   4.131   4.776 -0.5127  0.0702  0.2794
  916MOL0     C20802   1.590   4.076   4.820 -1.6162  0.5287  1.2396
  916MOL0     C20803   1.478   4.185   4.824 -1.2687  0.4786  0.0802
  916MOL0     O20804   1.511   4.304   4.906 -0.1600  0.1690  0.1578
  916MOL0     C20805   1.414   4.405   4.927 -0.0572  1.4156 -0.1851
  916MOL0     C20806   1.288   4.397   4.879  0.5038 -0.3338 -0.7176
  916MOL0     C20807   1.199   4.512   4.900  0.8214 -0.7462  0.0274
  916MOL0     C20808   1.232   4.616   4.981 -0.2540  0.0785 -0.4136
  916MOL0     C20809   1.138   4.735   4.985 -0.8388 -0.3703 -0.5803
  916MOL0     O20810   1.201   4.851   5.036  0.3433 -0.3007  0.7338
  916MOL0     C20811   1.129   4.970   5.049  0.5664 -1.0453  0.1621
  916MOL0     C20812   1.192   5.092   5.044  0.1807 -1.2350  0.2802
  916MOL0     C20813   1.127   5.212   5.077 -0.3386 -0.0384 -0.0587
  916MOL0     C20814   0.998   5.218   5.114  0.0329  0.0895  0.4821
  916MOL0     O20815   0.932   5.337   5.136  0.3252 -0.2964 -0.4090
  916MOL0     C20816   0.999   5.459   5.172 -0.6821  0.5436 -0.0142
  916MOL0     C20817   0.891   5.559   5.228  0.4576  0.1257 -0.1579
  916MOL0     C20818   0.928   5.710   5.214 -0.3073 -0.0974 -0.5699
  916MOL0     C20819   0.792   5.788   5.213 -0.1252  0.6840 -0.2729
  916MOL0     C20820   0.796   5.936   5.189  0.3742  0.0195  0.6763
  916MOL0     C20821   0.826   5.988   5.051 -0.3238 -0.1818  0.1346
  916MOL0     C20822   0.714   5.975   4.944 -0.3172  0.7600  0.0394
  916MOL0     C20823   0.597   6.074   4.970 -0.0044 -0.2105 -0.0684
  916MOL0    Cl20824   0.490   6.100   4.820  0.2186 -0.1292 -0.2448
  916MOL0     C20825   0.926   5.093   5.117 -0.0623  0.3983 -0.8439
  916MOL0     C20826   0.991   4.973   5.085 -0.0167 -0.6098 -0.3493
  916MOL0     O20827   1.021   4.730   4.949 -0.1591 -0.0727  0.1059
  916MOL0     C20828   1.364   4.615   5.030 -1.0139 -1.1789 -0.3143
  916MOL0     C20829   1.454   4.517   5.007 -0.3232  0.7276 -0.7358
  916MOL0     N20830   1.971   4.198   4.514 -0.0859 -0.0234  1.2364
  916MOL0     N20831   2.073   4.274   4.518  0.3929 -0.0843  0.6432
  916MOL0     C20832   2.081   5.379   5.043 -0.1163 -0.0900 -0.0113
  916MOL0     C20833   2.120   5.375   5.181  0.1095 -0.4832 -0.3148
  916MOL0     C20834   2.201   5.237   5.604 -1.0043  0.5066  0.1028
  916MOL0     C20835   2.125   5.225   5.723 -0.5505  0.4066 -0.3832
  916MOL0     C20836   2.200   5.203   5.842  0.1603  0.7594 -0.4139
  916MOL0     C20837   2.339   5.198   5.852 -0.8320 -0.6839 -0.7076
  916MOL0     O20838   2.428   5.191   5.960 -0.5215  0.0202 -0.1359
  916MOL0     C20839   2.370   5.226   6.083 -0.3853 -0.2767 -0.0615
  916MOL0     C20840   2.476   5.250   6.196 -0.6883  0.4320 -0.2649
  916MOL0     C20841   2.439   5.369   6.285 -1.1795  1.0572  0.0466
  916MOL0     C20842   2.548   5.383   6.389  0.5473 -0.2954 -0.4563
  916MOL0     C20843   2.531   5.503   6.479  0.9533  0.2678  0.1526
  916MOL0     C20844   2.497   5.585   6.557 -0.7719 -0.3618 -0.1611
  916MOL0     C20845   2.409   5.223   5.736 -0.6908  0.5256 -0.3616
  916MOL0     C20846   2.340   5.237   5.613  0.0675 -0.5174  0.7042
  916MOL0     H20847   2.113   5.051   5.242 -0.6322  1.6679  2.0697
  916MOL0     H20848   2.038   5.053   4.987 -0.9370  1.8180 -1.4969
  916MOL0     H20849   1.771   5.302   4.877  0.4094  1.0449 -0.7532
  916MOL0     H20850   1.837   5.141   4.908  0.7986 -1.4219 -1.6293
  916MOL0     H20851   1.777   5.263   4.651 -0.0029 -0.2891 -0.0228
  916MOL0     H20852   1.708   5.118   4.710 -1.5515  1.7464  1.5168
  916MOL0     H20853   1.996   5.145   4.647 -1.1337  1.4341  2.7278
  916MOL0     H20854   1.884   5.097   4.512 -1.8993 -1.8473 -0.0519
  916MOL0     H20855   1.932   4.920   4.749  0.0581 -0.6213  0.2547
  916MOL0     H20856   1.786   4.917   4.630 -0.5675 -1.3522  1.7456
  916MOL0     H20857   2.079   4.913   4.543  0.2077  0.2288 -0.7315
  916MOL0     H20858   1.943   4.858   4.454  1.5261  0.4277 -0.7391
  916MOL0     H20859   1.882   4.679   4.603  1.3832 -1.4830 -1.0508
  916MOL0     H20860   2.012   4.721   4.720  0.6176 -0.4819  0.2477
  916MOL0     H20861   2.001   4.584   4.455 -0.9242  4.0266 -1.5719
  916MOL0     H20862   2.158   4.669   4.485  1.5926 -1.7698 -0.4415
  916MOL0     H20863   2.132   4.536   4.713  0.9685  1.9803 -0.5720
  916MOL0     H20864   2.220   4.476   4.575  1.0357 -1.3769  3.3146
  916MOL0     H20865   1.846   4.426   4.715 -1.4231 -4.2181  2.6436
  916MOL0     H20866   1.724   4.102   4.553 -0.2410  2.5191 -0.9337
  916MOL0     H20867   1.658   4.254   4.615 -1.0485 -0.4744  1.4596
  916MOL0     H20868   1.760   4.213   4.845  2.6913 -0.9103  0.6086
  916MOL0     H20869   1.812   4.051   4.785 -3.0874 -2.5708 -0.6030
  916MOL0     H20870   1.557   4.001   4.747  0.4332 -0.1234  0.8961
  916MOL0     H20871   1.609   4.023   4.914  1.3969  3.1299  2.3003
  916MOL0     H20872   1.390   4.139   4.869 -0.2448  0.4967  2.1925
  916MOL0     H20873   1.456   4.214   4.720  0.8063 -0.6367 -0.7416
  916MOL0     H20874   1.252   4.306   4.832 -1.9560 -0.1986  0.7078
  916MOL0     H20875   1.106   4.506   4.843 -0.2681 -0.5392  1.7116
  916MOL0     H20876   1.295   5.088   5.012 -0.9541 -4.3464 -3.9443
  916MOL0     H20877   1.198   5.294   5.074  0.1299 -0.4619 -0.9036
  916MOL0     H20878   1.049   5.500   5.084  0.9160  0.3457  0.7596
  916MOL0     H20879   1.071   5.446   5.253 -0.3515  1.6584 -0.1112
  916MOL0     H20880   0.855   5.530   5.327 -0.8706 -0.4823 -0.7963
  916MOL0     H20881   0.810   5.536   5.158  0.6389 -0.5490 -0.1499
  916MOL0     H20882   0.976   5.734   5.118 -0.8259 -0.6695 -0.9736
  916MOL0     H20883   0.998   5.727   5.297  1.7248 -0.1725 -2.1901
  916MOL0     H20884   0.735   5.752   5.128  1.7977  1.7239 -2.1024
  916MOL0     H20885   0.733   5.766   5.303 -0.2202 -0.6113 -0.6401
  916MOL0     H20886   0.869   5.982   5.256  0.5926 -0.8685  1.0516
  916MOL0     H20887   0.699   5.984   5.209 -0.4743 -1.2062 -0.3385
  916MOL0     H20888   0.917   5.938   5.016  0.6138  0.6721  1.2840
  916MOL0     H20889   0.853   6.094   5.052  1.2454 -0.5455  2.1186
  916MOL0     H20890   0.760   5.998   4.847  0.2744 -1.0780 -0.1605
  916MOL0     H20891   0.671   5.875   4.955  2.6493 -0.5672  0.5912
  916MOL0     H20892   0.644   6.167   5.005 -0.2711 -0.7593  1.9032
  916MOL0     H20893   0.538   6.037   5.055 -1.5193  2.9308  0.4039
  916MOL0     H20894   0.823   5.085   5.150  0.1594 -2.3507 -0.5861
  916MOL0     H20895   0.937   4.881   5.105 -2.0398  0.3234 -1.2678
  916MOL0     H20896   1.394   4.694   5.097 -0.9490  0.4816 -2.1986
  916MOL0     H20897   1.554   4.509   5.047  0.6918  1.1374 -3.0069
  916MOL0     H20898   2.060   5.471   4.989  0.1785  0.9307  1.5260
  916MOL0     H20899   2.163   5.468   5.219  1.3536 -0.9722 -0.4960
  916MOL0     H20900   2.018   5.242   5.730 -1.4263 -3.5605 -1.6589
  916MOL0     H20901   2.134   5.188   5.927  3.2167  0.2059  2.0559
  916MOL0     H20902   2.300   5.146   6.111  0.8600 -0.8132  1.6625
  916MOL0     H20903   2.314   5.320   6.074  0.0653  0.1967  1.7123
  916MOL0     H20904   2.477   5.153   6.247  0.0006  0.7369  0.3284
  916MOL0     H20905   2.576   5.269   6.155  0.5175 -1.0294  1.8202
  916MOL0     H20906   2.339   5.356   6.327 -1.4834  3.3236  0.1558
  916MOL0     H20907   2.438   5.453   6.215  1.7451  0.3676 -0.9613
  916MOL0     H20908   2.546   5.301   6.461  1.0926  0.0240 -0.0691
  916MOL0     H20909   2.644   5.395   6.337  1.5136  1.6721  1.6034
  916MOL0     H20910   2.460   5.662   6.623 -0.2837  0.2226 -0.5551
  916MOL0     H20911   2.517   5.217   5.725 -0.3787  1.9399  1.5032
  916MOL0     H20912   2.413   5.256   5.535  1.2254 -1.0754  1.6199
  917MOL0     O20913   7.832   0.497   0.088  0.7209 -0.0669  0.2390
  917MOL0     C20914   7.917   0.413   0.100  0.1354 -0.5834  0.2966
  917MOL0     O20915   7.902   0.285   0.162  0.3193 -0.1560  0.6288
  917MOL0     C20916   7.798   0.279   0.239  1.3752 -0.0133 -0.3539
  917MOL0     C20917   7.721   0.160   0.223 -0.4177  0.6664 -0.1938
  917MOL0     C20918   7.611   0.130   0.299 -0.2002 -0.0559  0.7501
  917MOL0     C20919   7.566   0.223   0.397  0.2131  0.0384 -0.0187
  917MOL0     O20920   7.465   0.203   0.486 -0.0542 -0.0445  0.5510
  917MOL0     C20921   7.340   0.150   0.423 -0.1042  0.2366  0.2217
  917MOL0     C20922   7.210   0.194   0.497  0.1430  0.7631 -0.4273
  917MOL0     C20923   7.087   0.144   0.420 -0.1476 -0.3377  0.1128
  917MOL0     C20924   6.967   0.176   0.507  1.0850 -0.4514 -0.1770
  917MOL0     C20925   6.830   0.113   0.459 -0.6364 -1.1675  0.1279
  917MOL0     C20926   6.715   0.113   0.559  0.1571 -0.5377 -0.0354
  917MOL0     C20927   6.595   0.025   0.507  0.4603 -0.1603  0.1137
  917MOL0     C20928   6.486   0.117   0.438  1.0291  0.3016 -0.3475
  917MOL0     N20929   6.392   0.193   0.530 -0.2922  0.3637  0.0953
  917MOL0     C20930   6.265   0.150   0.571  0.8241 -0.1750 -0.2654
  917MOL0     C20931   6.222   0.265   0.644  0.8446 -0.5713 -0.0985
  917MOL0     C20932   6.088   0.296   0.696 -0.0394  0.2628  0.9801
  917MOL0     C20933   6.094   0.270   0.848 -1.0173 -0.3356 -0.3047
  917MOL0     C20934   5.954   0.258   0.901  0.0393  0.4795  0.4165
  917MOL0     C20935   5.947   0.230   1.050  0.3543 -0.5383 -0.5174
  917MOL0     O20936   6.018   0.114   1.081 -0.4435 -0.0854 -0.4846
  917MOL0     C20937   6.015   0.067   1.212  1.3288  0.1949  0.6584
  917MOL0     C20938   6.061  -0.059   1.225  0.6603  0.6052  0.3999
  917MOL0     C20939   6.050  -0.132   1.344  0.1706 -1.2165 -0.1869
  917MOL0     C20940   5.987  -0.076   1.456 -0.0241 -0.4075 -0.7187
  917MOL0     C20941   5.967  -0.156   1.580 -0.0334  0.3578 -1.1691
  917MOL0     O20942   5.874  -0.130   1.667  0.1082 -0.5703 -0.4408
  917MOL0     C20943   5.824  -0.222   1.763  0.2592 -0.5856 -0.4304
  917MOL0     C20944   5.738  -0.170   1.862  0.0283 -1.0623  0.5514
  917MOL0     C20945   5.671  -0.249   1.957  0.0793  1.6045 -0.3368
  917MOL0     C20946   5.683  -0.390   1.944  0.5781 -1.2870  1.0437
  917MOL0     O20947   5.605  -0.458   2.029 -0.7419  0.4762  0.0954
  917MOL0     C20948   5.514  -0.554   1.974  0.3964  0.1402 -0.4975
  917MOL0     C20949   5.381  -0.534   2.034 -0.2476  0.7283 -1.6411
  917MOL0     C20950   5.306  -0.398   2.011  0.2142  0.9734 -0.6748
  917MOL0     C20951   5.177  -0.398   2.104 -0.8279  0.9078  0.0141
  917MOL0     C20952   5.090  -0.274   2.086  0.0841 -0.0635  0.3965
  917MOL0     C20953   4.946  -0.287   2.144  0.5695 -0.5909 -0.3225
  917MOL0     C20954   4.863  -0.159   2.115 -0.2088  0.7830  0.1960
  917MOL0     C20955   4.897  -0.045   2.210 -0.2337  0.4700  0.3049
  917MOL0    Cl20956   4.783   0.099   2.176 -0.3419  0.4004 -0.4034
  917MOL0     C20957   5.757  -0.451   1.844 -0.2181  0.4150 -1.1292
  917MOL0     C20958   5.825  -0.364   1.755  0.3048  0.0332 -0.1968
  917MOL0     O20959   6.048  -0.247   1.588  0.2279  0.8572 -0.2783
  917MOL0     C20960   5.939   0.058   1.449  0.5496 -0.0549  0.1655
  917MOL0     C20961   5.957   0.134   1.326  0.2142 -0.1668 -0.7907
  917MOL0     N20962   6.322   0.354   0.658  0.2541 -0.4865  0.4226
  917MOL0     N20963   6.425   0.315   0.586 -0.2175 -0.4890 -0.5461
  917MOL0     C20964   7.635   0.342   0.411 -1.0988 -0.1320 -0.3858
  917MOL0     C20965   7.750   0.373   0.344 -1.2889  0.3073  0.1589
  917MOL0     C20966   8.051   0.462   0.050 -0.6548  0.3546 -0.6653
  917MOL0     C20967   8.068   0.596   0.004 -0.3456 -0.4069  0.2183
  917MOL0     C20968   8.188   0.623  -0.053 -0.3244 -0.4509  0.9813
  917MOL0     C20969   8.290   0.534  -0.048 -0.5717  0.7087  0.1574
  917MOL0     O20970   8.411   0.568  -0.100 -0.4997 -0.3546  0.9581
  917MOL0     C20971   8.544   0.520  -0.061  0.2592 -0.5667 -0.1831
  917MOL0     C20972   8.644   0.615  -0.126  0.6934 -0.4730  0.0025
  917MOL0     C20973   8.783   0.568  -0.115 -0.5896  0.5257  0.8969
  917MOL0     C20974   8.858   0.558   0.014  0.3300  0.1097  0.9741
  917MOL0     C20975   8.999   0.517  -0.028 -0.3310  0.0904 -0.9709
  917MOL0     C20976   9.124   0.485  -0.044  0.9644  0.4366 -0.0126
  917MOL0     C20977   8.281   0.415   0.026  0.4562  0.4205  0.9849
  917MOL0     C20978   8.153   0.372   0.060 -0.0978  0.0240  0.4336
  917MOL0     H20979   7.756   0.096   0.143  0.2941  4.1379 -2.9067
  917MOL0     H20980   7.570   0.030   0.297 -0.9964  0.0506  4.3347
  917MOL0     H20981   7.351   0.042   0.434  0.0889  0.3035  0.7244
  917MOL0     H20982   7.343   0.183   0.319  2.1557  0.0504  0.1849
  917MOL0     H20983   7.204   0.302   0.484  2.5781  0.9894 -0.2411
  917MOL0     H20984   7.203   0.166   0.603 -2.7345  1.9119 -0.2329
  917MOL0     H20985   7.096   0.037   0.400  1.2497 -0.0859 -0.7558
  917MOL0     H20986   7.080   0.196   0.324  1.9165 -1.6229 -0.7883
  917MOL0     H20987   6.972   0.130   0.606  0.4652  1.9578  1.0226
  917MOL0     H20988   6.955   0.284   0.515 -1.6912 -0.5526 -1.9410
  917MOL0     H20989   6.855   0.009   0.437  1.1663 -0.4489 -1.5549
  917MOL0     H20990   6.782   0.178   0.385  3.1527  3.0497  0.9254
  917MOL0     H20991   6.678   0.215   0.567  0.0807 -0.3468 -2.2240
  917MOL0     H20992   6.736   0.068   0.657  3.6779  0.4983 -0.1524
  917MOL0     H20993   6.622  -0.050   0.432 -1.8701  0.5249 -1.5469
  917MOL0     H20994   6.551  -0.028   0.592 -0.1059  0.8042  0.4364
  917MOL0     H20995   6.409   0.060   0.386  1.9430 -0.1641 -1.2336
  917MOL0     H20996   6.532   0.189   0.370  1.6054 -0.7021 -1.0573
  917MOL0     H20997   6.201   0.064   0.557  0.6627  0.3040 -3.1609
  917MOL0     H20998   6.022   0.227   0.643 -1.4756 -0.0026  2.9734
  917MOL0     H20999   6.058   0.401   0.689  0.2668  0.4619  2.2841
  917MOL0     H21000   6.143   0.361   0.885 -3.7181  0.6795  1.0338
  917MOL0     H21001   6.139   0.173   0.871 -2.6650 -1.1685 -0.4617
  917MOL0     H21002   5.904   0.352   0.877  1.7346  1.0274 -1.1935
  917MOL0     H21003   5.896   0.183   0.846 -2.0995  2.6675 -0.4792
  917MOL0     H21004   5.844   0.204   1.075  1.4152 -1.8957  2.9416
  917MOL0     H21005   5.981   0.315   1.109  1.4604  0.6658 -2.7491
  917MOL0     H21006   6.105  -0.110   1.140 -0.2472 -1.8756  1.3101
  917MOL0     H21007   6.095  -0.230   1.352  0.8827 -0.9705 -0.9985
  917MOL0     H21008   5.734  -0.062   1.872  0.6283 -0.9237 -0.5511
  917MOL0     H21009   5.618  -0.201   2.038 -2.2006 -0.4483 -0.5043
  917MOL0     H21010   5.547  -0.656   1.997 -3.0445 -0.6511  1.6540
  917MOL0     H21011   5.502  -0.534   1.867  1.6053  1.1368 -0.4657
  917MOL0     H21012   5.399  -0.543   2.141  2.1392 -2.0836 -2.1225
  917MOL0     H21013   5.317  -0.621   2.013 -0.4183  0.7461 -1.2065
  917MOL0     H21014   5.278  -0.399   1.906  1.1849 -0.2859 -0.9547
  917MOL0     H21015   5.375  -0.314   2.024 -0.9545  1.4658  4.2701
  917MOL0     H21016   5.119  -0.485   2.073 -0.6019  0.7323  0.0784
  917MOL0     H21017   5.210  -0.419   2.206  1.6609 -2.9113 -1.3636
  917MOL0     H21018   5.072  -0.258   1.979 -1.2328 -2.5588  0.1795
  917MOL0     H21019   5.151  -0.193   2.127  2.0068  0.6485 -3.4067
  917MOL0     H21020   4.947  -0.304   2.252  0.1289 -0.3022 -0.2666
  917MOL0     H21021   4.884  -0.373   2.116 -1.3956  0.0702  1.6667
  917MOL0     H21022   4.842  -0.131   2.012  0.7568 -0.6547 -0.4207
  917MOL0     H21023   4.764  -0.186   2.154 -0.3291  1.3689  0.3138
  917MOL0     H21024   4.993  -0.002   2.179 -1.0700  0.5174 -2.5493
  917MOL0     H21025   4.897  -0.075   2.315  3.5390  0.4402  0.4272
  917MOL0     H21026   5.752  -0.559   1.832  1.1415  0.4597 -2.3695
  917MOL0     H21027   5.879  -0.410   1.673 -1.6695 -0.0448 -1.5407
  917MOL0     H21028   5.897   0.094   1.543 -0.0135 -0.8395  0.2177
  917MOL0     H21029   5.930   0.236   1.301  2.5865  1.6685  3.1581
  917MOL0     H21030   7.596   0.422   0.472  2.9905  4.1570 -2.7643
  917MOL0     H21031   7.803   0.467   0.355  1.1092 -0.9761  0.1552
  917MOL0     H21032   7.992   0.672  -0.011 -0.3604 -0.4832 -0.1038
  917MOL0     H21033   8.200   0.723  -0.096  0.6613 -1.0970 -0.3152
  917MOL0     H21034   8.563   0.416  -0.090 -1.4923 -1.1348  0.5522
  917MOL0     H21035   8.548   0.520   0.049  0.5247  2.5799 -0.1156
  917MOL0     H21036   8.612   0.619  -0.231 -0.1317 -2.1928  0.1522
  917MOL0     H21037   8.629   0.709  -0.073 -0.6696 -1.5210  1.5664
  917MOL0     H21038   8.842   0.640  -0.172  0.7565 -0.8600  0.4641
  917MOL0     H21039   8.789   0.468  -0.159 -2.3144 -0.8004  3.4197
  917MOL0     H21040   8.856   0.654   0.067  0.6275  1.2595 -1.0289
  917MOL0     H21041   8.807   0.490   0.084  0.5629  1.1564  2.2079
  917MOL0     H21042   9.228   0.475  -0.064  0.9866 -0.2360  0.4018
  917MOL0     H21043   8.372   0.357   0.031  1.9891  1.7420 -4.5628
  917MOL0     H21044   8.134   0.269   0.088  2.0206 -0.4128  0.4073
  918MOL0     O21045   0.868   1.483   7.568 -0.2306 -0.5672  0.2717
  918MOL0     C21046   0.968   1.503   7.631  0.0478 -0.4866  0.0395
  918MOL0     O21047   1.018   1.435   7.742 -0.2518  0.0642  0.3239
  918MOL0     C21048   0.960   1.311   7.776 -0.5823  0.3808  0.1398
  918MOL0     C21049   1.045   1.226   7.838 -0.2086  0.1343 -0.8840
  918MOL0     C21050   1.003   1.112   7.896  0.1731  0.0211  0.8829
  918MOL0     C21051   0.873   1.058   7.878  0.0629 -0.2881 -0.8580
  918MOL0     O21052   0.819   0.943   7.934  0.6104  0.4322  0.2142
  918MOL0     C21053   0.919   0.864   8.003  0.0740 -0.2071 -0.2423
  918MOL0     C21054   0.853   0.732   8.054 -0.6873  0.0881  0.4804
  918MOL0     C21055   0.960   0.645   8.126  0.2464 -0.1603  0.4074
  918MOL0     C21056   0.915   0.506   8.150  0.5944  0.7116  0.0701
  918MOL0     C21057   1.015   0.441   8.249  1.1026 -0.1950  0.5465
  918MOL0     C21058   0.991   0.292   8.253 -0.3542  0.4442 -1.0418
  918MOL0     C21059   1.084   0.231   8.370  0.6198  0.7766 -0.0325
  918MOL0     C21060   1.133   0.097   8.332  0.0468  0.5496 -0.5132
  918MOL0     N21061   1.029  -0.008   8.341 -1.0132  0.0909 -1.1163
  918MOL0     C21062   0.947  -0.040   8.247  0.1419  0.3516 -1.0681
  918MOL0     C21063   0.898  -0.164   8.278  0.4317  0.4344 -0.7493
  918MOL0     C21064   0.796  -0.251   8.213 -0.4724 -0.0021  0.6556
  918MOL0     C21065   0.879  -0.322   8.103  0.2236 -0.0688 -1.2970
  918MOL0     C21066   0.804  -0.377   7.981 -0.1177  1.3528  0.0857
  918MOL0     C21067   0.724  -0.493   8.015 -0.7412  0.7709  0.1518
  918MOL0     O21068   0.618  -0.429   8.098  0.4607  0.4573 -0.1013
  918MOL0     C21069   0.524  -0.511   8.149 -0.3342 -0.8928  0.0330
  918MOL0     C21070   0.527  -0.656   8.153 -0.4411 -0.7495 -0.3141
  918MOL0     C21071   0.423  -0.735   8.219  0.0575  0.6166 -0.2139
  918MOL0     C21072   0.315  -0.674   8.281  0.0122 -0.2702 -0.3295
  918MOL0     C21073   0.204  -0.753   8.345 -1.2910 -0.4066  0.8894
  918MOL0     O21074   0.198  -0.894   8.331 -0.3888  0.0418 -0.4632
  918MOL0     C21075   0.127  -0.964   8.421  1.2228 -0.1923  0.4503
  918MOL0     C21076   0.116  -0.933   8.563 -0.4852  0.3731 -0.6011
  918MOL0     C21077   0.053  -1.015   8.657  0.0549 -0.6741  0.0031
  918MOL0     C21078  -0.008  -1.135   8.616  0.2693 -0.1754  0.9551
  918MOL0     O21079  -0.066  -1.227   8.691 -0.0320  0.4916 -0.5261
  918MOL0     C21080   0.014  -1.306   8.781  0.2478 -0.3528 -0.3483
  918MOL0     C21081  -0.071  -1.316   8.906  0.1448  0.0459 -0.4776
  918MOL0     C21082   0.007  -1.391   9.010 -0.0538  0.3581  0.4658
  918MOL0     C21083  -0.041  -1.388   9.151 -0.2427 -0.0412 -0.7357
  918MOL0     C21084  -0.178  -1.446   9.167  0.2506  0.8882 -0.6800
  918MOL0     C21085  -0.185  -1.473   9.325 -0.2488 -0.1661  0.0490
  918MOL0     C21086  -0.322  -1.461   9.379  0.1788  0.3509  0.9914
  918MOL0     C21087  -0.348  -1.545   9.500  0.7004  0.3182  0.1701
  918MOL0    Cl21088  -0.295  -1.716   9.482 -0.7555 -0.3708 -0.1460
  918MOL0     C21089   0.001  -1.164   8.482 -0.9017  0.9798  0.5401
  918MOL0     C21090   0.070  -1.083   8.389  0.5607  0.4025 -0.3521
  918MOL0     O21091   0.124  -0.684   8.412 -0.4118  0.0816 -0.6957
  918MOL0     C21092   0.311  -0.526   8.275  0.7259  0.2145  0.1971
  918MOL0     C21093   0.416  -0.450   8.226 -0.4785  0.0628 -0.3276
  918MOL0     N21094   0.958  -0.207   8.393  0.5995  0.3687 -0.3368
  918MOL0     N21095   1.037  -0.112   8.429  0.1991 -0.0057 -0.8442
  918MOL0     C21096   0.787   1.146   7.803 -0.2203  0.1754 -0.4008
  918MOL0     C21097   0.832   1.263   7.743 -0.6971  0.4903 -0.6885
  918MOL0     C21098   1.037   1.634   7.605  0.5568 -0.7892  0.0862
  918MOL0     C21099   1.146   1.687   7.681 -0.4750  0.8153  0.5021
  918MOL0     C21100   1.197   1.819   7.652  1.0306 -0.4785  0.2011
  918MOL0     C21101   1.147   1.909   7.554 -0.0062  0.8073  0.2660
  918MOL0     O21102   1.213   2.023   7.529  0.2820  0.7244 -1.2560
  918MOL0     C21103   1.254   2.042   7.393 -0.1958  0.3513  0.2746
  918MOL0     C21104   1.354   2.161   7.379 -0.1175  0.3291  0.6882
  918MOL0     C21105   1.475   2.159   7.476  0.1717  0.4773 -0.3411
  918MOL0     C21106   1.533   2.013   7.486 -1.5000  0.0750  0.3530
  918MOL0     C21107   1.572   1.957   7.348  0.4094  0.8610  0.6052
  918MOL0     C21108   1.615   1.910   7.243 -0.3554  0.2610  0.2091
  918MOL0     C21109   1.032   1.865   7.492 -0.0651  0.5172 -0.4220
  918MOL0     C21110   0.976   1.732   7.516 -0.3136 -0.5134  0.2985
  918MOL0     H21111   1.151   1.247   7.849 -0.8995  3.1392  1.5051
  918MOL0     H21112   1.079   1.058   7.951 -1.6523 -3.8384 -0.0289
  918MOL0     H21113   0.962   0.920   8.087  2.0288 -2.1041  0.1159
  918MOL0     H21114   1.003   0.828   7.944 -0.0318 -1.8091  0.5132
  918MOL0     H21115   0.820   0.676   7.966 -0.5206 -2.8681  2.1696
  918MOL0     H21116   0.774   0.763   8.123  0.0605  0.7046  1.0724
  918MOL0     H21117   0.984   0.694   8.221 -0.8135 -2.2815  1.8453
  918MOL0     H21118   1.057   0.640   8.075 -0.2924  1.3302 -0.8230
  918MOL0     H21119   0.813   0.512   8.189 -0.1398  0.9162 -1.8174
  918MOL0     H21120   0.916   0.456   8.053  2.1245  1.1290 -0.1527
  918MOL0     H21121   0.983   0.494   8.339  0.2997  1.1309 -0.4806
  918MOL0     H21122   1.121   0.460   8.229  1.1728 -2.1968 -1.3886
  918MOL0     H21123   1.018   0.255   8.154  1.4634  2.0731 -1.2116
  918MOL0     H21124   0.886   0.273   8.279  0.0581 -2.7951 -1.3845
  918MOL0     H21125   1.177   0.289   8.373  2.6724 -1.7489 -4.4459
  918MOL0     H21126   1.035   0.227   8.467  1.6610 -0.0557  0.4845
  918MOL0     H21127   1.214   0.062   8.397  0.0578  1.3715 -0.0642
  918MOL0     H21128   1.167   0.112   8.229 -3.2347  1.3519 -1.5897
  918MOL0     H21129   0.919   0.011   8.155  3.1546  1.1902 -1.6048
  918MOL0     H21130   0.712  -0.189   8.182  0.3942  1.8936  1.8640
  918MOL0     H21131   0.768  -0.321   8.292 -0.2062  0.7218  1.4193
  918MOL0     H21132   0.940  -0.395   8.157 -0.3544  0.0276 -0.4987
  918MOL0     H21133   0.955  -0.253   8.065  1.0012  0.0445  0.3708
  918MOL0     H21134   0.755  -0.291   7.936 -1.8063  0.7664  0.7371
  918MOL0     H21135   0.867  -0.417   7.901 -3.1738 -0.5147 -1.5781
  918MOL0     H21136   0.782  -0.565   8.073 -1.3452  0.6480  0.6101
  918MOL0     H21137   0.697  -0.537   7.918  1.4185 -0.1943 -0.0743
  918MOL0     H21138   0.609  -0.709   8.106  1.3138  0.7985  0.8839
  918MOL0     H21139   0.433  -0.843   8.216 -0.1415  0.5564  0.7386
  918MOL0     H21140   0.156  -0.837   8.595  1.0649  0.4981 -2.7235
  918MOL0     H21141   0.060  -0.983   8.761 -1.1630  1.8976 -0.6277
  918MOL0     H21142   0.115  -1.266   8.795  0.0267 -0.5814  2.4176
  918MOL0     H21143   0.013  -1.409   8.745 -1.2333 -0.4316 -0.1372
  918MOL0     H21144  -0.166  -1.365   8.880  0.6652 -0.6987 -1.0086
  918MOL0     H21145  -0.099  -1.215   8.936  1.0852  1.0261 -2.7191
  918MOL0     H21146   0.113  -1.363   9.006  0.6224 -2.0939 -1.7211
  918MOL0     H21147   0.008  -1.495   8.975 -0.9091  0.8315 -1.0841
  918MOL0     H21148   0.031  -1.446   9.209 -1.4808 -1.7697 -0.8424
  918MOL0     H21149  -0.039  -1.290   9.200  1.9722 -1.1605  1.6546
  918MOL0     H21150  -0.186  -1.541   9.114  3.1620 -0.9947  1.8742
  918MOL0     H21151  -0.253  -1.373   9.135 -0.8293  1.6721  3.1829
  918MOL0     H21152  -0.124  -1.402   9.381  4.2501 -0.0421 -4.3026
  918MOL0     H21153  -0.129  -1.564   9.350 -0.5475 -0.3712 -0.0194
  918MOL0     H21154  -0.348  -1.359   9.409 -1.7678  0.0737  0.4007
  918MOL0     H21155  -0.395  -1.499   9.306  1.7803 -2.3682  0.6670
  918MOL0     H21156  -0.454  -1.555   9.526  0.9720 -2.5035  0.5740
  918MOL0     H21157  -0.291  -1.495   9.580  1.3175 -0.4432  0.2166
  918MOL0     H21158  -0.035  -1.263   8.457  1.8733  0.5166 -2.2176
  918MOL0     H21159   0.079  -1.119   8.286  0.8321  1.2680 -0.6389
  918MOL0     H21160   0.218  -0.482   8.308 -0.3720  1.8613 -4.2634
  918MOL0     H21161   0.424  -0.343   8.243 -3.0660 -0.1557  3.4928
  918MOL0     H21162   0.687   1.119   7.772 -0.0491  0.6812 -1.4622
  918MOL0     H21163   0.760   1.329   7.696  1.4163  0.8785 -3.6970
  918MOL0     H21164   1.196   1.619   7.749 -1.4640 -0.0674  0.3709
  918MOL0     H21165   1.289   1.847   7.703  2.7767 -1.1901 -2.4107
  918MOL0     H21166   1.164   2.063   7.333 -1.2040  0.6847  1.8353
  918MOL0     H21167   1.300   1.952   7.351 -2.0589 -0.0218 -1.1152
  918MOL0     H21168   1.394   2.175   7.278 -0.3850 -0.2707  0.4931
  918MOL0     H21169   1.305   2.255   7.404  1.1271  0.9136  1.0021
  918MOL0     H21170   1.447   2.197   7.575 -1.6386 -2.0038  0.2154
  918MOL0     H21171   1.544   2.234   7.439  1.5605 -2.3598 -4.0796
  918MOL0     H21172   1.618   2.015   7.554 -1.8441  2.0988  0.7870
  918MOL0     H21173   1.474   1.935   7.535  0.3774 -0.8142  1.2975
  918MOL0     H21174   1.661   1.876   7.153 -0.9279  3.4697 -1.4390
  918MOL0     H21175   0.981   1.926   7.418 -1.7333 -0.2446  0.0684
  918MOL0     H21176   0.895   1.701   7.451  0.6323 -0.1226 -1.1012
  919MOL0     O21177  10.583   0.194  10.703  0.3653  0.4846 -0.3080
  919MOL0     C21178  10.620   0.085  10.753 -0.0993 -0.5257 -0.0575
  919MOL0     O21179  10.678  -0.020  10.684 -0.5228 -0.2261 -0.2130
  919MOL0     C21180  10.690  -0.002  10.547 -0.0972  0.5153  0.1423
  919MOL0     C21181  10.578  -0.023  10.471  0.4219  0.0080 -0.3817
  919MOL0     C21182  10.589  -0.032  10.328  0.6051 -0.3892 -1.0595
  919MOL0     C21183  10.720  -0.015  10.276 -0.1818 -0.7041  0.3464
  919MOL0     O21184  10.742  -0.056  10.149 -0.5669  0.1990 -0.0192
  919MOL0     C21185  10.814  -0.178  10.147  0.0818 -0.0372  0.7646
  919MOL0     C21186  10.759  -0.258  10.034 -0.0990 -0.0867 -0.5837
  919MOL0     C21187  10.809  -0.211   9.895 -0.0824 -0.2105 -0.0353
  919MOL0     C21188  10.963  -0.227   9.867  0.3156  0.3615  0.3756
  919MOL0     C21189  11.024  -0.364   9.855  0.5854 -0.5537 -0.1049
  919MOL0     C21190  11.171  -0.363   9.814 -0.9991 -0.9078  0.0588
  919MOL0     C21191  11.176  -0.345   9.658 -0.1969  0.1649 -0.7064
  919MOL0     C21192  11.166  -0.485   9.591 -0.9295  0.2945 -0.4910
  919MOL0     N21193  11.105  -0.478   9.460 -0.5398  0.3052  0.2252
  919MOL0     C21194  11.160  -0.434   9.338 -0.0086 -0.4958 -0.1441
  919MOL0     C21195  11.059  -0.455   9.245  1.1325 -0.4976 -1.2236
  919MOL0     C21196  11.068  -0.423   9.103 -0.2157 -0.6391  0.6829
  919MOL0     C21197  11.128  -0.283   9.071  0.2414  0.5260 -0.3249
  919MOL0     C21198  11.097  -0.219   8.936  0.1147 -0.2315 -0.4880
  919MOL0     C21199  11.179  -0.094   8.905  0.1135 -0.5710  0.7646
  919MOL0     O21200  11.215  -0.108   8.767 -0.3281 -0.7581  0.2075
  919MOL0     C21201  11.285   0.004   8.720 -0.4878  0.6700 -0.4567
  919MOL0     C21202  11.351  -0.012   8.601 -0.6174 -0.3395  0.3810
  919MOL0     C21203  11.421   0.092   8.542 -0.6153  0.8993  0.9284
  919MOL0     C21204  11.430   0.219   8.604 -0.3308 -0.1207  0.0306
  919MOL0     C21205  11.484   0.337   8.536  0.3444 -0.4321  0.2910
  919MOL0     O21206  11.550   0.310   8.421  0.3433  0.0530  0.4321
  919MOL0     C21207  11.651   0.404   8.386  0.0285  0.6428 -0.1123
  919MOL0     C21208  11.611   0.533   8.341  0.3388 -0.3177  0.5220
  919MOL0     C21209  11.706   0.628   8.317  0.2080 -0.3438  0.4978
  919MOL0     C21210  11.846   0.593   8.312 -0.9296  0.0792  1.2812
  919MOL0     O21211  11.952   0.674   8.261  0.2654  0.8864  0.3896
  919MOL0     C21212  11.921   0.802   8.207 -0.3956  0.4085  0.7555
  919MOL0     C21213  11.868   0.783   8.058 -0.2790 -0.2978  0.6255
  919MOL0     C21214  11.836   0.907   7.976 -1.8610 -0.4893  0.3497
  919MOL0     C21215  11.715   0.986   8.037  0.4619 -0.5403 -0.0761
  919MOL0     C21216  11.709   1.140   8.003 -0.0463  0.5612  0.2160
  919MOL0     C21217  11.688   1.171   7.856  0.1939 -0.5644  0.2279
  919MOL0     C21218  11.666   1.318   7.854 -0.4441 -0.3454  0.4892
  919MOL0     C21219  11.588   1.344   7.720 -0.5224  0.0234 -0.5278
  919MOL0    Cl21220  11.688   1.339   7.573 -0.2084 -0.0523 -0.0473
  919MOL0     C21221  11.883   0.464   8.345 -1.1341  0.2103  0.6344
  919MOL0     C21222  11.788   0.369   8.385 -0.4224  0.5984  1.5759
  919MOL0     O21223  11.466   0.449   8.588 -0.3206  0.6892 -0.0867
  919MOL0     C21224  11.372   0.226   8.728 -0.7694 -0.3217 -0.2215
  919MOL0     C21225  11.294   0.126   8.787  0.7796  0.2294  0.5638
  919MOL0     N21226  10.953  -0.512   9.313 -0.0173  0.0548  0.3171
  919MOL0     N21227  10.990  -0.537   9.435  0.0258 -0.1493  0.6598
  919MOL0     C21228  10.831   0.010  10.354  0.0767 -0.5534  1.2044
  919MOL0     C21229  10.820   0.003  10.489  0.0078 -0.4782 -0.0134
  919MOL0     C21230  10.598   0.063  10.897 -0.2717 -0.9859  0.1136
  919MOL0     C21231  10.630  -0.063  10.952 -0.4768 -0.5250 -0.3802
  919MOL0     C21232  10.604  -0.087  11.085 -0.5123  0.1975  0.5766
  919MOL0     C21233  10.529   0.002  11.157 -0.4176  0.3366  0.4999
  919MOL0     O21234  10.488  -0.040  11.283 -0.5425  0.0483  0.1575
  919MOL0     C21235  10.368  -0.122  11.276 -0.1264 -0.1417 -0.2522
  919MOL0     C21236  10.393  -0.270  11.321 -0.4707 -0.5402  1.0488
  919MOL0     C21237  10.468  -0.280  11.448  0.5138 -0.2950 -1.0635
  919MOL0     C21238  10.507  -0.431  11.480 -0.1194  0.0737 -0.2169
  919MOL0     C21239  10.521  -0.443  11.624  0.1412 -0.0527  0.0451
  919MOL0     C21240  10.540  -0.427  11.746 -1.2768 -0.2655 -0.0263
  919MOL0     C21241  10.488   0.127  11.107  0.0540  0.3346 -0.5180
  919MOL0     C21242  10.527   0.153  10.977  0.5703 -0.4147  0.1651
  919MOL0     H21243  10.480  -0.039  10.515 -0.1211 -1.9804 -2.1818
  919MOL0     H21244  10.507  -0.045  10.259 -0.8284 -0.4416  0.5862
  919MOL0     H21245  10.800  -0.233  10.240 -2.1429  0.1994  0.6267
  919MOL0     H21246  10.921  -0.158  10.151 -0.3087  1.9661  2.7865
  919MOL0     H21247  10.650  -0.259  10.026 -0.0071 -0.0614 -2.5576
  919MOL0     H21248  10.784  -0.362  10.056 -0.6747 -1.4720 -5.3167
  919MOL0     H21249  10.781  -0.106   9.893 -1.1738 -0.4969 -1.0229
  919MOL0     H21250  10.755  -0.260   9.813 -3.2202  0.2967  1.5890
  919MOL0     H21251  10.985  -0.178   9.772 -0.1324 -4.0779 -2.3035
  919MOL0     H21252  11.016  -0.183   9.952  3.2149 -1.4844 -0.3437
  919MOL0     H21253  10.962  -0.430   9.794  0.4138 -0.1556 -0.3630
  919MOL0     H21254  11.023  -0.399   9.959  1.9090  1.8008  0.7787
  919MOL0     H21255  11.227  -0.448   9.854 -2.3621 -1.7444  0.2581
  919MOL0     H21256  11.216  -0.274   9.860 -0.4113 -2.3970  2.5149
  919MOL0     H21257  11.103  -0.271   9.625  2.8095  3.0641 -1.3806
  919MOL0     H21258  11.268  -0.300   9.620 -0.0749 -1.1473 -2.0884
  919MOL0     H21259  11.106  -0.552   9.654 -1.1807 -3.1036 -3.9474
  919MOL0     H21260  11.264  -0.533   9.580 -0.1433  2.1442 -2.2301
  919MOL0     H21261  11.247  -0.373   9.317 -0.9379 -0.0045 -2.8782
  919MOL0     H21262  10.965  -0.420   9.066  0.0434  0.4502  0.0322
  919MOL0     H21263  11.127  -0.498   9.050  1.5313  1.5326 -0.5856
  919MOL0     H21264  11.237  -0.294   9.081  0.4336  1.9874 -0.6226
  919MOL0     H21265  11.095  -0.203   9.137  0.7416  0.2095  0.3176
  919MOL0     H21266  11.094  -0.287   8.851 -4.5270  1.1186 -1.6978
  919MOL0     H21267  10.996  -0.178   8.940  0.8953  1.8307 -0.8542
  919MOL0     H21268  11.263  -0.088   8.975  1.5242  2.7814 -0.9883
  919MOL0     H21269  11.118  -0.006   8.927  0.6310  0.8971 -2.9499
  919MOL0     H21270  11.368  -0.111   8.560  4.0899 -0.0227  1.1057
  919MOL0     H21271  11.488   0.079   8.457  0.1457  1.5440  1.4113
  919MOL0     H21272  11.507   0.561   8.328  0.3262 -0.6886 -0.2006
  919MOL0     H21273  11.660   0.718   8.277  0.9673 -0.3165 -0.3453
  919MOL0     H21274  12.012   0.862   8.210  0.2585 -0.5621  0.6538
  919MOL0     H21275  11.842   0.853   8.264 -0.5832  3.3033 -1.8546
  919MOL0     H21276  11.783   0.714   8.065 -0.3809 -0.3981 -1.1556
  919MOL0     H21277  11.944   0.727   8.002  0.5858  2.3479 -1.0617
  919MOL0     H21278  11.814   0.887   7.871 -1.1046 -1.0289  0.2876
  919MOL0     H21279  11.925   0.970   7.973  0.2339 -3.2849  0.6720
  919MOL0     H21280  11.626   0.933   8.002  0.3870 -0.0941 -0.5992
  919MOL0     H21281  11.714   0.981   8.146 -1.2794  0.7934  0.0142
  919MOL0     H21282  11.801   1.190   8.033 -1.2957  1.9776  1.9048
  919MOL0     H21283  11.635   1.190   8.066  2.4137  4.6856  0.2329
  919MOL0     H21284  11.605   1.113   7.815  0.2686 -1.9079  1.8364
  919MOL0     H21285  11.782   1.147   7.805  2.4120  2.2952  2.5841
  919MOL0     H21286  11.596   1.348   7.933 -1.0235  2.7800 -1.0670
  919MOL0     H21287  11.757   1.378   7.857 -1.0385  0.7494 -1.5381
  919MOL0     H21288  11.558   1.449   7.731 -0.1789  0.0946 -0.2291
  919MOL0     H21289  11.497   1.287   7.702 -0.6368 -1.5336  3.8236
  919MOL0     H21290  11.987   0.435   8.341 -1.8802 -2.5818 -1.5085
  919MOL0     H21291  11.816   0.265   8.400 -1.2105  0.4062  1.7695
  919MOL0     H21292  11.373   0.320   8.782 -1.4277 -2.3822  3.8060
  919MOL0     H21293  11.236   0.156   8.874 -0.2524 -1.7903  0.6389
  919MOL0     H21294  10.920   0.032  10.295 -1.9523  2.0531 -1.1407
  919MOL0     H21295  10.904   0.000  10.558  0.1087 -1.4984 -0.1699
  919MOL0     H21296  10.684  -0.141  10.899  0.5157 -0.8978  1.1053
  919MOL0     H21297  10.620  -0.191  11.113  3.0623  0.7332  0.9659
  919MOL0     H21298  10.335  -0.127  11.172 -0.4869 -1.0760 -0.1053
  919MOL0     H21299  10.297  -0.068  11.341 -0.8251  1.6264 -2.3642
  919MOL0     H21300  10.291  -0.306  11.338 -1.6113  2.2223  0.5510
  919MOL0     H21301  10.444  -0.325  11.242  3.6927  3.2571  0.7364
  919MOL0     H21302  10.420  -0.228  11.531  1.4898  2.1933 -1.9535
  919MOL0     H21303  10.564  -0.227  11.447 -0.5348  1.7018 -0.9739
  919MOL0     H21304  10.434  -0.499  11.435  0.9077 -0.3257 -1.3130
  919MOL0     H21305  10.601  -0.457  11.431  1.4320 -0.1445  2.6544
  919MOL0     H21306  10.574  -0.415  11.847 -2.4802 -0.3716  0.4024
  919MOL0     H21307  10.447   0.209  11.164  2.1457 -0.0467  1.7023
  919MOL0     H21308  10.502   0.253  10.943 -0.8380 -1.8039 -3.3624
  920MOL0     O21309   1.323   6.966   9.850  0.6044  0.3796  0.5542
  920MOL0     C21310   1.349   6.926   9.960 -0.4491  0.3679 -0.4931
  920MOL0     O21311   1.264   6.881  10.055 -1.1840  0.3967  0.3661
  920MOL0     C21312   1.128   6.900  10.053 -0.5324 -0.0109 -0.4446
  920MOL0     C21313   1.053   6.943   9.948 -0.3876 -0.4237 -0.1395
  920MOL0     C21314   0.913   6.958   9.957  0.3893 -0.1188 -0.3034
  920MOL0     C21315   0.843   6.912  10.069 -0.8351  1.2444  0.5410
  920MOL0     O21316   0.708   6.927  10.099 -0.1753 -0.0804 -0.2093
  920MOL0     C21317   0.636   7.041  10.037  0.2114  0.5135  1.0735
  920MOL0     C21318   0.504   7.059  10.112  0.0710  0.2534  0.9115
  920MOL0     C21319   0.430   6.926  10.133 -0.2747  0.7297 -0.2526
  920MOL0     C21320   0.301   6.935  10.216  1.2701  0.6597 -0.7083
  920MOL0     C21321   0.287   6.812  10.315 -0.6524 -0.7939  0.4667
  920MOL0     C21322   0.296   6.672  10.245  0.1433  0.0073  0.9861
  920MOL0     C21323   0.274   6.552  10.334 -0.3358 -0.3087  0.3184
  920MOL0     C21324   0.313   6.422  10.263 -0.4427 -0.3950  1.0146
  920MOL0     N21325   0.236   6.317  10.330  1.1302 -0.0086  0.4324
  920MOL0     C21326   0.108   6.284  10.287 -0.2708  0.3018  0.8432
  920MOL0     C21327   0.079   6.158  10.337 -0.8149 -0.1970  0.8130
  920MOL0     C21328  -0.046   6.078  10.331  0.6498  0.1679 -0.6772
  920MOL0     C21329  -0.094   6.003  10.465  0.3086 -0.2619  0.7028
  920MOL0     C21330  -0.225   5.945  10.433 -0.9378  1.0503  0.4343
  920MOL0     C21331  -0.285   5.863  10.546  0.3104 -0.1225  0.4627
  920MOL0     O21332  -0.179   5.765  10.580  0.3450 -0.9901  0.1001
  920MOL0     C21333  -0.198   5.699  10.696 -0.7423  0.0893 -0.0033
  920MOL0     C21334  -0.311   5.638  10.739 -0.3027 -0.0267 -0.9574
  920MOL0     C21335  -0.318   5.583  10.871 -0.0894  0.5740 -0.6091
  920MOL0     C21336  -0.202   5.586  10.950  0.2381  0.1027  0.2689
  920MOL0     C21337  -0.184   5.507  11.074 -0.0525 -0.0560 -0.2607
  920MOL0     O21338  -0.102   5.560  11.158  0.2086  0.8935  0.0561
  920MOL0     C21339  -0.072   5.493  11.274  0.5337  0.6938  0.5722
  920MOL0     C21340  -0.065   5.568  11.391 -1.0816  0.4381 -0.2192
  920MOL0     C21341  -0.022   5.510  11.507 -0.6205 -0.0750 -0.0563
  920MOL0     C21342   0.002   5.371  11.521  0.0229  0.1911 -0.2998
  920MOL0     O21343   0.066   5.309  11.628 -0.0811  0.7980 -0.1525
  920MOL0     C21344   0.082   5.385  11.749  0.5073  0.2215  0.6537
  920MOL0     C21345   0.111   5.285  11.869 -0.0328 -0.7414  0.8677
  920MOL0     C21346   0.257   5.238  11.867  0.1215  1.3602 -0.0957
  920MOL0     C21347   0.277   5.121  11.968 -0.9493  0.8531 -0.1406
  920MOL0     C21348   0.410   5.045  11.941 -0.1588 -0.1945  0.1730
  920MOL0     C21349   0.535   5.122  11.977 -0.3543 -0.2165  0.1592
  920MOL0     C21350   0.621   5.182  11.854  0.0928 -0.3161 -0.3925
  920MOL0     C21351   0.757   5.241  11.905 -0.1989 -0.1392  0.1002
  920MOL0    Cl21352   0.742   5.413  11.987 -0.3363 -0.5057  0.0894
  920MOL0     C21353  -0.025   5.293  11.407  0.4618 -0.0947  0.0398
  920MOL0     C21354  -0.040   5.352  11.283  0.6392  0.0025 -0.1282
  920MOL0     O21355  -0.254   5.406  11.098  0.0789  0.7377  0.7109
  920MOL0     C21356  -0.087   5.633  10.893 -0.6457  0.0812  0.4328
  920MOL0     C21357  -0.083   5.688  10.773  0.3833  0.0370 -0.0052
  920MOL0     N21358   0.191   6.125  10.408  0.2280  0.7303 -0.0268
  920MOL0     N21359   0.287   6.210  10.408  0.6526  0.9677  0.2164
  920MOL0     C21360   0.926   6.860  10.169 -0.0425 -0.4166  0.2899
  920MOL0     C21361   1.067   6.849  10.169  0.9686 -0.3055 -0.4855
  920MOL0     C21362   1.494   6.912   9.990  0.1483 -0.1331 -0.5319
  920MOL0     C21363   1.550   6.814  10.081 -0.2182  0.0246 -0.0101
  920MOL0     C21364   1.687   6.806  10.096 -1.3455  0.0586  0.5240
  920MOL0     C21365   1.775   6.890  10.026  0.4422 -0.3241 -0.1445
  920MOL0     O21366   1.914   6.868  10.027 -0.0993  0.7854 -0.2057
  920MOL0     C21367   1.980   6.843   9.900  0.2933 -0.7098 -0.7082
  920MOL0     C21368   2.091   6.954   9.876 -0.1848  0.1581  0.1428
  920MOL0     C21369   2.239   6.896   9.916  0.5650 -0.2549 -0.4486
  920MOL0     C21370   2.339   7.015   9.903 -0.6372  0.1927  0.2013
  920MOL0     C21371   2.336   7.115  10.009  0.3558 -1.2747 -0.2649
  920MOL0     C21372   2.351   7.195  10.101 -0.6405  0.2140  0.9261
  920MOL0     C21373   1.720   6.994   9.946 -0.1397  0.2038 -0.3810
  920MOL0     C21374   1.583   6.995   9.924 -0.2118  0.2302 -0.6179
  920MOL0     H21375   1.091   6.988   9.856 -3.2273  0.9058 -0.7911
  920MOL0     H21376   0.872   7.011   9.871  2.9331  2.1593 -0.2467
  920MOL0     H21377   0.624   7.016   9.931  0.4685  1.6632  0.7630
  920MOL0     H21378   0.692   7.134  10.041 -0.2142  0.7775  0.9307
  920MOL0     H21379   0.436   7.126  10.058  1.2279  0.4196 -0.4048
  920MOL0     H21380   0.534   7.117  10.199 -0.6083  1.7340  0.1903
  920MOL0     H21381   0.493   6.863  10.197 -1.1801  0.6960  0.6438
  920MOL0     H21382   0.414   6.872  10.039 -4.1409  0.7421  0.2416
  920MOL0     H21383   0.303   7.020  10.285  0.4643  1.0340 -1.1233
  920MOL0     H21384   0.212   6.947  10.153  1.8602  0.7249 -1.5568
  920MOL0     H21385   0.187   6.826  10.357 -1.5243  1.7832 -2.1726
  920MOL0     H21386   0.367   6.809  10.389 -1.1908  0.5048  1.1378
  920MOL0     H21387   0.389   6.665  10.187  0.4232  0.1153  1.4183
  920MOL0     H21388   0.216   6.663  10.171  1.1298 -1.5152  0.0519
  920MOL0     H21389   0.324   6.567  10.430 -0.5795 -0.3180  0.4459
  920MOL0     H21390   0.168   6.552  10.360 -0.3200  2.8594  0.7403
  920MOL0     H21391   0.419   6.396  10.264 -0.3360 -1.6687 -4.7367
  920MOL0     H21392   0.282   6.425  10.158 -0.0712 -0.9867  0.8847
  920MOL0     H21393   0.043   6.341  10.222 -1.3799 -2.1903 -0.3410
  920MOL0     H21394  -0.039   5.994  10.260 -3.5907 -1.3681  0.4171
  920MOL0     H21395  -0.132   6.142  10.309  0.3594  0.7588  1.9088
  920MOL0     H21396  -0.104   6.070  10.550  2.4955  2.5207 -1.0590
  920MOL0     H21397  -0.012   5.931  10.477  3.2956  2.7491 -0.2172
  920MOL0     H21398  -0.300   6.021  10.409 -3.0768 -0.6751  1.2402
  920MOL0     H21399  -0.201   5.883  10.346  1.9843  3.9689 -1.0565
  920MOL0     H21400  -0.381   5.821  10.513  0.9521 -2.2484  1.1231
  920MOL0     H21401  -0.297   5.937  10.625 -4.7769 -0.9734  0.8323
  920MOL0     H21402  -0.394   5.627  10.670  0.3462  1.6742 -2.0763
  920MOL0     H21403  -0.410   5.552  10.920  0.5111  0.9972  0.8242
  920MOL0     H21404  -0.102   5.669  11.382 -2.0850  0.2184  1.1411
  920MOL0     H21405  -0.014   5.580  11.590 -1.6657  2.3577 -1.9101
  920MOL0     H21406  -0.013   5.436  11.769  0.8257  0.1047  2.7139
  920MOL0     H21407   0.165   5.456  11.741 -0.1788  2.1127  5.9627
  920MOL0     H21408   0.055   5.191  11.876  0.3340 -1.0362  0.0275
  920MOL0     H21409   0.091   5.341  11.961  0.9540 -2.2544  2.0480
  920MOL0     H21410   0.321   5.317  11.908  2.4389 -0.2691 -0.3586
  920MOL0     H21411   0.290   5.216  11.765 -0.1033 -2.3789  0.5092
  920MOL0     H21412   0.271   5.155  12.071  1.4674 -2.9334  1.4869
  920MOL0     H21413   0.196   5.048  11.958 -1.2757  1.1406  0.4357
  920MOL0     H21414   0.417   4.991  11.846 -3.4379 -2.3677  1.0327
  920MOL0     H21415   0.403   4.970  12.021  0.6259 -0.8477 -0.3544
  920MOL0     H21416   0.595   5.052  12.036 -0.8272 -0.1669  0.7083
  920MOL0     H21417   0.519   5.208  12.043 -2.7845 -1.6509  1.5872
  920MOL0     H21418   0.647   5.098  11.788 -0.4517  0.7884 -2.1045
  920MOL0     H21419   0.560   5.259  11.806  1.1982  1.0212  0.2762
  920MOL0     H21420   0.822   5.249  11.817  2.9235 -2.0360  2.0064
  920MOL0     H21421   0.792   5.178  11.988 -4.2966 -1.2152  1.2409
  920MOL0     H21422   0.002   5.188  11.416  3.6495  0.7428  2.1689
  920MOL0     H21423  -0.027   5.280  11.203  0.4129  0.9774 -1.0620
  920MOL0     H21424   0.014   5.618  10.929  0.6110 -0.9794 -3.1298
  920MOL0     H21425   0.005   5.736  10.731  0.6803 -0.5177 -0.0122
  920MOL0     H21426   0.869   6.834  10.257 -1.8745 -0.4585 -0.8587
  920MOL0     H21427   1.100   6.802  10.261 -1.8322  1.7507  1.7519
  920MOL0     H21428   1.479   6.744  10.123 -1.8670  0.2068 -2.3181
  920MOL0     H21429   1.732   6.725  10.152 -1.9239 -1.7732 -1.5361
  920MOL0     H21430   1.907   6.861   9.820 -1.4567  2.6720  1.4067
  920MOL0     H21431   2.014   6.740   9.910  1.2540 -0.1557  2.8117
  920MOL0     H21432   2.097   6.976   9.769  0.7503  0.5201  0.2603
  920MOL0     H21433   2.061   7.044   9.930 -2.4045 -0.1874 -0.4096
  920MOL0     H21434   2.267   6.820   9.842  0.0511  0.6142 -1.5648
  920MOL0     H21435   2.256   6.867  10.020  1.5976  2.6035  0.2563
  920MOL0     H21436   2.441   6.977   9.911 -0.2878  1.3664  1.9859
  920MOL0     H21437   2.310   7.063   9.809  1.2277  0.3294 -0.3329
  920MOL0     H21438   2.367   7.253  10.191 -2.3012  2.4146 -0.0892
  920MOL0     H21439   1.785   7.058   9.887 -0.6163  0.2629 -0.8466
  920MOL0     H21440   1.543   7.063   9.850  2.1628  0.6330 -1.6588
  921MOL0     O21441   4.871   6.366   1.193 -0.5532 -0.2100 -0.3223
  921MOL0     C21442   4.765   6.310   1.220 -0.5443  0.6281  0.9325
  921MOL0     O21443   4.644   6.361   1.196 -0.7690 -0.8664  0.2404
  921MOL0     C21444   4.623   6.496   1.202  1.5329  0.3135  1.6864
  921MOL0     C21445   4.670   6.583   1.112 -0.5630  0.5369  0.0806
  921MOL0     C21446   4.616   6.712   1.106 -0.1379  0.0463 -0.5728
  921MOL0     C21447   4.528   6.764   1.210  0.5105  1.1406 -1.0168
  921MOL0     O21448   4.489   6.897   1.217 -0.5737 -0.1008 -0.5640
  921MOL0     C21449   4.552   6.986   1.308  0.4147 -0.6042  0.3652
  921MOL0     C21450   4.484   7.127   1.311 -0.0700  0.1167 -0.3016
  921MOL0     C21451   4.504   7.197   1.175  0.3627  0.0833  0.0392
  921MOL0     C21452   4.455   7.340   1.176 -0.3263  0.2677  0.0142
  921MOL0     C21453   4.434   7.396   1.036 -0.1417  0.0010 -0.0860
  921MOL0     C21454   4.314   7.334   0.956  0.2428 -0.1016 -0.4314
  921MOL0     C21455   4.299   7.383   0.817 -0.4296  0.1031 -0.1132
  921MOL0     C21456   4.183   7.316   0.741 -0.5809 -0.3165  0.0682
  921MOL0     N21457   4.137   7.398   0.626 -0.3285  0.0541 -0.0092
  921MOL0     C21458   4.145   7.369   0.492  0.1158  0.9544  0.1749
  921MOL0     C21459   4.068   7.466   0.449  0.0226 -0.4237 -0.2252
  921MOL0     C21460   4.072   7.478   0.290  1.4152 -0.8575  0.2502
  921MOL0     C21461   4.054   7.626   0.241 -0.9350 -0.1392  1.6247
  921MOL0     C21462   4.096   7.626   0.093  0.5735 -0.7820  0.2945
  921MOL0     C21463   4.002   7.559  -0.006 -0.2183 -0.6719  0.0254
  921MOL0     O21464   4.065   7.546  -0.131 -0.5839 -0.8235  0.5468
  921MOL0     C21465   4.017   7.627  -0.229  0.5572 -1.1025  0.5657
  921MOL0     C21466   3.944   7.569  -0.332  0.2481  1.0352  0.5789
  921MOL0     C21467   3.888   7.642  -0.438 -1.1512  0.8682 -1.0402
  921MOL0     C21468   3.913   7.783  -0.440  0.6610  1.0073  0.5531
  921MOL0     C21469   3.850   7.861  -0.539  0.8383  0.4895 -0.4916
  921MOL0     O21470   3.912   7.982  -0.562  0.1736  0.6842 -0.3893
  921MOL0     C21471   3.851   8.065  -0.631 -0.0637 -0.3960  0.5017
  921MOL0     C21472   3.731   8.121  -0.579  0.0228 -0.0931  0.7869
  921MOL0     C21473   3.658   8.214  -0.651  0.6578 -0.3677  0.3699
  921MOL0     C21474   3.704   8.243  -0.780 -0.6541 -0.9283  0.6942
  921MOL0     O21475   3.641   8.322  -0.872  0.2013 -0.8567  0.5766
  921MOL0     C21476   3.500   8.332  -0.887  0.5709  0.0821  0.2047
  921MOL0     C21477   3.441   8.211  -0.957 -0.7209 -0.4964  0.5031
  921MOL0     C21478   3.287   8.210  -0.939 -0.2088  0.3752  0.4493
  921MOL0     C21479   3.211   8.316  -1.022  0.9101  0.4385 -0.2798
  921MOL0     C21480   3.068   8.273  -1.080 -0.2849 -0.2526 -0.0733
  921MOL0     C21481   3.063   8.158  -1.185  0.5475 -0.1901  0.1861
  921MOL0     C21482   3.160   8.175  -1.304  0.7205 -0.9131 -0.2837
  921MOL0     C21483   3.090   8.156  -1.443 -0.3057 -0.3836 -0.5376
  921MOL0    Cl21484   2.959   8.264  -1.477  0.1107 -0.2608 -0.3301
  921MOL0     C21485   3.833   8.192  -0.819 -0.5981  0.0882  0.1152
  921MOL0     C21486   3.909   8.103  -0.746 -0.3703  0.4988  0.7419
  921MOL0     O21487   3.756   7.816  -0.599  0.3186 -0.3614 -0.7556
  921MOL0     C21488   3.989   7.838  -0.334  0.6272  0.0145 -0.0013
  921MOL0     C21489   4.039   7.766  -0.230 -0.3146  0.6675  1.0322
  921MOL0     N21490   4.003   7.543   0.548 -0.7263  0.5493  0.7945
  921MOL0     N21491   4.061   7.502   0.652  0.3547 -0.7756 -0.2909
  921MOL0     C21492   4.483   6.674   1.307  0.3305  0.1882  0.8388
  921MOL0     C21493   4.531   6.538   1.301  0.8755  0.5363  0.5904
  921MOL0     C21494   4.756   6.180   1.293  0.6115  0.6919 -0.5457
  921MOL0     C21495   4.876   6.118   1.334 -0.1885  0.0138  0.2170
  921MOL0     C21496   4.880   5.995   1.398 -0.6369  0.2011  0.4992
  921MOL0     C21497   4.765   5.935   1.436  0.8531  1.3224 -0.9454
  921MOL0     O21498   4.763   5.808   1.494  0.8933 -0.0731 -0.2298
  921MOL0     C21499   4.873   5.720   1.517 -0.5824 -0.5086  1.5164
  921MOL0     C21500   4.916   5.731   1.665 -0.2752 -0.6929  0.2809
  921MOL0     C21501   5.017   5.617   1.708  0.3091 -0.1058  0.1891
  921MOL0     C21502   5.102   5.664   1.817  0.0720  0.4835 -0.8091
  921MOL0     C21503   5.237   5.586   1.824  0.1761 -0.8509 -0.0916
  921MOL0     C21504   5.342   5.530   1.827 -1.2966  0.2913  0.0198
  921MOL0     C21505   4.640   5.997   1.413 -0.1796  0.5424  0.6096
  921MOL0     C21506   4.637   6.111   1.340  0.3057  0.6811  0.4366
  921MOL0     H21507   4.736   6.556   1.029 -1.2129 -0.3896 -0.1529
  921MOL0     H21508   4.641   6.770   1.017 -1.3434  1.3851 -0.0805
  921MOL0     H21509   4.659   6.997   1.292  0.0945  2.0947 -0.4481
  921MOL0     H21510   4.543   6.949   1.411 -0.4829 -0.0893  0.4821
  921MOL0     H21511   4.538   7.198   1.374 -0.9903  3.1925 -2.6943
  921MOL0     H21512   4.380   7.116   1.343  0.3670 -2.0581  0.5340
  921MOL0     H21513   4.445   7.138   1.104  2.8706 -3.4236  0.5868
  921MOL0     H21514   4.607   7.189   1.141  0.5227 -1.0058  0.7374
  921MOL0     H21515   4.359   7.349   1.226 -0.0455  0.5642  0.5036
  921MOL0     H21516   4.534   7.399   1.223 -1.2261 -1.0032  3.4205
  921MOL0     H21517   4.524   7.372   0.978 -1.0021 -1.9685 -0.6827
  921MOL0     H21518   4.423   7.505   1.032  0.2804  0.0665 -4.4806
  921MOL0     H21519   4.229   7.361   1.019  1.5972  1.2062  0.9302
  921MOL0     H21520   4.313   7.225   0.952  3.5570 -0.1852 -2.2602
  921MOL0     H21521   4.302   7.493   0.821  1.6158  0.0810 -0.3666
  921MOL0     H21522   4.390   7.347   0.769 -1.3817  0.8395 -2.6277
  921MOL0     H21523   4.092   7.311   0.802 -0.8261  0.3557 -0.2341
  921MOL0     H21524   4.210   7.213   0.715  0.4698 -0.0946  0.2062
  921MOL0     H21525   4.204   7.296   0.439 -0.0813 -0.8114  2.2405
  921MOL0     H21526   3.992   7.415   0.249  2.1631 -2.4575  1.1613
  921MOL0     H21527   4.168   7.449   0.247  0.9738  1.7998 -2.9850
  921MOL0     H21528   4.130   7.681   0.296  1.8681 -1.0912 -1.0003
  921MOL0     H21529   3.951   7.664   0.242 -2.0397 -2.7155 -0.4251
  921MOL0     H21530   4.118   7.727   0.055  0.1964 -1.6399 -2.4222
  921MOL0     H21531   4.191   7.576   0.075  0.8489 -0.1922  0.0682
  921MOL0     H21532   3.913   7.623  -0.014 -1.6303 -2.3774  1.2215
  921MOL0     H21533   3.980   7.455   0.022  1.1343 -0.6739  1.1504
  921MOL0     H21534   3.936   7.463  -0.311  0.9538  1.2790  2.2104
  921MOL0     H21535   3.833   7.597  -0.521  0.0663  2.2190 -2.6671
  921MOL0     H21536   3.707   8.095  -0.476 -1.4625 -0.0035  0.4737
  921MOL0     H21537   3.563   8.261  -0.625 -0.1590 -1.2932 -0.8336
  921MOL0     H21538   3.474   8.420  -0.947 -2.6809 -1.1289 -0.3586
  921MOL0     H21539   3.457   8.364  -0.792  0.8538  0.9365  0.0590
  921MOL0     H21540   3.486   8.122  -0.912 -2.0337 -1.7437 -0.5313
  921MOL0     H21541   3.481   8.211  -1.059 -0.6756 -1.5772  0.5109
  921MOL0     H21542   3.267   8.231  -0.834  0.9441  2.2978  0.3269
  921MOL0     H21543   3.251   8.112  -0.973 -3.7796  1.9056 -0.6476
  921MOL0     H21544   3.205   8.399  -0.951  0.5388  0.3310 -0.1805
  921MOL0     H21545   3.272   8.355  -1.104 -1.3371  3.6844 -0.6027
  921MOL0     H21546   3.022   8.359  -1.130 -0.3911 -0.4534 -0.3230
  921MOL0     H21547   3.014   8.239  -0.991 -0.0907  0.3505  0.2852
  921MOL0     H21548   2.962   8.120  -1.204  1.0930 -2.0269  0.6946
  921MOL0     H21549   3.106   8.070  -1.136 -0.7739  0.0506  1.8974
  921MOL0     H21550   3.207   8.274  -1.311  0.8792 -1.0568 -1.4775
  921MOL0     H21551   3.243   8.105  -1.293  0.1531 -1.4695  0.5809
  921MOL0     H21552   3.058   8.052  -1.430 -2.3811  0.0748 -1.5628
  921MOL0     H21553   3.162   8.164  -1.526  0.4714 -2.2810 -0.0961
  921MOL0     H21554   3.874   8.228  -0.913  2.3663 -3.1958 -0.0804
  921MOL0     H21555   3.995   8.054  -0.790 -0.7185 -0.4615  1.0847
  921MOL0     H21556   4.030   7.939  -0.335  2.4838 -0.6828  0.9110
  921MOL0     H21557   4.088   7.823  -0.151  3.3578  1.6525 -1.6848
  921MOL0     H21558   4.417   6.713   1.383 -0.4571  1.7832 -0.6049
  921MOL0     H21559   4.504   6.461   1.373 -2.5402 -1.2976 -2.2812
  921MOL0     H21560   4.971   6.164   1.311 -1.2797  1.0459 -2.7919
  921MOL0     H21561   4.970   5.940   1.423 -0.4304 -0.5096 -1.5976
  921MOL0     H21562   4.959   5.748   1.455 -0.3454  0.6568  2.3302
  921MOL0     H21563   4.849   5.618   1.487  0.0736  0.3265 -2.5305
  921MOL0     H21564   4.964   5.829   1.671 -2.1797  0.5331 -2.3748
  921MOL0     H21565   4.827   5.730   1.729  2.3427 -0.7518  4.2560
  921MOL0     H21566   5.078   5.592   1.620 -0.7338 -0.7299 -0.3763
  921MOL0     H21567   4.964   5.524   1.727 -1.4878  0.6752 -0.7201
  921MOL0     H21568   5.124   5.769   1.797  0.3986  0.1018 -2.6395
  921MOL0     H21569   5.056   5.631   1.911 -0.4056 -0.5928 -1.4048
  921MOL0     H21570   5.441   5.493   1.849  0.5681  3.8149 -1.7069
  921MOL0     H21571   4.543   5.954   1.436  0.2786 -0.1048  1.3602
  921MOL0     H21572   4.548   6.160   1.302  1.4113  2.0050 -0.5448
  922MOL0     O21573   4.499   8.980   1.634  0.2494  1.0332 -0.2340
  922MOL0     C21574   4.530   9.035   1.528 -0.2848  0.9115 -0.6816
  922MOL0     O21575   4.465   9.149   1.482 -1.0328  0.7118 -0.2218
  922MOL0     C21576   4.350   9.178   1.549 -1.5662 -0.4038 -0.4629
  922MOL0     C21577   4.356   9.229   1.682 -0.1338 -0.6255  0.3438
  922MOL0     C21578   4.238   9.293   1.732 -0.6558 -0.6950 -0.0059
  922MOL0     C21579   4.116   9.278   1.660  0.4858 -1.3622 -0.2802
  922MOL0     O21580   3.996   9.328   1.699  0.7185  0.2904 -0.2095
  922MOL0     C21581   3.948   9.305   1.831 -0.3052 -0.0275 -0.1515
  922MOL0     C21582   3.835   9.208   1.827  0.5650  0.4402 -0.1181
  922MOL0     C21583   3.713   9.268   1.771  0.5400  0.2609 -0.7312
  922MOL0     C21584   3.596   9.174   1.740  0.3602 -0.3244 -0.5350
  922MOL0     C21585   3.478   9.198   1.845 -0.8696  0.6234  0.2261
  922MOL0     C21586   3.362   9.104   1.822  0.4823 -0.2905  0.0320
  922MOL0     C21587   3.270   9.145   1.710  0.0453  0.5680  0.1122
  922MOL0     C21588   3.153   9.232   1.769 -0.1742 -0.5115  0.1742
  922MOL0     N21589   3.053   9.252   1.670 -0.5811 -0.4822  0.5816
  922MOL0     C21590   2.930   9.210   1.684 -0.3408 -0.4630  1.0594
  922MOL0     C21591   2.859   9.292   1.598 -0.3168  0.6234 -1.0181
  922MOL0     C21592   2.713   9.270   1.580 -0.7176 -0.1245  0.0412
  922MOL0     C21593   2.673   9.137   1.506 -0.1227  0.1376  0.1940
  922MOL0     C21594   2.640   9.160   1.367  0.0126 -0.4850  1.2125
  922MOL0     C21595   2.748   9.202   1.267  0.1755  0.0524 -0.5416
  922MOL0     O21596   2.846   9.096   1.241  0.3056 -0.3137  0.6735
  922MOL0     C21597   2.981   9.113   1.268  0.4625 -1.3984  0.2709
  922MOL0     C21598   3.058   9.043   1.354 -0.0532  0.3649 -0.4025
  922MOL0     C21599   3.199   9.065   1.364 -0.3343  0.2904  0.1557
  922MOL0     C21600   3.263   9.171   1.296 -0.3283  0.4244  0.2299
  922MOL0     C21601   3.407   9.211   1.317 -0.8023  0.9338 -0.3774
  922MOL0     O21602   3.456   9.312   1.240  0.0785 -0.1784  0.2832
  922MOL0     C21603   3.585   9.374   1.246  0.3527  0.3989  0.4790
  922MOL0     C21604   3.608   9.487   1.168  1.5949 -0.2978 -0.7968
  922MOL0     C21605   3.726   9.563   1.183 -0.2660  0.2018 -0.0314
  922MOL0     C21606   3.824   9.513   1.274 -0.0386 -1.2062  0.3358
  922MOL0     O21607   3.935   9.584   1.280 -0.2923  0.7520  0.4307
  922MOL0     C21608   4.055   9.529   1.361  0.6599  0.6374  0.7034
  922MOL0     C21609   4.176   9.602   1.309  0.0696 -0.6368 -1.2607
  922MOL0     C21610   4.303   9.521   1.362 -0.0318 -0.4045  0.6583
  922MOL0     C21611   4.437   9.609   1.357  1.6508 -0.1299 -0.0497
  922MOL0     C21612   4.459   9.686   1.232 -0.3457 -0.2835  0.0088
  922MOL0     C21613   4.589   9.768   1.243 -0.9822 -0.5775  0.9715
  922MOL0     C21614   4.649   9.774   1.103 -0.4604 -0.5826 -0.0246
  922MOL0     C21615   4.719   9.916   1.088  0.2678 -0.1539 -0.2093
  922MOL0    Cl21616   4.860   9.949   1.198  0.0461 -0.5229 -0.4537
  922MOL0     C21617   3.804   9.403   1.348  0.7268 -0.4647  0.2347
  922MOL0     C21618   3.684   9.338   1.340  0.4938 -0.9657  0.4540
  922MOL0     O21619   3.471   9.139   1.398  0.2669  1.0259  0.0626
  922MOL0     C21620   3.182   9.248   1.211 -0.4491  0.3050  0.8116
  922MOL0     C21621   3.041   9.222   1.200  0.7796 -0.5442  0.4724
  922MOL0     N21622   2.944   9.379   1.534  0.6619 -0.1873  0.4429
  922MOL0     N21623   3.060   9.353   1.582  0.1129 -0.2669  0.6708
  922MOL0     C21624   4.117   9.215   1.536  0.3060 -0.3712  0.5774
  922MOL0     C21625   4.236   9.171   1.476  0.5410 -0.4925  0.3212
  922MOL0     C21626   4.632   8.995   1.443  0.1607 -0.2313  0.6340
  922MOL0     C21627   4.650   9.058   1.310  0.1494 -0.8373  0.0652
  922MOL0     C21628   4.757   9.023   1.229 -0.1421 -0.0364  0.9240
  922MOL0     C21629   4.853   8.930   1.272 -0.0387  0.3432 -0.0359
  922MOL0     O21630   4.948   8.888   1.184 -0.3189 -0.2001  0.5255
  922MOL0     C21631   5.039   8.994   1.132  0.5029  0.3839 -0.4672
  922MOL0     C21632   5.127   9.029   1.252  0.4378  0.6895  0.7216
  922MOL0     C21633   5.220   8.919   1.276 -0.0456  0.2070  0.5659
  922MOL0     C21634   5.342   8.977   1.346 -0.7292 -0.1299  0.9873
  922MOL0     C21635   5.445   8.877   1.360 -0.1502 -0.2335  0.4110
  922MOL0     C21636   5.523   8.791   1.371 -0.4988  0.0842 -0.6775
  922MOL0     C21637   4.834   8.862   1.399 -0.0015 -1.4534 -0.2055
  922MOL0     C21638   4.720   8.897   1.474 -0.2469  0.8974 -0.7570
  922MOL0     H21639   4.434   9.251   1.755 -0.3642 -0.4351  0.5358
  922MOL0     H21640   4.243   9.343   1.828 -2.2384 -3.6252  1.7553
  922MOL0     H21641   3.921   9.394   1.888 -0.6922 -0.5254  0.4616
  922MOL0     H21642   4.026   9.258   1.892  0.3061  3.6397  2.2162
  922MOL0     H21643   3.825   9.177   1.932  2.3700 -0.1412 -0.0888
  922MOL0     H21644   3.868   9.124   1.765  4.1375 -0.1867  2.3194
  922MOL0     H21645   3.742   9.309   1.674 -1.4406 -1.5643 -2.2123
  922MOL0     H21646   3.682   9.347   1.840  1.5253 -2.8989  3.7651
  922MOL0     H21647   3.564   9.201   1.640  3.8126 -0.7768 -1.9080
  922MOL0     H21648   3.617   9.066   1.735 -3.1148 -1.0654 -1.8998
  922MOL0     H21649   3.448   9.303   1.848 -2.8014  0.0898  2.9888
  922MOL0     H21650   3.513   9.177   1.946 -2.7692  0.2815  0.8520
  922MOL0     H21651   3.310   9.087   1.917  0.3307  0.2786  0.0571
  922MOL0     H21652   3.410   9.008   1.801  0.1513  0.0302 -2.4932
  922MOL0     H21653   3.319   9.202   1.631  3.3107 -1.1236  0.7480
  922MOL0     H21654   3.223   9.054   1.671 -1.3709  1.1206  0.4547
  922MOL0     H21655   3.196   9.331   1.783 -1.7154  0.6644 -2.5497
  922MOL0     H21656   3.103   9.201   1.861 -3.3716 -1.8549 -1.8496
  922MOL0     H21657   2.893   9.138   1.756 -2.6318 -1.1203 -0.6365
  922MOL0     H21658   2.693   9.356   1.515  3.6611  0.6310 -0.6322
  922MOL0     H21659   2.658   9.273   1.674 -2.8401  1.2125 -1.1342
  922MOL0     H21660   2.594   9.088   1.565  0.6071  1.4523  2.3745
  922MOL0     H21661   2.759   9.069   1.510  0.0546  0.3089 -0.5387
  922MOL0     H21662   2.599   9.071   1.318  0.2822  0.0611 -0.0625
  922MOL0     H21663   2.556   9.230   1.370  1.1554  1.1176 -1.0226
  922MOL0     H21664   2.790   9.294   1.308 -3.2566 -0.0345  3.9391
  922MOL0     H21665   2.701   9.218   1.169  1.9033 -2.0102 -1.8042
  922MOL0     H21666   3.028   8.955   1.410 -0.8479  1.9170  1.7118
  922MOL0     H21667   3.255   8.988   1.415 -0.7703 -0.7924 -0.9586
  922MOL0     H21668   3.524   9.512   1.105  1.0704 -0.8627 -0.3362
  922MOL0     H21669   3.741   9.653   1.125  0.1942 -0.7664 -1.4717
  922MOL0     H21670   4.067   9.422   1.342 -1.0568  0.8643 -2.3159
  922MOL0     H21671   4.037   9.542   1.468 -1.6994 -0.2477  0.4806
  922MOL0     H21672   4.173   9.705   1.346 -2.3573 -0.5993 -1.4047
  922MOL0     H21673   4.167   9.606   1.200  0.5642 -0.2369 -1.2908
  922MOL0     H21674   4.331   9.425   1.317  4.1432 -0.2928  2.5234
  922MOL0     H21675   4.300   9.502   1.469  2.2422  2.2762  1.2970
  922MOL0     H21676   4.433   9.676   1.443 -3.5469 -1.6581  1.2304
  922MOL0     H21677   4.511   9.530   1.375 -0.3417 -1.3845  3.6138
  922MOL0     H21678   4.374   9.751   1.208 -1.5641 -2.2511 -1.2693
  922MOL0     H21679   4.453   9.612   1.152 -0.6013 -0.9847  0.6693
  922MOL0     H21680   4.664   9.720   1.307  1.6794 -1.3861 -2.4269
  922MOL0     H21681   4.581   9.868   1.285 -5.0245  0.5390 -1.9435
  922MOL0     H21682   4.722   9.693   1.094  1.9076  1.4946 -0.8907
  922MOL0     H21683   4.567   9.770   1.031  0.3977 -0.3409 -1.0515
  922MOL0     H21684   4.653   9.998   1.115 -0.1832 -1.3015  2.4667
  922MOL0     H21685   4.761   9.920   0.987  0.1706 -1.9693 -0.3540
  922MOL0     H21686   3.876   9.357   1.416 -1.1415 -2.8866  0.6965
  922MOL0     H21687   3.663   9.259   1.412  2.7580 -0.8542  1.3211
  922MOL0     H21688   3.228   9.329   1.156 -1.8311  0.9837  0.5886
  922MOL0     H21689   2.985   9.286   1.133  0.6726 -1.9915 -0.8591
  922MOL0     H21690   4.028   9.201   1.476  1.0364 -4.4179  0.1902
  922MOL0     H21691   4.251   9.134   1.376  4.0067 -1.3418  1.0499
  922MOL0     H21692   4.578   9.124   1.263 -1.7424 -3.7780 -1.4861
  922MOL0     H21693   4.757   9.074   1.133 -0.0116  0.2062  1.0528
  922MOL0     H21694   4.979   9.078   1.095 -1.8849 -1.0584 -0.0251
  922MOL0     H21695   5.084   8.960   1.038 -1.1369  1.8435 -1.8585
  922MOL0     H21696   5.177   9.122   1.222 -0.4450  1.4066  1.3998
  922MOL0     H21697   5.059   9.048   1.336 -1.4560  1.0153 -0.8114
  922MOL0     H21698   5.255   8.884   1.178  0.4958 -0.6740  1.0520
  922MOL0     H21699   5.171   8.840   1.335 -1.0432 -0.6444 -1.3036
  922MOL0     H21700   5.386   9.053   1.281 -2.0327 -0.5048 -0.3982
  922MOL0     H21701   5.312   9.014   1.445  0.4045 -0.3607  1.4310
  922MOL0     H21702   5.583   8.704   1.390 -0.0389  0.6047  0.3751
  922MOL0     H21703   4.906   8.787   1.429  1.9343 -0.2538 -1.6561
  922MOL0     H21704   4.712   8.860   1.575 -2.5452  4.7248  0.6710
  923MOL0     O21705   8.932   5.235   2.491  0.9387 -0.3460  0.4793
  923MOL0     C21706   9.011   5.194   2.571 -0.1274  0.2112  0.3453
  923MOL0     O21707   8.989   5.096   2.664 -0.4992  0.4715 -0.1515
  923MOL0     C21708   8.883   5.008   2.636  0.2207  0.4097 -0.1446
  923MOL0     C21709   8.772   4.991   2.729  0.1703  0.2979 -0.3258
  923MOL0     C21710   8.673   4.893   2.701 -1.2047 -0.2028 -0.8936
  923MOL0     C21711   8.681   4.816   2.580 -1.1538 -0.6378  0.9871
  923MOL0     O21712   8.576   4.733   2.559 -0.4199 -0.3684  0.3015
  923MOL0     C21713   8.564   4.668   2.430 -0.8269  0.2729 -0.6374
  923MOL0     C21714   8.443   4.578   2.447 -0.5870 -0.0107 -0.4270
  923MOL0     C21715   8.395   4.517   2.315 -0.1021 -0.6007  0.0346
  923MOL0     C21716   8.263   4.437   2.343  0.4068 -0.6199  0.1561
  923MOL0     C21717   8.207   4.368   2.218  0.1699 -0.1303  1.0364
  923MOL0     C21718   8.110   4.258   2.249 -0.7994  0.0295 -1.1190
  923MOL0     C21719   8.046   4.188   2.126 -1.0206 -0.5242  0.4714
  923MOL0     C21720   8.139   4.083   2.063  0.2410  0.6187  0.0429
  923MOL0     N21721   8.059   4.005   1.964 -0.3199  0.7848 -0.0235
  923MOL0     C21722   7.929   4.009   1.920 -0.0075 -0.6018  1.2499
  923MOL0     C21723   7.906   3.884   1.873 -0.1963 -1.1533 -0.8141
  923MOL0     C21724   7.768   3.827   1.830 -0.6032  0.4266  0.8959
  923MOL0     C21725   7.642   3.916   1.871 -0.3695 -0.0302 -0.4053
  923MOL0     C21726   7.521   3.827   1.825  0.3355 -0.8931  0.3528
  923MOL0     C21727   7.386   3.890   1.870 -0.1306  0.6343 -0.4217
  923MOL0     O21728   7.371   4.031   1.866  0.4315  0.0707  0.5812
  923MOL0     C21729   7.243   4.091   1.866 -0.0070 -0.2464 -0.1694
  923MOL0     C21730   7.122   4.035   1.911  0.0241  0.1532  0.5497
  923MOL0     C21731   7.013   4.122   1.897  0.2154  0.4398  0.3147
  923MOL0     C21732   7.009   4.246   1.843 -0.5874 -0.4236 -0.8042
  923MOL0     C21733   6.885   4.323   1.815  0.0694  0.2741 -0.8372
  923MOL0     O21734   6.900   4.459   1.813 -0.4096 -0.9452  0.1286
  923MOL0     C21735   6.784   4.537   1.779  0.1510  0.0591  0.1046
  923MOL0     C21736   6.666   4.518   1.838 -0.2654  0.2637 -0.4669
  923MOL0     C21737   6.556   4.597   1.803 -0.4486 -0.8915 -0.1311
  923MOL0     C21738   6.566   4.693   1.704  0.5171  0.6811 -0.0085
  923MOL0     O21739   6.458   4.765   1.671 -0.0178 -0.6387  0.2513
  923MOL0     C21740   6.345   4.689   1.622 -0.1367 -1.0707 -0.3168
  923MOL0     C21741   6.279   4.776   1.522 -0.1112  0.5464  0.5489
  923MOL0     C21742   6.148   4.726   1.476 -0.0394  0.9605  0.0185
  923MOL0     C21743   6.068   4.849   1.417 -0.7307  1.8980  0.3833
  923MOL0     C21744   5.936   4.806   1.343 -0.1041 -0.8288 -0.3400
  923MOL0     C21745   5.957   4.746   1.208 -0.3484 -0.7477  0.3381
  923MOL0     C21746   5.828   4.697   1.147  0.3781 -0.2560 -0.0406
  923MOL0     C21747   5.746   4.815   1.094  0.5682 -0.9193  0.3550
  923MOL0    Cl21748   5.836   4.954   1.041 -0.4418  0.2669 -0.2754
  923MOL0     C21749   6.689   4.719   1.645 -0.4384  0.4146  0.8079
  923MOL0     C21750   6.799   4.642   1.686 -0.6145  0.1613  0.2840
  923MOL0     O21751   6.778   4.255   1.799  0.0729 -1.2004 -0.3909
  923MOL0     C21752   7.133   4.300   1.813 -0.7813 -0.6432 -0.0524
  923MOL0     C21753   7.255   4.227   1.824 -0.3125  0.5066  0.2280
  923MOL0     N21754   8.021   3.806   1.889 -0.8075 -0.5259 -0.4671
  923MOL0     N21755   8.102   3.876   1.955 -0.0523 -0.7091 -0.3286
  923MOL0     C21756   8.797   4.828   2.495  0.0367  0.1444 -0.0552
  923MOL0     C21757   8.889   4.930   2.523 -0.2785  0.2370 -0.6517
  923MOL0     C21758   9.141   5.262   2.575  0.4143  0.2464  0.0145
  923MOL0     C21759   9.170   5.386   2.526  0.0294  0.7307  1.3664
  923MOL0     C21760   9.289   5.444   2.538  0.4828  0.3505 -0.4235
  923MOL0     C21761   9.391   5.374   2.601 -0.6845 -0.2840  0.2580
  923MOL0     O21762   9.524   5.426   2.592 -0.1838  0.2001 -0.4039
  923MOL0     C21763   9.628   5.368   2.675 -0.5349 -0.5736 -1.2000
  923MOL0     C21764   9.754   5.458   2.705  0.5711  0.2463  0.3263
  923MOL0     C21765   9.841   5.492   2.585 -0.2464 -0.1882 -0.2770
  923MOL0     C21766   9.962   5.577   2.621 -0.7150 -0.0688  0.7670
  923MOL0     C21767   9.920   5.706   2.667  1.3451 -0.3556  0.5677
  923MOL0     C21768   9.906   5.823   2.703 -0.3261 -0.0956 -0.4490
  923MOL0     C21769   9.366   5.243   2.650 -0.7017 -0.0836 -0.2862
  923MOL0     C21770   9.241   5.191   2.640  0.2420 -0.6336 -0.7195
  923MOL0     H21771   8.762   5.044   2.823 -2.9916 -0.4975 -0.1037
  923MOL0     H21772   8.598   4.877   2.778 -1.5742  0.0215 -1.2043
  923MOL0     H21773   8.661   4.622   2.410 -1.1857 -1.0637  0.5427
  923MOL0     H21774   8.558   4.742   2.349  2.7875  0.6448 -0.7433
  923MOL0     H21775   8.368   4.645   2.490 -0.0303 -1.7937  3.8464
  923MOL0     H21776   8.456   4.504   2.526  1.3430  0.3846 -0.3333
  923MOL0     H21777   8.474   4.448   2.284 -0.9504 -1.0308 -1.2798
  923MOL0     H21778   8.383   4.591   2.235  1.4679 -1.0165 -0.6351
  923MOL0     H21779   8.283   4.362   2.420  0.2415  1.5243  2.4367
  923MOL0     H21780   8.182   4.500   2.382  1.4433  0.4989  0.5872
  923MOL0     H21781   8.291   4.324   2.164 -0.0490 -0.5681  1.0484
  923MOL0     H21782   8.164   4.442   2.149  4.8327  0.5001 -1.5974
  923MOL0     H21783   8.027   4.295   2.310 -0.3073  1.6452 -1.3637
  923MOL0     H21784   8.164   4.181   2.304 -1.4287 -1.3371 -2.3389
  923MOL0     H21785   7.956   4.144   2.170 -0.7571  1.8000  3.7222
  923MOL0     H21786   8.015   4.260   2.050 -2.3829 -0.5024  1.0228
  923MOL0     H21787   8.185   4.016   2.136  0.1725  0.0055 -0.4747
  923MOL0     H21788   8.223   4.131   2.011  0.0772  0.9554  0.0870
  923MOL0     H21789   7.858   4.091   1.929  0.1191 -0.5364  1.6701
  923MOL0     H21790   7.748   3.722   1.855 -0.4757  0.5936  1.7015
  923MOL0     H21791   7.765   3.829   1.720 -3.3119  1.2681  0.9047
  923MOL0     H21792   7.626   4.012   1.822 -2.1744  1.6995  3.2600
  923MOL0     H21793   7.641   3.935   1.978 -2.7087  3.8929 -0.9560
  923MOL0     H21794   7.516   3.833   1.716  0.9040 -1.3870  0.2910
  923MOL0     H21795   7.526   3.728   1.871 -0.2551 -1.4647 -0.7764
  923MOL0     H21796   7.379   3.862   1.976 -1.9402 -2.9234 -1.3193
  923MOL0     H21797   7.309   3.831   1.819  0.8361 -1.4091  0.3319
  923MOL0     H21798   7.105   3.935   1.952  1.2272  0.0981  0.9839
  923MOL0     H21799   6.922   4.067   1.919 -0.2430  0.0850 -2.1374
  923MOL0     H21800   6.649   4.438   1.909  1.9020 -1.4859 -1.7791
  923MOL0     H21801   6.456   4.573   1.838 -0.5868 -1.3564 -0.8250
  923MOL0     H21802   6.274   4.690   1.705  0.9547  3.3195  0.8269
  923MOL0     H21803   6.366   4.587   1.589  1.4226 -0.1553 -2.3381
  923MOL0     H21804   6.342   4.793   1.434  0.0002  0.0642  0.5319
  923MOL0     H21805   6.264   4.879   1.556 -2.5847  0.5553 -0.3511
  923MOL0     H21806   6.098   4.675   1.559  0.3002  0.5131 -0.0503
  923MOL0     H21807   6.171   4.653   1.398 -0.4963  2.2490 -1.3706
  923MOL0     H21808   6.042   4.923   1.493 -0.1307 -0.1808  2.7307
  923MOL0     H21809   6.137   4.895   1.345  2.2437 -1.7541  0.5917
  923MOL0     H21810   5.871   4.892   1.325  0.2332 -0.8480 -1.7757
  923MOL0     H21811   5.888   4.734   1.411  0.2676 -0.0438  0.7830
  923MOL0     H21812   6.024   4.661   1.219 -0.0938 -0.9655 -2.3008
  923MOL0     H21813   6.011   4.826   1.157 -0.9050 -0.4546  0.1940
  923MOL0     H21814   5.859   4.628   1.068  1.3981  1.7867 -1.4990
  923MOL0     H21815   5.780   4.645   1.231 -0.2837 -1.8402 -1.3446
  923MOL0     H21816   5.674   4.842   1.171 -0.1433 -3.4180  0.6620
  923MOL0     H21817   5.681   4.781   1.012 -1.0896 -2.2831  2.1433
  923MOL0     H21818   6.690   4.783   1.557  2.9841 -0.0645  0.3714
  923MOL0     H21819   6.899   4.658   1.647 -0.2235  1.3860  1.6978
  923MOL0     H21820   7.143   4.405   1.787  0.1204 -0.5242  0.6994
  923MOL0     H21821   7.358   4.251   1.804  0.5835 -2.2734  1.0259
  923MOL0     H21822   8.803   4.769   2.404 -1.3107  1.9786 -1.3991
  923MOL0     H21823   8.971   4.942   2.454 -0.6947 -1.0816 -1.4011
  923MOL0     H21824   9.099   5.451   2.476 -0.2678 -0.7960 -0.3393
  923MOL0     H21825   9.298   5.548   2.510  2.0363  0.5254  0.6351
  923MOL0     H21826   9.666   5.279   2.625  1.0688 -0.6669  0.0922
  923MOL0     H21827   9.588   5.334   2.771 -1.7455  0.4833 -1.2958
  923MOL0     H21828   9.727   5.543   2.768 -3.5453 -0.1511 -0.6155
  923MOL0     H21829   9.818   5.403   2.775  1.7233 -1.8204 -2.1554
  923MOL0     H21830   9.782   5.548   2.512  1.2643  0.7214 -0.8518
  923MOL0     H21831   9.865   5.401   2.530 -1.3150 -0.7252  0.1272
  923MOL0     H21832  10.021   5.525   2.697  0.3853 -0.2740 -0.2025
  923MOL0     H21833  10.016   5.584   2.526 -2.0428  1.0782  0.0592
  923MOL0     H21834   9.879   5.918   2.745  1.1876 -0.3671  1.2442
  923MOL0     H21835   9.445   5.193   2.707  0.1556  0.9768 -0.5112
  923MOL0     H21836   9.226   5.096   2.691  1.4268 -2.2980 -3.2755
  924MOL0     O21837   0.597  10.497   7.241 -0.3955 -0.6924 -0.1592
  924MOL0     C21838   0.711  10.488   7.294  0.2129  0.0467 -0.3711
  924MOL0     O21839   0.742  10.412   7.404 -1.0508 -0.3330  0.0517
  924MOL0     C21840   0.647  10.319   7.447  0.0758  0.5557  0.4780
  924MOL0     C21841   0.684  10.187   7.473 -0.1417 -0.5582 -0.9868
  924MOL0     C21842   0.582  10.088   7.500  0.4098 -0.3678 -0.0368
  924MOL0     C21843   0.449  10.120   7.500  1.1418  0.3575  0.1728
  924MOL0     O21844   0.357  10.020   7.524  1.0320 -0.2003 -1.3618
  924MOL0     C21845   0.228  10.058   7.572  0.1455 -0.1430 -0.2026
  924MOL0     C21846   0.171   9.938   7.656  0.1868 -0.1600 -0.1141
  924MOL0     C21847   0.272   9.879   7.751 -1.0838  0.9963 -0.2978
  924MOL0     C21848   0.205   9.768   7.841 -0.6999 -0.2170 -0.0258
  924MOL0     C21849   0.307   9.722   7.945 -0.8214  0.7103 -0.8374
  924MOL0     C21850   0.237   9.653   8.062 -0.1696 -0.4877  0.1267
  924MOL0     C21851   0.340   9.594   8.155  0.0640  0.0527  0.2240
  924MOL0     C21852   0.292   9.549   8.293 -0.3744 -0.6040  0.6185
  924MOL0     N21853   0.211   9.431   8.291  0.1976 -0.3660 -0.2946
  924MOL0     C21854   0.263   9.303   8.271  0.1026  0.2209  0.1911
  924MOL0     C21855   0.156   9.229   8.278  0.9435  0.6127 -0.0925
  924MOL0     C21856   0.162   9.085   8.264  0.3841 -0.8092 -0.2124
  924MOL0     C21857   0.291   9.012   8.306 -0.9781  0.0231 -0.6018
  924MOL0     C21858   0.289   8.863   8.369  0.5181 -0.9632  0.4710
  924MOL0     C21859   0.236   8.752   8.273  0.3690 -2.0721 -0.7854
  924MOL0     O21860   0.211   8.636   8.353 -0.2241 -0.4205  0.4101
  924MOL0     C21861   0.308   8.545   8.335 -0.4164  0.8664 -1.2050
  924MOL0     C21862   0.348   8.496   8.207 -0.8084  0.0016 -0.6417
  924MOL0     C21863   0.451   8.394   8.198  0.6124 -0.7593  0.1266
  924MOL0     C21864   0.507   8.347   8.309 -0.1417  0.1439 -0.6885
  924MOL0     C21865   0.592   8.224   8.301 -0.3609 -0.1950  0.0115
  924MOL0     O21866   0.592   8.140   8.407 -0.6318 -0.7159  0.5330
  924MOL0     C21867   0.651   8.022   8.375  0.0755 -0.8872 -0.7577
  924MOL0     C21868   0.781   7.994   8.421 -1.0699  0.2274  0.8343
  924MOL0     C21869   0.846   7.874   8.383  0.8001  0.9701 -0.3199
  924MOL0     C21870   0.777   7.777   8.310  0.3910 -0.4795 -0.3231
  924MOL0     O21871   0.834   7.658   8.277 -0.2190 -0.2802  0.4651
  924MOL0     C21872   0.937   7.606   8.361  0.6562  0.4365  0.5331
  924MOL0     C21873   0.951   7.459   8.308  0.3469 -0.3682 -0.3464
  924MOL0     C21874   1.068   7.386   8.371 -0.3742  0.0063  0.3599
  924MOL0     C21875   1.058   7.362   8.523 -0.2103  0.6616  0.2623
  924MOL0     C21876   1.175   7.270   8.586 -0.3606  1.4636  1.3846
  924MOL0     C21877   1.153   7.125   8.548 -0.3927  0.9163 -0.3007
  924MOL0     C21878   1.046   7.049   8.630  0.3526 -0.5542 -0.2192
  924MOL0     C21879   1.044   6.890   8.627 -0.5982 -0.0769 -0.4457
  924MOL0    Cl21880   1.199   6.805   8.705 -0.4737  0.1295 -0.2032
  924MOL0     C21881   0.640   7.811   8.258 -1.4427  0.6482 -0.0949
  924MOL0     C21882   0.580   7.927   8.294  0.0622  0.0377  0.4335
  924MOL0     O21883   0.645   8.203   8.190  0.0803 -0.6886  0.5978
  924MOL0     C21884   0.482   8.402   8.439 -0.5544 -0.1916 -0.2451
  924MOL0     C21885   0.378   8.502   8.456 -0.4341 -0.2071  0.2758
  924MOL0     N21886   0.038   9.297   8.308  0.2091 -0.2195 -0.0827
  924MOL0     N21887   0.075   9.422   8.326 -0.7671  0.7496 -1.2985
  924MOL0     C21888   0.410  10.250   7.467 -0.4682 -0.0022  0.8314
  924MOL0     C21889   0.508  10.350   7.451 -0.5051  0.3067 -0.1293
  924MOL0     C21890   0.813  10.576   7.238 -0.6268 -1.4697 -0.0100
  924MOL0     C21891   0.943  10.533   7.238 -0.7577  0.4325  0.3349
  924MOL0     C21892   1.043  10.601   7.170 -0.2746 -0.3669  0.5054
  924MOL0     C21893   1.014  10.722   7.112  0.1549 -0.4947 -0.8052
  924MOL0     O21894   1.106  10.802   7.057  0.5832  0.5789 -1.2108
  924MOL0     C21895   1.233  10.748   7.019  0.2606  0.3115 -0.3231
  924MOL0     C21896   1.295  10.861   6.954 -0.3171  0.1450 -0.3494
  924MOL0     C21897   1.445  10.829   6.913  0.5843  0.6329 -0.4568
  924MOL0     C21898   1.526  10.959   6.910 -0.1470 -0.7247 -0.0885
  924MOL0     C21899   1.464  11.045   6.802  0.4070  0.5115  0.5115
  924MOL0     C21900   1.405  11.104   6.709  0.7215  0.1346 -0.3140
  924MOL0     C21901   0.882  10.778   7.121  0.2890  0.3250 -0.8101
  924MOL0     C21902   0.777  10.704   7.181 -0.2205  0.0046  0.6501
  924MOL0     H21903   0.786  10.152   7.459 -0.0458 -0.3595 -0.7844
  924MOL0     H21904   0.612   9.984   7.497 -1.4961 -0.9821  0.5929
  924MOL0     H21905   0.162  10.074   7.486  0.3712 -3.7650 -1.2170
  924MOL0     H21906   0.221  10.148   7.634  1.6264 -0.1302 -0.0275
  924MOL0     H21907   0.141   9.863   7.582 -1.6881  0.8352 -0.4211
  924MOL0     H21908   0.083   9.954   7.719 -0.2685 -3.6719  0.3544
  924MOL0     H21909   0.319   9.961   7.805 -1.2130  0.4253  0.6975
  924MOL0     H21910   0.357   9.831   7.700 -1.1502  0.4173  0.1346
  924MOL0     H21911   0.125   9.827   7.887 -0.1149 -0.1226  0.8949
  924MOL0     H21912   0.150   9.695   7.781 -0.6777 -1.3360  1.2682
  924MOL0     H21913   0.365   9.802   7.992 -0.6632  0.2979 -0.3296
  924MOL0     H21914   0.370   9.645   7.900 -0.0198  1.2174 -0.5950
  924MOL0     H21915   0.189   9.566   8.015  0.9578 -1.4536  0.7096
  924MOL0     H21916   0.170   9.716   8.121  0.2737 -0.3753  0.5212
  924MOL0     H21917   0.410   9.525   8.107 -0.3540 -1.6240  1.9121
  924MOL0     H21918   0.399   9.680   8.188  1.3065 -2.1458  4.4775
  924MOL0     H21919   0.244   9.638   8.334  0.9519  0.9330 -0.9898
  924MOL0     H21920   0.387   9.525   8.341  1.8125  0.3127 -2.8755
  924MOL0     H21921   0.367   9.279   8.251 -0.0354 -2.5978  2.2465
  924MOL0     H21922   0.153   9.059   8.158  1.6931  1.4727 -0.9472
  924MOL0     H21923   0.076   9.040   8.315 -1.2024  0.5266 -1.5918
  924MOL0     H21924   0.340   9.077   8.379  0.1307 -1.7692  0.3401
  924MOL0     H21925   0.358   9.020   8.219  0.3557  0.3976  0.4204
  924MOL0     H21926   0.391   8.842   8.400  0.2607 -0.4688  1.7302
  924MOL0     H21927   0.223   8.866   8.456 -2.8127 -0.3649 -1.8376
  924MOL0     H21928   0.315   8.746   8.198  1.3470  0.8414 -0.1133
  924MOL0     H21929   0.145   8.783   8.221  1.5339  0.8202 -1.2776
  924MOL0     H21930   0.292   8.538   8.125  0.5540  0.4284 -1.3822
  924MOL0     H21931   0.465   8.362   8.095 -3.0515 -2.0785 -0.1287
  924MOL0     H21932   0.832   8.069   8.481 -0.3370  0.1997  0.2489
  924MOL0     H21933   0.950   7.863   8.411  0.8710  3.1475  0.4081
  924MOL0     H21934   0.897   7.608   8.463  2.3550 -1.5847  1.2973
  924MOL0     H21935   1.030   7.662   8.355  0.4785  1.0112  2.5395
  924MOL0     H21936   0.974   7.469   8.202  1.8352 -0.3252 -0.0388
  924MOL0     H21937   0.857   7.402   8.309  0.1480 -0.0546 -0.9105
  924MOL0     H21938   1.159   7.445   8.351 -1.5425  1.5703 -0.5387
  924MOL0     H21939   1.061   7.289   8.321  0.9483 -0.0577  0.2397
  924MOL0     H21940   1.058   7.462   8.568  1.0140  1.3235 -1.1350
  924MOL0     H21941   0.962   7.316   8.551 -0.6423  2.3388  1.7648
  924MOL0     H21942   1.160   7.284   8.694 -3.9718  2.3045  0.9076
  924MOL0     H21943   1.269   7.305   8.543  0.7519 -2.9461 -0.2762
  924MOL0     H21944   1.255   7.086   8.555 -0.3073  0.7184 -2.0889
  924MOL0     H21945   1.120   7.109   8.445 -0.4778  1.8142 -0.4178
  924MOL0     H21946   1.048   7.081   8.734 -4.7934 -2.6389  0.7861
  924MOL0     H21947   0.953   7.068   8.575  0.2040 -1.1199 -0.1638
  924MOL0     H21948   1.045   6.860   8.522 -1.0255 -0.5471 -0.3192
  924MOL0     H21949   0.951   6.846   8.665  2.0861 -3.2173  3.2005
  924MOL0     H21950   0.582   7.742   8.197 -1.5133 -0.3776  1.0950
  924MOL0     H21951   0.478   7.944   8.260  0.3198  3.4076  1.0002
  924MOL0     H21952   0.539   8.365   8.524  1.6093  1.3838 -0.9065
  924MOL0     H21953   0.346   8.541   8.552  1.4833  1.5064  0.2901
  924MOL0     H21954   0.308  10.288   7.459  0.2999  1.7799 -3.6946
  924MOL0     H21955   0.472  10.450   7.428 -1.2876 -0.6916 -3.9039
  924MOL0     H21956   0.961  10.428   7.262 -2.0900  0.4660  1.5897
  924MOL0     H21957   1.138  10.550   7.161 -0.3137 -0.1228 -2.4357
  924MOL0     H21958   1.224  10.652   6.968  1.5866 -0.6858  1.2322
  924MOL0     H21959   1.285  10.728   7.113 -1.7456  4.1154  1.8190
  924MOL0     H21960   1.240  10.893   6.864  2.6222 -0.7532 -2.6481
  924MOL0     H21961   1.289  10.946   7.023 -1.0414  1.8649 -2.3910
  924MOL0     H21962   1.451  10.775   6.818  1.8748 -0.0964  0.0175
  924MOL0     H21963   1.484  10.755   6.983  2.4182  0.6083 -1.4567
  924MOL0     H21964   1.516  10.999   7.012  2.0755 -1.0136  0.2909
  924MOL0     H21965   1.631  10.942   6.886 -0.1999 -1.1025 -0.0634
  924MOL0     H21966   1.357  11.154   6.628  0.2065 -1.2918 -0.9269
  924MOL0     H21967   0.855  10.874   7.080 -0.6600 -1.2237 -4.2045
  924MOL0     H21968   0.673  10.736   7.177 -1.1159 -2.6987 -0.2300
  925MOL0     O21969   2.088   3.568   9.746  0.4529  0.1021 -0.3446
  925MOL0     C21970   2.135   3.461   9.770  0.0492 -0.4338  0.8599
  925MOL0     O21971   2.065   3.361   9.830 -0.1465 -0.0848  0.4183
  925MOL0     C21972   1.935   3.388   9.870  0.0057  0.6798  0.5405
  925MOL0     C21973   1.904   3.485   9.963  0.0008  0.2210  0.4787
  925MOL0     C21974   1.769   3.518   9.979  0.3318  0.1889  0.3172
  925MOL0     C21975   1.667   3.453   9.905  0.7120  0.3806  0.6843
  925MOL0     O21976   1.538   3.493   9.944 -0.6261  0.4124  0.6488
  925MOL0     C21977   1.428   3.467   9.863  0.9812  0.8192 -0.6555
  925MOL0     C21978   1.286   3.483   9.937 -0.5934  1.2777  0.4932
  925MOL0     C21979   1.259   3.609  10.014 -1.0717  0.8686 -0.4893
  925MOL0     C21980   1.278   3.731   9.917 -0.9249 -0.3160 -0.4688
  925MOL0     C21981   1.187   3.742   9.787 -0.2101 -0.0762  0.2143
  925MOL0     C21982   1.036   3.759   9.813  0.1398 -0.4259  0.0595
  925MOL0     C21983   0.976   3.901   9.852 -0.0029  0.2700  0.3388
  925MOL0     C21984   0.994   4.011   9.740  0.6488 -0.2374 -0.0377
  925MOL0     N21985   0.952   4.138   9.800  0.2777  0.5503  0.4873
  925MOL0     C21986   0.992   4.208   9.913 -0.4865 -0.3393 -1.1554
  925MOL0     C21987   0.890   4.289   9.946 -0.2672  0.6800  0.2504
  925MOL0     C21988   0.883   4.402  10.056  1.0870 -0.1745 -1.1516
  925MOL0     C21989   0.969   4.516  10.012  0.9290 -0.0013 -0.6908
  925MOL0     C21990   0.890   4.623   9.939  0.2217  0.5594 -0.5442
  925MOL0     C21991   0.965   4.746   9.887 -1.1673  0.7668 -0.0816
  925MOL0     O21992   1.042   4.806   9.999  0.6166 -0.3447  0.6979
  925MOL0     C21993   1.034   4.944   9.997 -0.2908  0.1224  0.0909
  925MOL0     C21994   1.048   5.015   9.880  1.3228 -0.2208 -0.3830
  925MOL0     C21995   1.044   5.155   9.883  0.4795  0.1815  0.2415
  925MOL0     C21996   1.052   5.226  10.001 -0.4744 -0.2910  0.1769
  925MOL0     C21997   1.046   5.379   9.996  0.5427  0.4248  1.2930
  925MOL0     O21998   1.010   5.442   9.880 -0.3144  0.4348 -0.0063
  925MOL0     C21999   0.994   5.579   9.869  0.8420 -1.6029 -0.2076
  925MOL0     C22000   1.000   5.635   9.736  0.2264  0.2858 -0.2863
  925MOL0     C22001   0.977   5.765   9.706 -0.2791  0.7455  0.0955
  925MOL0     C22002   0.941   5.860   9.804 -0.5321  0.0241  0.9712
  925MOL0     O22003   0.932   6.001   9.790 -0.8341  0.2813 -0.3872
  925MOL0     C22004   1.000   6.055   9.672  0.5267 -0.4446  0.6591
  925MOL0     C22005   1.025   6.206   9.686  0.3764 -0.3219 -0.1937
  925MOL0     C22006   0.925   6.286   9.770 -0.0210  0.7572 -0.7720
  925MOL0     C22007   0.943   6.431   9.740 -0.1783 -0.7746 -0.0028
  925MOL0     C22008   0.832   6.513   9.796  0.3293  0.0258  0.2211
  925MOL0     C22009   0.854   6.663   9.759 -0.6984  0.7728  0.3092
  925MOL0     C22010   0.811   6.684   9.608  0.8463  0.3510 -0.0611
  925MOL0     C22011   0.823   6.832   9.557 -0.3464  0.4061  0.9298
  925MOL0    Cl22012   0.697   6.917   9.645 -0.4317  0.3801 -0.1299
  925MOL0     C22013   0.944   5.812   9.935  0.4504  0.2815 -0.6908
  925MOL0     C22014   0.970   5.679   9.974  0.3303 -0.4190 -0.3093
  925MOL0     O22015   1.039   5.438  10.104 -0.6138  0.3111 -0.6045
  925MOL0     C22016   1.042   5.154  10.120 -0.5566  0.4440  0.5950
  925MOL0     C22017   1.043   5.017  10.120 -0.2009 -0.0232 -0.3807
  925MOL0     N22018   0.787   4.265   9.855 -0.2376 -0.8381  0.6525
  925MOL0     N22019   0.824   4.182   9.776  0.5100  0.3017 -0.0345
  925MOL0     C22020   1.703   3.346   9.823 -0.0364 -0.7582  0.2860
  925MOL0     C22021   1.834   3.320   9.799 -0.4589  0.6594 -0.1590
  925MOL0     C22022   2.266   3.434   9.704 -0.2657 -0.2683  0.3912
  925MOL0     C22023   2.344   3.541   9.650 -0.6443 -0.0151 -0.6138
  925MOL0     C22024   2.458   3.515   9.576 -0.4834  0.1457  0.5506
  925MOL0     C22025   2.482   3.378   9.540 -0.3030 -0.1157  0.2303
  925MOL0     O22026   2.571   3.334   9.452  0.0436  0.0792 -0.2636
  925MOL0     C22027   2.669   3.421   9.402  0.1831 -0.1379 -0.9848
  925MOL0     C22028   2.760   3.332   9.315 -0.0765  0.7036  0.5295
  925MOL0     C22029   2.854   3.240   9.398  0.1739 -0.6279  0.3404
  925MOL0     C22030   2.910   3.131   9.301  0.2568  0.0662 -0.0378
  925MOL0     C22031   3.027   3.061   9.357  0.3715  0.5899  0.5870
  925MOL0     C22032   3.138   3.027   9.391  0.5582  0.3993 -0.1381
  925MOL0     C22033   2.401   3.275   9.596 -0.7540  0.4255  0.9322
  925MOL0     C22034   2.294   3.304   9.674  0.6870  0.3154  0.1203
  925MOL0     H22035   1.990   3.519  10.019  0.0636  1.7136 -0.4780
  925MOL0     H22036   1.751   3.602  10.045  0.6950  0.8552 -0.4188
  925MOL0     H22037   1.426   3.367   9.818 -0.4665  0.2196  0.6489
  925MOL0     H22038   1.435   3.545   9.786 -1.0126 -1.2219 -3.0853
  925MOL0     H22039   1.268   3.398  10.003 -1.4483 -1.6817 -3.2066
  925MOL0     H22040   1.204   3.471   9.866 -0.3875  4.0027 -0.3267
  925MOL0     H22041   1.323   3.622  10.101 -0.3412  0.2735 -0.9197
  925MOL0     H22042   1.157   3.618  10.052 -0.4575  1.6709  1.0533
  925MOL0     H22043   1.258   3.822   9.975  2.8656 -0.2358  1.0265
  925MOL0     H22044   1.384   3.733   9.891 -1.4479 -4.0735 -3.7116
  925MOL0     H22045   1.200   3.644   9.739 -0.6609  0.2414 -0.5668
  925MOL0     H22046   1.229   3.820   9.724  1.7247 -0.8880  0.4227
  925MOL0     H22047   1.010   3.682   9.886 -1.7007 -0.6351 -0.7479
  925MOL0     H22048   0.975   3.719   9.731  0.5674 -3.7235  1.1931
  925MOL0     H22049   0.870   3.891   9.875 -0.3864  2.5604 -0.1508
  925MOL0     H22050   1.029   3.930   9.943 -0.3902 -0.4120  0.7805
  925MOL0     H22051   0.926   3.984   9.659 -0.5027  3.6417 -0.5729
  925MOL0     H22052   1.100   4.008   9.712  0.6070 -2.6515 -0.1155
  925MOL0     H22053   1.093   4.202   9.953 -0.9278 -0.6886 -0.0461
  925MOL0     H22054   0.918   4.368  10.154 -0.3857  0.4946 -0.3595
  925MOL0     H22055   0.785   4.444  10.077  1.0424 -0.3362 -1.0250
  925MOL0     H22056   1.057   4.484   9.955  1.7367 -0.0611  0.5566
  925MOL0     H22057   1.003   4.578  10.096 -0.6145 -0.4347  0.3039
  925MOL0     H22058   0.839   4.580   9.852  0.1150 -1.4636  0.4566
  925MOL0     H22059   0.803   4.653   9.998  0.6399 -1.3713  1.1554
  925MOL0     H22060   0.901   4.822   9.841  2.8916  2.8936 -2.8480
  925MOL0     H22061   1.041   4.719   9.813 -2.5578 -0.3460 -1.1576
  925MOL0     H22062   1.050   4.963   9.784 -2.3680 -2.3524  0.4815
  925MOL0     H22063   1.031   5.204   9.787  0.8854 -0.7940 -0.3200
  925MOL0     H22064   1.029   5.585   9.645  0.8339 -2.1272  1.1567
  925MOL0     H22065   0.981   5.781   9.598 -0.9395 -3.7099 -0.7786
  925MOL0     H22066   0.928   6.020   9.598  2.3203 -3.0909  0.0010
  925MOL0     H22067   1.089   5.994   9.655 -0.6452 -1.2892 -3.5603
  925MOL0     H22068   1.033   6.250   9.586  0.1647  0.7263  0.2399
  925MOL0     H22069   1.128   6.207   9.723  1.7192 -0.8258 -3.5212
  925MOL0     H22070   0.934   6.273   9.878 -1.9976 -0.1063 -0.6715
  925MOL0     H22071   0.823   6.250   9.748 -0.4306 -0.1750  2.1961
  925MOL0     H22072   1.041   6.462   9.775 -1.0343  0.5453  1.3603
  925MOL0     H22073   0.952   6.449   9.632 -1.4482  1.0177  0.1503
  925MOL0     H22074   0.836   6.509   9.905  0.7528 -0.8114  0.1772
  925MOL0     H22075   0.737   6.480   9.752  0.4128 -0.4612  0.4049
  925MOL0     H22076   0.957   6.693   9.779  1.3010 -2.1400 -4.0508
  925MOL0     H22077   0.787   6.731   9.812  0.9311 -0.1413  3.7673
  925MOL0     H22078   0.871   6.629   9.535  1.9901 -0.0050  1.1026
  925MOL0     H22079   0.704   6.661   9.605  0.9416 -0.1261  0.1492
  925MOL0     H22080   0.804   6.839   9.450 -0.0595  2.7230  0.9712
  925MOL0     H22081   0.910   6.895   9.578  1.2673 -2.7250  5.2215
  925MOL0     H22082   0.916   5.883  10.013 -3.1118 -2.1268  0.4974
  925MOL0     H22083   0.962   5.645  10.077  0.7721 -1.6261 -0.6511
  925MOL0     H22084   1.030   5.209  10.213 -5.2280 -1.6836  1.5729
  925MOL0     H22085   1.042   4.959  10.212  0.3918 -0.8822 -0.9058
  925MOL0     H22086   1.625   3.294   9.769  1.3055 -2.4374 -0.1289
  925MOL0     H22087   1.840   3.249   9.716 -0.6126 -1.0370  1.2315
  925MOL0     H22088   2.297   3.638   9.667 -2.4224 -0.2954 -3.2449
  925MOL0     H22089   2.517   3.602   9.548 -0.4061 -0.9448 -3.1276
  925MOL0     H22090   2.731   3.466   9.480 -0.6129 -0.1011 -0.3612
  925MOL0     H22091   2.628   3.494   9.332 -1.6258  0.8814  1.0334
  925MOL0     H22092   2.690   3.274   9.255 -0.7670  2.9700 -1.0121
  925MOL0     H22093   2.814   3.401   9.249  0.4301 -0.8932 -0.7934
  925MOL0     H22094   2.822   3.195   9.492 -0.3191 -1.6849 -0.3210
  925MOL0     H22095   2.933   3.307   9.434 -1.9237  0.1833  3.8648
  925MOL0     H22096   2.833   3.055   9.287  0.5178 -0.2840  0.3827
  925MOL0     H22097   2.929   3.171   9.201 -1.3972 -0.0518 -0.4186
  925MOL0     H22098   3.226   2.974   9.423 -0.6620 -2.2608 -0.8872
  925MOL0     H22099   2.422   3.169   9.582 -1.2575  0.4203  0.1229
  925MOL0     H22100   2.227   3.223   9.699  0.7011 -0.0378 -0.9366
  926MOL0     O22101   6.174   4.480   6.637  0.1893  0.3053  0.7495
  926MOL0     C22102   6.181   4.358   6.655 -0.1181 -0.1287  1.0971
  926MOL0     O22103   6.204   4.300   6.769  0.1367 -0.6143  0.3349
  926MOL0     C22104   6.162   4.357   6.883  0.1701 -0.3940 -0.8680
  926MOL0     C22105   6.232   4.340   7.006  0.4663 -0.2139 -0.5188
  926MOL0     C22106   6.192   4.398   7.124  0.2292 -0.7345 -0.1546
  926MOL0     C22107   6.058   4.455   7.137  0.3549  0.1079  0.1624
  926MOL0     O22108   6.007   4.515   7.247  0.1120  0.1477  1.1118
  926MOL0     C22109   6.086   4.517   7.368  0.6560 -0.3094  0.1723
  926MOL0     C22110   6.035   4.594   7.483  0.6728  0.5864 -0.3774
  926MOL0     C22111   5.894   4.536   7.526 -1.2653  0.0518  0.2258
  926MOL0     C22112   5.847   4.611   7.658  1.1475  0.7460 -0.3418
  926MOL0     C22113   5.694   4.646   7.663  0.5524 -0.0097 -0.7554
  926MOL0     C22114   5.635   4.743   7.556 -1.4234  1.2718 -0.4074
  926MOL0     C22115   5.712   4.879   7.537  0.1962  1.1760  0.0084
  926MOL0     C22116   5.630   4.982   7.469 -0.5488  0.4930 -0.0560
  926MOL0     N22117   5.533   5.056   7.551 -0.3600  0.9538 -0.3945
  926MOL0     C22118   5.409   5.093   7.505  0.3954  0.7092 -0.0567
  926MOL0     C22119   5.329   5.107   7.616  0.6574 -0.3497  0.7808
  926MOL0     C22120   5.185   5.156   7.617  0.0729 -0.6926  0.2734
  926MOL0     C22121   5.129   5.124   7.759  0.2878 -0.0986 -0.3367
  926MOL0     C22122   4.976   5.145   7.774  0.3351 -0.1587  0.2662
  926MOL0     C22123   4.927   5.148   7.915 -0.1048  0.9695 -0.3000
  926MOL0     O22124   4.782   5.168   7.928 -0.3111  0.2099 -0.4315
  926MOL0     C22125   4.696   5.085   7.865 -0.5994  0.8213  0.1567
  926MOL0     C22126   4.589   5.154   7.804  0.2522  0.5619 -0.8410
  926MOL0     C22127   4.486   5.081   7.748  0.8357  0.5912  0.3261
  926MOL0     C22128   4.483   4.937   7.741 -0.2848 -0.0865 -0.3850
  926MOL0     C22129   4.368   4.862   7.690  0.1051 -0.1247 -0.8524
  926MOL0     O22130   4.255   4.947   7.673 -0.6602 -1.2984 -0.8226
  926MOL0     C22131   4.127   4.911   7.635 -0.5567 -0.0125  0.0169
  926MOL0     C22132   4.060   4.978   7.541 -0.6257  0.3425  0.4180
  926MOL0     C22133   3.928   4.932   7.501  0.3084 -0.6672  0.3540
  926MOL0     C22134   3.872   4.826   7.560 -0.4823 -0.1186  0.4625
  926MOL0     O22135   3.752   4.770   7.517 -0.7184  0.2238 -0.3832
  926MOL0     C22136   3.678   4.802   7.399 -0.3900  0.4236  0.5730
  926MOL0     C22137   3.561   4.701   7.410  0.3647 -0.0374 -1.2351
  926MOL0     C22138   3.459   4.741   7.315  0.0714 -0.4695  0.1506
  926MOL0     C22139   3.353   4.631   7.300  0.0621  0.0696 -0.0086
  926MOL0     C22140   3.247   4.687   7.208  0.7901  0.5321  0.3516
  926MOL0     C22141   3.151   4.564   7.180  0.3694  0.0615  0.0342
  926MOL0     C22142   3.055   4.611   7.068  0.1459 -0.5988  1.1087
  926MOL0     C22143   2.912   4.589   7.099 -0.3481 -0.6395  0.2132
  926MOL0    Cl22144   2.881   4.414   7.148 -0.0060 -0.5088 -0.0580
  926MOL0     C22145   3.942   4.754   7.651 -0.6359 -0.2789  0.8583
  926MOL0     C22146   4.066   4.797   7.689  0.4163  0.0753  0.5091
  926MOL0     O22147   4.376   4.738   7.672  0.3809  0.5349  0.2202
  926MOL0     C22148   4.601   4.879   7.804 -0.1889  0.5310  0.6360
  926MOL0     C22149   4.709   4.948   7.850 -0.1715  0.5803 -0.2516
  926MOL0     N22150   5.398   5.067   7.727 -0.2328  0.2037 -0.6066
  926MOL0     N22151   5.512   5.026   7.684 -0.1985  0.0428 -0.3851
  926MOL0     C22152   5.993   4.493   7.013  0.2717  0.0784  0.4720
  926MOL0     C22153   6.041   4.440   6.893 -0.7280  0.2751 -0.1578
  926MOL0     C22154   6.179   4.274   6.528 -0.3143 -0.5704 -0.3526
  926MOL0     C22155   6.165   4.140   6.530  0.8594 -0.0477 -0.3042
  926MOL0     C22156   6.143   4.063   6.417 -0.1126 -0.8629  0.1621
  926MOL0     C22157   6.145   4.130   6.295  0.1532  0.2670 -1.1616
  926MOL0     O22158   6.131   4.062   6.178 -0.2837 -0.0495 -0.0722
  926MOL0     C22159   6.220   3.943   6.181  0.1419  0.2889  1.3145
  926MOL0     C22160   6.295   3.921   6.046 -1.1314 -0.0415  0.7006
  926MOL0     C22161   6.355   4.049   5.976  0.4722  0.1539 -1.0866
  926MOL0     C22162   6.423   4.016   5.842  0.2737  0.1022 -0.0975
  926MOL0     C22163   6.339   3.951   5.749  0.1311  0.5147 -0.3204
  926MOL0     C22164   6.270   3.896   5.657  0.1973  0.0868 -0.5849
  926MOL0     C22165   6.166   4.271   6.294 -0.1715 -0.0231 -0.5891
  926MOL0     C22166   6.192   4.338   6.411  0.2845  0.2969  0.3624
  926MOL0     H22167   6.323   4.282   6.998  0.1122 -0.4786 -4.2378
  926MOL0     H22168   6.249   4.387   7.215  1.1008 -2.8300 -0.8878
  926MOL0     H22169   6.190   4.547   7.356  1.4797 -3.2150 -0.8905
  926MOL0     H22170   6.088   4.411   7.395  0.9758 -0.5134 -0.6274
  926MOL0     H22171   6.012   4.698   7.456 -4.5435 -0.2126 -0.1231
  926MOL0     H22172   6.093   4.598   7.575  3.3280  1.9108 -1.9865
  926MOL0     H22173   5.906   4.428   7.539  2.0196  0.3607  0.4675
  926MOL0     H22174   5.835   4.556   7.436  3.1551 -0.9256 -3.1716
  926MOL0     H22175   5.885   4.559   7.747 -2.9179  1.7020  2.2274
  926MOL0     H22176   5.895   4.708   7.644  1.1497  0.9632  1.0076
  926MOL0     H22177   5.687   4.695   7.761 -0.4824  0.5351 -1.1004
  926MOL0     H22178   5.632   4.557   7.652  2.5470 -1.6077  0.0335
  926MOL0     H22179   5.534   4.768   7.588 -2.9149 -0.3587 -3.4344
  926MOL0     H22180   5.627   4.699   7.456 -0.4398  3.6103 -1.5696
  926MOL0     H22181   5.758   4.916   7.629 -0.4409 -1.0679  1.3112
  926MOL0     H22182   5.805   4.866   7.481 -0.3753  2.2697 -1.2483
  926MOL0     H22183   5.574   4.953   7.379 -1.0753  0.4932  0.2655
  926MOL0     H22184   5.703   5.056   7.434 -0.4703 -0.8263 -3.0037
  926MOL0     H22185   5.393   5.113   7.400  2.6363  1.3831 -0.3380
  926MOL0     H22186   5.119   5.112   7.542 -0.8679 -1.3593  1.4566
  926MOL0     H22187   5.181   5.264   7.600  0.1759 -0.7339 -0.0255
  926MOL0     H22188   5.171   5.196   7.829  1.1885  0.2731 -1.2400
  926MOL0     H22189   5.156   5.021   7.785  0.6667  0.0232 -0.2514
  926MOL0     H22190   4.957   5.243   7.729  4.1432  0.6215 -0.0358
  926MOL0     H22191   4.926   5.057   7.732  0.0507 -1.7296  3.6222
  926MOL0     H22192   4.982   5.231   7.960  1.6968 -0.4929  0.3201
  926MOL0     H22193   4.955   5.055   7.966  1.4848  1.2611 -0.6021
  926MOL0     H22194   4.578   5.259   7.826 -0.9530 -0.0943  2.1409
  926MOL0     H22195   4.408   5.140   7.700  0.2192 -1.3829 -1.2637
  926MOL0     H22196   4.115   5.061   7.497  0.8210 -1.1858 -0.8290
  926MOL0     H22197   3.881   4.989   7.422 -2.3165 -3.0340  0.0659
  926MOL0     H22198   3.738   4.784   7.309 -3.5082  1.4635 -1.9062
  926MOL0     H22199   3.646   4.906   7.382  0.0104  0.3624 -0.6938
  926MOL0     H22200   3.518   4.691   7.510 -1.2324  0.9614 -1.7877
  926MOL0     H22201   3.593   4.599   7.389 -1.0615 -0.4902 -1.2790
  926MOL0     H22202   3.507   4.770   7.221 -1.4905 -0.3493 -0.6523
  926MOL0     H22203   3.411   4.831   7.354 -1.1215 -0.5090 -1.1130
  926MOL0     H22204   3.405   4.557   7.238 -1.5796 -0.4433 -0.8076
  926MOL0     H22205   3.327   4.592   7.399 -1.8551  1.5416  0.1045
  926MOL0     H22206   3.282   4.739   7.118 -0.7367 -0.4968 -0.8984
  926MOL0     H22207   3.193   4.761   7.267  1.1407 -1.6926  3.7303
  926MOL0     H22208   3.101   4.522   7.267  0.2112  0.0899 -0.0425
  926MOL0     H22209   3.209   4.480   7.139 -0.2325  0.2533 -1.2777
  926MOL0     H22210   3.071   4.717   7.044 -0.6926 -0.9474 -1.2706
  926MOL0     H22211   3.084   4.549   6.983 -2.5599 -3.1521  1.8682
  926MOL0     H22212   2.842   4.643   7.036 -0.5100  2.5747  2.8825
  926MOL0     H22213   2.894   4.649   7.188 -0.5174  3.1613 -2.1671
  926MOL0     H22214   3.880   4.671   7.685 -1.3682 -0.6145 -1.1084
  926MOL0     H22215   4.120   4.743   7.767 -0.9847 -0.8991  0.8503
  926MOL0     H22216   4.604   4.770   7.813  0.0637  0.7159  3.5995
  926MOL0     H22217   4.801   4.895   7.873 -0.3518  0.0063 -0.8406
  926MOL0     H22218   5.895   4.538   7.024 -0.7716 -2.4145  2.4854
  926MOL0     H22219   5.990   4.461   6.800 -0.3581  2.9800  0.1769
  926MOL0     H22220   6.153   4.093   6.627 -0.5918  0.0934 -0.4001
  926MOL0     H22221   6.112   3.959   6.413  0.2157 -0.9286 -1.1422
  926MOL0     H22222   6.156   3.857   6.201  0.1930 -0.6106 -1.8094
  926MOL0     H22223   6.296   3.949   6.260 -2.6865  0.9198  4.1931
  926MOL0     H22224   6.379   3.854   6.064  0.4931  1.7395  0.1561
  926MOL0     H22225   6.219   3.887   5.975 -1.2926  1.6377  0.0170
  926MOL0     H22226   6.420   4.106   6.043  0.6755  1.1513 -2.1071
  926MOL0     H22227   6.279   4.125   5.953 -1.5786 -1.9402 -1.5508
  926MOL0     H22228   6.447   4.112   5.794  0.2287 -0.1510 -0.6339
  926MOL0     H22229   6.515   3.962   5.865  2.9955  2.8346 -3.3256
  926MOL0     H22230   6.210   3.861   5.576 -1.8311 -1.4450  1.4611
  926MOL0     H22231   6.162   4.320   6.198  1.4431 -1.6410 -1.5450
  926MOL0     H22232   6.214   4.445   6.412  2.5233 -0.1128  1.3442
  927MOL0     O22233   6.215   0.661  11.057  0.1195  1.1041 -0.4512
  927MOL0     C22234   6.210   0.553  10.997 -0.0864 -0.3502 -0.0834
  927MOL0     O22235   6.127   0.449  11.029 -0.7096 -0.1189  1.3380
  927MOL0     C22236   6.033   0.464  11.123  0.0397  0.0510 -0.6874
  927MOL0     C22237   5.932   0.558  11.137 -0.2505 -0.9120 -0.0579
  927MOL0     C22238   5.846   0.564  11.246 -0.2515 -0.6088  0.7382
  927MOL0     C22239   5.841   0.461  11.346 -1.5062  0.1976  0.0356
  927MOL0     O22240   5.755   0.479  11.447 -0.8503 -0.6100  0.5498
  927MOL0     C22241   5.729   0.366  11.530  0.0242  0.4334  0.5404
  927MOL0     C22242   5.624   0.277  11.464 -0.9562 -0.0182  0.4109
  927MOL0     C22243   5.583   0.174  11.572 -0.4367 -0.4705  0.1890
  927MOL0     C22244   5.494   0.249  11.664 -0.0056 -0.1194  0.7348
  927MOL0     C22245   5.413   0.162  11.755  0.4933  0.4452 -1.5950
  927MOL0     C22246   5.307   0.224  11.846 -0.4913  0.5529  0.1875
  927MOL0     C22247   5.251   0.112  11.941 -0.3301 -0.4156  0.1904
  927MOL0     C22248   5.135   0.170  12.030  0.4090  0.1095  0.0071
  927MOL0     N22249   5.042   0.258  11.950 -0.0441  0.0841 -0.2905
  927MOL0     C22250   4.935   0.210  11.893  0.4421  0.0598 -0.4001
  927MOL0     C22251   4.887   0.310  11.831 -0.8180  0.2242  0.3812
  927MOL0     C22252   4.746   0.300  11.773 -0.6852 -0.6401  0.5810
  927MOL0     C22253   4.645   0.405  11.811 -0.4428 -0.0550  0.4745
  927MOL0     C22254   4.605   0.406  11.960 -0.4134 -0.3157 -0.0607
  927MOL0     C22255   4.561   0.270  12.001  0.2415  0.3384  0.2708
  927MOL0     O22256   4.455   0.262  12.105  0.1468  0.0217  0.1745
  927MOL0     C22257   4.329   0.288  12.061 -0.4488 -0.4865 -0.3176
  927MOL0     C22258   4.286   0.324  11.929  0.3598 -0.4373 -0.5846
  927MOL0     C22259   4.149   0.356  11.902 -0.0809  0.3205 -0.3540
  927MOL0     C22260   4.052   0.359  12.005 -0.0287  0.0976  0.4560
  927MOL0     C22261   3.908   0.376  11.974 -0.4398 -0.6181 -0.7495
  927MOL0     O22262   3.826   0.378  12.085 -0.1250  0.6596 -0.4345
  927MOL0     C22263   3.686   0.366  12.081 -0.8579 -0.6453 -0.0027
  927MOL0     C22264   3.641   0.271  11.992  0.5780  0.1057  1.0481
  927MOL0     C22265   3.503   0.241  12.005 -0.6248 -0.1080  0.6193
  927MOL0     C22266   3.420   0.310  12.082 -0.0769 -0.8465  0.3496
  927MOL0     O22267   3.286   0.281  12.083 -0.3679  0.3136 -0.0786
  927MOL0     C22268   3.194   0.375  12.162 -0.1723  0.8230  1.0296
  927MOL0     C22269   3.049   0.338  12.168 -0.3062  0.1150 -0.1347
  927MOL0     C22270   2.973   0.320  12.049  0.7851 -0.6804  0.9619
  927MOL0     C22271   2.830   0.263  12.075 -0.6181 -0.2314 -0.7261
  927MOL0     C22272   2.756   0.234  11.940 -0.7719  0.3210  0.0209
  927MOL0     C22273   2.818   0.116  11.857  0.2696 -0.2553 -0.2771
  927MOL0     C22274   2.821  -0.014  11.938  0.2476  0.2020 -0.1123
  927MOL0     C22275   2.685  -0.059  11.984  0.3725 -0.4805  0.1785
  927MOL0    Cl22276   2.695  -0.215  12.061  0.2488  0.0693  0.2297
  927MOL0     C22277   3.475   0.404  12.166  0.0532  0.0979 -0.2499
  927MOL0     C22278   3.607   0.438  12.166 -0.2300 -0.5205 -0.6232
  927MOL0     O22279   3.872   0.419  11.867  0.2187 -0.1575  0.5018
  927MOL0     C22280   4.095   0.317  12.132 -0.3216  0.4204 -0.2448
  927MOL0     C22281   4.228   0.296  12.162  0.0335 -0.1615 -0.0681
  927MOL0     N22282   4.959   0.418  11.846 -0.5069  0.3900  1.0613
  927MOL0     N22283   5.064   0.388  11.925  0.9422 -0.8844  0.7738
  927MOL0     C22284   5.928   0.350  11.326 -1.5795  1.1390  0.8083
  927MOL0     C22285   6.013   0.352  11.215  0.4578 -1.0132  0.1629
  927MOL0     C22286   6.313   0.538  10.894 -0.9701  0.2844 -0.1830
  927MOL0     C22287   6.312   0.422  10.808  0.2327 -0.8040  0.2166
  927MOL0     C22288   6.401   0.413  10.704 -0.0434 -0.1827 -0.0103
  927MOL0     C22289   6.487   0.519  10.660  0.2308  0.2982  0.0390
  927MOL0     O22290   6.581   0.509  10.553  0.8132  0.2193  0.1382
  927MOL0     C22291   6.537   0.594  10.443 -0.4684 -0.4122 -0.1191
  927MOL0     C22292   6.671   0.633  10.358  1.1607 -0.7775 -0.4583
  927MOL0     C22293   6.782   0.669  10.456  0.2400 -0.7106  0.0722
  927MOL0     C22294   6.883   0.744  10.385 -0.8678 -0.6059 -1.2998
  927MOL0     C22295   6.999   0.778  10.470  0.4284 -0.0345 -0.5288
  927MOL0     C22296   7.095   0.811  10.532 -0.7920 -0.9281 -0.2591
  927MOL0     C22297   6.489   0.628  10.744 -0.0880  0.0188 -1.1257
  927MOL0     C22298   6.403   0.638  10.866 -0.4714  0.4679  0.3214
  927MOL0     H22299   5.937   0.648  11.076  2.6556 -0.0241  1.2846
  927MOL0     H22300   5.769   0.639  11.258  1.8264  1.3151  3.2582
  927MOL0     H22301   5.703   0.410  11.626  0.9771 -0.4535  1.2283
  927MOL0     H22302   5.823   0.314  11.549  2.1988  3.6986 -0.5945
  927MOL0     H22303   5.676   0.230  11.381 -0.9510  1.6108 -0.5389
  927MOL0     H22304   5.540   0.331  11.418 -0.7003  1.0970  1.2180
  927MOL0     H22305   5.669   0.143  11.633 -2.2420 -0.2354  3.0235
  927MOL0     H22306   5.547   0.077  11.535 -0.4810 -0.7967  1.0714
  927MOL0     H22307   5.553   0.316  11.727  2.1481 -0.6468 -0.6134
  927MOL0     H22308   5.431   0.315  11.603  1.1833 -1.4076 -2.1025
  927MOL0     H22309   5.481   0.103  11.817 -1.1656  0.2978  0.1830
  927MOL0     H22310   5.363   0.086  11.695 -0.1877 -0.3853 -0.0355
  927MOL0     H22311   5.235   0.268  11.776  1.3322  0.4748 -1.8551
  927MOL0     H22312   5.339   0.299  11.919 -0.0887 -0.0789  0.6587
  927MOL0     H22313   5.212   0.032  11.878  0.1537 -0.2190 -0.3604
  927MOL0     H22314   5.333   0.080  12.006  0.5531  1.6669  0.1896
  927MOL0     H22315   5.171   0.234  12.111  0.8912  0.1470 -0.2374
  927MOL0     H22316   5.089   0.085  12.082  1.5540  0.6959  2.0917
  927MOL0     H22317   4.892   0.110  11.894 -0.6793  0.5063  1.8870
  927MOL0     H22318   4.702   0.202  11.790  0.1302 -1.2811 -0.8266
  927MOL0     H22319   4.753   0.308  11.664  0.2958  0.9132  0.7172
  927MOL0     H22320   4.555   0.381  11.755 -2.6030 -2.1675  4.4473
  927MOL0     H22321   4.679   0.509  11.805  0.7396 -0.2189  2.9198
  927MOL0     H22322   4.690   0.422  12.028 -1.1956 -2.0265  1.4020
  927MOL0     H22323   4.531   0.485  11.976 -0.0510  0.2190 -0.9452
  927MOL0     H22324   4.652   0.213  12.016  1.0475  0.5900 -2.9405
  927MOL0     H22325   4.519   0.202  11.926  1.2485  3.2996 -3.2543
  927MOL0     H22326   4.355   0.313  11.846 -0.0320  0.3440 -1.0248
  927MOL0     H22327   4.119   0.366  11.798 -1.6265  0.3596  0.0719
  927MOL0     H22328   3.710   0.204  11.940 -0.7605 -0.2815 -0.2780
  927MOL0     H22329   3.457   0.162  11.946  0.8294  1.1819 -2.5002
  927MOL0     H22330   3.210   0.472  12.115 -1.7102 -0.1656 -1.7102
  927MOL0     H22331   3.227   0.365  12.266  3.6671 -1.7909 -0.2261
  927MOL0     H22332   2.994   0.414  12.224  1.7679  1.6220 -0.0500
  927MOL0     H22333   3.048   0.244  12.223 -0.6976  1.1112  1.6404
  927MOL0     H22334   3.024   0.250  11.982 -0.1822  0.4821 -1.0744
  927MOL0     H22335   2.956   0.412  11.992  2.1819 -0.4339  0.9233
  927MOL0     H22336   2.849   0.167  12.123  0.7121 -0.3683 -1.4582
  927MOL0     H22337   2.771   0.328  12.140  2.2154  1.9857 -0.1765
  927MOL0     H22338   2.759   0.320  11.872  1.4302  0.5325  0.3234
  927MOL0     H22339   2.653   0.221  11.974 -1.0123  1.1740 -0.3495
  927MOL0     H22340   2.924   0.135  11.835  0.3530  3.2471  2.3754
  927MOL0     H22341   2.761   0.107  11.764  0.0578  0.2872 -0.1965
  927MOL0     H22342   2.885  -0.086  11.884  0.2556  0.3085 -0.2467
  927MOL0     H22343   2.870  -0.001  12.035  0.4827  0.0248 -0.2048
  927MOL0     H22344   2.608  -0.067  11.907  0.4688 -0.2721  0.0564
  927MOL0     H22345   2.647   0.017  12.053  2.5864  0.2539  0.6917
  927MOL0     H22346   3.413   0.450  12.242  0.6776  0.9277 -0.2211
  927MOL0     H22347   3.641   0.505  12.243 -2.9952 -0.1371  0.3887
  927MOL0     H22348   4.026   0.310  12.216  0.0240 -2.5756 -0.0840
  927MOL0     H22349   4.249   0.296  12.268 -1.8826  3.2782  0.4700
  927MOL0     H22350   5.931   0.262  11.389 -0.9487 -1.0579 -2.1290
  927MOL0     H22351   6.097   0.286  11.192  1.2650 -0.5241  1.5473
  927MOL0     H22352   6.245   0.336  10.818 -1.0632  0.2008  0.3962
  927MOL0     H22353   6.415   0.312  10.666 -0.6082  0.1687 -1.2233
  927MOL0     H22354   6.477   0.679  10.477  0.4421 -0.1653  0.9067
  927MOL0     H22355   6.469   0.528  10.388 -1.4368  0.4523  0.0098
  927MOL0     H22356   6.701   0.553  10.290 -1.4002 -1.4441 -0.9115
  927MOL0     H22357   6.643   0.717  10.294 -0.4416  0.2033  1.4376
  927MOL0     H22358   6.830   0.586  10.509  2.5108  1.4769  1.6420
  927MOL0     H22359   6.742   0.733  10.535  2.5100  0.9096 -0.0278
  927MOL0     H22360   6.909   0.680  10.300  0.4272 -0.0261 -1.3622
  927MOL0     H22361   6.846   0.837  10.342 -4.2037 -1.2051 -0.0032
  927MOL0     H22362   7.179   0.858  10.577 -1.4817  0.3315 -0.2316
  927MOL0     H22363   6.556   0.713  10.740  1.7388 -1.0709  2.2654
  927MOL0     H22364   6.404   0.725  10.929 -1.6128  0.4571  0.3630
  928MOL0     O22365   5.998  10.893   4.396 -0.5631 -0.4595  0.0314
  928MOL0     C22366   5.940  11.003   4.416 -0.4305  0.2823  0.3611
  928MOL0     O22367   6.007  11.108   4.465 -0.4649  0.5759 -0.0682
  928MOL0     C22368   6.136  11.085   4.524 -0.0686 -0.1203 -0.6355
  928MOL0     C22369   6.159  11.135   4.652 -0.1889 -0.2362 -0.4136
  928MOL0     C22370   6.289  11.134   4.710  0.1362  0.6422 -0.1679
  928MOL0     C22371   6.387  11.080   4.636  0.2223 -0.0802 -0.4344
  928MOL0     O22372   6.510  11.058   4.689 -0.1864  0.0269 -0.8925
  928MOL0     C22373   6.537  10.919   4.728  0.5107  0.0953  0.2145
  928MOL0     C22374   6.591  10.899   4.876  0.6731 -0.1552  0.2338
  928MOL0     C22375   6.711  10.992   4.913  0.1404 -0.2742 -0.4395
  928MOL0     C22376   6.755  10.987   5.058  0.2849 -0.9312  0.9300
  928MOL0     C22377   6.806  11.118   5.112  0.4492  0.1030  0.2408
  928MOL0     C22378   6.838  11.109   5.265 -0.5051  0.1582  0.1655
  928MOL0     C22379   6.713  11.062   5.347  0.0625  0.8216  0.2222
  928MOL0     C22380   6.594  11.153   5.322  1.6935 -0.5332  0.1609
  928MOL0     N22381   6.592  11.275   5.405 -0.9332 -0.2755 -0.0057
  928MOL0     C22382   6.627  11.405   5.374  0.2965  0.2665 -0.8698
  928MOL0     C22383   6.608  11.471   5.496 -0.8013  0.3667 -1.2545
  928MOL0     C22384   6.606  11.623   5.502  0.5098  0.1805  0.1684
  928MOL0     C22385   6.703  11.687   5.606 -0.2599  1.1165  0.0655
  928MOL0     C22386   6.834  11.700   5.546  0.1263  0.0211 -0.9655
  928MOL0     C22387   6.928  11.771   5.649 -0.6843  0.2264  0.9594
  928MOL0     O22388   7.064  11.768   5.588 -0.0802  0.6335  0.5754
  928MOL0     C22389   7.176  11.785   5.666  0.2915  0.3270  0.5018
  928MOL0     C22390   7.175  11.849   5.787  0.0230  0.4396 -0.2527
  928MOL0     C22391   7.291  11.860   5.870  0.0101 -0.6659  0.4442
  928MOL0     C22392   7.413  11.800   5.836  0.0042  0.2972 -0.1975
  928MOL0     C22393   7.531  11.800   5.925 -1.6447  0.2709 -0.4022
  928MOL0     O22394   7.541  11.876   6.041  0.5769  0.9460  0.1456
  928MOL0     C22395   7.640  11.840   6.135 -0.8335 -0.2455 -0.4370
  928MOL0     C22396   7.628  11.728   6.222  0.7696 -0.3457  0.6578
  928MOL0     C22397   7.728  11.713   6.319  0.6499  0.0391  0.7259
  928MOL0     C22398   7.832  11.794   6.330  0.7665 -0.4390  0.2419
  928MOL0     O22399   7.914  11.767   6.436 -0.3148  0.4265 -0.0387
  928MOL0     C22400   7.996  11.873   6.485 -0.6584 -0.3276  0.0131
  928MOL0     C22401   8.041  11.855   6.631 -0.1301 -0.5768  1.0461
  928MOL0     C22402   8.147  11.746   6.653 -0.1593  1.2854 -0.4449
  928MOL0     C22403   8.202  11.768   6.790 -0.6977 -0.0517  0.3534
  928MOL0     C22404   8.295  11.648   6.816  0.0839 -0.2369  0.9764
  928MOL0     C22405   8.214  11.519   6.855  1.0265  0.3981  0.2870
  928MOL0     C22406   8.318  11.402   6.857 -0.5199  1.2767 -0.3964
  928MOL0     C22407   8.352  11.365   6.716 -0.3302 -0.1699  0.6715
  928MOL0    Cl22408   8.508  11.415   6.660 -0.0167  0.3145  0.0174
  928MOL0     C22409   7.849  11.892   6.236  0.2980  0.0315  0.1725
  928MOL0     C22410   7.756  11.918   6.140  0.4929  0.6153  0.9283
  928MOL0     O22411   7.614  11.716   5.890  0.2153 -0.3090  0.5324
  928MOL0     C22412   7.411  11.737   5.706  0.5386  0.1564 -0.0159
  928MOL0     C22413   7.297  11.732   5.623  0.6950  0.3306 -0.3802
  928MOL0     N22414   6.571  11.380   5.590  0.7852  0.2134 -0.2863
  928MOL0     N22415   6.567  11.262   5.541  0.0085  0.4621 -0.7594
  928MOL0     C22416   6.364  11.027   4.512 -0.6347 -0.4269  0.0162
  928MOL0     C22417   6.242  11.033   4.458  0.4456  0.5172 -0.0328
  928MOL0     C22418   5.808  11.026   4.376 -0.4109  0.2297 -0.1838
  928MOL0     C22419   5.748  11.161   4.390  0.0624 -0.0488 -0.2687
  928MOL0     C22420   5.618  11.178   4.345  0.4933  1.1906 -0.6747
  928MOL0     C22421   5.529  11.071   4.305  0.3786 -0.5954  0.5352
  928MOL0     O22422   5.399  11.092   4.261  0.6211  0.0325  0.3063
  928MOL0     C22423   5.337  11.221   4.267  0.3139  0.1941  0.3880
  928MOL0     C22424   5.280  11.246   4.410 -0.3386 -0.2371 -0.0505
  928MOL0     C22425   5.147  11.166   4.449  0.2718 -0.4006  0.2813
  928MOL0     C22426   5.022  11.225   4.383  0.2363 -0.0215  0.2688
  928MOL0     C22427   4.892  11.156   4.391  0.0608 -0.4333 -0.6466
  928MOL0     C22428   4.787  11.098   4.392  1.0676  1.2650 -1.2970
  928MOL0     C22429   5.592  10.946   4.295  0.6812  0.4115 -0.5783
  928MOL0     C22430   5.731  10.926   4.324 -0.1383  0.2134  0.0987
  928MOL0     H22431   6.072  11.178   4.701  0.6741  3.9903 -2.1629
  928MOL0     H22432   6.304  11.173   4.810 -2.0212 -0.3039  0.5846
  928MOL0     H22433   6.624  10.894   4.666 -0.7866 -1.7646 -0.9316
  928MOL0     H22434   6.451  10.857   4.705 -2.4349  4.2297 -1.2534
  928MOL0     H22435   6.616  10.793   4.869  3.1721  0.4820 -1.4275
  928MOL0     H22436   6.513  10.913   4.953  1.1214  0.2225  0.6210
  928MOL0     H22437   6.671  11.090   4.885  2.7299  1.3055  1.0015
  928MOL0     H22438   6.790  10.973   4.840  1.4779  0.1714  0.8482
  928MOL0     H22439   6.662  10.966   5.111  0.4629 -1.5787  0.9895
  928MOL0     H22440   6.822  10.903   5.075  4.0409  1.5521 -0.4235
  928MOL0     H22441   6.740  11.200   5.084 -0.6415 -1.1220 -0.9394
  928MOL0     H22442   6.905  11.130   5.066  1.5736 -1.9823  1.9196
  928MOL0     H22443   6.874  11.210   5.284 -0.9020  0.0665  1.4745
  928MOL0     H22444   6.916  11.035   5.281  0.2615  1.3235  2.1175
  928MOL0     H22445   6.688  10.959   5.322 -1.8931  1.4490 -0.6485
  928MOL0     H22446   6.731  11.060   5.455 -3.6112  0.6996  0.9607
  928MOL0     H22447   6.497  11.106   5.338  0.6619  1.5595  0.4023
  928MOL0     H22448   6.584  11.199   5.224 -3.1637 -1.4805 -0.0049
  928MOL0     H22449   6.654  11.453   5.280 -2.3300  1.7260 -0.9759
  928MOL0     H22450   6.506  11.650   5.538  0.2250  0.7090 -0.9809
  928MOL0     H22451   6.625  11.670   5.405 -2.5945 -0.1010 -0.6946
  928MOL0     H22452   6.708  11.621   5.693  0.2485 -0.6439 -1.2268
  928MOL0     H22453   6.664  11.784   5.637 -0.4406  0.6034  1.5260
  928MOL0     H22454   6.868  11.600   5.516 -0.8367 -0.4888 -0.4203
  928MOL0     H22455   6.832  11.770   5.462  0.2700  0.5158 -0.5606
  928MOL0     H22456   6.924  11.725   5.748 -4.0180  0.4170  1.0094
  928MOL0     H22457   6.910  11.877   5.667  0.3787  0.8458 -1.2211
  928MOL0     H22458   7.081  11.892   5.820 -0.0560 -0.0507  0.1838
  928MOL0     H22459   7.272  11.911   5.963  1.7372 -1.3009  1.2033
  928MOL0     H22460   7.546  11.657   6.218  0.4975 -0.0148 -3.1179
  928MOL0     H22461   7.711  11.635   6.392  2.9321 -1.1621  0.0637
  928MOL0     H22462   7.938  11.965   6.490 -0.6012 -0.1315 -2.1474
  928MOL0     H22463   8.082  11.892   6.420 -1.2288 -0.4149 -0.7697
  928MOL0     H22464   7.960  11.856   6.704  0.3890 -1.5265  1.6501
  928MOL0     H22465   8.101  11.945   6.644  0.7519 -1.0891  0.6736
  928MOL0     H22466   8.227  11.764   6.581 -1.4163  1.2458 -1.9021
  928MOL0     H22467   8.101  11.649   6.633  0.0195  1.2402 -0.6401
  928MOL0     H22468   8.263  11.857   6.774  0.0032 -0.5954 -0.0785
  928MOL0     H22469   8.127  11.778   6.869 -0.6632 -1.9972  0.6831
  928MOL0     H22470   8.363  11.668   6.899  1.3946 -1.1302  0.1526
  928MOL0     H22471   8.354  11.624   6.727 -1.7904  2.5281 -1.2120
  928MOL0     H22472   8.133  11.495   6.786  0.1447  0.1654  1.3754
  928MOL0     H22473   8.163  11.533   6.951  0.1692 -1.1619  0.0830
  928MOL0     H22474   8.402  11.426   6.923  0.0315  0.9136 -0.9550
  928MOL0     H22475   8.263  11.316   6.895  1.7419  0.7447  1.9094
  928MOL0     H22476   8.284  11.412   6.645  1.2156 -0.0037 -0.7480
  928MOL0     H22477   8.345  11.258   6.696 -2.0565 -0.2235  1.4022
  928MOL0     H22478   7.933  11.961   6.243  1.8742 -1.8634  0.6601
  928MOL0     H22479   7.770  12.006   6.078  1.2100 -0.4668 -0.5301
  928MOL0     H22480   7.504  11.687   5.681  0.3905 -1.0490  1.6899
  928MOL0     H22481   7.314  11.688   5.525  0.1528 -2.3236  0.6233
  928MOL0     H22482   6.456  10.990   4.468  0.5346  0.8285  1.3048
  928MOL0     H22483   6.227  11.000   4.356  2.8756  1.1463 -0.6572
  928MOL0     H22484   5.808  11.241   4.434  0.0349  0.0378 -0.3860
  928MOL0     H22485   5.585  11.281   4.341 -1.1473  0.6677 -1.5578
  928MOL0     H22486   5.260  11.211   4.190 -1.3000  0.7447  1.8667
  928MOL0     H22487   5.404  11.304   4.242  4.4671 -2.6145  1.1798
  928MOL0     H22488   5.365  11.227   4.476 -0.4555 -0.2814  0.0893
  928MOL0     H22489   5.262  11.354   4.413  0.1395 -0.1709  1.5363
  928MOL0     H22490   5.126  11.175   4.556 -4.2120 -0.5893 -0.4065
  928MOL0     H22491   5.158  11.060   4.424  1.3308 -0.8812  2.4839
  928MOL0     H22492   5.005  11.323   4.428 -2.1032 -0.1074 -0.3153
  928MOL0     H22493   5.041  11.244   4.277  1.5429  3.2014  0.9640
  928MOL0     H22494   4.692  11.051   4.398  1.4710  0.6028  1.3647
  928MOL0     H22495   5.534  10.864   4.253 -1.8756  1.6137  0.3821
  928MOL0     H22496   5.772  10.826   4.310 -3.1345 -1.0247 -0.5017
  929MOL0     O22497   5.313   8.765   0.737 -0.9701 -0.2709 -0.6252
  929MOL0     C22498   5.238   8.739   0.830 -0.6520 -0.1697  0.5014
  929MOL0     O22499   5.277   8.705   0.954  0.9869  0.2279  0.0748
  929MOL0     C22500   5.399   8.655   0.970  0.6111  0.9164 -0.4426
  929MOL0     C22501   5.437   8.519   0.947  0.5405 -0.3879  0.2471
  929MOL0     C22502   5.567   8.487   0.959 -1.5711  0.6464  0.2891
  929MOL0     C22503   5.657   8.580   1.014  0.7319 -1.0396  0.5353
  929MOL0     O22504   5.789   8.537   1.020  0.1359  0.1532  0.4609
  929MOL0     C22505   5.903   8.614   1.082 -1.0738  1.0862 -0.2659
  929MOL0     C22506   6.002   8.514   1.140 -0.0124  0.3298  0.1523
  929MOL0     C22507   6.054   8.406   1.056 -0.0545  0.3840 -0.5785
  929MOL0     C22508   6.146   8.306   1.133  1.1270  0.4325 -0.0987
  929MOL0     C22509   6.179   8.180   1.068 -0.5845 -0.4544  0.4103
  929MOL0     C22510   6.220   8.071   1.156 -0.6793  0.1984  0.4302
  929MOL0     C22511   6.351   8.099   1.232 -0.4333  1.0977  0.0595
  929MOL0     C22512   6.467   8.065   1.155 -0.9206 -0.6208  0.3257
  929MOL0     N22513   6.588   8.106   1.227  0.4655  0.3210 -0.2245
  929MOL0     C22514   6.684   8.017   1.271  0.3107  0.6118 -0.2858
  929MOL0     C22515   6.778   8.110   1.297 -0.2610  0.2765 -0.1274
  929MOL0     C22516   6.922   8.068   1.318 -0.7993 -0.4646 -0.2897
  929MOL0     C22517   7.002   8.052   1.194  0.3811  0.5386 -0.7150
  929MOL0     C22518   7.020   8.178   1.109  0.5494  0.0363 -0.6566
  929MOL0     C22519   7.108   8.283   1.176 -0.0017 -0.4308 -0.1031
  929MOL0     O22520   7.244   8.238   1.207 -0.3378  0.2119 -0.6630
  929MOL0     C22521   7.340   8.329   1.233  1.3387  1.5484 -1.1611
  929MOL0     C22522   7.313   8.461   1.258 -0.0984 -0.1937 -0.0195
  929MOL0     C22523   7.420   8.544   1.278  0.6610  0.1664 -0.3949
  929MOL0     C22524   7.556   8.506   1.266 -0.5575  0.0029  0.2018
  929MOL0     C22525   7.678   8.598   1.285  0.1191  0.4966 -0.1810
  929MOL0     O22526   7.664   8.726   1.319 -0.6700 -0.2537 -0.6534
  929MOL0     C22527   7.771   8.796   1.372 -0.6213  0.6298  0.4311
  929MOL0     C22528   7.862   8.740   1.462 -0.5323 -0.3295 -1.3456
  929MOL0     C22529   7.974   8.809   1.510 -0.0726 -0.3604  0.7988
  929MOL0     C22530   8.007   8.937   1.460  0.3063 -0.1292 -0.7445
  929MOL0     O22531   8.120   9.001   1.499 -0.4066 -0.2047 -0.4622
  929MOL0     C22532   8.130   9.149   1.486  0.2296  0.3513  0.0816
  929MOL0     C22533   8.220   9.197   1.602 -0.3561  0.8046 -0.4145
  929MOL0     C22534   8.368   9.149   1.578  0.4359  0.2627 -0.0435
  929MOL0     C22535   8.456   9.212   1.691  0.3549 -0.1609  1.3711
  929MOL0     C22536   8.610   9.203   1.665  0.1722 -0.5456  0.0137
  929MOL0     C22537   8.659   9.278   1.786 -0.2914  0.4449  0.1268
  929MOL0     C22538   8.806   9.309   1.772 -0.1054  0.1941  0.3472
  929MOL0     C22539   8.886   9.310   1.898 -0.8046 -0.3585  0.3122
  929MOL0    Cl22540   9.051   9.377   1.840  0.2705  0.5997 -0.1014
  929MOL0     C22541   7.914   8.997   1.370  0.6264  0.4144 -0.4850
  929MOL0     C22542   7.801   8.926   1.321  0.7110  0.0970 -1.0290
  929MOL0     O22543   7.789   8.548   1.254 -0.0130  0.0637 -0.4259
  929MOL0     C22544   7.584   8.373   1.235  0.8336 -0.0206 -0.7347
  929MOL0     C22545   7.470   8.286   1.218 -1.0881 -1.6811  0.2126
  929MOL0     N22546   6.745   8.241   1.291 -0.3629  1.6083  0.9013
  929MOL0     N22547   6.625   8.233   1.254  0.1197  0.2553 -0.8430
  929MOL0     C22548   5.615   8.708   1.055 -0.4652 -0.5664 -0.0121
  929MOL0     C22549   5.481   8.746   1.023 -0.5886 -1.0459 -0.0542
  929MOL0     C22550   5.092   8.772   0.809 -0.8177  0.0223  0.7917
  929MOL0     C22551   4.990   8.716   0.897  0.1358 -0.5082 -0.0912
  929MOL0     C22552   4.854   8.748   0.879 -0.0755 -0.9978 -0.4644
  929MOL0     C22553   4.817   8.836   0.777  0.0131 -0.4112  0.1307
  929MOL0     O22554   4.687   8.865   0.766  0.0354 -0.8143 -0.2278
  929MOL0     C22555   4.648   8.927   0.650 -0.2298 -0.4815  0.3393
  929MOL0     C22556   4.499   8.879   0.636 -0.0760  0.6527  0.7486
  929MOL0     C22557   4.409   8.949   0.533 -0.4567 -0.6977 -0.1607
  929MOL0     C22558   4.269   8.927   0.547 -0.2004 -0.1299  0.0769
  929MOL0     C22559   4.233   8.777   0.547  0.8688  0.0537  0.3820
  929MOL0     C22560   4.189   8.664   0.545 -0.9675  1.0455 -0.0556
  929MOL0     C22561   4.917   8.903   0.709 -0.2829  0.5014  0.0748
  929MOL0     C22562   5.059   8.875   0.723 -0.4991 -0.2302 -0.5406
  929MOL0     H22563   5.364   8.445   0.915  0.5483 -1.3070  2.1789
  929MOL0     H22564   5.595   8.388   0.925 -0.0164  0.4170  2.0504
  929MOL0     H22565   5.867   8.670   1.169  1.3854  0.0559  1.5507
  929MOL0     H22566   5.943   8.682   1.007 -4.3037  3.4245 -0.0706
  929MOL0     H22567   5.951   8.461   1.221 -0.0737 -0.1795 -0.2128
  929MOL0     H22568   6.087   8.565   1.187  2.1897 -3.4825  0.7800
  929MOL0     H22569   6.111   8.455   0.976 -1.5935  0.1109 -1.8966
  929MOL0     H22570   5.975   8.355   1.000  1.1276 -0.8343 -1.2218
  929MOL0     H22571   6.237   8.360   1.159 -0.9663  3.0468  2.4254
  929MOL0     H22572   6.097   8.285   1.229  1.7127  1.9289  0.5572
  929MOL0     H22573   6.259   8.204   0.997  2.6255 -0.5960  3.6739
  929MOL0     H22574   6.086   8.160   1.014 -0.6166  0.1499  0.2385
  929MOL0     H22575   6.216   7.969   1.117 -2.9886  0.1875  0.5538
  929MOL0     H22576   6.156   8.055   1.243  0.3700 -1.9887  0.8601
  929MOL0     H22577   6.348   8.206   1.256  3.3580  1.7125 -1.6061
  929MOL0     H22578   6.348   8.030   1.317 -2.6463 -0.2316 -0.9807
  929MOL0     H22579   6.460   8.117   1.059  0.7952  4.0663  2.4162
  929MOL0     H22580   6.469   7.960   1.126  3.8151 -0.0638 -2.2247
  929MOL0     H22581   6.691   7.908   1.269  1.4784  0.6177  1.3671
  929MOL0     H22582   6.911   7.977   1.378 -0.2024 -1.0717 -1.0887
  929MOL0     H22583   6.966   8.154   1.369 -2.9916  1.5365 -1.5475
  929MOL0     H22584   6.946   7.973   1.145 -1.8765  1.4200  0.3270
  929MOL0     H22585   7.096   8.002   1.219 -0.4005 -1.1448 -1.0147
  929MOL0     H22586   7.066   8.150   1.014 -1.1676 -1.4277 -1.1120
  929MOL0     H22587   6.921   8.212   1.077  0.9128 -0.1904 -2.1145
  929MOL0     H22588   7.073   8.322   1.272 -1.6087 -1.3520 -0.2850
  929MOL0     H22589   7.113   8.372   1.112  2.8326  2.0438  3.1678
  929MOL0     H22590   7.209   8.490   1.268 -0.1062  0.2746 -1.3051
  929MOL0     H22591   7.406   8.640   1.326  1.3087 -1.0354  2.4171
  929MOL0     H22592   7.845   8.638   1.495 -2.8719  0.3624 -0.2444
  929MOL0     H22593   8.043   8.752   1.570  0.6694 -0.0727  0.2416
  929MOL0     H22594   8.028   9.182   1.507  0.2772 -2.3259  6.6775
  929MOL0     H22595   8.176   9.161   1.387 -0.4491  2.2684 -0.0464
  929MOL0     H22596   8.184   9.149   1.693 -1.4518 -4.7132 -3.2989
  929MOL0     H22597   8.210   9.306   1.596  1.9581  1.0254 -1.1338
  929MOL0     H22598   8.405   9.189   1.483  2.2923 -0.1504  0.4698
  929MOL0     H22599   8.359   9.040   1.571 -4.9930  0.5737 -2.6876
  929MOL0     H22600   8.426   9.317   1.700  2.5886  0.5498  1.0941
  929MOL0     H22601   8.433   9.178   1.792  2.2315 -0.0214  1.8846
  929MOL0     H22602   8.643   9.256   1.575  2.6401 -3.5859 -1.0648
  929MOL0     H22603   8.644   9.099   1.669  1.2602 -0.1685  1.4768
  929MOL0     H22604   8.643   9.218   1.876  3.2470  1.2989  1.5059
  929MOL0     H22605   8.606   9.374   1.794  0.6511  1.1030 -1.1069
  929MOL0     H22606   8.863   9.257   1.694  2.7798  3.2721  0.1827
  929MOL0     H22607   8.817   9.410   1.732  3.0796  0.0400  0.5984
  929MOL0     H22608   8.889   9.215   1.953 -3.6428  0.6216  2.4307
  929MOL0     H22609   8.851   9.379   1.975 -0.1071  0.0134  0.3032
  929MOL0     H22610   7.929   9.098   1.332  1.3226  0.2160 -0.7553
  929MOL0     H22611   7.740   8.974   1.245  1.1252 -0.2084 -1.5699
  929MOL0     H22612   7.681   8.332   1.209  0.2671 -0.4241 -2.3345
  929MOL0     H22613   7.480   8.192   1.165  1.0127  0.5516 -3.8036
  929MOL0     H22614   5.681   8.779   1.104  1.2046 -2.8382  1.1963
  929MOL0     H22615   5.441   8.845   1.044  1.6362 -0.5775  2.5950
  929MOL0     H22616   5.030   8.667   0.986 -1.2039 -1.4731  0.0130
  929MOL0     H22617   4.773   8.695   0.928  1.1394 -2.3055  0.2011
  929MOL0     H22618   4.696   8.897   0.557  0.2733  2.6672 -0.5145
  929MOL0     H22619   4.672   9.034   0.654 -0.9501 -0.3391  3.4983
  929MOL0     H22620   4.493   8.774   0.608  0.2439  1.1228 -1.2367
  929MOL0     H22621   4.457   8.899   0.735 -0.1472  2.3585  0.4138
  929MOL0     H22622   4.442   8.917   0.433 -1.0375  0.7964 -0.8603
  929MOL0     H22623   4.426   9.057   0.540 -2.3300 -0.4293  0.8675
  929MOL0     H22624   4.221   8.973   0.633 -1.9119 -1.7259  0.0635
  929MOL0     H22625   4.224   8.972   0.458 -1.9116 -1.1101  0.3839
  929MOL0     H22626   4.145   8.566   0.550 -0.3734  0.7323 -0.8283
  929MOL0     H22627   4.891   8.987   0.645 -3.6553 -0.3202  0.2182
  929MOL0     H22628   5.137   8.923   0.664  0.4742  0.6915  1.4247
  930MOL0     O22629   7.726   4.048   4.005  0.4486  0.1380 -0.1146
  930MOL0     C22630   7.673   3.979   4.095 -0.1515  0.3245  0.4864
  930MOL0     O22631   7.750   3.925   4.199  0.8883  0.5354 -0.3084
  930MOL0     C22632   7.883   3.924   4.194  0.4712 -0.2761 -0.8104
  930MOL0     C22633   7.951   3.936   4.318  0.9449 -0.9424 -0.2572
  930MOL0     C22634   8.084   3.950   4.328 -0.0024 -0.4752  0.3186
  930MOL0     C22635   8.165   3.922   4.215  0.3310  0.4823 -0.3340
  930MOL0     O22636   8.300   3.930   4.226 -0.2136 -0.4278 -0.3812
  930MOL0     C22637   8.358   4.059   4.259  0.6390  0.6601  0.0207
  930MOL0     C22638   8.508   4.050   4.238  0.8717 -0.2964 -0.1033
  930MOL0     C22639   8.579   4.182   4.240  0.5798 -0.2657  0.2569
  930MOL0     C22640   8.723   4.151   4.195 -0.5109 -0.8031  0.5703
  930MOL0     C22641   8.812   4.268   4.205  0.3091  0.6424 -0.2946
  930MOL0     C22642   8.957   4.231   4.156 -0.0863  0.5843  0.3020
  930MOL0     C22643   9.048   4.351   4.152  0.5835  0.1399 -0.9490
  930MOL0     C22644   9.154   4.344   4.038 -0.3318 -0.2909  0.1568
  930MOL0     N22645   9.261   4.454   4.045  1.2484  0.2282 -0.2053
  930MOL0     C22646   9.314   4.511   3.934  0.1886 -0.6637  0.2829
  930MOL0     C22647   9.373   4.627   3.970 -0.1137  0.7026 -0.4257
  930MOL0     C22648   9.434   4.727   3.873  0.1169  0.1753  1.8732
  930MOL0     C22649   9.336   4.833   3.812  0.0889  0.3411  0.3503
  930MOL0     C22650   9.380   4.889   3.674 -1.1784  0.5040  0.4195
  930MOL0     C22651   9.256   4.906   3.582  0.1725 -0.2619  0.4265
  930MOL0     O22652   9.205   4.777   3.567 -0.6321 -0.2926  0.3226
  930MOL0     C22653   9.082   4.767   3.513  0.3414  0.2786  1.1362
  930MOL0     C22654   9.021   4.642   3.512  0.7904 -1.1855  0.2125
  930MOL0     C22655   8.899   4.620   3.447  0.6983  0.5796  0.4718
  930MOL0     C22656   8.827   4.728   3.387  0.2036 -0.5128 -0.0562
  930MOL0     C22657   8.693   4.708   3.322  0.5635 -0.5193  0.8049
  930MOL0     O22658   8.613   4.599   3.351  0.3842 -0.8585  0.1655
  930MOL0     C22659   8.480   4.601   3.327  0.3112  0.3132  0.5624
  930MOL0     C22660   8.421   4.609   3.199  0.1300 -1.1144 -0.4429
  930MOL0     C22661   8.280   4.612   3.191 -0.6749  0.3625 -0.5364
  930MOL0     C22662   8.201   4.612   3.299 -0.0652  0.3477 -0.0434
  930MOL0     O22663   8.062   4.614   3.284  0.2793 -0.4048  0.6305
  930MOL0     C22664   7.993   4.680   3.394  1.3343  0.7484  0.5398
  930MOL0     C22665   7.871   4.743   3.331  0.4134  0.7667  0.0642
  930MOL0     C22666   7.780   4.793   3.438 -0.5176 -0.2827 -0.0113
  930MOL0     C22667   7.727   4.931   3.396 -0.3927 -0.5912 -0.5696
  930MOL0     C22668   7.617   4.987   3.488 -0.0380 -0.0703  0.3995
  930MOL0     C22669   7.537   5.095   3.405  0.7767  0.5162  0.1962
  930MOL0     C22670   7.618   5.211   3.360  0.7939  0.8187 -0.6636
  930MOL0     C22671   7.542   5.333   3.323  0.6218  0.2401 -0.5634
  930MOL0    Cl22672   7.452   5.290   3.188  0.3049 -0.1759 -0.0514
  930MOL0     C22673   8.254   4.609   3.431 -0.3641  0.0930 -0.1838
  930MOL0     C22674   8.390   4.609   3.443 -0.3386 -0.5709 -0.2008
  930MOL0     O22675   8.669   4.793   3.231  0.9372 -0.0084 -0.7881
  930MOL0     C22676   8.888   4.852   3.392  0.2281  0.6178 -0.0960
  930MOL0     C22677   9.014   4.870   3.449  1.1128 -0.3387  0.0481
  930MOL0     N22678   9.353   4.635   4.107  0.0746 -0.3214  0.7161
  930MOL0     N22679   9.293   4.533   4.153  0.4481  0.1819 -1.4029
  930MOL0     C22680   8.096   3.890   4.100  0.2671  0.2951  0.2249
  930MOL0     C22681   7.954   3.896   4.084 -0.3925  1.0728  0.5729
  930MOL0     C22682   7.524   3.963   4.099 -0.5379 -0.0389 -0.0310
  930MOL0     C22683   7.460   3.909   4.212 -1.1879 -0.5013 -0.3098
  930MOL0     C22684   7.328   3.861   4.209 -0.6794  0.8946 -0.0904
  930MOL0     C22685   7.244   3.891   4.103 -0.0582  0.3351 -0.6693
  930MOL0     O22686   7.113   3.846   4.095 -0.6782 -0.0818  0.1550
  930MOL0     C22687   7.047   3.782   4.204 -0.5754  0.3717  0.0495
  930MOL0     C22688   6.907   3.736   4.167 -0.2292 -0.5119  0.0277
  930MOL0     C22689   6.822   3.695   4.285  0.1495 -0.9243  0.3379
  930MOL0     C22690   6.673   3.658   4.251  0.1622  0.1537 -0.3496
  930MOL0     C22691   6.592   3.776   4.273  0.8052 -0.7946 -0.5495
  930MOL0     C22692   6.536   3.882   4.303  0.2753  0.4577  0.5051
  930MOL0     C22693   7.302   3.952   3.994 -0.9568 -0.1100  0.0507
  930MOL0     C22694   7.442   3.982   3.988 -0.8335  0.8278  0.0974
  930MOL0     H22695   7.899   3.961   4.410  0.0431  2.1082 -1.4788
  930MOL0     H22696   8.113   3.977   4.429 -0.7378  2.2959 -0.1233
  930MOL0     H22697   8.345   4.082   4.365 -1.2356 -1.3192  0.2765
  930MOL0     H22698   8.324   4.145   4.200  0.9491  2.4100  2.2536
  930MOL0     H22699   8.520   4.008   4.138 -0.3279  1.1732 -0.9161
  930MOL0     H22700   8.550   3.993   4.322  1.2426  1.7316  1.1896
  930MOL0     H22701   8.570   4.227   4.339 -2.6665  5.3069 -2.0641
  930MOL0     H22702   8.530   4.246   4.166  0.4948  0.3875  0.8649
  930MOL0     H22703   8.773   4.076   4.257 -0.5555 -0.2692  1.2557
  930MOL0     H22704   8.718   4.133   4.087  0.3513 -0.0603  0.3881
  930MOL0     H22705   8.831   4.286   4.312 -2.6099  1.0513  0.2376
  930MOL0     H22706   8.779   4.362   4.161 -0.2952  1.1984  1.2636
  930MOL0     H22707   8.946   4.183   4.058  2.4115  2.6061 -1.1397
  930MOL0     H22708   8.996   4.152   4.220  0.1467  1.5186  1.3554
  930MOL0     H22709   8.996   4.448   4.145  1.1558  0.5502  0.2063
  930MOL0     H22710   9.093   4.369   4.250 -0.3489 -1.6724 -0.1516
  930MOL0     H22711   9.100   4.360   3.944  0.6019 -1.5704 -0.6195
  930MOL0     H22712   9.212   4.253   4.048 -2.1514 -1.6035 -0.6537
  930MOL0     H22713   9.302   4.474   3.832  0.2759  0.3397 -0.0993
  930MOL0     H22714   9.463   4.670   3.785 -1.6306 -1.2371  2.1439
  930MOL0     H22715   9.517   4.785   3.915  1.5629  0.0820 -0.6913
  930MOL0     H22716   9.333   4.912   3.888  4.5024  1.8765 -0.7082
  930MOL0     H22717   9.243   4.777   3.805 -0.3897  0.7164  2.8368
  930MOL0     H22718   9.429   4.986   3.682  1.5849 -0.5182 -2.2124
  930MOL0     H22719   9.457   4.824   3.632 -2.2743 -0.0484 -0.8444
  930MOL0     H22720   9.291   4.947   3.487  2.3045 -3.7467 -0.4870
  930MOL0     H22721   9.182   4.971   3.629  1.5752  1.1075  0.8556
  930MOL0     H22722   9.077   4.557   3.549 -2.9541 -4.2720 -0.6327
  930MOL0     H22723   8.860   4.519   3.444  1.2768  0.3264  1.1281
  930MOL0     H22724   8.497   4.611   3.122  1.8501 -2.0897  1.1639
  930MOL0     H22725   8.234   4.608   3.093  0.4367 -1.7368 -1.0206
  930MOL0     H22726   8.047   4.766   3.435 -0.8529  1.5094  2.0156
  930MOL0     H22727   7.965   4.598   3.460  1.4536 -0.1001 -0.4341
  930MOL0     H22728   7.816   4.672   3.268 -0.5844 -0.4393  2.1929
  930MOL0     H22729   7.911   4.830   3.278 -2.0255  1.1173 -1.3554
  930MOL0     H22730   7.828   4.791   3.537 -0.7356 -1.0191  0.0868
  930MOL0     H22731   7.696   4.724   3.449  1.4441 -2.6552  1.0440
  930MOL0     H22732   7.815   4.996   3.390 -0.8818 -0.0781 -3.2569
  930MOL0     H22733   7.685   4.922   3.296 -2.0056 -3.1841  0.2299
  930MOL0     H22734   7.659   5.027   3.580  4.1743  1.2970 -1.8369
  930MOL0     H22735   7.553   4.903   3.516  2.0602 -1.8184  0.1829
  930MOL0     H22736   7.462   5.130   3.476  0.6564 -1.7200  1.2384
  930MOL0     H22737   7.487   5.039   3.325  0.3935 -1.9444  2.0356
  930MOL0     H22738   7.684   5.246   3.440 -1.5485 -1.0045  2.2809
  930MOL0     H22739   7.683   5.180   3.278  1.8037 -2.6035  1.2177
  930MOL0     H22740   7.609   5.416   3.296  1.5493 -0.1248  0.5671
  930MOL0     H22741   7.485   5.369   3.409  1.2365 -0.2970  0.0709
  930MOL0     H22742   8.196   4.609   3.523  0.4976  1.8617  0.4046
  930MOL0     H22743   8.424   4.594   3.545 -0.4486 -1.4312 -0.2862
  930MOL0     H22744   8.848   4.931   3.330  0.2576  0.8078  0.1276
  930MOL0     H22745   9.046   4.974   3.439 -0.9418  0.3361 -0.0122
  930MOL0     H22746   8.146   3.862   4.007 -0.0823  0.3683  0.0147
  930MOL0     H22747   7.905   3.856   3.996  1.5231  2.3710 -1.1800
  930MOL0     H22748   7.518   3.885   4.301 -0.1245  2.1934 -0.1984
  930MOL0     H22749   7.288   3.824   4.303  0.1673 -1.5968 -0.6615
  930MOL0     H22750   7.044   3.853   4.286  4.5803 -0.7499  1.5755
  930MOL0     H22751   7.108   3.702   4.248 -1.1036  0.0779  0.2634
  930MOL0     H22752   6.859   3.820   4.115 -0.8520 -1.4234 -0.9342
  930MOL0     H22753   6.914   3.647   4.103  0.2483 -0.1353 -0.4479
  930MOL0     H22754   6.817   3.782   4.351 -2.5095  0.2565 -1.2460
  930MOL0     H22755   6.879   3.622   4.342  0.4725 -0.0336  1.1826
  930MOL0     H22756   6.658   3.611   4.153 -1.3629  0.3650 -0.2336
  930MOL0     H22757   6.641   3.594   4.334  2.0965 -1.6930 -0.9121
  930MOL0     H22758   6.490   3.977   4.320 -0.7738  0.3530 -1.5089
  930MOL0     H22759   7.249   3.982   3.904  1.3003  1.0394 -0.9615
  930MOL0     H22760   7.490   4.015   3.897  0.3467  0.6659  0.6378
  931MOL0     O22761   2.288   7.617   0.795  0.4232  0.6484  0.2566
  931MOL0     C22762   2.171   7.577   0.783  0.7650  0.0756 -0.6440
  931MOL0     O22763   2.123   7.444   0.766 -0.1668 -0.3931 -0.0254
  931MOL0     C22764   2.206   7.332   0.785  0.4072  0.5779  0.4044
  931MOL0     C22765   2.154   7.216   0.741 -1.0916 -0.3668  0.6661
  931MOL0     C22766   2.219   7.093   0.770  0.0770 -0.5529  0.0208
  931MOL0     C22767   2.343   7.089   0.827  0.4156 -0.4981 -0.9634
  931MOL0     O22768   2.423   6.978   0.833 -1.0412  0.0158  0.5073
  931MOL0     C22769   2.387   6.863   0.764  1.3156  0.5784 -0.3090
  931MOL0     C22770   2.497   6.764   0.791  0.3765  0.0949 -0.0459
  931MOL0     C22771   2.455   6.630   0.723  0.4924  0.2281 -0.7329
  931MOL0     C22772   2.551   6.522   0.778 -0.1753 -1.0700  0.9738
  931MOL0     C22773   2.542   6.392   0.709  0.7994  0.3064 -0.8956
  931MOL0     C22774   2.395   6.349   0.683  0.2801 -0.3413  0.1912
  931MOL0     C22775   2.359   6.261   0.799  0.2951  1.4862  0.5500
  931MOL0     C22776   2.228   6.190   0.790  0.6047  1.1633  0.7559
  931MOL0     N22777   2.207   6.092   0.910 -0.5963 -0.2255  0.1505
  931MOL0     C22778   2.252   5.965   0.906  0.2440 -1.2539 -0.5786
  931MOL0     C22779   2.213   5.922   1.027  0.7190  0.5793  0.1317
  931MOL0     C22780   2.226   5.782   1.096 -0.9578 -1.5789  0.6640
  931MOL0     C22781   2.103   5.690   1.066 -0.9128 -0.7867  0.4741
  931MOL0     C22782   2.104   5.630   0.921  0.1632 -0.4558  0.0011
  931MOL0     C22783   1.981   5.676   0.845 -0.2135 -0.5784  0.1959
  931MOL0     O22784   1.967   5.607   0.720 -0.1837 -0.0483  0.4143
  931MOL0     C22785   1.921   5.483   0.732  0.6749  1.3725  1.6853
  931MOL0     C22786   1.961   5.400   0.618  0.5066 -0.3254  0.0150
  931MOL0     C22787   1.923   5.272   0.599  0.1956 -0.0964 -0.5693
  931MOL0     C22788   1.844   5.203   0.693  0.5601  0.2628 -0.5729
  931MOL0     C22789   1.797   5.067   0.669  0.1391  0.0223  0.6432
  931MOL0     O22790   1.879   4.990   0.580 -0.4363 -0.0114 -0.3515
  931MOL0     C22791   1.838   4.875   0.509 -0.3334  0.2122 -0.6178
  931MOL0     C22792   1.943   4.794   0.457  0.4277 -0.1569  0.1164
  931MOL0     C22793   1.914   4.673   0.403  0.0459 -0.0515  0.2787
  931MOL0     C22794   1.779   4.633   0.396 -0.7462  0.4950  0.0813
  931MOL0     O22795   1.733   4.512   0.348 -0.4778 -0.0415  0.0538
  931MOL0     C22796   1.819   4.399   0.304 -0.7955 -0.9187  0.1015
  931MOL0     C22797   1.857   4.414   0.157 -0.8058  0.9149 -0.7828
  931MOL0     C22798   1.931   4.290   0.108  0.6060  0.1957 -0.1107
  931MOL0     C22799   1.958   4.293  -0.043 -0.3335 -0.4988  0.7647
  931MOL0     C22800   2.048   4.182  -0.088  0.2965 -0.0583 -0.8697
  931MOL0     C22801   2.035   4.041  -0.028  0.3705  0.1834  0.2790
  931MOL0     C22802   2.123   3.942  -0.112  0.1550 -0.7903 -0.2860
  931MOL0     C22803   2.118   3.805  -0.070 -1.2241  0.0682 -0.6681
  931MOL0    Cl22804   1.956   3.730  -0.100 -0.2000  0.2989  0.4300
  931MOL0     C22805   1.676   4.709   0.442  0.4227 -0.2092  0.6484
  931MOL0     C22806   1.707   4.822   0.514 -0.5469 -0.2782  0.8342
  931MOL0     O22807   1.692   5.031   0.723  0.2918 -0.5583 -0.2945
  931MOL0     C22808   1.803   5.277   0.805  0.0281  0.1340 -0.1077
  931MOL0     C22809   1.847   5.410   0.826  0.0105  0.4505 -0.1989
  931MOL0     N22810   2.149   6.020   1.092  0.0059 -0.5540  0.5804
  931MOL0     N22811   2.131   6.115   1.013 -0.2068 -0.5781  0.6904
  931MOL0     C22812   2.394   7.207   0.881  0.6161  0.0564 -0.0101
  931MOL0     C22813   2.325   7.326   0.858  0.6140  1.2690 -0.7732
  931MOL0     C22814   2.061   7.676   0.801  0.7679  0.7790  0.1400
  931MOL0     C22815   2.102   7.797   0.844 -0.1650  0.2554 -1.0827
  931MOL0     C22816   2.016   7.905   0.844 -0.6393  1.1725 -1.0962
  931MOL0     C22817   1.876   7.893   0.824  0.2615  0.8949 -0.0480
  931MOL0     O22818   1.787   7.999   0.804  0.1175 -0.5839  0.1704
  931MOL0     C22819   1.831   8.114   0.740  0.5396  0.1804 -0.0319
  931MOL0     C22820   1.734   8.222   0.768 -0.4412 -0.1446  0.3620
  931MOL0     C22821   1.591   8.192   0.714  0.0491 -0.5204 -0.6535
  931MOL0     C22822   1.514   8.329   0.694 -0.1848  0.3350 -0.3613
  931MOL0     C22823   1.467   8.372   0.829 -0.7614  0.6648 -1.0266
  931MOL0     C22824   1.406   8.398   0.930 -0.5523 -0.2480 -0.3000
  931MOL0     C22825   1.827   7.764   0.798 -0.0465  0.0634  0.2697
  931MOL0     C22826   1.918   7.655   0.786  0.4373  0.0538  0.5754
  931MOL0     H22827   2.060   7.212   0.686 -1.0794  0.3767  0.5822
  931MOL0     H22828   2.166   7.002   0.743 -0.9306  1.0217 -3.8818
  931MOL0     H22829   2.374   6.866   0.655 -1.9401 -1.4890 -0.1111
  931MOL0     H22830   2.299   6.817   0.809  2.3793 -0.7041  0.5691
  931MOL0     H22831   2.509   6.739   0.897 -1.1826  3.4358  1.0450
  931MOL0     H22832   2.596   6.793   0.756 -0.9799  0.5221 -3.9679
  931MOL0     H22833   2.457   6.632   0.614 -0.9536  0.0184 -0.7725
  931MOL0     H22834   2.356   6.600   0.758  0.5406 -1.3558 -1.8487
  931MOL0     H22835   2.657   6.545   0.772 -0.0467 -0.8661  3.2046
  931MOL0     H22836   2.530   6.506   0.884 -1.2410 -1.1043  0.7718
  931MOL0     H22837   2.614   6.319   0.747  0.6869  1.9985  2.9824
  931MOL0     H22838   2.591   6.423   0.616 -1.6165  4.9793 -0.9438
  931MOL0     H22839   2.394   6.291   0.589  0.5602  0.9997 -0.6689
  931MOL0     H22840   2.316   6.423   0.670 -0.8539 -1.3648  1.0005
  931MOL0     H22841   2.428   6.182   0.829  0.7866  0.3929 -2.9938
  931MOL0     H22842   2.354   6.344   0.869 -0.2285  1.7960  0.1539
  931MOL0     H22843   2.222   6.119   0.706  1.5725 -0.9344  2.3586
  931MOL0     H22844   2.140   6.254   0.782 -3.8956 -4.4179 -1.3430
  931MOL0     H22845   2.315   5.918   0.831  1.5044 -0.7922  0.1444
  931MOL0     H22846   2.227   5.807   1.202  2.0564  3.7275 -0.2982
  931MOL0     H22847   2.313   5.739   1.046  0.0797  0.1860  0.9011
  931MOL0     H22848   2.014   5.749   1.092  0.5730  1.5856  0.5320
  931MOL0     H22849   2.108   5.615   1.145 -0.8428  0.9740  2.2467
  931MOL0     H22850   2.196   5.656   0.869 -0.7219  0.9061 -0.9279
  931MOL0     H22851   2.106   5.521   0.931  1.5874 -0.2900  2.2622
  931MOL0     H22852   1.982   5.784   0.827 -1.7189 -0.5837 -0.1057
  931MOL0     H22853   1.900   5.667   0.918 -1.2512 -1.3203 -0.9898
  931MOL0     H22854   2.029   5.442   0.545 -1.3523  0.1416 -1.5283
  931MOL0     H22855   1.962   5.217   0.514 -0.0157 -3.4965  1.3184
  931MOL0     H22856   2.044   4.833   0.462 -0.7228  3.1888  4.3188
  931MOL0     H22857   1.991   4.614   0.355  0.2511  0.8488 -0.5454
  931MOL0     H22858   1.753   4.315   0.326 -0.5028 -1.0644  0.4293
  931MOL0     H22859   1.910   4.390   0.365 -1.8160  0.4254  1.9133
  931MOL0     H22860   1.918   4.504   0.148 -0.1913  0.3923 -2.2391
  931MOL0     H22861   1.769   4.427   0.093 -2.0969  1.0470  0.9317
  931MOL0     H22862   1.865   4.204   0.122  2.5161 -1.1921  0.7428
  931MOL0     H22863   2.022   4.270   0.164 -0.4192 -0.6789  1.2842
  931MOL0     H22864   1.865   4.292  -0.101 -1.4517  5.3955  1.7928
  931MOL0     H22865   2.004   4.389  -0.069 -2.4305  0.1461 -0.8918
  931MOL0     H22866   2.151   4.206  -0.060  0.2423 -2.3071  1.6096
  931MOL0     H22867   2.044   4.181  -0.197  3.7733  4.1952 -1.3556
  931MOL0     H22868   1.930   4.010  -0.025  0.3037  0.4145  0.3914
  931MOL0     H22869   2.065   4.050   0.076 -0.4076  0.9793  0.4494
  931MOL0     H22870   2.085   3.958  -0.213 -2.0072 -2.7739  0.1310
  931MOL0     H22871   2.228   3.973  -0.107 -0.0480 -0.2546  1.5218
  931MOL0     H22872   2.133   3.812   0.038  0.9328  0.4216 -0.9352
  931MOL0     H22873   2.206   3.757  -0.115 -0.4156 -0.2371  1.1343
  931MOL0     H22874   1.573   4.676   0.436  0.4413  0.0159 -1.2547
  931MOL0     H22875   1.623   4.878   0.555 -0.4392  1.5029 -1.2075
  931MOL0     H22876   1.740   5.219   0.872  1.5817 -2.4565 -0.7042
  931MOL0     H22877   1.812   5.466   0.912  0.0531  0.4212 -0.1624
  931MOL0     H22878   2.488   7.202   0.935  2.2995 -2.9258 -2.8357
  931MOL0     H22879   2.369   7.413   0.905  0.2606  0.9871  0.0973
  931MOL0     H22880   2.201   7.827   0.878 -0.9828 -0.5750  2.4321
  931MOL0     H22881   2.060   8.001   0.872 -1.6364  1.1299  0.8029
  931MOL0     H22882   1.839   8.106   0.631  0.7649 -1.1637  0.0638
  931MOL0     H22883   1.930   8.143   0.778 -0.0239  2.3339 -0.0811
  931MOL0     H22884   1.731   8.232   0.877  1.3557 -2.7842  0.7651
  931MOL0     H22885   1.776   8.310   0.719 -0.2339 -0.6712 -0.4222
  931MOL0     H22886   1.529   8.128   0.777  0.1708 -0.5154 -0.5273
  931MOL0     H22887   1.604   8.135   0.621 -0.6427 -1.9510  0.0991
  931MOL0     H22888   1.573   8.408   0.646 -1.4840  0.7486 -1.3189
  931MOL0     H22889   1.422   8.327   0.636 -3.0456  2.7131  3.5381
  931MOL0     H22890   1.374   8.434   1.026 -0.2398 -1.3642  0.2352
  931MOL0     H22891   1.726   7.725   0.787 -0.5559  0.4508  2.9298
  931MOL0     H22892   1.873   7.560   0.759 -0.4969  0.2290  1.4511
  932MOL0     O22893   0.357   9.444   5.299 -0.3040  0.1700 -0.3803
  932MOL0     C22894   0.470   9.428   5.344  0.1054 -0.0618  0.3417
  932MOL0     O22895   0.523   9.321   5.412  0.1807  0.6229 -0.6177
  932MOL0     C22896   0.427   9.237   5.473  0.5188 -0.1092  0.1216
  932MOL0     C22897   0.456   9.210   5.609 -0.6457 -0.1093  0.5276
  932MOL0     C22898   0.360   9.144   5.680 -0.2384 -0.4821 -0.0984
  932MOL0     C22899   0.257   9.076   5.623  0.6135 -1.3308 -0.0745
  932MOL0     O22900   0.169   9.002   5.692  0.5812  0.3743  1.2015
  932MOL0     C22901   0.183   8.976   5.829 -0.0775 -0.0417 -0.4262
  932MOL0     C22902   0.107   8.851   5.869  0.1026  0.3480  0.0916
  932MOL0     C22903  -0.046   8.849   5.845  0.3942 -0.4209  0.1361
  932MOL0     C22904  -0.102   8.701   5.841 -0.0742 -0.0937  0.3053
  932MOL0     C22905  -0.253   8.694   5.876 -0.8332 -0.3690  0.7166
  932MOL0     C22906  -0.297   8.549   5.870  0.1276  0.8412  0.5003
  932MOL0     C22907  -0.437   8.523   5.911  0.1598  0.2157  0.1760
  932MOL0     C22908  -0.464   8.379   5.893 -0.1327  0.4754 -0.7441
  932MOL0     N22909  -0.590   8.330   5.961 -0.1542 -0.4515  0.5024
  932MOL0     C22910  -0.714   8.316   5.895  0.0736 -0.3670  0.3604
  932MOL0     C22911  -0.800   8.278   5.991 -0.6517  0.1664  0.0853
  932MOL0     C22912  -0.932   8.232   5.959 -0.6168  0.3513  0.6611
  932MOL0     C22913  -0.935   8.089   5.897 -0.9855  0.1881 -0.6268
  932MOL0     C22914  -0.878   7.988   6.002  0.6229  1.1235  0.4609
  932MOL0     C22915  -0.886   7.834   5.963  0.6265 -1.0956 -0.2320
  932MOL0     O22916  -0.798   7.811   5.863 -0.2098 -0.4512 -0.0788
  932MOL0     C22917  -0.665   7.824   5.887  0.2450  0.8284 -0.1113
  932MOL0     C22918  -0.590   7.745   5.973 -0.1003  0.4880  0.2394
  932MOL0     C22919  -0.457   7.770   6.006 -1.0392 -0.1085 -0.1650
  932MOL0     C22920  -0.390   7.887   5.956  0.0773  1.8055 -0.1142
  932MOL0     C22921  -0.247   7.922   5.975  0.3422 -1.0144 -0.4620
  932MOL0     O22922  -0.213   8.057   5.943  0.7012  0.5447 -0.3056
  932MOL0     C22923  -0.085   8.107   5.948  0.2588 -0.1090  0.0708
  932MOL0     C22924   0.036   8.053   5.897 -0.5181 -0.6572  0.3988
  932MOL0     C22925   0.168   8.107   5.921  0.6971 -0.1637  0.2035
  932MOL0     C22926   0.176   8.231   5.977  1.1519  1.4184  0.1317
  932MOL0     O22927   0.301   8.285   5.979 -0.3537 -0.5613  0.0250
  932MOL0     C22928   0.359   8.369   6.080 -0.9658  0.1448 -0.6507
  932MOL0     C22929   0.386   8.293   6.208  0.0057 -1.6160  0.4305
  932MOL0     C22930   0.470   8.384   6.307 -0.2631  0.1365 -0.4811
  932MOL0     C22931   0.392   8.506   6.351  0.0597  0.7978  0.4667
  932MOL0     C22932   0.427   8.645   6.292 -0.2140 -0.0396 -0.0744
  932MOL0     C22933   0.577   8.681   6.320 -0.2086  1.9221 -0.1026
  932MOL0     C22934   0.601   8.829   6.286  0.3891  1.0075  0.4115
  932MOL0     C22935   0.573   8.913   6.414  0.0527  0.2622  0.4848
  932MOL0    Cl22936   0.634   9.078   6.385  0.6955 -0.4820  0.5840
  932MOL0     C22937   0.056   8.294   6.014  1.3386  0.1794  0.2520
  932MOL0     C22938  -0.065   8.231   5.993 -0.2020 -0.0217  0.3427
  932MOL0     O22939  -0.168   7.828   6.013  0.4858  0.2108  0.1465
  932MOL0     C22940  -0.472   7.961   5.863 -0.3080 -0.1696  0.7809
  932MOL0     C22941  -0.604   7.932   5.837  0.4546  0.0903  0.0696
  932MOL0     N22942  -0.732   8.275   6.111 -0.1612  0.4684 -0.9900
  932MOL0     N22943  -0.604   8.305   6.088  0.6542  0.1115 -0.5733
  932MOL0     C22944   0.230   9.093   5.487  0.1554  0.6794  0.8249
  932MOL0     C22945   0.325   9.161   5.404  0.1707  0.8643  0.5786
  932MOL0     C22946   0.579   9.523   5.296  0.2240  0.0919  0.5440
  932MOL0     C22947   0.716   9.506   5.331 -0.8187  0.1969 -0.3382
  932MOL0     C22948   0.811   9.597   5.302 -0.8656 -0.6659  0.3099
  932MOL0     C22949   0.785   9.716   5.219  1.1356 -0.2450 -1.4026
  932MOL0     O22950   0.883   9.804   5.186  0.4717 -0.6804  0.6994
  932MOL0     C22951   0.866   9.904   5.090  0.2516  0.2541 -0.0685
  932MOL0     C22952   0.827  10.040   5.154  0.7320 -0.6866 -0.5460
  932MOL0     C22953   0.787  10.136   5.040  0.4867 -0.2707  1.0224
  932MOL0     C22954   0.694  10.093   4.929  0.0846 -0.9179  0.4364
  932MOL0     C22955   0.568  10.031   4.976 -0.1424  0.1421  0.1611
  932MOL0     C22956   0.472   9.977   5.021  0.3117 -0.5032  0.7475
  932MOL0     C22957   0.651   9.733   5.188 -0.0803 -0.1868 -0.6477
  932MOL0     C22958   0.554   9.637   5.219 -0.1394  0.6845  0.4593
  932MOL0     H22959   0.545   9.250   5.657  1.0804 -0.5771 -2.0812
  932MOL0     H22960   0.363   9.140   5.789 -2.7835 -0.2447  0.0377
  932MOL0     H22961   0.152   9.061   5.890 -2.0318 -0.4468 -0.7847
  932MOL0     H22962   0.283   8.940   5.856 -0.2622 -1.5705 -1.6083
  932MOL0     H22963   0.112   8.833   5.977  0.3395  0.1515  0.0494
  932MOL0     H22964   0.150   8.762   5.821 -0.1603 -0.4990  1.3733
  932MOL0     H22965  -0.063   8.896   5.748  2.8638 -2.4912 -1.4198
  932MOL0     H22966  -0.093   8.912   5.922 -0.4347  2.3553 -2.4742
  932MOL0     H22967  -0.070   8.647   5.752  2.7455  6.1364 -3.1601
  932MOL0     H22968  -0.060   8.652   5.930  0.3133  1.0665  0.7867
  932MOL0     H22969  -0.299   8.760   5.802  1.7740 -1.6024 -2.2332
  932MOL0     H22970  -0.270   8.728   5.978  1.1420 -1.3542  1.4346
  932MOL0     H22971  -0.238   8.475   5.925 -2.1675 -3.4623 -2.2592
  932MOL0     H22972  -0.293   8.519   5.765 -2.1699 -2.0404  1.1084
  932MOL0     H22973  -0.452   8.543   6.017 -1.4204 -1.6473  0.3616
  932MOL0     H22974  -0.507   8.584   5.853 -0.6685 -0.1404  0.7827
  932MOL0     H22975  -0.387   8.312   5.931  1.2510  1.7301 -1.2562
  932MOL0     H22976  -0.473   8.366   5.785  3.9520  1.5264 -1.3556
  932MOL0     H22977  -0.727   8.307   5.787  0.2162  0.4181  0.2707
  932MOL0     H22978  -0.996   8.301   5.903 -1.2803 -0.5107  0.3126
  932MOL0     H22979  -0.993   8.239   6.050 -2.3904 -2.4375 -0.1611
  932MOL0     H22980  -0.867   8.080   5.812  2.9427  0.9627  2.1688
  932MOL0     H22981  -1.039   8.071   5.870 -1.3649  1.5908 -0.1831
  932MOL0     H22982  -0.771   8.004   6.016  1.2508 -0.3043 -2.1541
  932MOL0     H22983  -0.941   8.003   6.091 -1.2720 -0.5133 -0.5095
  932MOL0     H22984  -0.990   7.811   5.940 -0.3141  2.4893 -0.0033
  932MOL0     H22985  -0.856   7.778   6.052 -1.3598  0.2304  1.3376
  932MOL0     H22986  -0.650   7.656   5.992 -2.4128  1.5772 -1.4909
  932MOL0     H22987  -0.405   7.727   6.091 -2.7941 -0.4578  0.7870
  932MOL0     H22988   0.032   7.955   5.850  0.6039 -0.9259  0.8321
  932MOL0     H22989   0.264   8.075   5.881  0.9041 -2.4528  2.3034
  932MOL0     H22990   0.294   8.452   6.107  0.3869  1.3052 -0.8135
  932MOL0     H22991   0.460   8.396   6.047  0.9673 -2.4880  2.4588
  932MOL0     H22992   0.438   8.199   6.184 -0.5948 -2.0712  0.8750
  932MOL0     H22993   0.289   8.287   6.259  0.5447  2.2253  2.1970
  932MOL0     H22994   0.566   8.421   6.271 -0.2213  0.0639 -0.4423
  932MOL0     H22995   0.491   8.324   6.396  0.8112  1.5151  0.2239
  932MOL0     H22996   0.288   8.485   6.326  0.0961 -0.8013  1.4796
  932MOL0     H22997   0.403   8.516   6.459 -1.4989 -2.2938  1.0363
  932MOL0     H22998   0.369   8.722   6.343  0.2713  0.8866 -0.8861
  932MOL0     H22999   0.408   8.654   6.184 -0.4429 -2.1839 -0.2486
  932MOL0     H23000   0.636   8.629   6.245 -2.1860 -0.2447 -0.2873
  932MOL0     H23001   0.612   8.650   6.419  1.3552 -4.6551 -2.2021
  932MOL0     H23002   0.708   8.834   6.267  0.8439 -2.5269  1.3250
  932MOL0     H23003   0.535   8.865   6.207 -1.8460 -0.3956  1.5149
  932MOL0     H23004   0.638   8.879   6.495  1.6039 -0.1297 -0.8744
  932MOL0     H23005   0.465   8.909   6.431 -0.2415  0.2574 -1.1982
  932MOL0     H23006   0.057   8.388   6.069 -0.0689  0.7073 -0.5864
  932MOL0     H23007  -0.154   8.285   6.024  1.4033  2.9094  0.1782
  932MOL0     H23008  -0.431   8.053   5.822 -4.9329  2.6711  1.7600
  932MOL0     H23009  -0.669   7.989   5.772 -1.0384 -0.1908  1.2655
  932MOL0     H23010   0.145   9.049   5.435  2.5599 -0.8727 -2.1268
  932MOL0     H23011   0.313   9.183   5.298  0.1770 -0.2172  0.3455
  932MOL0     H23012   0.734   9.417   5.391  0.0377 -0.2309 -1.1930
  932MOL0     H23013   0.912   9.588   5.342 -1.1530  2.9011  2.2883
  932MOL0     H23014   0.789   9.877   5.017  2.3302 -0.2791 -2.1878
  932MOL0     H23015   0.956   9.912   5.028  0.8907  2.5468  1.0310
  932MOL0     H23016   0.733  10.033   5.209  0.4155  3.7878 -0.1443
  932MOL0     H23017   0.913  10.078   5.211  2.5124 -2.4732 -1.8779
  932MOL0     H23018   0.877  10.171   4.990  0.4297 -1.2032  0.2395
  932MOL0     H23019   0.746  10.228   5.082  0.0284  1.2848 -2.5192
  932MOL0     H23020   0.670  10.183   4.872 -0.3817 -1.4127 -0.1769
  932MOL0     H23021   0.739  10.029   4.852  0.1574  0.7783 -0.9899
  932MOL0     H23022   0.375   9.946   5.054  0.7676 -4.6567 -1.1203
  932MOL0     H23023   0.636   9.821   5.126  1.7481  0.5432 -0.1191
  932MOL0     H23024   0.451   9.648   5.187  0.5352 -1.0822 -2.7034
  933MOL0     O23025   5.131   4.227   5.921  0.0279  0.2029 -0.4784
  933MOL0     C23026   5.235   4.175   5.886 -0.8524 -0.0479  0.1885
  933MOL0     O23027   5.298   4.072   5.952 -0.2554 -0.0080  0.6432
  933MOL0     C23028   5.234   4.006   6.058  0.4083  0.0471  0.7712
  933MOL0     C23029   5.104   3.994   6.095 -0.5942 -0.6816  0.6059
  933MOL0     C23030   5.060   3.946   6.219 -0.7856  0.4874  0.2484
  933MOL0     C23031   5.160   3.905   6.312  0.6674 -0.7474 -0.0592
  933MOL0     O23032   5.130   3.854   6.439 -0.4058  0.1692  0.2828
  933MOL0     C23033   4.997   3.845   6.483 -1.3310  0.3671 -0.4218
  933MOL0     C23034   4.961   3.775   6.616 -0.8081  0.2361  0.1080
  933MOL0     C23035   4.823   3.796   6.656 -0.6055 -0.4047  0.2975
  933MOL0     C23036   4.806   3.746   6.801 -0.7902 -0.0255  0.0850
  933MOL0     C23037   4.651   3.784   6.828  0.7905  0.4589 -0.3450
  933MOL0     C23038   4.615   3.727   6.968 -0.3930 -0.7201  0.4062
  933MOL0     C23039   4.471   3.749   7.022 -0.6775 -0.2550 -0.3612
  933MOL0     C23040   4.365   3.638   7.015 -0.5531  0.2307 -0.1480
  933MOL0     N23041   4.317   3.617   6.875  0.5274 -0.4280  0.4118
  933MOL0     C23042   4.239   3.703   6.796  0.3673  0.5296 -0.0105
  933MOL0     C23043   4.190   3.618   6.708  0.7413  0.3595 -0.5652
  933MOL0     C23044   4.135   3.657   6.578  0.5804 -0.4797 -0.2461
  933MOL0     C23045   3.982   3.675   6.589  0.0975 -1.2261 -0.5626
  933MOL0     C23046   3.894   3.564   6.639  1.1540  0.6823  0.6122
  933MOL0     C23047   3.744   3.607   6.623  0.4238 -0.2812  1.0339
  933MOL0     O23048   3.663   3.503   6.673 -0.6843  0.2780 -0.3935
  933MOL0     C23049   3.645   3.377   6.620 -0.2177 -0.0058  0.0959
  933MOL0     C23050   3.575   3.294   6.697  0.1146  0.2138  0.0030
  933MOL0     C23051   3.544   3.161   6.658 -0.3495  0.7349  0.7484
  933MOL0     C23052   3.597   3.110   6.536 -0.1203  0.2104  0.2386
  933MOL0     C23053   3.570   2.965   6.503  0.3446  0.0216  0.6097
  933MOL0     O23054   3.474   2.905   6.586 -0.7097  1.1785  0.2427
  933MOL0     C23055   3.467   2.766   6.577 -0.0252  0.6245  0.2435
  933MOL0     C23056   3.360   2.691   6.526 -1.4103 -0.2499 -0.7104
  933MOL0     C23057   3.373   2.558   6.521 -0.5993  1.2971 -0.3014
  933MOL0     C23058   3.495   2.489   6.560 -0.4259 -0.1889 -0.0613
  933MOL0     O23059   3.516   2.352   6.549  0.5981  0.2821 -0.2033
  933MOL0     C23060   3.403   2.277   6.497 -0.7375 -0.3326 -0.3981
  933MOL0     C23061   3.436   2.126   6.469 -0.0041 -0.4625  1.1777
  933MOL0     C23062   3.313   2.038   6.448  0.4120 -0.0911  0.3723
  933MOL0     C23063   3.249   2.051   6.310  0.5971  0.6172 -0.2760
  933MOL0     C23064   3.303   1.960   6.207 -0.2557  0.4468 -0.4779
  933MOL0     C23065   3.220   1.981   6.078  0.1560 -0.1502  1.1842
  933MOL0     C23066   3.237   1.857   6.002 -0.0931 -0.1823  0.2968
  933MOL0     C23067   3.171   1.857   5.861  0.6965  0.1805 -1.1076
  933MOL0    Cl23068   3.016   1.954   5.868 -0.3333 -0.2177  0.3676
  933MOL0     C23069   3.599   2.569   6.620  0.5603  0.5230  0.2745
  933MOL0     C23070   3.583   2.702   6.625 -0.6828 -0.7167  0.2382
  933MOL0     O23071   3.632   2.909   6.410  1.6434  0.4044  0.1359
  933MOL0     C23072   3.681   3.193   6.462  0.1983  0.0853  1.3216
  933MOL0     C23073   3.682   3.330   6.488 -0.5369  0.3189 -0.3468
  933MOL0     N23074   4.225   3.485   6.724 -0.4004 -0.2510 -0.3939
  933MOL0     N23075   4.300   3.490   6.829 -0.3281 -0.6932 -0.1692
  933MOL0     C23076   5.298   3.918   6.284  1.0964 -0.5666  0.2201
  933MOL0     C23077   5.322   3.956   6.153 -0.4009  0.1439 -0.3028
  933MOL0     C23078   5.294   4.209   5.751 -0.5420 -0.2925 -0.5341
  933MOL0     C23079   5.221   4.301   5.674  0.1037  0.3167  0.4211
  933MOL0     C23080   5.274   4.344   5.551  0.5421 -0.6006  0.7843
  933MOL0     C23081   5.396   4.301   5.497 -0.6629 -0.7944 -0.1230
  933MOL0     O23082   5.432   4.343   5.364  1.3086  0.2638  0.0688
  933MOL0     C23083   5.575   4.326   5.333  0.3452 -0.8475  0.3003
  933MOL0     C23084   5.596   4.392   5.191  1.0485 -0.2833 -0.9762
  933MOL0     C23085   5.509   4.326   5.072  0.2757  0.3567  0.7793
  933MOL0     C23086   5.506   4.407   4.947  0.3418 -0.0909 -0.3572
  933MOL0     C23087   5.638   4.411   4.878 -0.1051 -0.5823  0.1483
  933MOL0     C23088   5.747   4.405   4.831 -1.3146  0.4175  0.0262
  933MOL0     C23089   5.471   4.203   5.578 -1.3654 -0.6287 -0.1520
  933MOL0     C23090   5.410   4.150   5.693 -0.3612  0.2746  0.0285
  933MOL0     H23091   5.028   4.040   6.033  1.5905  1.4443 -0.6968
  933MOL0     H23092   4.952   3.939   6.235 -0.7909 -0.6822 -0.1749
  933MOL0     H23093   4.945   3.793   6.402 -1.8975  1.6749 -0.9177
  933MOL0     H23094   4.974   3.950   6.499  2.9941  1.3499  0.7047
  933MOL0     H23095   5.029   3.818   6.690  2.9372  1.0513 -3.4781
  933MOL0     H23096   4.983   3.668   6.614 -0.1245  0.3804 -0.6799
  933MOL0     H23097   4.748   3.756   6.588  0.2603  0.2468 -1.0669
  933MOL0     H23098   4.801   3.903   6.649  0.6341 -0.2659 -2.8150
  933MOL0     H23099   4.826   3.639   6.805  3.8987  0.4819 -2.4603
  933MOL0     H23100   4.882   3.788   6.868 -0.0281 -0.3104 -0.5931
  933MOL0     H23101   4.579   3.744   6.756 -0.4194  0.7291  0.6735
  933MOL0     H23102   4.651   3.893   6.831  0.6294  0.4696  2.7753
  933MOL0     H23103   4.690   3.771   7.035 -0.3722  3.8146 -2.1910
  933MOL0     H23104   4.638   3.620   6.967 -2.9706 -1.3459 -1.1727
  933MOL0     H23105   4.478   3.770   7.129  0.5359 -0.5254 -0.3724
  933MOL0     H23106   4.431   3.836   6.970  0.0848 -1.3448 -2.9310
  933MOL0     H23107   4.273   3.653   7.071 -1.8939 -0.3391 -2.1054
  933MOL0     H23108   4.417   3.551   7.057 -1.0407  0.9533  2.0496
  933MOL0     H23109   4.221   3.810   6.791 -1.2830  0.2437 -1.6698
  933MOL0     H23110   4.147   3.576   6.504 -0.8396  2.5086 -4.0668
  933MOL0     H23111   4.191   3.737   6.530 -0.9954 -1.5800 -4.4033
  933MOL0     H23112   3.961   3.702   6.485 -1.1724  1.4861  0.2992
  933MOL0     H23113   3.975   3.771   6.641 -0.1905 -0.8030 -1.3577
  933MOL0     H23114   3.906   3.487   6.563  0.9842  0.4554  0.8158
  933MOL0     H23115   3.916   3.546   6.745  3.4989  2.8750  0.6087
  933MOL0     H23116   3.725   3.626   6.517  1.6729  0.9273  1.0052
  933MOL0     H23117   3.715   3.704   6.665  0.6708  0.6032 -0.7553
  933MOL0     H23118   3.542   3.315   6.799 -0.2702 -0.5983  0.0549
  933MOL0     H23119   3.488   3.098   6.727  1.7844 -3.0687 -0.6503
  933MOL0     H23120   3.270   2.751   6.516 -0.8569  1.8030  4.0467
  933MOL0     H23121   3.292   2.503   6.475  3.5910 -1.4391 -5.7002
  933MOL0     H23122   3.379   2.322   6.400  1.2138  0.1211 -0.7148
  933MOL0     H23123   3.329   2.283   6.577  0.7273  0.1466  0.9856
  933MOL0     H23124   3.492   2.083   6.552 -0.5557 -1.7053  0.9361
  933MOL0     H23125   3.491   2.122   6.374 -0.3899 -3.6897  0.9789
  933MOL0     H23126   3.239   2.061   6.526 -0.4865  0.8514 -0.7236
  933MOL0     H23127   3.334   1.932   6.466 -4.3754 -1.8218 -2.4332
  933MOL0     H23128   3.150   2.019   6.341  1.4039 -1.4840  0.3091
  933MOL0     H23129   3.240   2.155   6.277 -5.4513  0.6820  0.5880
  933MOL0     H23130   3.297   1.861   6.254 -1.0561  1.1338  0.9273
  933MOL0     H23131   3.407   1.990   6.195 -0.6933  1.9673 -0.7021
  933MOL0     H23132   3.236   2.078   6.031  0.7210  0.5788  2.7867
  933MOL0     H23133   3.113   1.998   6.095  0.5280  2.7171  1.1324
  933MOL0     H23134   3.338   1.816   5.990  0.4632  1.0753  0.5574
  933MOL0     H23135   3.185   1.770   6.042  0.5949 -0.2222  1.1134
  933MOL0     H23136   3.161   1.751   5.838 -2.3777 -0.2569  1.6044
  933MOL0     H23137   3.241   1.912   5.796  2.1072  1.2618  1.1940
  933MOL0     H23138   3.696   2.530   6.651  0.9454  2.7251  2.0683
  933MOL0     H23139   3.668   2.761   6.657  1.1641 -2.5448 -1.0549
  933MOL0     H23140   3.729   3.156   6.372  1.7838  0.1699  2.0904
  933MOL0     H23141   3.735   3.389   6.414  2.5171 -4.5782 -2.6036
  933MOL0     H23142   5.377   3.916   6.359  0.0934  2.4764  1.5242
  933MOL0     H23143   5.419   3.976   6.110 -0.1679  3.2743  1.3722
  933MOL0     H23144   5.127   4.344   5.708 -0.7937 -1.3911  0.2166
  933MOL0     H23145   5.206   4.406   5.493  1.9267  1.3532  1.1570
  933MOL0     H23146   5.590   4.218   5.325 -2.8283 -1.2924 -0.8623
  933MOL0     H23147   5.637   4.364   5.415  0.0003 -1.9036  1.0774
  933MOL0     H23148   5.574   4.499   5.196 -0.8472 -0.3957 -3.9010
  933MOL0     H23149   5.703   4.384   5.170  1.5708  0.2309  1.2693
  933MOL0     H23150   5.403   4.316   5.098  0.4378  2.2839  2.4672
  933MOL0     H23151   5.537   4.227   5.036  1.7310  1.3443 -1.0223
  933MOL0     H23152   5.424   4.361   4.892 -2.1114 -0.2827  3.1448
  933MOL0     H23153   5.475   4.505   4.984  0.8895 -1.1313  3.2998
  933MOL0     H23154   5.841   4.407   4.779  0.7763  3.9461  3.3801
  933MOL0     H23155   5.567   4.176   5.537 -2.2437 -2.7241 -0.9600
  933MOL0     H23156   5.471   4.082   5.752 -0.0138  1.7781  1.4760
  934MOL0     O23157   3.534   4.999   5.531  0.1452 -0.0887  0.3624
  934MOL0     C23158   3.506   5.068   5.623 -0.5540 -0.5876  0.2614
  934MOL0     O23159   3.380   5.096   5.676 -1.0006  0.6893 -0.0998
  934MOL0     C23160   3.269   5.033   5.635 -0.4247  0.2763  0.8279
  934MOL0     C23161   3.268   4.913   5.572  0.6387 -0.2876 -0.0970
  934MOL0     C23162   3.151   4.856   5.536  0.1859  0.5539  0.7844
  934MOL0     C23163   3.027   4.920   5.532 -0.7217  0.7583 -0.4245
  934MOL0     O23164   2.910   4.860   5.490  0.2459 -0.5170 -0.2659
  934MOL0     C23165   2.918   4.709   5.498  0.1179  0.4673 -0.1190
  934MOL0     C23166   2.774   4.662   5.489 -0.0413 -0.6028 -0.0809
  934MOL0     C23167   2.722   4.585   5.614  0.0147 -1.1108 -0.1801
  934MOL0     C23168   2.574   4.542   5.600 -0.0598 -0.1284 -0.4885
  934MOL0     C23169   2.549   4.428   5.493  1.0793  0.1129  0.6769
  934MOL0     C23170   2.399   4.385   5.485  0.5309 -0.3874  0.5266
  934MOL0     C23171   2.371   4.287   5.369  0.3652  1.1013  0.1409
  934MOL0     C23172   2.225   4.264   5.338 -0.7686  0.3294  0.3383
  934MOL0     N23173   2.135   4.221   5.440 -1.1122 -0.3473 -0.5634
  934MOL0     C23174   2.117   4.100   5.488 -0.7669 -0.0036  0.0389
  934MOL0     C23175   2.033   4.112   5.593 -0.1389 -0.1965 -0.1819
  934MOL0     C23176   1.988   3.992   5.670  0.8812  1.2787 -0.2065
  934MOL0     C23177   2.068   3.955   5.795  0.4370 -0.3027  0.3386
  934MOL0     C23178   2.048   3.810   5.844 -0.8980 -1.2534 -0.3311
  934MOL0     C23179   1.908   3.781   5.909  0.3988  0.3186  1.2566
  934MOL0     O23180   1.866   3.888   5.988  0.8904 -0.8161 -0.6297
  934MOL0     C23181   1.729   3.900   6.002  0.6452  0.3490 -1.0679
  934MOL0     C23182   1.647   3.793   6.036 -0.3845  0.5990  0.5112
  934MOL0     C23183   1.512   3.810   6.065 -0.4029 -0.0061 -1.1401
  934MOL0     C23184   1.451   3.938   6.061 -0.5604 -0.7382  0.6043
  934MOL0     C23185   1.305   3.951   6.068  0.4144  0.4923 -0.2438
  934MOL0     O23186   1.229   3.832   6.057 -0.6306 -0.8595 -0.5086
  934MOL0     C23187   1.093   3.828   6.037  0.3333 -0.0320 -0.0380
  934MOL0     C23188   1.031   3.916   5.968  0.0229 -0.4676 -1.1590
  934MOL0     C23189   0.892   3.916   5.945  0.1588 -0.5807 -0.4843
  934MOL0     C23190   0.812   3.814   5.997 -0.6614  0.1321 -0.1169
  934MOL0     O23191   0.676   3.793   5.989 -0.2212 -0.8895  0.5055
  934MOL0     C23192   0.587   3.895   5.943  0.0198  0.5944 -0.3833
  934MOL0     C23193   0.492   3.932   6.056 -0.0133  0.3259  0.7409
  934MOL0     C23194   0.408   4.058   6.028  0.0598  1.0440 -0.3705
  934MOL0     C23195   0.276   4.029   5.964  0.2566 -0.5084  0.5139
  934MOL0     C23196   0.183   4.142   5.955  0.4412  0.1650  0.0034
  934MOL0     C23197   0.070   4.092   5.863  0.8309 -0.0869  1.1873
  934MOL0     C23198  -0.067   4.171   5.881 -0.1102  0.8357  1.1045
  934MOL0     C23199  -0.101   4.243   5.746  0.1195  0.3537 -0.1246
  934MOL0    Cl23200   0.016   4.371   5.698 -0.0848  0.1595  0.4390
  934MOL0     C23201   0.880   3.711   6.063 -0.3485  0.7057 -0.3126
  934MOL0     C23202   1.022   3.720   6.080  0.7653 -0.4026 -0.1127
  934MOL0     O23203   1.258   4.055   6.100  0.0239 -0.2044  0.6728
  934MOL0     C23204   1.530   4.050   6.029 -0.1245  0.4346 -0.7616
  934MOL0     C23205   1.667   4.029   6.004 -1.0140  0.0262  0.0581
  934MOL0     N23206   1.997   4.245   5.599  0.0181  0.1283 -0.4655
  934MOL0     N23207   2.050   4.305   5.498  0.3713  0.5218 -1.1113
  934MOL0     C23208   3.033   5.048   5.593  0.4764 -0.2160  0.0080
  934MOL0     C23209   3.146   5.094   5.653 -0.1738  0.9148  0.0059
  934MOL0     C23210   3.619   5.126   5.699  0.0607 -1.0824 -0.1322
  934MOL0     C23211   3.745   5.060   5.688 -0.0405  0.0466 -0.1948
  934MOL0     C23212   3.849   5.109   5.760 -0.2391 -0.5045  0.3318
  934MOL0     C23213   3.845   5.213   5.850  0.8067 -0.0238 -1.1219
  934MOL0     O23214   3.966   5.235   5.912 -0.1473  0.1956  0.0375
  934MOL0     C23215   4.004   5.362   5.962  0.5435  0.7317 -0.1222
  934MOL0     C23216   4.118   5.353   6.056 -0.1080  0.2810 -0.1723
  934MOL0     C23217   4.255   5.349   5.988 -0.9531 -0.0629  0.2998
  934MOL0     C23218   4.322   5.487   5.970 -0.1740  0.2402 -0.6923
  934MOL0     C23219   4.432   5.479   5.872  0.0280 -0.4130 -0.3416
  934MOL0     C23220   4.503   5.468   5.781  0.0056  0.6338 -0.3367
  934MOL0     C23221   3.719   5.276   5.868  0.3305  0.4624  0.0524
  934MOL0     C23222   3.608   5.220   5.803  0.4653  0.3637  0.3710
  934MOL0     H23223   3.358   4.855   5.556  0.9444  0.4900 -1.4068
  934MOL0     H23224   3.153   4.755   5.497  2.2457  0.9770 -0.3390
  934MOL0     H23225   2.968   4.677   5.589  0.1843 -1.8562 -0.8931
  934MOL0     H23226   2.977   4.676   5.412  0.4220  0.8724 -0.0683
  934MOL0     H23227   2.764   4.598   5.401  0.2050 -2.6281  1.2929
  934MOL0     H23228   2.704   4.745   5.481  0.0129 -0.5698 -0.2125
  934MOL0     H23229   2.726   4.648   5.703 -3.1732 -4.3739  2.5370
  934MOL0     H23230   2.788   4.501   5.638  1.7443 -0.0028 -0.8542
  934MOL0     H23231   2.533   4.508   5.696 -0.6085  0.9835 -0.3137
  934MOL0     H23232   2.510   4.623   5.563 -0.5413  1.4299  3.2937
  934MOL0     H23233   2.621   4.347   5.503  0.9210 -0.2378 -0.8439
  934MOL0     H23234   2.563   4.474   5.395 -2.2167 -1.8250 -0.8758
  934MOL0     H23235   2.344   4.471   5.446 -1.1973 -2.5149 -2.0724
  934MOL0     H23236   2.354   4.370   5.584 -0.1408  0.9706  0.4503
  934MOL0     H23237   2.431   4.308   5.280  2.1805 -3.2321  0.0927
  934MOL0     H23238   2.407   4.188   5.400 -2.2276  0.4445  1.3215
  934MOL0     H23239   2.222   4.182   5.267 -0.4053  0.6403 -0.0372
  934MOL0     H23240   2.184   4.355   5.294 -0.6506  0.0664 -0.3255
  934MOL0     H23241   2.162   4.006   5.456  1.1393  0.2065  1.8844
  934MOL0     H23242   1.992   3.905   5.603  1.5782  1.7624 -0.7972
  934MOL0     H23243   1.881   3.999   5.692  0.1935 -0.8835 -2.4049
  934MOL0     H23244   2.052   4.024   5.878  0.8200  1.2988 -0.8644
  934MOL0     H23245   2.174   3.961   5.766  0.4869 -1.2378  0.2783
  934MOL0     H23246   2.081   3.741   5.766  3.4490 -0.2023  0.3193
  934MOL0     H23247   2.114   3.796   5.930  0.5035 -1.1881 -1.3677
  934MOL0     H23248   1.910   3.685   5.961  0.3040 -1.8024 -2.2981
  934MOL0     H23249   1.842   3.767   5.823 -0.5886  0.4393  1.9919
  934MOL0     H23250   1.686   3.692   6.034 -1.4182  0.1956 -0.7537
  934MOL0     H23251   1.463   3.714   6.078  1.5257 -0.8525  0.2944
  934MOL0     H23252   1.079   4.001   5.920  0.9600 -0.7414 -0.7193
  934MOL0     H23253   0.836   3.997   5.898  0.2796 -0.7816 -0.9800
  934MOL0     H23254   0.524   3.845   5.870  1.0007  1.6474 -2.0105
  934MOL0     H23255   0.628   3.991   5.907 -0.6981  1.9786  2.2405
  934MOL0     H23256   0.549   3.954   6.146 -0.5959 -0.3160  1.2779
  934MOL0     H23257   0.431   3.849   6.091  0.5553 -0.6319 -0.4731
  934MOL0     H23258   0.462   4.130   5.967  0.9191 -0.1123 -1.0199
  934MOL0     H23259   0.379   4.095   6.127 -0.7695 -3.5746  1.3936
  934MOL0     H23260   0.305   4.008   5.861 -2.1877  1.7403 -0.7371
  934MOL0     H23261   0.220   3.946   6.009 -1.9183  1.2927  1.2847
  934MOL0     H23262   0.234   4.229   5.914  0.7696  0.3740  0.8343
  934MOL0     H23263   0.135   4.170   6.049 -2.7642 -0.5019 -1.2849
  934MOL0     H23264   0.050   3.986   5.883 -0.3638  0.1088  1.0689
  934MOL0     H23265   0.094   4.105   5.757 -0.7681  2.6650  1.0787
  934MOL0     H23266  -0.153   4.107   5.899  0.2830 -0.0185  0.0211
  934MOL0     H23267  -0.070   4.236   5.969  0.3611 -0.1869  1.8883
  934MOL0     H23268  -0.199   4.292   5.745  0.6669  1.8479  3.1934
  934MOL0     H23269  -0.108   4.163   5.673 -0.2249  1.1678 -1.0113
  934MOL0     H23270   0.818   3.636   6.110 -0.0066  0.5671 -0.0828
  934MOL0     H23271   1.069   3.645   6.142  0.9050 -0.6256 -0.4841
  934MOL0     H23272   1.483   4.145   6.048 -0.0363  0.9965 -3.0909
  934MOL0     H23273   1.731   4.115   5.984  0.6260 -0.3698  3.1120
  934MOL0     H23274   2.934   5.091   5.580 -0.0744 -1.5714 -0.4598
  934MOL0     H23275   3.145   5.193   5.696 -0.9720  0.2312  1.6475
  934MOL0     H23276   3.755   4.985   5.610  3.1687 -0.3691  0.4999
  934MOL0     H23277   3.951   5.075   5.751  0.3168  1.5117 -2.2148
  934MOL0     H23278   3.915   5.397   6.016  1.0111  1.3211  0.2879
  934MOL0     H23279   4.028   5.437   5.885 -1.0405  1.1197 -0.2662
  934MOL0     H23280   4.103   5.434   6.128 -0.6646 -0.3878  0.4641
  934MOL0     H23281   4.106   5.260   6.111  1.6621  0.1530  0.0728
  934MOL0     H23282   4.239   5.296   5.894  0.4853 -1.5824  0.8710
  934MOL0     H23283   4.322   5.292   6.053 -0.2793  1.8980  1.4130
  934MOL0     H23284   4.249   5.563   5.942 -0.4003  0.0168 -0.7121
  934MOL0     H23285   4.357   5.514   6.070 -4.0030  2.4269  0.2476
  934MOL0     H23286   4.576   5.462   5.703 -1.5625 -0.8888 -1.7721
  934MOL0     H23287   3.697   5.351   5.943 -0.0300 -2.4313  3.1198
  934MOL0     H23288   3.513   5.258   5.840  0.6873  0.6554  0.6468
  935MOL0     O23289   2.090   2.407   0.843 -0.4138 -0.0603 -0.0646
  935MOL0     C23290   2.109   2.287   0.859 -0.5453  0.5760 -0.1791
  935MOL0     O23291   2.094   2.212   0.986  0.1251 -0.1278 -0.2053
  935MOL0     C23292   2.073   2.293   1.096 -0.8990 -0.0127  0.3093
  935MOL0     C23293   1.946   2.349   1.111 -0.5516  0.5885  0.6767
  935MOL0     C23294   1.918   2.445   1.213  0.3321 -0.2742  0.2431
  935MOL0     C23295   2.006   2.459   1.324 -0.2604 -0.7394  0.5247
  935MOL0     O23296   1.960   2.546   1.423 -0.4376  0.4840 -0.0811
  935MOL0     C23297   2.013   2.536   1.555 -0.5504  0.2092 -0.2583
  935MOL0     C23298   1.939   2.636   1.658 -0.1702  0.1687  0.0276
  935MOL0     C23299   2.026   2.682   1.770  0.5269 -0.3792  0.8528
  935MOL0     C23300   1.972   2.805   1.852  0.2311  0.2164  0.0556
  935MOL0     C23301   2.041   2.829   1.989  0.4702  0.4000 -0.0652
  935MOL0     C23302   2.199   2.830   1.981  0.4990  0.1788 -0.5759
  935MOL0     C23303   2.244   2.840   2.129 -0.4585 -0.2307  0.9292
  935MOL0     C23304   2.260   2.705   2.203 -0.0372  0.0121 -0.4208
  935MOL0     N23305   2.193   2.722   2.329 -0.0317  0.3649 -0.1688
  935MOL0     C23306   2.255   2.733   2.452  0.7443  0.3349  0.4334
  935MOL0     C23307   2.150   2.729   2.538 -0.0525 -0.5961 -0.0051
  935MOL0     C23308   2.156   2.736   2.690 -0.1205 -0.4350 -0.5279
  935MOL0     C23309   2.209   2.863   2.757  0.4348  0.2131 -0.2782
  935MOL0     C23310   2.160   3.004   2.731  0.3512  0.3092 -0.3020
  935MOL0     C23311   2.212   3.067   2.600 -0.6877  0.1866 -0.3069
  935MOL0     O23312   2.157   3.199   2.573 -0.1247 -0.0904 -0.1378
  935MOL0     C23313   2.025   3.212   2.526 -0.1684  0.4414  0.1864
  935MOL0     C23314   1.933   3.111   2.502  0.1524  0.0944 -0.4805
  935MOL0     C23315   1.801   3.140   2.477 -0.1104 -1.3620  0.7019
  935MOL0     C23316   1.757   3.277   2.481 -1.3867  0.0576 -0.7867
  935MOL0     C23317   1.614   3.307   2.446 -0.7940  0.6866 -0.0430
  935MOL0     O23318   1.549   3.230   2.349  0.1102  0.3161  0.5705
  935MOL0     C23319   1.417   3.231   2.362  0.5753  0.3776  0.6651
  935MOL0     C23320   1.345   3.334   2.294  1.0172  0.9270 -0.8778
  935MOL0     C23321   1.206   3.324   2.280  0.6070  0.0705 -0.0830
  935MOL0     C23322   1.131   3.213   2.329  0.7116  0.6546  0.4276
  935MOL0     O23323   0.998   3.210   2.303 -0.1754  0.1835 -0.1475
  935MOL0     C23324   0.918   3.150   2.407  0.3128  0.2660 -0.5885
  935MOL0     C23325   0.856   3.012   2.368  0.4455  0.5203 -0.3040
  935MOL0     C23326   0.745   2.962   2.473  0.0267 -1.3363 -0.1999
  935MOL0     C23327   0.679   2.841   2.426  0.2256  0.0508  0.6151
  935MOL0     C23328   0.547   2.818   2.491 -0.4545  1.0560 -0.3477
  935MOL0     C23329   0.481   2.679   2.458  0.1665 -0.2671  0.0028
  935MOL0     C23330   0.386   2.640   2.574 -0.7857  0.2746 -0.1379
  935MOL0     C23331   0.256   2.727   2.584 -0.1630 -0.1064  0.4306
  935MOL0    Cl23332   0.149   2.674   2.460 -0.3464 -0.3289  0.2445
  935MOL0     C23333   1.203   3.117   2.401  0.5313 -0.3139  0.4931
  935MOL0     C23334   1.344   3.129   2.422 -0.0210 -0.2059 -0.7795
  935MOL0     O23335   1.562   3.370   2.538  0.0854 -0.3141  0.0823
  935MOL0     C23336   1.844   3.375   2.511  0.0205 -0.9187  0.7053
  935MOL0     C23337   1.983   3.345   2.517  0.5392 -0.5627 -0.4297
  935MOL0     N23338   2.029   2.724   2.470 -0.0763  0.7752 -0.7216
  935MOL0     N23339   2.063   2.694   2.351 -0.0057  0.5358 -0.3268
  935MOL0     C23340   2.125   2.392   1.314  0.0929  0.1490 -0.4185
  935MOL0     C23341   2.161   2.314   1.199  0.7254 -0.4640 -0.5803
  935MOL0     C23342   2.144   2.221   0.726  0.3635  0.8963 -0.3223
  935MOL0     C23343   2.157   2.086   0.719  0.2184 -0.5021 -0.5281
  935MOL0     C23344   2.187   2.014   0.597 -1.0883  0.2230 -0.0525
  935MOL0     C23345   2.215   2.086   0.481  0.6787 -0.2697 -0.4321
  935MOL0     O23346   2.253   2.011   0.373  0.4718 -0.2692 -0.6297
  935MOL0     C23347   2.166   2.014   0.261 -0.6000  0.2078 -0.7933
  935MOL0     C23348   2.223   1.972   0.126 -0.6728 -0.2177  0.4183
  935MOL0     C23349   2.261   1.824   0.113 -0.2317 -0.6228 -0.0204
  935MOL0     C23350   2.348   1.773   0.229  0.2335 -0.2018  1.0676
  935MOL0     C23351   2.409   1.638   0.207  0.7269  0.8063 -0.4996
  935MOL0     C23352   2.443   1.521   0.212 -0.1740  0.4184  0.5509
  935MOL0     C23353   2.204   2.228   0.486  0.2819 -0.2634 -1.1258
  935MOL0     C23354   2.169   2.296   0.604  0.4003  0.0656 -0.3351
  935MOL0     H23355   1.870   2.332   1.035 -1.2816  2.0700  1.0168
  935MOL0     H23356   1.827   2.504   1.209 -0.0143 -0.5728 -5.9325
  935MOL0     H23357   2.119   2.561   1.548 -0.3968  0.8911  2.8892
  935MOL0     H23358   2.009   2.429   1.581  1.1117 -0.0138 -0.7985
  935MOL0     H23359   1.849   2.583   1.689 -1.6149  2.2367 -0.3970
  935MOL0     H23360   1.910   2.720   1.593  1.1675 -2.3170 -4.1778
  935MOL0     H23361   2.117   2.711   1.715 -1.1063  1.9922 -0.8211
  935MOL0     H23362   2.042   2.596   1.835  1.0568 -1.6830 -0.9311
  935MOL0     H23363   1.982   2.885   1.778  0.8581 -1.0720 -1.3195
  935MOL0     H23364   1.864   2.797   1.865 -0.1451 -1.0494 -2.9289
  935MOL0     H23365   1.999   2.756   2.059 -0.7354  0.5141 -0.6408
  935MOL0     H23366   2.005   2.924   2.029  1.1081 -0.4481  2.7183
  935MOL0     H23367   2.229   2.918   1.923 -2.9912  1.0156 -1.3816
  935MOL0     H23368   2.240   2.733   1.950 -2.5493 -1.2522 -0.5890
  935MOL0     H23369   2.340   2.893   2.131 -0.6169  0.1116 -0.0531
  935MOL0     H23370   2.175   2.907   2.180  0.9647  1.3829  0.8056
  935MOL0     H23371   2.366   2.686   2.221  0.5714  3.3299  0.1222
  935MOL0     H23372   2.212   2.616   2.159  0.4872 -0.5324  0.0924
  935MOL0     H23373   2.362   2.732   2.472  1.2800 -0.2073 -2.1232
  935MOL0     H23374   2.214   2.649   2.720  0.7622  0.7206  1.2889
  935MOL0     H23375   2.053   2.723   2.724 -1.2690  2.5922 -2.3430
  935MOL0     H23376   2.318   2.864   2.745  0.4622 -1.5390 -0.3423
  935MOL0     H23377   2.190   2.838   2.862 -1.0160  0.5303 -0.4405
  935MOL0     H23378   2.052   3.014   2.746  0.6782 -0.6171  3.8197
  935MOL0     H23379   2.195   3.068   2.813  0.6734 -2.9511  2.3333
  935MOL0     H23380   2.185   3.001   2.517 -2.6160  2.0120 -1.2423
  935MOL0     H23381   2.321   3.077   2.599 -0.8143  2.0346 -1.5437
  935MOL0     H23382   1.958   3.005   2.502 -2.7217 -0.7085  1.0365
  935MOL0     H23383   1.729   3.071   2.435 -0.1907 -0.9890  0.2214
  935MOL0     H23384   1.393   3.415   2.241  2.7788 -0.7375 -1.9856
  935MOL0     H23385   1.153   3.410   2.241  1.7838  0.8335 -0.0425
  935MOL0     H23386   0.836   3.219   2.430  1.1456  1.2625 -0.5656
  935MOL0     H23387   0.975   3.151   2.500  0.1685  0.7583 -0.5022
  935MOL0     H23388   0.930   2.931   2.372 -1.3840 -1.1827  1.4312
  935MOL0     H23389   0.807   3.034   2.273 -0.7865  1.4795  0.5268
  935MOL0     H23390   0.666   3.038   2.474  1.2226 -0.0207 -1.3648
  935MOL0     H23391   0.789   2.949   2.572  4.3760  0.5765 -1.6639
  935MOL0     H23392   0.680   2.839   2.316 -0.6494  1.4730  0.5561
  935MOL0     H23393   0.736   2.750   2.444 -2.7490 -2.4485 -1.4833
  935MOL0     H23394   0.481   2.895   2.450 -2.2350 -0.2848 -0.1011
  935MOL0     H23395   0.561   2.827   2.599  0.4803  0.0088 -0.3647
  935MOL0     H23396   0.557   2.603   2.439  0.6617  0.3960 -0.7725
  935MOL0     H23397   0.439   2.692   2.357  1.5539  1.4863 -0.4085
  935MOL0     H23398   0.359   2.534   2.564 -1.3970  0.3255  0.8884
  935MOL0     H23399   0.454   2.646   2.660 -1.1886  0.5635  0.1610
  935MOL0     H23400   0.280   2.832   2.565 -0.8910  0.0550  0.3609
  935MOL0     H23401   0.208   2.711   2.681 -2.7871 -2.5938 -1.1069
  935MOL0     H23402   1.150   3.029   2.437  1.9828 -0.8237  1.4938
  935MOL0     H23403   1.394   3.041   2.462 -0.5596 -0.4469 -0.6289
  935MOL0     H23404   1.817   3.480   2.511  3.6727  0.1542  0.0817
  935MOL0     H23405   2.052   3.426   2.537 -0.5781  1.1288 -2.8802
  935MOL0     H23406   2.198   2.399   1.393 -0.1542 -0.6521 -0.1105
  935MOL0     H23407   2.262   2.275   1.196  0.5158 -0.9672 -1.7097
  935MOL0     H23408   2.139   2.026   0.808  4.4623 -2.6369 -0.8793
  935MOL0     H23409   2.194   1.905   0.600 -0.9353  0.2585  1.9629
  935MOL0     H23410   2.142   2.119   0.241  4.4111  2.1167  1.4540
  935MOL0     H23411   2.083   1.946   0.281  0.9397 -0.8477  2.7917
  935MOL0     H23412   2.158   1.987   0.039  1.0788  1.5277 -0.6647
  935MOL0     H23413   2.316   2.028   0.117 -1.0110  0.3902  0.6165
  935MOL0     H23414   2.322   1.823   0.023  0.0695  1.9421  0.1085
  935MOL0     H23415   2.163   1.775   0.106 -0.9634  0.3952  2.2784
  935MOL0     H23416   2.433   1.842   0.233 -1.9182  2.7326  0.3178
  935MOL0     H23417   2.299   1.785   0.326 -1.0324  3.8972  0.1557
  935MOL0     H23418   2.475   1.419   0.223 -2.0421 -0.3934 -0.8861
  935MOL0     H23419   2.195   2.284   0.393 -1.6883 -0.3793 -1.0615
  935MOL0     H23420   2.143   2.399   0.582  0.0451  0.4796  1.8285
  936MOL0     O23421   7.813   9.046   7.987  0.0118  0.3482  1.2045
  936MOL0     C23422   7.717   8.975   8.004 -0.3841 -0.0169  0.3280
  936MOL0     O23423   7.651   8.907   7.907 -0.3575  0.5703 -0.0028
  936MOL0     C23424   7.676   8.911   7.774 -0.1821  0.2110  0.4013
  936MOL0     C23425   7.561   8.877   7.691 -0.9547  0.4313 -0.3847
  936MOL0     C23426   7.576   8.863   7.552  0.1916  0.0272  0.9657
  936MOL0     C23427   7.702   8.885   7.496 -0.2043  0.8055 -0.4325
  936MOL0     O23428   7.725   8.864   7.362 -0.3834  0.3100  0.1403
  936MOL0     C23429   7.623   8.876   7.269  0.7900  0.1000  0.8980
  936MOL0     C23430   7.589   8.746   7.185  0.3381  0.3074 -0.4990
  936MOL0     C23431   7.576   8.627   7.280 -0.1370  0.1012  0.0993
  936MOL0     C23432   7.535   8.505   7.193  0.4108 -0.1387  0.2716
  936MOL0     C23433   7.657   8.452   7.123  0.0617  0.5451  0.0791
  936MOL0     C23434   7.625   8.304   7.089 -0.5428  1.0363 -0.0274
  936MOL0     C23435   7.736   8.240   7.003 -1.0245  0.7533 -0.9682
  936MOL0     C23436   7.708   8.093   6.977  1.4102 -0.4947  0.1736
  936MOL0     N23437   7.598   8.048   6.887 -0.2419  0.0145  0.5995
  936MOL0     C23438   7.469   8.042   6.921 -0.2937 -0.3879  0.2870
  936MOL0     C23439   7.402   7.967   6.836  0.5280 -0.3296  0.6844
  936MOL0     C23440   7.263   7.910   6.837 -0.3369  0.0940 -0.5059
  936MOL0     C23441   7.164   8.004   6.777  0.0566  0.0204  1.3828
  936MOL0     C23442   7.196   8.036   6.631  1.2993  0.2563 -0.1142
  936MOL0     C23443   7.074   8.104   6.555 -0.0628  0.2072 -0.2821
  936MOL0     O23444   6.956   8.018   6.551 -0.1754 -0.7040  0.0123
  936MOL0     C23445   6.849   8.070   6.484 -0.5574  0.2419  1.0401
  936MOL0     C23446   6.846   8.186   6.412 -0.1735 -0.3621  0.3830
  936MOL0     C23447   6.728   8.230   6.349  1.2798  0.2843 -0.1538
  936MOL0     C23448   6.602   8.175   6.388  0.1630 -0.2932 -0.6097
  936MOL0     C23449   6.484   8.250   6.359 -0.0370  0.7945 -0.0201
  936MOL0     O23450   6.367   8.185   6.338 -0.2020  0.4003  0.5120
  936MOL0     C23451   6.254   8.255   6.335 -0.8514 -0.7972 -0.3074
  936MOL0     C23452   6.185   8.290   6.450  0.5757 -0.1745 -0.2132
  936MOL0     C23453   6.058   8.355   6.437 -0.2443  0.4107 -0.8868
  936MOL0     C23454   6.013   8.398   6.312  0.2547  0.9691 -1.2777
  936MOL0     O23455   5.900   8.471   6.303  0.1600  0.4002  0.2614
  936MOL0     C23456   5.870   8.548   6.185 -0.5728 -0.0472 -0.6159
  936MOL0     C23457   5.963   8.674   6.190  0.0590  0.9392 -0.4830
  936MOL0     C23458   5.927   8.762   6.063 -1.5681  0.8883  0.4225
  936MOL0     C23459   6.023   8.881   6.050 -0.1256 -0.0379  0.2358
  936MOL0     C23460   5.985   8.980   5.935  1.3900  0.0192  0.5056
  936MOL0     C23461   5.988   8.920   5.796 -0.9981  0.2191  0.7033
  936MOL0     C23462   5.975   9.027   5.685  0.7743 -0.7118  0.0086
  936MOL0     C23463   5.936   8.971   5.541  0.6609  0.6204  0.0421
  936MOL0    Cl23464   5.797   8.858   5.539 -0.0307 -0.4129  0.0983
  936MOL0     C23465   6.084   8.359   6.198 -0.3596 -0.0331 -0.0257
  936MOL0     C23466   6.200   8.285   6.210 -0.0669 -0.2784 -0.5217
  936MOL0     O23467   6.497   8.372   6.341  0.5121 -0.1305  0.2040
  936MOL0     C23468   6.605   8.060   6.473 -0.1025  0.2092 -0.0254
  936MOL0     C23469   6.733   8.000   6.508 -0.2797  0.9988  0.4966
  936MOL0     N23470   7.495   7.932   6.741 -0.1205  1.0692  0.5055
  936MOL0     N23471   7.609   7.982   6.770  0.0716  0.4639  0.4807
  936MOL0     C23472   7.815   8.911   7.572 -0.2355 -0.2177  0.0877
  936MOL0     C23473   7.802   8.918   7.713  0.3382 -0.4274  1.5281
  936MOL0     C23474   7.649   8.999   8.136  0.3986  0.3594 -0.3194
  936MOL0     C23475   7.703   9.081   8.235  0.4574  0.3162 -1.0117
  936MOL0     C23476   7.632   9.089   8.360  0.3270  0.1861  0.1793
  936MOL0     C23477   7.518   9.014   8.389  0.4313  0.1084 -0.3043
  936MOL0     O23478   7.464   9.050   8.511 -0.7789  0.6330  0.7041
  936MOL0     C23479   7.346   8.976   8.549  1.4357 -0.0305 -1.2740
  936MOL0     C23480   7.274   9.006   8.690 -0.2683  0.3450 -0.0086
  936MOL0     C23481   7.254   9.152   8.710 -0.6016 -0.2729 -0.1731
  936MOL0     C23482   7.378   9.215   8.777 -0.1081 -0.2658 -0.8448
  936MOL0     C23483   7.363   9.361   8.792  0.3237  0.5668  0.0876
  936MOL0     C23484   7.343   9.485   8.798  0.2165  0.1672  0.2210
  936MOL0     C23485   7.457   8.942   8.287 -0.3789  1.0112  0.1594
  936MOL0     C23486   7.522   8.930   8.164  0.2986 -0.3539  0.4180
  936MOL0     H23487   7.467   8.858   7.743  0.9404 -2.4469  2.3746
  936MOL0     H23488   7.497   8.810   7.499  1.8172 -0.0357 -1.5299
  936MOL0     H23489   7.672   8.946   7.202 -2.6177  3.3946  1.5046
  936MOL0     H23490   7.531   8.918   7.311  0.2622  0.0229 -0.1502
  936MOL0     H23491   7.661   8.734   7.103 -0.8074 -0.2773 -1.4512
  936MOL0     H23492   7.493   8.747   7.133  0.8642  3.4588 -1.6314
  936MOL0     H23493   7.489   8.658   7.339  0.1865 -1.0664  1.2255
  936MOL0     H23494   7.658   8.601   7.348 -1.1459 -4.1472 -0.0144
  936MOL0     H23495   7.506   8.426   7.263 -0.4651 -0.5617 -0.5579
  936MOL0     H23496   7.459   8.526   7.118  1.5326 -2.4124 -1.6200
  936MOL0     H23497   7.751   8.455   7.179 -0.0499 -0.9105  0.3894
  936MOL0     H23498   7.676   8.502   7.028  0.7331 -0.1831 -0.1858
  936MOL0     H23499   7.527   8.292   7.041 -0.9982 -1.8501  1.4057
  936MOL0     H23500   7.625   8.249   7.184  2.8105  2.0408  0.6822
  936MOL0     H23501   7.756   8.299   6.913  1.7366 -0.5127 -1.2950
  936MOL0     H23502   7.832   8.250   7.054 -2.8463  0.4111  2.8996
  936MOL0     H23503   7.698   8.052   7.078 -2.4472  0.6828  0.4336
  936MOL0     H23504   7.794   8.050   6.925  0.2448 -0.9279 -1.4985
  936MOL0     H23505   7.433   8.063   7.021 -0.8355 -4.0554  0.9926
  936MOL0     H23506   7.232   7.893   6.940 -3.5013 -1.8603 -1.6249
  936MOL0     H23507   7.252   7.817   6.780 -1.5023 -1.1678  1.6806
  936MOL0     H23508   7.146   8.087   6.846  1.8166 -0.1797  2.1172
  936MOL0     H23509   7.064   7.960   6.774 -0.4247  1.0963 -0.9233
  936MOL0     H23510   7.290   8.090   6.626  0.9773  1.0856  1.8114
  936MOL0     H23511   7.212   7.946   6.570  0.8871 -0.3528  0.6439
  936MOL0     H23512   7.096   8.110   6.448 -1.2656  2.5910 -0.4554
  936MOL0     H23513   7.059   8.208   6.587 -1.8558 -0.2040  0.2943
  936MOL0     H23514   6.937   8.242   6.391 -2.4157  3.5707  0.1359
  936MOL0     H23515   6.727   8.321   6.290 -0.0763 -0.5080 -1.4261
  936MOL0     H23516   6.221   8.281   6.552 -2.1050 -0.3404  0.7950
  936MOL0     H23517   6.003   8.378   6.528  2.2999  0.6908  0.6679
  936MOL0     H23518   5.769   8.590   6.187  0.0834  1.6095  0.2679
  936MOL0     H23519   5.881   8.478   6.102  3.2905 -1.3217  0.7313
  936MOL0     H23520   6.069   8.647   6.195 -0.2086 -0.0617  0.0831
  936MOL0     H23521   5.936   8.735   6.277 -0.6925  0.9372 -0.7059
  936MOL0     H23522   5.826   8.804   6.063 -1.9841  0.3038 -3.4346
  936MOL0     H23523   5.926   8.691   5.979 -1.7962  1.2099  0.1498
  936MOL0     H23524   6.017   8.923   6.150  2.1449 -0.1479  0.4686
  936MOL0     H23525   6.122   8.836   6.038 -0.4674 -0.5771 -0.6681
  936MOL0     H23526   6.044   9.071   5.949  0.0703  1.6119 -2.8509
  936MOL0     H23527   5.883   9.013   5.958  1.3076  0.9177 -0.9451
  936MOL0     H23528   5.914   8.840   5.791 -0.7405 -0.0066  0.3673
  936MOL0     H23529   6.080   8.862   5.777 -1.0680  0.6943 -1.3484
  936MOL0     H23530   5.903   9.103   5.715  0.2820 -1.0790 -0.2336
  936MOL0     H23531   6.068   9.084   5.681 -1.2240  3.0906  2.1580
  936MOL0     H23532   6.019   8.919   5.493 -0.8031 -0.8932 -0.9467
  936MOL0     H23533   5.922   9.051   5.468  0.6703 -0.7634 -1.5151
  936MOL0     H23534   6.063   8.376   6.093  1.6862 -1.4790 -0.7279
  936MOL0     H23535   6.238   8.262   6.111  0.3853  0.1546 -0.4509
  936MOL0     H23536   6.514   8.006   6.499  1.6496 -2.2716  1.4463
  936MOL0     H23537   6.719   7.900   6.549 -0.8739 -0.3656 -2.6853
  936MOL0     H23538   7.908   8.938   7.523 -0.6689  4.8950  1.4505
  936MOL0     H23539   7.887   8.947   7.775  1.1578 -2.7909  1.6279
  936MOL0     H23540   7.793   9.142   8.233  0.5570  0.9601  4.8046
  936MOL0     H23541   7.671   9.144   8.445 -2.9693 -0.9357  2.6514
  936MOL0     H23542   7.361   8.868   8.559 -1.4469 -0.4253 -0.4202
  936MOL0     H23543   7.270   8.988   8.471 -0.5825 -0.2617  0.5984
  936MOL0     H23544   7.176   8.956   8.690  0.3588 -0.9667  1.6120
  936MOL0     H23545   7.334   8.958   8.768  0.2702  0.5927 -0.2651
  936MOL0     H23546   7.166   9.169   8.773  0.6901  0.1868  1.5624
  936MOL0     H23547   7.230   9.206   8.618  0.4523 -0.1131 -0.3614
  936MOL0     H23548   7.391   9.164   8.873 -1.1159  0.6052 -0.2278
  936MOL0     H23549   7.470   9.187   8.724  0.8056  0.4532  0.3198
  936MOL0     H23550   7.323   9.590   8.800 -3.4368 -0.2587 -2.5241
  936MOL0     H23551   7.358   8.901   8.299 -0.2508 -0.1173 -2.0642
  936MOL0     H23552   7.482   8.852   8.099 -0.2870 -1.5796  2.1606
  937MOL0     O23553   5.531   0.206   6.128 -0.7503  0.5077  0.0049
  937MOL0     C23554   5.605   0.113   6.171 -0.1503 -0.3447 -0.6939
  937MOL0     O23555   5.561  -0.009   6.214  0.1730  0.0628  0.2897
  937MOL0     C23556   5.424  -0.035   6.197 -0.2556 -0.0206  0.4565
  937MOL0     C23557   5.389  -0.121   6.098  0.3651 -0.0179  0.0389
  937MOL0     C23558   5.255  -0.139   6.063 -0.1259  0.4414 -0.5119
  937MOL0     C23559   5.148  -0.072   6.127 -0.6799  0.5962 -0.2074
  937MOL0     O23560   5.015  -0.098   6.112 -0.3831  1.3071  0.0899
  937MOL0     C23561   4.967  -0.147   5.978  0.0692 -1.6140 -0.2889
  937MOL0     C23562   4.949  -0.016   5.897  0.0514  0.4233  0.8017
  937MOL0     C23563   4.816   0.058   5.928 -0.5611  0.7594  0.6574
  937MOL0     C23564   4.809   0.186   5.833 -0.3199 -0.2240 -0.4864
  937MOL0     C23565   4.675   0.271   5.857  0.0108 -0.3598  0.2987
  937MOL0     C23566   4.670   0.356   5.988 -0.4125 -1.0405 -0.7261
  937MOL0     C23567   4.537   0.414   6.027 -0.1668  0.1849  0.4800
  937MOL0     C23568   4.524   0.463   6.175 -0.0586 -1.0840  1.3960
  937MOL0     N23569   4.394   0.451   6.235  0.4029  0.5403  0.1154
  937MOL0     C23570   4.284   0.498   6.170  0.8550  0.4235  0.0009
  937MOL0     C23571   4.181   0.484   6.262  1.2287 -0.6081 -0.9079
  937MOL0     C23572   4.050   0.550   6.247 -0.3509 -0.2439 -0.2885
  937MOL0     C23573   3.931   0.459   6.274 -0.9635  0.3264 -0.8545
  937MOL0     C23574   3.810   0.529   6.212 -0.0936 -1.1388 -0.2087
  937MOL0     C23575   3.686   0.449   6.239 -0.0317  0.2079 -1.2875
  937MOL0     O23576   3.688   0.316   6.195  0.4405  0.7393 -0.3516
  937MOL0     C23577   3.607   0.236   6.267 -0.7554 -0.4905 -0.3723
  937MOL0     C23578   3.645   0.108   6.304 -0.6705 -0.3263  0.3882
  937MOL0     C23579   3.563   0.020   6.358  1.0922  0.2124 -0.4935
  937MOL0     C23580   3.432   0.055   6.384  0.7853 -0.5587  0.2699
  937MOL0     C23581   3.353  -0.055   6.433 -0.1363 -0.4235 -0.5705
  937MOL0     O23582   3.383  -0.183   6.403  0.3554 -0.2316 -0.1190
  937MOL0     C23583   3.321  -0.290   6.460  0.0542  0.0768  0.2468
  937MOL0     C23584   3.348  -0.325   6.595 -0.3138  0.9357  0.9325
  937MOL0     C23585   3.277  -0.429   6.657 -0.3993  0.0208 -0.4811
  937MOL0     C23586   3.185  -0.520   6.592 -0.5009  0.6271 -1.0416
  937MOL0     O23587   3.128  -0.624   6.653  0.2874 -0.1600  0.6204
  937MOL0     C23588   3.024  -0.604   6.753  0.3597 -0.3318  0.1038
  937MOL0     C23589   3.015  -0.722   6.850 -0.8695 -0.1334 -0.1659
  937MOL0     C23590   3.144  -0.751   6.935  0.5381  0.4037 -0.4935
  937MOL0     C23591   3.202  -0.624   6.998  0.2597 -0.3066 -0.5898
  937MOL0     C23592   3.327  -0.642   7.088 -1.0728  0.1866 -0.5993
  937MOL0     C23593   3.456  -0.712   7.021  0.0839  0.3238 -0.8684
  937MOL0     C23594   3.501  -0.613   6.914  0.2630  0.5651 -0.6321
  937MOL0     C23595   3.653  -0.618   6.909 -0.2008  0.0889  1.0073
  937MOL0    Cl23596   3.713  -0.792   6.905 -0.5958 -0.0856 -0.8362
  937MOL0     C23597   3.167  -0.486   6.451  0.0298  0.4368  0.0378
  937MOL0     C23598   3.241  -0.376   6.385 -0.3660  0.3065  0.1902
  937MOL0     O23599   3.259  -0.024   6.511 -0.1968 -0.1871 -0.2507
  937MOL0     C23600   3.383   0.187   6.358 -0.2045  0.5495  0.0948
  937MOL0     C23601   3.476   0.279   6.300 -0.1474 -0.7308  0.1732
  937MOL0     N23602   4.236   0.427   6.382  0.2934 -0.6655 -0.1399
  937MOL0     N23603   4.359   0.410   6.358 -0.8413  0.4701 -0.1482
  937MOL0     C23604   5.190   0.018   6.219  0.0537 -1.0865  0.6059
  937MOL0     C23605   5.324   0.034   6.262 -0.9089 -1.1711  0.6581
  937MOL0     C23606   5.750   0.132   6.196  0.5554  0.1819  0.6277
  937MOL0     C23607   5.838   0.017   6.186  0.5959  0.3093  0.4055
  937MOL0     C23608   5.975   0.036   6.225 -0.1025 -0.3388  0.3817
  937MOL0     C23609   6.029   0.162   6.245 -0.1989  0.3851 -0.2709
  937MOL0     O23610   6.162   0.174   6.275 -0.7105 -0.1383 -0.8743
  937MOL0     C23611   6.228   0.302   6.268  0.6836 -1.5165 -0.3466
  937MOL0     C23612   6.247   0.363   6.130 -0.9806 -0.0849  1.1658
  937MOL0     C23613   6.396   0.407   6.093  0.6733  0.1946  0.2861
  937MOL0     C23614   6.418   0.415   5.941 -0.4869  0.6346  0.3335
  937MOL0     C23615   6.404   0.285   5.871  0.3815  0.5039 -0.9734
  937MOL0     C23616   6.380   0.175   5.811  0.4141 -0.6947 -0.3522
  937MOL0     C23617   5.941   0.270   6.234  0.2710  0.6418  0.3431
  937MOL0     C23618   5.800   0.259   6.211  0.3168 -0.0428 -0.4605
  937MOL0     H23619   5.464  -0.182   6.049 -0.7396 -2.8109  1.5941
  937MOL0     H23620   5.238  -0.204   5.978 -0.0362 -1.9243  1.1826
  937MOL0     H23621   4.868  -0.191   5.990 -1.8869  2.4943  0.3077
  937MOL0     H23622   5.047  -0.208   5.935  2.0723  1.9759 -2.1127
  937MOL0     H23623   4.963  -0.042   5.791 -1.3377 -1.9540  1.1319
  937MOL0     H23624   5.037   0.045   5.919  0.9471 -0.0894 -1.1623
  937MOL0     H23625   4.825   0.078   6.035 -1.3278 -2.3973  1.3944
  937MOL0     H23626   4.734  -0.012   5.912 -0.0382  0.2388  0.2018
  937MOL0     H23627   4.897   0.248   5.850 -2.0571  2.6255 -1.1289
  937MOL0     H23628   4.816   0.159   5.727  1.9495 -1.0664 -0.1739
  937MOL0     H23629   4.584   0.211   5.851  1.0981 -1.9681 -0.6482
  937MOL0     H23630   4.670   0.335   5.768  0.1307 -2.8231 -1.5814
  937MOL0     H23631   4.755   0.424   5.998  1.4369 -3.2283 -0.5756
  937MOL0     H23632   4.697   0.292   6.073  1.2479 -1.0033 -1.1964
  937MOL0     H23633   4.512   0.485   5.948  0.7943  2.1853  1.8939
  937MOL0     H23634   4.468   0.330   6.015 -0.5985  0.9798 -5.0778
  937MOL0     H23635   4.542   0.569   6.192 -1.9475 -1.1520  4.4496
  937MOL0     H23636   4.606   0.414   6.229  2.0594 -0.2446 -0.8604
  937MOL0     H23637   4.292   0.553   6.077  0.2783 -1.1932 -1.0520
  937MOL0     H23638   4.056   0.590   6.145 -1.2547 -2.9217 -1.4889
  937MOL0     H23639   4.040   0.630   6.320 -1.1773  0.0467 -0.7073
  937MOL0     H23640   3.914   0.466   6.382 -1.0809  4.3672 -0.9837
  937MOL0     H23641   3.932   0.353   6.244 -0.1435 -0.3659  1.4106
  937MOL0     H23642   3.795   0.626   6.260  1.2827 -0.9256 -0.1654
  937MOL0     H23643   3.819   0.539   6.103 -3.8734  1.4390 -0.4824
  937MOL0     H23644   3.604   0.493   6.183 -1.9247 -1.2950  0.1277
  937MOL0     H23645   3.668   0.451   6.347  0.3983  0.7359 -1.2244
  937MOL0     H23646   3.747   0.080   6.278 -0.1289  0.2098  1.8185
  937MOL0     H23647   3.599  -0.080   6.379  0.2209 -0.6715 -2.8784
  937MOL0     H23648   3.404  -0.264   6.665 -0.1172  2.7472 -0.7275
  937MOL0     H23649   3.302  -0.441   6.762  0.7350  3.2440 -0.2755
  937MOL0     H23650   2.927  -0.608   6.703 -0.5104  1.6144  1.5156
  937MOL0     H23651   3.023  -0.506   6.802 -0.9921 -1.3656  2.3045
  937MOL0     H23652   2.995  -0.812   6.791 -3.1210  0.9618 -1.2086
  937MOL0     H23653   2.925  -0.707   6.911 -0.4324  1.9986  0.0339
  937MOL0     H23654   3.218  -0.813   6.883 -1.0312 -4.0460  2.0023
  937MOL0     H23655   3.112  -0.811   7.021 -2.2052  4.4263  1.6447
  937MOL0     H23656   3.212  -0.540   6.929 -0.1215  3.7708  3.7733
  937MOL0     H23657   3.127  -0.585   7.068  2.1436 -0.1317  1.4417
  937MOL0     H23658   3.300  -0.700   7.176  2.1323  1.0715  1.1340
  937MOL0     H23659   3.366  -0.552   7.136  0.7080 -2.1805  2.7936
  937MOL0     H23660   3.427  -0.804   6.970  1.4655 -0.3901 -0.4068
  937MOL0     H23661   3.523  -0.723   7.106 -1.9421  0.8476  0.8971
  937MOL0     H23662   3.458  -0.645   6.818 -0.3418  0.3046 -0.2846
  937MOL0     H23663   3.478  -0.508   6.933  0.2975  0.3030  0.9277
  937MOL0     H23664   3.702  -0.578   6.998  0.3368  1.4035  0.1450
  937MOL0     H23665   3.687  -0.572   6.816 -2.1253 -2.6525 -1.2159
  937MOL0     H23666   3.097  -0.552   6.402  1.2088 -1.0806  0.3247
  937MOL0     H23667   3.213  -0.362   6.281 -0.0877 -1.3185 -0.1421
  937MOL0     H23668   3.279   0.207   6.380 -0.7496 -0.6584 -1.2089
  937MOL0     H23669   3.456   0.384   6.282  1.1240 -0.4097  0.5960
  937MOL0     H23670   5.113   0.079   6.265 -0.5004 -0.4002 -1.1484
  937MOL0     H23671   5.352   0.115   6.328 -1.3893 -1.5415  1.3227
  937MOL0     H23672   5.806  -0.086   6.176  2.8388 -0.5227  1.2190
  937MOL0     H23673   6.051  -0.042   6.221  1.0984  0.7896  0.2773
  937MOL0     H23674   6.325   0.313   6.317  1.0024 -2.5484 -0.7133
  937MOL0     H23675   6.170   0.377   6.321  0.8576 -0.6003 -1.3993
  937MOL0     H23676   6.219   0.284   6.061  0.9229  1.1273 -1.1621
  937MOL0     H23677   6.186   0.454   6.125 -1.1348 -0.0231  3.2389
  937MOL0     H23678   6.479   0.350   6.135  0.9436 -1.1688 -1.9595
  937MOL0     H23679   6.414   0.510   6.125  0.2000  0.1100  0.8328
  937MOL0     H23680   6.347   0.483   5.893 -1.3776  0.2555  1.0793
  937MOL0     H23681   6.518   0.458   5.928  0.8952 -2.3108  0.3030
  937MOL0     H23682   6.344   0.080   5.775 -1.4030  0.3222 -1.3520
  937MOL0     H23683   5.989   0.367   6.239  2.4133 -0.3684  0.1932
  937MOL0     H23684   5.741   0.347   6.190 -1.2610 -0.3744  2.0618
  938MOL0     O23685  10.039   0.122   8.502 -0.0443 -0.9373 -0.4509
  938MOL0     C23686   9.997   0.179   8.399 -0.3784  0.0053 -0.5097
  938MOL0     O23687   9.924   0.114   8.299  0.3129  0.8719  0.8209
  938MOL0     C23688   9.915  -0.021   8.307  0.4783  0.2103  1.2603
  938MOL0     C23689   9.854  -0.091   8.409  0.5721  0.2247 -0.3228
  938MOL0     C23690   9.859  -0.232   8.411 -0.3649  1.0307  0.5244
  938MOL0     C23691   9.903  -0.312   8.307  0.5235 -0.6030 -0.9939
  938MOL0     O23692   9.909  -0.453   8.308  0.6382 -0.3802 -0.0474
  938MOL0     C23693  10.032  -0.515   8.350  0.0830  0.6537  0.8115
  938MOL0     C23694  10.066  -0.651   8.277  0.8129 -0.6898  0.6043
  938MOL0     C23695  10.110  -0.617   8.135 -0.3180 -0.8736 -0.3461
  938MOL0     C23696  10.216  -0.712   8.076 -0.0008  0.1691  0.1699
  938MOL0     C23697  10.162  -0.843   8.022 -0.4262  0.6587  0.4238
  938MOL0     C23698  10.266  -0.940   7.953  0.5127 -1.0560 -0.1716
  938MOL0     C23699  10.366  -0.985   8.049  0.4272  0.6782  0.3623
  938MOL0     C23700  10.468  -1.053   7.963  0.0166  0.6865  0.0368
  938MOL0     N23701  10.396  -1.168   7.898  0.5105  0.4438 -0.6103
  938MOL0     C23702  10.386  -1.194   7.763 -0.7775  1.4560 -1.1557
  938MOL0     C23703  10.311  -1.305   7.759 -0.1590  0.2070  0.3603
  938MOL0     C23704  10.265  -1.370   7.629 -0.4835 -0.3174  0.0009
  938MOL0     C23705  10.136  -1.298   7.574 -0.4344  0.8341  0.2875
  938MOL0     C23706  10.019  -1.395   7.532 -0.3826  0.0099  0.5468
  938MOL0     C23707   9.951  -1.471   7.641 -0.0108  0.4602 -0.6623
  938MOL0     O23708   9.819  -1.515   7.601  0.5581 -0.0120 -0.0881
  938MOL0     C23709   9.727  -1.554   7.702  0.1772 -0.8198  0.7970
  938MOL0     C23710   9.762  -1.656   7.783  0.0464  0.4977  0.3002
  938MOL0     C23711   9.674  -1.699   7.891 -0.1661 -0.0469  0.5153
  938MOL0     C23712   9.555  -1.637   7.912  0.8713  0.1308  0.5647
  938MOL0     C23713   9.469  -1.677   8.026 -0.9480 -0.3371  0.2270
  938MOL0     O23714   9.339  -1.666   7.993 -0.0076 -0.5346  0.0884
  938MOL0     C23715   9.242  -1.714   8.074  0.5925  0.3250  0.4548
  938MOL0     C23716   9.126  -1.636   8.084 -0.3839  0.2113 -0.4673
  938MOL0     C23717   9.032  -1.672   8.182  1.4793 -0.0128  0.2477
  938MOL0     C23718   9.031  -1.802   8.248  0.1286 -0.6726  0.4245
  938MOL0     O23719   8.925  -1.820   8.324 -0.0476 -0.9182 -0.0556
  938MOL0     C23720   8.956  -1.893   8.447 -0.6794  1.3324 -0.1447
  938MOL0     C23721   8.877  -2.031   8.418 -1.2134  0.0146 -0.0755
  938MOL0     C23722   8.924  -2.133   8.529  0.2552  0.0992 -0.0879
  938MOL0     C23723   8.816  -2.252   8.540 -0.6433  0.6099 -1.1454
  938MOL0     C23724   8.878  -2.375   8.624 -0.0453 -0.1564  0.1239
  938MOL0     C23725   8.810  -2.512   8.595  0.4745  0.1202  0.2551
  938MOL0     C23726   8.665  -2.515   8.635 -0.1197 -0.3373  0.4353
  938MOL0     C23727   8.613  -2.651   8.675  0.3848  0.0270 -0.8924
  938MOL0    Cl23728   8.699  -2.711   8.821 -0.0750 -0.1911  0.1107
  938MOL0     C23729   9.152  -1.879   8.232  0.0542 -0.4932 -0.4362
  938MOL0     C23730   9.253  -1.838   8.145 -0.3098  0.3089  0.3865
  938MOL0     O23731   9.515  -1.718   8.127  0.8309  0.0675 -0.4418
  938MOL0     C23732   9.516  -1.538   7.826 -0.2230  0.3433 -0.3445
  938MOL0     C23733   9.606  -1.492   7.729  0.0595  0.2032  0.0783
  938MOL0     N23734  10.290  -1.361   7.890 -0.4011  0.3227 -0.3951
  938MOL0     N23735  10.332  -1.274   7.970 -0.3851  0.0940  0.1415
  938MOL0     C23736   9.945  -0.242   8.195  0.3837 -0.0338 -0.9665
  938MOL0     C23737   9.950  -0.101   8.193  0.9472  0.8195 -0.5852
  938MOL0     C23738  10.051   0.309   8.371 -0.0289 -0.0484 -0.1135
  938MOL0     C23739  10.030   0.367   8.248 -0.1187 -0.2429  0.2426
  938MOL0     C23740  10.073   0.506   8.236  0.7957 -0.1469  0.5373
  938MOL0     C23741  10.140   0.572   8.336  0.4984  0.7162 -0.3898
  938MOL0     O23742  10.178   0.704   8.318  0.3493  0.7530  0.5539
  938MOL0     C23743  10.309   0.733   8.376 -0.2859 -0.4875 -1.3006
  938MOL0     C23744  10.425   0.669   8.308  0.2736 -0.7604 -0.2415
  938MOL0     C23745  10.473   0.757   8.185 -0.3509  0.7294  0.2017
  938MOL0     C23746  10.599   0.695   8.131  0.8365  0.2370 -0.4975
  938MOL0     C23747  10.628   0.727   7.993 -0.3003  0.5022  0.0010
  938MOL0     C23748  10.652   0.740   7.876  0.1645 -1.4167 -0.7847
  938MOL0     C23749  10.140   0.522   8.461  0.6123 -0.0121 -0.6764
  938MOL0     C23750  10.092   0.391   8.477  1.3594 -0.0612  0.0701
  938MOL0     H23751   9.808  -0.036   8.490  1.5927  2.6791 -1.3102
  938MOL0     H23752   9.812  -0.288   8.491  2.0768 -0.2414  1.1643
  938MOL0     H23753  10.010  -0.553   8.450  1.4685 -1.2117  0.4767
  938MOL0     H23754  10.121  -0.453   8.364  1.2446 -0.9981  1.0511
  938MOL0     H23755   9.981  -0.720   8.270 -0.1358  0.4662  0.3268
  938MOL0     H23756  10.146  -0.698   8.336  1.2290  1.3335  1.7499
  938MOL0     H23757  10.170  -0.526   8.143  0.7100 -1.3517 -2.1121
  938MOL0     H23758  10.026  -0.597   8.068  0.4795  1.3356 -0.7532
  938MOL0     H23759  10.260  -0.655   7.994 -1.6590  1.5166  0.1669
  938MOL0     H23760  10.297  -0.716   8.149 -0.0366  1.2566  0.2887
  938MOL0     H23761  10.087  -0.818   7.948  0.8478 -0.5329 -1.3647
  938MOL0     H23762  10.127  -0.919   8.093  0.2103 -0.8620 -0.8141
  938MOL0     H23763  10.311  -0.885   7.870 -0.7836 -0.6459 -0.6300
  938MOL0     H23764  10.209  -1.027   7.918  1.5746 -2.2654  1.0022
  938MOL0     H23765  10.398  -0.915   8.126 -0.1505  2.6762 -1.1269
  938MOL0     H23766  10.319  -1.057   8.117  3.0624  0.0137  1.6092
  938MOL0     H23767  10.554  -1.090   8.019 -0.3803  0.2627  0.3785
  938MOL0     H23768  10.509  -0.998   7.878  0.9494 -0.2399 -0.1358
  938MOL0     H23769  10.428  -1.135   7.682  2.7383  0.2190 -0.4236
  938MOL0     H23770  10.245  -1.477   7.640  1.4277 -0.5305  2.0095
  938MOL0     H23771  10.349  -1.359   7.560 -0.4550  1.8081  0.3077
  938MOL0     H23772  10.152  -1.238   7.484 -2.1894  0.6936 -0.1662
  938MOL0     H23773  10.102  -1.218   7.640 -1.9215  2.2428 -2.0379
  938MOL0     H23774   9.939  -1.337   7.486 -1.0891 -3.7076 -3.5983
  938MOL0     H23775  10.048  -1.462   7.450 -1.5936  0.8986 -0.6456
  938MOL0     H23776   9.928  -1.391   7.712 -2.9511 -0.4954 -0.3967
  938MOL0     H23777  10.024  -1.538   7.688  1.5471  1.3446 -1.7142
  938MOL0     H23778   9.848  -1.720   7.766 -0.4532 -0.1438  0.1508
  938MOL0     H23779   9.698  -1.783   7.955  1.9764 -0.0326 -0.1660
  938MOL0     H23780   9.113  -1.538   8.040 -0.6958  0.6273  0.5282
  938MOL0     H23781   8.949  -1.603   8.183  1.8877  0.5592 -1.5852
  938MOL0     H23782   8.912  -1.838   8.530  2.5998  2.4798  0.9596
  938MOL0     H23783   9.062  -1.904   8.469 -0.8312 -3.1133 -0.5686
  938MOL0     H23784   8.897  -2.075   8.320  0.9645  0.3829  0.1493
  938MOL0     H23785   8.769  -2.015   8.412 -1.0675  0.5697 -1.7188
  938MOL0     H23786   8.929  -2.081   8.625 -3.5211 -1.4402  1.1376
  938MOL0     H23787   9.016  -2.180   8.491 -0.7915 -0.4698 -2.0439
  938MOL0     H23788   8.731  -2.203   8.586  1.4795  4.1096 -0.5808
  938MOL0     H23789   8.798  -2.299   8.443 -3.0667 -0.1687 -0.3715
  938MOL0     H23790   8.874  -2.342   8.729  2.1125 -1.3031  0.6162
  938MOL0     H23791   8.984  -2.394   8.609  0.3340  0.1163  2.1496
  938MOL0     H23792   8.868  -2.593   8.640 -2.1566 -1.4962  0.9625
  938MOL0     H23793   8.805  -2.543   8.490  0.0879 -1.8081  0.7991
  938MOL0     H23794   8.650  -2.450   8.722 -1.5720  1.2106 -0.8959
  938MOL0     H23795   8.614  -2.478   8.546  0.8907  0.4751  0.1816
  938MOL0     H23796   8.644  -2.715   8.592  0.5145 -2.0984  0.7099
  938MOL0     H23797   8.504  -2.651   8.690  0.0647 -1.3189 -2.7660
  938MOL0     H23798   9.160  -1.975   8.281 -1.8234 -1.1282 -1.2756
  938MOL0     H23799   9.341  -1.899   8.126 -0.6363 -0.5587  1.5871
  938MOL0     H23800   9.423  -1.484   7.840  2.2874  4.2282  4.2799
  938MOL0     H23801   9.566  -1.417   7.662 -0.5544  1.7531  2.0849
  938MOL0     H23802   9.990  -0.292   8.110  2.5909 -0.6301  0.4495
  938MOL0     H23803   9.980  -0.047   8.103 -2.6880  2.9268 -0.7392
  938MOL0     H23804   9.977   0.316   8.168 -2.7866  1.4937  0.7906
  938MOL0     H23805  10.047   0.573   8.154 -1.5037 -1.5433  0.0439
  938MOL0     H23806  10.321   0.709   8.482  0.6054 -0.6630 -1.4340
  938MOL0     H23807  10.325   0.840   8.389 -0.9491 -0.6736  1.8551
  938MOL0     H23808  10.510   0.654   8.376  0.6663 -0.4913 -0.6700
  938MOL0     H23809  10.397   0.573   8.264  1.3472 -1.2931  0.1926
  938MOL0     H23810  10.510   0.852   8.224  1.5800 -0.2374  0.8662
  938MOL0     H23811  10.398   0.774   8.107  0.2850  3.8858  0.1499
  938MOL0     H23812  10.688   0.709   8.192 -1.0367 -0.8209  2.7018
  938MOL0     H23813  10.579   0.587   8.131  0.3364  0.2589  2.5765
  938MOL0     H23814  10.666   0.766   7.773 -0.3585  3.0068  0.0649
  938MOL0     H23815  10.157   0.575   8.555 -1.0527  2.1333 -1.4792
  938MOL0     H23816  10.094   0.349   8.576 -0.1599 -0.7388 -0.1618
  939MOL0     O23817   8.032   2.298   4.770 -0.4317 -0.0564 -0.4628
  939MOL0     C23818   7.939   2.358   4.717 -0.8208  0.0261  0.3504
  939MOL0     O23819   7.947   2.475   4.649 -0.1658  0.3192  0.4343
  939MOL0     C23820   8.076   2.526   4.630  0.5111 -0.8380 -0.3839
  939MOL0     C23821   8.173   2.453   4.576  0.4003 -0.4524  0.0091
  939MOL0     C23822   8.297   2.507   4.566  0.3084  0.1872 -0.8047
  939MOL0     C23823   8.336   2.641   4.604 -0.2927  0.5087  0.0818
  939MOL0     O23824   8.462   2.705   4.604  0.5254  0.1415  0.1636
  939MOL0     C23825   8.569   2.657   4.532 -0.3774  0.2438  0.1076
  939MOL0     C23826   8.688   2.748   4.562 -0.2612 -0.7438  0.0151
  939MOL0     C23827   8.721   2.784   4.714  0.4762 -0.5155 -0.0163
  939MOL0     C23828   8.840   2.886   4.723 -0.2993  0.2648 -0.0797
  939MOL0     C23829   8.827   2.937   4.865  0.7079  0.6238 -0.3247
  939MOL0     C23830   8.926   3.049   4.876 -0.5533 -0.3029 -0.4020
  939MOL0     C23831   8.937   3.089   5.023 -0.1134  0.1293  0.8144
  939MOL0     C23832   8.853   3.193   5.079  0.3890 -0.3533  0.3223
  939MOL0     N23833   8.895   3.228   5.208 -0.1500  0.0660  0.0462
  939MOL0     C23834   8.972   3.341   5.225 -0.3328  0.2711  1.0680
  939MOL0     C23835   9.009   3.338   5.355 -0.2147  0.2538 -0.1704
  939MOL0     C23836   9.080   3.449   5.425 -0.4642 -0.3487  0.8122
  939MOL0     C23837   9.202   3.398   5.499 -0.2389  0.2570  1.2927
  939MOL0     C23838   9.326   3.409   5.411  0.4164 -0.1505 -0.4525
  939MOL0     C23839   9.447   3.351   5.478 -0.6293  0.0712 -0.2601
  939MOL0     O23840   9.568   3.395   5.401 -0.6789 -0.6975 -0.1421
  939MOL0     C23841   9.679   3.341   5.470 -0.0994  0.3710 -0.3607
  939MOL0     C23842   9.724   3.208   5.443 -0.0947  0.8791  0.1372
  939MOL0     C23843   9.840   3.164   5.504  0.7007  0.4732 -0.0672
  939MOL0     C23844   9.921   3.250   5.581  0.2638  0.3670  0.2874
  939MOL0     C23845  10.050   3.204   5.625  0.1965 -0.3620  0.1183
  939MOL0     O23846  10.097   3.269   5.739 -0.2875 -0.3688  0.1164
  939MOL0     C23847  10.225   3.242   5.775  0.0333  0.0060  0.6877
  939MOL0     C23848  10.298   3.351   5.822  0.1711 -0.7016  0.3014
  939MOL0     C23849  10.431   3.343   5.868  0.7152 -0.4283  0.7379
  939MOL0     C23850  10.490   3.214   5.879  0.0782  0.8768  0.4589
  939MOL0     O23851  10.612   3.189   5.934  0.2057 -0.0233  0.3157
  939MOL0     C23852  10.687   3.306   5.972  0.1871 -0.3802 -0.2368
  939MOL0     C23853  10.837   3.273   5.968 -0.1328 -0.1140  0.7774
  939MOL0     C23854  10.909   3.409   5.987  0.5522 -0.4211 -0.1969
  939MOL0     C23855  11.064   3.391   5.970 -0.2547  0.8335  1.4260
  939MOL0     C23856  11.121   3.267   6.033 -1.6485  0.1370  0.9377
  939MOL0     C23857  11.270   3.258   5.996 -0.1150 -1.2287  0.1281
  939MOL0     C23858  11.313   3.129   6.038 -0.5664 -0.2533 -0.4716
  939MOL0     C23859  11.459   3.121   6.021  0.6584 -0.5652  0.3429
  939MOL0    Cl23860  11.498   3.137   5.855 -0.0033 -0.4523 -0.1735
  939MOL0     C23861  10.419   3.101   5.833  0.3325  0.7897  0.2757
  939MOL0     C23862  10.287   3.111   5.779  0.4938 -0.5360  1.4645
  939MOL0     O23863  10.114   3.129   5.549  0.2583  0.2921 -0.3568
  939MOL0     C23864   9.868   3.381   5.613  0.9771  0.5671  0.9580
  939MOL0     C23865   9.751   3.428   5.560  0.8082 -0.0626 -0.4045
  939MOL0     N23866   8.947   3.224   5.408 -0.5269 -0.0729 -0.2558
  939MOL0     N23867   8.889   3.159   5.317 -0.3479  0.4675 -0.2497
  939MOL0     C23868   8.234   2.715   4.654  0.9215 -0.2625 -0.1452
  939MOL0     C23869   8.105   2.661   4.662  0.3400 -0.0424  0.5695
  939MOL0     C23870   7.803   2.300   4.742  0.2174 -0.8013 -0.4860
  939MOL0     C23871   7.692   2.382   4.736 -0.5211 -0.2518  0.1624
  939MOL0     C23872   7.561   2.330   4.741 -0.0668 -0.2035 -0.2273
  939MOL0     C23873   7.546   2.200   4.771 -0.0526  0.2519 -0.2225
  939MOL0     O23874   7.418   2.169   4.770  0.0463 -0.3221  0.7615
  939MOL0     C23875   7.380   2.041   4.808 -0.1202 -0.7782  0.2065
  939MOL0     C23876   7.225   2.037   4.843  1.2448  0.1311 -0.8349
  939MOL0     C23877   7.136   2.057   4.718 -0.4216 -0.0710  0.0371
  939MOL0     C23878   7.010   1.984   4.750  0.3177 -0.3903  0.1520
  939MOL0     C23879   6.929   2.034   4.860 -0.4064 -0.7114 -0.1135
  939MOL0     C23880   6.880   2.090   4.955  0.0597 -0.0839 -1.0000
  939MOL0     C23881   7.658   2.112   4.789 -0.2811  0.9014 -0.3611
  939MOL0     C23882   7.791   2.165   4.788 -0.3949 -0.9759  0.2347
  939MOL0     H23883   8.155   2.351   4.544  0.2602  0.4554 -3.1791
  939MOL0     H23884   8.371   2.440   4.523 -3.1292 -3.0376 -2.2238
  939MOL0     H23885   8.535   2.657   4.429 -4.4583 -2.4426  1.2022
  939MOL0     H23886   8.578   2.556   4.574 -1.4237 -0.0169 -0.2691
  939MOL0     H23887   8.680   2.840   4.504  2.8392 -1.3014 -1.5047
  939MOL0     H23888   8.776   2.703   4.515 -2.7159 -2.6961 -3.1571
  939MOL0     H23889   8.726   2.695   4.777 -1.2508 -1.6001 -1.3077
  939MOL0     H23890   8.630   2.835   4.748  0.4483 -0.8467  0.4077
  939MOL0     H23891   8.931   2.828   4.703  0.0091  0.6159  0.2901
  939MOL0     H23892   8.815   2.967   4.655  0.2452 -0.4477 -1.1567
  939MOL0     H23893   8.844   2.846   4.923 -4.0976 -1.7556 -2.0798
  939MOL0     H23894   8.732   2.981   4.896  2.1946  3.1904  0.9223
  939MOL0     H23895   8.891   3.134   4.818  2.2627  2.6038  1.7528
  939MOL0     H23896   9.024   3.023   4.836  1.1650  1.4335  2.3435
  939MOL0     H23897   8.929   2.998   5.082 -0.0547 -0.3693  0.0593
  939MOL0     H23898   9.043   3.115   5.024  0.6030 -2.4028 -0.6525
  939MOL0     H23899   8.747   3.166   5.087 -0.1675  1.8358  1.0674
  939MOL0     H23900   8.845   3.278   5.012 -2.1281 -1.7254 -1.2833
  939MOL0     H23901   8.997   3.408   5.143  0.0005 -0.6528  0.3881
  939MOL0     H23902   9.009   3.499   5.491  0.3939  3.0509 -0.6034
  939MOL0     H23903   9.105   3.530   5.356  0.0785 -0.3051  1.0565
  939MOL0     H23904   9.194   3.296   5.536  0.4131 -1.1580 -2.0871
  939MOL0     H23905   9.224   3.460   5.586 -0.7155 -0.7901  2.1851
  939MOL0     H23906   9.313   3.356   5.317  0.3046  1.3477 -1.3215
  939MOL0     H23907   9.347   3.516   5.397 -0.1361  0.6598  3.5504
  939MOL0     H23908   9.449   3.242   5.476  0.9687  0.0031  1.8049
  939MOL0     H23909   9.461   3.398   5.576  2.7344 -1.1221 -0.0379
  939MOL0     H23910   9.657   3.142   5.389 -2.0013  0.7324  2.5332
  939MOL0     H23911   9.872   3.066   5.471 -0.6728 -1.0618  2.7811
  939MOL0     H23912  10.244   3.445   5.815  4.3230  1.9771  1.2767
  939MOL0     H23913  10.471   3.431   5.917  2.5924 -1.8668  1.8967
  939MOL0     H23914  10.654   3.330   6.073 -1.1441 -4.8548  0.6125
  939MOL0     H23915  10.665   3.388   5.903 -2.2242  0.3984  1.3508
  939MOL0     H23916  10.855   3.223   5.872 -0.7590 -0.8281  1.0158
  939MOL0     H23917  10.858   3.200   6.047 -2.1783 -1.2794  0.3262
  939MOL0     H23918  10.890   3.436   6.092  1.8951  1.0199 -0.3019
  939MOL0     H23919  10.868   3.495   5.935 -0.6845 -0.9019 -0.0522
  939MOL0     H23920  11.084   3.385   5.863  0.8707  3.7081  1.3570
  939MOL0     H23921  11.115   3.483   6.003  0.9929  0.6039  0.2062
  939MOL0     H23922  11.071   3.177   5.996 -1.1296 -0.9438  2.7564
  939MOL0     H23923  11.112   3.283   6.141  1.2457  1.4789  1.0785
  939MOL0     H23924  11.320   3.336   6.053  0.4091  0.2072 -2.1534
  939MOL0     H23925  11.288   3.278   5.889  1.9871 -4.5682 -0.2942
  939MOL0     H23926  11.299   3.122   6.146 -1.5428 -3.0737 -0.7109
  939MOL0     H23927  11.253   3.045   6.002 -1.4435 -0.0487  0.4634
  939MOL0     H23928  11.491   3.022   6.052  0.8680 -0.8638 -0.7646
  939MOL0     H23929  11.520   3.195   6.074  1.8599 -1.2966  0.0383
  939MOL0     H23930  10.479   3.013   5.854  0.3814  1.1396  1.7317
  939MOL0     H23931  10.234   3.020   5.751  1.5028 -0.7481  0.1666
  939MOL0     H23932   9.921   3.431   5.693  3.5012  1.7007 -1.2732
  939MOL0     H23933   9.698   3.518   5.589 -1.1909 -0.7419 -1.7512
  939MOL0     H23934   8.247   2.814   4.695  0.1779  0.9544 -2.6103
  939MOL0     H23935   8.029   2.727   4.703  2.2326  2.3161  0.4600
  939MOL0     H23936   7.705   2.488   4.720  2.0706 -0.2562  1.6853
  939MOL0     H23937   7.477   2.398   4.733  1.1761  1.2542 -1.5855
  939MOL0     H23938   7.431   2.000   4.895  0.4066  0.2104  0.3683
  939MOL0     H23939   7.408   1.975   4.725  2.7069  0.6376 -0.0641
  939MOL0     H23940   7.220   1.941   4.896  2.0347  0.1649 -0.6885
  939MOL0     H23941   7.201   2.108   4.923 -3.4407 -0.4260 -1.4781
  939MOL0     H23942   7.185   2.041   4.622  2.7205  1.7707  1.1795
  939MOL0     H23943   7.098   2.159   4.705  0.7114  0.1349 -2.1115
  939MOL0     H23944   6.941   1.992   4.665  1.8010  1.7944 -0.9523
  939MOL0     H23945   7.037   1.881   4.776 -0.3468 -0.6227 -0.0708
  939MOL0     H23946   6.823   2.131   5.036 -1.5920 -3.9313 -0.0173
  939MOL0     H23947   7.634   2.012   4.824  1.4130  0.7902  0.6101
  939MOL0     H23948   7.878   2.101   4.778 -0.3659 -1.5398  3.1935
  940MOL0     O23949   3.513   9.706   9.627 -0.2797 -0.5846 -0.3318
  940MOL0     C23950   3.539   9.618   9.549 -0.2027 -0.6750  0.2606
  940MOL0     O23951   3.460   9.562   9.451 -0.5639  0.4018  0.5739
  940MOL0     C23952   3.341   9.628   9.422  0.1294 -0.1565 -0.6124
  940MOL0     C23953   3.324   9.767   9.397 -0.0996  0.8040 -1.2109
  940MOL0     C23954   3.199   9.819   9.356  0.3412  0.0652 -0.2230
  940MOL0     C23955   3.085   9.735   9.353  0.2658  0.0329 -0.2603
  940MOL0     O23956   2.963   9.790   9.331  0.3731  0.3475  0.6181
  940MOL0     C23957   2.929   9.916   9.384 -0.2392 -0.5923 -0.1744
  940MOL0     C23958   2.780   9.944   9.360  0.2406  0.3457 -0.5258
  940MOL0     C23959   2.726  10.085   9.386 -0.4193  0.5350  0.4742
  940MOL0     C23960   2.774  10.154   9.516 -0.3069  0.1940 -0.3175
  940MOL0     C23961   2.921  10.208   9.502  0.2397  0.0698 -0.6462
  940MOL0     C23962   2.966  10.288   9.629 -0.0568 -0.8720  0.1109
  940MOL0     C23963   2.965  10.204   9.765  0.0357 -0.3905 -0.3180
  940MOL0     C23964   3.060  10.084   9.756  0.4142 -1.0438  0.1230
  940MOL0     N23965   3.200  10.126   9.736  0.6488 -0.3303  0.0112
  940MOL0     C23966   3.300  10.048   9.683 -1.2597  0.0979  0.1243
  940MOL0     C23967   3.419  10.127   9.694  0.1638  0.1673  0.2089
  940MOL0     C23968   3.558  10.078   9.657 -0.8046  0.3617  0.2293
  940MOL0     C23969   3.602  10.080   9.512 -0.0684 -0.3705  0.3534
  940MOL0     C23970   3.723   9.998   9.491 -0.4467 -0.2881 -0.1508
  940MOL0     C23971   3.858  10.048   9.559  0.4050 -0.8036  0.1060
  940MOL0     O23972   3.969   9.989   9.494  0.5550  0.1931 -0.1680
  940MOL0     C23973   4.099  10.008   9.521 -0.6311  0.9881 -0.2104
  940MOL0     C23974   4.138  10.106   9.608  0.0662 -0.3190 -0.0695
  940MOL0     C23975   4.270  10.111   9.660  0.2291 -0.8158  0.0670
  940MOL0     C23976   4.361  10.013   9.619  0.1471  0.1631 -0.9182
  940MOL0     C23977   4.486   9.992   9.694  0.7548  0.6324 -0.6179
  940MOL0     O23978   4.521  10.102   9.766 -0.2420  0.6011  0.3752
  940MOL0     C23979   4.634  10.108   9.831  0.3810  1.0784 -0.5441
  940MOL0     C23980   4.754  10.073   9.767 -0.3087  0.2043  0.1387
  940MOL0     C23981   4.882  10.085   9.828 -0.0420 -0.0848 -0.5954
  940MOL0     C23982   4.889  10.131   9.960 -0.1452  0.4039  0.3625
  940MOL0     O23983   5.002  10.140  10.024 -0.1844 -0.1995  0.4671
  940MOL0     C23984   5.001  10.206  10.152 -0.3554  0.7087 -0.1305
  940MOL0     C23985   5.144  10.243  10.198  0.5179  0.4394 -0.2561
  940MOL0     C23986   5.202  10.351  10.112  0.1669 -0.6796  0.2652
  940MOL0     C23987   5.311  10.293  10.021  1.1118  0.0299 -0.7280
  940MOL0     C23988   5.370  10.407   9.931 -0.3027  0.1812  0.2705
  940MOL0     C23989   5.452  10.350   9.812 -0.1036  0.2207  0.1878
  940MOL0     C23990   5.527  10.466   9.738  0.7083 -0.2313 -0.4859
  940MOL0     C23991   5.615  10.410   9.628  0.2212  0.0941 -0.8866
  940MOL0    Cl23992   5.727  10.279   9.679  0.7274  0.0741 -0.3919
  940MOL0     C23993   4.768  10.170  10.025  0.2683  0.0813 -0.0262
  940MOL0     C23994   4.642  10.161   9.966  0.7228  0.1608 -0.5966
  940MOL0     O23995   4.548   9.883   9.689 -0.6860 -0.7874 -0.1154
  940MOL0     C23996   4.317   9.922   9.514  1.3297 -1.1937 -0.3069
  940MOL0     C23997   4.190   9.921   9.475 -0.3050  0.4628 -0.1583
  940MOL0     N23998   3.385  10.240   9.760  0.3058  0.4710 -0.0024
  940MOL0     N23999   3.255  10.240   9.784 -0.3768  0.0126 -0.0866
  940MOL0     C24000   3.109   9.594   9.371  0.3031 -0.0042  0.2117
  940MOL0     C24001   3.232   9.547   9.404  0.4003 -0.0387 -0.3020
  940MOL0     C24002   3.675   9.563   9.571 -0.6764 -0.1334  0.3064
  940MOL0     C24003   3.775   9.617   9.650  0.5729  0.7262 -0.2668
  940MOL0     C24004   3.908   9.568   9.641 -0.4349 -0.0175  0.0003
  940MOL0     C24005   3.945   9.464   9.553  0.3480 -0.5978  0.3648
  940MOL0     O24006   4.075   9.426   9.533 -0.3091 -0.5491 -0.0595
  940MOL0     C24007   4.184   9.501   9.583  0.1968  0.5980 -0.0760
  940MOL0     C24008   4.308   9.431   9.526  0.1010  0.6344  0.8825
  940MOL0     C24009   4.439   9.507   9.564  0.6977 -0.2140 -0.3411
  940MOL0     C24010   4.576   9.473   9.504  0.6908  0.7438  0.5582
  940MOL0     C24011   4.680   9.575   9.540  0.3662  0.2101  0.6583
  940MOL0     C24012   4.759   9.666   9.561 -0.4622  0.0091 -0.7249
  940MOL0     C24013   3.839   9.408   9.486  0.2414  0.7887  0.3692
  940MOL0     C24014   3.706   9.457   9.487 -0.2712 -0.4336 -0.5830
  940MOL0     H24015   3.414   9.827   9.403  1.0148 -0.7861 -1.3090
  940MOL0     H24016   3.199   9.924   9.329  1.2837  0.4597  1.1999
  940MOL0     H24017   2.974  10.003   9.336 -2.9802  1.4656  0.7578
  940MOL0     H24018   2.954   9.903   9.490  0.7768 -0.8612 -0.4316
  940MOL0     H24019   2.724   9.880   9.429  1.5286 -1.4621 -1.0847
  940MOL0     H24020   2.756   9.917   9.257  1.8198  1.1115 -1.1336
  940MOL0     H24021   2.617  10.077   9.393 -0.6877 -0.8875 -3.0283
  940MOL0     H24022   2.743  10.159   9.307  1.0201  1.6483  1.7657
  940MOL0     H24023   2.696  10.227   9.535 -2.8210 -2.3193 -0.2940
  940MOL0     H24024   2.767  10.073   9.590 -3.0332  0.3891 -0.2962
  940MOL0     H24025   2.913  10.274   9.415 -0.5732 -0.3119 -0.8693
  940MOL0     H24026   2.995  10.129   9.485 -0.4160 -0.8465  0.5852
  940MOL0     H24027   2.901  10.372   9.656 -0.7680 -2.3815  3.6340
  940MOL0     H24028   3.069  10.324   9.621  0.1889 -1.5561  0.1533
  940MOL0     H24029   2.998  10.259   9.854 -1.2026 -2.1191  1.2811
  940MOL0     H24030   2.865  10.173   9.795 -0.1235 -0.6674 -1.1268
  940MOL0     H24031   3.022  10.028   9.670  0.1038  0.1647 -0.5468
  940MOL0     H24032   3.055  10.024   9.847 -0.5736 -1.9092 -0.4639
  940MOL0     H24033   3.295   9.945   9.648 -4.6449 -0.1380  0.9852
  940MOL0     H24034   3.576   9.975   9.690  2.1656 -0.3229 -2.8939
  940MOL0     H24035   3.635  10.145   9.698 -1.8628  0.0906  2.8225
  940MOL0     H24036   3.614  10.185   9.482 -2.4805 -0.4090 -0.9980
  940MOL0     H24037   3.511  10.043   9.464 -0.1236  0.4835 -0.2191
  940MOL0     H24038   3.709   9.896   9.528  0.3862 -0.6725 -0.8357
  940MOL0     H24039   3.746   9.995   9.384  0.4512  1.4947 -0.0493
  940MOL0     H24040   3.870  10.027   9.666 -0.1742  1.4243  0.6459
  940MOL0     H24041   3.863  10.156   9.547 -1.6368 -0.5856  0.8942
  940MOL0     H24042   4.078  10.183   9.655 -0.8322 -1.7342  1.2345
  940MOL0     H24043   4.295  10.192   9.728 -1.8579  0.1754 -0.2697
  940MOL0     H24044   4.747  10.051   9.661 -1.0432 -2.0441  0.5968
  940MOL0     H24045   4.972  10.048   9.780 -1.8607 -3.3246 -1.8051
  940MOL0     H24046   4.961  10.136  10.226  0.4263  0.6008  0.1981
  940MOL0     H24047   4.941  10.297  10.160  0.8635  1.3942  1.6501
  940MOL0     H24048   5.206  10.156  10.179  0.2719 -0.0074  0.8716
  940MOL0     H24049   5.146  10.260  10.307 -0.4918  1.7773 -0.4120
  940MOL0     H24050   5.257  10.426  10.169  3.4651 -0.2334 -3.0652
  940MOL0     H24051   5.117  10.405  10.070 -0.3350 -0.8980  0.9909
  940MOL0     H24052   5.379  10.241  10.088 -2.6868 -2.0555  1.9014
  940MOL0     H24053   5.265  10.212   9.963 -2.0204  0.9608  0.2493
  940MOL0     H24054   5.444  10.467   9.985 -0.1640  0.2065  0.0590
  940MOL0     H24055   5.295  10.470   9.882 -0.9933 -1.4565 -0.8856
  940MOL0     H24056   5.381  10.293   9.750 -1.9620  1.0996  1.4373
  940MOL0     H24057   5.524  10.282   9.860  1.3160  3.1650  2.5162
  940MOL0     H24058   5.453  10.531   9.692 -0.2101 -1.4512 -0.7858
  940MOL0     H24059   5.591  10.517   9.811  0.6041 -1.2080  0.3178
  940MOL0     H24060   5.679  10.488   9.585  3.7516 -2.5915 -0.9650
  940MOL0     H24061   5.558  10.368   9.546  1.1588  2.6828 -3.0186
  940MOL0     H24062   4.762  10.172  10.133  1.6093 -0.9960  0.0986
  940MOL0     H24063   4.554  10.172  10.029 -0.0129 -0.7007 -1.4319
  940MOL0     H24064   4.388   9.847   9.482  2.8363 -1.2835  2.8814
  940MOL0     H24065   4.172   9.853   9.392  1.5554 -2.7139  1.8368
  940MOL0     H24066   3.035   9.517   9.354  1.5322 -1.8401  2.5132
  940MOL0     H24067   3.237   9.439   9.414  0.9138  0.1069  1.3418
  940MOL0     H24068   3.739   9.696   9.715 -0.7156 -0.7525  0.8891
  940MOL0     H24069   3.983   9.603   9.711 -2.3546 -1.5382  3.0566
  940MOL0     H24070   4.200   9.495   9.692  1.6182  1.2618 -0.2283
  940MOL0     H24071   4.189   9.608   9.560 -1.8938  1.3592  2.4731
  940MOL0     H24072   4.309   9.329   9.566  0.0567 -0.5832 -1.9453
  940MOL0     H24073   4.291   9.420   9.418  0.5237  1.3645  0.7365
  940MOL0     H24074   4.432   9.498   9.673  0.6654  4.8630  0.3112
  940MOL0     H24075   4.421   9.613   9.548 -0.1275  0.4541  3.8367
  940MOL0     H24076   4.608   9.381   9.552 -0.2078 -0.6440 -1.3620
  940MOL0     H24077   4.561   9.465   9.396  1.2648  1.1047  0.4479
  940MOL0     H24078   4.829   9.747   9.564  0.7277 -0.8999  4.3120
  940MOL0     H24079   3.866   9.318   9.432  1.4236  1.7267 -0.6805
  940MOL0     H24080   3.644   9.400   9.419 -1.7040 -0.2542  0.5149
  941MOL0     O24081  10.162   9.182   5.769 -0.3433 -0.3951 -0.0717
  941MOL0     C24082  10.232   9.237   5.857 -1.0334 -0.3835  0.0629
  941MOL0     O24083  10.217   9.235   5.996 -0.0049  0.1526 -1.0051
  941MOL0     C24084  10.158   9.128   6.064  0.6769  0.2030  0.2725
  941MOL0     C24085  10.175   8.993   6.026  0.8063  0.5249  0.8034
  941MOL0     C24086  10.114   8.894   6.108 -0.1509 -0.8947 -0.0388
  941MOL0     C24087  10.018   8.929   6.209 -1.0210 -0.8977 -0.0873
  941MOL0     O24088   9.978   8.834   6.294 -0.4686 -0.2990  0.8239
  941MOL0     C24089   9.837   8.832   6.322  1.4138 -0.0675  0.7587
  941MOL0     C24090   9.830   8.772   6.465  0.1384  0.2869 -0.5482
  941MOL0     C24091   9.906   8.858   6.571  0.1329 -0.1357  0.6251
  941MOL0     C24092   9.939   8.766   6.696  0.4090  0.1947 -0.0835
  941MOL0     C24093  10.047   8.817   6.796 -0.7771 -0.1580  0.3560
  941MOL0     C24094   9.982   8.899   6.915  0.9507  0.7393 -0.9523
  941MOL0     C24095   9.914   9.030   6.866 -0.7360 -0.1080  0.8500
  941MOL0     C24096  10.018   9.125   6.799  0.1901 -0.1772 -0.7888
  941MOL0     N24097  10.127   9.158   6.902 -0.2927  0.3163  0.0272
  941MOL0     C24098  10.122   9.232   7.023 -0.4174 -0.5254  0.4219
  941MOL0     C24099  10.239   9.200   7.087  0.3397  1.1106 -0.4930
  941MOL0     C24100  10.291   9.230   7.230  0.5723  0.1203  0.2304
  941MOL0     C24101  10.421   9.310   7.211 -0.5656 -0.2754  0.0282
  941MOL0     C24102  10.402   9.431   7.114 -0.5901 -0.0963 -1.4768
  941MOL0     C24103  10.526   9.521   7.113 -0.1935  0.0175 -0.2725
  941MOL0     O24104  10.637   9.452   7.052 -0.6203  0.2714 -0.3738
  941MOL0     C24105  10.750   9.522   7.014 -0.2141  0.0713  1.0477
  941MOL0     C24106  10.838   9.445   6.927  0.9771 -0.3351  0.0197
  941MOL0     C24107  10.949   9.500   6.871 -0.1254  0.4234 -0.0940
  941MOL0     C24108  10.981   9.639   6.896 -0.7599  0.1747 -0.0444
  941MOL0     C24109  11.107   9.706   6.850 -0.6191  0.2036 -0.5726
  941MOL0     O24110  11.156   9.651   6.731  0.0849  0.1140  0.1068
  941MOL0     C24111  11.274   9.693   6.673 -0.3457  0.0085  0.3544
  941MOL0     C24112  11.299   9.827   6.647  0.2407  0.1566 -1.1841
  941MOL0     C24113  11.427   9.865   6.618 -0.2537 -0.1264 -0.9151
  941MOL0     C24114  11.524   9.773   6.588 -0.6578  0.4151  1.0224
  941MOL0     O24115  11.653   9.793   6.538  0.3116  0.2216  0.2177
  941MOL0     C24116  11.669   9.898   6.444  0.2088 -0.2709 -0.4145
  941MOL0     C24117  11.693  10.038   6.514 -0.5744  0.5441  0.3274
  941MOL0     C24118  11.820  10.089   6.445  1.0836  0.2161  0.2268
  941MOL0     C24119  11.849  10.226   6.495  0.2860  0.3200  0.1288
  941MOL0     C24120  11.950  10.296   6.405  0.2855  0.0199  0.9737
  941MOL0     C24121  12.075  10.213   6.379  0.3960 -0.8658 -0.9992
  941MOL0     C24122  12.179  10.287   6.304 -0.2260 -0.3639  0.2148
  941MOL0     C24123  12.131  10.365   6.170 -0.2877 -0.1309  0.6331
  941MOL0    Cl24124  12.268  10.473   6.142 -0.1898  0.1953  0.3475
  941MOL0     C24125  11.491   9.643   6.596 -0.4423  0.7716  0.4903
  941MOL0     C24126  11.366   9.602   6.637 -0.5362  0.4358 -0.5877
  941MOL0     O24127  11.154   9.797   6.914 -0.4799  0.0392 -0.0459
  941MOL0     C24128  10.890   9.717   6.970  0.3045 -0.5798 -0.8192
  941MOL0     C24129  10.773   9.664   7.019 -0.3197 -0.7035  0.0603
  941MOL0     N24130  10.299   9.103   7.010 -0.4797 -0.1539 -0.5198
  941MOL0     N24131  10.245   9.095   6.892 -0.0731 -0.3639 -0.2667
  941MOL0     C24132  10.006   9.058   6.240 -0.4640  0.5688  0.3866
  941MOL0     C24133  10.066   9.158   6.164  0.2545 -0.2291 -0.0208
  941MOL0     C24134  10.349   9.314   5.803  0.0490 -0.4815  0.0582
  941MOL0     C24135  10.369   9.329   5.666 -0.6431  0.1707 -0.4561
  941MOL0     C24136  10.476   9.407   5.611  1.4143  0.2574 -0.5623
  941MOL0     C24137  10.571   9.471   5.698 -1.1050 -0.0141  0.6161
  941MOL0     O24138  10.690   9.528   5.649 -0.3105 -0.5240  0.2411
  941MOL0     C24139  10.765   9.592   5.746  0.9852  0.2841 -0.1176
  941MOL0     C24140  10.869   9.659   5.668 -0.2761  0.3062 -0.1305
  941MOL0     C24141  10.996   9.568   5.620  0.8320  0.3129  0.3350
  941MOL0     C24142  11.127   9.629   5.569  0.3982  0.3512  0.3692
  941MOL0     C24143  11.116   9.742   5.472 -0.8831 -0.4446 -0.0724
  941MOL0     C24144  11.121   9.824   5.378 -0.0012  0.8992 -0.0000
  941MOL0     C24145  10.533   9.468   5.835  0.5394 -0.2760 -0.9028
  941MOL0     C24146  10.435   9.384   5.887  0.5746 -0.0996  0.2042
  941MOL0     H24147  10.240   8.946   5.953 -0.3921  0.1042 -0.0103
  941MOL0     H24148  10.134   8.791   6.081 -2.5463 -1.7993  1.3073
  941MOL0     H24149   9.801   8.744   6.267  0.9720  1.0676 -0.8511
  941MOL0     H24150   9.771   8.919   6.315 -1.7502 -2.2836  0.7719
  941MOL0     H24151   9.873   8.672   6.466 -1.2393 -0.3588  1.1398
  941MOL0     H24152   9.726   8.754   6.497  1.0744  0.6399  3.2492
  941MOL0     H24153   9.862   8.954   6.601 -4.9658 -2.5998  2.1811
  941MOL0     H24154   9.993   8.889   6.513 -0.3554 -0.9634 -0.5884
  941MOL0     H24155   9.845   8.741   6.746  1.2756 -1.5711  0.7296
  941MOL0     H24156   9.982   8.672   6.662  2.3608  0.2964  1.8618
  941MOL0     H24157  10.125   8.864   6.736 -1.3705 -1.7175 -1.7643
  941MOL0     H24158  10.092   8.729   6.844  4.4592  2.3665  0.7478
  941MOL0     H24159  10.058   8.926   6.988 -0.7176  0.6694  0.8902
  941MOL0     H24160   9.907   8.834   6.962 -0.4281  3.2382  0.5320
  941MOL0     H24161   9.823   9.012   6.808  0.9718  0.9967 -2.4256
  941MOL0     H24162   9.882   9.084   6.955 -1.7319  0.3261  0.2451
  941MOL0     H24163   9.973   9.223   6.777 -0.1931 -0.6485 -2.2162
  941MOL0     H24164  10.055   9.078   6.708 -0.2820 -1.2123 -0.4583
  941MOL0     H24165  10.053   9.296   7.078  1.1269  0.2256  1.5618
  941MOL0     H24166  10.313   9.137   7.283  4.3367  0.6588 -0.1016
  941MOL0     H24167  10.219   9.294   7.283  0.5689  0.0864  0.2669
  941MOL0     H24168  10.481   9.238   7.154  0.3872  1.4792 -1.2797
  941MOL0     H24169  10.461   9.345   7.306  0.6804  2.2123 -1.3048
  941MOL0     H24170  10.386   9.399   7.011 -0.5523  2.8672 -2.4912
  941MOL0     H24171  10.314   9.491   7.140 -1.2858 -0.7892 -2.1648
  941MOL0     H24172  10.561   9.552   7.211  1.0081 -0.8655 -0.3946
  941MOL0     H24173  10.502   9.603   7.044 -1.5367 -0.4746 -0.4287
  941MOL0     H24174  10.800   9.355   6.879  0.5920  0.2679 -0.8358
  941MOL0     H24175  11.013   9.442   6.805 -1.7243 -0.3492 -1.0403
  941MOL0     H24176  11.224   9.899   6.678 -0.6961 -1.0406 -0.5903
  941MOL0     H24177  11.460   9.967   6.606  1.8126 -0.3919  1.4957
  941MOL0     H24178  11.580   9.899   6.380  2.3248 -1.4198 -3.6475
  941MOL0     H24179  11.743   9.868   6.369 -0.4811  0.6635 -1.5141
  941MOL0     H24180  11.694  10.023   6.622 -0.0114  0.2780  0.2858
  941MOL0     H24181  11.612  10.107   6.489 -0.3773  0.3377 -0.9316
  941MOL0     H24182  11.793  10.090   6.339  2.2802  1.0876 -0.0895
  941MOL0     H24183  11.904  10.026   6.475  0.1119 -0.0546  2.5715
  941MOL0     H24184  11.760  10.287   6.511  0.5657  2.5795 -4.7903
  941MOL0     H24185  11.912  10.209   6.582 -0.0631 -0.2552  0.2669
  941MOL0     H24186  11.968  10.392   6.455 -1.4954 -0.9810  3.7852
  941MOL0     H24187  11.910  10.325   6.307 -0.4978 -0.4295  1.1499
  941MOL0     H24188  12.039  10.127   6.321 -2.3703  1.3799 -2.9116
  941MOL0     H24189  12.127  10.198   6.474  0.4089 -1.2503 -1.0650
  941MOL0     H24190  12.219  10.370   6.363  0.9866 -1.2511  0.6954
  941MOL0     H24191  12.264  10.222   6.282  0.1491  0.0445  0.4404
  941MOL0     H24192  12.043  10.428   6.186  0.2981  1.5332 -2.0124
  941MOL0     H24193  12.116  10.304   6.081 -2.1843 -2.3095  2.3304
  941MOL0     H24194  11.555   9.557   6.582 -3.6775 -1.4133 -2.3416
  941MOL0     H24195  11.351   9.495   6.651 -0.3643  0.3752 -0.8630
  941MOL0     H24196  10.901   9.822   6.996 -1.3742  0.0703 -2.4487
  941MOL0     H24197  10.697   9.729   7.062  0.5369  1.2705 -1.3194
  941MOL0     H24198   9.948   9.086   6.327  2.0294  4.4885  1.0368
  941MOL0     H24199  10.049   9.261   6.192  0.0612  0.5566 -2.7549
  941MOL0     H24200  10.282   9.307   5.605 -1.9111  4.5365 -0.5322
  941MOL0     H24201  10.480   9.427   5.504  1.1693  2.9374 -0.1406
  941MOL0     H24202  10.803   9.531   5.829 -1.3937  1.1041  1.6752
  941MOL0     H24203  10.703   9.668   5.793 -2.6600 -2.1155 -0.6429
  941MOL0     H24204  10.831   9.706   5.577  0.9946 -1.4655 -1.6654
  941MOL0     H24205  10.913   9.728   5.740 -2.3230  0.6661  0.8281
  941MOL0     H24206  10.950   9.499   5.548  1.1103 -1.2084  1.5670
  941MOL0     H24207  11.011   9.500   5.704 -2.1683  2.3954  2.7982
  941MOL0     H24208  11.186   9.655   5.656 -0.4928  2.3869  0.4293
  941MOL0     H24209  11.175   9.542   5.523 -0.3689  0.4488 -0.6614
  941MOL0     H24210  11.124   9.890   5.294  0.4068 -0.3314 -0.9986
  941MOL0     H24211  10.591   9.517   5.912 -1.1557  0.9250 -0.3380
  941MOL0     H24212  10.421   9.383   5.995  0.9520  1.0416  0.2766
  942MOL0     O24213   8.243   9.956   5.363 -0.0777 -0.1734 -0.3464
  942MOL0     C24214   8.348   9.899   5.334  0.8274  0.1081 -0.1487
  942MOL0     O24215   8.406   9.892   5.210 -0.8004  0.6755  0.3330
  942MOL0     C24216   8.362   9.969   5.108 -0.4032  0.1318  0.3075
  942MOL0     C24217   8.339  10.111   5.126  0.5430 -0.0637 -0.3909
  942MOL0     C24218   8.301  10.189   5.017  0.3930 -0.4563  0.1995
  942MOL0     C24219   8.268  10.137   4.887  0.0461 -0.3045 -1.4188
  942MOL0     O24220   8.208  10.213   4.786  0.1186  0.0387 -0.7664
  942MOL0     C24221   8.245  10.352   4.777  1.1676 -0.0761 -0.6854
  942MOL0     C24222   8.398  10.369   4.745 -0.3550 -0.5672  0.9839
  942MOL0     C24223   8.418  10.517   4.703  0.4365 -0.7788  0.8232
  942MOL0     C24224   8.571  10.556   4.673  0.0730  0.2042 -0.3294
  942MOL0     C24225   8.617  10.458   4.566  0.1197 -0.6097  0.2425
  942MOL0     C24226   8.762  10.482   4.510  0.2245 -0.0171  1.3132
  942MOL0     C24227   8.759  10.586   4.397 -1.2099 -0.6843 -0.1633
  942MOL0     C24228   8.898  10.581   4.328  0.0642 -0.4647 -0.7565
  942MOL0     N24229   8.910  10.617   4.183  0.0983 -0.5468 -0.2444
  942MOL0     C24230   8.827  10.709   4.121 -0.7327 -0.2003  0.9308
  942MOL0     C24231   8.881  10.720   3.994 -0.1886 -0.7131 -0.5784
  942MOL0     C24232   8.841  10.822   3.887  0.2476  1.8430  0.3143
  942MOL0     C24233   8.943  10.925   3.859 -0.8650 -1.4700 -0.2284
  942MOL0     C24234   8.902  11.002   3.733 -0.3349  0.2804 -0.4003
  942MOL0     C24235   8.989  11.125   3.706 -0.5452 -0.4674  0.0762
  942MOL0     O24236   9.132  11.100   3.722  0.1547 -0.2190  0.0209
  942MOL0     C24237   9.222  11.209   3.717  0.0040  0.4938 -0.5197
  942MOL0     C24238   9.347  11.164   3.700 -0.3675 -0.2908 -0.1767
  942MOL0     C24239   9.453  11.252   3.709 -0.5953 -0.9352  0.4027
  942MOL0     C24240   9.433  11.393   3.718 -0.2817  0.1367 -0.7189
  942MOL0     C24241   9.542  11.495   3.705  0.2505  0.3587  0.2971
  942MOL0     O24242   9.521  11.617   3.765  0.2584 -0.3313  0.5291
  942MOL0     C24243   9.583  11.727   3.722 -0.0975  0.5394  0.0937
  942MOL0     C24244   9.608  11.839   3.807 -0.6891 -0.3796 -0.5767
  942MOL0     C24245   9.669  11.956   3.760  0.3904  0.0398  1.0480
  942MOL0     C24246   9.717  11.961   3.629 -0.1649 -0.6582  0.2437
  942MOL0     O24247   9.777  12.074   3.572 -0.0303 -0.0371 -0.0053
  942MOL0     C24248   9.878  12.131   3.659 -0.9717  0.7127  0.3132
  942MOL0     C24249   9.985  12.215   3.592 -0.3498  0.0336  0.5834
  942MOL0     C24250  10.104  12.123   3.548  0.2223  0.5310 -0.6485
  942MOL0     C24251  10.210  12.214   3.496 -0.1787 -0.7076 -0.3111
  942MOL0     C24252  10.328  12.120   3.447  0.0174 -0.6977 -0.0267
  942MOL0     C24253  10.446  12.202   3.398 -0.3863 -0.8103 -0.0325
  942MOL0     C24254  10.559  12.112   3.349  0.6827  0.6167  0.5906
  942MOL0     C24255  10.652  12.172   3.258 -0.0102 -0.0274  0.5479
  942MOL0    Cl24256  10.719  12.323   3.319 -0.4700 -0.2322 -0.2162
  942MOL0     C24257   9.682  11.863   3.539  0.3787  0.6412 -0.0483
  942MOL0     C24258   9.623  11.741   3.584 -0.6221 -0.3971 -0.8333
  942MOL0     O24259   9.637  11.473   3.635 -0.2001 -0.4878  0.0719
  942MOL0     C24260   9.302  11.444   3.735  0.3829  0.1586  0.0066
  942MOL0     C24261   9.199  11.347   3.732 -0.4430 -0.4750  1.0160
  942MOL0     N24262   8.983  10.625   3.978  0.1481 -0.3315  0.0936
  942MOL0     N24263   9.010  10.582   4.101  0.1410  0.1557  0.3921
  942MOL0     C24264   8.288   9.999   4.879 -0.0526  0.6675  0.3639
  942MOL0     C24265   8.330   9.913   4.975  0.2165  0.3166 -0.5679
  942MOL0     C24266   8.395   9.812   5.436 -1.2521  0.0522  0.0942
  942MOL0     C24267   8.492   9.710   5.400 -0.4681 -0.5672 -0.9474
  942MOL0     C24268   8.567   9.638   5.497 -0.2314 -0.7446 -0.0450
  942MOL0     C24269   8.528   9.657   5.630  1.1139  0.8680 -0.9298
  942MOL0     O24270   8.595   9.600   5.733 -0.5722 -0.4671 -0.2222
  942MOL0     C24271   8.699   9.505   5.714  0.6728 -0.2320 -0.5305
  942MOL0     C24272   8.730   9.441   5.850  0.2223 -0.4843  0.2625
  942MOL0     C24273   8.854   9.351   5.844  1.3935  0.4089 -0.0689
  942MOL0     C24274   8.972   9.407   5.924 -0.2348 -0.7324  0.6685
  942MOL0     C24275   8.963   9.379   6.070  0.5938  0.6225  0.8121
  942MOL0     C24276   8.952   9.362   6.190 -0.7409 -1.1855 -0.3746
  942MOL0     C24277   8.423   9.748   5.663 -0.3506 -0.5079 -0.7954
  942MOL0     C24278   8.360   9.828   5.570  0.9205 -0.3977 -0.1448
  942MOL0     H24279   8.367  10.158   5.219  0.4363  0.7977 -0.7793
  942MOL0     H24280   8.302  10.295   5.039 -0.5870 -0.5835  0.9203
  942MOL0     H24281   8.215  10.415   4.861 -0.0861 -0.4653 -0.8323
  942MOL0     H24282   8.195  10.384   4.685 -1.8018 -1.8176  0.1957
  942MOL0     H24283   8.423  10.303   4.662  0.3808 -0.6815  1.2845
  942MOL0     H24284   8.455  10.348   4.836 -0.2715  0.8638  1.2932
  942MOL0     H24285   8.359  10.575   4.775 -0.3103  1.5696 -1.5148
  942MOL0     H24286   8.361  10.530   4.611  0.9483 -0.7309  0.5126
  942MOL0     H24287   8.579  10.662   4.646  1.1199  0.4807  0.9793
  942MOL0     H24288   8.634  10.545   4.761  0.3101 -0.1916 -0.5441
  942MOL0     H24289   8.539  10.470   4.489 -0.7776  0.6341  1.2939
  942MOL0     H24290   8.609  10.355   4.603 -4.0470 -1.6960 -2.9446
  942MOL0     H24291   8.796  10.383   4.478 -0.9796 -0.5053  1.4661
  942MOL0     H24292   8.825  10.525   4.588 -1.4549 -0.0824  2.7844
  942MOL0     H24293   8.673  10.565   4.334 -3.4675 -0.6428  2.7029
  942MOL0     H24294   8.743  10.684   4.442  1.0600 -0.5306  0.4685
  942MOL0     H24295   8.939  10.480   4.321 -0.4045 -0.6317 -1.1250
  942MOL0     H24296   8.963  10.648   4.385  0.1301 -0.5401 -0.7441
  942MOL0     H24297   8.742  10.768   4.150 -1.3134  0.7498 -2.3128
  942MOL0     H24298   8.744  10.861   3.917  0.0454  0.9792  0.8294
  942MOL0     H24299   8.837  10.765   3.793  0.0836  1.9131  0.2797
  942MOL0     H24300   9.035  10.868   3.842 -0.0902 -0.4478  0.4889
  942MOL0     H24301   8.949  10.985   3.949 -3.0063 -1.9011  0.2504
  942MOL0     H24302   8.918  10.936   3.647  0.9388  0.8329 -0.6108
  942MOL0     H24303   8.795  11.026   3.742  0.3578  3.2459  1.4375
  942MOL0     H24304   8.958  11.207   3.772 -0.6681  1.3497 -2.1151
  942MOL0     H24305   8.977  11.162   3.604  2.4794 -0.1655 -0.2610
  942MOL0     H24306   9.371  11.059   3.713 -0.8250 -0.9946 -4.0863
  942MOL0     H24307   9.559  11.228   3.706  0.4807  2.9896  1.1581
  942MOL0     H24308   9.573  11.845   3.910  2.8346  1.2243  0.7042
  942MOL0     H24309   9.675  12.033   3.836 -0.8843 -0.7886  2.0294
  942MOL0     H24310   9.931  12.059   3.722 -2.6808  0.2632  1.2883
  942MOL0     H24311   9.832  12.203   3.727  0.4026  2.2410 -0.3132
  942MOL0     H24312  10.032  12.274   3.671  1.1166  0.6082 -0.6541
  942MOL0     H24313   9.946  12.276   3.510 -2.5349 -1.0799  0.7197
  942MOL0     H24314  10.066  12.054   3.471  0.6258 -1.7588  1.1047
  942MOL0     H24315  10.137  12.067   3.636  0.0095  2.7279  0.9134
  942MOL0     H24316  10.187  12.281   3.413  1.2380 -0.2371 -0.3518
  942MOL0     H24317  10.246  12.278   3.577 -0.5165 -2.2703  1.1323
  942MOL0     H24318  10.291  12.062   3.363 -0.7381  2.4807 -2.0826
  942MOL0     H24319  10.356  12.055   3.530  1.2368 -0.7020 -0.4140
  942MOL0     H24320  10.475  12.272   3.476 -0.8732 -0.0062 -0.5608
  942MOL0     H24321  10.417  12.269   3.317  2.2089 -1.0302 -1.2420
  942MOL0     H24322  10.615  12.084   3.438  4.9286 -0.4839 -2.1462
  942MOL0     H24323  10.511  12.029   3.297  1.9026 -0.2271  0.7816
  942MOL0     H24324  10.603  12.207   3.166  0.5573  2.5795  1.1753
  942MOL0     H24325  10.726  12.096   3.230 -0.5247 -0.4955  0.4519
  942MOL0     H24326   9.696  11.878   3.433 -1.0867 -2.6528 -0.8420
  942MOL0     H24327   9.602  11.669   3.506 -2.5614 -1.2499  0.4197
  942MOL0     H24328   9.283  11.550   3.729 -1.2079 -0.1519 -0.8498
  942MOL0     H24329   9.099  11.390   3.730  0.6279  2.2787 -0.4810
  942MOL0     H24330   8.261   9.952   4.785  1.8873 -0.2885  0.2359
  942MOL0     H24331   8.348   9.811   4.945 -1.6134 -0.6038  1.2345
  942MOL0     H24332   8.515   9.682   5.297 -0.2649  0.3370 -1.1508
  942MOL0     H24333   8.643   9.562   5.483  1.6502  0.4070  2.9615
  942MOL0     H24334   8.779   9.558   5.663  0.3427  4.2209  3.0002
  942MOL0     H24335   8.668   9.423   5.649 -0.2588  0.4184 -0.9264
  942MOL0     H24336   8.761   9.516   5.923  0.9703  1.3481 -1.8320
  942MOL0     H24337   8.639   9.396   5.889 -1.0927  2.4660  0.8537
  942MOL0     H24338   8.878   9.330   5.739 -0.5731  1.1585 -0.7075
  942MOL0     H24339   8.832   9.254   5.890  0.4541 -0.4016 -2.1038
  942MOL0     H24340   9.052   9.341   5.889  0.1360 -1.2771  2.4282
  942MOL0     H24341   8.995   9.513   5.913 -2.3708  0.1707  3.5714
  942MOL0     H24342   8.940   9.356   6.296 -1.7531  0.0432 -0.3840
  942MOL0     H24343   8.405   9.750   5.770 -0.5548  4.1473 -0.7071
  942MOL0     H24344   8.279   9.892   5.602  3.9507  3.6680  0.1908
  943MOL0     O24345   2.979   1.138   1.864  0.3452  0.1761 -0.6215
  943MOL0     C24346   3.066   1.189   1.800 -0.1415 -0.0371 -0.1059
  943MOL0     O24347   3.185   1.222   1.850  0.0979 -0.2799 -0.6574
  943MOL0     C24348   3.193   1.236   1.995  0.0177 -0.5339 -0.7918
  943MOL0     C24349   3.316   1.207   2.053  0.9106 -0.0447  0.6947
  943MOL0     C24350   3.320   1.217   2.193 -0.3805  0.1664  0.2898
  943MOL0     C24351   3.225   1.287   2.269 -0.5241  0.5447  0.2746
  943MOL0     O24352   3.262   1.324   2.394 -1.0100  0.1839  0.2462
  943MOL0     C24353   3.189   1.424   2.479  0.0883  0.2749  0.0368
  943MOL0     C24354   3.258   1.447   2.608 -0.1227  1.1023  0.3107
  943MOL0     C24355   3.215   1.584   2.670  0.3418  0.7405 -0.0746
  943MOL0     C24356   3.297   1.610   2.798  0.1246 -0.6071  0.0844
  943MOL0     C24357   3.269   1.754   2.859 -0.3014  1.1508 -0.0883
  943MOL0     C24358   3.151   1.734   2.965 -0.9838 -0.5674  0.1174
  943MOL0     C24359   3.076   1.869   2.993 -0.1619 -0.1345  0.2628
  943MOL0     C24360   3.184   1.960   3.058 -0.0052  0.4375 -0.8257
  943MOL0     N24361   3.114   2.074   3.114  0.5346  0.3518 -0.3329
  943MOL0     C24362   3.064   2.080   3.250 -0.2165 -0.8485  0.0783
  943MOL0     C24363   3.017   2.209   3.253  0.2327 -0.8212 -0.5250
  943MOL0     C24364   2.959   2.278   3.373 -0.1624  0.7697 -0.4154
  943MOL0     C24365   2.824   2.226   3.401  0.3282 -0.7133  0.9396
  943MOL0     C24366   2.760   2.318   3.508 -0.4189  0.1763  1.0400
  943MOL0     C24367   2.639   2.257   3.577 -0.8437  0.5748 -0.2930
  943MOL0     O24368   2.571   2.156   3.518 -0.1624  0.4491 -0.4385
  943MOL0     C24369   2.488   2.172   3.415 -0.8279 -0.3331  0.0153
  943MOL0     C24370   2.473   2.286   3.340 -0.4418  0.2740 -0.4804
  943MOL0     C24371   2.383   2.282   3.230 -0.2936  0.3588 -0.9071
  943MOL0     C24372   2.305   2.171   3.201  0.4545 -0.2146  0.4317
  943MOL0     C24373   2.215   2.168   3.086 -0.0505  0.4225  0.4930
  943MOL0     O24374   2.189   2.286   3.020  0.4771  0.5503  0.2100
  943MOL0     C24375   2.114   2.283   2.908 -0.4439 -0.8694  0.2780
  943MOL0     C24376   2.147   2.381   2.808 -0.2007 -0.1417  0.3135
  943MOL0     C24377   2.086   2.372   2.677  0.3255 -0.0518 -0.4885
  943MOL0     C24378   1.983   2.276   2.651  0.3145 -0.5715 -0.5319
  943MOL0     O24379   1.911   2.274   2.535 -0.4875 -0.0052  0.4474
  943MOL0     C24380   1.895   2.396   2.466  0.3015 -0.8771  1.0175
  943MOL0     C24381   1.782   2.387   2.370  1.1558  0.4892  0.6309
  943MOL0     C24382   1.775   2.516   2.275  0.5442  0.2605  0.8489
  943MOL0     C24383   1.674   2.487   2.163  0.0663  0.6811  1.5310
  943MOL0     C24384   1.684   2.601   2.061 -0.1153  0.3795 -0.1470
  943MOL0     C24385   1.572   2.703   2.095  0.5093 -0.1753 -0.1063
  943MOL0     C24386   1.591   2.821   2.004 -0.3348 -0.2807 -0.4681
  943MOL0     C24387   1.687   2.932   2.026 -0.5477  0.0088  0.0653
  943MOL0    Cl24388   1.637   3.062   2.134 -0.2205  0.3286  0.2970
  943MOL0     C24389   1.958   2.183   2.749  0.2954 -1.2089 -0.3696
  943MOL0     C24390   2.017   2.188   2.874  0.2175  0.6754 -0.0286
  943MOL0     O24391   2.192   2.057   3.036  0.2956 -0.0492 -0.1201
  943MOL0     C24392   2.323   2.059   3.277 -0.0129 -0.4311 -0.3782
  943MOL0     C24393   2.417   2.062   3.378 -0.2572  0.2447 -0.6890
  943MOL0     N24394   3.039   2.271   3.126  0.0905 -0.8031 -1.2929
  943MOL0     N24395   3.096   2.190   3.047 -0.5129  0.0378 -0.5857
  943MOL0     C24396   3.110   1.324   2.211  0.7975 -0.2207  0.4144
  943MOL0     C24397   3.092   1.297   2.078  0.2626 -0.1032  1.2363
  943MOL0     C24398   3.044   1.217   1.658 -0.2691  0.4402 -0.3751
  943MOL0     C24399   2.917   1.212   1.600  0.2159  0.2192 -0.3837
  943MOL0     C24400   2.899   1.264   1.473  1.2836 -0.1722  0.3670
  943MOL0     C24401   3.016   1.300   1.399  1.3575 -0.4114  0.3886
  943MOL0     O24402   2.986   1.363   1.274 -1.0757  0.2270  0.4223
  943MOL0     C24403   3.084   1.366   1.173 -0.6342 -0.1201  0.1276
  943MOL0     C24404   3.094   1.233   1.095  0.6949 -0.6638  0.6067
  943MOL0     C24405   2.965   1.217   1.003 -0.1956 -0.3927 -0.5446
  943MOL0     C24406   2.960   1.091   0.924 -1.4633 -0.8400 -0.9296
  943MOL0     C24407   2.851   1.083   0.833  0.5873  0.3237 -0.2433
  943MOL0     C24408   2.761   1.073   0.753  0.3930  0.3386  0.6968
  943MOL0     C24409   3.143   1.293   1.455  0.0084  0.4653  0.6175
  943MOL0     C24410   3.159   1.258   1.587  0.9597 -0.0048  0.0556
  943MOL0     H24411   3.393   1.165   1.990  0.1791 -3.4678  1.9113
  943MOL0     H24412   3.407   1.181   2.247  0.1217 -0.8228 -1.1003
  943MOL0     H24413   3.089   1.384   2.502  0.6182 -0.6038  0.8515
  943MOL0     H24414   3.183   1.523   2.433 -0.3621  0.6239  0.8274
  943MOL0     H24415   3.366   1.453   2.592 -0.4999  1.8857 -2.5823
  943MOL0     H24416   3.239   1.361   2.673  3.5949  0.4071  0.6947
  943MOL0     H24417   3.106   1.585   2.682  0.4005  0.3268  0.5882
  943MOL0     H24418   3.236   1.668   2.604 -0.4014  0.7842 -0.2624
  943MOL0     H24419   3.277   1.530   2.871 -1.0282  0.5421  1.0670
  943MOL0     H24420   3.405   1.608   2.778  0.1682 -1.0965  0.3609
  943MOL0     H24421   3.242   1.834   2.790 -0.5638 -0.3859 -1.8517
  943MOL0     H24422   3.359   1.793   2.907  0.2901  0.8933 -0.9688
  943MOL0     H24423   3.181   1.693   3.061 -0.6664 -3.3946 -1.0866
  943MOL0     H24424   3.072   1.671   2.922 -2.2228  2.5787 -2.7071
  943MOL0     H24425   3.045   1.909   2.895  1.5709  0.8192  0.0728
  943MOL0     H24426   2.985   1.855   3.052  2.6729 -0.8827  4.9488
  943MOL0     H24427   3.259   2.000   2.990 -1.3086 -0.8211 -3.0953
  943MOL0     H24428   3.236   1.898   3.131  0.7811  0.8428 -1.0318
  943MOL0     H24429   3.076   2.006   3.328  0.0919 -1.3264 -0.4143
  943MOL0     H24430   2.951   2.387   3.358 -1.9635  0.9328  1.3383
  943MOL0     H24431   3.013   2.253   3.464 -1.9757 -2.3238 -0.0473
  943MOL0     H24432   2.831   2.127   3.446  1.1376  0.1852  2.8807
  943MOL0     H24433   2.766   2.207   3.310  0.4202 -1.4162  1.0277
  943MOL0     H24434   2.838   2.336   3.582  1.3036 -2.3632  0.0126
  943MOL0     H24435   2.738   2.414   3.462 -2.1268 -0.3889  0.6115
  943MOL0     H24436   2.572   2.340   3.602  0.6013  1.2850  1.4258
  943MOL0     H24437   2.679   2.224   3.674 -2.9073 -0.2038  0.3594
  943MOL0     H24438   2.516   2.384   3.360  2.2125 -0.9915  0.5310
  943MOL0     H24439   2.373   2.366   3.162  0.0389  2.8204  1.9215
  943MOL0     H24440   2.228   2.450   2.833 -2.6010  2.5139  1.2458
  943MOL0     H24441   2.109   2.455   2.612  2.9868  0.8096  1.3911
  943MOL0     H24442   1.987   2.401   2.406  0.6703 -2.4654  1.3846
  943MOL0     H24443   1.892   2.475   2.541  2.3700  0.3660 -0.1089
  943MOL0     H24444   1.686   2.385   2.422 -0.6071 -0.9124 -2.4612
  943MOL0     H24445   1.780   2.296   2.310 -3.4687  0.7476  0.0477
  943MOL0     H24446   1.869   2.536   2.223 -0.4937 -0.7473 -1.5841
  943MOL0     H24447   1.751   2.610   2.325  2.9272  2.0828 -1.1846
  943MOL0     H24448   1.690   2.395   2.107 -1.4489  2.6926 -2.6259
  943MOL0     H24449   1.575   2.493   2.210 -0.7505 -0.0124 -0.0488
  943MOL0     H24450   1.665   2.562   1.961  1.2251 -2.1022  0.4709
  943MOL0     H24451   1.779   2.655   2.060  0.9405 -1.3126  1.4612
  943MOL0     H24452   1.571   2.736   2.199 -1.9593  1.8713 -0.6668
  943MOL0     H24453   1.474   2.657   2.080  0.9617 -1.5066  0.8592
  943MOL0     H24454   1.602   2.790   1.900  0.4628  1.0614 -0.8031
  943MOL0     H24455   1.496   2.876   2.001  0.0585  0.4920  0.5770
  943MOL0     H24456   1.716   2.960   1.925  1.3669  3.7854  1.4512
  943MOL0     H24457   1.781   2.888   2.061 -1.0597 -0.3034  1.0944
  943MOL0     H24458   1.882   2.108   2.728 -1.3545  0.3229 -0.1223
  943MOL0     H24459   1.992   2.111   2.946  1.7581  0.4987  0.3572
  943MOL0     H24460   2.265   1.968   3.266  0.9357 -1.4439  2.0610
  943MOL0     H24461   2.428   1.973   3.439 -0.1867  1.2635  0.8296
  943MOL0     H24462   3.035   1.375   2.271  0.6379  1.0793 -0.8311
  943MOL0     H24463   2.992   1.324   2.048 -0.7122  0.4714  4.5082
  943MOL0     H24464   2.848   1.170   1.673  2.4068  1.9738  2.9280
  943MOL0     H24465   2.802   1.283   1.427  1.7674 -0.1209 -0.6596
  943MOL0     H24466   3.183   1.385   1.216 -2.0244  3.0408  2.3375
  943MOL0     H24467   3.081   1.455   1.110  0.1191  0.3690  0.7610
  943MOL0     H24468   3.184   1.240   1.032  0.5466 -3.2296  0.0178
  943MOL0     H24469   3.105   1.154   1.170  0.3799  0.3179  1.7041
  943MOL0     H24470   2.972   1.304   0.937  2.5877  0.7812  1.1132
  943MOL0     H24471   2.869   1.222   1.056  1.1744 -0.6276  2.1464
  943MOL0     H24472   3.051   1.075   0.866 -2.3071 -0.8866 -2.2736
  943MOL0     H24473   2.955   1.003   0.989 -0.3125 -0.9997 -1.0290
  943MOL0     H24474   2.681   1.065   0.682  1.9043 -0.4048 -0.9969
  943MOL0     H24475   3.236   1.300   1.398  0.9665 -1.6220  1.8049
  943MOL0     H24476   3.258   1.248   1.630  1.2371 -1.6781 -0.8390
  944MOL0     O24477   4.806   3.286   6.193  0.2440 -0.8395 -0.2848
  944MOL0     C24478   4.894   3.268   6.277 -0.5736 -0.2387  0.9963
  944MOL0     O24479   4.885   3.175   6.379  0.0273 -0.4913 -0.5578
  944MOL0     C24480   4.771   3.161   6.453 -0.6984  1.6737 -0.6186
  944MOL0     C24481   4.691   3.275   6.497  0.7046 -0.8365  0.7368
  944MOL0     C24482   4.579   3.250   6.571 -0.3368  0.4587 -0.2818
  944MOL0     C24483   4.555   3.118   6.612  0.4569  0.0536  0.2250
  944MOL0     O24484   4.438   3.084   6.678  0.1991  0.2319 -0.5997
  944MOL0     C24485   4.325   3.170   6.651 -0.1120 -0.1896 -0.8981
  944MOL0     C24486   4.188   3.102   6.684  0.0849 -0.0096  0.6236
  944MOL0     C24487   4.168   2.974   6.593  0.4101  0.0669  0.0434
  944MOL0     C24488   4.022   2.941   6.601 -0.4806 -0.5334 -0.0131
  944MOL0     C24489   3.987   2.823   6.508  0.0237  0.7308 -0.2753
  944MOL0     C24490   4.028   2.827   6.357  0.0931 -1.3438 -0.5081
  944MOL0     C24491   4.013   2.689   6.281 -0.0100  0.0789  0.2701
  944MOL0     C24492   3.869   2.661   6.220 -0.6858 -1.1183 -0.7312
  944MOL0     N24493   3.841   2.521   6.183 -0.6715  0.0720 -0.0279
  944MOL0     C24494   3.725   2.457   6.189 -0.5085  0.4285 -0.0768
  944MOL0     C24495   3.739   2.337   6.132 -0.2019  1.0996  1.1406
  944MOL0     C24496   3.635   2.228   6.112  0.3063 -0.0389  0.4460
  944MOL0     C24497   3.532   2.261   5.998  0.2297  1.0443  0.0534
  944MOL0     C24498   3.418   2.350   6.048 -0.0210  0.1087 -0.6967
  944MOL0     C24499   3.342   2.400   5.930  0.4992  0.7141  0.5027
  944MOL0     O24500   3.288   2.295   5.845  0.2229  0.3125 -0.1530
  944MOL0     C24501   3.246   2.327   5.714 -0.0344  0.3694  0.5964
  944MOL0     C24502   3.213   2.221   5.637  0.4849  0.1923  1.1111
  944MOL0     C24503   3.178   2.239   5.507 -0.2832 -0.5336  0.3781
  944MOL0     C24504   3.195   2.365   5.449  0.5467 -1.0524  0.6197
  944MOL0     C24505   3.185   2.382   5.302 -0.2871 -0.2604  0.2611
  944MOL0     O24506   3.234   2.501   5.259  0.8376 -0.5077  0.4244
  944MOL0     C24507   3.251   2.505   5.120 -0.4421  0.0970  0.0787
  944MOL0     C24508   3.175   2.591   5.045 -0.0281 -0.0541 -0.8569
  944MOL0     C24509   3.184   2.603   4.911 -1.0364  0.8280  0.0102
  944MOL0     C24510   3.282   2.529   4.843  0.8967  0.8015  0.4919
  944MOL0     O24511   3.286   2.535   4.704  0.2567  0.0579  0.1573
  944MOL0     C24512   3.337   2.419   4.630  0.0089 -0.7352 -0.4239
  944MOL0     C24513   3.210   2.351   4.578  0.0529  0.2620  0.4651
  944MOL0     C24514   3.173   2.407   4.444  0.4491  0.5448  0.4391
  944MOL0     C24515   3.068   2.315   4.375  0.0383 -1.0396  0.2359
  944MOL0     C24516   3.007   2.378   4.245  0.0090  0.7769 -1.3973
  944MOL0     C24517   2.915   2.286   4.170  0.2147 -0.3237 -0.0059
  944MOL0     C24518   2.889   2.314   4.024 -0.6064 -0.0738  0.1694
  944MOL0     C24519   2.749   2.271   3.978 -0.7210  0.5753  0.7767
  944MOL0    Cl24520   2.623   2.378   4.048 -0.4392  0.0973  0.3098
  944MOL0     C24521   3.366   2.444   4.923 -0.8203  0.5733  0.0288
  944MOL0     C24522   3.351   2.439   5.059  0.7303  0.1491  0.3455
  944MOL0     O24523   3.146   2.286   5.227 -0.7362 -0.2061 -0.0362
  944MOL0     C24524   3.215   2.475   5.526 -1.2862  0.4890 -0.6272
  944MOL0     C24525   3.238   2.457   5.668  0.4127 -0.9342  0.9549
  944MOL0     N24526   3.873   2.331   6.087  0.9558 -0.9103 -0.4810
  944MOL0     N24527   3.931   2.437   6.123  0.0203  0.3152  0.0471
  944MOL0     C24528   4.639   3.015   6.578 -0.4722  0.6304 -0.6590
  944MOL0     C24529   4.744   3.031   6.492  0.0453  0.0467  0.1962
  944MOL0     C24530   5.011   3.343   6.271 -0.4061 -0.5245  0.7580
  944MOL0     C24531   5.130   3.287   6.323 -0.1988 -0.1676 -0.2005
  944MOL0     C24532   5.251   3.346   6.302  0.1893 -0.4116  0.0361
  944MOL0     C24533   5.259   3.481   6.261  0.2226 -0.3688  0.3087
  944MOL0     O24534   5.367   3.558   6.250 -0.2758 -0.4344  0.7558
  944MOL0     C24535   5.484   3.489   6.205 -0.7196 -0.4333 -0.0847
  944MOL0     C24536   5.482   3.472   6.055 -0.2619  0.0791 -0.5304
  944MOL0     C24537   5.520   3.590   5.967 -0.4419 -0.0656 -0.8455
  944MOL0     C24538   5.505   3.547   5.822 -0.3002 -0.1360  0.5217
  944MOL0     C24539   5.528   3.657   5.727 -0.4217 -0.3755  0.5410
  944MOL0     C24540   5.538   3.751   5.652  0.2157  0.1411  0.0689
  944MOL0     C24541   5.137   3.541   6.221  0.2498  0.1995 -0.3067
  944MOL0     C24542   5.020   3.467   6.217  1.4889  0.2431 -0.4499
  944MOL0     H24543   4.723   3.376   6.474 -0.9922 -0.9375 -2.6011
  944MOL0     H24544   4.521   3.333   6.611 -0.5124  0.0680  0.2812
  944MOL0     H24545   4.327   3.200   6.545 -1.6826 -1.6037 -1.3647
  944MOL0     H24546   4.319   3.250   6.725 -3.2320  0.4446 -1.6950
  944MOL0     H24547   4.104   3.171   6.674  0.8659  0.8331 -0.3496
  944MOL0     H24548   4.192   3.076   6.791 -2.1326 -1.0255  0.5099
  944MOL0     H24549   4.235   2.896   6.632  1.1295  1.4468  1.7445
  944MOL0     H24550   4.195   3.002   6.491 -2.5295  1.0534 -0.5433
  944MOL0     H24551   3.986   2.895   6.694 -1.6435 -0.3667 -0.3711
  944MOL0     H24552   3.959   3.025   6.572  0.9552  0.9089  0.8873
  944MOL0     H24553   3.880   2.801   6.508  0.1781 -0.5791 -3.0257
  944MOL0     H24554   4.039   2.739   6.556 -0.5595 -0.4805 -1.6647
  944MOL0     H24555   4.132   2.861   6.351  1.3330 -4.5406  0.8587
  944MOL0     H24556   3.967   2.903   6.306  2.1004 -0.2732 -1.4176
  944MOL0     H24557   4.075   2.682   6.191 -1.5105 -0.9390 -0.7329
  944MOL0     H24558   4.049   2.610   6.348 -0.4514 -1.8723 -1.6835
  944MOL0     H24559   3.846   2.739   6.147 -1.5158 -1.1541 -0.5164
  944MOL0     H24560   3.800   2.675   6.304 -1.6619 -2.0744 -1.3474
  944MOL0     H24561   3.635   2.496   6.235 -1.1069 -0.2693 -0.6449
  944MOL0     H24562   3.581   2.206   6.205  1.8089 -2.1025  0.8984
  944MOL0     H24563   3.691   2.138   6.086 -0.6988 -0.8042  0.8295
  944MOL0     H24564   3.496   2.167   5.956 -0.6742  0.0097  2.9409
  944MOL0     H24565   3.586   2.304   5.912  0.0488 -2.0527 -1.7551
  944MOL0     H24566   3.361   2.275   6.104  0.8851 -1.2830 -1.5894
  944MOL0     H24567   3.441   2.429   6.121  0.8207 -1.3660  0.6779
  944MOL0     H24568   3.417   2.458   5.875 -1.7126  2.2905 -1.0136
  944MOL0     H24569   3.269   2.470   5.971 -1.5280 -1.1677  0.2635
  944MOL0     H24570   3.214   2.119   5.674 -2.2942 -0.6731 -0.8511
  944MOL0     H24571   3.171   2.157   5.435 -0.0711  1.4999 -2.1272
  944MOL0     H24572   3.102   2.657   5.091 -0.4415  0.6172 -2.4302
  944MOL0     H24573   3.118   2.664   4.850 -2.3980 -3.7658 -3.7675
  944MOL0     H24574   3.402   2.353   4.688  2.7224  0.4338 -1.9239
  944MOL0     H24575   3.410   2.453   4.556  0.5410 -1.1791 -0.1135
  944MOL0     H24576   3.124   2.351   4.647 -0.6674  0.6744 -0.4180
  944MOL0     H24577   3.242   2.247   4.568 -2.4424 -0.5806  0.5006
  944MOL0     H24578   3.264   2.401   4.384  1.7727  1.1232  2.2905
  944MOL0     H24579   3.138   2.511   4.441 -3.3838 -0.5952 -0.2591
  944MOL0     H24580   3.109   2.216   4.357  1.3745 -0.7082  1.2884
  944MOL0     H24581   2.987   2.307   4.449 -1.0852  1.5413 -0.5950
  944MOL0     H24582   3.086   2.406   4.174 -0.5549  2.0019 -1.5657
  944MOL0     H24583   2.964   2.476   4.268  1.6790  0.5280  4.2549
  944MOL0     H24584   2.814   2.289   4.213  0.2515  1.6819 -0.0110
  944MOL0     H24585   2.947   2.181   4.165 -2.1383 -1.0504 -3.5736
  944MOL0     H24586   2.903   2.419   3.998 -0.4823 -0.5399 -1.7964
  944MOL0     H24587   2.969   2.266   3.968  0.6042 -1.9234  3.2201
  944MOL0     H24588   2.733   2.166   4.001  1.9341 -0.8476 -2.9342
  944MOL0     H24589   2.750   2.269   3.869  0.3694  1.6920  0.7410
  944MOL0     H24590   3.455   2.388   4.895  1.3200  3.7820 -0.0283
  944MOL0     H24591   3.409   2.370   5.119  2.3394 -0.3707 -1.6897
  944MOL0     H24592   3.206   2.572   5.478 -0.2989  1.7383  1.5661
  944MOL0     H24593   3.258   2.537   5.738 -0.0584  1.9699 -2.0052
  944MOL0     H24594   4.600   2.923   6.621  0.2427  0.9411  0.7110
  944MOL0     H24595   4.800   2.946   6.455  0.5179  0.6924 -0.6185
  944MOL0     H24596   5.124   3.206   6.395 -0.2193  2.1084  2.5488
  944MOL0     H24597   5.340   3.294   6.335 -0.2599 -0.6833  0.8466
  944MOL0     H24598   5.501   3.404   6.272  0.6503 -0.6712 -0.6934
  944MOL0     H24599   5.570   3.555   6.223  1.5771 -3.0992 -0.5272
  944MOL0     H24600   5.545   3.385   6.036 -1.0726 -1.1244  1.8745
  944MOL0     H24601   5.382   3.446   6.020  0.5814 -1.5715 -1.8060
  944MOL0     H24602   5.623   3.615   5.995 -1.6909  2.2161  2.4880
  944MOL0     H24603   5.462   3.679   5.995  0.5370  0.6374 -0.9831
  944MOL0     H24604   5.582   3.479   5.785 -0.5212 -0.1387  0.0543
  944MOL0     H24605   5.412   3.501   5.789  1.3275 -1.2417 -3.1339
  944MOL0     H24606   5.547   3.832   5.581 -1.6997 -1.2641 -1.9144
  944MOL0     H24607   5.129   3.634   6.166 -2.9017  0.8451  1.0503
  944MOL0     H24608   4.938   3.533   6.188  1.4120  1.2967  1.9104
  945MOL0     O24609   6.861   3.294   4.565 -0.3450 -0.2528  0.2332
  945MOL0     C24610   6.873   3.309   4.447 -1.1610 -0.0686 -0.2825
  945MOL0     O24611   6.769   3.307   4.357 -0.6637 -0.2060 -0.7301
  945MOL0     C24612   6.634   3.293   4.395  0.7896 -0.3479  0.7534
  945MOL0     C24613   6.585   3.219   4.505  0.1397 -0.4961  0.2111
  945MOL0     C24614   6.457   3.198   4.535  0.4339  0.4314  0.3532
  945MOL0     C24615   6.358   3.238   4.433 -0.6983 -0.4828 -0.3292
  945MOL0     O24616   6.224   3.218   4.444 -0.0395  0.7581 -0.3849
  945MOL0     C24617   6.176   3.080   4.421 -0.1496  0.7722  0.3894
  945MOL0     C24618   6.021   3.071   4.411  0.0176  0.2551  0.0396
  945MOL0     C24619   5.944   3.144   4.517 -0.3293 -1.1349  0.2656
  945MOL0     C24620   5.823   3.057   4.576 -0.1325 -0.5932  0.2888
  945MOL0     C24621   5.730   3.134   4.679 -0.0401  1.3560  0.2666
  945MOL0     C24622   5.646   3.043   4.758 -0.6149  0.5845 -0.3774
  945MOL0     C24623   5.544   3.125   4.844  0.5151 -0.1480  1.2785
  945MOL0     C24624   5.602   3.208   4.953  0.5426  0.9098 -0.8447
  945MOL0     N24625   5.508   3.322   4.977 -0.4853 -0.5762  1.3935
  945MOL0     C24626   5.412   3.334   5.069 -0.5786  0.2681  0.8786
  945MOL0     C24627   5.381   3.466   5.083 -0.4406  0.5605  0.5605
  945MOL0     C24628   5.279   3.513   5.182 -1.0362  0.2454  0.7690
  945MOL0     C24629   5.139   3.499   5.115  0.1510 -0.7026  0.7632
  945MOL0     C24630   5.039   3.608   5.165 -0.4399 -0.0827 -0.9241
  945MOL0     C24631   5.009   3.604   5.314 -0.3594 -0.2826 -0.4707
  945MOL0     O24632   4.910   3.514   5.358  0.5056  0.5186  0.3334
  945MOL0     C24633   4.780   3.547   5.342  0.0955  0.9411 -0.5619
  945MOL0     C24634   4.730   3.665   5.288  0.4107 -0.1576 -0.6868
  945MOL0     C24635   4.598   3.673   5.259  0.7584 -0.2099 -0.9570
  945MOL0     C24636   4.501   3.580   5.311 -0.1710 -0.0996 -0.1130
  945MOL0     C24637   4.362   3.607   5.291 -0.2416 -0.1171  0.2444
  945MOL0     O24638   4.279   3.519   5.358  0.4139  0.2414  0.0167
  945MOL0     C24639   4.138   3.534   5.353 -0.6591 -0.0816 -0.4388
  945MOL0     C24640   4.067   3.649   5.313 -0.2616 -0.4503  0.1489
  945MOL0     C24641   3.931   3.662   5.329 -0.0146  0.2322 -0.8747
  945MOL0     C24642   3.856   3.554   5.383 -0.4215 -0.2240 -0.9299
  945MOL0     O24643   3.719   3.555   5.408 -0.2132 -0.1416 -0.5577
  945MOL0     C24644   3.666   3.686   5.436  0.8368 -0.1791  0.1654
  945MOL0     C24645   3.516   3.662   5.471  0.5671 -0.3618 -0.2792
  945MOL0     C24646   3.477   3.569   5.585  0.3641 -0.2921 -0.1648
  945MOL0     C24647   3.504   3.640   5.718 -0.4521 -0.6463  0.2236
  945MOL0     C24648   3.425   3.560   5.825 -0.4032  0.0300 -0.5035
  945MOL0     C24649   3.436   3.621   5.969  0.6669  0.6081 -0.2999
  945MOL0     C24650   3.357   3.538   6.060  0.7732  0.0670  1.4589
  945MOL0     C24651   3.367   3.584   6.211 -0.1551  0.6086 -0.3657
  945MOL0    Cl24652   3.536   3.572   6.272 -0.2256  0.0399 -0.2363
  945MOL0     C24653   3.925   3.438   5.417 -0.3634  0.4015 -0.8300
  945MOL0     C24654   4.062   3.425   5.398  0.1340  0.4598 -0.9851
  945MOL0     O24655   4.332   3.691   5.198 -0.9025  0.0573 -0.6221
  945MOL0     C24656   4.547   3.474   5.390  0.4824 -0.0127  1.2587
  945MOL0     C24657   4.687   3.451   5.390 -0.7204 -0.7584 -0.9061
  945MOL0     N24658   5.446   3.537   4.986 -0.6663 -0.5388  0.3922
  945MOL0     N24659   5.514   3.447   4.922  0.4583 -0.7269 -0.1900
  945MOL0     C24660   6.403   3.307   4.321  0.1078  0.5669  0.0681
  945MOL0     C24661   6.539   3.336   4.299 -0.2092 -0.6029  0.6822
  945MOL0     C24662   7.000   3.347   4.386  0.4716  0.5139 -0.0314
  945MOL0     C24663   7.020   3.353   4.248  0.0645  1.0134  0.2089
  945MOL0     C24664   7.132   3.392   4.186  0.4156  1.0001  0.3235
  945MOL0     C24665   7.244   3.400   4.263  0.2819 -0.2027 -0.2592
  945MOL0     O24666   7.364   3.414   4.201 -0.4038 -0.3768  0.0445
  945MOL0     C24667   7.475   3.428   4.280  0.6243  0.4848 -1.4246
  945MOL0     C24668   7.592   3.428   4.185 -0.7632  0.9619 -0.0334
  945MOL0     C24669   7.595   3.564   4.116  0.4142  0.1806 -0.2874
  945MOL0     C24670   7.685   3.573   3.996  0.1077  0.2886  1.4255
  945MOL0     C24671   7.621   3.656   3.894  0.4392 -0.0665  0.1184
  945MOL0     C24672   7.568   3.719   3.807  0.1034  0.2067  0.0507
  945MOL0     C24673   7.234   3.396   4.409  0.5097  0.1136 -0.1288
  945MOL0     C24674   7.111   3.379   4.467  1.0689  0.8199  0.8416
  945MOL0     H24675   6.649   3.159   4.568 -0.4894 -0.3640  0.9823
  945MOL0     H24676   6.421   3.134   4.615 -3.7528 -0.8684 -2.2734
  945MOL0     H24677   6.217   3.026   4.506  2.2299  2.0406  0.1361
  945MOL0     H24678   6.230   3.039   4.334  0.1388  1.1227  0.4008
  945MOL0     H24679   6.002   2.963   4.414  1.6946 -0.2098 -2.4658
  945MOL0     H24680   5.989   3.105   4.312 -2.0330  0.9811  0.9187
  945MOL0     H24681   5.911   3.236   4.467 -3.9957 -2.8108 -0.7942
  945MOL0     H24682   6.013   3.165   4.598 -1.0008  2.2823  0.1222
  945MOL0     H24683   5.767   3.024   4.488  1.6361 -1.2302 -0.6479
  945MOL0     H24684   5.876   2.975   4.624  3.4981  1.9495  1.0419
  945MOL0     H24685   5.669   3.207   4.625 -0.4743  3.4928  3.3972
  945MOL0     H24686   5.794   3.187   4.750 -0.6243  0.2979  1.6318
  945MOL0     H24687   5.712   2.974   4.810 -1.5473  0.3233  0.5027
  945MOL0     H24688   5.594   2.978   4.687 -0.1342 -1.8883  1.4191
  945MOL0     H24689   5.492   3.195   4.779  1.5831 -0.5529 -0.0648
  945MOL0     H24690   5.474   3.048   4.880  0.0930 -0.0250  0.7308
  945MOL0     H24691   5.704   3.242   4.934  1.1569 -0.7812 -0.7601
  945MOL0     H24692   5.615   3.156   5.048  0.6505  0.8628 -0.8840
  945MOL0     H24693   5.378   3.253   5.132 -0.6992 -2.4522 -2.3678
  945MOL0     H24694   5.299   3.618   5.208 -0.4128  0.5360 -0.7533
  945MOL0     H24695   5.280   3.444   5.266  0.9693 -0.8827 -0.1147
  945MOL0     H24696   5.097   3.400   5.137 -0.0418 -1.9683 -4.0862
  945MOL0     H24697   5.138   3.507   5.006  0.0541 -0.0618  0.8060
  945MOL0     H24698   5.078   3.708   5.142  1.3535 -0.2585  1.0565
  945MOL0     H24699   4.941   3.586   5.121 -2.2069  0.2905  2.4143
  945MOL0     H24700   4.969   3.701   5.343 -1.1664 -0.9308  0.7097
  945MOL0     H24701   5.102   3.583   5.367  0.0467 -0.6247 -1.3029
  945MOL0     H24702   4.786   3.755   5.263 -0.0594  0.1612 -0.6070
  945MOL0     H24703   4.557   3.749   5.193 -2.2480 -1.7024 -1.0278
  945MOL0     H24704   4.117   3.735   5.272 -1.6416  1.2164  1.7931
  945MOL0     H24705   3.882   3.754   5.299  0.0858  0.0005 -1.7730
  945MOL0     H24706   3.683   3.753   5.351  1.2555  0.8030  0.9996
  945MOL0     H24707   3.723   3.727   5.520  1.7059  1.3483 -1.0927
  945MOL0     H24708   3.478   3.629   5.374  0.3131  1.4477 -0.8264
  945MOL0     H24709   3.473   3.761   5.488  0.8863 -0.3799  0.7186
  945MOL0     H24710   3.529   3.474   5.575 -1.4246 -1.6443  2.3053
  945MOL0     H24711   3.370   3.546   5.578  0.3977 -0.2771 -0.7710
  945MOL0     H24712   3.611   3.636   5.739  0.0716  1.4355 -1.6486
  945MOL0     H24713   3.471   3.745   5.712  2.1655  0.2194 -0.2294
  945MOL0     H24714   3.477   3.464   5.814  0.0230  0.4980 -2.9845
  945MOL0     H24715   3.323   3.538   5.794  0.6230 -2.6602 -2.3754
  945MOL0     H24716   3.400   3.724   5.963  0.2988  0.3832 -2.9498
  945MOL0     H24717   3.540   3.640   5.999  0.2968 -0.7357  2.1423
  945MOL0     H24718   3.254   3.536   6.022  2.0706 -1.8928 -2.4374
  945MOL0     H24719   3.386   3.433   6.046  1.5045  0.6661 -2.5142
  945MOL0     H24720   3.296   3.516   6.260  0.0908 -1.5451 -2.8069
  945MOL0     H24721   3.327   3.684   6.232 -1.1056 -0.1883  2.0945
  945MOL0     H24722   3.864   3.361   5.464  1.9022 -0.6895  0.4768
  945MOL0     H24723   4.101   3.325   5.417 -0.4277  0.5665  0.9107
  945MOL0     H24724   4.475   3.417   5.448 -0.5614  2.2954  2.3361
  945MOL0     H24725   4.735   3.368   5.441 -1.5437 -1.0121 -0.5353
  945MOL0     H24726   6.337   3.344   4.244 -1.1888  0.7288  1.2257
  945MOL0     H24727   6.570   3.379   4.205  2.8174  0.1016  1.8799
  945MOL0     H24728   6.932   3.326   4.191  0.6930  1.2093 -0.8817
  945MOL0     H24729   7.130   3.411   4.080  3.3880  0.9062  0.1776
  945MOL0     H24730   7.493   3.350   4.355 -4.6691  0.6604  0.4160
  945MOL0     H24731   7.469   3.516   4.344 -0.6427 -0.2817 -0.4490
  945MOL0     H24732   7.682   3.406   4.243 -1.7065  0.0809  1.1697
  945MOL0     H24733   7.582   3.351   4.108 -0.0986  1.0079 -0.1708
  945MOL0     H24734   7.618   3.643   4.187 -1.1970  1.6090 -1.2629
  945MOL0     H24735   7.491   3.578   4.085 -1.2611 -1.2967  3.9532
  945MOL0     H24736   7.784   3.615   4.017  1.1004 -1.1916 -0.0507
  945MOL0     H24737   7.705   3.474   3.956  1.9538  1.2610 -0.2146
  945MOL0     H24738   7.504   3.775   3.741  0.8720 -1.7204 -2.5157
  945MOL0     H24739   7.315   3.399   4.482 -0.8058  1.2612  1.3516
  945MOL0     H24740   7.113   3.400   4.574  0.5169  1.8016  0.6701
  946MOL0     O24741   2.696   6.776   9.299  0.3346 -0.1150  0.1925
  946MOL0     C24742   2.687   6.815   9.187 -0.8379 -0.0800  0.3021
  946MOL0     O24743   2.788   6.880   9.113  0.0285  0.5720 -0.3923
  946MOL0     C24744   2.911   6.902   9.169  0.8106 -0.0058  0.4888
  946MOL0     C24745   2.926   6.965   9.292  1.0522  1.6154 -1.1820
  946MOL0     C24746   3.058   6.984   9.343 -0.7112 -0.3283 -0.4268
  946MOL0     C24747   3.174   6.948   9.270 -1.6934 -0.1123 -0.0521
  946MOL0     O24748   3.298   6.973   9.326  0.4393 -0.4150  0.8974
  946MOL0     C24749   3.320   7.108   9.325  0.7692  0.1873  0.2123
  946MOL0     C24750   3.461   7.139   9.355  0.3300 -0.8899 -0.2406
  946MOL0     C24751   3.514   7.100   9.492 -0.7824 -0.0430  0.3952
  946MOL0     C24752   3.663   7.104   9.493  0.2559 -0.4616 -0.8206
  946MOL0     C24753   3.726   7.098   9.632  0.1041  0.4950 -0.5787
  946MOL0     C24754   3.877   7.114   9.632  0.0841  0.1705 -0.4190
  946MOL0     C24755   3.966   7.004   9.567 -0.0566 -0.0427 -0.8863
  946MOL0     C24756   4.011   7.045   9.427 -0.6823 -0.3792  0.5142
  946MOL0     N24757   4.107   6.954   9.371 -0.1627  0.3067 -0.0958
  946MOL0     C24758   4.209   6.876   9.426 -0.6332 -0.1106  0.6300
  946MOL0     C24759   4.244   6.789   9.325  0.6648 -0.0797  0.4509
  946MOL0     C24760   4.355   6.687   9.337 -0.0420  0.3698 -0.3531
  946MOL0     C24761   4.488   6.746   9.296 -0.3223 -0.3431 -1.2521
  946MOL0     C24762   4.607   6.672   9.351 -0.6899 -0.2844  0.3112
  946MOL0     C24763   4.645   6.698   9.494 -0.0669  0.1325  0.7249
  946MOL0     O24764   4.686   6.835   9.518 -0.0212  0.4022 -0.7646
  946MOL0     C24765   4.803   6.843   9.591  0.7169  0.2946  0.6541
  946MOL0     C24766   4.835   6.750   9.698 -0.1090 -0.0605  0.0386
  946MOL0     C24767   4.955   6.767   9.776  0.2256  0.4054  0.4031
  946MOL0     C24768   5.048   6.866   9.741  0.9344 -0.8671  0.0442
  946MOL0     C24769   5.176   6.885   9.809 -1.0222  0.6638  0.3114
  946MOL0     O24770   5.219   6.793   9.910 -0.2787 -0.5494  0.2194
  946MOL0     C24771   5.356   6.791   9.925  0.4464  0.2553 -0.3653
  946MOL0     C24772   5.396   6.809  10.058  0.4069  0.4542  0.2112
  946MOL0     C24773   5.528   6.809  10.093 -0.4731 -0.0375  0.5715
  946MOL0     C24774   5.623   6.772   9.994  0.1844 -0.3326 -0.2409
  946MOL0     O24775   5.750   6.749  10.041 -0.5398  0.0314  0.2242
  946MOL0     C24776   5.814   6.635   9.976 -0.4111 -0.6052 -0.2975
  946MOL0     C24777   5.937   6.669   9.891 -0.0022  0.3570  0.0855
  946MOL0     C24778   6.027   6.545   9.869 -0.3616 -0.8125  0.3426
  946MOL0     C24779   6.151   6.568   9.787  0.0430  0.1989  0.1940
  946MOL0     C24780   6.138   6.646   9.651  0.6929 -0.2505  0.1358
  946MOL0     C24781   6.046   6.565   9.553 -0.0686  0.1935 -0.5441
  946MOL0     C24782   6.075   6.414   9.531  0.1476  0.8956 -0.3619
  946MOL0     C24783   5.988   6.352   9.423  0.2381  0.2296 -0.2795
  946MOL0    Cl24784   5.828   6.319   9.499  0.0251  0.4562  0.3985
  946MOL0     C24785   5.580   6.753   9.861  0.2652 -0.1067  0.3114
  946MOL0     C24786   5.446   6.771   9.820 -0.3566  0.1807 -0.4099
  946MOL0     O24787   5.228   6.988   9.777 -0.1854  0.6231  0.0221
  946MOL0     C24788   5.009   6.956   9.640  0.8005 -0.2480 -0.3390
  946MOL0     C24789   4.890   6.941   9.568 -0.2083  0.2478 -0.0965
  946MOL0     N24790   4.169   6.809   9.213  0.9167 -0.1104  0.8903
  946MOL0     N24791   4.081   6.893   9.249  0.0683  0.3361 -0.9941
  946MOL0     C24792   3.162   6.866   9.160  0.8398 -0.1814 -0.8450
  946MOL0     C24793   3.022   6.853   9.106 -0.5892  0.5370 -0.2051
  946MOL0     C24794   2.581   6.754   9.099  0.1393  1.1042  0.2129
  946MOL0     C24795   2.484   6.669   9.161 -0.1561 -0.5584  0.0591
  946MOL0     C24796   2.371   6.632   9.093 -0.3176 -0.4285 -0.9675
  946MOL0     C24797   2.354   6.677   8.963 -0.0740 -0.1915  0.0583
  946MOL0     O24798   2.244   6.632   8.883  0.6272  0.0740  1.0454
  946MOL0     C24799   2.129   6.565   8.946 -0.8057  0.2399 -0.6133
  946MOL0     C24800   2.036   6.517   8.832 -0.4456  0.2411 -0.2693
  946MOL0     C24801   1.898   6.455   8.886 -0.5732 -0.2215  0.2488
  946MOL0     C24802   1.797   6.405   8.774  0.8822 -0.5746  0.7858
  946MOL0     C24803   1.844   6.306   8.684  1.1418  0.0077 -0.3968
  946MOL0     C24804   1.883   6.228   8.603 -0.5187 -0.2740  0.6664
  946MOL0     C24805   2.451   6.754   8.894 -0.9217  0.2816 -0.9113
  946MOL0     C24806   2.568   6.796   8.963  1.0657 -0.0078 -0.9042
  946MOL0     H24807   2.834   7.004   9.334  0.1972  0.6032 -2.0723
  946MOL0     H24808   3.078   7.036   9.437  1.3743 -0.7482 -0.5983
  946MOL0     H24809   3.259   7.154   9.403 -2.0897  1.7956 -2.7246
  946MOL0     H24810   3.297   7.162   9.233  1.1258  3.4916  1.9455
  946MOL0     H24811   3.464   7.248   9.347 -1.8465 -0.8790 -1.6735
  946MOL0     H24812   3.529   7.090   9.285  2.4539 -1.0343  1.7852
  946MOL0     H24813   3.499   6.995   9.518  1.4941 -0.5716 -0.2515
  946MOL0     H24814   3.462   7.149   9.576 -1.0377  0.6377 -0.1504
  946MOL0     H24815   3.701   7.021   9.433  0.1677 -1.8653  0.9679
  946MOL0     H24816   3.710   7.196   9.457  2.0503  0.1980  2.7094
  946MOL0     H24817   3.698   7.015   9.697 -1.1942  1.5629  0.2812
  946MOL0     H24818   3.682   7.184   9.683 -0.3414  0.8350 -1.5222
  946MOL0     H24819   3.913   7.136   9.733  0.0335  0.8951 -0.5542
  946MOL0     H24820   3.896   7.213   9.589  1.8626  0.2044  0.3537
  946MOL0     H24821   4.055   6.966   9.618 -0.2335 -0.0321 -0.5612
  946MOL0     H24822   3.896   6.922   9.546  0.0600  0.1214 -1.9639
  946MOL0     H24823   4.045   7.149   9.430 -0.4971 -0.4230  0.0318
  946MOL0     H24824   3.932   7.048   9.352 -1.8205 -0.0919  1.6909
  946MOL0     H24825   4.256   6.886   9.524  0.1227  2.2531  0.0836
  946MOL0     H24826   4.327   6.611   9.263  3.0451 -2.1675  0.8537
  946MOL0     H24827   4.366   6.642   9.436  1.3776 -1.3548 -1.2460
  946MOL0     H24828   4.493   6.849   9.333  0.3650 -1.4723  2.1666
  946MOL0     H24829   4.502   6.760   9.189  2.5925  2.4618 -0.6672
  946MOL0     H24830   4.602   6.565   9.331 -1.2304 -0.4403  1.2559
  946MOL0     H24831   4.695   6.717   9.304 -0.8127  1.6079  1.7677
  946MOL0     H24832   4.719   6.620   9.516 -2.0038 -2.1676 -0.4823
  946MOL0     H24833   4.567   6.679   9.568 -1.4826 -0.4053 -0.8552
  946MOL0     H24834   4.755   6.682   9.726 -2.0137  2.4618  1.0844
  946MOL0     H24835   4.986   6.695   9.851 -0.1744 -0.8084 -0.5614
  946MOL0     H24836   5.314   6.813  10.130 -1.6708 -0.3637 -1.9684
  946MOL0     H24837   5.557   6.796  10.197 -0.1791  0.8049  0.5990
  946MOL0     H24838   5.743   6.563   9.934 -0.3733  0.0082 -1.4489
  946MOL0     H24839   5.845   6.582  10.066 -1.8234  0.6039  0.9508
  946MOL0     H24840   5.993   6.755   9.929 -0.3103  1.7935 -2.4937
  946MOL0     H24841   5.899   6.706   9.795 -2.2686 -0.1309  0.7349
  946MOL0     H24842   5.964   6.464   9.831 -1.9948 -0.0410  1.3566
  946MOL0     H24843   6.069   6.510   9.963  3.7633 -0.4578 -1.1522
  946MOL0     H24844   6.215   6.626   9.855  0.9209 -2.0577  1.4031
  946MOL0     H24845   6.194   6.472   9.760 -0.8269  0.8602 -4.3149
  946MOL0     H24846   6.230   6.662   9.595  0.3693 -0.9291 -0.6100
  946MOL0     H24847   6.086   6.740   9.673 -1.8071 -1.1944 -1.2505
  946MOL0     H24848   6.049   6.617   9.457 -0.6512  2.7472  0.7298
  946MOL0     H24849   5.949   6.579   9.601 -0.4172  0.5102 -1.3353
  946MOL0     H24850   6.175   6.419   9.488 -0.0406  3.8269 -0.6754
  946MOL0     H24851   6.070   6.356   9.624  0.5983  1.2772 -0.0959
  946MOL0     H24852   6.032   6.255   9.396 -0.4075  0.2178 -1.3921
  946MOL0     H24853   5.984   6.411   9.331  2.4759  0.5985 -0.1918
  946MOL0     H24854   5.647   6.733   9.778 -2.4031  0.9646 -2.2778
  946MOL0     H24855   5.412   6.755   9.718  1.5155 -4.2779 -0.5437
  946MOL0     H24856   5.075   7.035   9.604  1.5500 -0.8665 -0.3442
  946MOL0     H24857   4.875   7.006   9.482 -2.0903 -3.1140 -2.5475
  946MOL0     H24858   3.253   6.826   9.116  0.3687 -3.5106  0.8581
  946MOL0     H24859   2.997   6.796   9.017  0.5006  2.4292 -1.8171
  946MOL0     H24860   2.497   6.631   9.262  1.3829  2.5746  1.1920
  946MOL0     H24861   2.296   6.580   9.153  0.7817 -2.1291 -1.0111
  946MOL0     H24862   2.076   6.635   9.011 -1.2820  2.0167 -2.7769
  946MOL0     H24863   2.159   6.479   9.006 -1.5500 -0.0788 -0.6860
  946MOL0     H24864   2.013   6.605   8.770 -4.7772 -0.0192  0.6315
  946MOL0     H24865   2.079   6.443   8.764 -1.7406  1.1738 -2.2064
  946MOL0     H24866   1.836   6.526   8.942 -1.4097 -0.4096 -0.4331
  946MOL0     H24867   1.925   6.370   8.948  0.5288  0.6290  0.9893
  946MOL0     H24868   1.701   6.373   8.815 -0.4653  0.5162 -1.3375
  946MOL0     H24869   1.766   6.494   8.717  1.5377  1.1026  2.9328
  946MOL0     H24870   1.918   6.157   8.530 -4.1657 -2.9864  1.3040
  946MOL0     H24871   2.433   6.782   8.790 -1.0403 -0.0522 -0.9794
  946MOL0     H24872   2.649   6.843   8.908  2.8477 -0.4198  1.2110
  947MOL0     O24873   3.825   1.405   5.659  0.2545  0.1839 -0.1983
  947MOL0     C24874   3.803   1.498   5.737 -0.3650 -0.8197 -0.1873
  947MOL0     O24875   3.850   1.623   5.735  0.0676 -0.2633 -0.5848
  947MOL0     C24876   3.971   1.648   5.686  0.1167 -0.5845 -0.1401
  947MOL0     C24877   3.993   1.791   5.667 -0.5107  0.3080  0.5964
  947MOL0     C24878   4.126   1.830   5.639 -0.7007 -0.6481 -0.1018
  947MOL0     C24879   4.228   1.732   5.636  0.0845 -0.0787  0.0197
  947MOL0     O24880   4.358   1.771   5.615  0.4083  0.1458 -1.1022
  947MOL0     C24881   4.381   1.906   5.576  0.5358  0.0088 -0.7987
  947MOL0     C24882   4.515   1.908   5.510  0.0345  0.3330 -0.1361
  947MOL0     C24883   4.628   1.868   5.605  0.4987 -0.1121  0.6195
  947MOL0     C24884   4.641   1.702   5.611 -0.5274 -0.2099  0.3024
  947MOL0     C24885   4.775   1.652   5.670 -0.2251 -1.0432  0.4592
  947MOL0     C24886   4.899   1.670   5.568  0.5980  0.9119 -0.4579
  947MOL0     C24887   5.033   1.687   5.628  0.7654  0.4015 -0.2661
  947MOL0     C24888   5.050   1.648   5.781  0.2120 -0.1503 -0.4106
  947MOL0     N24889   5.188   1.668   5.828  0.5600 -0.1965  0.7029
  947MOL0     C24890   5.292   1.585   5.795 -0.8942  1.0799 -0.6308
  947MOL0     C24891   5.404   1.627   5.874  0.4714  0.5711 -0.3310
  947MOL0     C24892   5.526   1.539   5.899  0.1192  0.2366  0.0430
  947MOL0     C24893   5.593   1.567   6.044  0.2646  0.2402  0.6336
  947MOL0     C24894   5.510   1.497   6.144 -0.3764  0.1646 -0.9804
  947MOL0     C24895   5.491   1.571   6.276  0.0256  0.2345  0.3765
  947MOL0     O24896   5.418   1.486   6.371 -0.3905 -0.3732  0.1213
  947MOL0     C24897   5.276   1.484   6.350 -1.1565 -0.2542  0.5654
  947MOL0     C24898   5.219   1.361   6.387 -0.2691  0.0463  0.4741
  947MOL0     C24899   5.083   1.345   6.387  0.1132  0.5913  0.1772
  947MOL0     C24900   5.004   1.440   6.311  1.2354 -0.0240 -0.8367
  947MOL0     C24901   4.857   1.415   6.302 -0.3864  0.1621  0.2288
  947MOL0     O24902   4.809   1.304   6.357 -0.4893  0.4761 -0.3662
  947MOL0     C24903   4.679   1.256   6.352 -1.0041 -0.6051  0.1653
  947MOL0     C24904   4.581   1.303   6.267  0.2949  0.1106  0.0944
  947MOL0     C24905   4.445   1.256   6.272 -0.0042 -0.6607 -0.4671
  947MOL0     C24906   4.415   1.166   6.376  0.9917 -1.3989  0.5318
  947MOL0     O24907   4.286   1.125   6.360 -0.8685 -0.0418  0.5978
  947MOL0     C24908   4.261   0.987   6.328  0.0263  0.3803 -0.0475
  947MOL0     C24909   4.122   0.960   6.395 -0.4855  0.0398 -0.7037
  947MOL0     C24910   4.141   0.952   6.551  0.3999  0.5327 -0.6801
  947MOL0     C24911   4.215   0.829   6.598 -1.6867 -0.9028  1.0299
  947MOL0     C24912   4.268   0.850   6.737 -0.3202  0.7480 -0.3280
  947MOL0     C24913   4.371   0.738   6.765  0.9379 -0.1332  0.3265
  947MOL0     C24914   4.452   0.749   6.896 -0.2023 -0.0149 -0.8630
  947MOL0     C24915   4.495   0.613   6.944  0.8098 -0.2021  0.5090
  947MOL0    Cl24916   4.353   0.511   7.010 -0.1295  0.3020  0.2838
  947MOL0     C24917   4.509   1.117   6.465  0.5867  0.0116  0.0330
  947MOL0     C24918   4.644   1.168   6.458  0.2271  0.8762 -0.6947
  947MOL0     O24919   4.795   1.507   6.264  0.2031 -1.0397 -0.1640
  947MOL0     C24920   5.062   1.553   6.258 -0.5894 -0.4936 -0.0721
  947MOL0     C24921   5.196   1.575   6.282 -0.0656 -0.0242  0.7005
  947MOL0     N24922   5.362   1.747   5.942  0.1906  0.3702  0.6936
  947MOL0     N24923   5.239   1.763   5.918  0.9304 -0.0032  0.7285
  947MOL0     C24924   4.200   1.596   5.646 -0.5801 -0.0762 -0.8959
  947MOL0     C24925   4.075   1.552   5.667  0.0287  0.2868  0.9510
  947MOL0     C24926   3.700   1.468   5.840  0.4636 -0.1841  0.8455
  947MOL0     C24927   3.632   1.577   5.910 -0.0006  0.3972  0.3657
  947MOL0     C24928   3.544   1.554   6.014  0.0995 -0.0224  0.0038
  947MOL0     C24929   3.520   1.423   6.061  0.1720  0.3278  0.5412
  947MOL0     O24930   3.440   1.409   6.167  0.0983  0.0979  0.1367
  947MOL0     C24931   3.360   1.293   6.197  0.3111 -0.2504  0.4829
  947MOL0     C24932   3.211   1.338   6.186  0.1744  1.0644 -1.0048
  947MOL0     C24933   3.172   1.427   6.308  0.5539 -0.6992 -0.4428
  947MOL0     C24934   3.188   1.583   6.291  0.0970  0.1777 -0.0605
  947MOL0     C24935   3.120   1.661   6.397 -0.2929  0.1234  0.9101
  947MOL0     C24936   3.073   1.744   6.463 -1.3349 -0.0919 -0.1157
  947MOL0     C24937   3.575   1.308   5.996 -0.0649  0.1563 -0.1920
  947MOL0     C24938   3.661   1.342   5.890 -0.3747  0.9543  0.1575
  947MOL0     H24939   3.912   1.860   5.686  0.0617  0.5789  2.1893
  947MOL0     H24940   4.147   1.936   5.628 -2.1463 -0.2103  1.0034
  947MOL0     H24941   4.375   1.977   5.658 -1.3794  0.1965 -1.0655
  947MOL0     H24942   4.304   1.927   5.501  0.7019 -0.5519 -1.1310
  947MOL0     H24943   4.528   2.012   5.481  1.9265  1.6250  4.4492
  947MOL0     H24944   4.507   1.837   5.427 -2.7164 -1.7784  1.7612
  947MOL0     H24945   4.620   1.902   5.709  1.0949 -1.1447  1.0148
  947MOL0     H24946   4.716   1.904   5.550 -1.0873  1.3117 -1.1041
  947MOL0     H24947   4.558   1.664   5.672 -0.7404 -0.9825 -0.4500
  947MOL0     H24948   4.623   1.657   5.513 -1.5528 -1.7284  1.1292
  947MOL0     H24949   4.763   1.549   5.706  2.6095 -0.3555  3.9558
  947MOL0     H24950   4.790   1.716   5.757  0.1104  0.4988 -0.6799
  947MOL0     H24951   4.882   1.759   5.508 -0.5783 -0.3032 -2.0051
  947MOL0     H24952   4.904   1.587   5.496 -0.3621 -0.3063  0.8178
  947MOL0     H24953   5.095   1.628   5.560  2.0547  1.5925 -0.1518
  947MOL0     H24954   5.058   1.792   5.611 -1.8564  1.4670  1.7055
  947MOL0     H24955   5.011   1.549   5.804 -2.5378  0.4888 -1.9702
  947MOL0     H24956   5.000   1.727   5.838  0.5799 -0.7825  0.8231
  947MOL0     H24957   5.279   1.495   5.736  2.5213 -0.6321  0.9139
  947MOL0     H24958   5.603   1.569   5.827 -0.8153 -0.3775 -1.2619
  947MOL0     H24959   5.495   1.435   5.884 -4.5019  1.1711  1.6040
  947MOL0     H24960   5.598   1.673   6.069 -1.2197 -0.6304  6.1804
  947MOL0     H24961   5.696   1.533   6.057 -0.5570 -2.1194  1.7302
  947MOL0     H24962   5.412   1.465   6.106 -0.3318 -1.2666  0.0279
  947MOL0     H24963   5.567   1.406   6.163 -1.3279 -0.4151 -0.8328
  947MOL0     H24964   5.451   1.670   6.254 -0.8594 -0.3777 -0.9185
  947MOL0     H24965   5.589   1.560   6.325 -0.3198  0.5637  1.1457
  947MOL0     H24966   5.285   1.283   6.424 -1.4097 -2.1881 -1.8702
  947MOL0     H24967   5.044   1.249   6.418 -1.5171 -0.1256 -3.5869
  947MOL0     H24968   4.614   1.379   6.198  3.8088 -1.1325  0.1659
  947MOL0     H24969   4.367   1.293   6.207  1.0372  3.4967  0.3228
  947MOL0     H24970   4.345   0.927   6.362  0.8684 -0.5142 -3.3325
  947MOL0     H24971   4.251   0.958   6.223  3.0756 -0.7950 -0.1142
  947MOL0     H24972   4.087   0.866   6.352  0.5763 -1.0191  0.6325
  947MOL0     H24973   4.049   1.041   6.395 -1.7148 -0.9908  1.0265
  947MOL0     H24974   4.044   0.954   6.602 -0.4160  0.1564 -2.1440
  947MOL0     H24975   4.200   1.038   6.582  2.2664 -0.1381 -2.1728
  947MOL0     H24976   4.138   0.751   6.599 -1.5014 -1.0950  0.5863
  947MOL0     H24977   4.288   0.808   6.519 -2.4377  3.2259 -1.0194
  947MOL0     H24978   4.186   0.838   6.808  0.3808  2.7963  0.9381
  947MOL0     H24979   4.316   0.946   6.759  1.0353  0.5403 -2.1066
  947MOL0     H24980   4.438   0.724   6.679  0.9292  1.0733  0.1035
  947MOL0     H24981   4.305   0.651   6.767  0.3585  0.2122  4.4176
  947MOL0     H24982   4.544   0.808   6.886  0.6473 -0.5675  2.4508
  947MOL0     H24983   4.388   0.800   6.969  3.8962  3.6491  0.6441
  947MOL0     H24984   4.568   0.617   7.025 -0.0586 -1.1313  1.3674
  947MOL0     H24985   4.540   0.558   6.861  0.6114  1.5803 -0.8384
  947MOL0     H24986   4.512   1.026   6.524  2.9753 -2.0757 -2.9528
  947MOL0     H24987   4.714   1.124   6.527 -0.5794 -3.0272 -2.0933
  947MOL0     H24988   4.998   1.630   6.216 -1.0867  0.1195  1.7516
  947MOL0     H24989   5.245   1.661   6.238 -0.0161  0.9683  2.5898
  947MOL0     H24990   4.282   1.524   5.641  1.2392  1.8268 -0.1907
  947MOL0     H24991   4.046   1.449   5.678  0.8306  0.2795  3.4456
  947MOL0     H24992   3.650   1.680   5.884 -1.9240  0.0808 -2.6018
  947MOL0     H24993   3.487   1.626   6.072  3.6686  0.9325  2.7577
  947MOL0     H24994   3.382   1.240   6.290 -2.2061 -0.9866  0.7610
  947MOL0     H24995   3.373   1.216   6.120 -0.8046 -1.0483  1.0432
  947MOL0     H24996   3.183   1.374   6.087  2.0186 -0.6533 -2.2327
  947MOL0     H24997   3.154   1.245   6.202 -1.3326  2.0262 -0.5084
  947MOL0     H24998   3.223   1.392   6.398  1.5388  3.3809  0.7976
  947MOL0     H24999   3.064   1.427   6.323  0.5001  1.2358 -0.5212
  947MOL0     H25000   3.295   1.606   6.287  0.9114 -3.2573 -1.3878
  947MOL0     H25001   3.146   1.605   6.192 -0.8134 -2.7012 -0.4105
  947MOL0     H25002   3.060   1.826   6.531  0.4907  1.2145 -1.2392
  947MOL0     H25003   3.555   1.205   6.023  0.4238  0.8435  3.3628
  947MOL0     H25004   3.715   1.257   5.850  3.8887  2.2098  2.6266
  948MOL0     O25005   4.198   6.069   0.352 -0.1220  0.2360  0.9030
  948MOL0     C25006   4.196   5.984   0.436 -1.1354 -0.0643  0.2741
  948MOL0     O25007   4.259   5.853   0.417 -0.1650 -0.2809 -0.0580
  948MOL0     C25008   4.356   5.838   0.326  0.2576  0.2875 -1.3659
  948MOL0     C25009   4.336   5.854   0.189 -0.4434 -0.0147 -0.0742
  948MOL0     C25010   4.439   5.824   0.098  0.3917  0.3447 -0.5923
  948MOL0     C25011   4.562   5.775   0.143 -0.2035  0.4020  0.0933
  948MOL0     O25012   4.669   5.750   0.062  0.2539  0.2957 -0.3364
  948MOL0     C25013   4.689   5.849  -0.045  0.2847  0.8168  0.0835
  948MOL0     C25014   4.808   5.802  -0.140 -0.4656 -0.3255 -0.2454
  948MOL0     C25015   4.939   5.831  -0.072  0.1899 -0.7737 -0.0094
  948MOL0     C25016   5.047   5.800  -0.173 -0.6551  0.6150 -0.1172
  948MOL0     C25017   5.178   5.866  -0.138 -1.5804  0.0645 -0.3505
  948MOL0     C25018   5.293   5.799  -0.218 -0.1899  0.2854 -0.1652
  948MOL0     C25019   5.361   5.688  -0.148  0.3231 -0.6651 -0.0122
  948MOL0     C25020   5.469   5.624  -0.238  0.7888  0.4252  1.1162
  948MOL0     N25021   5.553   5.717  -0.316 -0.1819  0.7052 -0.1700
  948MOL0     C25022   5.568   5.715  -0.447 -0.1959  0.2737  0.0588
  948MOL0     C25023   5.687   5.791  -0.460 -0.1220 -0.1136  0.5113
  948MOL0     C25024   5.767   5.801  -0.587 -0.0835 -0.2653  0.5079
  948MOL0     C25025   5.771   5.948  -0.621 -0.6892  0.0691  0.1544
  948MOL0     C25026   5.883   5.969  -0.727  0.1870 -0.2047  0.8026
  948MOL0     C25027   5.909   6.116  -0.744 -0.5245 -0.6439  0.1016
  948MOL0     O25028   5.980   6.156  -0.865 -0.4066  0.4265 -0.0616
  948MOL0     C25029   6.003   6.289  -0.882  1.0459  1.5391 -0.2584
  948MOL0     C25030   5.958   6.390  -0.790  0.1529 -0.8200  0.9267
  948MOL0     C25031   5.997   6.526  -0.810 -0.0937  0.5819  0.9243
  948MOL0     C25032   6.079   6.561  -0.916 -0.3934  0.1966  0.8657
  948MOL0     C25033   6.106   6.708  -0.950 -0.9054 -0.2334  0.3398
  948MOL0     O25034   6.148   6.727  -1.075 -0.3036 -0.0290 -0.0851
  948MOL0     C25035   6.208   6.846  -1.121  0.5413  0.1353 -0.1185
  948MOL0     C25036   6.147   6.916  -1.225  0.4704 -0.7450 -1.3796
  948MOL0     C25037   6.202   7.027  -1.276 -1.1252 -0.2006 -0.1685
  948MOL0     C25038   6.323   7.077  -1.223 -0.9050  0.5577  0.8358
  948MOL0     O25039   6.374   7.181  -1.302  0.0977  0.8730 -0.6696
  948MOL0     C25040   6.518   7.214  -1.295 -0.8031  0.0496  0.3825
  948MOL0     C25041   6.570   7.292  -1.412 -0.7054 -0.1021 -0.1561
  948MOL0     C25042   6.724   7.333  -1.386 -0.1210 -0.6318  0.6360
  948MOL0     C25043   6.819   7.213  -1.400  0.6986  0.5061  0.2249
  948MOL0     C25044   6.963   7.259  -1.359  1.0589  0.1075  0.0631
  948MOL0     C25045   7.065   7.142  -1.375  0.3371  0.0186 -0.5178
  948MOL0     C25046   7.076   7.053  -1.245  0.8118 -0.5346 -0.6908
  948MOL0     C25047   7.130   6.910  -1.271  0.6777 -0.4138 -0.7500
  948MOL0    Cl25048   7.010   6.822  -1.375 -0.1438  0.1528  0.1518
  948MOL0     C25049   6.386   7.015  -1.114  0.1523 -0.2121 -0.4432
  948MOL0     C25050   6.319   6.898  -1.060  0.1698 -0.5574  0.3562
  948MOL0     O25051   6.097   6.796  -0.865  0.5217 -0.5232  0.4154
  948MOL0     C25052   6.127   6.458  -1.003 -0.3253 -0.9186  0.7625
  948MOL0     C25053   6.091   6.329  -0.991  0.3271  0.8333  0.3635
  948MOL0     N25054   5.726   5.840  -0.337  0.3214  0.6476 -0.3855
  948MOL0     N25055   5.648   5.790  -0.255 -0.1997  0.4089  0.2461
  948MOL0     C25056   4.575   5.761   0.279  0.4658  0.8202  0.8365
  948MOL0     C25057   4.480   5.790   0.368  0.7454 -0.5647 -0.1038
  948MOL0     C25058   4.125   6.002   0.561  0.2592  0.0539  0.0529
  948MOL0     C25059   4.097   6.134   0.610 -1.2398 -0.0805 -0.7187
  948MOL0     C25060   4.001   6.147   0.706 -1.0737  0.3007 -0.2477
  948MOL0     C25061   3.942   6.044   0.772  0.1227  0.0208  1.4609
  948MOL0     O25062   3.839   6.064   0.861  0.0245  0.3778 -0.4736
  948MOL0     C25063   3.738   5.957   0.876 -0.9138 -0.8293  0.1748
  948MOL0     C25064   3.658   6.007   0.998  0.3720 -0.5432 -0.2154
  948MOL0     C25065   3.583   6.136   0.960  0.2278  0.8433 -0.2815
  948MOL0     C25066   3.548   6.219   1.081 -0.4907 -0.3324  0.3515
  948MOL0     C25067   3.663   6.298   1.146  0.1327  0.7899  0.2010
  948MOL0     C25068   3.737   6.371   1.217  0.0565  0.5260  1.3681
  948MOL0     C25069   3.989   5.916   0.751 -0.7985  0.0410  0.3838
  948MOL0     C25070   4.082   5.891   0.640 -0.9583 -0.5087  0.6924
  948MOL0     H25071   4.248   5.891   0.136  0.8594 -0.5821 -2.7936
  948MOL0     H25072   4.417   5.855  -0.004  0.0758  1.8565 -0.0883
  948MOL0     H25073   4.698   5.953  -0.012 -2.6695  0.8205  1.1726
  948MOL0     H25074   4.599   5.837  -0.105  1.9045  2.6256 -2.9824
  948MOL0     H25075   4.808   5.843  -0.241 -1.5926 -3.1895 -1.5402
  948MOL0     H25076   4.797   5.699  -0.176 -1.6094  1.0265 -4.3282
  948MOL0     H25077   4.962   5.770   0.015  3.7244  0.4884  0.1021
  948MOL0     H25078   4.938   5.940  -0.056 -2.1793 -0.6160 -0.8711
  948MOL0     H25079   5.065   5.692  -0.172  1.3267  0.9058 -0.4314
  948MOL0     H25080   5.020   5.830  -0.274 -0.1096  0.5642 -0.2808
  948MOL0     H25081   5.202   5.850  -0.033  3.2217 -1.2240 -1.4220
  948MOL0     H25082   5.175   5.974  -0.159  0.0437 -0.1259 -1.8000
  948MOL0     H25083   5.364   5.878  -0.245 -1.0640  2.5255  3.4731
  948MOL0     H25084   5.245   5.768  -0.312 -3.1152  0.0904  1.2850
  948MOL0     H25085   5.418   5.717  -0.059 -0.3804 -2.9412  1.2408
  948MOL0     H25086   5.283   5.620  -0.114  2.0399 -0.2118  6.1715
  948MOL0     H25087   5.409   5.565  -0.307  0.2361  3.8172 -1.5509
  948MOL0     H25088   5.531   5.551  -0.185  0.3075 -0.1856  0.8561
  948MOL0     H25089   5.518   5.649  -0.517  0.5542 -1.3029  0.9637
  948MOL0     H25090   5.707   5.759  -0.668  0.3774  0.1699 -0.0722
  948MOL0     H25091   5.865   5.753  -0.574 -1.7169 -3.5346  2.0235
  948MOL0     H25092   5.802   6.014  -0.540 -0.7518 -0.1722  0.3799
  948MOL0     H25093   5.672   5.976  -0.658 -0.1673  0.7726 -0.7452
  948MOL0     H25094   5.969   5.926  -0.675 -0.9258 -0.5561  2.4274
  948MOL0     H25095   5.840   5.925  -0.817 -3.5690  0.8405  1.8853
  948MOL0     H25096   5.959   6.155  -0.655  2.1215  0.9060 -1.9097
  948MOL0     H25097   5.812   6.166  -0.750 -0.4780 -0.7235 -2.5386
  948MOL0     H25098   5.901   6.349  -0.708  1.4284  0.7659  2.7065
  948MOL0     H25099   5.958   6.604  -0.746  0.7375  2.4517 -0.7458
  948MOL0     H25100   6.048   6.886  -1.259 -0.8929 -1.6740  2.8431
  948MOL0     H25101   6.144   7.072  -1.356 -0.9311 -1.9284 -1.3386
  948MOL0     H25102   6.582   7.127  -1.273  1.6553  1.1283 -1.9685
  948MOL0     H25103   6.532   7.277  -1.207  0.0361 -2.7202  2.3989
  948MOL0     H25104   6.510   7.383  -1.423  1.1640  1.5174  2.0923
  948MOL0     H25105   6.566   7.229  -1.502  1.4877  0.6777 -0.8529
  948MOL0     H25106   6.735   7.381  -1.288  0.2316 -2.9069  1.7655
  948MOL0     H25107   6.747   7.405  -1.466 -0.8415 -0.3149  0.7032
  948MOL0     H25108   6.778   7.130  -1.341 -4.3047 -1.1406 -4.5887
  948MOL0     H25109   6.814   7.178  -1.504 -1.2027 -0.4057  0.5601
  948MOL0     H25110   6.963   7.305  -1.259  0.8730  1.7179 -0.6415
  948MOL0     H25111   7.007   7.326  -1.433 -0.0698 -1.7123 -2.3669
  948MOL0     H25112   7.160   7.195  -1.384 -0.3427  1.4162  0.1691
  948MOL0     H25113   7.051   7.081  -1.464  0.4533  1.3671 -1.4900
  948MOL0     H25114   7.130   7.107  -1.167  3.1089 -0.5121 -2.1981
  948MOL0     H25115   6.978   7.038  -1.199  2.6915 -2.1653  3.2111
  948MOL0     H25116   7.140   6.858  -1.175 -2.6929 -0.7663 -0.4787
  948MOL0     H25117   7.220   6.915  -1.333 -0.8279  3.6567 -3.0027
  948MOL0     H25118   6.477   7.048  -1.067 -1.2788  1.9206  1.0007
  948MOL0     H25119   6.347   6.831  -0.979  3.1558 -2.4810 -2.0553
  948MOL0     H25120   6.196   6.504  -1.073  0.6887  1.4801  3.1660
  948MOL0     H25121   6.138   6.258  -1.059 -0.1392 -0.1861  1.0870
  948MOL0     H25122   4.671   5.713   0.296 -0.5334 -3.5708 -3.6270
  948MOL0     H25123   4.493   5.777   0.475 -0.3786  2.1774  0.4399
  948MOL0     H25124   4.137   6.217   0.554  0.3720 -0.6313 -0.4627
  948MOL0     H25125   3.979   6.249   0.735 -2.3478  0.0147 -0.1536
  948MOL0     H25126   3.788   5.864   0.905 -0.1095 -0.7579 -0.9183
  948MOL0     H25127   3.676   5.943   0.788  2.5515 -3.0645 -2.1919
  948MOL0     H25128   3.591   5.935   1.047  1.8695 -3.8811 -2.6638
  948MOL0     H25129   3.734   6.023   1.075  0.3937 -2.3627  0.2031
  948MOL0     H25130   3.485   6.109   0.920 -0.0428  0.1096  0.8585
  948MOL0     H25131   3.648   6.189   0.889 -0.5842 -0.9325 -2.4424
  948MOL0     H25132   3.474   6.293   1.050 -1.4176  0.1772  3.4764
  948MOL0     H25133   3.514   6.145   1.154  1.1811  0.8532  2.4505
  948MOL0     H25134   3.775   6.447   1.282  0.1391  0.1652  1.7447
  948MOL0     H25135   3.988   5.832   0.820  3.1776 -2.8187 -2.5678
  948MOL0     H25136   4.102   5.788   0.613 -1.4728 -0.4265 -0.0120
  949MOL0     O25137   9.329   8.478   6.892  0.1747 -0.2337  0.0051
  949MOL0     C25138   9.312   8.364   6.938 -0.3051 -0.4717 -1.9170
  949MOL0     O25139   9.402   8.290   6.993 -0.2411 -0.1352 -0.4724
  949MOL0     C25140   9.532   8.322   6.962  0.7785 -0.2904 -1.0171
  949MOL0     C25141   9.603   8.426   7.032 -0.9064  0.5324 -1.4930
  949MOL0     C25142   9.735   8.444   7.009 -0.6816  0.0729  0.0792
  949MOL0     C25143   9.802   8.376   6.902  0.4158  0.3211 -0.1256
  949MOL0     O25144   9.937   8.413   6.887  0.8725 -0.0388  0.1260
  949MOL0     C25145   9.996   8.368   6.764 -1.0343  0.6188 -0.4472
  949MOL0     C25146  10.148   8.398   6.796  0.6263  0.4080  0.5197
  949MOL0     C25147  10.225   8.387   6.665 -0.8743  0.2998 -0.4806
  949MOL0     C25148  10.221   8.520   6.590 -0.0704 -1.1874  0.5758
  949MOL0     C25149  10.348   8.554   6.504 -0.6061  0.6252  0.1003
  949MOL0     C25150  10.331   8.696   6.444  0.5282 -0.6280 -0.9242
  949MOL0     C25151  10.461   8.747   6.401 -0.1174 -0.5194  0.6521
  949MOL0     C25152  10.502   8.671   6.273 -0.0173 -0.1671  0.0711
  949MOL0     N25153  10.585   8.757   6.187 -0.0050 -0.2337 -0.0044
  949MOL0     C25154  10.539   8.877   6.132 -0.1991 -0.8451  0.0028
  949MOL0     C25155  10.649   8.936   6.083  1.1196 -0.1390 -0.2391
  949MOL0     C25156  10.647   9.086   6.061 -0.2714  0.2629  0.5616
  949MOL0     C25157  10.763   9.152   6.140  0.4333 -0.1773  0.4329
  949MOL0     C25158  10.763   9.308   6.102  0.3623 -0.6437  0.3364
  949MOL0     C25159  10.862   9.389   6.181 -0.7867  0.3073  0.7794
  949MOL0     O25160  10.855   9.523   6.155  0.0627 -0.9345  0.4443
  949MOL0     C25161  10.972   9.602   6.173  0.2105  0.1406  0.9013
  949MOL0     C25162  11.038   9.648   6.057 -0.1469 -0.4429 -0.8648
  949MOL0     C25163  11.138   9.748   6.068  0.8396  0.1312  0.1447
  949MOL0     C25164  11.171   9.804   6.193  0.4624 -0.0900  0.2362
  949MOL0     C25165  11.277   9.913   6.202  0.1421 -0.3618 -0.3497
  949MOL0     O25166  11.264  10.011   6.298 -0.6750 -0.5653 -0.8250
  949MOL0     C25167  11.314  10.135   6.270  0.0345 -0.6474  0.2271
  949MOL0     C25168  11.379  10.200   6.370 -0.2804 -0.0204 -1.3370
  949MOL0     C25169  11.420  10.341   6.359 -0.4303 -0.5979  0.0677
  949MOL0     C25170  11.398  10.411   6.241 -0.4626 -0.2514  0.1997
  949MOL0     O25171  11.437  10.539   6.222  0.6837 -0.3935 -0.5272
  949MOL0     C25172  11.435  10.639   6.324 -1.3277 -0.1428  0.6894
  949MOL0     C25173  11.509  10.767   6.288 -0.7990 -0.5563 -0.1973
  949MOL0     C25174  11.449  10.852   6.173 -0.2681  0.6593  0.5271
  949MOL0     C25175  11.526  10.988   6.194 -0.3628  0.3116  0.5169
  949MOL0     C25176  11.481  11.085   6.073  0.9419  1.3678  0.6386
  949MOL0     C25177  11.551  11.048   5.938  0.0117 -0.2618  0.2521
  949MOL0     C25178  11.509  11.134   5.815 -0.3182 -0.2937  0.2840
  949MOL0     C25179  11.538  11.069   5.674  0.5095  0.8659 -1.3860
  949MOL0    Cl25180  11.711  11.040   5.669  0.2522  0.2655 -0.2585
  949MOL0     C25181  11.345  10.337   6.134  0.1137  0.1867  0.0246
  949MOL0     C25182  11.309  10.201   6.148  0.1791  0.0698  0.1209
  949MOL0     O25183  11.367   9.917   6.117 -0.2102 -0.1366  0.7838
  949MOL0     C25184  11.110   9.758   6.308 -0.2235  0.0310 -0.2959
  949MOL0     C25185  11.017   9.653   6.294 -0.3916 -0.0803  0.2056
  949MOL0     N25186  10.755   8.846   6.102 -0.0754 -0.2154  0.3666
  949MOL0     N25187  10.718   8.739   6.157  0.4885  0.2479 -0.0320
  949MOL0     C25188   9.735   8.272   6.833  0.3544 -0.8301  0.6068
  949MOL0     C25189   9.597   8.248   6.870 -0.1415 -0.6973  0.1410
  949MOL0     C25190   9.181   8.306   6.944  0.5637  0.0319  0.6348
  949MOL0     C25191   9.140   8.198   7.026 -0.6355 -0.3167  0.2233
  949MOL0     C25192   9.010   8.173   7.049 -0.8662  0.0492 -1.2857
  949MOL0     C25193   8.907   8.229   6.979 -0.0993  0.2953 -1.2043
  949MOL0     O25194   8.774   8.189   7.007  0.1083  0.1070  0.3417
  949MOL0     C25195   8.663   8.264   6.960 -0.1814 -0.2049  0.7254
  949MOL0     C25196   8.600   8.343   7.077  0.3632 -0.3613  0.2070
  949MOL0     C25197   8.507   8.248   7.147 -0.2639  1.0786 -0.4573
  949MOL0     C25198   8.429   8.313   7.265 -0.5135 -0.7787  1.1351
  949MOL0     C25199   8.514   8.344   7.378  0.1954  0.0896  1.1546
  949MOL0     C25200   8.591   8.367   7.477  0.7258  0.1338  0.6494
  949MOL0     C25201   8.946   8.335   6.893  0.3624 -0.1528 -0.5529
  949MOL0     C25202   9.080   8.376   6.883 -0.7650 -0.0350 -0.0046
  949MOL0     H25203   9.558   8.464   7.123  2.0130 -2.7996  1.7162
  949MOL0     H25204   9.790   8.516   7.068  0.1103  3.1067 -3.8978
  949MOL0     H25205   9.956   8.419   6.675 -3.0301  1.4415  0.8388
  949MOL0     H25206   9.990   8.262   6.740  0.4589  0.6079 -0.8260
  949MOL0     H25207  10.190   8.343   6.881  3.0097 -0.5307 -1.1725
  949MOL0     H25208  10.143   8.500   6.835 -0.3461  0.1199  1.2010
  949MOL0     H25209  10.192   8.309   6.595  0.2745  2.1145 -3.2173
  949MOL0     H25210  10.330   8.369   6.689 -0.7835  0.8236 -0.4784
  949MOL0     H25211  10.126   8.530   6.537  0.6283  1.1594 -0.3762
  949MOL0     H25212  10.228   8.608   6.655  0.7367  0.9231 -2.1649
  949MOL0     H25213  10.357   8.484   6.420 -0.8203  1.9832 -1.0883
  949MOL0     H25214  10.437   8.543   6.568 -1.3067  2.7661  1.5419
  949MOL0     H25215  10.292   8.765   6.519  0.6595 -0.2413 -1.2066
  949MOL0     H25216  10.257   8.709   6.365  0.4766 -0.6604 -0.8814
  949MOL0     H25217  10.439   8.853   6.383  0.3765 -0.3728  0.8957
  949MOL0     H25218  10.536   8.744   6.480  0.3385  0.8644  0.3050
  949MOL0     H25219  10.411   8.662   6.213  1.3620  0.6412 -2.2696
  949MOL0     H25220  10.552   8.581   6.308  0.1752 -0.1013 -0.0309
  949MOL0     H25221  10.439   8.918   6.136 -0.5160 -1.4538 -1.2571
  949MOL0     H25222  10.558   9.137   6.099  0.3618  1.9598 -0.1484
  949MOL0     H25223  10.662   9.100   5.953 -2.8289 -1.5231 -0.1439
  949MOL0     H25224  10.858   9.103   6.115  1.4054  1.8834 -0.1478
  949MOL0     H25225  10.733   9.133   6.243  0.8770 -2.1306  0.2408
  949MOL0     H25226  10.775   9.319   5.994  2.8301 -1.3974  0.4696
  949MOL0     H25227  10.666   9.352   6.125  0.7942  0.2486  0.4986
  949MOL0     H25228  10.964   9.361   6.154 -0.9852  3.0510 -3.7301
  949MOL0     H25229  10.854   9.363   6.287 -1.6030 -2.2656  0.1729
  949MOL0     H25230  11.009   9.603   5.963  1.5005 -0.2473 -1.5017
  949MOL0     H25231  11.197   9.773   5.980 -1.4732 -0.1242 -1.5601
  949MOL0     H25232  11.374  10.157   6.470 -1.4779 -0.3602 -1.5316
  949MOL0     H25233  11.473  10.378   6.446  0.9472  0.3157 -1.1094
  949MOL0     H25234  11.480  10.603   6.417  1.0703 -0.5700 -0.5568
  949MOL0     H25235  11.332  10.645   6.361 -1.9015 -0.4351 -0.8086
  949MOL0     H25236  11.613  10.741   6.263 -0.1153  1.5175  0.2386
  949MOL0     H25237  11.512  10.824   6.382  1.2299  0.6986 -0.9383
  949MOL0     H25238  11.342  10.871   6.186 -0.6831 -0.0358 -1.4899
  949MOL0     H25239  11.460  10.801   6.077  0.0855  1.8805 -0.0913
  949MOL0     H25240  11.507  11.030   6.293  0.7064  0.5904  0.6173
  949MOL0     H25241  11.634  10.972   6.181  0.2017  2.6296  1.8154
  949MOL0     H25242  11.503  11.190   6.095 -0.2003  1.3272  2.1160
  949MOL0     H25243  11.374  11.075   6.055  1.4165 -1.6733 -1.2485
  949MOL0     H25244  11.537  10.942   5.916  0.9778 -0.7959  2.0246
  949MOL0     H25245  11.658  11.066   5.949  0.1172 -1.5994  1.8336
  949MOL0     H25246  11.403  11.160   5.815  0.2209  2.3156  1.9620
  949MOL0     H25247  11.559  11.231   5.810 -0.2432 -0.3360  0.2311
  949MOL0     H25248  11.529  11.138   5.590  0.7647  0.2210 -1.9566
  949MOL0     H25249  11.481  10.979   5.646  1.2469 -1.0934  2.6518
  949MOL0     H25250  11.322  10.391   6.043 -0.9754 -0.7316 -0.2684
  949MOL0     H25251  11.265  10.149   6.064  0.3222 -1.1953  0.8049
  949MOL0     H25252  11.129   9.802   6.405  1.2335 -1.1364 -0.0343
  949MOL0     H25253  10.954   9.629   6.379  2.1753  2.3264  3.0015
  949MOL0     H25254   9.789   8.203   6.769 -2.6496 -0.5736 -2.4945
  949MOL0     H25255   9.538   8.179   6.811 -0.8345 -0.9897  1.1414
  949MOL0     H25256   9.216   8.145   7.083  0.6563  1.3945  0.1831
  949MOL0     H25257   8.990   8.091   7.117  1.8201 -1.4565 -2.1782
  949MOL0     H25258   8.586   8.202   6.914 -0.8627  1.1177  0.0285
  949MOL0     H25259   8.687   8.333   6.878 -3.6249  0.8384  0.4454
  949MOL0     H25260   8.674   8.386   7.146  0.9554  0.4005 -0.8644
  949MOL0     H25261   8.546   8.424   7.027 -1.0326 -1.6541 -0.4308
  949MOL0     H25262   8.569   8.173   7.198 -0.5750  1.2170  0.1388
  949MOL0     H25263   8.436   8.199   7.080 -0.5211 -0.5535  0.9403
  949MOL0     H25264   8.372   8.395   7.221  0.7969 -0.2822  0.2819
  949MOL0     H25265   8.359   8.241   7.309  0.0387 -1.5852  0.7117
  949MOL0     H25266   8.653   8.403   7.557 -0.9085  0.1258  1.9790
  949MOL0     H25267   8.872   8.389   6.835 -0.3055  1.1949  1.4406
  949MOL0     H25268   9.091   8.456   6.811 -2.7391 -0.7044 -1.1199
  950MOL0     O25269  10.850   7.901   3.113 -0.1562  0.0087 -0.5909
  950MOL0     C25270  10.926   7.981   3.173 -0.2946 -0.0381 -0.8272
  950MOL0     O25271  10.895   8.107   3.206  0.6469  0.5164  0.1102
  950MOL0     C25272  10.765   8.157   3.207  0.0966  0.2332  0.4290
  950MOL0     C25273  10.641   8.091   3.201  0.4545 -0.7665 -0.2010
  950MOL0     C25274  10.525   8.162   3.199  1.0297 -0.2821 -0.7120
  950MOL0     C25275  10.529   8.304   3.230 -0.4947 -0.0493 -0.8269
  950MOL0     O25276  10.415   8.376   3.255  0.2934  0.2696  0.0518
  950MOL0     C25277  10.293   8.328   3.208 -0.1755  0.7073 -0.1492
  950MOL0     C25278  10.182   8.434   3.193 -0.4411  0.6958 -0.0152
  950MOL0     C25279  10.123   8.483   3.331  0.0193  0.2536 -0.0052
  950MOL0     C25280  10.048   8.373   3.402  1.0535  0.7134  0.0132
  950MOL0     C25281   9.944   8.407   3.505 -0.1028 -1.1222 -0.7044
  950MOL0     C25282  10.007   8.470   3.630 -0.1841 -0.9384 -0.0132
  950MOL0     C25283   9.903   8.500   3.736  0.0026 -0.1380  0.0420
  950MOL0     C25284   9.960   8.578   3.859 -0.0499 -0.2670 -0.5155
  950MOL0     N25285  10.083   8.527   3.917 -0.2167  0.1607  0.1875
  950MOL0     C25286  10.217   8.549   3.873 -0.4026  1.1168 -0.7081
  950MOL0     C25287  10.294   8.446   3.920 -0.0900 -1.0008  0.5642
  950MOL0     C25288  10.441   8.422   3.885 -0.6623  0.8376 -0.8775
  950MOL0     C25289  10.510   8.327   4.000 -0.2854  0.5224  0.1375
  950MOL0     C25290  10.520   8.410   4.123  0.3309 -0.1263 -0.2121
  950MOL0     C25291  10.642   8.505   4.134 -0.5864 -0.6459 -0.0046
  950MOL0     O25292  10.742   8.476   4.039  0.2886 -0.6718  0.0080
  950MOL0     C25293  10.861   8.551   4.032  0.4191 -0.0903 -0.7218
  950MOL0     C25294  10.884   8.669   4.107  0.0403 -1.1027  0.8238
  950MOL0     C25295  10.987   8.755   4.098 -0.9969  0.1552 -0.2240
  950MOL0     C25296  11.090   8.713   4.014  0.1145  0.5688 -0.2627
  950MOL0     C25297  11.206   8.805   3.995 -0.8217  0.6108  0.1497
  950MOL0     O25298  11.307   8.753   3.913  0.4987 -0.8250 -0.3070
  950MOL0     C25299  11.422   8.828   3.891  0.6565  0.4342 -0.6656
  950MOL0     C25300  11.500   8.887   3.996 -0.2934 -1.0853  0.4788
  950MOL0     C25301  11.620   8.965   3.966 -0.5856  0.5676 -0.0667
  950MOL0     C25302  11.660   8.969   3.830 -0.3120 -0.2955  0.3868
  950MOL0     O25303  11.774   9.043   3.808 -0.9271  0.2319  0.3623
  950MOL0     C25304  11.811   9.075   3.666  1.3351 -0.6189  0.1341
  950MOL0     C25305  11.883   9.205   3.663  1.0078 -0.1076 -0.2909
  950MOL0     C25306  11.795   9.337   3.644 -0.5762  0.5590 -0.4420
  950MOL0     C25307  11.866   9.469   3.679  0.1606  0.0214  0.3612
  950MOL0     C25308  11.987   9.498   3.587  0.6606 -0.5328  0.7019
  950MOL0     C25309  11.967   9.504   3.430  0.3567  0.0878 -1.0979
  950MOL0     C25310  11.885   9.618   3.381  0.0429 -0.5971 -0.0202
  950MOL0     C25311  11.742   9.566   3.361  0.1096 -0.8601  0.1873
  950MOL0    Cl25312  11.640   9.706   3.301 -0.4251 -1.2584  0.5277
  950MOL0     C25313  11.592   8.899   3.731  0.5040  0.7082 -0.6190
  950MOL0     C25314  11.472   8.833   3.763 -0.0744  0.5285 -0.7382
  950MOL0     O25315  11.216   8.913   4.051  0.7280 -0.5073  0.9938
  950MOL0     C25316  11.081   8.593   3.936  0.7945  0.6871  0.8454
  950MOL0     C25317  10.967   8.521   3.938  0.3459 -0.0929 -0.7746
  950MOL0     N25318  10.202   8.383   4.010 -0.0352  0.5770 -0.0170
  950MOL0     N25319  10.087   8.421   3.999 -0.1232 -0.1924 -0.7264
  950MOL0     C25320  10.653   8.366   3.237  0.0325  0.2311 -1.1025
  950MOL0     C25321  10.771   8.294   3.228  0.4205 -0.3473 -0.0204
  950MOL0     C25322  11.056   7.926   3.217  0.4895  0.5005  0.0632
  950MOL0     C25323  11.106   7.801   3.170  0.7022 -0.2593 -0.1824
  950MOL0     C25324  11.229   7.749   3.211  0.5977  0.7382 -0.3229
  950MOL0     C25325  11.297   7.816   3.309  0.4348  0.6270  0.0267
  950MOL0     O25326  11.418   7.779   3.372 -0.2384 -0.1301  0.1896
  950MOL0     C25327  11.465   7.648   3.352  0.0550  0.0146 -0.0323
  950MOL0     C25328  11.528   7.645   3.217 -0.4079  0.0376  0.1596
  950MOL0     C25329  11.600   7.505   3.174 -0.1251 -0.1519  0.8596
  950MOL0     C25330  11.507   7.388   3.168 -0.5842 -0.8755 -0.5001
  950MOL0     C25331  11.571   7.272   3.101  0.1931 -0.5925 -0.1808
  950MOL0     C25332  11.597   7.170   3.037 -0.0602  0.0464  0.9220
  950MOL0     C25333  11.249   7.936   3.355 -0.7293  0.1624 -0.4040
  950MOL0     C25334  11.126   7.991   3.321  0.1780  0.8848  0.4694
  950MOL0     H25335  10.642   7.983   3.187  0.5470 -0.7393 -0.4131
  950MOL0     H25336  10.431   8.108   3.186 -0.1931  2.0707 -2.4208
  950MOL0     H25337  10.269   8.244   3.274  0.4117  0.9420  0.3706
  950MOL0     H25338  10.321   8.298   3.107 -0.5856  0.2249 -0.1227
  950MOL0     H25339  10.103   8.406   3.123 -1.4775  2.3437  0.4254
  950MOL0     H25340  10.247   8.508   3.144  1.5062 -1.0984 -0.2498
  950MOL0     H25341  10.064   8.572   3.308  1.8142  2.0729  1.9528
  950MOL0     H25342  10.207   8.511   3.395  2.1554 -0.4074 -2.3557
  950MOL0     H25343  10.000   8.302   3.334 -1.8107 -1.7234  4.1018
  950MOL0     H25344  10.128   8.316   3.450  1.2324 -1.7510 -2.9081
  950MOL0     H25345   9.887   8.318   3.534 -1.3459 -0.0454  0.3099
  950MOL0     H25346   9.876   8.488   3.476  0.5021 -0.1776  0.4036
  950MOL0     H25347  10.052   8.564   3.594  0.6012 -1.7385 -1.2174
  950MOL0     H25348  10.079   8.401   3.676 -0.9319 -1.8243 -0.1580
  950MOL0     H25349   9.821   8.555   3.688  0.0873 -0.4878 -0.5089
  950MOL0     H25350   9.843   8.416   3.771 -0.4172  0.0700 -0.1662
  950MOL0     H25351   9.890   8.592   3.942 -1.1366 -2.3805 -1.0198
  950MOL0     H25352   9.980   8.682   3.835  1.9791 -0.3696  0.5073
  950MOL0     H25353  10.262   8.630   3.816  1.1695  1.2550  0.6764
  950MOL0     H25354  10.476   8.525   3.878 -2.1678  1.5131  0.7702
  950MOL0     H25355  10.447   8.357   3.797  0.0561 -2.2687  1.2950
  950MOL0     H25356  10.610   8.291   3.973 -0.0707 -0.4951  2.1190
  950MOL0     H25357  10.452   8.237   4.023  1.0928 -0.3109  0.4537
  950MOL0     H25358  10.429   8.466   4.145 -0.0776 -0.5023 -0.9415
  950MOL0     H25359  10.530   8.340   4.206 -0.0636  0.4654  0.3457
  950MOL0     H25360  10.683   8.505   4.236 -0.4653 -0.2742 -0.0512
  950MOL0     H25361  10.602   8.606   4.122 -1.0044 -0.7659  0.3637
  950MOL0     H25362  10.795   8.686   4.166  0.0865  2.5374  0.0974
  950MOL0     H25363  10.998   8.846   4.157 -1.0668  0.1459 -0.1972
  950MOL0     H25364  11.473   8.884   4.101  0.4075  1.7522  0.8246
  950MOL0     H25365  11.686   9.023   4.029  1.1293 -0.6773 -0.6608
  950MOL0     H25366  11.722   9.089   3.604  0.8906 -0.7219  0.7443
  950MOL0     H25367  11.861   8.986   3.627 -2.3256 -1.8737 -2.2226
  950MOL0     H25368  11.947   9.206   3.575  3.5576 -1.1283  1.4436
  950MOL0     H25369  11.951   9.221   3.748  0.2399  1.1565  0.1173
  950MOL0     H25370  11.714   9.334   3.717  0.1766  2.5794  0.5666
  950MOL0     H25371  11.757   9.336   3.542  0.0459 -0.0662 -0.6793
  950MOL0     H25372  11.798   9.554   3.669  1.7699  1.3013 -0.1749
  950MOL0     H25373  11.906   9.461   3.780  1.7238  0.0734 -0.2210
  950MOL0     H25374  12.063   9.420   3.590 -1.7191 -2.9387  3.8218
  950MOL0     H25375  12.030   9.592   3.622 -2.2286  0.4499  1.8858
  950MOL0     H25376  11.923   9.407   3.405 -0.6615  0.0355  0.6556
  950MOL0     H25377  12.067   9.527   3.393  0.3391  0.7936 -0.7391
  950MOL0     H25378  11.887   9.696   3.458 -0.2305  0.3052 -0.9124
  950MOL0     H25379  11.923   9.644   3.282 -0.9764 -3.1152 -1.1525
  950MOL0     H25380  11.704   9.521   3.454 -1.7319  0.1856 -0.0003
  950MOL0     H25381  11.737   9.502   3.273 -1.4729 -2.1980  1.1879
  950MOL0     H25382  11.620   8.901   3.626 -1.0697 -0.2020 -1.0873
  950MOL0     H25383  11.419   8.792   3.679  0.0223 -0.5377 -0.2945
  950MOL0     H25384  11.159   8.558   3.870 -0.3959  0.7932 -0.6586
  950MOL0     H25385  10.950   8.434   3.876  4.1242 -1.4046 -0.2241
  950MOL0     H25386  10.653   8.472   3.257  0.2678 -0.4394  3.2711
  950MOL0     H25387  10.862   8.352   3.233 -0.4342  1.0143  0.2652
  950MOL0     H25388  11.047   7.763   3.087 -0.8779 -0.9753  1.2159
  950MOL0     H25389  11.253   7.667   3.143 -2.3910 -0.9162  0.4337
  950MOL0     H25390  11.391   7.569   3.368  1.6013 -1.2753  1.0330
  950MOL0     H25391  11.548   7.624   3.419  3.0660  0.7277 -3.2441
  950MOL0     H25392  11.458   7.661   3.135 -1.5177 -1.0065  0.8781
  950MOL0     H25393  11.603   7.724   3.213  2.8551 -2.4350  4.3220
  950MOL0     H25394  11.680   7.476   3.242  2.6277  2.1025 -1.1555
  950MOL0     H25395  11.642   7.522   3.074  1.1535 -0.7344  1.2757
  950MOL0     H25396  11.480   7.358   3.270  0.1226  2.2075  0.6888
  950MOL0     H25397  11.418   7.420   3.113  0.7574 -0.8084 -2.7128
  950MOL0     H25398  11.608   7.078   2.983 -2.0752  1.2742 -1.8752
  950MOL0     H25399  11.302   7.989   3.433 -3.0085  0.3407  1.1032
  950MOL0     H25400  11.082   8.086   3.349 -1.1123  0.4119  0.1256
  951MOL0     O25401   7.110   3.877   6.605 -0.1958 -0.5015 -0.3759
  951MOL0     C25402   6.995   3.903   6.556  0.0260  0.2684 -0.7895
  951MOL0     O25403   6.873   3.857   6.607 -0.3018 -0.0510 -0.1441
  951MOL0     C25404   6.871   3.810   6.734  1.1205 -0.4070 -0.1689
  951MOL0     C25405   6.787   3.888   6.812 -0.6390  0.4043 -0.6681
  951MOL0     C25406   6.746   3.846   6.941 -0.2637 -1.3054 -0.7915
  951MOL0     C25407   6.791   3.726   6.999  0.8295 -0.0380 -0.3117
  951MOL0     O25408   6.745   3.701   7.128 -0.7036 -0.2460 -1.0373
  951MOL0     C25409   6.764   3.578   7.197  0.2871 -0.0836  0.2698
  951MOL0     C25410   6.684   3.593   7.328  0.2955 -0.0288  0.6438
  951MOL0     C25411   6.716   3.490   7.433 -0.5186  0.2643 -0.0707
  951MOL0     C25412   6.657   3.515   7.560  0.3310  0.5848 -0.7326
  951MOL0     C25413   6.616   3.395   7.650  0.5467  0.1191 -0.4100
  951MOL0     C25414   6.513   3.442   7.768 -0.0435 -0.0869  1.2246
  951MOL0     C25415   6.585   3.493   7.885 -0.8709  0.7834  0.0094
  951MOL0     C25416   6.485   3.513   8.003 -0.1270  0.5501 -0.4236
  951MOL0     N25417   6.546   3.596   8.105 -0.7223  0.1606 -0.6344
  951MOL0     C25418   6.545   3.730   8.085 -0.3490 -0.2613 -0.8485
  951MOL0     C25419   6.577   3.778   8.209 -0.3048  0.4306 -0.2230
  951MOL0     C25420   6.579   3.923   8.241  0.2875  0.0037  0.1128
  951MOL0     C25421   6.436   3.968   8.267  0.2256 -0.4209 -1.8037
  951MOL0     C25422   6.356   3.876   8.361  0.2624  0.8154  0.5353
  951MOL0     C25423   6.225   3.940   8.394 -0.7642  0.1835  0.4525
  951MOL0     O25424   6.146   3.999   8.286  0.3630  0.4316 -0.4546
  951MOL0     C25425   6.091   4.112   8.331 -0.3342  0.6101  0.8087
  951MOL0     C25426   6.139   4.229   8.269 -0.2574 -0.1110 -0.1477
  951MOL0     C25427   6.069   4.347   8.279 -0.4441 -0.4475  0.7103
  951MOL0     C25428   5.955   4.350   8.366 -0.6011 -0.0140 -0.3036
  951MOL0     C25429   5.913   4.482   8.399  0.6687  0.9531 -0.2160
  951MOL0     O25430   5.818   4.493   8.492  0.4967  0.8180  0.7823
  951MOL0     C25431   5.767   4.621   8.519 -1.4371  0.8738 -0.0395
  951MOL0     C25432   5.663   4.676   8.441  0.2839 -1.1188 -0.6209
  951MOL0     C25433   5.607   4.795   8.493 -0.5513  0.2418  0.7961
  951MOL0     C25434   5.662   4.864   8.605  0.4742 -0.0569 -0.8272
  951MOL0     O25435   5.600   4.985   8.638  0.1928  0.3192 -0.0286
  951MOL0     C25436   5.623   5.041   8.768 -0.5483  0.2147 -0.3901
  951MOL0     C25437   5.533   5.169   8.805 -0.2807 -0.0581 -0.8900
  951MOL0     C25438   5.388   5.130   8.831  1.4628  0.2263  0.0404
  951MOL0     C25439   5.319   5.076   8.706 -0.0446  0.5862 -0.2523
  951MOL0     C25440   5.177   5.126   8.697  0.4738  0.0367  0.0035
  951MOL0     C25441   5.086   5.026   8.766  0.3745  0.2077  0.6065
  951MOL0     C25442   4.938   5.062   8.750  0.6763  0.0021  0.7389
  951MOL0     C25443   4.861   5.014   8.880 -0.4899 -0.0596  0.5717
  951MOL0    Cl25444   4.688   5.012   8.825  0.0437 -0.2563 -0.0929
  951MOL0     C25445   5.763   4.802   8.676 -1.0812  0.9215  0.0307
  951MOL0     C25446   5.820   4.684   8.632  0.5082  0.0463 -0.0797
  951MOL0     O25447   5.973   4.579   8.345 -0.1974 -0.2422  0.0070
  951MOL0     C25448   5.907   4.236   8.429  0.2225  0.7482 -0.0166
  951MOL0     C25449   5.976   4.116   8.404 -0.3314 -0.0510 -1.2881
  951MOL0     N25450   6.596   3.671   8.300  0.5124  0.2161  0.0203
  951MOL0     N25451   6.577   3.561   8.237  0.6424  0.4647  0.3613
  951MOL0     C25452   6.878   3.649   6.923 -0.0535  0.4285  0.9867
  951MOL0     C25453   6.906   3.684   6.788 -0.6653 -0.0431 -0.3084
  951MOL0     C25454   6.980   3.962   6.426  0.1651 -0.5289 -0.2140
  951MOL0     C25455   7.095   4.013   6.352  1.0218 -0.0325 -0.5736
  951MOL0     C25456   7.083   4.058   6.224 -0.9613 -0.6510  0.5021
  951MOL0     C25457   6.958   4.062   6.168 -1.4862 -1.6224 -0.2280
  951MOL0     O25458   6.939   4.134   6.047 -0.5546  0.6042 -0.0882
  951MOL0     C25459   6.823   4.215   6.047  1.3282  0.0307  1.1547
  951MOL0     C25460   6.812   4.308   5.922 -0.2969 -0.3545  0.6895
  951MOL0     C25461   6.741   4.247   5.797 -0.6706 -0.2927 -0.8703
  951MOL0     C25462   6.811   4.152   5.706 -0.2830  0.4793 -0.3641
  951MOL0     C25463   6.847   4.033   5.776 -0.5566 -0.3169  0.2671
  951MOL0     C25464   6.882   3.938   5.846 -0.8864  0.6051  0.3305
  951MOL0     C25465   6.848   4.016   6.242  0.6871 -0.0737 -0.1847
  951MOL0     C25466   6.853   3.974   6.373 -0.2020 -0.1798  0.1824
  951MOL0     H25467   6.737   3.971   6.763 -2.0080 -0.1312 -0.2026
  951MOL0     H25468   6.674   3.913   6.987 -1.2796 -3.5469  1.0664
  951MOL0     H25469   6.867   3.546   7.214  0.8296  1.8484  0.9550
  951MOL0     H25470   6.722   3.507   7.126  0.2096  0.7622 -0.5584
  951MOL0     H25471   6.577   3.590   7.305  0.6381  0.5267 -1.2622
  951MOL0     H25472   6.697   3.691   7.374 -1.5604 -0.6623  2.7081
  951MOL0     H25473   6.825   3.494   7.445 -0.5148 -1.5036  0.9086
  951MOL0     H25474   6.685   3.391   7.397  4.1047 -2.0112  1.4273
  951MOL0     H25475   6.724   3.573   7.624 -1.3522  0.1371  1.6168
  951MOL0     H25476   6.568   3.574   7.539 -1.1350 -2.1702 -2.9592
  951MOL0     H25477   6.705   3.356   7.701 -1.1445  0.9659  3.5771
  951MOL0     H25478   6.558   3.324   7.591 -1.8181  0.7344  1.0164
  951MOL0     H25479   6.446   3.358   7.785 -0.6397  0.1997  0.4005
  951MOL0     H25480   6.452   3.530   7.742 -1.7040 -1.1397  1.3947
  951MOL0     H25481   6.653   3.419   7.928 -0.6355  2.0676  1.9817
  951MOL0     H25482   6.633   3.589   7.862 -0.2286  1.3220  3.0738
  951MOL0     H25483   6.467   3.412   8.040 -2.1887  1.8751  2.7257
  951MOL0     H25484   6.387   3.544   7.965 -0.1011  0.0329 -0.9148
  951MOL0     H25485   6.549   3.793   7.997 -0.3490  0.8789 -0.0562
  951MOL0     H25486   6.626   3.985   8.165  1.9336  1.5145  2.2456
  951MOL0     H25487   6.639   3.946   8.330  0.2574  1.4006 -0.2114
  951MOL0     H25488   6.381   3.987   8.175 -1.3387 -1.6615 -1.1751
  951MOL0     H25489   6.449   4.066   8.315 -1.0648 -0.8429 -0.4903
  951MOL0     H25490   6.338   3.781   8.309  2.5168  0.1345  0.9250
  951MOL0     H25491   6.401   3.849   8.456  1.3879  0.4715 -0.0837
  951MOL0     H25492   6.246   4.010   8.475  1.8658  0.6079 -0.4862
  951MOL0     H25493   6.161   3.863   8.437 -1.4124 -1.3793 -2.9914
  951MOL0     H25494   6.216   4.214   8.195 -0.2323 -0.4789 -0.0473
  951MOL0     H25495   6.120   4.432   8.236 -0.4633 -2.3313 -3.4588
  951MOL0     H25496   5.626   4.612   8.361  1.5069  0.8542 -2.9070
  951MOL0     H25497   5.518   4.844   8.453 -1.1167 -0.6970  0.8754
  951MOL0     H25498   5.727   5.073   8.778  0.1387 -2.4636  2.6022
  951MOL0     H25499   5.606   4.965   8.845  1.2864  0.5809  0.4247
  951MOL0     H25500   5.541   5.250   8.732  1.8408  1.6681  1.1217
  951MOL0     H25501   5.558   5.225   8.895 -3.8255 -0.0190  0.1974
  951MOL0     H25502   5.340   5.223   8.864  1.1045 -0.5935  1.9507
  951MOL0     H25503   5.370   5.063   8.915 -0.7023  1.7022  0.8677
  951MOL0     H25504   5.361   5.111   8.611 -1.8699 -0.2387 -1.4255
  951MOL0     H25505   5.333   4.968   8.704  0.6113  0.6026  1.4290
  951MOL0     H25506   5.147   5.126   8.592  1.8771 -1.8466 -0.4451
  951MOL0     H25507   5.169   5.228   8.736  2.2578 -0.3435  1.5145
  951MOL0     H25508   5.112   5.022   8.873 -3.2476  3.2004  1.8144
  951MOL0     H25509   5.123   4.938   8.711  0.4260  1.2775 -1.1319
  951MOL0     H25510   4.918   5.168   8.737 -1.2440 -0.6195 -2.9485
  951MOL0     H25511   4.902   5.004   8.664  0.9492  1.1484 -0.1616
  951MOL0     H25512   4.882   5.075   8.968  1.1581  0.2749 -0.0061
  951MOL0     H25513   4.879   4.909   8.903  3.0765  0.1190 -0.7789
  951MOL0     H25514   5.799   4.836   8.772 -0.2238 -1.8507  0.7930
  951MOL0     H25515   5.894   4.630   8.691 -0.3248  0.9979  1.9271
  951MOL0     H25516   5.821   4.234   8.495  1.3590  1.8414  1.5940
  951MOL0     H25517   5.950   4.021   8.450 -0.3507 -0.1122 -1.4261
  951MOL0     H25518   6.908   3.555   6.966  1.0116  0.3430  0.1071
  951MOL0     H25519   6.969   3.613   6.735  1.1790 -0.1031  1.7959
  951MOL0     H25520   7.192   4.007   6.401  1.7179  0.3329 -1.8609
  951MOL0     H25521   7.165   4.104   6.171 -0.6208 -1.2515  0.4925
  951MOL0     H25522   6.831   4.284   6.131 -0.5072  2.3092 -0.4065
  951MOL0     H25523   6.727   4.164   6.050  1.5421 -0.7555 -1.8903
  951MOL0     H25524   6.754   4.394   5.956  0.8426  1.0645 -0.7534
  951MOL0     H25525   6.912   4.342   5.893 -1.1668  3.8773  1.9666
  951MOL0     H25526   6.711   4.335   5.739 -3.7936  0.2451  1.2737
  951MOL0     H25527   6.648   4.199   5.830 -0.0069 -2.3302 -1.8046
  951MOL0     H25528   6.740   4.116   5.632 -0.4142  1.8142 -0.9106
  951MOL0     H25529   6.900   4.205   5.672 -1.2769  1.8599 -0.8835
  951MOL0     H25530   6.903   3.860   5.917 -1.2357  0.3139  0.1183
  951MOL0     H25531   6.750   4.015   6.194  0.5917 -1.4159 -0.0223
  951MOL0     H25532   6.763   3.961   6.431 -0.6740  3.3612  0.5100
  952MOL0     O25533   7.900   2.579   6.239 -0.0442  0.1276  0.0908
  952MOL0     C25534   7.997   2.540   6.166  0.1033  0.2673  0.3064
  952MOL0     O25535   8.124   2.500   6.220 -1.1932 -1.0303 -0.7945
  952MOL0     C25536   8.141   2.486   6.357  0.0152  0.0727 -0.3401
  952MOL0     C25537   8.217   2.590   6.419 -0.3265  1.1870  0.7203
  952MOL0     C25538   8.260   2.567   6.551 -0.2623 -0.2210 -0.2425
  952MOL0     C25539   8.234   2.449   6.625 -0.3060 -0.1947  0.7021
  952MOL0     O25540   8.296   2.441   6.750 -0.0823 -0.0013  1.0044
  952MOL0     C25541   8.293   2.310   6.807 -0.3249 -0.2302  0.1832
  952MOL0     C25542   8.381   2.321   6.926  0.6540 -0.5759  0.2978
  952MOL0     C25543   8.327   2.404   7.041  0.0921 -0.8118  0.6292
  952MOL0     C25544   8.438   2.406   7.151 -0.4603  0.1433  0.1191
  952MOL0     C25545   8.377   2.458   7.288 -0.8933  0.3165  0.5286
  952MOL0     C25546   8.316   2.602   7.290 -0.4341 -0.0567 -0.7053
  952MOL0     C25547   8.425   2.710   7.310 -0.0261  0.2050 -0.1707
  952MOL0     C25548   8.380   2.828   7.395  0.4064  0.0424 -0.2745
  952MOL0     N25549   8.479   2.938   7.422  0.7527  0.4782  0.2484
  952MOL0     C25550   8.611   2.926   7.442  0.2401  0.8411  0.4513
  952MOL0     C25551   8.665   3.050   7.422  0.1356 -0.0140 -0.4000
  952MOL0     C25552   8.808   3.095   7.434  0.3205  0.0824 -0.2647
  952MOL0     C25553   8.822   3.203   7.541 -0.4793 -0.4136 -0.6385
  952MOL0     C25554   8.824   3.145   7.685 -1.1172  0.1599 -0.6182
  952MOL0     C25555   8.959   3.072   7.704  0.4812  0.8845  0.6503
  952MOL0     O25556   9.014   3.103   7.836  0.0176  0.5833 -0.3069
  952MOL0     C25557   9.153   3.094   7.841  1.0492  0.1208  0.9642
  952MOL0     C25558   9.228   3.193   7.897 -0.4208  0.8415 -0.9265
  952MOL0     C25559   9.374   3.178   7.895  0.7995 -0.1387  0.1317
  952MOL0     C25560   9.433   3.078   7.820 -1.0231 -0.3838  0.3610
  952MOL0     C25561   9.583   3.070   7.812  0.2420 -0.3329 -0.5639
  952MOL0     O25562   9.638   2.976   7.728 -0.3213  0.1242  0.2907
  952MOL0     C25563   9.773   3.001   7.692 -0.4263 -0.1339  0.1067
  952MOL0     C25564   9.869   2.911   7.716  0.2702  0.0146  0.1522
  952MOL0     C25565   9.999   2.919   7.671  0.7006  0.6098  0.4339
  952MOL0     C25566  10.032   3.019   7.577  0.4823 -0.3777  0.5439
  952MOL0     O25567  10.150   3.036   7.514  0.3637  0.2298 -0.0972
  952MOL0     C25568  10.265   3.041   7.603 -0.2667  0.7348  0.1394
  952MOL0     C25569  10.401   3.071   7.528 -0.1369  0.1265  0.7752
  952MOL0     C25570  10.397   3.216   7.484 -0.4297  0.6970 -1.0766
  952MOL0     C25571  10.529   3.267   7.422 -0.8362  0.4471 -0.4451
  952MOL0     C25572  10.497   3.396   7.333  0.9029  0.1745  0.2015
  952MOL0     C25573  10.378   3.495   7.372 -0.5326  0.0903 -0.4915
  952MOL0     C25574  10.380   3.605   7.265  0.7049 -0.4024 -0.1226
  952MOL0     C25575  10.273   3.710   7.301 -0.3573 -0.1291  0.0062
  952MOL0    Cl25576  10.113   3.648   7.335  0.3323 -0.1146 -0.2477
  952MOL0     C25577   9.933   3.109   7.551  0.7560 -0.2918  0.8832
  952MOL0     C25578   9.801   3.098   7.597 -0.1292  0.1315 -1.2641
  952MOL0     O25579   9.651   3.159   7.871 -0.5169  1.1113 -0.3325
  952MOL0     C25580   9.351   2.978   7.766 -0.3301  0.8534 -0.0819
  952MOL0     C25581   9.217   2.986   7.777  0.4534  0.3470  0.6464
  952MOL0     N25582   8.552   3.139   7.389 -0.8488  0.6875  0.4445
  952MOL0     N25583   8.448   3.065   7.394 -0.6113  0.2154  0.8667
  952MOL0     C25584   8.151   2.356   6.561 -0.8057 -0.2993  0.3614
  952MOL0     C25585   8.102   2.372   6.430  0.2819  0.1126  0.2503
  952MOL0     C25586   7.982   2.561   6.025 -0.3567 -0.1656  0.6888
  952MOL0     C25587   8.086   2.528   5.938  0.2519  0.2318  0.8735
  952MOL0     C25588   8.082   2.541   5.799 -0.8218  0.0266 -0.7142
  952MOL0     C25589   7.967   2.609   5.748  1.2762  0.8166 -0.3140
  952MOL0     O25590   7.952   2.650   5.619  0.3840  0.7421 -0.0466
  952MOL0     C25591   8.051   2.608   5.518 -0.5762 -0.5637 -0.6440
  952MOL0     C25592   8.151   2.719   5.519 -1.2466  0.4550 -0.0142
  952MOL0     C25593   8.274   2.684   5.439 -1.4984 -0.7896 -0.1502
  952MOL0     C25594   8.375   2.808   5.441 -0.1214  0.2281  0.5976
  952MOL0     C25595   8.435   2.853   5.563 -0.6582  0.6239  0.6453
  952MOL0     C25596   8.476   2.884   5.665 -0.5112 -0.9007  0.7831
  952MOL0     C25597   7.855   2.646   5.825  0.5301 -0.4313 -1.1117
  952MOL0     C25598   7.864   2.623   5.960 -0.5311  0.6813  0.2279
  952MOL0     H25599   8.243   2.679   6.363 -0.9582  1.3205  0.6350
  952MOL0     H25600   8.318   2.645   6.599 -1.2612  1.9750 -2.4004
  952MOL0     H25601   8.337   2.236   6.738  0.3515 -1.9437  2.3341
  952MOL0     H25602   8.192   2.273   6.824 -2.0557  3.5383 -0.9156
  952MOL0     H25603   8.472   2.372   6.894 -0.6398  3.5640  2.4852
  952MOL0     H25604   8.413   2.220   6.951  0.8099 -0.4666  0.5363
  952MOL0     H25605   8.245   2.342   7.077 -0.3783 -0.6104 -0.0818
  952MOL0     H25606   8.293   2.502   7.005  0.7237 -1.1888 -1.0874
  952MOL0     H25607   8.467   2.304   7.174 -1.6711 -0.1369  0.4803
  952MOL0     H25608   8.530   2.461   7.130  0.6059 -1.4658  0.4813
  952MOL0     H25609   8.460   2.464   7.359 -0.1181  2.3201 -0.4569
  952MOL0     H25610   8.302   2.388   7.327 -0.1974 -1.5826 -1.3930
  952MOL0     H25611   8.243   2.615   7.370  0.0846  0.2443 -0.2771
  952MOL0     H25612   8.273   2.627   7.192  1.4712  0.3684 -1.4833
  952MOL0     H25613   8.511   2.676   7.368 -1.4527  0.0820  1.9527
  952MOL0     H25614   8.466   2.744   7.214  0.6002  1.4585  0.5126
  952MOL0     H25615   8.341   2.788   7.489  1.6672  1.1431  0.7430
  952MOL0     H25616   8.294   2.860   7.336  1.9560 -1.3417 -3.5765
  952MOL0     H25617   8.668   2.834   7.455 -1.4510 -0.1225  1.3976
  952MOL0     H25618   8.854   3.124   7.339  1.9787 -0.9702  0.1631
  952MOL0     H25619   8.871   3.010   7.462  0.3935  0.4940  0.8819
  952MOL0     H25620   8.736   3.269   7.526  0.1000  0.4992 -0.0384
  952MOL0     H25621   8.912   3.254   7.507 -1.4159  2.9145  1.3295
  952MOL0     H25622   8.825   3.230   7.754  0.4853 -1.3906  1.3995
  952MOL0     H25623   8.743   3.081   7.721  0.5224 -1.9022 -0.4565
  952MOL0     H25624   9.024   3.101   7.621  0.0527  0.1486  0.0523
  952MOL0     H25625   8.944   2.964   7.700 -0.6081  1.0051  1.1285
  952MOL0     H25626   9.186   3.279   7.948 -0.5640  1.0863 -1.4520
  952MOL0     H25627   9.437   3.246   7.952  0.5505 -0.1479  0.4170
  952MOL0     H25628   9.859   2.826   7.783  3.6769  0.4483  1.3728
  952MOL0     H25629  10.072   2.847   7.708  1.7412  1.1127 -0.5420
  952MOL0     H25630  10.273   2.940   7.645  0.6401 -0.5129 -2.7176
  952MOL0     H25631  10.249   3.095   7.696 -2.5076 -0.6027  0.5905
  952MOL0     H25632  10.401   3.010   7.437  3.5745 -1.3583  1.6034
  952MOL0     H25633  10.490   3.042   7.584  0.5090  0.6837  0.0602
  952MOL0     H25634  10.378   3.281   7.570 -3.8996  0.9212 -1.8686
  952MOL0     H25635  10.317   3.241   7.414  0.3889  2.9507 -1.2948
  952MOL0     H25636  10.593   3.282   7.510  0.4891 -0.2175 -1.2611
  952MOL0     H25637  10.582   3.196   7.358  4.0078  4.1176 -1.1311
  952MOL0     H25638  10.461   3.353   7.238 -0.9366  1.4697  0.2545
  952MOL0     H25639  10.589   3.452   7.317  2.6874 -2.1230  1.7822
  952MOL0     H25640  10.405   3.531   7.472  1.9674 -0.0966 -1.0338
  952MOL0     H25641  10.282   3.442   7.377  0.8345 -2.4177  1.9792
  952MOL0     H25642  10.475   3.659   7.261  1.9772 -2.5734 -0.7064
  952MOL0     H25643  10.359   3.557   7.169  2.3277 -0.4712 -0.4797
  952MOL0     H25644  10.281   3.788   7.225 -3.7018 -0.4062 -0.7817
  952MOL0     H25645  10.306   3.756   7.395  2.2999 -1.1094 -0.3529
  952MOL0     H25646   9.969   3.174   7.471  0.0167 -0.8462  0.0783
  952MOL0     H25647   9.725   3.166   7.559  1.7532  2.2883 -1.4697
  952MOL0     H25648   9.399   2.889   7.726  0.2334  0.5631  1.1872
  952MOL0     H25649   9.149   2.910   7.743  0.6894  0.9301 -1.2361
  952MOL0     H25650   8.122   2.268   6.618 -2.3028  0.5665  1.0206
  952MOL0     H25651   8.025   2.304   6.396 -0.0653 -0.5926  2.3273
  952MOL0     H25652   8.174   2.488   5.988 -0.8517 -0.3733  2.4406
  952MOL0     H25653   8.170   2.519   5.740  0.8261  1.4956  1.0590
  952MOL0     H25654   8.005   2.604   5.418 -1.4007  1.9293 -0.4340
  952MOL0     H25655   8.101   2.512   5.531  1.5911  0.2822 -2.1346
  952MOL0     H25656   8.112   2.812   5.477 -2.9977 -0.3360 -0.2035
  952MOL0     H25657   8.189   2.751   5.617 -1.7024  0.1471  0.2624
  952MOL0     H25658   8.241   2.680   5.335  0.7616 -0.3856 -0.9542
  952MOL0     H25659   8.330   2.595   5.471 -0.7082 -0.0333  0.6498
  952MOL0     H25660   8.454   2.784   5.370  1.0214  1.8776  1.2734
  952MOL0     H25661   8.325   2.895   5.396  0.6053  1.9325  2.9214
  952MOL0     H25662   8.498   2.932   5.759 -1.7731 -2.9963  2.2392
  952MOL0     H25663   7.768   2.703   5.795  0.3943  0.0303  0.1160
  952MOL0     H25664   7.779   2.649   6.022 -1.6608  1.6322 -1.6132
  953MOL0     O25665   9.073   8.208  10.745  0.0167  0.4140 -0.1476
  953MOL0     C25666   9.051   8.095  10.706  1.1641 -0.5296 -0.3969
  953MOL0     O25667   8.971   7.995  10.771  0.1354 -0.6053  0.6693
  953MOL0     C25668   8.902   8.006  10.889  0.3536 -0.4965 -0.0318
  953MOL0     C25669   8.805   7.917  10.920 -0.3617  0.0986 -0.7238
  953MOL0     C25670   8.733   7.902  11.043  0.4183 -0.0012  0.2339
  953MOL0     C25671   8.759   8.005  11.140 -0.0264  0.9929  0.1795
  953MOL0     O25672   8.693   8.016  11.261 -0.2471 -0.3398  0.3431
  953MOL0     C25673   8.611   7.917  11.311  0.3537  0.4017  0.2823
  953MOL0     C25674   8.546   7.941  11.448 -0.0358  0.0932 -0.1605
  953MOL0     C25675   8.437   8.054  11.453  0.0407 -0.4103 -0.5155
  953MOL0     C25676   8.371   8.087  11.595 -0.8184  0.3039  0.1215
  953MOL0     C25677   8.264   8.190  11.587  1.4263  0.2634  0.1310
  953MOL0     C25678   8.127   8.146  11.523  0.1398 -0.6530  0.3919
  953MOL0     C25679   8.067   8.032  11.618 -0.6802  0.1924  0.3647
  953MOL0     C25680   7.947   7.959  11.547  0.2567 -0.6052 -0.1931
  953MOL0     N25681   7.981   7.849  11.465 -0.0212 -0.3602 -0.2052
  953MOL0     C25682   7.897   7.757  11.407  0.2729  0.4616 -0.1793
  953MOL0     C25683   7.975   7.675  11.341  0.5271 -0.2382  0.5948
  953MOL0     C25684   7.924   7.565  11.247  0.3220  0.0502  0.0160
  953MOL0     C25685   7.913   7.612  11.106  0.6186 -0.4513 -0.2693
  953MOL0     C25686   8.055   7.633  11.044 -0.6128 -0.0835  0.7487
  953MOL0     C25687   8.084   7.787  11.011  1.6746  0.4465 -0.2238
  953MOL0     O25688   8.225   7.822  11.003  0.2610 -0.4883 -0.0387
  953MOL0     C25689   8.291   7.807  10.883  0.6267 -0.5693 -0.3183
  953MOL0     C25690   8.262   7.719  10.778  0.0586  0.0791 -0.5990
  953MOL0     C25691   8.339   7.717  10.661 -0.0217  0.5209 -0.8302
  953MOL0     C25692   8.462   7.798  10.649 -0.4160 -0.2470 -0.1582
  953MOL0     C25693   8.546   7.807  10.525 -0.2755  0.5531 -1.1199
  953MOL0     O25694   8.496   7.738  10.426  0.0277 -0.0392  0.3043
  953MOL0     C25695   8.572   7.701  10.313  0.0098 -0.5163 -1.2061
  953MOL0     C25696   8.516   7.717  10.177 -0.5462 -0.1051 -1.0795
  953MOL0     C25697   8.588   7.653  10.073  0.2446  0.0273  0.0005
  953MOL0     C25698   8.706   7.585  10.086 -0.0446 -0.0183 -0.7063
  953MOL0     O25699   8.787   7.539   9.983 -1.5223  0.0514 -1.0662
  953MOL0     C25700   8.778   7.568   9.845  0.1898 -0.6119  0.7300
  953MOL0     C25701   8.745   7.434   9.772 -0.6004 -0.8932  0.7561
  953MOL0     C25702   8.686   7.435   9.633  0.1973 -0.1813 -1.0305
  953MOL0     C25703   8.717   7.307   9.553  0.3022  0.6432 -0.1515
  953MOL0     C25704   8.646   7.327   9.411 -0.8026  0.4791  0.1731
  953MOL0     C25705   8.686   7.231   9.309 -0.0069 -0.0235 -0.2793
  953MOL0     C25706   8.589   7.264   9.188  0.3118 -0.2606  0.5757
  953MOL0     C25707   8.583   7.162   9.075  0.9439  1.2298 -0.3502
  953MOL0    Cl25708   8.495   7.007   9.133  0.3187  0.4130  0.0580
  953MOL0     C25709   8.759   7.568  10.218  0.3885 -1.0443  0.5589
  953MOL0     C25710   8.696   7.633  10.326 -0.0617 -0.1273 -0.5381
  953MOL0     O25711   8.661   7.859  10.536  0.0585 -0.5033 -0.7412
  953MOL0     C25712   8.486   7.891  10.754 -0.3905  0.6282 -1.0536
  953MOL0     C25713   8.404   7.893  10.866  0.6084  0.1533  0.4265
  953MOL0     N25714   8.111   7.716  11.347 -0.1879  0.8000 -0.3746
  953MOL0     N25715   8.107   7.826  11.417 -0.0590 -0.5977 -0.2267
  953MOL0     C25716   8.867   8.093  11.112  0.3306 -0.5755 -0.2089
  953MOL0     C25717   8.940   8.091  10.993 -0.4258 -0.0012 -0.3012
  953MOL0     C25718   9.091   8.053  10.572  0.1639  0.3053  0.4019
  953MOL0     C25719   9.006   7.955  10.504  0.0974 -0.1564  0.0274
  953MOL0     C25720   9.047   7.906  10.382 -0.2162  0.1981 -0.2661
  953MOL0     C25721   9.167   7.955  10.321 -0.0987  0.1178 -0.2963
  953MOL0     O25722   9.188   7.912  10.194  1.4110 -0.3714  0.2045
  953MOL0     C25723   9.320   7.875  10.163 -0.7309  1.0746  0.5921
  953MOL0     C25724   9.317   7.739  10.087  0.4830  0.7556 -0.0277
  953MOL0     C25725   9.457   7.689  10.026  0.2355 -0.6237  0.0501
  953MOL0     C25726   9.521   7.778   9.921  0.2620  0.7919  0.1815
  953MOL0     C25727   9.460   7.806   9.799  0.0832 -0.5745 -0.3289
  953MOL0     C25728   9.398   7.843   9.699 -0.4471 -0.0641  0.1751
  953MOL0     C25729   9.243   8.052  10.386  0.4555 -0.2988 -0.0898
  953MOL0     C25730   9.203   8.105  10.508 -0.1136  0.3963  0.1512
  953MOL0     H25731   8.793   7.840  10.845 -2.4977 -0.3811  0.0685
  953MOL0     H25732   8.662   7.821  11.058 -2.3041  2.2456  0.3596
  953MOL0     H25733   8.674   7.827  11.312  0.9686  0.8148  1.4143
  953MOL0     H25734   8.528   7.913  11.241  0.7478  0.7214 -0.2090
  953MOL0     H25735   8.626   7.970  11.517  0.6212  1.2817 -1.3467
  953MOL0     H25736   8.498   7.848  11.476  0.0513 -0.2903 -1.2224
  953MOL0     H25737   8.356   8.029  11.384 -1.7127 -2.7139  2.1823
  953MOL0     H25738   8.486   8.142  11.410 -1.1495 -0.7361 -2.6839
  953MOL0     H25739   8.336   8.001  11.654  1.1835 -1.4218 -1.0592
  953MOL0     H25740   8.454   8.131  11.649 -0.8463  0.3174  0.1532
  953MOL0     H25741   8.296   8.273  11.524 -0.0719  2.4445  2.0501
  953MOL0     H25742   8.238   8.234  11.684 -3.4667 -2.2434  0.2694
  953MOL0     H25743   8.138   8.087  11.432 -2.1341 -0.4057 -0.0952
  953MOL0     H25744   8.058   8.230  11.510  3.0271  2.2320  2.0995
  953MOL0     H25745   8.142   7.953  11.633  1.9043  1.8783 -2.6189
  953MOL0     H25746   8.035   8.073  11.714 -0.6936 -0.4289  0.6325
  953MOL0     H25747   7.884   8.022  11.483 -2.5596 -0.5137  2.4065
  953MOL0     H25748   7.887   7.916  11.628 -0.4348  1.4816  0.4589
  953MOL0     H25749   7.789   7.747  11.407 -0.1919  3.7735 -2.6548
  953MOL0     H25750   7.827   7.525  11.279  0.9213 -0.0939  1.7599
  953MOL0     H25751   8.000   7.487  11.243 -0.0835 -0.4015 -5.2992
  953MOL0     H25752   7.854   7.705  11.107 -2.8608 -2.3779  3.6436
  953MOL0     H25753   7.864   7.540  11.039 -1.3604 -2.1204  2.7463
  953MOL0     H25754   8.130   7.579  11.103 -2.0999  0.1630  3.0025
  953MOL0     H25755   8.056   7.577  10.950  1.4081  0.6168  0.3145
  953MOL0     H25756   8.033   7.850  11.084  1.2331  3.7792 -3.1507
  953MOL0     H25757   8.036   7.831  10.924 -1.9282 -1.6542  0.5169
  953MOL0     H25758   8.178   7.652  10.795  0.2200  0.2199  0.8637
  953MOL0     H25759   8.301   7.660  10.577 -1.6014 -1.1843  0.9503
  953MOL0     H25760   8.425   7.774  10.159 -1.3845 -0.9598  0.2843
  953MOL0     H25761   8.547   7.664   9.973  1.0037 -1.4396 -0.5031
  953MOL0     H25762   8.876   7.611   9.824 -0.8869  1.6463  0.0099
  953MOL0     H25763   8.725   7.662   9.828  1.7037  0.2603  0.5861
  953MOL0     H25764   8.689   7.376   9.846  1.1218 -0.8196  2.1622
  953MOL0     H25765   8.838   7.380   9.752 -0.0335  0.6585 -1.2249
  953MOL0     H25766   8.724   7.524   9.582  0.1106  0.4963  0.0440
  953MOL0     H25767   8.578   7.450   9.635  0.0024 -1.2224 -2.6636
  953MOL0     H25768   8.826   7.298   9.543  0.2290 -1.9987  0.6486
  953MOL0     H25769   8.683   7.217   9.606  0.0057 -0.2595 -1.7926
  953MOL0     H25770   8.672   7.425   9.370 -1.6367  1.5796  2.1347
  953MOL0     H25771   8.540   7.309   9.434 -0.5782 -0.9969  0.1628
  953MOL0     H25772   8.675   7.127   9.342  0.1338  0.2490  0.6656
  953MOL0     H25773   8.791   7.251   9.287 -0.3923  1.6721 -0.7063
  953MOL0     H25774   8.487   7.261   9.229  0.3267 -1.8020  0.5750
  953MOL0     H25775   8.607   7.358   9.135 -1.1768 -2.1526 -3.7886
  953MOL0     H25776   8.684   7.131   9.046  1.1263  0.5574  0.9186
  953MOL0     H25777   8.521   7.198   8.992  0.6676 -0.2372 -0.8076
  953MOL0     H25778   8.848   7.507  10.233  1.0697  0.7291  5.7615
  953MOL0     H25779   8.737   7.624  10.426  0.4239 -0.6629 -0.7719
  953MOL0     H25780   8.558   7.971  10.748 -0.8515  1.1545  0.1746
  953MOL0     H25781   8.430   7.966  10.943  1.3602 -0.9207  1.2256
  953MOL0     H25782   8.891   8.171  11.184  1.7590 -1.3511  0.1795
  953MOL0     H25783   9.026   8.156  10.984  0.1020 -0.9557 -2.7579
  953MOL0     H25784   8.914   7.917  10.547  0.9196 -1.5626  0.6242
  953MOL0     H25785   8.980   7.842  10.325 -0.6983 -0.9873  1.5589
  953MOL0     H25786   9.376   7.851  10.254  0.5656  0.0594 -0.4326
  953MOL0     H25787   9.372   7.953  10.106  2.1122 -1.6758 -0.8903
  953MOL0     H25788   9.278   7.662  10.154 -4.1867  2.2280 -0.7211
  953MOL0     H25789   9.249   7.742  10.001  3.8420  1.5069 -2.8974
  953MOL0     H25790   9.446   7.590   9.981 -2.5323 -0.4774  0.2654
  953MOL0     H25791   9.526   7.698  10.111  0.4903  3.0306 -0.3929
  953MOL0     H25792   9.538   7.875   9.969  0.1661  1.2866 -0.7494
  953MOL0     H25793   9.618   7.733   9.897 -0.4116 -0.4605 -0.2580
  953MOL0     H25794   9.332   7.864   9.617 -1.4061  1.4249  1.2755
  953MOL0     H25795   9.314   8.106  10.324  0.4214 -3.7432 -3.5380
  953MOL0     H25796   9.244   8.190  10.561 -1.9977  0.9162  0.8191
  954MOL0     O25797   0.338   3.595   6.285 -0.3164 -0.1015  0.2915
  954MOL0     C25798   0.314   3.557   6.176  0.8435  0.2824 -0.6127
  954MOL0     O25799   0.389   3.482   6.097 -0.2250 -0.3843  0.6368
  954MOL0     C25800   0.492   3.422   6.160 -0.4377 -0.2496  0.0860
  954MOL0     C25801   0.608   3.473   6.222 -0.3617  1.1899 -0.7007
  954MOL0     C25802   0.705   3.391   6.284  0.1282  0.5783  0.0215
  954MOL0     C25803   0.695   3.252   6.280 -0.5073  0.9732  0.9807
  954MOL0     O25804   0.777   3.174   6.348 -1.0951  0.1249 -0.3861
  954MOL0     C25805   0.904   3.223   6.410  0.1744 -0.2296  0.2897
  954MOL0     C25806   0.961   3.106   6.491 -0.3600 -0.5285 -0.6569
  954MOL0     C25807   0.862   3.028   6.580  0.0489  0.6756 -0.4583
  954MOL0     C25808   0.929   2.912   6.666 -0.3331  0.3810  0.3850
  954MOL0     C25809   0.862   2.903   6.794  0.2300  0.9611  0.3217
  954MOL0     C25810   0.725   2.844   6.773  0.1816  0.3909  0.2238
  954MOL0     C25811   0.643   2.868   6.897 -0.6630 -0.7366  0.7272
  954MOL0     C25812   0.542   2.762   6.946 -0.2601 -0.5243 -0.0783
  954MOL0     N25813   0.414   2.759   6.867  0.7442 -0.7742 -0.1351
  954MOL0     C25814   0.304   2.704   6.924 -0.0082  0.2762  0.1783
  954MOL0     C25815   0.229   2.660   6.819  1.0106 -0.1718  0.3444
  954MOL0     C25816   0.099   2.594   6.821 -0.4240  0.7248 -0.8830
  954MOL0     C25817   0.097   2.460   6.893 -0.0245 -0.4244  0.1714
  954MOL0     C25818  -0.045   2.399   6.901 -0.6457  0.5694 -0.3941
  954MOL0     C25819  -0.058   2.258   6.949  0.5212 -0.1685 -0.0386
  954MOL0     O25820   0.020   2.223   7.060  0.6377 -0.1664 -0.9370
  954MOL0     C25821  -0.044   2.243   7.183  0.4061  0.2096 -0.1135
  954MOL0     C25822  -0.128   2.152   7.256  0.8032 -0.8864  0.8817
  954MOL0     C25823  -0.197   2.197   7.373 -0.4464  0.0675 -0.0815
  954MOL0     C25824  -0.185   2.331   7.414 -0.3301  0.3345 -0.1601
  954MOL0     C25825  -0.257   2.380   7.530  0.4612  0.4345 -0.3640
  954MOL0     O25826  -0.258   2.308   7.643  0.2636 -0.8143 -0.1575
  954MOL0     C25827  -0.306   2.351   7.761 -0.3738  0.4198 -0.4041
  954MOL0     C25828  -0.241   2.332   7.882  0.2859  0.5314 -0.4261
  954MOL0     C25829  -0.296   2.367   8.002  0.7775 -0.7677 -0.5571
  954MOL0     C25830  -0.430   2.424   8.014 -0.0165  0.3846 -0.7172
  954MOL0     O25831  -0.476   2.442   8.142  0.1970  0.3224  0.3584
  954MOL0     C25832  -0.621   2.465   8.162 -0.9180  0.5255 -0.0564
  954MOL0     C25833  -0.708   2.330   8.127 -0.3176  0.4811  0.3564
  954MOL0     C25834  -0.850   2.328   8.173 -1.0057 -0.3872 -0.1621
  954MOL0     C25835  -0.870   2.375   8.314 -0.8055  0.4837 -0.9194
  954MOL0     C25836  -0.799   2.285   8.421 -0.4578 -0.2415 -0.0540
  954MOL0     C25837  -0.853   2.343   8.563 -0.1301  0.1158  0.0544
  954MOL0     C25838  -0.775   2.275   8.674  0.5423  0.0737  0.2622
  954MOL0     C25839  -0.829   2.337   8.809 -0.4708  0.6231 -0.8093
  954MOL0    Cl25840  -0.751   2.513   8.829 -0.0374  0.2188 -0.5296
  954MOL0     C25841  -0.502   2.428   7.892  0.5810 -0.7705  0.2675
  954MOL0     C25842  -0.439   2.388   7.770 -0.1807  0.6212 -0.1452
  954MOL0     O25843  -0.314   2.489   7.519  0.1203  0.5255  0.3179
  954MOL0     C25844  -0.106   2.420   7.339 -0.5639  0.1910  0.5055
  954MOL0     C25845  -0.025   2.372   7.225  1.2921 -0.3120  0.1334
  954MOL0     N25846   0.286   2.697   6.708 -0.4863  0.8175  0.2469
  954MOL0     N25847   0.402   2.756   6.734  0.6711  0.7176  0.7033
  954MOL0     C25848   0.594   3.199   6.201  1.4397  0.4034  0.2014
  954MOL0     C25849   0.490   3.283   6.144 -0.4243  0.7322  0.4471
  954MOL0     C25850   0.192   3.621   6.128 -0.1403  0.1989 -0.1130
  954MOL0     C25851   0.112   3.569   6.029 -0.0472  0.1026  0.6676
  954MOL0     C25852   0.000   3.633   5.965  0.4832 -0.4076  0.2418
  954MOL0     C25853  -0.054   3.752   6.013 -0.2982  0.2451  0.4982
  954MOL0     O25854  -0.171   3.811   5.965  0.4235 -1.1678  0.8695
  954MOL0     C25855  -0.252   3.885   6.062  1.8393 -0.9235 -1.0072
  954MOL0     C25856  -0.400   3.852   6.061 -0.4775 -0.1758  1.3184
  954MOL0     C25857  -0.473   3.886   5.920 -0.2519 -0.3044  0.2181
  954MOL0     C25858  -0.620   3.886   5.945 -0.2984 -0.2789  0.1220
  954MOL0     C25859  -0.677   3.967   5.842 -0.4059 -0.3447 -0.4990
  954MOL0     C25860  -0.721   4.029   5.750  0.2238  0.2843 -0.5036
  954MOL0     C25861   0.019   3.810   6.124  0.2941  0.0819 -0.8281
  954MOL0     C25862   0.130   3.736   6.184 -0.7830  0.7485  0.6187
  954MOL0     H25863   0.614   3.579   6.244 -2.0546  1.5257 -1.6849
  954MOL0     H25864   0.784   3.434   6.345  1.2680  0.5623 -1.3886
  954MOL0     H25865   0.871   3.307   6.471 -1.1454 -1.0362  0.7348
  954MOL0     H25866   0.967   3.256   6.326 -3.3676  0.7579 -2.2255
  954MOL0     H25867   1.048   3.131   6.551  0.0855 -0.8561 -1.1579
  954MOL0     H25868   0.994   3.030   6.420 -1.4874 -0.7208 -0.9943
  954MOL0     H25869   0.779   2.989   6.521 -1.5467  1.6960  1.0204
  954MOL0     H25870   0.822   3.106   6.645 -1.5129  2.3165 -3.1801
  954MOL0     H25871   0.927   2.817   6.612 -1.8039  0.3307  0.4793
  954MOL0     H25872   1.034   2.925   6.693  0.1042  1.1078 -1.5225
  954MOL0     H25873   0.846   3.001   6.838  2.4224  1.9634 -0.9680
  954MOL0     H25874   0.925   2.842   6.859 -1.3911 -1.7415 -0.4471
  954MOL0     H25875   0.725   2.735   6.766  1.7602  0.2987  1.2291
  954MOL0     H25876   0.673   2.892   6.689  0.0651 -0.7973 -0.3946
  954MOL0     H25877   0.703   2.874   6.988 -1.2495  1.7152  1.0353
  954MOL0     H25878   0.583   2.958   6.882  1.1443  0.1255 -2.0718
  954MOL0     H25879   0.513   2.801   7.043 -0.0762 -0.1738 -0.1634
  954MOL0     H25880   0.602   2.670   6.950  1.4649  0.5476 -0.0677
  954MOL0     H25881   0.293   2.695   7.032  0.1657 -4.4657 -0.0110
  954MOL0     H25882   0.067   2.581   6.717 -0.8767 -0.3525 -0.6231
  954MOL0     H25883   0.031   2.661   6.874 -1.6683 -2.3415  1.7602
  954MOL0     H25884   0.148   2.467   6.989  1.3369  0.2834 -0.5675
  954MOL0     H25885   0.143   2.404   6.811  3.1532  2.6049 -0.3461
  954MOL0     H25886  -0.103   2.466   6.966  2.1177  1.6045  1.1416
  954MOL0     H25887  -0.095   2.407   6.804 -0.4607  0.9424 -0.4607
  954MOL0     H25888  -0.044   2.186   6.868 -2.8170 -1.3618  0.2945
  954MOL0     H25889  -0.161   2.230   6.975  0.1321  1.4323  0.2703
  954MOL0     H25890  -0.141   2.048   7.229 -0.9689 -0.2387 -1.0614
  954MOL0     H25891  -0.255   2.121   7.424 -0.0225 -0.8318 -0.9144
  954MOL0     H25892  -0.144   2.283   7.881 -0.9143 -2.0366  0.5542
  954MOL0     H25893  -0.242   2.356   8.095 -0.7808  1.1446  0.6611
  954MOL0     H25894  -0.658   2.549   8.103 -4.0764 -1.7312 -1.6092
  954MOL0     H25895  -0.623   2.469   8.272 -0.4529 -3.1506  0.2088
  954MOL0     H25896  -0.667   2.239   8.171 -2.4583 -1.4681 -1.4361
  954MOL0     H25897  -0.720   2.314   8.019 -2.9549  2.1750  0.3154
  954MOL0     H25898  -0.893   2.228   8.176  0.7671 -1.3265 -2.4950
  954MOL0     H25899  -0.913   2.397   8.115  0.9903  1.8542  0.1764
  954MOL0     H25900  -0.834   2.476   8.338  0.4061 -0.0085 -0.5680
  954MOL0     H25901  -0.975   2.360   8.338 -0.3554  0.2836  1.1007
  954MOL0     H25902  -0.689   2.285   8.418 -0.4389 -2.1777 -0.7069
  954MOL0     H25903  -0.834   2.181   8.418 -1.6622  0.0621  1.8700
  954MOL0     H25904  -0.961   2.334   8.575 -0.1060  0.6662  0.7383
  954MOL0     H25905  -0.841   2.452   8.567 -2.5264  0.3807  1.4925
  954MOL0     H25906  -0.797   2.168   8.675 -1.2811  0.4108  1.6761
  954MOL0     H25907  -0.668   2.286   8.656  0.5570 -0.5716 -0.0704
  954MOL0     H25908  -0.809   2.275   8.897 -2.9841 -1.0483 -1.3161
  954MOL0     H25909  -0.937   2.348   8.817 -0.4491 -0.4005  2.1823
  954MOL0     H25910  -0.601   2.472   7.882  1.3880  0.9236 -0.5988
  954MOL0     H25911  -0.499   2.388   7.680 -0.0917  2.9609 -0.2770
  954MOL0     H25912  -0.118   2.525   7.361  0.2804 -0.0417  2.2921
  954MOL0     H25913   0.033   2.443   7.168  0.9876 -0.8158 -0.8232
  954MOL0     H25914   0.597   3.091   6.202  0.1065  0.3354 -0.4649
  954MOL0     H25915   0.400   3.238   6.106  0.2093 -0.1681 -0.0278
  954MOL0     H25916   0.135   3.469   5.994  1.5326 -0.0832  2.1225
  954MOL0     H25917  -0.051   3.581   5.884 -1.5556  2.1959 -0.2913
  954MOL0     H25918  -0.244   3.994   6.062 -1.2534 -0.5419  1.3315
  954MOL0     H25919  -0.228   3.857   6.165 -0.6919 -2.3726 -0.7272
  954MOL0     H25920  -0.411   3.745   6.082 -2.3335  0.0601  1.7841
  954MOL0     H25921  -0.444   3.905   6.146  0.6696 -0.3101  2.0161
  954MOL0     H25922  -0.451   3.805   5.850  4.5916  2.1479 -1.5549
  954MOL0     H25923  -0.443   3.974   5.862 -1.1247  0.0263  0.2413
  954MOL0     H25924  -0.662   3.786   5.959 -0.3982 -0.1907  0.4623
  954MOL0     H25925  -0.642   3.943   6.035 -0.4120 -0.3975  0.1690
  954MOL0     H25926  -0.743   4.093   5.668  4.0685  4.1928  1.1072
  954MOL0     H25927   0.000   3.912   6.154 -2.5997 -0.4681 -0.4768
  954MOL0     H25928   0.179   3.777   6.272 -0.1096 -0.2375  0.7204
  955MOL0     O25929   5.742   6.947   6.530 -0.1295  0.0955  0.0456
  955MOL0     C25930   5.761   7.025   6.620 -0.1262 -0.1756 -0.6237
  955MOL0     O25931   5.688   7.036   6.743  0.1717  1.1163 -0.2380
  955MOL0     C25932   5.565   6.981   6.768 -0.2448 -0.5696 -0.1796
  955MOL0     C25933   5.520   7.001   6.898  0.3338 -0.5676  0.8279
  955MOL0     C25934   5.400   6.941   6.937  0.0879 -0.5321  0.2831
  955MOL0     C25935   5.317   6.863   6.856 -0.0672 -0.1093  0.3726
  955MOL0     O25936   5.196   6.805   6.908  0.5125 -0.1981  0.5615
  955MOL0     C25937   5.118   6.699   6.837  0.1782  1.1301 -0.4421
  955MOL0     C25938   5.188   6.563   6.875  0.0832 -0.6258 -0.8980
  955MOL0     C25939   5.133   6.516   7.018 -0.4785  0.0791  0.1180
  955MOL0     C25940   5.259   6.450   7.083  0.9970 -0.3238 -0.1124
  955MOL0     C25941   5.227   6.355   7.209  0.0880  0.3165  0.7899
  955MOL0     C25942   5.158   6.422   7.321  0.9833 -0.6092 -0.1466
  955MOL0     C25943   5.246   6.528   7.395 -0.0808  0.3382  0.9865
  955MOL0     C25944   5.226   6.677   7.345  0.0346  0.0285  0.1708
  955MOL0     N25945   5.331   6.759   7.396 -0.7215 -0.4485 -0.1377
  955MOL0     C25946   5.330   6.823   7.524 -0.4577 -0.7512 -0.2656
  955MOL0     C25947   5.437   6.908   7.526  0.3115  0.6636 -0.4305
  955MOL0     C25948   5.469   7.011   7.618 -0.3261  0.1601 -0.2955
  955MOL0     C25949   5.373   7.125   7.638 -0.4476  0.2484  0.4890
  955MOL0     C25950   5.428   7.250   7.712 -0.4537  0.2255  0.4180
  955MOL0     C25951   5.322   7.364   7.713  0.8560 -0.6915 -0.7695
  955MOL0     O25952   5.379   7.494   7.746  0.4714 -0.0984  0.1099
  955MOL0     C25953   5.379   7.520   7.885 -0.5481  0.9335 -0.7335
  955MOL0     C25954   5.261   7.564   7.944  0.2146  1.1106 -0.3140
  955MOL0     C25955   5.262   7.600   8.074 -0.5584 -0.4177  0.1974
  955MOL0     C25956   5.373   7.573   8.157  0.0164  0.0606 -0.1730
  955MOL0     C25957   5.348   7.577   8.308  0.2711 -0.1001  0.8273
  955MOL0     O25958   5.460   7.566   8.388  0.3930  0.3302  0.5406
  955MOL0     C25959   5.447   7.537   8.524  0.2778 -0.0355  0.0248
  955MOL0     C25960   5.366   7.440   8.580 -0.2400  0.4634 -1.2668
  955MOL0     C25961   5.376   7.412   8.719 -0.8081  0.3539  0.2628
  955MOL0     C25962   5.468   7.483   8.800  0.5837  0.0998 -0.3450
  955MOL0     O25963   5.480   7.441   8.933 -0.0177  1.0250 -0.1856
  955MOL0     C25964   5.617   7.401   8.970  0.1639 -0.0394  0.3855
  955MOL0     C25965   5.625   7.267   9.034  0.2101 -0.1736  0.0193
  955MOL0     C25966   5.771   7.247   9.108  0.0087 -0.3889  0.5271
  955MOL0     C25967   5.878   7.245   9.002 -0.3164  0.1489  0.5170
  955MOL0     C25968   6.013   7.197   9.045  0.4954  1.3093 -0.3738
  955MOL0     C25969   6.082   7.278   9.149  0.0425  0.6056  0.1009
  955MOL0     C25970   6.097   7.423   9.103 -0.0445  0.2721 -0.0753
  955MOL0     C25971   6.146   7.517   9.203 -0.2832  0.6778 -0.6200
  955MOL0    Cl25972   6.020   7.528   9.333 -0.1437  0.6164 -0.0688
  955MOL0     C25973   5.546   7.577   8.742  0.1639  0.3322  0.4356
  955MOL0     C25974   5.543   7.602   8.604  0.5915  0.2277  0.1426
  955MOL0     O25975   5.236   7.575   8.344  0.2460  0.3795 -0.0884
  955MOL0     C25976   5.495   7.528   8.099 -0.6280 -1.1481  0.4331
  955MOL0     C25977   5.498   7.500   7.958 -0.5052 -1.4531  0.0494
  955MOL0     N25978   5.503   6.883   7.411 -0.4681 -0.1940 -0.0748
  955MOL0     N25979   5.439   6.797   7.327 -0.4502  0.7515  0.0888
  955MOL0     C25980   5.362   6.844   6.721 -0.1203  0.6277  0.1996
  955MOL0     C25981   5.482   6.904   6.687  0.0164  0.0363 -0.1087
  955MOL0     C25982   5.885   7.105   6.605 -0.0123  0.1853  1.4066
  955MOL0     C25983   5.922   7.150   6.474  0.8068  0.2766 -0.9154
  955MOL0     C25984   6.040   7.224   6.458  0.2785  0.3511 -1.2600
  955MOL0     C25985   6.117   7.259   6.573  0.4595  0.1878 -0.3997
  955MOL0     O25986   6.228   7.334   6.552  0.1847  0.4259  0.0503
  955MOL0     C25987   6.219   7.467   6.607 -1.4644 -0.1468  0.1749
  955MOL0     C25988   6.357   7.537   6.621  0.3472  0.2188 -0.5955
  955MOL0     C25989   6.436   7.532   6.493  0.1059  0.0975  0.9806
  955MOL0     C25990   6.550   7.635   6.477 -0.0176  1.2109 -0.8186
  955MOL0     C25991   6.612   7.612   6.349 -0.0842 -0.2295 -0.0631
  955MOL0     C25992   6.675   7.590   6.250 -0.6403  0.1815  0.0592
  955MOL0     C25993   6.083   7.209   6.693  0.1437 -0.2858 -0.4009
  955MOL0     C25994   5.966   7.139   6.708  0.7113  1.0605  0.3019
  955MOL0     H25995   5.575   7.062   6.969  0.5745 -1.6071  1.5544
  955MOL0     H25996   5.383   6.949   7.044  2.3316  0.6972  0.6298
  955MOL0     H25997   5.115   6.713   6.729  0.5480 -0.8486 -0.7438
  955MOL0     H25998   5.012   6.688   6.861  0.6720 -3.0601  0.6055
  955MOL0     H25999   5.296   6.579   6.876 -0.4339  4.9621 -0.4373
  955MOL0     H26000   5.142   6.490   6.808 -2.8147 -0.1821  0.4436
  955MOL0     H26001   5.064   6.431   7.012 -1.5595  0.9974 -0.8276
  955MOL0     H26002   5.104   6.598   7.084 -0.4644  0.1559  0.0291
  955MOL0     H26003   5.298   6.373   7.016  4.0797 -1.2344  2.4254
  955MOL0     H26004   5.338   6.518   7.116  0.7941 -1.5759  3.4769
  955MOL0     H26005   5.317   6.315   7.256 -0.0515 -0.7198  0.2072
  955MOL0     H26006   5.177   6.263   7.180  1.4812 -1.2428  3.0620
  955MOL0     H26007   5.133   6.340   7.388 -2.3589 -2.0777 -2.8691
  955MOL0     H26008   5.065   6.453   7.271  1.1448 -3.1797 -2.2890
  955MOL0     H26009   5.219   6.533   7.501 -2.2090 -0.4135  0.5304
  955MOL0     H26010   5.351   6.498   7.395  0.0143  0.6429  0.0862
  955MOL0     H26011   5.128   6.709   7.382  0.5415 -0.3879  1.9933
  955MOL0     H26012   5.226   6.691   7.236  1.2524  1.1859  0.2904
  955MOL0     H26013   5.253   6.828   7.600  0.8414  1.5235  1.0053
  955MOL0     H26014   5.563   7.059   7.590 -1.1164  2.6637  1.0701
  955MOL0     H26015   5.486   6.970   7.718 -0.7864 -0.7433 -0.5733
  955MOL0     H26016   5.281   7.081   7.679  0.0429 -0.3311  0.9973
  955MOL0     H26017   5.341   7.157   7.539 -0.1509 -2.8661 -0.7247
  955MOL0     H26018   5.460   7.216   7.811 -1.5529 -2.7257 -0.1384
  955MOL0     H26019   5.523   7.271   7.660  0.8229  0.2645  2.6291
  955MOL0     H26020   5.247   7.328   7.785  3.2263 -5.5513 -0.3220
  955MOL0     H26021   5.271   7.370   7.616  0.8487  0.0909 -0.7265
  955MOL0     H26022   5.173   7.567   7.880 -0.4116 -2.8880  0.1503
  955MOL0     H26023   5.171   7.633   8.124 -1.3398 -3.2069  0.8096
  955MOL0     H26024   5.293   7.396   8.514 -1.0283  2.9929 -2.2195
  955MOL0     H26025   5.319   7.336   8.772  0.3194 -0.3481  0.4943
  955MOL0     H26026   5.651   7.481   9.037  3.2461 -0.6376 -0.2881
  955MOL0     H26027   5.681   7.409   8.881 -1.0614 -2.3790 -0.7844
  955MOL0     H26028   5.606   7.190   8.958  3.1003 -3.5726  2.4242
  955MOL0     H26029   5.547   7.256   9.109 -1.9747 -1.0337 -2.2174
  955MOL0     H26030   5.769   7.152   9.163  1.6743 -1.0489 -0.4954
  955MOL0     H26031   5.790   7.327   9.180 -1.9264  1.2288 -0.6512
  955MOL0     H26032   5.847   7.177   8.922 -0.1278 -3.6513  3.3854
  955MOL0     H26033   5.877   7.346   8.960 -1.1868  0.8666  2.1536
  955MOL0     H26034   6.072   7.186   8.954  3.8508  0.0294  1.7354
  955MOL0     H26035   5.992   7.096   9.084 -0.0522  0.7094 -2.1287
  955MOL0     H26036   6.183   7.238   9.160 -0.4826 -0.4866  1.2102
  955MOL0     H26037   6.027   7.275   9.244 -0.0787  1.8596  0.0795
  955MOL0     H26038   6.163   7.434   9.018  1.7959  1.9938  1.4644
  955MOL0     H26039   6.001   7.470   9.078  1.6772  3.1837 -1.7527
  955MOL0     H26040   6.170   7.614   9.158 -2.6187  0.7075 -1.9327
  955MOL0     H26041   6.243   7.483   9.241  0.3917  0.7678 -2.2168
  955MOL0     H26042   5.633   7.625   8.786  0.1343  0.9635 -0.1798
  955MOL0     H26043   5.609   7.669   8.549 -0.2509  1.2612  0.3694
  955MOL0     H26044   5.583   7.526   8.161  0.3933  0.3156 -0.9032
  955MOL0     H26045   5.596   7.460   7.933  1.1469  1.9718  0.3298
  955MOL0     H26046   5.312   6.782   6.647 -3.6976 -0.2027  3.0086
  955MOL0     H26047   5.519   6.898   6.585  0.9861  1.0972  0.1603
  955MOL0     H26048   5.853   7.109   6.401  1.4406 -1.7121 -0.4642
  955MOL0     H26049   6.062   7.269   6.362 -0.1066 -1.7560 -2.3960
  955MOL0     H26050   6.162   7.471   6.700 -3.8223  0.8203 -1.2278
  955MOL0     H26051   6.162   7.528   6.537 -1.4906 -0.1938  0.1552
  955MOL0     H26052   6.342   7.642   6.646  1.8824 -0.0965  2.0669
  955MOL0     H26053   6.420   7.487   6.695 -0.0885  2.6087  1.5154
  955MOL0     H26054   6.363   7.545   6.414  0.6688 -1.1212  0.2325
  955MOL0     H26055   6.481   7.432   6.490 -1.5622 -0.8419  3.6997
  955MOL0     H26056   6.514   7.738   6.484  0.0620  1.2577 -1.1138
  955MOL0     H26057   6.618   7.625   6.562  0.2907 -0.9154 -1.2455
  955MOL0     H26058   6.718   7.580   6.153  0.6435 -0.7515  0.6873
  955MOL0     H26059   6.152   7.228   6.775  0.2213 -0.6151 -0.3897
  955MOL0     H26060   5.929   7.122   6.809  0.6140 -1.2007 -0.0758
  956MOL0     O26061   6.693   8.897   5.369  0.0692 -0.3180 -0.8206
  956MOL0     C26062   6.600   8.950   5.302  0.1590 -0.4473 -0.1719
  956MOL0     O26063   6.471   8.966   5.350  0.3688  0.2985 -0.2313
  956MOL0     C26064   6.435   8.901   5.467  0.2770 -0.6280 -0.8292
  956MOL0     C26065   6.364   8.968   5.568 -0.6685 -0.9442  0.5103
  956MOL0     C26066   6.328   8.904   5.685 -0.0367  0.2177  0.0903
  956MOL0     C26067   6.360   8.772   5.718  0.6913 -0.1010  0.1228
  956MOL0     O26068   6.315   8.717   5.835  0.4281  0.3160 -0.4046
  956MOL0     C26069   6.332   8.577   5.868 -0.0557  0.1348 -0.5658
  956MOL0     C26070   6.236   8.497   5.781  0.2823  0.0752 -0.5576
  956MOL0     C26071   6.093   8.529   5.804  1.1234 -0.0539 -0.1431
  956MOL0     C26072   6.002   8.479   5.688 -0.4973  0.1947  1.1027
  956MOL0     C26073   6.038   8.554   5.555 -0.0900  0.6083 -0.4456
  956MOL0     C26074   5.920   8.546   5.454 -0.2010 -0.1764  0.8407
  956MOL0     C26075   5.915   8.427   5.360  0.4884  0.7820 -0.2260
  956MOL0     C26076   5.912   8.288   5.434  0.3076  0.0439  0.9031
  956MOL0     N26077   5.869   8.175   5.349  0.5155 -0.3018  0.0135
  956MOL0     C26078   5.939   8.062   5.318 -0.2463 -1.0908  0.1488
  956MOL0     C26079   5.860   7.990   5.245 -0.8268  0.7930  0.0726
  956MOL0     C26080   5.913   7.855   5.190  0.0061  0.2844 -0.1661
  956MOL0     C26081   5.814   7.770   5.117  0.8432  0.1404 -0.1185
  956MOL0     C26082   5.862   7.625   5.088 -0.7149  1.0413 -0.2540
  956MOL0     C26083   5.976   7.605   4.990  0.1634  0.3750 -0.0756
  956MOL0     O26084   5.933   7.617   4.854  0.5596 -0.1675  0.1045
  956MOL0     C26085   5.842   7.522   4.825  0.5907  0.1119  1.0159
  956MOL0     C26086   5.703   7.555   4.826 -0.0870 -0.3548 -0.7503
  956MOL0     C26087   5.605   7.464   4.781  1.2723  0.1037  0.4877
  956MOL0     C26088   5.640   7.334   4.758  1.3036 -0.4007  0.2341
  956MOL0     C26089   5.538   7.232   4.725 -0.3977  0.7151  0.0809
  956MOL0     O26090   5.409   7.277   4.718  0.1849  0.0582  0.4143
  956MOL0     C26091   5.308   7.204   4.676 -0.7753 -0.4608  0.1618
  956MOL0     C26092   5.265   7.096   4.749  0.1215 -0.0409 -0.7973
  956MOL0     C26093   5.150   7.029   4.703  0.3432  0.6418 -1.1646
  956MOL0     C26094   5.083   7.067   4.589  0.5142 -0.5037  0.5030
  956MOL0     O26095   4.968   7.002   4.569  0.6621  0.2198 -0.3510
  956MOL0     C26096   4.863   7.075   4.499  0.1504  0.3795  0.8095
  956MOL0     C26097   4.747   6.981   4.494  0.2533 -0.3364 -1.0938
  956MOL0     C26098   4.635   7.051   4.419  0.1723 -0.2233  0.1407
  956MOL0     C26099   4.526   6.955   4.380  0.6541  0.2107  0.1064
  956MOL0     C26100   4.406   7.019   4.301 -0.8668  0.4237 -0.3580
  956MOL0     C26101   4.304   6.911   4.265 -0.0832 -0.4761 -1.1415
  956MOL0     C26102   4.178   6.978   4.210  0.1112 -0.2295  1.0150
  956MOL0     C26103   4.215   7.069   4.085  0.0327  0.7668  0.1854
  956MOL0    Cl26104   4.322   6.986   3.970  0.2863  0.0220  0.2669
  956MOL0     C26105   5.133   7.181   4.517 -0.4767 -0.6420 -0.1953
  956MOL0     C26106   5.249   7.248   4.558  0.3037  0.8095 -0.3005
  956MOL0     O26107   5.571   7.116   4.715  0.8139 -0.0017 -0.0434
  956MOL0     C26108   5.781   7.296   4.754  0.1757 -0.3274 -0.1741
  956MOL0     C26109   5.882   7.392   4.780 -0.0670 -0.0622 -0.7695
  956MOL0     N26110   5.737   8.050   5.228 -0.4636  0.0179 -0.3598
  956MOL0     N26111   5.749   8.165   5.289  0.2766  0.4866 -0.7768
  956MOL0     C26112   6.438   8.708   5.620  0.0577  0.0122 -0.1883
  956MOL0     C26113   6.484   8.775   5.503  0.3453 -0.1004 -0.6069
  956MOL0     C26114   6.640   9.008   5.175 -0.5889  0.0521  0.0702
  956MOL0     C26115   6.772   8.971   5.121 -0.3599  0.1934  1.2821
  956MOL0     C26116   6.813   9.032   4.993  0.0002  0.3940 -0.3485
  956MOL0     C26117   6.734   9.123   4.934 -0.4935  0.3368  1.1567
  956MOL0     O26118   6.788   9.181   4.818  0.4151 -0.2373  0.7521
  956MOL0     C26119   6.737   9.308   4.774 -0.5398 -0.5779 -0.5532
  956MOL0     C26120   6.843   9.373   4.685 -0.1504  0.5408  0.2508
  956MOL0     C26121   6.795   9.488   4.598 -0.0344  0.4314 -0.6844
  956MOL0     C26122   6.678   9.577   4.661  0.1181  0.6240  0.5828
  956MOL0     C26123   6.717   9.669   4.766  0.0783 -0.1816  1.0665
  956MOL0     C26124   6.758   9.738   4.849  0.0120  0.4541  0.1852
  956MOL0     C26125   6.601   9.153   4.982 -0.3005  0.9188  0.1018
  956MOL0     C26126   6.555   9.092   5.098 -0.3087  0.2191 -0.4644
  956MOL0     H26127   6.327   9.067   5.544 -0.0126 -0.6735  0.5963
  956MOL0     H26128   6.275   8.970   5.752  0.8960  1.0728  0.0074
  956MOL0     H26129   6.301   8.564   5.973 -1.3445  1.7050 -0.7064
  956MOL0     H26130   6.434   8.543   5.848 -0.3611 -0.3090 -1.4141
  956MOL0     H26131   6.252   8.390   5.800  2.0555 -0.1259 -2.7611
  956MOL0     H26132   6.261   8.514   5.676  1.3689 -3.4263 -0.9966
  956MOL0     H26133   6.071   8.636   5.805  1.4357  0.2088 -3.9281
  956MOL0     H26134   6.056   8.480   5.894  0.1207 -0.3162 -0.6955
  956MOL0     H26135   6.027   8.373   5.673 -0.6034  0.0653  1.8122
  956MOL0     H26136   5.904   8.497   5.732 -0.2740  0.8383  1.3444
  956MOL0     H26137   6.124   8.505   5.509 -1.4879 -2.7827  0.2452
  956MOL0     H26138   6.060   8.660   5.568 -0.0287  0.2683  3.1987
  956MOL0     H26139   5.927   8.631   5.386 -0.9013  0.2503  1.2967
  956MOL0     H26140   5.828   8.543   5.512 -1.1571 -1.1788 -0.6544
  956MOL0     H26141   5.832   8.447   5.291  1.0007  3.5675 -0.1861
  956MOL0     H26142   6.008   8.424   5.301  1.6068  0.8018  1.4783
  956MOL0     H26143   5.840   8.307   5.514  2.0535  1.4799  2.2275
  956MOL0     H26144   6.006   8.267   5.486  0.8651 -1.7680 -0.7362
  956MOL0     H26145   6.045   8.049   5.338  0.2785  2.0464 -0.0465
  956MOL0     H26146   5.957   7.801   5.275 -0.6959  0.9048  0.6035
  956MOL0     H26147   5.984   7.883   5.111  0.0843 -0.6441 -0.4415
  956MOL0     H26148   5.790   7.820   5.023  1.2882  1.6221  0.5205
  956MOL0     H26149   5.724   7.774   5.179  2.2521  1.7094  1.9749
  956MOL0     H26150   5.902   7.589   5.183 -2.4712  3.7961  1.6715
  956MOL0     H26151   5.779   7.555   5.075  0.1706 -0.4604  1.6304
  956MOL0     H26152   6.027   7.512   5.017  0.1987 -0.0447 -1.5189
  956MOL0     H26153   6.054   7.680   5.009  0.0160  0.5377 -0.1101
  956MOL0     H26154   5.659   7.650   4.855 -1.2252  0.1128 -3.6611
  956MOL0     H26155   5.505   7.500   4.803  0.5386 -0.1143 -2.1444
  956MOL0     H26156   5.308   7.066   4.844 -2.9049  0.4856  0.8613
  956MOL0     H26157   5.104   6.946   4.756  0.2052  0.3358 -1.7639
  956MOL0     H26158   4.890   7.091   4.394  0.4678 -2.1488  0.4268
  956MOL0     H26159   4.851   7.171   4.549  3.1129  2.3081 -1.8019
  956MOL0     H26160   4.717   6.954   4.595 -2.0279 -1.1149 -1.9199
  956MOL0     H26161   4.788   6.898   4.436 -0.8491 -0.7923 -1.2400
  956MOL0     H26162   4.686   7.092   4.331  4.9703  0.2148  2.8158
  956MOL0     H26163   4.576   7.128   4.470 -0.6150 -0.2698 -0.6654
  956MOL0     H26164   4.570   6.892   4.302 -0.9330 -0.8326  0.0140
  956MOL0     H26165   4.504   6.885   4.461  0.9773 -2.2488 -1.8137
  956MOL0     H26166   4.435   7.054   4.201 -1.9395 -3.4474 -2.2438
  956MOL0     H26167   4.358   7.100   4.356  1.7018  2.1344 -0.5053
  956MOL0     H26168   4.286   6.850   4.354 -0.1773  1.3852  0.1706
  956MOL0     H26169   4.342   6.835   4.196 -0.6967 -4.1621  2.2650
  956MOL0     H26170   4.099   6.911   4.175 -2.3985  3.8107 -2.0078
  956MOL0     H26171   4.123   7.032   4.287 -0.5466 -2.3392  2.0963
  956MOL0     H26172   4.263   7.165   4.107  3.6943 -1.2771  2.0532
  956MOL0     H26173   4.122   7.098   4.035 -0.2958 -1.7922 -0.8347
  956MOL0     H26174   5.076   7.230   4.438 -0.2678  2.4008  1.3952
  956MOL0     H26175   5.282   7.341   4.512  1.1088  0.7309  0.1140
  956MOL0     H26176   5.806   7.191   4.741 -0.9943 -0.7004  0.4544
  956MOL0     H26177   5.989   7.375   4.779  0.5344  3.0604 -2.3778
  956MOL0     H26178   6.478   8.609   5.639 -2.8936 -0.7234  3.3554
  956MOL0     H26179   6.546   8.714   5.438  1.9899 -0.2500  1.0273
  956MOL0     H26180   6.832   8.897   5.172 -1.0519 -0.9565  0.4698
  956MOL0     H26181   6.909   9.027   4.941  0.0007 -0.9461 -0.2730
  956MOL0     H26182   6.726   9.371   4.863 -2.0050 -1.9131  0.2700
  956MOL0     H26183   6.640   9.292   4.726 -1.0826  2.5895 -0.7727
  956MOL0     H26184   6.920   9.420   4.748  0.0584  3.2490 -1.8550
  956MOL0     H26185   6.896   9.294   4.632 -1.6332  0.3530 -1.0077
  956MOL0     H26186   6.754   9.456   4.502  2.8878 -1.9730 -1.3171
  956MOL0     H26187   6.888   9.541   4.576  0.0585 -0.3624 -2.3597
  956MOL0     H26188   6.632   9.627   4.575 -1.7416 -1.8860 -0.0053
  956MOL0     H26189   6.596   9.512   4.694  1.0189  0.0685  1.7887
  956MOL0     H26190   6.791   9.808   4.923 -4.1275  0.1748  2.6157
  956MOL0     H26191   6.542   9.227   4.929 -1.3515  0.5709  0.7344
  956MOL0     H26192   6.462   9.115   5.150 -0.5246 -2.5132  0.5227
  957MOL0     O26193   4.793   1.825   5.971  0.0013 -0.6490  0.0674
  957MOL0     C26194   4.747   1.881   6.068  0.5211  0.1747  0.1324
  957MOL0     O26195   4.811   1.934   6.176 -0.0762 -0.6412 -1.3451
  957MOL0     C26196   4.947   1.923   6.198  0.9504 -0.2289  0.1018
  957MOL0     C26197   4.978   1.894   6.329 -0.7639  0.1865 -0.0087
  957MOL0     C26198   5.109   1.881   6.368 -0.4975  0.2468 -0.1705
  957MOL0     C26199   5.214   1.919   6.275 -0.2609 -0.1565 -0.8487
  957MOL0     O26200   5.347   1.938   6.328 -0.9142 -1.0302 -0.2427
  957MOL0     C26201   5.448   1.975   6.237 -1.1606 -0.3055  0.1874
  957MOL0     C26202   5.575   1.986   6.306 -0.3676  0.0533 -1.0508
  957MOL0     C26203   5.685   2.058   6.229 -0.1148 -0.3772 -0.7953
  957MOL0     C26204   5.696   2.201   6.269  0.2475  0.3313  0.6835
  957MOL0     C26205   5.788   2.271   6.159 -1.0983  0.1523 -0.9285
  957MOL0     C26206   5.938   2.236   6.178  0.2379 -0.2904 -0.3220
  957MOL0     C26207   6.035   2.313   6.090  0.5837  0.5230  0.7469
  957MOL0     C26208   6.105   2.423   6.160 -0.7334  1.4477 -0.5255
  957MOL0     N26209   6.206   2.492   6.079  0.8390 -0.0877 -0.4523
  957MOL0     C26210   6.343   2.515   6.120 -0.3289  0.5943  0.2093
  957MOL0     C26211   6.383   2.598   6.025  0.3273  0.2716  1.1488
  957MOL0     C26212   6.519   2.644   6.016 -0.2461 -0.3605 -0.0882
  957MOL0     C26213   6.614   2.547   5.940  0.1136  0.2964 -0.6657
  957MOL0     C26214   6.753   2.600   5.931 -0.1960 -0.4957  0.5697
  957MOL0     C26215   6.823   2.616   6.065 -0.5528 -0.4106  0.8522
  957MOL0     O26216   6.962   2.614   6.058  0.1346  0.5945 -0.3387
  957MOL0     C26217   7.024   2.711   5.987 -0.1046 -0.9207  0.0506
  957MOL0     C26218   7.161   2.686   5.966  0.4367 -0.6415 -0.6589
  957MOL0     C26219   7.228   2.751   5.858 -0.4438 -0.5775  1.1873
  957MOL0     C26220   7.169   2.857   5.790 -1.4910 -0.2643 -0.0832
  957MOL0     C26221   7.258   2.925   5.698 -0.5157  0.2543  0.0895
  957MOL0     O26222   7.370   2.855   5.637  0.2362 -0.6978 -0.6474
  957MOL0     C26223   7.476   2.927   5.595 -0.3405  0.2155 -0.5889
  957MOL0     C26224   7.591   2.859   5.620  0.1215  0.0278 -0.0980
  957MOL0     C26225   7.717   2.896   5.570  0.2512  0.1788 -1.4828
  957MOL0     C26226   7.728   3.022   5.510 -0.5627 -0.6911 -0.3147
  957MOL0     O26227   7.851   3.048   5.453 -0.0336 -0.2891 -0.2073
  957MOL0     C26228   7.868   3.170   5.365 -0.4535 -0.2453  0.2077
  957MOL0     C26229   8.018   3.203   5.341  0.1199  0.3201 -0.3935
  957MOL0     C26230   8.087   3.269   5.464 -0.9955 -0.3801 -0.8095
  957MOL0     C26231   8.228   3.300   5.421  0.6573 -0.1499  0.1642
  957MOL0     C26232   8.308   3.387   5.521 -0.5900  0.4129  0.4317
  957MOL0     C26233   8.455   3.414   5.467 -0.4509 -0.3361  0.4387
  957MOL0     C26234   8.572   3.354   5.537 -0.2633  0.2962 -0.8600
  957MOL0     C26235   8.573   3.200   5.525 -0.2367  0.9345 -0.7095
  957MOL0    Cl26236   8.577   3.133   5.373  0.0497 -0.0652 -0.0646
  957MOL0     C26237   7.609   3.097   5.491 -0.3970  0.1792  0.0376
  957MOL0     C26238   7.484   3.052   5.537  0.6392  0.5540 -0.3237
  957MOL0     O26239   7.231   3.043   5.690 -0.1025 -0.2054  0.0379
  957MOL0     C26240   7.044   2.895   5.825 -0.3982  0.7745 -0.8856
  957MOL0     C26241   6.973   2.827   5.933  0.0247 -0.6218  0.4779
  957MOL0     N26242   6.286   2.622   5.924  0.5195 -0.0954  0.4012
  957MOL0     N26243   6.188   2.561   5.960 -0.8742  0.5309 -0.1590
  957MOL0     C26244   5.171   1.954   6.139 -0.4840 -0.3780 -0.8454
  957MOL0     C26245   5.035   1.963   6.107 -1.1411 -0.0585  0.3815
  957MOL0     C26246   4.600   1.904   6.061  0.7229  0.0670  0.5421
  957MOL0     C26247   4.510   1.829   5.983 -0.2578 -0.1109  0.0642
  957MOL0     C26248   4.370   1.833   5.985  0.2086  0.2317  0.3713
  957MOL0     C26249   4.305   1.925   6.073 -0.7417 -0.1286  0.3437
  957MOL0     O26250   4.172   1.945   6.087 -0.3371 -0.4852 -0.4173
  957MOL0     C26251   4.083   1.890   5.983  0.1239 -0.0150 -0.9045
  957MOL0     C26252   3.933   1.912   6.015 -0.1152 -0.2846 -0.3496
  957MOL0     C26253   3.891   1.839   6.136 -0.2372 -0.3262  0.1053
  957MOL0     C26254   3.757   1.891   6.188 -0.3224 -0.9715  0.1840
  957MOL0     C26255   3.700   1.784   6.266  0.3712 -0.6350  0.6065
  957MOL0     C26256   3.675   1.685   6.326  0.0111  0.4652 -0.4887
  957MOL0     C26257   4.390   1.997   6.158 -0.0152 -0.0050  0.3063
  957MOL0     C26258   4.532   1.979   6.158 -0.4986 -0.2518 -0.7810
  957MOL0     H26259   4.896   1.882   6.399 -0.0179 -0.7418  0.7346
  957MOL0     H26260   5.133   1.850   6.469 -0.7208 -1.6324 -0.6492
  957MOL0     H26261   5.418   2.073   6.202  0.2281  1.1641  2.7866
  957MOL0     H26262   5.462   1.910   6.150  0.6747 -0.6684  0.7169
  957MOL0     H26263   5.609   1.886   6.336 -2.6522  0.1330  2.4515
  957MOL0     H26264   5.563   2.029   6.406 -1.3275 -0.6297 -0.8546
  957MOL0     H26265   5.676   2.059   6.120 -1.6515  2.2546 -0.7471
  957MOL0     H26266   5.779   2.011   6.259 -0.9795 -0.2470  2.4190
  957MOL0     H26267   5.597   2.246   6.268 -0.1796 -0.5788  1.2079
  957MOL0     H26268   5.731   2.204   6.373  0.3338 -2.5751  0.8124
  957MOL0     H26269   5.775   2.379   6.173  0.6378  0.1456  1.4082
  957MOL0     H26270   5.757   2.254   6.056  3.0495  1.6914 -2.6677
  957MOL0     H26271   5.951   2.130   6.155  3.7415 -0.9070  3.3641
  957MOL0     H26272   5.965   2.238   6.284 -1.7016 -0.3316  0.2263
  957MOL0     H26273   6.111   2.245   6.053 -2.5881 -3.0560  0.2398
  957MOL0     H26274   5.995   2.352   5.996 -1.2890 -0.3067  1.1369
  957MOL0     H26275   6.142   2.390   6.258 -2.8133  0.4384 -0.0239
  957MOL0     H26276   6.030   2.494   6.196  0.0663  1.6816  0.7328
  957MOL0     H26277   6.404   2.456   6.186  1.2014  0.0889 -1.5731
  957MOL0     H26278   6.554   2.670   6.116 -2.1625 -0.3429  0.6204
  957MOL0     H26279   6.524   2.730   5.950 -0.3961  0.9158  1.4977
  957MOL0     H26280   6.582   2.512   5.842 -0.8144 -2.5086  0.5420
  957MOL0     H26281   6.616   2.461   6.008  0.4334 -0.6101 -1.8014
  957MOL0     H26282   6.812   2.525   5.878 -1.4126 -2.0876  1.3414
  957MOL0     H26283   6.752   2.696   5.879  1.8560  1.8283  4.4337
  957MOL0     H26284   6.793   2.538   6.137 -0.7639 -3.1496 -1.9805
  957MOL0     H26285   6.783   2.713   6.097  0.2908  0.4198 -0.5122
  957MOL0     H26286   7.204   2.606   6.025  0.5651 -0.9729 -1.1963
  957MOL0     H26287   7.327   2.714   5.835 -1.8739 -2.0110 -4.3207
  957MOL0     H26288   7.575   2.761   5.664 -1.5361  0.5400  0.5355
  957MOL0     H26289   7.803   2.838   5.603 -0.3169  0.2736  0.2992
  957MOL0     H26290   7.819   3.248   5.424 -0.1602 -1.3871  2.0680
  957MOL0     H26291   7.819   3.142   5.272  0.4246  0.5915 -0.5267
  957MOL0     H26292   8.017   3.273   5.257 -3.8291  0.5123 -0.3681
  957MOL0     H26293   8.083   3.119   5.313 -0.3866  0.0181 -0.6919
  957MOL0     H26294   8.070   3.221   5.561  0.6779  1.3301  0.4020
  957MOL0     H26295   8.039   3.364   5.487  0.6153  0.3630 -0.3146
  957MOL0     H26296   8.283   3.207   5.402  2.2049  0.7074  0.2676
  957MOL0     H26297   8.212   3.358   5.329  2.1832  0.2366  0.1031
  957MOL0     H26298   8.303   3.351   5.624  0.6959 -3.5444 -0.7169
  957MOL0     H26299   8.260   3.485   5.521  1.6658  1.6503 -1.6649
  957MOL0     H26300   8.471   3.522   5.470  1.6249 -0.6256  1.6335
  957MOL0     H26301   8.460   3.396   5.359 -3.4569 -0.6794  0.2856
  957MOL0     H26302   8.664   3.389   5.490 -1.4159  3.2958 -1.1411
  957MOL0     H26303   8.578   3.384   5.641  0.1577 -1.8420 -0.2152
  957MOL0     H26304   8.487   3.167   5.584 -1.4371  2.3706 -1.5610
  957MOL0     H26305   8.656   3.173   5.591 -2.0762  0.9323  1.7418
  957MOL0     H26306   7.606   3.197   5.449 -5.6303  0.2042 -0.1086
  957MOL0     H26307   7.395   3.112   5.520  0.6661  0.9792  0.9571
  957MOL0     H26308   6.997   2.982   5.783 -1.1071  0.9075  0.1387
  957MOL0     H26309   6.874   2.856   5.966 -0.1707  0.5346 -1.0416
  957MOL0     H26310   5.244   1.984   6.066 -0.7248  0.0377 -0.9166
  957MOL0     H26311   4.995   1.991   6.010 -0.2520 -0.5075 -0.1335
  957MOL0     H26312   4.553   1.754   5.917 -0.0367 -0.9102  1.0928
  957MOL0     H26313   4.325   1.771   5.908  2.5295 -0.5738 -0.4523
  957MOL0     H26314   4.109   1.783   5.981 -2.3097 -1.0477  4.6856
  957MOL0     H26315   4.110   1.946   5.892  3.4600 -0.8497 -0.5703
  957MOL0     H26316   3.920   2.019   6.031  0.4183 -0.6694  3.8196
  957MOL0     H26317   3.875   1.875   5.930  1.1084  0.1385 -1.4073
  957MOL0     H26318   3.966   1.858   6.213  0.7472  0.2237 -0.9582
  957MOL0     H26319   3.897   1.732   6.113  0.7714 -0.5485  1.3063
  957MOL0     H26320   3.757   1.977   6.256  2.0009 -1.2596  0.6494
  957MOL0     H26321   3.687   1.915   6.108 -0.0778 -0.7807  0.0249
  957MOL0     H26322   3.644   1.592   6.371 -1.6766  1.4638  0.5281
  957MOL0     H26323   4.328   2.057   6.224  1.4592 -0.6429  2.3732
  957MOL0     H26324   4.586   2.022   6.241 -2.2825  2.1928 -0.7940
  958MOL0     O26325  10.816   1.527   9.978 -0.4774 -0.8500 -0.5286
  958MOL0     C26326  10.849   1.476   9.879 -0.1285 -0.0470  0.9441
  958MOL0     O26327  10.820   1.515   9.752 -0.2269 -0.4149  0.4481
  958MOL0     C26328  10.768   1.643   9.745  1.2784  0.2378  0.1144
  958MOL0     C26329  10.629   1.653   9.745  0.4832  0.2539  0.8335
  958MOL0     C26330  10.571   1.775   9.734 -0.2575  0.9934 -1.2449
  958MOL0     C26331  10.649   1.895   9.713 -1.2628 -0.9198  0.8015
  958MOL0     O26332  10.603   2.016   9.686  0.3186 -0.1748 -1.1749
  958MOL0     C26333  10.462   2.035   9.650 -0.4356  0.7373  0.0322
  958MOL0     C26334  10.427   2.185   9.686  0.4114 -0.3998  0.8710
  958MOL0     C26335  10.274   2.203   9.657  0.9961 -1.1156 -0.6722
  958MOL0     C26336  10.230   2.347   9.685  0.4560 -0.1992 -0.0568
  958MOL0     C26337  10.203   2.389   9.834  0.0426 -0.0024 -0.2795
  958MOL0     C26338  10.086   2.312   9.889  0.0019  0.1487 -0.0582
  958MOL0     C26339  10.054   2.345  10.040  0.4868 -0.7204 -0.3886
  958MOL0     C26340   9.910   2.308  10.088 -0.0976  0.6092 -0.3369
  958MOL0     N26341   9.799   2.350   9.992  0.5126 -0.4357 -0.7966
  958MOL0     C26342   9.789   2.477   9.933 -0.1376 -0.6300 -0.0588
  958MOL0     C26343   9.680   2.457   9.859  0.7336 -0.5297  0.1012
  958MOL0     C26344   9.618   2.577   9.793  0.9028  0.6865  0.7354
  958MOL0     C26345   9.507   2.620   9.890 -0.3227 -0.9226 -0.2161
  958MOL0     C26346   9.404   2.711   9.814 -0.5562  0.3108 -0.5103
  958MOL0     C26347   9.468   2.834   9.770  1.4694 -0.7883  0.1559
  958MOL0     O26348   9.369   2.906   9.691 -0.5673  0.1373 -1.1586
  958MOL0     C26349   9.334   3.037   9.730 -0.4398 -0.3350 -0.1152
  958MOL0     C26350   9.341   3.146   9.644  0.9950  0.7445 -0.4746
  958MOL0     C26351   9.293   3.267   9.690  0.9198 -0.1066  0.1146
  958MOL0     C26352   9.256   3.289   9.820  0.0832  0.6713 -0.5728
  958MOL0     C26353   9.219   3.422   9.878  1.0610  0.7243  0.7984
  958MOL0     O26354   9.201   3.439  10.012  0.2146  0.3954  0.4815
  958MOL0     C26355   9.118   3.534  10.067 -0.6116 -0.1467 -0.3760
  958MOL0     C26356   9.045   3.631  10.000  0.4628 -0.3744 -0.4316
  958MOL0     C26357   8.973   3.732  10.062  0.1332  0.5016  0.3611
  958MOL0     C26358   8.963   3.730  10.199  1.3301  0.3348 -0.5535
  958MOL0     O26359   8.866   3.790  10.275  0.1714 -0.0274  0.2331
  958MOL0     C26360   8.822   3.924  10.237 -0.5413  0.3687  1.0348
  958MOL0     C26361   8.697   3.978  10.315 -0.1269 -0.0620 -0.3112
  958MOL0     C26362   8.721   3.983  10.468 -0.1994 -0.5753  0.6329
  958MOL0     C26363   8.606   4.051  10.547  0.0561 -0.5471  0.4425
  958MOL0     C26364   8.632   4.060  10.694  1.0007  0.2833 -0.4246
  958MOL0     C26365   8.691   4.182  10.754 -0.0139  0.2523  0.4144
  958MOL0     C26366   8.655   4.198  10.900  0.0058  0.3440  0.3602
  958MOL0     C26367   8.667   4.339  10.954  0.7263 -0.7229 -0.4782
  958MOL0    Cl26368   8.843   4.385  10.960  0.3243 -0.0842 -0.1536
  958MOL0     C26369   9.034   3.630  10.270  0.0285 -0.8772  0.3362
  958MOL0     C26370   9.112   3.536  10.202  0.0746  0.4932 -0.7718
  958MOL0     O26371   9.204   3.504   9.789  0.3302 -0.8429  0.3752
  958MOL0     C26372   9.235   3.174   9.901  0.4436  0.1063  1.6093
  958MOL0     C26373   9.270   3.050   9.854  0.4089  0.5634  0.2463
  958MOL0     N26374   9.624   2.332   9.872  0.5789 -0.4508  0.7161
  958MOL0     N26375   9.707   2.261   9.949 -0.2031  0.5630  1.0956
  958MOL0     C26376  10.786   1.884   9.713  0.7073 -0.2932 -0.1289
  958MOL0     C26377  10.844   1.764   9.730  0.4045 -0.3242  0.9406
  958MOL0     C26378  10.940   1.363   9.887  0.4539  0.4242 -0.4928
  958MOL0     C26379  11.003   1.337  10.011 -0.0431 -0.1093 -0.1225
  958MOL0     C26380  11.095   1.232  10.023  0.6402  0.0236 -0.1114
  958MOL0     C26381  11.123   1.150   9.918 -0.0430 -0.5320  0.5561
  958MOL0     O26382  11.211   1.048   9.942 -0.6471 -0.6121 -0.9123
  958MOL0     C26383  11.237   0.948   9.847 -0.2109  0.5366 -0.4127
  958MOL0     C26384  11.313   0.833   9.915  0.2641 -0.6583  0.0938
  958MOL0     C26385  11.241   0.790  10.053  0.4540  0.0136 -0.1708
  958MOL0     C26386  11.078   0.780  10.060 -0.5366 -0.4065  0.5347
  958MOL0     C26387  11.047   0.677   9.956  0.0070  0.5082 -0.4601
  958MOL0     C26388  11.020   0.596   9.869 -0.0198  0.9061 -0.1091
  958MOL0     C26389  11.053   1.162   9.796  0.5879 -0.5219  0.0617
  958MOL0     C26390  10.961   1.266   9.784  0.2745 -0.2414  0.1838
  958MOL0     H26391  10.567   1.566   9.763  1.3931 -0.1235  2.3182
  958MOL0     H26392  10.466   1.766   9.712  0.1085 -3.9194 -1.9717
  958MOL0     H26393  10.401   1.984   9.726  3.9030  1.4805  4.5535
  958MOL0     H26394  10.437   2.020   9.545 -0.6010  1.3209 -0.0123
  958MOL0     H26395  10.489   2.239   9.615  0.0492  0.3099  1.0904
  958MOL0     H26396  10.448   2.214   9.790  1.3012  0.2038  0.5344
  958MOL0     H26397  10.212   2.138   9.720 -1.8377  0.1743 -1.9216
  958MOL0     H26398  10.241   2.178   9.556  0.8808 -0.1799 -0.8766
  958MOL0     H26399  10.302   2.417   9.642  1.5392 -2.3306 -1.9165
  958MOL0     H26400  10.132   2.359   9.638 -0.0220 -2.1780  0.3568
  958MOL0     H26401  10.168   2.492   9.841 -1.5774 -0.5372 -0.2584
  958MOL0     H26402  10.289   2.374   9.900  0.0017  0.8311 -0.0300
  958MOL0     H26403  10.089   2.204   9.901 -2.1409  0.3760  5.4088
  958MOL0     H26404   9.991   2.324   9.835 -2.5188 -1.7753  3.5410
  958MOL0     H26405  10.134   2.302  10.101  2.7128 -2.2790 -4.1013
  958MOL0     H26406  10.060   2.454  10.049 -0.6753 -0.6886  0.1828
  958MOL0     H26407   9.894   2.347  10.189  0.1874 -2.2614  0.9263
  958MOL0     H26408   9.909   2.200  10.104 -1.3004  0.8529  1.6816
  958MOL0     H26409   9.851   2.566   9.943 -0.0793 -0.9371  3.3260
  958MOL0     H26410   9.579   2.551   9.694  0.7117  0.6311  0.8246
  958MOL0     H26411   9.699   2.649   9.786  0.4109  1.1509 -0.4510
  958MOL0     H26412   9.560   2.683   9.962 -0.0038  0.9356 -1.9894
  958MOL0     H26413   9.459   2.535   9.940 -0.8208 -0.5463 -0.0481
  958MOL0     H26414   9.359   2.652   9.734 -3.5054  1.6905  0.0125
  958MOL0     H26415   9.326   2.739   9.885  1.6335 -1.7457  3.0209
  958MOL0     H26416   9.556   2.808   9.712  3.8291  1.8091  2.2836
  958MOL0     H26417   9.528   2.886   9.845  2.4734 -0.4819 -0.8339
  958MOL0     H26418   9.382   3.149   9.543  0.6807  0.4828 -0.6106
  958MOL0     H26419   9.291   3.350   9.620 -0.2563 -1.2985 -1.3426
  958MOL0     H26420   9.028   3.628   9.893 -1.0040 -1.0915 -0.2100
  958MOL0     H26421   8.911   3.798  10.001  0.9985 -0.1298 -1.2692
  958MOL0     H26422   8.806   3.938  10.129 -4.3011 -3.2938  0.8608
  958MOL0     H26423   8.908   3.987  10.261 -1.0813  1.1046  1.0438
  958MOL0     H26424   8.616   3.907  10.298 -2.7208  2.5928  0.1181
  958MOL0     H26425   8.661   4.073  10.273 -0.8537 -0.1431  0.1056
  958MOL0     H26426   8.817   4.033  10.485 -0.0972 -0.0685 -1.2396
  958MOL0     H26427   8.738   3.881  10.506  2.2053  0.3501  2.2729
  958MOL0     H26428   8.591   4.154  10.513 -2.0609 -1.3416 -1.2647
  958MOL0     H26429   8.513   3.995  10.532  0.5435 -1.0209 -0.9360
  958MOL0     H26430   8.691   3.973  10.723  3.0467  1.0422 -2.0469
  958MOL0     H26431   8.536   4.046  10.744 -0.6778  3.7298 -2.3603
  958MOL0     H26432   8.634   4.258  10.700 -0.2489  1.7728  2.6516
  958MOL0     H26433   8.800   4.181  10.750  0.0329  1.4507  1.0049
  958MOL0     H26434   8.558   4.149  10.910  0.8878 -1.4795  0.2722
  958MOL0     H26435   8.718   4.131  10.958 -1.6636 -3.3642 -1.7707
  958MOL0     H26436   8.620   4.364  11.050  3.9276 -0.1516  1.0663
  958MOL0     H26437   8.615   4.409  10.887  0.4741  0.5446  0.9786
  958MOL0     H26438   9.021   3.614  10.377  1.5625 -0.4884  0.6053
  958MOL0     H26439   9.158   3.452  10.254 -2.3878 -1.2195 -1.1474
  958MOL0     H26440   9.183   3.187   9.995  1.2636 -3.5741  2.7007
  958MOL0     H26441   9.265   2.969   9.926 -0.2784  1.0921  0.8096
  958MOL0     H26442  10.849   1.972   9.709  2.0550 -1.2421 -1.1332
  958MOL0     H26443  10.951   1.749   9.727  0.3522 -0.5565 -1.5033
  958MOL0     H26444  10.989   1.394  10.103 -2.1977 -1.6272  0.5742
  958MOL0     H26445  11.143   1.213  10.119 -1.2319 -0.1943  0.8118
  958MOL0     H26446  11.280   0.969   9.749 -1.7640 -0.1319 -1.2847
  958MOL0     H26447  11.148   0.896   9.809  1.1146 -1.9804 -0.2994
  958MOL0     H26448  11.326   0.752   9.844  0.2067 -0.4619 -0.1429
  958MOL0     H26449  11.416   0.865   9.938  0.7375 -2.2063  0.2079
  958MOL0     H26450  11.279   0.837  10.144  3.4011  1.1189 -1.8096
  958MOL0     H26451  11.272   0.687  10.070  0.2368  0.0236  0.2895
  958MOL0     H26452  11.046   0.740  10.157 -2.4321 -1.0710 -0.3121
  958MOL0     H26453  11.019   0.869  10.038  1.0518  0.4085 -0.6192
  958MOL0     H26454  11.005   0.514   9.801  2.9507 -1.0322  1.3706
  958MOL0     H26455  11.070   1.100   9.708 -2.7638  1.6655 -2.3632
  958MOL0     H26456  10.902   1.268   9.692 -1.9137 -1.3905  1.4744
  959MOL0     O26457   6.067  11.374   6.575 -0.8681 -0.9049 -0.2540
  959MOL0     C26458   6.032  11.496   6.581 -0.2373 -0.0805  0.0472
  959MOL0     O26459   6.106  11.605   6.605  0.1679 -0.3968  0.3512
  959MOL0     C26460   6.237  11.592   6.651 -0.1937  0.3938  0.3036
  959MOL0     C26461   6.275  11.654   6.773  0.6874 -0.4264  0.4673
  959MOL0     C26462   6.414  11.642   6.811 -0.2907  0.2816  0.4164
  959MOL0     C26463   6.508  11.580   6.732 -0.0665  0.4467  0.3888
  959MOL0     O26464   6.645  11.571   6.759 -0.3524  0.1538 -1.2532
  959MOL0     C26465   6.684  11.575   6.897  0.3456 -0.2496 -0.4639
  959MOL0     C26466   6.610  11.460   6.968  0.7144  0.3740  0.4517
  959MOL0     C26467   6.667  11.404   7.093  0.4128 -0.5356 -0.2378
  959MOL0     C26468   6.690  11.513   7.206  0.0097  0.3460  0.9818
  959MOL0     C26469   6.794  11.475   7.309 -0.2246  0.0613 -0.4047
  959MOL0     C26470   6.935  11.476   7.254 -0.2378  0.0566 -0.1502
  959MOL0     C26471   7.035  11.388   7.325  0.4121  0.6503 -0.1235
  959MOL0     C26472   7.184  11.446   7.317 -0.5026 -0.0844 -0.5951
  959MOL0     N26473   7.249  11.393   7.194  0.4921 -0.1083 -0.4822
  959MOL0     C26474   7.189  11.407   7.069  0.6506  0.1531  0.4325
  959MOL0     C26475   7.234  11.297   6.992  0.1072 -0.4660 -0.5276
  959MOL0     C26476   7.184  11.256   6.849  0.6931  0.9555  0.4066
  959MOL0     C26477   7.056  11.170   6.858 -0.4189  0.5598  0.1383
  959MOL0     C26478   6.923  11.252   6.853  1.0017  0.2367  0.5815
  959MOL0     C26479   6.873  11.284   6.718 -0.1599  0.0495 -0.0993
  959MOL0     O26480   6.973  11.322   6.625 -0.5900 -0.2404  0.2397
  959MOL0     C26481   6.999  11.246   6.518  0.0428 -0.0566 -0.5219
  959MOL0     C26482   6.896  11.224   6.426  0.8784 -0.4666 -0.4384
  959MOL0     C26483   6.916  11.144   6.312  0.3115 -0.2751 -0.1373
  959MOL0     C26484   7.038  11.074   6.289  0.7590  0.7156 -0.6977
  959MOL0     C26485   7.061  11.003   6.166 -0.2849  0.8454 -0.5526
  959MOL0     O26486   6.964  10.993   6.068 -0.6666 -0.1503 -0.1841
  959MOL0     C26487   6.975  10.917   5.963 -0.6704 -0.2402  0.0639
  959MOL0     C26488   6.929  10.967   5.839 -0.3572  0.1427 -0.3824
  959MOL0     C26489   6.942  10.897   5.716 -0.5430 -0.3258 -0.9012
  959MOL0     C26490   6.983  10.763   5.723 -0.6769  0.1024  0.3413
  959MOL0     O26491   7.002  10.677   5.614  0.6590  0.1820  0.4329
  959MOL0     C26492   6.999  10.739   5.488  1.0299 -0.4218  0.4663
  959MOL0     C26493   7.041  10.633   5.379 -0.3040 -0.4985  0.5487
  959MOL0     C26494   7.068  10.688   5.238 -0.3635  0.2078 -0.8015
  959MOL0     C26495   7.086  10.566   5.140 -0.0921 -0.1028  0.1733
  959MOL0     C26496   7.114  10.625   5.001  0.3924  0.2963 -0.1290
  959MOL0     C26497   7.127  10.535   4.884 -0.2830  0.0852 -0.1840
  959MOL0     C26498   6.992  10.506   4.821  1.0051 -0.1912  0.3313
  959MOL0     C26499   6.992  10.456   4.673  0.5289 -0.7407  0.2448
  959MOL0    Cl26500   7.018  10.276   4.671  0.1739  0.0244 -0.1250
  959MOL0     C26501   7.025  10.722   5.852 -0.7362  0.9655 -0.5857
  959MOL0     C26502   7.030  10.793   5.965  0.2662 -0.3091  0.4483
  959MOL0     O26503   7.177  10.969   6.154 -0.4544  0.0763 -0.3954
  959MOL0     C26504   7.141  11.088   6.391  0.4810  0.6462 -0.0279
  959MOL0     C26505   7.115  11.172   6.503  0.1537  0.3275 -0.8904
  959MOL0     N26506   7.303  11.222   7.087 -0.4642  0.5248  0.8361
  959MOL0     N26507   7.306  11.279   7.206 -0.0285  0.4304  1.1082
  959MOL0     C26508   6.466  11.527   6.615  0.0189 -0.3780  1.7213
  959MOL0     C26509   6.340  11.531   6.573 -0.0130  0.0877  1.0540
  959MOL0     C26510   5.886  11.525   6.558  0.6726 -0.4356 -0.3639
  959MOL0     C26511   5.806  11.412   6.564 -0.1078  0.0264  0.5175
  959MOL0     C26512   5.672  11.429   6.553 -0.3593  0.0183  0.1602
  959MOL0     C26513   5.615  11.552   6.550  0.0400 -0.3920 -0.4959
  959MOL0     O26514   5.484  11.563   6.565  0.2081  0.0772  0.2855
  959MOL0     C26515   5.435  11.610   6.704 -0.8447 -0.1562  0.0786
  959MOL0     C26516   5.451  11.501   6.821  0.0062 -0.4333  0.6829
  959MOL0     C26517   5.459  11.577   6.953 -0.0807  0.0773 -0.4011
  959MOL0     C26518   5.324  11.639   6.984  0.1351 -0.1771 -0.4101
  959MOL0     C26519   5.301  11.669   7.126  0.4330  0.0823 -1.2090
  959MOL0     C26520   5.286  11.696   7.242  0.5385 -0.4906 -0.0929
  959MOL0     C26521   5.689  11.667   6.546  0.1435 -0.0395 -0.0701
  959MOL0     C26522   5.833  11.660   6.550  0.1044 -0.5052  0.7210
  959MOL0     H26523   6.209  11.704   6.843  0.9241 -0.7012  0.8823
  959MOL0     H26524   6.441  11.686   6.907  1.9802 -0.3990  0.1472
  959MOL0     H26525   6.648  11.670   6.937  1.7659  1.1963 -2.4339
  959MOL0     H26526   6.793  11.576   6.912  0.1943  1.5609  0.7735
  959MOL0     H26527   6.619  11.378   6.896  0.9506  0.1102  0.7814
  959MOL0     H26528   6.505  11.477   6.993  1.2207  0.3074  2.7968
  959MOL0     H26529   6.759  11.354   7.062  2.8549  3.2634  0.1613
  959MOL0     H26530   6.603  11.323   7.128  2.0693 -1.6996  0.1990
  959MOL0     H26531   6.717  11.607   7.158  2.7912 -0.7691  0.2123
  959MOL0     H26532   6.597  11.518   7.265  0.6054  1.3734  1.8579
  959MOL0     H26533   6.774  11.381   7.360  3.1048 -0.4715  0.1603
  959MOL0     H26534   6.786  11.546   7.393  4.7813  0.0365  0.4304
  959MOL0     H26535   6.971  11.579   7.262  1.7668 -0.5897 -0.2621
  959MOL0     H26536   6.920  11.451   7.149 -0.6490 -5.1145  0.9062
  959MOL0     H26537   7.016  11.394   7.432  3.9717  1.5392  0.5921
  959MOL0     H26538   7.032  11.283   7.295 -1.2963  0.6687 -0.0900
  959MOL0     H26539   7.251  11.407   7.395 -0.3761 -2.4427 -1.7743
  959MOL0     H26540   7.188  11.554   7.333  0.9864 -0.1039 -0.6262
  959MOL0     H26541   7.124  11.489   7.039  0.1888 -0.5960 -0.6813
  959MOL0     H26542   7.266  11.205   6.798  1.3837  1.4075  1.0274
  959MOL0     H26543   7.156  11.352   6.806  0.2325  0.9524  0.6899
  959MOL0     H26544   7.070  11.113   6.950 -0.6016 -2.0402 -1.3640
  959MOL0     H26545   7.066  11.099   6.775  0.9666 -0.0660  0.8102
  959MOL0     H26546   6.843  11.193   6.899 -1.6891  3.7415  0.8406
  959MOL0     H26547   6.935  11.350   6.900 -0.7204  0.0998  1.3749
  959MOL0     H26548   6.797  11.362   6.718  0.9630  1.1754 -0.4565
  959MOL0     H26549   6.822  11.193   6.684 -2.0604  0.8073  0.6036
  959MOL0     H26550   6.804  11.279   6.413  1.1538 -0.0329 -0.5968
  959MOL0     H26551   6.849  11.159   6.227  1.3358  2.0516 -0.6071
  959MOL0     H26552   6.896  11.070   5.854 -4.7875 -0.7722 -2.2370
  959MOL0     H26553   6.902  10.932   5.622 -0.9786 -2.4164 -1.5526
  959MOL0     H26554   7.065  10.827   5.482  0.3335  0.1799  1.3388
  959MOL0     H26555   6.898  10.779   5.478  1.0742 -0.5197 -0.3892
  959MOL0     H26556   6.966  10.554   5.378  1.3194 -2.0886 -0.2852
  959MOL0     H26557   7.138  10.594   5.411  2.3567  2.4807 -2.9256
  959MOL0     H26558   7.163  10.742   5.232  0.2780 -0.5974  1.2120
  959MOL0     H26559   6.992  10.760   5.204  0.3503 -0.4865 -4.2258
  959MOL0     H26560   7.160  10.496   5.182  2.4685  1.2579 -1.7463
  959MOL0     H26561   6.990  10.515   5.129 -0.0012 -0.6604  1.6345
  959MOL0     H26562   7.211  10.673   5.019  2.2607 -4.2193  4.3117
  959MOL0     H26563   7.038  10.699   4.975  3.2742  3.0317 -1.5377
  959MOL0     H26564   7.170  10.447   4.933 -1.1236 -0.1515  0.1624
  959MOL0     H26565   7.191  10.582   4.810  0.1566  0.9808  0.7402
  959MOL0     H26566   6.940  10.431   4.881 -1.6011  1.4545  0.2752
  959MOL0     H26567   6.929  10.595   4.833  0.4442 -0.4021 -0.8809
  959MOL0     H26568   7.081  10.507   4.633 -0.5781 -0.6056 -2.1986
  959MOL0     H26569   6.911  10.495   4.612 -0.8945 -0.9093  1.9539
  959MOL0     H26570   7.063  10.620   5.853 -0.5801  1.0292 -0.1016
  959MOL0     H26571   7.066  10.746   6.056  1.6776 -1.3349 -0.5906
  959MOL0     H26572   7.241  11.046   6.381  1.3493  2.0962  1.9198
  959MOL0     H26573   7.206  11.196   6.558 -1.2212 -0.4560  1.8717
  959MOL0     H26574   6.544  11.478   6.557  0.3982 -0.7054  2.4988
  959MOL0     H26575   6.317  11.484   6.478  2.5832  1.0229 -0.1210
  959MOL0     H26576   5.836  11.310   6.586  1.2317  0.7295  2.2325
  959MOL0     H26577   5.607  11.343   6.552 -3.1387  1.9664  1.4964
  959MOL0     H26578   5.330  11.638   6.692 -1.1841 -0.8023  1.4117
  959MOL0     H26579   5.476  11.707   6.734 -1.4804 -0.1167  0.8451
  959MOL0     H26580   5.363  11.441   6.798  0.0973  0.6378 -3.1236
  959MOL0     H26581   5.544  11.444   6.815 -1.2571 -2.4909 -0.3280
  959MOL0     H26582   5.544  11.645   6.954 -0.9071  1.1284  0.4011
  959MOL0     H26583   5.485  11.510   7.036 -0.8499 -0.7581 -0.8246
  959MOL0     H26584   5.312  11.736   6.936  2.5175  0.3406 -0.0534
  959MOL0     H26585   5.238  11.575   6.961  1.1539 -1.8590  0.2630
  959MOL0     H26586   5.263  11.721   7.344 -3.2663  4.3254 -1.7230
  959MOL0     H26587   5.645  11.765   6.534  2.8646  1.0995 -1.5914
  959MOL0     H26588   5.898  11.743   6.524 -2.5136  1.3234 -0.3767
  960MOL0     O26589   4.142   5.904   2.565 -0.0104 -0.0690  0.9195
  960MOL0     C26590   4.235   5.905   2.637  0.1343 -0.2092  0.3864
  960MOL0     O26591   4.312   6.023   2.658 -0.0439  0.8148 -0.5816
  960MOL0     C26592   4.269   6.152   2.624 -0.6121 -0.3647  1.1227
  960MOL0     C26593   4.128   6.182   2.627 -0.2108 -0.7679 -0.1886
  960MOL0     C26594   4.084   6.315   2.602 -0.6163  0.3635  1.3169
  960MOL0     C26595   4.175   6.415   2.564  0.0286  0.3241  0.7760
  960MOL0     O26596   4.145   6.543   2.523 -0.3236  0.0573  0.1553
  960MOL0     C26597   4.013   6.585   2.546 -0.6384 -0.4289 -0.6149
  960MOL0     C26598   3.979   6.696   2.450  0.3215  0.2514 -0.0778
  960MOL0     C26599   3.844   6.764   2.469  0.3020 -0.6496  0.4353
  960MOL0     C26600   3.826   6.868   2.354  0.2793  0.1916  0.1588
  960MOL0     C26601   3.704   6.959   2.389  0.0672 -0.3708 -0.3266
  960MOL0     C26602   3.571   6.891   2.408 -0.0692 -0.0513 -0.4209
  960MOL0     C26603   3.463   6.996   2.446 -0.2754 -0.4656 -0.5175
  960MOL0     C26604   3.433   7.092   2.330  0.2751  0.3248  0.7252
  960MOL0     N26605   3.504   7.219   2.344  0.5381 -0.0269 -0.2586
  960MOL0     C26606   3.494   7.296   2.456 -0.9061  0.0203  0.1493
  960MOL0     C26607   3.576   7.406   2.420  0.1315 -0.4993  0.3118
  960MOL0     C26608   3.619   7.502   2.526  0.0557 -0.5476  0.5769
  960MOL0     C26609   3.766   7.510   2.536  0.4404  0.2300 -0.4139
  960MOL0     C26610   3.840   7.390   2.606 -1.1816  0.2173  0.2737
  960MOL0     C26611   3.814   7.402   2.752 -0.2555 -0.1732  0.3101
  960MOL0     O26612   3.684   7.337   2.777  0.0148  0.1235 -0.0078
  960MOL0     C26613   3.677   7.203   2.795 -0.0262 -0.1210 -0.0254
  960MOL0     C26614   3.781   7.119   2.777 -0.6885 -0.3917  0.4015
  960MOL0     C26615   3.769   6.981   2.783  0.2904 -0.0063  0.5333
  960MOL0     C26616   3.647   6.916   2.814 -0.3767 -0.4750  1.1850
  960MOL0     C26617   3.639   6.773   2.811  0.3072  0.4006 -0.1241
  960MOL0     O26618   3.752   6.701   2.817 -0.9459 -0.1247  0.2118
  960MOL0     C26619   3.752   6.567   2.817 -0.1509 -0.0480  0.8707
  960MOL0     C26620   3.712   6.487   2.704  0.9612  0.1579  0.2830
  960MOL0     C26621   3.716   6.350   2.715  0.3553  0.7328  0.6374
  960MOL0     C26622   3.755   6.284   2.826  0.1718  0.3189 -0.4026
  960MOL0     O26623   3.749   6.146   2.827 -0.3841  0.4718 -0.7670
  960MOL0     C26624   3.863   6.076   2.890  0.3679 -0.6926 -0.6370
  960MOL0     C26625   3.852   5.932   2.865  1.8592  0.3868 -0.2559
  960MOL0     C26626   3.747   5.878   2.965  0.5841  0.1873  0.6456
  960MOL0     C26627   3.677   5.760   2.911 -0.1060  0.2452 -0.6011
  960MOL0     C26628   3.596   5.699   3.022 -0.2125  0.6818  1.1771
  960MOL0     C26629   3.515   5.586   2.963  1.4934  0.3947  0.8142
  960MOL0     C26630   3.412   5.523   3.056  0.1164 -0.0318 -0.1465
  960MOL0     C26631   3.482   5.456   3.189  0.3814  0.5465  0.1534
  960MOL0    Cl26632   3.561   5.311   3.125  0.2120 -0.2521 -0.1927
  960MOL0     C26633   3.785   6.365   2.932 -1.3326  0.5432 -0.0580
  960MOL0     C26634   3.783   6.509   2.933 -0.5889  1.3383  0.0421
  960MOL0     O26635   3.526   6.722   2.777 -0.4531 -0.1252 -0.3072
  960MOL0     C26636   3.537   7.006   2.822 -0.5023 -0.3205 -1.2193
  960MOL0     C26637   3.548   7.143   2.821 -0.3415 -0.3107 -0.6607
  960MOL0     N26638   3.629   7.387   2.292 -0.2801  0.1786  0.7137
  960MOL0     N26639   3.581   7.273   2.246 -0.4224 -0.6840 -0.7236
  960MOL0     C26640   4.309   6.388   2.564 -0.6484 -0.0570 -0.1847
  960MOL0     C26641   4.352   6.260   2.591  0.0444 -0.5529 -0.1663
  960MOL0     C26642   4.276   5.787   2.708 -0.1626 -0.5102 -0.6128
  960MOL0     C26643   4.206   5.666   2.693  0.8581 -0.0273  0.9010
  960MOL0     C26644   4.246   5.547   2.759 -0.0370 -0.2619 -0.8828
  960MOL0     C26645   4.357   5.551   2.847  0.0995 -1.3641  0.5049
  960MOL0     O26646   4.375   5.439   2.924 -0.2211 -0.2040 -0.9467
  960MOL0     C26647   4.427   5.457   3.058 -0.5301 -0.8250  0.0311
  960MOL0     C26648   4.379   5.352   3.157 -0.2736 -0.3342  0.2012
  960MOL0     C26649   4.488   5.247   3.192  0.1226 -0.3045  0.5607
  960MOL0     C26650   4.449   5.160   3.313  0.5941 -0.1002 -1.2338
  960MOL0     C26651   4.345   5.068   3.271 -0.5719  0.2023  0.1596
  960MOL0     C26652   4.268   4.989   3.217  0.4979  0.3365  0.1653
  960MOL0     C26653   4.422   5.678   2.867 -0.6190 -0.1542  0.3943
  960MOL0     C26654   4.390   5.793   2.787 -1.2137 -0.7125 -0.0812
  960MOL0     H26655   4.051   6.110   2.652 -2.5073  0.9521 -1.9020
  960MOL0     H26656   3.977   6.329   2.611 -0.8594 -0.4085  0.0252
  960MOL0     H26657   4.021   6.642   2.639 -0.3373  2.8942 -2.4921
  960MOL0     H26658   3.934   6.510   2.545 -1.7144  0.5481  1.7592
  960MOL0     H26659   3.969   6.651   2.351  0.6452 -1.6513  0.7038
  960MOL0     H26660   4.054   6.775   2.451  0.5613  0.0198  0.6314
  960MOL0     H26661   3.846   6.824   2.560  0.1423 -0.4010  0.2784
  960MOL0     H26662   3.753   6.704   2.472  0.3685 -1.1258 -2.8645
  960MOL0     H26663   3.915   6.931   2.345  2.0530 -1.9088  1.9206
  960MOL0     H26664   3.799   6.817   2.261 -2.2901  1.7765 -0.0633
  960MOL0     H26665   3.697   7.029   2.306  1.1561  0.2951  0.1155
  960MOL0     H26666   3.732   7.015   2.479 -5.5669  0.7654  1.0744
  960MOL0     H26667   3.565   6.804   2.474  0.4341 -0.4907 -0.9443
  960MOL0     H26668   3.543   6.847   2.312 -1.4318 -1.6415  0.6457
  960MOL0     H26669   3.368   6.943   2.459 -2.1143  2.8001  0.5031
  960MOL0     H26670   3.481   7.040   2.545 -1.1646 -1.4432  0.0978
  960MOL0     H26671   3.327   7.119   2.323  1.0380  3.2562 -1.2769
  960MOL0     H26672   3.465   7.041   2.239 -0.9028 -0.9371  0.9843
  960MOL0     H26673   3.468   7.277   2.560  0.9676  0.0088  0.6518
  960MOL0     H26674   3.570   7.473   2.620  0.2274 -0.3014  0.7425
  960MOL0     H26675   3.585   7.604   2.506  2.2706  0.0326 -0.4620
  960MOL0     H26676   3.782   7.597   2.601 -0.6004  0.2754 -0.2033
  960MOL0     H26677   3.816   7.528   2.440  0.4941  1.8092 -0.1324
  960MOL0     H26678   3.811   7.288   2.582  1.7926 -0.8071  0.5560
  960MOL0     H26679   3.948   7.397   2.587 -1.6523  1.1630 -2.4525
  960MOL0     H26680   3.816   7.505   2.789  2.3663 -0.7737  2.1432
  960MOL0     H26681   3.899   7.373   2.814 -1.2748 -0.4095  1.6630
  960MOL0     H26682   3.877   7.161   2.750  0.5080 -1.9111  2.0386
  960MOL0     H26683   3.863   6.929   2.771 -0.9280 -1.7845 -2.4945
  960MOL0     H26684   3.687   6.548   2.618 -0.5413  0.0812  0.6510
  960MOL0     H26685   3.681   6.281   2.638  1.9811 -1.5501  1.8255
  960MOL0     H26686   3.874   6.102   2.996  0.1530  0.4239 -0.8748
  960MOL0     H26687   3.956   6.110   2.843  0.5372  2.9192  1.9111
  960MOL0     H26688   3.949   5.881   2.874  1.1082 -0.8424  1.5385
  960MOL0     H26689   3.811   5.909   2.766 -1.8177  0.2904  1.1282
  960MOL0     H26690   3.676   5.958   2.987 -0.3287 -0.1694 -0.8846
  960MOL0     H26691   3.800   5.852   3.057  2.3411  2.3369  0.3568
  960MOL0     H26692   3.612   5.800   2.833 -0.8107  0.1771 -0.0609
  960MOL0     H26693   3.756   5.693   2.877  0.6431  1.1803 -0.7485
  960MOL0     H26694   3.528   5.768   3.072 -1.5181 -0.7085  1.3883
  960MOL0     H26695   3.650   5.659   3.108 -1.4574  1.2106  2.2268
  960MOL0     H26696   3.575   5.520   2.900 -1.1553  0.5605 -2.1403
  960MOL0     H26697   3.463   5.635   2.879  1.6272  1.3103  1.2472
  960MOL0     H26698   3.336   5.600   3.069  0.0170 -0.1495 -0.0290
  960MOL0     H26699   3.354   5.444   3.009 -2.0039  2.7976 -2.6459
  960MOL0     H26700   3.405   5.421   3.259 -0.6393 -2.6445 -2.2974
  960MOL0     H26701   3.547   5.527   3.241  0.2419 -0.1268  1.2696
  960MOL0     H26702   3.807   6.312   3.024  0.8163  0.9027 -0.3034
  960MOL0     H26703   3.799   6.562   3.026  1.3030  1.9189 -0.5613
  960MOL0     H26704   3.436   6.966   2.830 -1.9246  3.2000  0.5606
  960MOL0     H26705   3.466   7.213   2.812  0.0935  0.4964  1.2247
  960MOL0     H26706   4.373   6.474   2.545  3.3674 -2.7396  0.0905
  960MOL0     H26707   4.459   6.242   2.580 -0.0504 -0.7346 -0.7994
  960MOL0     H26708   4.107   5.653   2.652  1.7368 -0.2621 -1.3119
  960MOL0     H26709   4.185   5.457   2.754 -1.0207  0.3271  0.1274
  960MOL0     H26710   4.401   5.557   3.095  2.1053 -0.4535  1.1147
  960MOL0     H26711   4.537   5.458   3.053 -0.3617 -2.9715  1.7843
  960MOL0     H26712   4.346   5.397   3.251  0.1939  0.1657  0.1324
  960MOL0     H26713   4.295   5.293   3.120 -1.1943 -0.2586  2.0575
  960MOL0     H26714   4.580   5.289   3.234  0.8243  0.1888 -1.3295
  960MOL0     H26715   4.515   5.194   3.100 -1.1950  0.5007 -0.3210
  960MOL0     H26716   4.534   5.096   3.342  0.2208  0.3688  1.1200
  960MOL0     H26717   4.440   5.223   3.402  1.1198  0.5260 -1.6215
  960MOL0     H26718   4.195   4.917   3.186  0.5958  0.6198 -0.7731
  960MOL0     H26719   4.502   5.682   2.941  0.1505 -3.2005 -0.1653
  960MOL0     H26720   4.453   5.881   2.781  1.4333 -2.5711 -1.4443
  961MOL0     O26721   1.705   7.498   9.552  0.6907 -0.2050  0.2903
  961MOL0     C26722   1.624   7.556   9.479  0.6410  1.0157  0.3181
  961MOL0     O26723   1.643   7.658   9.387  0.3405  1.1681 -0.1231
  961MOL0     C26724   1.756   7.740   9.400 -0.4930  0.9218  0.2451
  961MOL0     C26725   1.839   7.780   9.296  0.9272 -0.1113  0.3586
  961MOL0     C26726   1.935   7.876   9.315 -0.3474 -0.3318  0.0005
  961MOL0     C26727   1.968   7.929   9.445  0.2646 -0.4288 -0.9703
  961MOL0     O26728   2.054   8.036   9.451 -0.0256  0.4441  0.2242
  961MOL0     C26729   2.034   8.139   9.550 -0.6861  0.5768 -0.4640
  961MOL0     C26730   2.121   8.262   9.525  0.6756  1.3069  0.0966
  961MOL0     C26731   2.076   8.351   9.402 -1.1672 -0.2093  0.7818
  961MOL0     C26732   2.179   8.465   9.366  0.5226  0.8858  0.9000
  961MOL0     C26733   2.285   8.426   9.276  0.2018  0.0169 -0.0227
  961MOL0     C26734   2.231   8.407   9.131 -0.7681 -0.0060  0.8285
  961MOL0     C26735   2.292   8.302   9.042 -0.3199  0.8351 -0.1001
  961MOL0     C26736   2.442   8.340   9.019 -0.4255 -0.0928  0.4538
  961MOL0     N26737   2.508   8.256   8.924 -0.3938  0.5367 -0.0032
  961MOL0     C26738   2.584   8.302   8.819  0.3391  0.4300  0.1529
  961MOL0     C26739   2.639   8.186   8.771  0.6015  0.4892  0.7267
  961MOL0     C26740   2.729   8.177   8.654 -0.7550  0.2399 -0.0169
  961MOL0     C26741   2.868   8.183   8.695  0.3134  0.7371  0.5176
  961MOL0     C26742   2.969   8.155   8.573 -0.3644 -0.0635 -0.2271
  961MOL0     C26743   3.065   8.040   8.609 -0.6580  0.2325  0.3441
  961MOL0     O26744   3.178   8.007   8.515  0.3748 -1.5163 -0.5396
  961MOL0     C26745   3.301   8.067   8.517 -0.0432  0.9726 -0.6991
  961MOL0     C26746   3.412   7.997   8.484  0.0777  0.8206  1.0913
  961MOL0     C26747   3.542   8.042   8.507  0.6626 -1.3399  0.0688
  961MOL0     C26748   3.557   8.172   8.556 -0.5968 -0.8204  0.7110
  961MOL0     C26749   3.696   8.221   8.579 -0.1063  0.1224  0.0787
  961MOL0     O26750   3.791   8.115   8.582 -0.5524  0.9660  0.4859
  961MOL0     C26751   3.919   8.159   8.613 -0.0655 -0.2504  0.3196
  961MOL0     C26752   3.992   8.242   8.537  0.0719  0.5265 -0.5898
  961MOL0     C26753   4.119   8.284   8.588 -0.8410  0.4394  0.6660
  961MOL0     C26754   4.181   8.218   8.691 -0.5388 -0.1092 -0.4408
  961MOL0     O26755   4.304   8.245   8.744  0.1449 -0.8279 -0.5558
  961MOL0     C26756   4.401   8.328   8.685  0.4150 -0.2520 -0.0922
  961MOL0     C26757   4.369   8.467   8.726  0.0322  0.2138 -0.3639
  961MOL0     C26758   4.463   8.573   8.646 -0.5883  0.2298  0.0330
  961MOL0     C26759   4.407   8.715   8.670 -0.0735 -0.0447  0.1178
  961MOL0     C26760   4.497   8.817   8.609 -1.0468 -0.6150 -0.3247
  961MOL0     C26761   4.501   8.814   8.452 -0.0917  0.1040 -0.4493
  961MOL0     C26762   4.623   8.895   8.421  0.2092  0.2883  0.4922
  961MOL0     C26763   4.611   8.960   8.277 -0.4399  0.4988 -0.2936
  961MOL0    Cl26764   4.605   8.835   8.153  0.2622  0.0969  0.3840
  961MOL0     C26765   4.118   8.119   8.758  0.6877  0.0379  1.0234
  961MOL0     C26766   3.980   8.099   8.724  0.5376  0.1669  0.4496
  961MOL0     O26767   3.717   8.342   8.615 -0.2606  0.3546  0.5965
  961MOL0     C26768   3.446   8.254   8.581  0.2330  0.0691 -0.7649
  961MOL0     C26769   3.314   8.195   8.570 -0.2686  0.4937 -0.9340
  961MOL0     N26770   2.620   8.080   8.856 -0.2804 -0.1055 -0.4752
  961MOL0     N26771   2.529   8.121   8.941  0.7785 -0.2922  0.1654
  961MOL0     C26772   1.882   7.886   9.554  0.5564  0.5159  0.6913
  961MOL0     C26773   1.785   7.791   9.522 -0.2055  0.1721 -0.1480
  961MOL0     C26774   1.488   7.498   9.480 -0.9563  0.6975  0.1425
  961MOL0     C26775   1.383   7.563   9.420 -0.6848  0.3866  0.2679
  961MOL0     C26776   1.254   7.510   9.424 -1.1642  1.2193 -0.8294
  961MOL0     C26777   1.241   7.385   9.484  0.3858  0.5757  0.1916
  961MOL0     O26778   1.117   7.331   9.463  0.1071 -0.1238 -0.2498
  961MOL0     C26779   1.077   7.233   9.548 -0.6437  0.2589 -0.0887
  961MOL0     C26780   0.923   7.225   9.526  0.0891  1.2005 -0.3443
  961MOL0     C26781   0.849   7.293   9.653  0.0423  0.1357  0.7959
  961MOL0     C26782   0.697   7.281   9.624 -0.4219  0.2305 -0.2728
  961MOL0     C26783   0.654   7.391   9.542  0.5162 -0.2112  0.2810
  961MOL0     C26784   0.597   7.478   9.473 -0.1585 -0.9836  0.6514
  961MOL0     C26785   1.335   7.321   9.567  0.0036  0.2621  0.7352
  961MOL0     C26786   1.465   7.380   9.559  0.2848 -0.1298 -0.2939
  961MOL0     H26787   1.816   7.745   9.196  1.4199  2.3457 -0.6742
  961MOL0     H26788   1.994   7.901   9.228 -0.7374 -0.5111 -0.3199
  961MOL0     H26789   2.056   8.101   9.650 -0.9754 -0.6593 -0.8544
  961MOL0     H26790   1.939   8.192   9.557 -0.5775  0.8401 -0.9425
  961MOL0     H26791   2.221   8.220   9.508  0.3527  0.5905 -0.1082
  961MOL0     H26792   2.121   8.320   9.617 -2.4658  2.4417 -0.4923
  961MOL0     H26793   1.979   8.403   9.410 -0.8307  0.3809  1.1111
  961MOL0     H26794   2.067   8.291   9.311  3.1364  0.4415 -0.2570
  961MOL0     H26795   2.125   8.550   9.323 -0.2882  0.7210  1.5595
  961MOL0     H26796   2.222   8.496   9.462  1.5049  1.2705  0.3444
  961MOL0     H26797   2.326   8.332   9.316 -0.8962 -0.2714  0.4473
  961MOL0     H26798   2.356   8.509   9.280 -2.0861  2.0257  0.8889
  961MOL0     H26799   2.246   8.503   9.081  2.8962 -0.5681  0.5857
  961MOL0     H26800   2.122   8.395   9.134 -0.6238 -1.6327  0.2001
  961MOL0     H26801   2.294   8.205   9.093  0.4607  2.0515  2.3344
  961MOL0     H26802   2.239   8.295   8.947 -0.0389 -2.5075 -0.1345
  961MOL0     H26803   2.497   8.341   9.114 -1.2488  1.4858  0.9497
  961MOL0     H26804   2.449   8.441   8.976 -1.3323 -0.6087 -0.9905
  961MOL0     H26805   2.587   8.403   8.778 -1.0540  0.5098  0.2096
  961MOL0     H26806   2.730   8.265   8.590 -1.5161 -0.1115 -0.5288
  961MOL0     H26807   2.716   8.083   8.600 -1.0666  2.2613 -3.8292
  961MOL0     H26808   2.898   8.122   8.781  1.1735  0.5222  0.0778
  961MOL0     H26809   2.888   8.285   8.731  2.6989  0.5648 -0.1208
  961MOL0     H26810   2.920   8.137   8.477  0.5978 -2.1849 -0.3771
  961MOL0     H26811   3.023   8.247   8.550  3.6742 -2.4501 -1.2840
  961MOL0     H26812   3.005   7.948   8.608  0.5088 -0.5869  1.6797
  961MOL0     H26813   3.106   8.053   8.709  2.4361  1.5969 -0.9731
  961MOL0     H26814   3.389   7.904   8.434 -2.1484  0.5483  2.4875
  961MOL0     H26815   3.632   7.981   8.501  3.3015  2.2262  0.4356
  961MOL0     H26816   3.930   8.291   8.463 -2.8058 -3.2843 -1.0135
  961MOL0     H26817   4.168   8.371   8.546 -2.2080  0.4769 -0.9363
  961MOL0     H26818   4.399   8.317   8.577 -4.5536  0.1657 -0.2674
  961MOL0     H26819   4.493   8.283   8.723 -1.9795 -5.0604  0.7584
  961MOL0     H26820   4.400   8.467   8.831  1.5647  0.4024 -0.7899
  961MOL0     H26821   4.262   8.492   8.720 -0.0359  0.3400  0.9219
  961MOL0     H26822   4.451   8.552   8.539  1.2768  1.4006 -0.4420
  961MOL0     H26823   4.568   8.560   8.674 -1.3141 -1.6341  2.1926
  961MOL0     H26824   4.304   8.736   8.639 -0.1143 -0.0809  0.2254
  961MOL0     H26825   4.404   8.723   8.779  0.6194 -4.7396  0.6967
  961MOL0     H26826   4.593   8.793   8.656 -1.6356  1.4271  2.1269
  961MOL0     H26827   4.476   8.921   8.637  3.3914  0.5883 -0.6801
  961MOL0     H26828   4.408   8.860   8.418  0.8173  0.7441 -2.2118
  961MOL0     H26829   4.530   8.720   8.404  0.6881  0.7450 -1.2712
  961MOL0     H26830   4.634   8.983   8.485 -0.2649  2.1161 -1.7774
  961MOL0     H26831   4.703   8.822   8.436 -1.3041 -1.4177  0.5781
  961MOL0     H26832   4.702   9.018   8.259 -1.2754  1.4943 -1.4836
  961MOL0     H26833   4.526   9.028   8.268 -0.6221  0.2217 -0.7053
  961MOL0     H26834   4.172   8.055   8.827  0.4358 -1.1538  0.1599
  961MOL0     H26835   3.927   8.020   8.777  1.2600 -0.2056  0.6395
  961MOL0     H26836   3.459   8.351   8.629  4.2440  0.0465 -1.5051
  961MOL0     H26837   3.226   8.252   8.598  0.0109  1.6042 -2.2246
  961MOL0     H26838   1.878   7.910   9.660 -0.3592 -0.9323  1.0029
  961MOL0     H26839   1.714   7.762   9.598 -1.2364 -1.1206 -1.5511
  961MOL0     H26840   1.394   7.653   9.360  1.0530  0.6662  0.9335
  961MOL0     H26841   1.176   7.557   9.365  0.0303  2.4412 -1.5192
  961MOL0     H26842   1.088   7.258   9.654 -2.3854 -1.0379  0.4360
  961MOL0     H26843   1.127   7.139   9.524  0.1470  0.6162  0.1040
  961MOL0     H26844   0.886   7.284   9.441 -1.3658  1.5451  0.4846
  961MOL0     H26845   0.903   7.118   9.517  0.1638  1.1111  0.5462
  961MOL0     H26846   0.887   7.395   9.660  1.5498 -0.2164 -1.1026
  961MOL0     H26847   0.869   7.239   9.746  0.1025  0.6484  1.0827
  961MOL0     H26848   0.663   7.185   9.585 -0.8798  1.1868 -2.3687
  961MOL0     H26849   0.647   7.287   9.721 -0.8498 -2.7140 -0.2105
  961MOL0     H26850   0.539   7.557   9.430 -3.5882 -2.1903  2.6221
  961MOL0     H26851   1.325   7.228   9.622  3.3284  0.0180  1.1709
  961MOL0     H26852   1.548   7.346   9.620 -0.8264 -3.1094 -0.3173
  962MOL0     O26853   5.519   7.511   9.247 -0.2108 -0.2418 -0.1733
  962MOL0     C26854   5.608   7.545   9.316  0.0777 -0.1257 -0.3543
  962MOL0     O26855   5.708   7.633   9.283  0.5757 -0.3413  0.1801
  962MOL0     C26856   5.684   7.704   9.166  0.4405  0.5656 -0.2577
  962MOL0     C26857   5.790   7.709   9.075  0.4295  0.3483 -0.9581
  962MOL0     C26858   5.778   7.796   8.963  1.0485  0.8773  0.0926
  962MOL0     C26859   5.659   7.863   8.935 -0.0371 -0.6770 -0.3184
  962MOL0     O26860   5.679   7.941   8.815  0.4050 -0.3707 -0.6070
  962MOL0     C26861   5.575   8.039   8.783  0.3918 -0.0922  0.2625
  962MOL0     C26862   5.525   8.011   8.641 -0.9644 -0.4451  0.7819
  962MOL0     C26863   5.614   8.010   8.518  0.4641 -0.2441  0.0994
  962MOL0     C26864   5.550   7.943   8.390  0.5633  0.2538 -0.7701
  962MOL0     C26865   5.659   7.943   8.283  0.9365  0.9186  0.1907
  962MOL0     C26866   5.625   7.835   8.172  0.5368  0.6664 -0.5807
  962MOL0     C26867   5.734   7.816   8.069  0.0994  0.8220 -0.6479
  962MOL0     C26868   5.768   7.954   8.004 -0.0534  0.0746  0.2768
  962MOL0     N26869   5.884   7.964   7.915 -0.4529  0.0572  0.5609
  962MOL0     C26870   6.003   7.909   7.950 -0.3619  0.6140  0.5352
  962MOL0     C26871   6.082   7.954   7.851 -0.8392 -0.1040 -0.2198
  962MOL0     C26872   6.232   7.923   7.855 -0.2903 -0.3160 -1.2643
  962MOL0     C26873   6.314   7.960   7.720  0.5742  1.2342 -0.0329
  962MOL0     C26874   6.327   8.103   7.681 -0.3336 -0.8577  0.0379
  962MOL0     C26875   6.354   8.200   7.808 -0.1388  0.2872  0.2567
  962MOL0     O26876   6.464   8.142   7.884 -0.5654 -1.1660 -1.0293
  962MOL0     C26877   6.589   8.147   7.833  0.6042  0.4436  0.0319
  962MOL0     C26878   6.626   8.232   7.732 -0.6131  0.9733 -0.0338
  962MOL0     C26879   6.758   8.228   7.686 -0.6271 -0.4620 -0.5524
  962MOL0     C26880   6.857   8.150   7.746 -0.1856 -0.0502 -0.9388
  962MOL0     C26881   6.998   8.141   7.697 -0.1419 -0.1910  0.2343
  962MOL0     O26882   7.091   8.090   7.784  0.0874 -0.5601  0.3189
  962MOL0     C26883   7.217   8.063   7.726 -0.0096  0.5222 -0.5746
  962MOL0     C26884   7.319   8.116   7.810  0.4935  0.1341  0.6435
  962MOL0     C26885   7.452   8.116   7.759  0.9116  0.2937 -0.1032
  962MOL0     C26886   7.475   8.059   7.631 -0.4831  1.1889 -0.6342
  962MOL0     O26887   7.595   8.043   7.571  0.3501 -0.1990 -0.7438
  962MOL0     C26888   7.714   8.033   7.661 -0.5693 -0.3885 -0.2139
  962MOL0     C26889   7.827   7.951   7.602  0.1910 -1.3796 -0.2244
  962MOL0     C26890   7.869   7.983   7.455  0.3370 -1.2406 -0.1997
  962MOL0     C26891   7.978   8.092   7.458  0.0023 -0.1080  1.2410
  962MOL0     C26892   8.037   8.114   7.317  0.3344 -0.0796  0.6498
  962MOL0     C26893   8.102   7.982   7.262 -0.2250 -1.3280  0.9161
  962MOL0     C26894   8.243   8.009   7.199 -0.7811  0.3149  0.0258
  962MOL0     C26895   8.282   7.873   7.127 -0.4260 -0.4922 -0.1390
  962MOL0    Cl26896   8.419   7.909   7.017 -0.0322 -0.5369  0.2948
  962MOL0     C26897   7.367   8.013   7.548 -0.6125  0.5193 -0.6448
  962MOL0     C26898   7.239   8.015   7.600  0.2221  0.1753  0.2577
  962MOL0     O26899   7.008   8.181   7.582 -0.3951 -0.0102  0.3794
  962MOL0     C26900   6.817   8.064   7.849 -0.3519 -0.1272 -0.4067
  962MOL0     C26901   6.688   8.063   7.888  0.1928  0.4014 -0.2097
  962MOL0     N26902   6.004   8.020   7.757 -0.0838 -0.1612 -0.2084
  962MOL0     N26903   5.883   8.033   7.797  0.1208 -0.1606  0.4315
  962MOL0     C26904   5.552   7.851   9.022  0.3337 -0.5468 -0.1356
  962MOL0     C26905   5.561   7.769   9.132  0.9479  0.1255 -0.5292
  962MOL0     C26906   5.631   7.476   9.450 -0.3824 -0.4407 -0.5404
  962MOL0     C26907   5.551   7.366   9.493  0.5570  0.1729 -0.3957
  962MOL0     C26908   5.577   7.299   9.613 -0.0377  0.4618  0.4303
  962MOL0     C26909   5.677   7.341   9.696  0.1792 -0.6043 -0.0335
  962MOL0     O26910   5.701   7.296   9.825  0.9102 -0.0992 -0.3998
  962MOL0     C26911   5.645   7.172   9.864 -0.8830  0.0261  0.1883
  962MOL0     C26912   5.692   7.135  10.001 -0.0655 -0.5441 -1.3471
  962MOL0     C26913   5.633   7.227  10.109  0.0187  1.4277  0.5152
  962MOL0     C26914   5.644   7.179  10.249 -0.1196  1.0439  0.1770
  962MOL0     C26915   5.787   7.131  10.284  0.4479 -0.4936 -0.0193
  962MOL0     C26916   5.900   7.101  10.326  0.2834  0.3428 -0.5229
  962MOL0     C26917   5.757   7.448   9.654  0.0386  0.6879  0.5176
  962MOL0     C26918   5.733   7.517   9.534 -0.8029 -0.4807  0.3285
  962MOL0     H26919   5.880   7.651   9.093  0.4030  0.6700  0.3043
  962MOL0     H26920   5.859   7.805   8.891  2.4350  1.5591  1.6695
  962MOL0     H26921   5.623   8.137   8.784  2.1278 -0.9272  0.6397
  962MOL0     H26922   5.489   8.031   8.851 -0.4603 -3.0460 -0.9804
  962MOL0     H26923   5.441   8.079   8.620  0.2163  0.5583 -0.9936
  962MOL0     H26924   5.470   7.917   8.647 -0.6867 -0.5452  2.1768
  962MOL0     H26925   5.709   7.962   8.541  1.8630  0.6939 -3.1478
  962MOL0     H26926   5.641   8.111   8.486  0.3816 -0.3323 -0.2468
  962MOL0     H26927   5.528   7.837   8.405 -0.0172  0.6291  1.3987
  962MOL0     H26928   5.457   7.999   8.376 -0.8740 -0.6780  3.4361
  962MOL0     H26929   5.761   7.915   8.313  0.5689 -1.7442 -0.7771
  962MOL0     H26930   5.656   8.042   8.237  0.0297 -0.2168 -2.3876
  962MOL0     H26931   5.531   7.854   8.120  1.0972  0.5601 -1.6746
  962MOL0     H26932   5.612   7.740   8.225  1.3340  0.9656  0.1787
  962MOL0     H26933   5.819   7.776   8.126 -0.1936  2.5977  1.1508
  962MOL0     H26934   5.691   7.742   8.002  0.4173  0.3700 -0.3608
  962MOL0     H26935   5.801   8.028   8.078  1.3471  0.3728 -0.5963
  962MOL0     H26936   5.682   7.992   7.949 -0.5053 -1.7354 -0.3325
  962MOL0     H26937   6.028   7.858   8.043 -2.1928 -2.1730 -0.3926
  962MOL0     H26938   6.243   7.817   7.877 -0.4642 -0.0617  0.1543
  962MOL0     H26939   6.276   7.972   7.942 -0.8353  1.8856 -2.1473
  962MOL0     H26940   6.259   7.904   7.644 -0.0373  3.2837 -1.1791
  962MOL0     H26941   6.416   7.922   7.727 -0.5918 -2.3520 -0.8007
  962MOL0     H26942   6.413   8.113   7.614  0.8524  2.1767  1.7930
  962MOL0     H26943   6.232   8.133   7.636  0.3500 -2.8688 -3.0195
  962MOL0     H26944   6.275   8.207   7.884  2.5697  1.0069  3.2559
  962MOL0     H26945   6.370   8.293   7.753  0.7135 -1.6113 -2.9037
  962MOL0     H26946   6.560   8.304   7.684 -2.6062 -1.4824 -1.2170
  962MOL0     H26947   6.787   8.278   7.595  3.7582 -1.3771  0.1141
  962MOL0     H26948   7.304   8.172   7.902  0.8750  0.7532  0.3433
  962MOL0     H26949   7.537   8.152   7.816  0.6603  0.3312  0.2558
  962MOL0     H26950   7.700   7.989   7.760 -0.4549  1.8971  0.8730
  962MOL0     H26951   7.759   8.129   7.685  2.4325 -1.9844  1.1186
  962MOL0     H26952   7.793   7.847   7.598 -0.7341 -1.1127 -5.1421
  962MOL0     H26953   7.914   7.967   7.667 -1.8639  1.6035  2.1167
  962MOL0     H26954   7.789   8.000   7.383  0.6037 -3.1376 -1.0086
  962MOL0     H26955   7.928   7.895   7.427  0.6353 -2.2188  3.0294
  962MOL0     H26956   7.925   8.176   7.505  2.2259  1.1945  1.5633
  962MOL0     H26957   8.063   8.066   7.522  1.3624  0.3176 -0.3265
  962MOL0     H26958   8.114   8.192   7.329  0.1437  0.0109  1.3242
  962MOL0     H26959   7.977   8.155   7.235  1.8811  1.3509  0.1771
  962MOL0     H26960   8.037   7.942   7.184 -0.6881  2.8730 -1.1790
  962MOL0     H26961   8.121   7.907   7.339  2.2415 -0.6378  1.0875
  962MOL0     H26962   8.233   8.094   7.131 -2.1941  1.6407  1.7993
  962MOL0     H26963   8.306   8.032   7.285 -1.2017  0.4162  0.3097
  962MOL0     H26964   8.193   7.829   7.080 -2.1223  0.1869  2.2221
  962MOL0     H26965   8.317   7.800   7.201  0.2090 -1.6490 -1.5301
  962MOL0     H26966   7.390   7.970   7.451 -0.7491 -0.8504 -0.0848
  962MOL0     H26967   7.163   7.971   7.537  2.6200 -1.9803 -1.3655
  962MOL0     H26968   6.887   8.005   7.908 -3.0573 -2.4826  0.6746
  962MOL0     H26969   6.657   8.008   7.976  0.9555 -1.2031 -0.9028
  962MOL0     H26970   5.458   7.899   8.997  0.4552  1.0107  2.0705
  962MOL0     H26971   5.469   7.757   9.189 -0.5730  2.2895 -2.3468
  962MOL0     H26972   5.476   7.308   9.439  1.3305 -1.2475 -0.0120
  962MOL0     H26973   5.499   7.226   9.633  0.6134 -0.4869 -0.3961
  962MOL0     H26974   5.698   7.095   9.807  0.7685 -0.7929  2.6449
  962MOL0     H26975   5.538   7.172   9.843 -0.5807 -0.1951 -1.4899
  962MOL0     H26976   5.678   7.027  10.012 -2.7991 -0.0868  0.4421
  962MOL0     H26977   5.800   7.152  10.014 -0.3949 -0.0271  1.2169
  962MOL0     H26978   5.525   7.233  10.094  0.0103  1.1299  0.4559
  962MOL0     H26979   5.684   7.324  10.104  1.8860  0.4119 -2.9866
  962MOL0     H26980   5.629   7.266  10.314  2.3825 -0.4239  3.0019
  962MOL0     H26981   5.568   7.101  10.263  0.6075  0.1392 -0.7073
  962MOL0     H26982   5.993   7.075  10.371  0.5917  0.4877 -1.0693
  962MOL0     H26983   5.827   7.486   9.727  0.0394  1.3728  0.1711
  962MOL0     H26984   5.811   7.588   9.505 -2.2112  2.2365  2.6652
  963MOL0     O26985   7.348   5.410   0.148  0.5250  0.0013  0.0209
  963MOL0     C26986   7.367   5.315   0.067  0.7885  0.0414  0.0865
  963MOL0     O26987   7.480   5.302  -0.023 -0.4613 -0.4379 -0.1186
  963MOL0     C26988   7.578   5.405  -0.035  0.0262 -0.3733 -0.3138
  963MOL0     C26989   7.561   5.546  -0.004 -0.0092  1.3064  0.5406
  963MOL0     C26990   7.649   5.634  -0.059 -0.1678  0.1239 -0.2781
  963MOL0     C26991   7.764   5.605  -0.136 -0.1414 -1.5687  0.2566
  963MOL0     O26992   7.849   5.701  -0.189 -0.0846  0.0159 -0.3382
  963MOL0     C26993   7.980   5.667  -0.130  0.1846  0.8614  0.8159
  963MOL0     C26994   8.076   5.779  -0.126 -0.1034  0.8374  0.5982
  963MOL0     C26995   8.193   5.749  -0.034  0.3243 -0.0278  0.2084
  963MOL0     C26996   8.295   5.859  -0.045 -0.2026  0.4630 -0.0090
  963MOL0     C26997   8.382   5.835   0.072  0.3470 -0.2675 -0.1683
  963MOL0     C26998   8.498   5.936   0.079 -0.0701  0.5871  0.4035
  963MOL0     C26999   8.593   5.927   0.200 -0.2515  0.1464 -0.4216
  963MOL0     C27000   8.670   5.796   0.207 -0.3534  0.7308 -0.3817
  963MOL0     N27001   8.757   5.798   0.327 -0.2187  0.0366 -0.8251
  963MOL0     C27002   8.765   5.703   0.429  0.6906  0.8675 -0.3648
  963MOL0     C27003   8.874   5.745   0.506 -0.6254  0.3080 -0.4822
  963MOL0     C27004   8.907   5.675   0.638 -0.2663 -0.3421  0.6081
  963MOL0     C27005   8.968   5.537   0.645  0.6710 -1.0339  0.8392
  963MOL0     C27006   9.094   5.516   0.562 -0.2774  0.6070 -0.3089
  963MOL0     C27007   9.149   5.377   0.586  0.2028  0.8547  0.2158
  963MOL0     O27008   9.220   5.385   0.705 -0.8250 -0.4904 -0.3162
  963MOL0     C27009   9.320   5.289   0.724  0.2616 -1.1932 -0.7210
  963MOL0     C27010   9.347   5.174   0.653  0.7377 -0.4618  0.1909
  963MOL0     C27011   9.457   5.091   0.674 -0.1474  0.9920 -1.1805
  963MOL0     C27012   9.552   5.131   0.766  0.4410 -0.1454  0.2543
  963MOL0     C27013   9.681   5.057   0.768  0.0824  0.1586  0.7342
  963MOL0     O27014   9.696   4.950   0.675  0.7512  0.1511 -0.8212
  963MOL0     C27015   9.815   4.880   0.644 -0.7482 -0.9762 -0.6658
  963MOL0     C27016   9.813   4.743   0.639 -0.1047 -0.2546  0.4262
  963MOL0     C27017   9.932   4.670   0.599 -0.2971  0.1557  0.7610
  963MOL0     C27018  10.048   4.746   0.557  0.6562  0.5752 -0.3149
  963MOL0     O27019  10.150   4.667   0.517 -0.4632 -0.5308  0.6445
  963MOL0     C27020  10.264   4.728   0.468 -0.8348  0.2033  0.0873
  963MOL0     C27021  10.384   4.636   0.448  0.2788  0.0952 -0.2824
  963MOL0     C27022  10.423   4.545   0.567 -0.0408  0.5493  0.0315
  963MOL0     C27023  10.528   4.437   0.535 -1.0203 -1.4254  0.6163
  963MOL0     C27024  10.581   4.373   0.662 -0.0493  0.1218  0.0105
  963MOL0     C27025  10.676   4.252   0.630  0.9159 -0.2045 -0.1008
  963MOL0     C27026  10.714   4.167   0.745 -0.5122 -0.8663  0.8379
  963MOL0     C27027  10.811   4.056   0.699 -0.3060  1.0419  0.2050
  963MOL0    Cl27028  10.850   3.976   0.866 -0.0848  0.1463 -0.2448
  963MOL0     C27029  10.049   4.885   0.571 -0.5023 -0.1539  0.1645
  963MOL0     C27030   9.940   4.952   0.616 -0.1451  0.8681 -0.3930
  963MOL0     O27031   9.769   5.095   0.838  0.2431 -1.0503  0.1831
  963MOL0     C27032   9.539   5.257   0.826  0.3078 -0.2821 -0.9351
  963MOL0     C27033   9.421   5.331   0.807  0.9990 -0.8108 -0.6436
  963MOL0     N27034   8.930   5.856   0.456 -0.6979  0.2493  0.0810
  963MOL0     N27035   8.860   5.885   0.351  0.6862 -0.0682  0.7169
  963MOL0     C27036   7.780   5.466  -0.164 -1.0709 -0.0362 -0.1812
  963MOL0     C27037   7.695   5.367  -0.113 -1.4250  0.6404  0.7991
  963MOL0     C27038   7.275   5.196   0.068 -0.1212  0.7838  0.2243
  963MOL0     C27039   7.317   5.079   0.002 -0.4565 -0.2483  0.4993
  963MOL0     C27040   7.233   4.968   0.003  0.5569  0.6479 -0.8032
  963MOL0     C27041   7.106   4.969   0.065 -0.6025  0.6714  0.1772
  963MOL0     O27042   7.050   4.847   0.064  0.2234 -0.0271 -0.3855
  963MOL0     C27043   6.911   4.833   0.099  0.9709  0.6092 -0.6130
  963MOL0     C27044   6.858   4.687   0.054 -0.3072 -0.2402 -0.3333
  963MOL0     C27045   6.934   4.584   0.140 -0.3416  0.4217  0.2926
  963MOL0     C27046   6.892   4.441   0.104 -0.4484  0.5864  0.3008
  963MOL0     C27047   6.744   4.417   0.099 -0.8995  0.5749  0.3891
  963MOL0     C27048   6.624   4.438   0.097 -0.1710 -0.3727 -0.6510
  963MOL0     C27049   7.059   5.084   0.135 -0.2357  0.3897  0.7919
  963MOL0     C27050   7.151   5.197   0.131 -0.2557  0.0214  0.5083
  963MOL0     H27051   7.466   5.590   0.025 -0.4394  1.5515 -1.1337
  963MOL0     H27052   7.628   5.739  -0.042 -3.0127 -0.0609 -2.0737
  963MOL0     H27053   8.031   5.593  -0.192  1.3921  1.5535  0.9539
  963MOL0     H27054   7.982   5.630  -0.027 -0.2910  1.4891  1.0630
  963MOL0     H27055   8.021   5.865  -0.089  0.5949  1.4487  0.2600
  963MOL0     H27056   8.119   5.812  -0.222 -2.2456 -3.3526 -2.0962
  963MOL0     H27057   8.233   5.649  -0.053 -0.0621 -0.1349 -0.0616
  963MOL0     H27058   8.149   5.753   0.066 -0.1661  0.9064 -0.0234
  963MOL0     H27059   8.352   5.865  -0.138  0.0455 -3.0075 -0.2015
  963MOL0     H27060   8.234   5.951  -0.041 -0.7349  0.0901  0.9666
  963MOL0     H27061   8.412   5.732   0.053 -0.5551 -0.4939 -0.4089
  963MOL0     H27062   8.330   5.839   0.168  0.5744  1.7741 -0.0876
  963MOL0     H27063   8.450   6.034   0.084  0.4228  0.8501 -0.0438
  963MOL0     H27064   8.552   5.926  -0.016  0.5580 -0.7937  0.8807
  963MOL0     H27065   8.648   6.017   0.229  0.9952 -1.3593  2.2276
  963MOL0     H27066   8.529   5.910   0.286 -1.7645 -0.8879 -1.6914
  963MOL0     H27067   8.741   5.789   0.124 -1.1751 -2.1059 -0.9358
  963MOL0     H27068   8.596   5.716   0.197  1.0382 -0.5039 -1.2121
  963MOL0     H27069   8.685   5.633   0.454  2.0681  0.1303  2.4609
  963MOL0     H27070   8.826   5.665   0.711 -2.0948 -0.9904 -1.3965
  963MOL0     H27071   8.982   5.740   0.682 -2.5156  1.3225  2.2453
  963MOL0     H27072   8.890   5.469   0.610  1.0374 -0.1879 -1.9109
  963MOL0     H27073   9.001   5.512   0.746  2.1733 -0.7402  0.4561
  963MOL0     H27074   9.058   5.517   0.459 -1.3392  0.4432  0.0528
  963MOL0     H27075   9.163   5.598   0.583  0.7740 -0.0354 -1.1051
  963MOL0     H27076   9.214   5.351   0.502 -1.4328 -2.2695 -0.2448
  963MOL0     H27077   9.069   5.302   0.593  0.1164  0.8837 -0.4127
  963MOL0     H27078   9.273   5.145   0.579  0.5980  0.4139 -0.0213
  963MOL0     H27079   9.459   4.996   0.623  0.9965 -0.1867  0.9622
  963MOL0     H27080   9.718   4.692   0.652 -0.4746  1.1946  5.6229
  963MOL0     H27081   9.930   4.562   0.587 -0.1564  0.1870  0.4396
  963MOL0     H27082  10.302   4.805   0.537 -1.0452  1.0103 -0.6821
  963MOL0     H27083  10.251   4.785   0.376 -0.6734  1.7532  0.9792
  963MOL0     H27084  10.471   4.702   0.440 -0.6404  1.6218  1.6680
  963MOL0     H27085  10.367   4.573   0.360 -1.8605 -0.5028  0.4891
  963MOL0     H27086  10.333   4.497   0.607 -1.3472  1.0226 -2.1651
  963MOL0     H27087  10.459   4.604   0.652  1.4469  0.2880 -0.3872
  963MOL0     H27088  10.491   4.357   0.471 -0.7828 -0.5819 -0.6142
  963MOL0     H27089  10.610   4.490   0.486 -0.9343 -1.9298  0.1981
  963MOL0     H27090  10.503   4.329   0.725  0.3138  0.2733  0.5719
  963MOL0     H27091  10.627   4.453   0.721 -2.6277  2.4093 -0.8473
  963MOL0     H27092  10.765   4.288   0.578  0.9957  1.6347  1.2363
  963MOL0     H27093  10.617   4.188   0.562  1.8873 -1.3761  0.1209
  963MOL0     H27094  10.749   4.229   0.827 -4.0123 -0.7853  2.4579
  963MOL0     H27095  10.620   4.125   0.783 -0.1211 -0.3872  2.3952
  963MOL0     H27096  10.897   4.107   0.655 -1.6738  4.0874  0.7856
  963MOL0     H27097  10.765   3.990   0.625  0.2612  0.3925  0.4209
  963MOL0     H27098  10.133   4.945   0.536 -0.9202 -0.2900 -1.1185
  963MOL0     H27099   9.942   5.060   0.614  1.4631  0.8476 -2.2750
  963MOL0     H27100   9.620   5.295   0.887 -0.8925 -1.1486  1.3209
  963MOL0     H27101   9.403   5.426   0.857 -1.1650 -1.9802  0.9700
  963MOL0     H27102   7.868   5.431  -0.216  0.3958 -0.1042  2.1819
  963MOL0     H27103   7.729   5.265  -0.126  4.6409  2.3937 -0.3142
  963MOL0     H27104   7.410   5.068  -0.052  0.1116  0.3898  1.3096
  963MOL0     H27105   7.247   4.869  -0.040 -2.1285  0.0095 -0.3550
  963MOL0     H27106   6.855   4.910   0.045 -0.5410  0.7687  1.0696
  963MOL0     H27107   6.897   4.856   0.205  1.6844  5.2772 -1.3211
  963MOL0     H27108   6.750   4.685   0.072 -0.1863 -0.7139  0.3866
  963MOL0     H27109   6.873   4.677  -0.054  0.4229 -3.4447 -0.0147
  963MOL0     H27110   6.922   4.585   0.248 -1.7950 -1.8964  0.2075
  963MOL0     H27111   7.040   4.580   0.115 -0.5793 -0.0957 -0.6883
  963MOL0     H27112   6.944   4.399   0.018  2.1304  1.0927  1.5310
  963MOL0     H27113   6.919   4.375   0.187  2.4318 -1.0931 -1.8162
  963MOL0     H27114   6.521   4.468   0.092 -0.9229 -2.6875 -0.7148
  963MOL0     H27115   6.958   5.086   0.175 -1.1281 -0.0081 -1.2902
  963MOL0     H27116   7.133   5.295   0.174  2.4860  1.7146 -1.8484
  964MOL0     O27117   4.545   8.486  10.867 -0.6269 -0.3738 -0.1957
  964MOL0     C27118   4.670   8.490  10.870  0.4531 -0.4163 -0.3441
  964MOL0     O27119   4.741   8.532  10.972 -0.5197 -0.7135 -0.2299
  964MOL0     C27120   4.690   8.565  11.092 -0.9623 -1.1695  0.4157
  964MOL0     C27121   4.790   8.646  11.160 -0.3603  0.3943 -0.5550
  964MOL0     C27122   4.770   8.702  11.291 -0.2455 -0.5088 -0.6322
  964MOL0     C27123   4.666   8.652  11.371  0.9340  0.0271 -0.7581
  964MOL0     O27124   4.635   8.696  11.495  0.0959  0.3738  0.0272
  964MOL0     C27125   4.638   8.838  11.523 -0.3113  0.6642 -0.3592
  964MOL0     C27126   4.506   8.897  11.507  0.3761 -0.3022 -0.5475
  964MOL0     C27127   4.499   9.035  11.560 -0.3757 -0.5392  0.9308
  964MOL0     C27128   4.365   9.089  11.524 -0.2533 -0.4388 -0.1777
  964MOL0     C27129   4.347   9.227  11.592  0.2638  1.0384 -0.1738
  964MOL0     C27130   4.191   9.238  11.605  0.0519  0.2874  0.0422
  964MOL0     C27131   4.150   9.385  11.626 -0.8492 -0.7009 -0.4613
  964MOL0     C27132   4.169   9.439  11.769 -1.0167 -0.8136 -0.3168
  964MOL0     N27133   4.111   9.357  11.878  1.5148  0.8697  0.0195
  964MOL0     C27134   3.981   9.304  11.878 -0.6367  0.8807  0.5947
  964MOL0     C27135   3.982   9.213  11.977  0.4779 -0.2219  0.0169
  964MOL0     C27136   3.876   9.121  12.016 -0.0592 -0.6807 -0.0313
  964MOL0     C27137   3.905   8.983  11.957  0.8678  0.3036 -0.4181
  964MOL0     C27138   3.784   8.885  11.986  0.0417  0.8326  0.7800
  964MOL0     C27139   3.778   8.849  12.138 -1.0406 -0.3743 -1.0510
  964MOL0     O27140   3.704   8.735  12.172 -0.4710  0.5448 -0.0489
  964MOL0     C27141   3.767   8.606  12.156 -0.3628 -0.5916 -0.0963
  964MOL0     C27142   3.905   8.580  12.151 -1.0876  0.7755 -0.1308
  964MOL0     C27143   3.945   8.445  12.138 -0.5992 -0.5395  0.2148
  964MOL0     C27144   3.856   8.344  12.113  0.6063  0.8161 -0.3701
  964MOL0     C27145   3.911   8.209  12.096  0.0391  0.8111  0.1082
  964MOL0     O27146   4.042   8.202  12.072 -0.3923  0.5545  0.6027
  964MOL0     C27147   4.106   8.088  12.045  0.6496 -0.1842  0.3826
  964MOL0     C27148   4.235   8.105  11.994 -0.1486  0.6264  0.7163
  964MOL0     C27149   4.316   8.000  11.961  0.2677 -0.1364  0.7887
  964MOL0     C27150   4.281   7.866  11.977  0.6182 -0.6366 -1.0680
  964MOL0     O27151   4.374   7.778  11.939  0.1863  0.1422  0.0150
  964MOL0     C27152   4.356   7.642  11.959  0.7884 -0.6592 -0.2982
  964MOL0     C27153   4.486   7.578  11.928  0.1160  0.1191 -0.1015
  964MOL0     C27154   4.522   7.582  11.780 -0.9390 -0.2889  0.3021
  964MOL0     C27155   4.630   7.477  11.746  0.2276 -0.4403  0.2541
  964MOL0     C27156   4.759   7.496  11.803  0.7302  0.6495  0.4973
  964MOL0     C27157   4.846   7.363  11.785 -0.1934 -0.8544 -0.4978
  964MOL0     C27158   4.991   7.397  11.820  0.2913 -0.7976 -0.2514
  964MOL0     C27159   5.074   7.272  11.839  0.7378  0.2575  0.0799
  964MOL0    Cl27160   5.086   7.180  11.686  0.3772 -0.2651 -0.4900
  964MOL0     C27161   4.153   7.841  12.026 -0.1922  0.1480  0.4157
  964MOL0     C27162   4.066   7.948  12.061  0.4884  0.7123 -0.9754
  964MOL0     O27163   3.832   8.111  12.105  0.0100 -0.6769 -0.2466
  964MOL0     C27164   3.726   8.374  12.116 -0.2005 -0.0786  0.7114
  964MOL0     C27165   3.681   8.502  12.145 -0.2408 -0.4172  0.9360
  964MOL0     N27166   4.104   9.208  12.016  0.0846  0.3726 -0.9446
  964MOL0     N27167   4.185   9.294  11.969  0.1874 -0.6848  0.5054
  964MOL0     C27168   4.583   8.569  11.306 -0.2132 -0.5433 -0.3938
  964MOL0     C27169   4.594   8.511  11.178 -0.9711  0.2214  0.3766
  964MOL0     C27170   4.747   8.468  10.744  0.5812 -0.7735 -0.0209
  964MOL0     C27171   4.675   8.446  10.618  0.0853 -1.1887  0.4138
  964MOL0     C27172   4.752   8.451  10.499 -0.0813 -0.3765 -0.0126
  964MOL0     C27173   4.892   8.463  10.508 -1.4952  0.7236 -0.4773
  964MOL0     O27174   4.964   8.457  10.390 -0.3976  0.0995 -0.1131
  964MOL0     C27175   5.032   8.582  10.345  1.0964  0.1849 -0.4750
  964MOL0     C27176   5.055   8.587  10.189  0.1748 -0.7487 -0.7210
  964MOL0     C27177   4.914   8.576  10.118  0.7222  0.6946 -0.0982
  964MOL0     C27178   4.935   8.602   9.970  0.1294  0.4034 -0.9138
  964MOL0     C27179   4.814   8.559   9.893 -0.8250 -1.2046 -0.0809
  964MOL0     C27180   4.708   8.530   9.839 -0.3863 -0.7539 -0.5769
  964MOL0     C27181   4.956   8.477  10.631 -0.3030  0.1652 -0.1142
  964MOL0     C27182   4.885   8.485  10.748  0.2020 -0.5030 -0.7020
  964MOL0     H27183   4.875   8.669  11.097 -0.0871 -1.0925 -0.7806
  964MOL0     H27184   4.845   8.777  11.318 -2.4050  1.1307  1.1939
  964MOL0     H27185   4.707   8.888  11.456  2.9473 -0.4066  1.9431
  964MOL0     H27186   4.690   8.846  11.619 -0.7863  1.0540 -0.1288
  964MOL0     H27187   4.436   8.834  11.563  0.5668 -0.2730 -0.2752
  964MOL0     H27188   4.482   8.888  11.400 -1.3745 -2.6536 -0.0270
  964MOL0     H27189   4.581   9.082  11.504  0.4933 -2.0418  0.8867
  964MOL0     H27190   4.519   9.026  11.667  3.0119 -1.4643  0.3300
  964MOL0     H27191   4.354   9.100  11.416  1.2597 -0.4261 -0.3444
  964MOL0     H27192   4.284   9.027  11.565 -2.5761  1.7975 -1.1285
  964MOL0     H27193   4.377   9.306  11.523  0.4957  2.1596  1.1634
  964MOL0     H27194   4.406   9.232  11.683  1.7737  1.0331 -1.1227
  964MOL0     H27195   4.163   9.175  11.690  4.1506 -1.3942  0.3863
  964MOL0     H27196   4.141   9.201  11.515  0.0853  0.4548 -0.0469
  964MOL0     H27197   4.217   9.444  11.563  1.4640  0.6419  2.9789
  964MOL0     H27198   4.047   9.406  11.593 -0.3888 -0.4485 -1.7922
  964MOL0     H27199   4.131   9.540  11.782 -1.0489 -0.6395 -1.6175
  964MOL0     H27200   4.278   9.438  11.782 -0.7905  1.5951 -1.5503
  964MOL0     H27201   3.901   9.340  11.814 -2.3969 -1.8860  1.0741
  964MOL0     H27202   3.776   9.152  11.983 -0.3816  0.2917  1.6888
  964MOL0     H27203   3.872   9.121  12.126 -1.6258 -2.5596 -0.0305
  964MOL0     H27204   4.005   8.942  11.973  0.1265 -0.6325  2.2919
  964MOL0     H27205   3.900   8.997  11.848 -3.6016  4.9467  0.0265
  964MOL0     H27206   3.689   8.930  11.957  0.5591  1.9235  0.7138
  964MOL0     H27207   3.790   8.790  11.933 -6.1176 -0.3453  1.4503
  964MOL0     H27208   3.731   8.924  12.202  1.8060 -0.7742  1.7157
  964MOL0     H27209   3.883   8.849  12.166 -0.7185  4.2193 -1.5594
  964MOL0     H27210   3.975   8.662  12.145 -4.0123  3.5319  0.6634
  964MOL0     H27211   4.051   8.423  12.140 -0.7317 -1.1356  2.1479
  964MOL0     H27212   4.277   8.204  11.987 -2.1217  1.4588 -0.4557
  964MOL0     H27213   4.415   8.017  11.919 -0.6658 -0.9346 -1.9025
  964MOL0     H27214   4.282   7.615  11.884  1.3468  2.6921 -2.2058
  964MOL0     H27215   4.329   7.621  12.063 -3.0953  1.3214 -0.7594
  964MOL0     H27216   4.468   7.474  11.954 -3.4742  0.2774 -1.4713
  964MOL0     H27217   4.559   7.631  11.990  0.3249  1.8292 -1.7255
  964MOL0     H27218   4.563   7.682  11.763  0.8455 -0.8343  1.1630
  964MOL0     H27219   4.429   7.556  11.727  0.1437 -2.8795 -0.4944
  964MOL0     H27220   4.592   7.381  11.781 -0.0609  0.3504  2.2554
  964MOL0     H27221   4.641   7.469  11.637  1.9815  1.7519  0.1999
  964MOL0     H27222   4.752   7.525  11.908 -3.6386  0.6961  0.3448
  964MOL0     H27223   4.807   7.577  11.748  0.1387 -0.4607 -1.7566
  964MOL0     H27224   4.847   7.329  11.681 -0.1053  0.6419 -1.0053
  964MOL0     H27225   4.814   7.278  11.846  2.3303 -0.2940  1.7545
  964MOL0     H27226   5.023   7.467  11.743  3.4959 -1.1467  0.6112
  964MOL0     H27227   4.993   7.448  11.917  1.6208 -0.6995 -0.3172
  964MOL0     H27228   5.030   7.208  11.917  0.5059 -0.1922 -0.4065
  964MOL0     H27229   5.176   7.301  11.867  1.0968  2.5593 -3.1536
  964MOL0     H27230   4.114   7.740  12.028  2.5113 -1.1875 -3.1865
  964MOL0     H27231   3.984   7.908  12.119  3.1119 -1.7994  1.3484
  964MOL0     H27232   3.645   8.307  12.088 -0.4467  0.9208 -1.1448
  964MOL0     H27233   3.575   8.519  12.157 -0.1790 -1.0097  2.5099
  964MOL0     H27234   4.497   8.535  11.363 -0.6199  1.0243 -0.0407
  964MOL0     H27235   4.532   8.426  11.150  0.8218 -0.4513 -1.8275
  964MOL0     H27236   4.569   8.427  10.605  0.5461 -1.8943 -3.5813
  964MOL0     H27237   4.707   8.436  10.401 -3.7405  1.8692  1.1406
  964MOL0     H27238   5.123   8.607  10.400  1.4946  2.8353 -2.1313
  964MOL0     H27239   4.962   8.663  10.368  0.4695 -0.4619 -0.0616
  964MOL0     H27240   5.093   8.680  10.146 -1.6066 -0.9109 -2.7860
  964MOL0     H27241   5.124   8.504  10.168  3.0174 -0.0712  4.2531
  964MOL0     H27242   4.851   8.658  10.153 -1.9912 -0.2507 -2.3531
  964MOL0     H27243   4.863   8.484  10.149  1.0759  0.0906 -1.2110
  964MOL0     H27244   4.966   8.702   9.940 -1.5306  0.7729 -1.4821
  964MOL0     H27245   5.021   8.546   9.934 -0.1766 -0.3471 -0.5147
  964MOL0     H27246   4.621   8.514   9.779  2.3351 -2.2920 -4.5315
  964MOL0     H27247   5.063   8.481  10.647 -0.2801  0.7083 -0.3834
  964MOL0     H27248   4.945   8.517  10.832  1.1061  1.8199 -2.1404
  965MOL0     O27249   3.453   4.477  10.058  0.6397  0.0807  0.0601
  965MOL0     C27250   3.378   4.382  10.077  0.1324  0.9437  0.1618
  965MOL0     O27251   3.262   4.386  10.153 -0.5303  0.2544 -0.0975
  965MOL0     C27252   3.224   4.501  10.218  0.4576 -0.4115  0.6552
  965MOL0     C27253   3.178   4.618  10.141 -0.2267  0.5227 -0.2985
  965MOL0     C27254   3.135   4.730  10.201  1.2710 -0.4898 -0.7502
  965MOL0     C27255   3.123   4.739  10.346 -0.1969 -0.3759  1.4403
  965MOL0     O27256   3.064   4.842  10.412  0.3321 -0.3373  0.0250
  965MOL0     C27257   2.997   4.940  10.328 -0.0526  0.3768 -0.4177
  965MOL0     C27258   2.938   5.061  10.412 -0.2303  0.5538 -0.5147
  965MOL0     C27259   2.823   5.022  10.495  0.1869  0.3637 -0.8731
  965MOL0     C27260   2.760   5.150  10.551 -0.5610 -0.5849 -0.2007
  965MOL0     C27261   2.608   5.136  10.577 -0.0777 -0.2776  0.9440
  965MOL0     C27262   2.560   5.028  10.667  0.4119 -0.1851  0.0584
  965MOL0     C27263   2.618   5.043  10.805  0.0563  0.0427  0.1821
  965MOL0     C27264   2.567   4.943  10.913 -0.1795 -0.4080 -0.5935
  965MOL0     N27265   2.474   5.023  10.993  0.1078  0.1888 -0.4664
  965MOL0     C27266   2.347   5.032  10.942  1.0624 -0.1142 -0.4891
  965MOL0     C27267   2.284   5.108  11.030 -1.3332 -0.2945  0.9056
  965MOL0     C27268   2.135   5.132  11.018 -0.1023 -0.5883  0.7527
  965MOL0     C27269   2.081   5.159  11.162 -0.2655 -0.3576 -0.5566
  965MOL0     C27270   1.929   5.118  11.188 -0.0587 -0.4302  0.2506
  965MOL0     C27271   1.842   5.193  11.087 -1.1529  0.1430  0.5407
  965MOL0     O27272   1.699   5.195  11.132 -0.1529  1.0025  1.1999
  965MOL0     C27273   1.599   5.227  11.048 -0.2503 -0.0779  0.1305
  965MOL0     C27274   1.557   5.362  11.028  0.3839  0.7993 -1.2577
  965MOL0     C27275   1.441   5.388  10.956  1.6225 -0.3600  0.3713
  965MOL0     C27276   1.364   5.282  10.897 -0.4417  0.4573 -0.0105
  965MOL0     C27277   1.240   5.301  10.833  0.5231 -0.0336  0.5029
  965MOL0     O27278   1.203   5.213  10.731  0.4203 -0.5176 -0.2482
  965MOL0     C27279   1.081   5.231  10.672  0.5070  0.4517  1.3399
  965MOL0     C27280   1.068   5.315  10.563 -0.0465 -0.3488  0.5497
  965MOL0     C27281   0.941   5.340  10.511  0.0501 -0.0466  0.5057
  965MOL0     C27282   0.823   5.280  10.566 -0.3299 -0.0588 -0.5056
  965MOL0     O27283   0.693   5.287  10.523 -0.0370 -0.0516 -0.3673
  965MOL0     C27284   0.664   5.382  10.419  0.3162 -0.3133 -0.9352
  965MOL0     C27285   0.649   5.519  10.473 -0.4555 -1.4767  0.5819
  965MOL0     C27286   0.703   5.623  10.373 -0.9246 -0.4189  0.7128
  965MOL0     C27287   0.659   5.765  10.397  0.0956 -0.5479  0.0383
  965MOL0     C27288   0.723   5.857  10.295 -0.0820  0.1894 -0.2751
  965MOL0     C27289   0.697   6.002  10.324  0.9811  0.4607 -0.1332
  965MOL0     C27290   0.788   6.085  10.237 -1.0633 -0.4419  0.0955
  965MOL0     C27291   0.807   6.227  10.303 -0.2951  0.1492  0.1010
  965MOL0    Cl27292   0.896   6.329  10.186  0.0798  0.0299 -0.3043
  965MOL0     C27293   0.837   5.195  10.683  0.3552 -0.5524 -0.0946
  965MOL0     C27294   0.971   5.176  10.733  0.7833 -0.3603  0.7765
  965MOL0     O27295   1.176   5.399  10.865  0.4625  0.5023 -0.5283
  965MOL0     C27296   1.415   5.152  10.913 -1.1087 -0.4698 -0.0504
  965MOL0     C27297   1.534   5.123  10.980 -0.4830 -0.1731 -0.5041
  965MOL0     N27298   2.374   5.156  11.126 -0.3686  0.9190 -0.1454
  965MOL0     N27299   2.484   5.095  11.104  0.6065  0.2412  0.9029
  965MOL0     C27300   3.153   4.620  10.412 -0.4812  0.3987 -0.2050
  965MOL0     C27301   3.201   4.502  10.349 -0.0497 -0.5018 -0.6159
  965MOL0     C27302   3.383   4.258   9.990 -1.0688 -1.0442  0.9811
  965MOL0     C27303   3.305   4.152  10.019  0.3571 -0.0288  0.4141
  965MOL0     C27304   3.328   4.034   9.945  0.7911  0.7425  0.3516
  965MOL0     C27305   3.429   4.023   9.847 -0.2299  0.0356  0.0500
  965MOL0     O27306   3.442   3.903   9.783 -0.2050 -0.0466  0.8803
  965MOL0     C27307   3.555   3.870   9.702  0.7067  0.0217  0.4012
  965MOL0     C27308   3.563   3.720   9.681 -0.3499  1.5116 -0.2501
  965MOL0     C27309   3.436   3.660   9.606 -0.1159 -0.3601  0.9729
  965MOL0     C27310   3.439   3.512   9.608 -0.3860  0.5158  0.4133
  965MOL0     C27311   3.337   3.464   9.521 -0.2743 -0.0410  0.5836
  965MOL0     C27312   3.255   3.411   9.450  0.1501  1.0760 -0.0162
  965MOL0     C27313   3.502   4.137   9.813 -1.0085  0.7384 -0.1933
  965MOL0     C27314   3.483   4.252   9.887  0.6665  0.0800 -0.7005
  965MOL0     H27315   3.185   4.613  10.033 -0.3190 -0.9044 -0.2558
  965MOL0     H27316   3.102   4.814  10.140  3.2743  0.6145 -0.3975
  965MOL0     H27317   2.911   4.901  10.272  0.4226  1.0465 -1.6502
  965MOL0     H27318   3.071   4.985  10.262  2.2095  0.4380  1.9987
  965MOL0     H27319   2.918   5.142  10.340  5.2962  1.2319 -1.7956
  965MOL0     H27320   3.018   5.101  10.475  0.6283 -1.0119 -0.5595
  965MOL0     H27321   2.868   4.959  10.573  2.1815  1.0473 -1.4125
  965MOL0     H27322   2.746   4.970  10.437 -0.4697 -1.3699  1.4052
  965MOL0     H27323   2.808   5.170  10.647 -2.2986  3.0606  0.0373
  965MOL0     H27324   2.767   5.232  10.480  3.9732 -0.9245 -0.4962
  965MOL0     H27325   2.571   5.109  10.478 -0.2316 -4.3393  1.9350
  965MOL0     H27326   2.572   5.234  10.608  0.3338 -0.9519  3.8602
  965MOL0     H27327   2.579   4.926  10.632 -0.7267 -2.3101  4.8744
  965MOL0     H27328   2.454   5.054  10.672  0.9400  1.9560  1.2884
  965MOL0     H27329   2.723   5.012  10.809  0.1569  0.3784  0.1958
  965MOL0     H27330   2.605   5.145  10.843 -1.2221 -1.0054  2.7943
  965MOL0     H27331   2.647   4.903  10.976 -1.6040 -1.0548  0.8894
  965MOL0     H27332   2.535   4.846  10.875  1.1323 -0.1438 -2.5137
  965MOL0     H27333   2.297   4.981  10.860  0.8696  1.1312 -1.1844
  965MOL0     H27334   2.095   5.035  10.987 -0.8268 -0.5142  1.4248
  965MOL0     H27335   2.120   5.214  10.948  1.2681 -1.4365 -0.6205
  965MOL0     H27336   2.094   5.265  11.184 -1.3255 -0.2895 -0.2088
  965MOL0     H27337   2.139   5.101  11.234  2.7324  1.1558 -1.5818
  965MOL0     H27338   1.911   5.010  11.177  1.5977 -0.4471 -4.7587
  965MOL0     H27339   1.915   5.139  11.294  0.3132 -0.4107  0.2964
  965MOL0     H27340   1.856   5.135  10.995  0.4829  1.5979 -0.1772
  965MOL0     H27341   1.886   5.292  11.072  2.8083 -1.2152  1.8459
  965MOL0     H27342   1.596   5.445  11.087  2.5210 -0.5095 -0.6874
  965MOL0     H27343   1.411   5.492  10.943  5.0968  0.5194 -2.0570
  965MOL0     H27344   1.161   5.357  10.525 -1.5827  1.5372 -1.3845
  965MOL0     H27345   0.929   5.413  10.431 -1.5188 -0.8051  0.0047
  965MOL0     H27346   0.572   5.370  10.361  1.4794 -2.7831 -2.4182
  965MOL0     H27347   0.743   5.386  10.344  0.4825  0.9141 -0.7256
  965MOL0     H27348   0.698   5.531  10.570  0.9901  0.5006 -0.3235
  965MOL0     H27349   0.541   5.535  10.477 -0.5117 -1.8192  0.4407
  965MOL0     H27350   0.667   5.614  10.270 -0.8460  2.7358  0.3130
  965MOL0     H27351   0.812   5.619  10.363 -0.9125  2.3402 -1.2534
  965MOL0     H27352   0.550   5.776  10.392  0.2462  0.9221 -0.2154
  965MOL0     H27353   0.692   5.784  10.499  3.0451 -2.6164 -0.3702
  965MOL0     H27354   0.685   5.832  10.195 -0.0258  0.1656 -0.2906
  965MOL0     H27355   0.827   5.824  10.302 -0.7392 -2.9227 -2.6805
  965MOL0     H27356   0.719   6.018  10.430  0.4301  0.3376  0.0066
  965MOL0     H27357   0.588   6.016  10.317  0.8632 -0.0017  0.6717
  965MOL0     H27358   0.886   6.043  10.213 -1.1050 -0.5957  0.1915
  965MOL0     H27359   0.737   6.096  10.141 -0.4417  1.3567 -0.0766
  965MOL0     H27360   0.869   6.225  10.394 -3.8755 -0.0605  2.7295
  965MOL0     H27361   0.713   6.278  10.322 -0.0727  1.1976 -1.4783
  965MOL0     H27362   0.748   5.161  10.735 -0.2275 -0.4651 -1.0042
  965MOL0     H27363   1.003   5.121  10.821 -0.9315  0.6435  2.0923
  965MOL0     H27364   1.369   5.063  10.872  0.9962 -1.3278 -0.7059
  965MOL0     H27365   1.565   5.020  10.992  2.2199  0.6566  0.6691
  965MOL0     H27366   3.145   4.623  10.520  0.1891 -1.2877 -0.0950
  965MOL0     H27367   3.230   4.422  10.416  1.6194 -0.2710 -1.0368
  965MOL0     H27368   3.225   4.141  10.092 -0.6666  0.1520 -0.6449
  965MOL0     H27369   3.256   3.956   9.965  0.8154  0.3423 -0.9721
  965MOL0     H27370   3.645   3.895   9.759  0.9474 -1.7671  0.8601
  965MOL0     H27371   3.549   3.921   9.605  0.0074 -1.8500 -0.5886
  965MOL0     H27372   3.651   3.686   9.625  0.0004  0.8925  0.6459
  965MOL0     H27373   3.577   3.669   9.777  4.4686 -0.9876 -1.9041
  965MOL0     H27374   3.432   3.695   9.503  1.0009 -0.7133  0.7995
  965MOL0     H27375   3.340   3.702   9.638 -1.1627 -1.0890 -1.0334
  965MOL0     H27376   3.540   3.476   9.586 -0.2644  1.4265 -0.6084
  965MOL0     H27377   3.412   3.473   9.706  1.8021  1.0939  1.3037
  965MOL0     H27378   3.175   3.377   9.387  1.7202 -0.4802 -1.2813
  965MOL0     H27379   3.584   4.128   9.742  0.8946  1.4119  1.8084
  965MOL0     H27380   3.534   4.341   9.850  0.4200  0.8015  0.6390
  966MOL0     O27381   0.292   0.206   4.877  0.2701  0.0578 -1.0185
  966MOL0     C27382   0.182   0.149   4.868  0.4842 -0.0479  0.5398
  966MOL0     O27383   0.057   0.206   4.858 -0.6819 -0.0245 -0.4402
  966MOL0     C27384   0.037   0.340   4.838  0.7655  0.3328  0.3726
  966MOL0     C27385  -0.077   0.398   4.903 -0.2115  0.1975 -0.2575
  966MOL0     C27386  -0.118   0.526   4.879  0.2820  0.5665 -1.1617
  966MOL0     C27387  -0.056   0.599   4.783  0.5327  0.9396  0.0817
  966MOL0     O27388  -0.108   0.718   4.759 -0.4977  0.7790  0.2875
  966MOL0     C27389  -0.210   0.716   4.659  0.4453  0.6223 -0.5894
  966MOL0     C27390  -0.318   0.812   4.696 -0.3383 -0.4853  0.3321
  966MOL0     C27391  -0.392   0.859   4.582  0.5943 -0.0324  0.2442
  966MOL0     C27392  -0.473   0.737   4.521  0.5123 -0.2620  0.5430
  966MOL0     C27393  -0.568   0.791   4.416 -0.1005 -0.5060 -0.2627
  966MOL0     C27394  -0.608   0.672   4.322 -0.3527  0.7788  0.7467
  966MOL0     C27395  -0.748   0.678   4.258  0.0989 -0.4842 -0.6793
  966MOL0     C27396  -0.874   0.673   4.347 -0.3223  0.3175 -0.8778
  966MOL0     N27397  -0.930   0.536   4.374 -0.5870 -0.3389  0.4702
  966MOL0     C27398  -0.862   0.436   4.439 -0.7832  0.1466 -0.7636
  966MOL0     C27399  -0.930   0.328   4.419  0.0054 -0.9903 -0.1999
  966MOL0     C27400  -0.882   0.196   4.474  0.5366 -0.5096  0.5859
  966MOL0     C27401  -1.001   0.134   4.559 -0.1602  0.8550 -0.3383
  966MOL0     C27402  -0.961   0.013   4.643  0.2240 -0.9873 -0.1102
  966MOL0     C27403  -1.082  -0.051   4.713 -0.2063 -0.3131  0.0395
  966MOL0     O27404  -1.165   0.038   4.781  0.0437  0.5191  0.0762
  966MOL0     C27405  -1.279  -0.006   4.839 -0.0791  0.2032  0.8105
  966MOL0     C27406  -1.389   0.074   4.850 -1.5991 -1.1022 -0.1956
  966MOL0     C27407  -1.509   0.022   4.892 -0.4203 -0.1678 -0.8409
  966MOL0     C27408  -1.533  -0.117   4.913  0.0490 -0.0238  0.9037
  966MOL0     C27409  -1.663  -0.170   4.952  0.5676 -0.0012 -0.4600
  966MOL0     O27410  -1.680  -0.312   4.969  0.7459  0.2029 -0.2824
  966MOL0     C27411  -1.790  -0.359   5.027 -0.0679  0.7296 -0.4770
  966MOL0     C27412  -1.919  -0.313   4.983 -0.1824  0.3655 -0.2255
  966MOL0     C27413  -2.042  -0.366   5.040 -0.1212  0.0554  0.5055
  966MOL0     C27414  -2.037  -0.470   5.135  0.1799  0.7146 -0.3437
  966MOL0     O27415  -2.156  -0.534   5.175 -0.4933 -0.3636  0.8034
  966MOL0     C27416  -2.258  -0.434   5.217  1.6841  0.6933  0.0363
  966MOL0     C27417  -2.332  -0.512   5.327 -0.4051  0.1533  0.5320
  966MOL0     C27418  -2.457  -0.433   5.366  0.2849  0.0954  0.3776
  966MOL0     C27419  -2.537  -0.514   5.473  0.6200  0.2508 -0.8673
  966MOL0     C27420  -2.657  -0.435   5.542  0.2109  0.4605 -0.6587
  966MOL0     C27421  -2.777  -0.530   5.582  0.9241  0.3630 -0.1399
  966MOL0     C27422  -2.887  -0.452   5.642  0.3233 -0.0199  0.3011
  966MOL0     C27423  -3.034  -0.506   5.626  0.2866  0.6422  0.0005
  966MOL0    Cl27424  -3.045  -0.684   5.668 -0.0095 -0.1859 -0.7515
  966MOL0     C27425  -1.911  -0.506   5.180 -0.7166  0.3185 -0.9490
  966MOL0     C27426  -1.788  -0.462   5.129 -0.8296  0.4467  0.5407
  966MOL0     O27427  -1.754  -0.090   4.983 -0.2688 -0.4295  0.2762
  966MOL0     C27428  -1.420  -0.195   4.910  0.1572 -1.0145 -0.4410
  966MOL0     C27429  -1.297  -0.143   4.876  0.9088  0.3576  0.1337
  966MOL0     N27430  -1.044   0.364   4.358  1.0286  0.0830  0.4935
  966MOL0     N27431  -1.042   0.488   4.319  0.2360  0.6338 -0.4319
  966MOL0     C27432   0.062   0.550   4.726 -0.8687  0.2374 -0.2845
  966MOL0     C27433   0.113   0.422   4.751 -0.2123  0.1956  0.7831
  966MOL0     C27434   0.173   0.002   4.875 -0.1786  0.2104  0.3470
  966MOL0     C27435   0.055  -0.076   4.875  0.1203  0.2816  0.0442
  966MOL0     C27436   0.049  -0.217   4.880  0.0876  0.1049 -0.6525
  966MOL0     C27437   0.165  -0.290   4.862  0.5743 -0.0052 -0.1762
  966MOL0     O27438   0.161  -0.429   4.865  0.3355  0.1430 -0.3927
  966MOL0     C27439   0.042  -0.483   4.801  1.1136 -0.5293  0.4596
  966MOL0     C27440   0.076  -0.618   4.753  0.8219 -0.1151 -1.0658
  966MOL0     C27441  -0.049  -0.711   4.744  1.0618  0.1173 -0.4870
  966MOL0     C27442  -0.146  -0.689   4.631 -0.0274  0.3514 -0.4897
  966MOL0     C27443  -0.075  -0.660   4.502  0.7705  0.6438  0.4974
  966MOL0     C27444  -0.001  -0.631   4.403  0.5091  1.1182  0.4971
  966MOL0     C27445   0.294  -0.223   4.860 -0.5073 -0.4804 -1.0689
  966MOL0     C27446   0.297  -0.075   4.873  0.5097 -0.0922 -0.3967
  966MOL0     H27447  -0.125   0.343   4.983 -1.7828  1.3254 -0.3735
  966MOL0     H27448  -0.198   0.565   4.941  0.4153 -0.6767 -0.1339
  966MOL0     H27449  -0.259   0.619   4.646 -2.7051  2.4787 -5.0186
  966MOL0     H27450  -0.166   0.739   4.561 -1.0063 -1.0095 -1.6822
  966MOL0     H27451  -0.269   0.894   4.748 -0.1560 -0.6497  0.4216
  966MOL0     H27452  -0.392   0.766   4.762  1.8930 -2.3238  1.7111
  966MOL0     H27453  -0.328   0.905   4.506 -1.4577  0.1920 -1.4423
  966MOL0     H27454  -0.462   0.939   4.610  0.7803  0.2440 -0.0692
  966MOL0     H27455  -0.400   0.673   4.470  0.2849 -2.0408  2.3273
  966MOL0     H27456  -0.521   0.670   4.593  2.2076 -0.8796  1.1433
  966MOL0     H27457  -0.522   0.878   4.368 -1.8917  0.4465 -0.3789
  966MOL0     H27458  -0.659   0.829   4.465  0.5263  0.2669  0.3285
  966MOL0     H27459  -0.598   0.581   4.382  0.4272  1.8916  2.3849
  966MOL0     H27460  -0.545   0.671   4.233 -3.1833 -0.3965 -1.4244
  966MOL0     H27461  -0.748   0.767   4.194 -1.5172 -1.6139 -2.3594
  966MOL0     H27462  -0.762   0.588   4.197 -2.0508 -0.5751 -0.1526
  966MOL0     H27463  -0.959   0.730   4.311  0.3064  1.1656 -1.0529
  966MOL0     H27464  -0.846   0.721   4.441 -2.4736  1.1782 -0.6231
  966MOL0     H27465  -0.764   0.443   4.486  0.5094 -1.3795 -3.0238
  966MOL0     H27466  -0.794   0.212   4.537 -1.0491  1.8988  2.3626
  966MOL0     H27467  -0.859   0.132   4.388 -1.3687  1.9109 -1.9195
  966MOL0     H27468  -1.082   0.102   4.493 -0.1505 -3.3106  1.3976
  966MOL0     H27469  -1.035   0.213   4.628  2.2153  0.6073  1.2311
  966MOL0     H27470  -0.921  -0.067   4.581 -1.5219 -0.6476 -1.7348
  966MOL0     H27471  -0.880   0.040   4.712  0.7792 -3.2531  0.2073
  966MOL0     H27472  -1.035  -0.125   4.779  1.1470 -0.0842 -0.6297
  966MOL0     H27473  -1.134  -0.109   4.637  2.6827 -1.6686 -1.0429
  966MOL0     H27474  -1.387   0.179   4.825  0.9560 -0.8288  0.9522
  966MOL0     H27475  -1.590   0.093   4.901 -0.3912 -0.2584  0.2741
  966MOL0     H27476  -1.936  -0.244   4.901 -0.6285  0.7410  0.1756
  966MOL0     H27477  -2.133  -0.318   5.006  0.4602  1.7674  1.2376
  966MOL0     H27478  -2.330  -0.405   5.139  2.0825  0.8882 -0.2644
  966MOL0     H27479  -2.213  -0.344   5.261  1.2349 -0.0244  2.0887
  966MOL0     H27480  -2.249  -0.514   5.399 -0.0882 -0.1446  0.1580
  966MOL0     H27481  -2.354  -0.617   5.307 -1.2160  0.1239  1.4671
  966MOL0     H27482  -2.520  -0.428   5.277 -0.5935  0.6810  1.0075
  966MOL0     H27483  -2.434  -0.330   5.397 -3.1628  1.4076 -0.9452
  966MOL0     H27484  -2.571  -0.605   5.423 -0.3369 -0.1231  0.3993
  966MOL0     H27485  -2.468  -0.540   5.554 -2.5873  0.8692  2.3145
  966MOL0     H27486  -2.712  -0.371   5.473 -3.7732 -2.3917 -0.4424
  966MOL0     H27487  -2.618  -0.386   5.632 -1.3984  1.3598 -0.4113
  966MOL0     H27488  -2.740  -0.595   5.661  0.8129  0.4631 -0.0052
  966MOL0     H27489  -2.815  -0.591   5.500 -3.2074  2.3838 -0.0178
  966MOL0     H27490  -2.869  -0.421   5.746  0.8289  2.0232 -0.3447
  966MOL0     H27491  -2.890  -0.361   5.581 -1.6241 -0.0736  0.2583
  966MOL0     H27492  -3.067  -0.487   5.523  4.9790  1.7881 -1.5436
  966MOL0     H27493  -3.106  -0.467   5.699  1.6628 -1.1731  2.4435
  966MOL0     H27494  -1.897  -0.598   5.236 -1.2878  0.4470 -0.5876
  966MOL0     H27495  -1.692  -0.494   5.167 -0.3600  1.1209 -0.0524
  966MOL0     H27496  -1.423  -0.304   4.918  1.1429 -0.9400  1.3385
  966MOL0     H27497  -1.218  -0.218   4.872  2.1281  1.6221 -0.0646
  966MOL0     H27498   0.120   0.612   4.658 -1.3362  3.6366  2.1588
  966MOL0     H27499   0.197   0.389   4.691  0.3369  2.5819  0.1323
  966MOL0     H27500  -0.037  -0.021   4.894  0.4852  1.1415 -0.6064
  966MOL0     H27501  -0.051  -0.258   4.887  0.0350 -0.4117 -3.3523
  966MOL0     H27502   0.008  -0.419   4.719  1.8787  1.8557  1.8864
  966MOL0     H27503  -0.031  -0.495   4.881 -1.9270 -1.0485 -2.1849
  966MOL0     H27504   0.142  -0.613   4.666 -0.6930  0.3816 -2.2303
  966MOL0     H27505   0.143  -0.663   4.827  0.1095 -1.5578 -1.2558
  966MOL0     H27506  -0.102  -0.695   4.838  0.8140  1.2167 -0.7919
  966MOL0     H27507  -0.014  -0.814   4.737  2.6123  0.6183 -0.5209
  966MOL0     H27508  -0.208  -0.776   4.606 -0.4329 -0.5408  3.0751
  966MOL0     H27509  -0.215  -0.610   4.662 -0.5284 -0.4839  0.6163
  966MOL0     H27510   0.044  -0.607   4.309 -0.7807  0.3426 -0.3389
  966MOL0     H27511   0.377  -0.291   4.855  0.3056  0.3941 -0.0029
  966MOL0     H27512   0.396  -0.031   4.888  0.7864 -1.1554  1.1633
  967MOL0     O27513   7.203   5.877   4.018  1.1519  0.3067 -0.2475
  967MOL0     C27514   7.296   5.834   3.948  0.1705  0.9622  0.0467
  967MOL0     O27515   7.285   5.726   3.857 -0.3866  0.1533 -0.1069
  967MOL0     C27516   7.162   5.676   3.828 -0.9634  1.0676  0.1365
  967MOL0     C27517   7.115   5.684   3.692 -0.1132 -0.1389 -0.0876
  967MOL0     C27518   6.991   5.629   3.660 -0.1676  0.2060 -0.5246
  967MOL0     C27519   6.922   5.566   3.771 -0.1635  0.3384  0.5245
  967MOL0     O27520   6.792   5.531   3.764  0.5475  0.1730  0.1397
  967MOL0     C27521   6.715   5.550   3.645  0.1728 -0.4917 -1.2873
  967MOL0     C27522   6.587   5.474   3.675 -0.3638  0.5281  0.5972
  967MOL0     C27523   6.494   5.467   3.552  0.0516 -0.6102 -0.2005
  967MOL0     C27524   6.358   5.398   3.582 -0.4886  0.0394 -0.4511
  967MOL0     C27525   6.266   5.398   3.464  0.2100 -0.0100 -0.0469
  967MOL0     C27526   6.142   5.321   3.486  1.2595  0.1017  0.2509
  967MOL0     C27527   6.036   5.372   3.378 -1.1616 -0.3676  0.4477
  967MOL0     C27528   6.097   5.352   3.239  0.9885 -0.0812  1.0207
  967MOL0     N27529   5.992   5.405   3.140 -0.1085 -0.3298 -0.2026
  967MOL0     C27530   5.882   5.336   3.105  0.2640  0.0777  0.2106
  967MOL0     C27531   5.798   5.426   3.056  0.5438 -0.0840 -0.2141
  967MOL0     C27532   5.667   5.397   2.995 -0.7293 -0.1143  0.3950
  967MOL0     C27533   5.650   5.426   2.841 -0.3828 -0.5789 -0.5146
  967MOL0     C27534   5.517   5.369   2.778 -0.1596  0.4987 -0.3876
  967MOL0     C27535   5.492   5.417   2.628  0.1155  0.0921  1.1231
  967MOL0     O27536   5.350   5.404   2.586 -0.9345 -0.3089  0.4741
  967MOL0     C27537   5.261   5.512   2.593  0.1398  0.6916  0.7107
  967MOL0     C27538   5.291   5.625   2.668  0.1872  0.2466  0.6734
  967MOL0     C27539   5.206   5.736   2.660  0.2147  0.3294 -0.3118
  967MOL0     C27540   5.100   5.731   2.565  0.2434  0.0651  0.6601
  967MOL0     C27541   5.020   5.846   2.537  2.1805  0.2794 -0.1351
  967MOL0     O27542   4.897   5.835   2.472  0.3240 -0.4389  0.0392
  967MOL0     C27543   4.832   5.946   2.429  0.1768  0.3381 -0.8941
  967MOL0     C27544   4.696   5.946   2.444  0.6446 -0.9790  0.3512
  967MOL0     C27545   4.623   6.050   2.378  0.3325 -1.6186 -0.2304
  967MOL0     C27546   4.684   6.151   2.309  0.7944 -0.6908  0.6570
  967MOL0     O27547   4.614   6.260   2.266 -0.0038 -0.5684 -0.0763
  967MOL0     C27548   4.477   6.256   2.218 -0.4710  0.6868  0.0226
  967MOL0     C27549   4.455   6.373   2.127  0.3780 -0.0704  0.9048
  967MOL0     C27550   4.333   6.367   2.038 -0.0361  0.7576  0.1140
  967MOL0     C27551   4.208   6.351   2.130 -0.1831 -1.0575 -0.3482
  967MOL0     C27552   4.091   6.333   2.029  0.2313 -0.1383 -0.1029
  967MOL0     C27553   3.964   6.325   2.112 -0.8693  0.0212  0.3251
  967MOL0     C27554   3.853   6.277   2.023  0.4272 -0.1052 -0.7778
  967MOL0     C27555   3.787   6.388   1.945 -0.8800 -0.3630  1.1605
  967MOL0    Cl27556   3.636   6.423   2.021  0.3472  0.0911  0.4766
  967MOL0     C27557   4.818   6.159   2.300  0.3523  0.1658 -1.2148
  967MOL0     C27558   4.893   6.053   2.351 -0.3125 -0.4878 -0.4509
  967MOL0     O27559   5.068   5.947   2.579 -0.0173 -0.4576  0.6803
  967MOL0     C27560   5.075   5.616   2.490 -0.3196  0.6584  0.3231
  967MOL0     C27561   5.156   5.505   2.498 -0.1717 -0.2015  0.3372
  967MOL0     N27562   5.866   5.544   3.039  0.1441 -0.1873 -0.0009
  967MOL0     N27563   5.976   5.538   3.096  0.2618  0.1401 -1.0669
  967MOL0     C27564   6.967   5.552   3.902 -0.1555  0.0537 -0.6260
  967MOL0     C27565   7.094   5.602   3.920  0.7669  0.3167 -0.2957
  967MOL0     C27566   7.426   5.886   3.979 -0.1013 -0.2626  0.0484
  967MOL0     C27567   7.439   6.016   4.034 -0.1171  0.3503  0.4469
  967MOL0     C27568   7.570   6.076   4.041 -1.2628  0.3476 -0.6384
  967MOL0     C27569   7.690   6.002   4.008  0.1905 -0.3783 -0.7570
  967MOL0     O27570   7.816   6.069   4.009 -1.0349 -0.0974 -0.0442
  967MOL0     C27571   7.850   6.146   4.127 -0.0775 -0.8323 -0.0429
  967MOL0     C27572   7.878   6.077   4.262 -0.2234 -0.4885  0.3080
  967MOL0     C27573   7.973   5.954   4.241  0.2310  0.3221 -0.2413
  967MOL0     C27574   8.102   5.984   4.173  0.2253  1.3653 -0.1062
  967MOL0     C27575   8.174   6.104   4.223  0.3708 -0.0121 -0.0973
  967MOL0     C27576   8.228   6.187   4.286 -0.5548 -0.5454  0.1163
  967MOL0     C27577   7.670   5.872   3.966  0.0661  0.0431  0.1017
  967MOL0     C27578   7.545   5.820   3.934  1.0929  0.0226 -0.6384
  967MOL0     H27579   7.164   5.743   3.616 -0.9280 -0.0614 -0.5685
  967MOL0     H27580   6.942   5.658   3.568 -1.6569  0.1610  0.2308
  967MOL0     H27581   6.757   5.490   3.564  0.5751 -3.1137  0.7276
  967MOL0     H27582   6.685   5.653   3.624 -2.2545 -1.1601 -1.4657
  967MOL0     H27583   6.534   5.525   3.756 -1.5072  1.2701 -0.5639
  967MOL0     H27584   6.607   5.372   3.709  0.6460  1.0330  1.5564
  967MOL0     H27585   6.533   5.399   3.476  1.4331  0.0771 -0.1262
  967MOL0     H27586   6.489   5.563   3.501 -3.8048  0.5021  1.8851
  967MOL0     H27587   6.380   5.296   3.613 -1.3505 -0.0229 -0.0056
  967MOL0     H27588   6.302   5.439   3.667  0.1354 -3.0224  1.5933
  967MOL0     H27589   6.321   5.356   3.379 -1.4167 -1.3988 -0.4714
  967MOL0     H27590   6.235   5.502   3.450 -2.0326 -0.5421  0.6394
  967MOL0     H27591   6.104   5.341   3.587 -3.9971 -1.4502 -1.0883
  967MOL0     H27592   6.155   5.213   3.488  0.8126 -0.0545  4.6598
  967MOL0     H27593   5.938   5.331   3.403 -2.6946  2.3776 -0.6478
  967MOL0     H27594   6.012   5.478   3.390 -0.9174 -0.2091 -0.3952
  967MOL0     H27595   6.117   5.245   3.230 -3.0655 -1.3658  3.8779
  967MOL0     H27596   6.189   5.408   3.219  1.4154 -2.0164 -3.8100
  967MOL0     H27597   5.868   5.231   3.132 -0.4905 -0.3270 -1.5862
  967MOL0     H27598   5.591   5.460   3.042  2.1412  3.6899  0.3939
  967MOL0     H27599   5.651   5.289   3.006  0.7093 -0.8676 -3.3340
  967MOL0     H27600   5.739   5.390   2.787  0.1529 -0.5741  0.3533
  967MOL0     H27601   5.651   5.534   2.824 -3.1501 -0.7241 -2.1555
  967MOL0     H27602   5.532   5.262   2.788 -1.4348  0.5017  2.6098
  967MOL0     H27603   5.440   5.400   2.849  0.5494  0.2023  0.5130
  967MOL0     H27604   5.562   5.359   2.567  0.4546 -3.3043  4.3884
  967MOL0     H27605   5.518   5.523   2.620 -0.8938  0.5196  2.9138
  967MOL0     H27606   5.379   5.628   2.731  1.0196 -2.8203 -0.1820
  967MOL0     H27607   5.216   5.831   2.711  0.1438 -0.0006  0.3254
  967MOL0     H27608   4.655   5.855   2.488 -2.2344 -2.6069 -4.8753
  967MOL0     H27609   4.515   6.050   2.360 -0.3491  4.1018  1.8299
  967MOL0     H27610   4.414   6.255   2.307 -1.7429  1.0356 -0.8571
  967MOL0     H27611   4.450   6.171   2.155 -0.8370  3.2100 -3.5049
  967MOL0     H27612   4.544   6.380   2.064  0.9070 -2.1993  1.3451
  967MOL0     H27613   4.436   6.466   2.181  0.3109  0.1222  0.5483
  967MOL0     H27614   4.329   6.275   1.979 -2.6410 -0.0325  1.3851
  967MOL0     H27615   4.329   6.451   1.967  3.6365  0.2549 -0.8748
  967MOL0     H27616   4.214   6.257   2.186  2.5783  0.5383  2.3480
  967MOL0     H27617   4.179   6.430   2.199 -0.1993 -0.7360 -0.7221
  967MOL0     H27618   4.108   6.253   1.957 -2.5668 -1.7748  0.9136
  967MOL0     H27619   4.080   6.430   1.978 -3.6139  1.2860  2.9690
  967MOL0     H27620   3.939   6.416   2.168 -2.7623 -0.1532 -0.1854
  967MOL0     H27621   3.966   6.242   2.184 -1.9764 -0.5645 -0.3052
  967MOL0     H27622   3.903   6.200   1.964  2.2124 -0.2024  0.7557
  967MOL0     H27623   3.778   6.221   2.080 -1.6578  0.8073 -2.5022
  967MOL0     H27624   3.760   6.342   1.850 -1.4891 -3.0644  2.5392
  967MOL0     H27625   3.861   6.468   1.943  0.3755 -1.4691 -1.9625
  967MOL0     H27626   4.868   6.251   2.271  0.3653  0.9044  1.0121
  967MOL0     H27627   5.001   6.067   2.350 -0.0739 -2.1409 -1.9302
  967MOL0     H27628   4.998   5.599   2.415  2.5261 -1.9072 -2.2751
  967MOL0     H27629   5.142   5.420   2.433 -1.9625 -0.5970  1.1703
  967MOL0     H27630   6.901   5.516   3.980  0.1014  2.8875  1.0113
  967MOL0     H27631   7.140   5.578   4.015 -3.2704 -1.4924  1.4689
  967MOL0     H27632   7.359   6.084   4.061  0.8336  1.9370 -0.5375
  967MOL0     H27633   7.578   6.179   4.075 -1.5904 -0.0174  0.5934
  967MOL0     H27634   7.781   6.230   4.139  1.0084  0.0894 -0.1484
  967MOL0     H27635   7.941   6.199   4.099 -0.2520 -0.4266  0.1509
  967MOL0     H27636   7.927   6.143   4.334  0.9491 -1.8651  0.8231
  967MOL0     H27637   7.788   6.042   4.313  0.9486 -3.6469  0.4533
  967MOL0     H27638   7.918   5.880   4.182 -1.1248 -0.5132  1.9732
  967MOL0     H27639   8.002   5.915   4.339  1.8828  3.0172  0.4412
  967MOL0     H27640   8.167   5.898   4.192  0.9079  2.3274  2.3907
  967MOL0     H27641   8.080   5.987   4.066  2.1187  0.8285 -0.5438
  967MOL0     H27642   8.281   6.262   4.342 -2.1437  3.6446 -3.4413
  967MOL0     H27643   7.757   5.811   3.944  2.1298  2.3750  1.3061
  967MOL0     H27644   7.530   5.716   3.904  1.9936 -0.3272  0.0961
  968MOL0     O27645  11.164   6.677   6.094 -0.1875 -0.7886  0.8189
  968MOL0     C27646  11.250   6.591   6.090  0.7528 -0.4275 -0.3834
  968MOL0     O27647  11.384   6.615   6.075 -0.1055 -0.0091 -0.2827
  968MOL0     C27648  11.417   6.739   6.042  0.3776 -0.7626  0.3291
  968MOL0     C27649  11.361   6.817   5.933 -0.4946 -0.5411  0.1749
  968MOL0     C27650  11.411   6.943   5.909  0.4893  0.3334 -0.5692
  968MOL0     C27651  11.508   6.999   5.992  0.4369  0.3371 -0.0589
  968MOL0     O27652  11.550   7.128   5.976 -0.4434  0.6437  0.5193
  968MOL0     C27653  11.579   7.211   6.082  0.2296  0.4856 -0.7572
  968MOL0     C27654  11.577   7.360   6.043  0.0708  1.2501 -0.2654
  968MOL0     C27655  11.586   7.462   6.157 -0.7078 -0.0103 -0.5179
  968MOL0     C27656  11.602   7.610   6.124  0.4364 -0.1668  0.2994
  968MOL0     C27657  11.551   7.712   6.218 -1.1451 -0.2899 -0.7664
  968MOL0     C27658  11.612   7.847   6.171  0.1374  0.2001  0.5379
  968MOL0     C27659  11.595   7.961   6.267 -0.1456 -0.0527  0.7356
  968MOL0     C27660  11.670   7.934   6.393 -0.0448  1.5816 -0.0585
  968MOL0     N27661  11.682   8.044   6.486  0.0524 -1.0917  0.6516
  968MOL0     C27662  11.603   8.161   6.481  0.7617  1.2764  0.2341
  968MOL0     C27663  11.647   8.231   6.584  0.1286 -0.1487 -0.2427
  968MOL0     C27664  11.595   8.374   6.618  0.0540  0.4685  0.7452
  968MOL0     C27665  11.492   8.376   6.729  0.2027  0.3509  0.9070
  968MOL0     C27666  11.567   8.356   6.864 -0.5313  0.6822 -0.0055
  968MOL0     C27667  11.466   8.364   6.973 -0.0077  1.2510  0.0655
  968MOL0     O27668  11.518   8.314   7.098 -0.6130 -0.0067  0.0193
  968MOL0     C27669  11.442   8.345   7.197  0.5526  1.2751  0.4497
  968MOL0     C27670  11.474   8.465   7.271 -0.0160 -0.5104  0.1955
  968MOL0     C27671  11.386   8.492   7.381 -0.4413  0.5094 -0.6393
  968MOL0     C27672  11.290   8.391   7.429 -0.0891  0.5668  0.3914
  968MOL0     C27673  11.226   8.396   7.557 -0.3760 -0.0778 -0.6330
  968MOL0     O27674  11.183   8.280   7.599  0.5476  0.5859  0.0264
  968MOL0     C27675  11.138   8.265   7.730  0.7997 -0.1951  0.5560
  968MOL0     C27676  11.195   8.320   7.839 -0.6402 -0.0994 -0.5116
  968MOL0     C27677  11.165   8.284   7.968  0.0289 -0.1692  0.6143
  968MOL0     C27678  11.068   8.196   7.985  0.9186 -0.2143 -0.5290
  968MOL0     O27679  11.033   8.177   8.127 -0.7614  0.1166  0.4363
  968MOL0     C27680  10.957   8.065   8.169 -1.2806  0.4733  0.1156
  968MOL0     C27681  10.956   8.082   8.324 -0.1748  1.5432 -0.0196
  968MOL0     C27682  10.829   8.150   8.384 -0.3513 -0.2269 -0.4418
  968MOL0     C27683  10.807   8.157   8.527 -0.0946 -0.7784 -1.4406
  968MOL0     C27684  10.682   8.246   8.551  0.1593  0.0561 -0.5652
  968MOL0     C27685  10.670   8.291   8.698  0.5975 -0.0943 -0.3918
  968MOL0     C27686  10.533   8.344   8.728  0.7401  0.0823 -0.0681
  968MOL0     C27687  10.529   8.399   8.868 -0.8907 -0.0769 -0.5000
  968MOL0    Cl27688  10.627   8.553   8.884 -0.4030 -0.2559 -0.1576
  968MOL0     C27689  11.009   8.126   7.878  0.4629 -0.4535 -0.3361
  968MOL0     C27690  11.042   8.158   7.750  0.5816  1.3620 -0.0555
  968MOL0     O27691  11.225   8.502   7.616 -0.6840 -0.4454 -0.5445
  968MOL0     C27692  11.274   8.279   7.343  0.1894 -0.7727  0.7440
  968MOL0     C27693  11.346   8.261   7.230  0.4265  0.4256  0.0474
  968MOL0     N27694  11.748   8.162   6.643  0.1394  0.0147 -0.6179
  968MOL0     N27695  11.768   8.051   6.591  0.0626 -0.0607  0.4699
  968MOL0     C27696  11.561   6.920   6.086 -0.9191  0.3698  0.4708
  968MOL0     C27697  11.529   6.792   6.110  0.2057  0.2353 -1.3397
  968MOL0     C27698  11.196   6.446   6.105 -0.5004 -0.6258 -0.7921
  968MOL0     C27699  11.058   6.414   6.143 -1.0382 -0.1572 -0.1124
  968MOL0     C27700  11.012   6.283   6.141  0.0213  1.0562 -0.5190
  968MOL0     C27701  11.099   6.183   6.109 -0.1382  0.3151 -0.2101
  968MOL0     O27702  11.061   6.052   6.094  0.1232  0.8535 -0.0235
  968MOL0     C27703  10.925   6.008   6.089 -0.2321  0.6158 -0.4569
  968MOL0     C27704  10.877   6.051   5.951 -0.1149 -0.0900 -0.7021
  968MOL0     C27705  10.945   5.974   5.841 -0.0048 -1.3707 -0.2494
  968MOL0     C27706  10.868   5.989   5.711 -0.1782 -0.5041 -0.4917
  968MOL0     C27707  10.788   5.865   5.695 -0.3687  0.8183 -0.5986
  968MOL0     C27708  10.724   5.765   5.674  0.0127 -0.2521  0.1338
  968MOL0     C27709  11.233   6.219   6.075 -0.0874  0.2535  0.2840
  968MOL0     C27710  11.281   6.347   6.077 -0.7697  1.0228 -0.7971
  968MOL0     H27711  11.275   6.790   5.874 -1.7818  0.4863  1.4980
  968MOL0     H27712  11.362   7.006   5.835  2.0833  3.8220  1.1314
  968MOL0     H27713  11.678   7.185   6.122 -0.6909  2.7237  3.4890
  968MOL0     H27714  11.503   7.206   6.160 -1.0452 -0.1095 -1.9909
  968MOL0     H27715  11.493   7.363   5.973  0.0710 -3.8241 -0.8823
  968MOL0     H27716  11.670   7.380   5.989 -0.1280  1.2159 -0.6173
  968MOL0     H27717  11.682   7.437   6.204  2.1283  1.0279 -5.1430
  968MOL0     H27718  11.502   7.458   6.227 -0.2591 -0.2246  0.0215
  968MOL0     H27719  11.711   7.625   6.120  0.7214 -0.0692  4.2611
  968MOL0     H27720  11.551   7.632   6.030  0.2732 -0.1990  0.3811
  968MOL0     H27721  11.596   7.686   6.314 -1.3942 -2.3848 -1.1619
  968MOL0     H27722  11.442   7.713   6.220 -1.2104 -2.8023  1.5421
  968MOL0     H27723  11.559   7.878   6.080 -3.3648  1.1922  2.7320
  968MOL0     H27724  11.719   7.829   6.153 -0.4072 -2.9396 -0.1694
  968MOL0     H27725  11.628   8.055   6.222 -1.3227  0.0855  0.1174
  968MOL0     H27726  11.488   7.962   6.288 -0.4830 -1.5112 -0.7482
  968MOL0     H27727  11.773   7.905   6.368 -0.7212  0.6721 -1.9768
  968MOL0     H27728  11.621   7.853   6.447  0.7135  0.4649 -0.9869
  968MOL0     H27729  11.528   8.183   6.407 -1.0117 -2.5988  0.6370
  968MOL0     H27730  11.552   8.423   6.531  1.6409 -0.9339 -0.9283
  968MOL0     H27731  11.680   8.442   6.631  2.3883 -2.1322  0.2495
  968MOL0     H27732  11.412   8.302   6.720  1.2959 -0.6898 -0.9740
  968MOL0     H27733  11.441   8.472   6.719  0.9914  0.5240 -3.6353
  968MOL0     H27734  11.617   8.259   6.867 -0.8825  0.4209 -1.4812
  968MOL0     H27735  11.644   8.432   6.877  1.0105 -0.7383 -0.4984
  968MOL0     H27736  11.385   8.293   6.954 -0.0466  1.1955  0.4431
  968MOL0     H27737  11.423   8.464   6.975  0.8786  1.6747 -1.1086
  968MOL0     H27738  11.557   8.527   7.240 -1.6384 -0.4621 -4.9608
  968MOL0     H27739  11.396   8.574   7.452  0.0858 -0.5886  0.6076
  968MOL0     H27740  11.278   8.388   7.822 -3.2163  3.1973 -1.1310
  968MOL0     H27741  11.210   8.332   8.054 -1.0739  0.2669  0.9655
  968MOL0     H27742  11.015   7.975   8.147 -0.8918  1.6546 -4.9850
  968MOL0     H27743  10.857   8.059   8.124 -1.4173  1.8986  0.2040
  968MOL0     H27744  11.039   8.144   8.359 -0.9928  2.6772 -0.0346
  968MOL0     H27745  10.964   7.981   8.366 -0.4514  0.1430 -3.1000
  968MOL0     H27746  10.741   8.107   8.334  0.6524 -1.5005 -1.1697
  968MOL0     H27747  10.835   8.254   8.350  0.4582  0.0531  0.5385
  968MOL0     H27748  10.787   8.055   8.560  0.8187  0.0957  2.4253
  968MOL0     H27749  10.895   8.205   8.571 -0.5479  0.2223 -1.5913
  968MOL0     H27750  10.598   8.187   8.513  1.6312 -1.7922 -1.1232
  968MOL0     H27751  10.682   8.340   8.496  2.4979  0.4363 -0.0194
  968MOL0     H27752  10.742   8.366   8.732  1.3723 -1.3701  0.9332
  968MOL0     H27753  10.667   8.199   8.758  0.2614 -1.5256 -2.5163
  968MOL0     H27754  10.512   8.427   8.661  0.7725 -0.6268 -0.9840
  968MOL0     H27755  10.448   8.275   8.729 -2.3544  3.5035  2.7921
  968MOL0     H27756  10.571   8.325   8.936 -0.8234  1.5798  1.3536
  968MOL0     H27757  10.427   8.421   8.900 -1.4628 -2.6817 -0.2776
  968MOL0     H27758  10.934   8.054   7.911 -1.6207  2.1678  1.0569
  968MOL0     H27759  10.994   8.099   7.672  2.1692 -1.5637  1.0071
  968MOL0     H27760  11.200   8.204   7.369  1.7925 -1.9813  2.0344
  968MOL0     H27761  11.331   8.167   7.178 -2.5926  1.3223 -0.9139
  968MOL0     H27762  11.643   6.950   6.151 -0.9975  1.2645  0.1649
  968MOL0     H27763  11.581   6.733   6.185  0.7722  1.8372 -0.4341
  968MOL0     H27764  10.985   6.493   6.157 -2.0911 -1.1789  0.2954
  968MOL0     H27765  10.909   6.260   6.166  0.1378  0.2505 -0.7529
  968MOL0     H27766  10.865   6.065   6.161 -2.5562 -1.8677 -0.2824
  968MOL0     H27767  10.908   5.902   6.107 -4.4683  0.7879 -2.1551
  968MOL0     H27768  10.770   6.027   5.965  0.3451 -1.5308  0.7563
  968MOL0     H27769  10.893   6.157   5.931 -1.0001 -0.3354 -3.0277
  968MOL0     H27770  10.970   5.870   5.865  0.8923 -1.4945 -1.5952
  968MOL0     H27771  11.037   6.028   5.817 -0.7558 -1.1854 -2.9267
  968MOL0     H27772  10.803   6.076   5.699  2.6993  1.4574 -3.4487
  968MOL0     H27773  10.927   6.004   5.620  0.2536 -0.3097 -0.1885
  968MOL0     H27774  10.666   5.679   5.648 -1.5264  0.5463  0.7714
  968MOL0     H27775  11.307   6.143   6.052 -0.3757 -0.1627  0.7255
  968MOL0     H27776  11.386   6.363   6.055 -0.5819 -1.2445 -1.8111
  969MOL0     O27777  10.208   7.402   5.772  0.0163  0.1187 -0.0301
  969MOL0     C27778  10.137   7.324   5.840 -0.1052  0.2105 -0.5573
  969MOL0     O27779  10.143   7.295   5.982  0.0727 -0.6353  0.4014
  969MOL0     C27780  10.235   7.367   6.059 -0.1432 -0.1316  1.0923
  969MOL0     C27781  10.374   7.349   6.032 -0.0341 -0.1407  0.1809
  969MOL0     C27782  10.473   7.431   6.100  0.1952  0.3412 -0.2454
  969MOL0     C27783  10.433   7.515   6.208  0.0688 -0.6474 -0.1478
  969MOL0     O27784  10.524   7.575   6.295 -0.3126  0.6064 -0.3299
  969MOL0     C27785  10.625   7.492   6.364 -0.1097  0.0556  0.2331
  969MOL0     C27786  10.696   7.573   6.468  0.5201 -0.4053  0.3518
  969MOL0     C27787  10.773   7.693   6.406 -0.1121  0.2159 -0.5948
  969MOL0     C27788  10.687   7.816   6.357  1.1999 -0.7009 -0.2911
  969MOL0     C27789  10.759   7.945   6.376 -1.1716  0.3698 -0.1531
  969MOL0     C27790  10.884   7.956   6.295  0.5003 -0.5799  0.5699
  969MOL0     C27791  10.977   8.068   6.355 -0.0145 -0.4871 -0.4683
  969MOL0     C27792  11.074   8.122   6.256 -0.0295  0.1430 -0.6431
  969MOL0     N27793  11.141   8.247   6.304  0.3270  0.1934  0.3153
  969MOL0     C27794  11.106   8.380   6.291 -0.3041  0.6855  0.0395
  969MOL0     C27795  11.195   8.451   6.356 -0.9574  0.1191 -0.6867
  969MOL0     C27796  11.209   8.595   6.372 -0.1398  0.6209 -0.1679
  969MOL0     C27797  11.318   8.658   6.282 -0.0748 -0.4229  0.4522
  969MOL0     C27798  11.406   8.771   6.340 -0.1213 -0.5065 -0.1077
  969MOL0     C27799  11.324   8.887   6.385  0.4095 -0.3172 -0.6365
  969MOL0     O27800  11.234   8.927   6.287  0.3253 -0.5918 -0.1327
  969MOL0     C27801  11.276   9.013   6.187 -0.0099  0.3259 -0.5311
  969MOL0     C27802  11.177   9.062   6.109 -0.0201  0.8330  0.0693
  969MOL0     C27803  11.202   9.168   6.021 -0.5798 -0.1162 -0.2585
  969MOL0     C27804  11.330   9.234   6.015 -0.3438 -0.0613  0.0391
  969MOL0     C27805  11.360   9.339   5.923 -0.1007  0.1580  0.1531
  969MOL0     O27806  11.482   9.355   5.872  0.1806  0.5267 -1.0514
  969MOL0     C27807  11.492   9.443   5.773  0.6356 -0.1770  1.2079
  969MOL0     C27808  11.508   9.397   5.646 -0.0611 -0.2355  0.5402
  969MOL0     C27809  11.537   9.496   5.545  0.3146 -0.6135 -0.4142
  969MOL0     C27810  11.548   9.631   5.572  0.6158 -0.2960  0.6935
  969MOL0     O27811  11.570   9.738   5.481  0.2014  0.1354 -0.4783
  969MOL0     C27812  11.509   9.729   5.353  0.3447  1.6370  0.1898
  969MOL0     C27813  11.513   9.870   5.289  1.7416 -0.4175 -0.2932
  969MOL0     C27814  11.440   9.872   5.155  0.4350  0.1126  0.1322
  969MOL0     C27815  11.403  10.015   5.114  0.2236 -0.6584  0.1304
  969MOL0     C27816  11.323  10.019   4.981  0.2144 -0.1040  1.0173
  969MOL0     C27817  11.286  10.168   4.938 -0.1410  1.0193 -0.4558
  969MOL0     C27818  11.172  10.171   4.831  0.1756  0.7789 -0.2402
  969MOL0     C27819  11.162  10.291   4.745 -0.2616  0.5011 -0.4639
  969MOL0    Cl27820  11.001  10.271   4.665  0.0621  0.0235 -0.3426
  969MOL0     C27821  11.527   9.677   5.707 -0.2643 -0.5561 -0.4942
  969MOL0     C27822  11.516   9.580   5.808  0.9960 -0.7254  0.1963
  969MOL0     O27823  11.261   9.395   5.890  1.0878 -0.0267  0.6226
  969MOL0     C27824  11.427   9.180   6.100 -0.1159  0.4141 -0.2371
  969MOL0     C27825  11.400   9.074   6.186  0.5655  0.5229 -0.7552
  969MOL0     N27826  11.304   8.365   6.393  0.4069  0.8674 -0.1660
  969MOL0     N27827  11.262   8.248   6.365  0.1126  0.2272 -0.4281
  969MOL0     C27828  10.295   7.538   6.236 -0.6146  0.2105  0.1449
  969MOL0     C27829  10.198   7.463   6.162 -0.1425 -0.4438  0.4864
  969MOL0     C27830  10.025   7.256   5.760  0.6990  0.9236 -0.2920
  969MOL0     C27831   9.967   7.333   5.645 -0.5352 -0.0095  0.0388
  969MOL0     C27832   9.849   7.286   5.573 -0.9609  0.0474 -0.7661
  969MOL0     C27833   9.785   7.171   5.619  0.1348  0.7572  0.1169
  969MOL0     O27834   9.661   7.138   5.567  0.1486 -0.6808  0.5233
  969MOL0     C27835   9.565   7.203   5.664  0.0713  0.2400  0.7186
  969MOL0     C27836   9.431   7.130   5.656  0.3661 -1.0207 -0.2518
  969MOL0     C27837   9.435   6.983   5.685  0.2982 -0.9646  0.3969
  969MOL0     C27838   9.322   6.905   5.614  1.6341  0.7821  0.6678
  969MOL0     C27839   9.313   6.759   5.628  0.2452  1.0142  0.0308
  969MOL0     C27840   9.320   6.631   5.632 -0.0971 -0.6728  0.6464
  969MOL0     C27841   9.844   7.088   5.716 -0.1711  0.2194  0.1442
  969MOL0     C27842   9.964   7.129   5.788  0.6325  0.1956  0.1237
  969MOL0     H27843  10.410   7.273   5.963  2.3887  1.0639  0.0236
  969MOL0     H27844  10.579   7.429   6.076  0.5952  1.5178  1.2898
  969MOL0     H27845  10.706   7.458   6.299 -2.0919  2.1153 -3.6672
  969MOL0     H27846  10.571   7.406   6.405 -1.5891  0.7751 -0.1230
  969MOL0     H27847  10.779   7.517   6.513  0.1641 -2.2251 -1.1602
  969MOL0     H27848  10.616   7.607   6.535 -0.6998 -0.8117 -0.8685
  969MOL0     H27849  10.834   7.655   6.324  5.5881  0.6368  2.8932
  969MOL0     H27850  10.843   7.728   6.483 -1.7460  0.9833  0.5942
  969MOL0     H27851  10.657   7.798   6.253  3.3033  0.5420 -1.1801
  969MOL0     H27852  10.601   7.812   6.424  3.8668 -1.7543  3.4262
  969MOL0     H27853  10.778   7.962   6.483  0.1256  2.3098 -0.6313
  969MOL0     H27854  10.698   8.031   6.350 -0.1743  1.2678  0.3773
  969MOL0     H27855  10.848   7.982   6.195  2.0289 -2.2736 -0.4980
  969MOL0     H27856  10.933   7.858   6.291 -0.2310 -0.9578 -3.2446
  969MOL0     H27857  10.923   8.154   6.396  3.4064  0.2369  3.1064
  969MOL0     H27858  11.029   8.026   6.441 -2.3171 -0.2951  1.1041
  969MOL0     H27859  11.029   8.135   6.157  1.7457 -0.6616 -1.6036
  969MOL0     H27860  11.150   8.045   6.241 -2.2325 -2.1553 -0.7359
  969MOL0     H27861  11.006   8.409   6.259 -0.0536  0.8278 -0.6324
  969MOL0     H27862  11.232   8.613   6.478 -1.5977 -1.4467  0.5575
  969MOL0     H27863  11.113   8.637   6.343 -1.5802 -1.6920  0.9004
  969MOL0     H27864  11.273   8.679   6.184 -1.5594  0.1983  1.2402
  969MOL0     H27865  11.383   8.572   6.262  0.5985  0.9896 -5.4505
  969MOL0     H27866  11.470   8.727   6.417 -0.6852  2.3941  2.2516
  969MOL0     H27867  11.474   8.808   6.264 -0.2652  0.4862  0.2168
  969MOL0     H27868  11.379   8.973   6.423  1.0579 -0.3275 -1.5144
  969MOL0     H27869  11.265   8.850   6.469 -0.6457  1.0986 -0.7195
  969MOL0     H27870  11.078   9.018   6.119  0.8082 -1.2290 -0.2717
  969MOL0     H27871  11.113   9.195   5.966 -1.1626 -0.7341  0.3570
  969MOL0     H27872  11.498   9.291   5.623  2.3548 -0.2032 -0.9186
  969MOL0     H27873  11.558   9.470   5.441  0.8031  1.3892 -0.8625
  969MOL0     H27874  11.407   9.691   5.354  1.1350 -0.6704  0.2114
  969MOL0     H27875  11.564   9.654   5.294 -0.2050  1.3841 -0.0040
  969MOL0     H27876  11.614   9.898   5.257 -0.1270  3.0467 -4.0132
  969MOL0     H27877  11.477   9.938   5.367  0.1628 -1.5449  0.0041
  969MOL0     H27878  11.348   9.814   5.169  1.2420 -1.1629  0.2808
  969MOL0     H27879  11.512   9.832   5.084  1.5058  1.9623  0.0975
  969MOL0     H27880  11.347  10.068   5.192 -0.6829  0.1957 -1.0602
  969MOL0     H27881  11.500  10.060   5.091  0.1760 -0.5622  0.1163
  969MOL0     H27882  11.237   9.951   4.980 -0.3754  0.5827 -1.7264
  969MOL0     H27883  11.387   9.982   4.901 -2.6537 -0.6238 -1.1917
  969MOL0     H27884  11.375  10.214   4.896 -0.0703  1.5748  0.2833
  969MOL0     H27885  11.251  10.227   5.024  2.3515 -0.3707  1.6510
  969MOL0     H27886  11.224  10.100   4.766  3.0240  2.3000  0.1870
  969MOL0     H27887  11.079  10.138   4.877  1.4650  0.8445  2.6460
  969MOL0     H27888  11.237  10.287   4.666 -1.3401  2.1123 -1.6350
  969MOL0     H27889  11.169  10.383   4.805 -0.0737  0.8190 -0.9680
  969MOL0     H27890  11.521   9.778   5.746 -1.8744 -0.3965 -1.0639
  969MOL0     H27891  11.505   9.617   5.910 -1.2914  0.5330 -0.4342
  969MOL0     H27892  11.522   9.229   6.081  0.1459 -0.3613 -0.9711
  969MOL0     H27893  11.481   9.044   6.251 -1.0538 -0.7453  0.7623
  969MOL0     H27894  10.251   7.602   6.313 -0.3625 -2.0229  2.2634
  969MOL0     H27895  10.093   7.474   6.185  0.0254 -1.1420  1.6455
  969MOL0     H27896  10.000   7.432   5.616 -3.0820  1.0174  0.4553
  969MOL0     H27897   9.814   7.358   5.499  3.9784  2.1959 -1.4299
  969MOL0     H27898   9.554   7.307   5.630  3.6719  0.2864 -0.7380
  969MOL0     H27899   9.596   7.211   5.768  0.3385 -1.4072  0.7899
  969MOL0     H27900   9.368   7.172   5.735  0.1897 -0.7840 -0.5167
  969MOL0     H27901   9.390   7.153   5.558 -2.9157 -0.3690  1.1414
  969MOL0     H27902   9.429   6.955   5.791  1.8816 -1.8431  0.2960
  969MOL0     H27903   9.533   6.948   5.652  0.6902  0.6624 -0.2670
  969MOL0     H27904   9.230   6.950   5.651  0.2726 -0.7480 -0.6651
  969MOL0     H27905   9.342   6.911   5.506  4.0504 -2.2565  0.7902
  969MOL0     H27906   9.348   6.527   5.639  1.6426 -0.3564 -0.8857
  969MOL0     H27907   9.805   6.987   5.729  0.0174  0.1114 -0.1231
  969MOL0     H27908  10.008   7.076   5.872 -0.8853  0.2025  0.9536
  970MOL0     O27909   4.817   7.565   7.488  0.8180  0.0223 -0.3558
  970MOL0     C27910   4.838   7.587   7.372 -0.6052 -0.3693  0.2873
  970MOL0     O27911   4.758   7.558   7.266  0.4248  0.3524 -0.1455
  970MOL0     C27912   4.666   7.456   7.288 -0.1318 -0.1728 -0.1970
  970MOL0     C27913   4.538   7.475   7.356 -0.6630  0.3340 -0.2010
  970MOL0     C27914   4.444   7.370   7.359 -0.1278 -0.4385  0.3284
  970MOL0     C27915   4.473   7.242   7.314  0.2155 -0.2639 -0.1565
  970MOL0     O27916   4.382   7.131   7.315  0.0728 -0.1172  0.0771
  970MOL0     C27917   4.254   7.146   7.371  1.2679 -0.3093 -0.6522
  970MOL0     C27918   4.155   7.229   7.270 -0.7607 -0.4099 -1.7881
  970MOL0     C27919   4.033   7.270   7.336  0.2333 -0.0691  0.6054
  970MOL0     C27920   3.915   7.329   7.253 -1.0670 -0.3485 -0.4836
  970MOL0     C27921   3.800   7.376   7.344  1.3473  0.0128 -0.6444
  970MOL0     C27922   3.673   7.399   7.268  0.2283 -0.9219  0.3421
  970MOL0     C27923   3.688   7.529   7.192 -0.6355 -0.6460  0.3707
  970MOL0     C27924   3.564   7.611   7.150  0.5487 -0.5097 -0.4525
  970MOL0     N27925   3.492   7.555   7.047  0.3257 -0.3585  0.2944
  970MOL0     C27926   3.353   7.559   7.026  0.2484  0.2827 -0.3182
  970MOL0     C27927   3.332   7.512   6.902  0.1588  0.7111 -0.7874
  970MOL0     C27928   3.203   7.506   6.826  0.1397  0.4762  0.0205
  970MOL0     C27929   3.179   7.637   6.749  0.3851  0.2036 -0.2389
  970MOL0     C27930   3.040   7.641   6.671 -1.0445  0.3991  0.4523
  970MOL0     C27931   3.018   7.782   6.619  0.1215 -0.1391  0.0685
  970MOL0     O27932   2.883   7.775   6.556  0.1287  0.2942 -0.2055
  970MOL0     C27933   2.868   7.734   6.425 -0.5138  0.5553  0.2131
  970MOL0     C27934   2.973   7.690   6.345  0.1137 -0.2696  0.0294
  970MOL0     C27935   2.949   7.649   6.211  0.0003 -0.4094 -0.1553
  970MOL0     C27936   2.819   7.649   6.156  0.0324 -1.0285  0.7460
  970MOL0     C27937   2.795   7.623   6.017 -0.6278 -0.0681 -0.2764
  970MOL0     O27938   2.900   7.614   5.931 -0.1373  0.4688  0.2602
  970MOL0     C27939   2.880   7.539   5.821 -0.2742 -0.4256 -0.1000
  970MOL0     C27940   2.968   7.435   5.801  0.6247  0.6966  0.1883
  970MOL0     C27941   2.962   7.356   5.692  0.5787 -0.1284 -0.0763
  970MOL0     C27942   2.870   7.380   5.595 -0.0698  0.9681  0.0047
  970MOL0     O27943   2.889   7.293   5.489 -0.1051  0.2124  0.1824
  970MOL0     C27944   2.814   7.309   5.367 -0.8037  0.1210 -0.2153
  970MOL0     C27945   2.792   7.179   5.298  0.1763 -0.1896 -0.1109
  970MOL0     C27946   2.703   7.185   5.178 -0.0726 -1.0343  0.4559
  970MOL0     C27947   2.651   7.053   5.118 -0.2336 -0.1191 -0.8938
  970MOL0     C27948   2.522   7.068   5.045  0.4537 -0.2727  0.0230
  970MOL0     C27949   2.462   6.937   4.994  0.3173  0.1241  1.1147
  970MOL0     C27950   2.559   6.853   4.902 -0.0712  0.1954 -0.4066
  970MOL0     C27951   2.484   6.741   4.831 -0.3996 -0.1272 -0.3263
  970MOL0    Cl27952   2.539   6.587   4.904 -0.3748 -0.1242  0.2460
  970MOL0     C27953   2.774   7.482   5.609 -0.0893 -0.7514 -0.2148
  970MOL0     C27954   2.786   7.558   5.726  0.5372  0.2026 -0.0744
  970MOL0     O27955   2.678   7.600   5.984 -0.0345  0.0846  1.0730
  970MOL0     C27956   2.711   7.699   6.243  0.2189 -0.6563 -0.1633
  970MOL0     C27957   2.739   7.734   6.374 -0.0884 -0.0938  0.3796
  970MOL0     N27958   3.458   7.474   6.844  0.4978  0.2827 -0.9749
  970MOL0     N27959   3.551   7.503   6.935  0.1243  0.2977  0.3239
  970MOL0     C27960   4.605   7.227   7.256  0.1083 -0.0788  0.8963
  970MOL0     C27961   4.697   7.330   7.241 -0.5097  0.3011  1.2442
  970MOL0     C27962   4.974   7.645   7.335 -0.0598 -0.5658  0.4591
  970MOL0     C27963   5.006   7.678   7.204  0.1372  0.6109 -0.1781
  970MOL0     C27964   5.136   7.688   7.166 -0.4069 -0.2143 -0.3171
  970MOL0     C27965   5.241   7.685   7.255 -0.8044  0.4747  0.4638
  970MOL0     O27966   5.376   7.689   7.225 -0.5370  0.1772  0.5497
  970MOL0     C27967   5.471   7.711   7.326 -0.3297 -0.2470  0.2499
  970MOL0     C27968   5.552   7.578   7.323  0.1126 -0.2369  0.2881
  970MOL0     C27969   5.583   7.514   7.190 -0.4381  0.1185 -0.2804
  970MOL0     C27970   5.695   7.406   7.195 -0.0170  0.6317 -0.1010
  970MOL0     C27971   5.723   7.341   7.069 -0.4514  0.4348  0.5116
  970MOL0     C27972   5.748   7.300   6.958  0.1934 -0.6363 -0.7459
  970MOL0     C27973   5.214   7.654   7.394 -0.2726 -0.0883  0.4847
  970MOL0     C27974   5.077   7.638   7.434  1.2745 -0.4104 -0.0519
  970MOL0     H27975   4.527   7.575   7.396  0.7383  0.9304 -1.2261
  970MOL0     H27976   4.344   7.394   7.395 -0.9631  1.0001 -2.6716
  970MOL0     H27977   4.276   7.187   7.470  1.5543  1.3454 -1.3637
  970MOL0     H27978   4.212   7.050   7.401 -2.0073  0.6613 -1.7123
  970MOL0     H27979   4.147   7.173   7.177  2.7726  0.8563 -3.0089
  970MOL0     H27980   4.207   7.322   7.247 -1.4846  0.2654 -0.8108
  970MOL0     H27981   4.063   7.353   7.400  1.7351  0.1195 -0.3081
  970MOL0     H27982   3.989   7.190   7.396 -0.3555 -0.1854  0.0281
  970MOL0     H27983   3.959   7.412   7.198 -2.3848  1.7991  1.4980
  970MOL0     H27984   3.886   7.256   7.177  4.7710 -1.8797 -1.7342
  970MOL0     H27985   3.845   7.464   7.391 -2.1330  1.5554  0.1193
  970MOL0     H27986   3.791   7.296   7.418 -0.4589 -0.5819 -1.4711
  970MOL0     H27987   3.599   7.422   7.346  0.5629  4.4824 -0.5208
  970MOL0     H27988   3.638   7.322   7.199 -0.8421 -0.7996  0.7170
  970MOL0     H27989   3.735   7.602   7.259 -0.1452  0.4372 -1.0908
  970MOL0     H27990   3.746   7.517   7.100  1.7130  0.8701  1.5688
  970MOL0     H27991   3.595   7.714   7.128  0.9248  0.0693  2.3736
  970MOL0     H27992   3.490   7.624   7.230  1.4164  1.3137  0.1082
  970MOL0     H27993   3.285   7.616   7.087 -0.8967 -0.2866 -1.0290
  970MOL0     H27994   3.118   7.494   6.894 -1.4308  1.7503 -1.6356
  970MOL0     H27995   3.203   7.413   6.768  0.5519 -0.2261  1.1213
  970MOL0     H27996   3.256   7.639   6.671  0.8261 -1.3874  0.1168
  970MOL0     H27997   3.185   7.727   6.811 -1.0040  1.0192 -1.2155
  970MOL0     H27998   3.053   7.567   6.591 -0.1821 -2.2609  2.8747
  970MOL0     H27999   2.959   7.623   6.742 -3.1688  2.0736 -1.3692
  970MOL0     H28000   3.097   7.807   6.548 -0.9858 -0.6774 -1.4198
  970MOL0     H28001   3.016   7.860   6.696  0.6859  0.9258 -0.9557
  970MOL0     H28002   3.074   7.689   6.384 -0.7679  0.9980  2.5710
  970MOL0     H28003   3.023   7.608   6.142 -1.4162 -4.3489  0.4607
  970MOL0     H28004   3.045   7.418   5.876  0.8869 -0.6169 -0.3657
  970MOL0     H28005   3.036   7.277   5.679 -1.5761 -2.5380  1.2583
  970MOL0     H28006   2.881   7.370   5.306  3.2933 -0.4326  3.2181
  970MOL0     H28007   2.713   7.344   5.387 -1.5143 -2.3394  0.8607
  970MOL0     H28008   2.739   7.122   5.376 -3.1193  1.8083 -0.6875
  970MOL0     H28009   2.889   7.130   5.286 -0.4837 -1.8950  1.0648
  970MOL0     H28010   2.744   7.250   5.101 -0.0609 -2.0327 -0.3999
  970MOL0     H28011   2.612   7.233   5.216  0.1273  0.1900 -0.5543
  970MOL0     H28012   2.727   7.018   5.048  3.4672  1.5760  1.9312
  970MOL0     H28013   2.647   6.973   5.192  1.1891  0.3239 -0.3090
  970MOL0     H28014   2.546   7.127   4.956 -2.0012 -0.4975 -0.8642
  970MOL0     H28015   2.447   7.124   5.102 -1.1556  0.9200 -3.0204
  970MOL0     H28016   2.372   6.955   4.934  1.6161  3.0728 -0.1103
  970MOL0     H28017   2.426   6.872   5.075 -2.1289 -3.1291 -2.2204
  970MOL0     H28018   2.601   6.919   4.826  0.3190  1.5349  0.9071
  970MOL0     H28019   2.645   6.812   4.957 -0.1204 -2.2509 -1.9865
  970MOL0     H28020   2.514   6.738   4.726 -0.0691 -4.5775 -0.3357
  970MOL0     H28021   2.377   6.757   4.847  0.2602  1.8501  3.0603
  970MOL0     H28022   2.701   7.508   5.533  1.5882  1.1256 -1.3113
  970MOL0     H28023   2.701   7.625   5.741 -2.7885 -2.9551 -2.8660
  970MOL0     H28024   2.608   7.713   6.212 -0.2013  3.1897  2.3257
  970MOL0     H28025   2.661   7.776   6.436 -2.9913 -1.2733 -2.1667
  970MOL0     H28026   4.623   7.128   7.215  0.2082  0.7699 -1.2222
  970MOL0     H28027   4.797   7.323   7.199 -0.5277 -0.4330  1.3113
  970MOL0     H28028   4.934   7.692   7.124  2.4476  1.1209 -2.3141
  970MOL0     H28029   5.164   7.692   7.061  2.0370 -1.2716  0.2349
  970MOL0     H28030   5.442   7.744   7.426 -1.6509  0.5629 -0.3691
  970MOL0     H28031   5.532   7.801   7.309 -1.4385  1.2211  3.3822
  970MOL0     H28032   5.651   7.593   7.368 -0.6156 -0.4880  2.0657
  970MOL0     H28033   5.521   7.497   7.389 -0.9929 -1.5487 -1.7477
  970MOL0     H28034   5.604   7.596   7.120 -0.3032  2.4932  2.3528
  970MOL0     H28035   5.496   7.470   7.140  1.9191 -2.5699 -2.3387
  970MOL0     H28036   5.786   7.457   7.227  0.5855  1.1144 -2.4150
  970MOL0     H28037   5.659   7.333   7.268 -0.8076  2.0999  1.0561
  970MOL0     H28038   5.750   7.262   6.858  1.6197 -2.1337 -0.1982
  970MOL0     H28039   5.286   7.640   7.474  2.6501  2.3137 -1.5002
  970MOL0     H28040   5.060   7.606   7.537  2.8358  0.5327  0.5334
  971MOL0     O28041   4.111   6.483   9.490  1.3862  0.1194  0.6684
  971MOL0     C28042   4.049   6.566   9.554  0.1589  0.2458 -0.1396
  971MOL0     O28043   4.099   6.657   9.645  0.3870  0.0904 -0.9612
  971MOL0     C28044   4.220   6.642   9.717 -0.6522 -0.4189  0.3125
  971MOL0     C28045   4.294   6.526   9.744 -0.2492  0.7849  1.2052
  971MOL0     C28046   4.403   6.528   9.829  0.2389 -0.2329 -0.4990
  971MOL0     C28047   4.440   6.643   9.908  0.7362  0.4503 -0.5221
  971MOL0     O28048   4.533   6.630  10.009  0.8812  0.7947  0.2611
  971MOL0     C28049   4.488   6.556  10.118 -0.6448  0.3155 -0.0985
  971MOL0     C28050   4.607   6.496  10.196  0.2862  0.5311 -0.7901
  971MOL0     C28051   4.719   6.419  10.118 -0.2453  0.1771 -0.9399
  971MOL0     C28052   4.848   6.376  10.200  0.1631  0.4017 -1.0938
  971MOL0     C28053   4.945   6.327  10.091  0.8240  0.0723 -0.0037
  971MOL0     C28054   5.091   6.304  10.134 -0.3891  0.2775 -0.0809
  971MOL0     C28055   5.166   6.441  10.154  0.2350 -0.3450  0.9821
  971MOL0     C28056   5.314   6.422  10.207 -1.0236 -0.0862  0.4733
  971MOL0     N28057   5.390   6.318  10.118 -0.1874  0.3673 -0.3661
  971MOL0     C28058   5.417   6.351   9.989 -0.3795  0.3346 -0.8860
  971MOL0     C28059   5.447   6.246   9.919 -0.3379  0.0314 -0.4111
  971MOL0     C28060   5.480   6.229   9.779  0.2540 -0.4694 -0.1137
  971MOL0     C28061   5.377   6.273   9.677  1.2690  0.5543  1.1768
  971MOL0     C28062   5.382   6.424   9.656 -0.2848 -0.3308 -0.1394
  971MOL0     C28063   5.256   6.475   9.587  0.5275 -0.3645 -0.8287
  971MOL0     O28064   5.138   6.487   9.663  0.3367  0.5412  0.5249
  971MOL0     C28065   5.020   6.443   9.613 -0.5013  0.1548  0.6926
  971MOL0     C28066   4.922   6.432   9.711 -0.3654 -0.9456  0.8535
  971MOL0     C28067   4.798   6.378   9.691  0.1459 -0.4441 -0.4015
  971MOL0     C28068   4.764   6.344   9.558  0.1252  0.6327 -0.0145
  971MOL0     C28069   4.623   6.289   9.534 -0.2591 -0.6118  1.0739
  971MOL0     O28070   4.607   6.227   9.412 -0.7101  0.2536  0.1081
  971MOL0     C28071   4.483   6.178   9.375  0.2200  0.3865  0.6289
  971MOL0     C28072   4.479   6.054   9.315  0.4753 -0.0824 -0.2560
  971MOL0     C28073   4.356   6.010   9.265  0.7184  0.0363 -0.2316
  971MOL0     C28074   4.247   6.099   9.265 -0.6423  0.3276 -0.2127
  971MOL0     O28075   4.139   6.068   9.199  0.2154  0.3166  0.4304
  971MOL0     C28076   4.167   6.016   9.067  0.1522 -1.0343  0.2542
  971MOL0     C28077   4.034   6.002   8.989 -1.1080 -0.2029  0.0143
  971MOL0     C28078   4.049   5.973   8.841  0.8784 -0.1218  0.7746
  971MOL0     C28079   3.939   5.888   8.785 -0.1178  0.6277  0.0825
  971MOL0     C28080   3.971   5.843   8.644 -0.2156  0.7141  0.2904
  971MOL0     C28081   3.862   5.764   8.567  0.4418  0.1557  0.6495
  971MOL0     C28082   3.917   5.692   8.446  0.3636  0.1016  0.1860
  971MOL0     C28083   3.847   5.724   8.311  0.7046  0.1498 -0.0990
  971MOL0    Cl28084   3.900   5.630   8.172  0.0156 -0.2018  0.2908
  971MOL0     C28085   4.257   6.224   9.323  0.2858 -0.8899  0.4804
  971MOL0     C28086   4.369   6.262   9.386 -0.0853 -0.4201 -0.0249
  971MOL0     O28087   4.533   6.305   9.613 -0.4538 -0.1634  0.1480
  971MOL0     C28088   4.862   6.343   9.453 -0.6746  0.3495 -0.5752
  971MOL0     C28089   4.987   6.398   9.480 -0.5297  0.9025 -0.8942
  971MOL0     N28090   5.441   6.140  10.004 -0.4056 -0.9542 -0.5407
  971MOL0     N28091   5.395   6.178  10.119 -0.1156  0.1922 -0.0672
  971MOL0     C28092   4.381   6.763   9.865 -0.0614 -0.2226  0.7825
  971MOL0     C28093   4.265   6.765   9.773 -0.3699 -0.5305 -0.4504
  971MOL0     C28094   3.903   6.559   9.530  0.2376  1.1214 -0.1501
  971MOL0     C28095   3.810   6.636   9.602  0.6064  0.8031  0.5297
  971MOL0     C28096   3.675   6.640   9.571 -0.4666  0.7716  0.2462
  971MOL0     C28097   3.630   6.568   9.460  0.2224 -0.0649 -0.2701
  971MOL0     O28098   3.508   6.587   9.405  0.6413  0.2380  0.2518
  971MOL0     C28099   3.400   6.598   9.503 -0.9203 -0.1232  0.2254
  971MOL0     C28100   3.269   6.627   9.419 -0.4397 -0.0841  0.2253
  971MOL0     C28101   3.140   6.620   9.510  0.1491  0.8703  0.2222
  971MOL0     C28102   3.134   6.734   9.603 -0.0179 -0.7845  0.1325
  971MOL0     C28103   2.998   6.727   9.670 -0.8174  0.0307  0.2480
  971MOL0     C28104   2.891   6.732   9.709  0.9947 -0.2221  0.1363
  971MOL0     C28105   3.715   6.475   9.400 -0.0380 -0.0145 -0.1374
  971MOL0     C28106   3.857   6.479   9.423  0.2708  1.0741 -1.0256
  971MOL0     H28107   4.263   6.433   9.698  0.2410  0.0012  2.4113
  971MOL0     H28108   4.468   6.443   9.844  3.4686  1.9101 -1.1672
  971MOL0     H28109   4.425   6.473  10.084  0.9142 -2.1503  2.4885
  971MOL0     H28110   4.434   6.620  10.188 -0.4916  0.6764 -0.3110
  971MOL0     H28111   4.563   6.435  10.276 -0.2064  1.1206 -0.5972
  971MOL0     H28112   4.660   6.582  10.238  3.2950 -0.1340 -2.9556
  971MOL0     H28113   4.749   6.478  10.031 -1.1685  0.0256 -1.3657
  971MOL0     H28114   4.664   6.330  10.086  2.6405 -1.8279 -0.7535
  971MOL0     H28115   4.890   6.465  10.247 -1.1384  1.1017 -1.2116
  971MOL0     H28116   4.823   6.298  10.273  0.3452 -0.0123 -1.4681
  971MOL0     H28117   4.969   6.395  10.009  2.8892 -0.8666 -0.2477
  971MOL0     H28118   4.894   6.242  10.046  2.7726  0.6524 -3.7251
  971MOL0     H28119   5.130   6.229  10.064  0.4466 -0.2027  0.8856
  971MOL0     H28120   5.082   6.252  10.230 -0.5060  0.1711 -0.1482
  971MOL0     H28121   5.180   6.498  10.061  1.2578 -2.3505 -0.1705
  971MOL0     H28122   5.114   6.505  10.226 -1.0372 -0.8805  0.5533
  971MOL0     H28123   5.321   6.396  10.313  0.6941  0.8143  0.6173
  971MOL0     H28124   5.367   6.517  10.196  0.2277 -0.9659 -1.9369
  971MOL0     H28125   5.392   6.446   9.941  1.8353  0.9965 -0.8364
  971MOL0     H28126   5.499   6.121   9.780  0.5894 -0.4176  1.6777
  971MOL0     H28127   5.581   6.271   9.773  2.1545 -4.6237 -0.2716
  971MOL0     H28128   5.279   6.240   9.713  0.4517  0.9411 -0.5701
  971MOL0     H28129   5.405   6.220   9.585 -0.2750 -0.3957  1.2209
  971MOL0     H28130   5.396   6.492   9.741  0.6827  3.4592 -3.0637
  971MOL0     H28131   5.473   6.432   9.596  0.7596  1.9537  1.6022
  971MOL0     H28132   5.253   6.425   9.490  4.0432 -2.6793  0.0510
  971MOL0     H28133   5.290   6.577   9.563  0.5872 -0.1651  0.0738
  971MOL0     H28134   4.942   6.462   9.813 -1.6138  0.7988  0.6260
  971MOL0     H28135   4.729   6.348   9.769  0.8001 -1.5303 -0.2223
  971MOL0     H28136   4.571   6.000   9.298  0.8414  1.4692 -4.3661
  971MOL0     H28137   4.361   5.916   9.211  0.3323  0.4239 -0.9608
  971MOL0     H28138   4.230   5.930   9.043  1.3607 -0.0202 -0.3042
  971MOL0     H28139   4.221   6.089   9.006  1.4358 -2.8204 -0.8627
  971MOL0     H28140   3.968   6.086   9.010  0.5496  0.5484  2.7751
  971MOL0     H28141   3.992   5.908   9.025  1.1073 -0.9923  0.7395
  971MOL0     H28142   4.144   5.922   8.821  0.9917  0.1053  0.7283
  971MOL0     H28143   4.062   6.066   8.786  3.6519 -0.0258  1.4399
  971MOL0     H28144   3.936   5.793   8.840  1.9815 -1.0671 -2.4974
  971MOL0     H28145   3.847   5.947   8.789  0.8843  2.1354  1.9093
  971MOL0     H28146   4.053   5.775   8.664  0.7057  0.4087 -3.6192
  971MOL0     H28147   4.002   5.921   8.573 -1.7065  0.3166 -0.8641
  971MOL0     H28148   3.784   5.834   8.537  0.6736  0.0564 -0.2098
  971MOL0     H28149   3.812   5.689   8.629  0.3205 -0.3229 -0.0178
  971MOL0     H28150   4.022   5.716   8.431 -0.3066  1.4271 -3.6147
  971MOL0     H28151   3.908   5.586   8.472 -2.4609 -0.0982 -1.1895
  971MOL0     H28152   3.850   5.827   8.275  2.9939  0.5772  1.1109
  971MOL0     H28153   3.744   5.688   8.312  1.4204 -2.0934  0.9329
  971MOL0     H28154   4.158   6.268   9.319 -0.8671 -3.4083 -1.0652
  971MOL0     H28155   4.366   6.367   9.413 -0.5112  0.4757 -3.1777
  971MOL0     H28156   4.829   6.318   9.353 -0.0534  3.5493 -1.7050
  971MOL0     H28157   5.064   6.430   9.410  0.1740  1.3344  0.0591
  971MOL0     H28158   4.402   6.851   9.926 -0.4581  0.1039  0.4539
  971MOL0     H28159   4.202   6.853   9.763 -0.0800 -0.0937  1.3402
  971MOL0     H28160   3.859   6.689   9.683 -1.7031 -0.3425  2.7984
  971MOL0     H28161   3.630   6.726   9.618 -0.2896  0.5718  0.7901
  971MOL0     H28162   3.416   6.686   9.567 -0.9906  1.8029 -2.2656
  971MOL0     H28163   3.381   6.502   9.553  0.8755 -0.7821 -0.2591
  971MOL0     H28164   3.278   6.723   9.368  1.8914  0.0078  0.7052
  971MOL0     H28165   3.258   6.559   9.334  1.0172 -2.4254  1.7813
  971MOL0     H28166   3.138   6.529   9.570  1.5713  3.1828  4.1037
  971MOL0     H28167   3.051   6.627   9.446 -0.9467 -1.3069  1.3993
  971MOL0     H28168   3.213   6.733   9.679 -2.0365  0.3423  2.3643
  971MOL0     H28169   3.149   6.832   9.557 -0.9891 -0.6395  0.1083
  971MOL0     H28170   2.787   6.736   9.732  0.1204  0.3798 -3.3514
  971MOL0     H28171   3.669   6.408   9.329 -2.2589 -1.1507  2.1914
  971MOL0     H28172   3.925   6.417   9.366  2.3675  1.3975  0.9911
  972MOL0     O28173   2.910   9.660   5.879  0.2466 -0.2315  0.3406
  972MOL0     C28174   2.913   9.665   5.753 -0.2553 -0.1677 -0.3703
  972MOL0     O28175   2.928   9.770   5.679 -0.8134 -0.4158 -0.0379
  972MOL0     C28176   2.914   9.891   5.738  0.4122 -0.2067 -0.1682
  972MOL0     C28177   2.792   9.964   5.754 -0.3651  0.8124 -0.8065
  972MOL0     C28178   2.794  10.083   5.834  0.1367  1.5388 -0.3863
  972MOL0     C28179   2.910  10.139   5.881 -0.5698 -0.4372  0.1621
  972MOL0     O28180   2.905  10.264   5.946  0.0105 -0.4190  0.4727
  972MOL0     C28181   3.025  10.316   6.008 -1.0202 -0.4770 -0.0808
  972MOL0     C28182   3.095  10.396   5.895  0.2086 -0.0382 -0.6734
  972MOL0     C28183   3.206  10.493   5.932 -0.4619  0.8724 -0.4200
  972MOL0     C28184   3.155  10.613   6.008  0.1429 -0.2852  0.5719
  972MOL0     C28185   3.257  10.715   6.033  0.9698 -0.0057  0.7687
  972MOL0     C28186   3.373  10.669   6.122  0.3638  0.3809  1.3815
  972MOL0     C28187   3.447  10.779   6.191  0.4540  0.3420  0.0539
  972MOL0     C28188   3.535  10.845   6.074 -0.4948 -0.4522  0.5169
  972MOL0     N28189   3.614  10.953   6.138 -0.1885  0.5365  0.6486
  972MOL0     C28190   3.731  10.997   6.082 -0.4904 -0.7367 -0.6862
  972MOL0     C28191   3.743  11.123   6.134  0.2595  0.2479  0.1607
  972MOL0     C28192   3.844  11.233   6.095 -0.7151  0.0447  0.2575
  972MOL0     C28193   3.983  11.197   6.144 -0.7434  0.8800 -0.3804
  972MOL0     C28194   4.061  11.122   6.036 -0.3800 -0.2412  0.2840
  972MOL0     C28195   4.192  11.067   6.094 -0.4124  0.3795  0.2049
  972MOL0     O28196   4.279  11.016   5.991 -0.2770  0.0021 -0.6135
  972MOL0     C28197   4.405  10.994   6.028 -0.4022 -0.1064  0.5355
  972MOL0     C28198   4.442  10.945   6.157  0.1347 -0.3205 -0.4362
  972MOL0     C28199   4.576  10.926   6.198  0.0342  0.1535  0.6186
  972MOL0     C28200   4.681  10.938   6.105 -0.6215  0.4952  1.4315
  972MOL0     C28201   4.819  10.920   6.147  0.3155  0.1683 -0.3455
  972MOL0     O28202   4.913  10.933   6.042 -0.0642 -0.1543 -0.0378
  972MOL0     C28203   5.049  10.931   6.059  0.5716  0.4221 -0.5128
  972MOL0     C28204   5.119  10.870   5.954 -0.5637 -0.0133  0.4082
  972MOL0     C28205   5.252  10.881   5.953 -1.0881 -0.4059 -0.6036
  972MOL0     C28206   5.315  10.928   6.072  0.5543 -0.0039 -0.0416
  972MOL0     O28207   5.453  10.937   6.084  0.4556  0.3901 -0.1139
  972MOL0     C28208   5.535  10.868   5.984  0.4667 -0.7978 -0.8342
  972MOL0     C28209   5.671  10.838   6.031 -1.2339 -0.1507 -0.3887
  972MOL0     C28210   5.750  10.967   6.046 -1.6643 -0.2930 -0.6155
  972MOL0     C28211   5.887  10.937   6.111 -0.5156  0.3363  0.3146
  972MOL0     C28212   5.943  11.057   6.190 -0.4027  0.1467  0.4628
  972MOL0     C28213   5.879  11.063   6.328  0.3520  0.0294  0.2577
  972MOL0     C28214   5.932  10.957   6.427 -0.1519 -0.1781 -0.5799
  972MOL0     C28215   5.917  11.007   6.566  1.0172 -0.8597 -1.1556
  972MOL0    Cl28216   5.746  11.041   6.624 -0.1836  0.4192  0.1657
  972MOL0     C28217   5.242  10.978   6.178  0.4470  0.3042 -0.2735
  972MOL0     C28218   5.104  10.994   6.169  0.2585 -0.5730 -0.6110
  972MOL0     O28219   4.849  10.897   6.264  0.2699 -0.3918  0.3086
  972MOL0     C28220   4.646  10.961   5.968  1.2762  0.9638 -0.8195
  972MOL0     C28221   4.518  11.002   5.938  0.2672  0.8626  0.0118
  972MOL0     N28222   3.634  11.159   6.208 -0.0091 -0.3077 -0.0489
  972MOL0     N28223   3.561  11.055   6.211 -0.7399  1.4246 -0.1484
  972MOL0     C28224   3.029  10.064   5.862  0.7377 -0.6254 -0.2150
  972MOL0     C28225   3.028   9.944   5.795  0.3964  0.5954 -0.0245
  972MOL0     C28226   2.898   9.535   5.671 -0.2052 -0.0364  0.4045
  972MOL0     C28227   2.859   9.408   5.729 -0.2075 -0.1265  0.1392
  972MOL0     C28228   2.860   9.295   5.643 -0.3043  0.1549  0.3196
  972MOL0     C28229   2.874   9.301   5.503 -0.4081  0.3104 -0.3882
  972MOL0     O28230   2.887   9.199   5.414  0.1142 -0.7226 -0.8624
  972MOL0     C28231   2.858   9.071   5.465  0.2622  0.3764  0.5786
  972MOL0     C28232   2.900   8.952   5.375 -0.8571  0.8821  0.0882
  972MOL0     C28233   2.851   8.810   5.425  0.3295 -0.4083 -0.6233
  972MOL0     C28234   2.895   8.784   5.568 -0.5034 -0.9354 -0.5464
  972MOL0     C28235   2.864   8.640   5.605 -0.3972 -0.2005 -0.7789
  972MOL0     C28236   2.840   8.520   5.635 -0.1204 -1.1047  0.5605
  972MOL0     C28237   2.922   9.428   5.450  1.0932 -0.7314  0.2662
  972MOL0     C28238   2.939   9.537   5.531  0.7383 -0.2402 -0.4122
  972MOL0     H28239   2.705   9.925   5.702 -1.5983 -0.8725  2.2901
  972MOL0     H28240   2.710  10.147   5.859  1.0761  2.4641  0.5278
  972MOL0     H28241   3.084  10.240   6.060 -2.3096  0.3546  2.7861
  972MOL0     H28242   2.992  10.387   6.084 -0.0738  1.2797 -1.2396
  972MOL0     H28243   3.011  10.452   5.855  0.3474  0.5633 -0.1318
  972MOL0     H28244   3.139  10.323   5.826  1.9059 -1.2640  1.5286
  972MOL0     H28245   3.248  10.531   5.838  3.5096  0.4823  0.9950
  972MOL0     H28246   3.279  10.432   5.986 -1.4434 -3.3418 -3.2598
  972MOL0     H28247   3.067  10.657   5.961  0.3357 -0.3465  0.1470
  972MOL0     H28248   3.117  10.583   6.106 -1.0328  0.1926  0.2741
  972MOL0     H28249   3.214  10.800   6.087 -0.3155  0.0795 -0.3471
  972MOL0     H28250   3.291  10.745   5.934 -0.9155  0.3661  0.2016
  972MOL0     H28251   3.429  10.609   6.050 -2.8100  1.1398 -2.0391
  972MOL0     H28252   3.337  10.596   6.195  0.2858 -0.6649  0.3205
  972MOL0     H28253   3.390  10.862   6.232  1.3899  1.4633 -0.8566
  972MOL0     H28254   3.514  10.729   6.262 -0.0392 -2.2473 -1.1811
  972MOL0     H28255   3.468  10.886   5.998  1.7978 -0.4046 -1.5639
  972MOL0     H28256   3.607  10.778   6.027 -0.2939  0.0477  0.0935
  972MOL0     H28257   3.790  10.943   6.008  0.3493  1.5780 -1.8078
  972MOL0     H28258   3.820  11.323   6.153  2.5064  4.0592 -3.8591
  972MOL0     H28259   3.841  11.247   5.987  4.0714 -0.9451 -0.2602
  972MOL0     H28260   3.975  11.153   6.244 -1.0595  2.1253  0.1611
  972MOL0     H28261   4.041  11.289   6.152  0.5692  0.3812 -2.9871
  972MOL0     H28262   3.989  11.054   5.990  0.6928  0.6005 -2.8878
  972MOL0     H28263   4.093  11.189   5.955  0.8692  0.7185  1.5036
  972MOL0     H28264   4.167  10.991   6.168  1.3196  0.6670  1.1265
  972MOL0     H28265   4.246  11.151   6.139  2.4992 -0.5377 -1.3545
  972MOL0     H28266   4.365  10.929   6.231 -1.3102 -0.7871 -1.9624
  972MOL0     H28267   4.594  10.895   6.301 -0.1088  1.5642  1.0912
  972MOL0     H28268   5.053  10.842   5.873  1.7938  0.0563 -1.6493
  972MOL0     H28269   5.314  10.848   5.870  0.8097  0.7015  0.3100
  972MOL0     H28270   5.534  10.941   5.903  0.9567  0.0973 -0.0551
  972MOL0     H28271   5.505  10.768   5.953 -2.3850 -0.0200 -0.8670
  972MOL0     H28272   5.715  10.767   5.961 -2.1678  2.3955 -3.8361
  972MOL0     H28273   5.670  10.797   6.133  0.0332  2.4032  0.7576
  972MOL0     H28274   5.693  11.036   6.108 -0.3849  2.9762 -2.8309
  972MOL0     H28275   5.761  11.020   5.951  1.9378  0.2790 -0.0299
  972MOL0     H28276   5.878  10.842   6.164 -2.0313  0.1067 -0.2994
  972MOL0     H28277   5.954  10.921   6.026  0.1580  1.3506  0.6423
  972MOL0     H28278   5.931  11.150   6.134  0.2447 -0.8105 -1.3777
  972MOL0     H28279   6.050  11.041   6.202  0.0132  1.0936 -1.6087
  972MOL0     H28280   5.771  11.077   6.320  0.6481  2.3632 -0.2991
  972MOL0     H28281   5.901  11.166   6.357 -2.6796  0.7735  0.2368
  972MOL0     H28282   5.875  10.864   6.431 -0.4130  0.0277  1.8305
  972MOL0     H28283   6.039  10.943   6.413  0.3862  3.4094 -0.9374
  972MOL0     H28284   5.952  11.110   6.579 -3.5290  0.8727 -0.3809
  972MOL0     H28285   5.964  10.934   6.632  0.1671 -1.4823 -1.2201
  972MOL0     H28286   5.295  11.007   6.268 -0.5740 -0.1249  0.4901
  972MOL0     H28287   5.046  11.051   6.241 -0.6092 -0.4262 -1.4027
  972MOL0     H28288   4.721  10.947   5.891  0.3632  0.3363 -1.6249
  972MOL0     H28289   4.509  11.028   5.833  0.2619  2.0529  0.2899
  972MOL0     H28290   3.121  10.099   5.909 -0.1389 -0.8030  1.7323
  972MOL0     H28291   3.116   9.880   5.788 -0.8444 -1.1712 -0.0631
  972MOL0     H28292   2.841   9.398   5.836  1.9823  2.9021  0.9237
  972MOL0     H28293   2.834   9.197   5.682  0.1584 -0.5313 -1.0152
  972MOL0     H28294   2.752   9.052   5.483 -0.1593  0.5070 -1.4787
  972MOL0     H28295   2.916   9.053   5.556  1.3992 -2.1763 -0.5657
  972MOL0     H28296   2.882   8.969   5.269 -1.9714  0.8378  0.2570
  972MOL0     H28297   3.007   8.943   5.357 -1.3362 -0.5689 -2.4323
  972MOL0     H28298   2.885   8.729   5.361  3.2166  0.8629 -0.8221
  972MOL0     H28299   2.741   8.805   5.423  0.3687 -2.9278  0.0201
  972MOL0     H28300   3.001   8.805   5.584 -0.6928  0.0472 -0.5172
  972MOL0     H28301   2.853   8.856   5.639  2.5846  1.3600 -0.8300
  972MOL0     H28302   2.819   8.418   5.661  2.6102 -1.4019  2.0242
  972MOL0     H28303   2.935   9.432   5.342  2.1058 -2.0566  0.3103
  972MOL0     H28304   2.973   9.629   5.486 -0.2844 -0.3948 -1.5370
  973MOL0     O28305   5.228   4.306   2.677  0.5867 -0.4393 -0.6257
  973MOL0     C28306   5.229   4.420   2.633 -0.5607 -0.5030  0.0780
  973MOL0     O28307   5.337   4.508   2.639  0.2165  0.5575  0.4223
  973MOL0     C28308   5.462   4.466   2.683 -0.0916 -0.0406  0.2320
  973MOL0     C28309   5.528   4.562   2.755 -1.0607  0.1453 -0.3389
  973MOL0     C28310   5.664   4.547   2.791  0.1950 -0.2821 -0.7555
  973MOL0     C28311   5.734   4.438   2.755  0.4177  0.0204  0.5493
  973MOL0     O28312   5.865   4.429   2.786  0.2174  0.3163  0.3535
  973MOL0     C28313   5.934   4.303   2.770 -0.8623  0.0515  0.3585
  973MOL0     C28314   5.897   4.213   2.890 -0.0997 -0.2411 -0.5494
  973MOL0     C28315   5.953   4.070   2.877 -0.5594 -0.6615  0.2403
  973MOL0     C28316   5.928   3.991   3.004 -0.3708 -0.0392 -0.6032
  973MOL0     C28317   5.962   3.837   2.994  0.4440 -0.1870 -0.2093
  973MOL0     C28318   6.083   3.808   2.912  0.2925 -0.1046  0.4495
  973MOL0     C28319   6.102   3.660   2.895 -0.5631  0.6698 -0.2042
  973MOL0     C28320   6.248   3.635   2.839  0.3861  0.3459  0.2977
  973MOL0     N28321   6.334   3.604   2.961 -1.0192  0.1640  0.2827
  973MOL0     C28322   6.346   3.470   2.991 -0.5961  1.3722  0.0355
  973MOL0     C28323   6.444   3.476   3.087  0.5634  0.9227  0.4685
  973MOL0     C28324   6.481   3.351   3.171  0.3987  0.1087 -0.6241
  973MOL0     C28325   6.548   3.242   3.082  0.1678 -0.7484 -0.6296
  973MOL0     C28326   6.651   3.290   2.974  0.2187  0.7172 -0.0136
  973MOL0     C28327   6.710   3.177   2.885  0.6244 -0.4921 -0.8393
  973MOL0     O28328   6.726   3.052   2.953 -0.1795  0.0188 -1.2495
  973MOL0     C28329   6.841   3.021   3.019  0.4358 -0.2051 -0.6921
  973MOL0     C28330   6.845   2.970   3.144  0.4206 -0.0562 -0.3312
  973MOL0     C28331   6.970   2.950   3.213  0.2230  0.6624 -0.3608
  973MOL0     C28332   7.093   2.971   3.153 -1.1983 -0.3523 -0.0954
  973MOL0     C28333   7.219   2.943   3.215  0.3269 -0.0902  1.3263
  973MOL0     O28334   7.222   2.958   3.345  0.1900 -0.2577  0.4543
  973MOL0     C28335   7.344   2.967   3.398 -0.1509  0.0462  0.3038
  973MOL0     C28336   7.440   3.068   3.384  0.4513  0.1965 -0.0071
  973MOL0     C28337   7.569   3.060   3.417  0.3991 -0.0784 -0.0693
  973MOL0     C28338   7.609   2.962   3.504 -0.1007  0.3413  0.4126
  973MOL0     O28339   7.738   2.962   3.552 -0.4288 -0.1436  0.5374
  973MOL0     C28340   7.787   2.838   3.608 -0.0223 -0.0857 -0.0366
  973MOL0     C28341   7.939   2.834   3.622  0.0446  0.2009  0.5662
  973MOL0     C28342   8.011   2.822   3.491  0.3856 -0.2875  0.3418
  973MOL0     C28343   8.167   2.829   3.517  1.0544 -0.1773  0.3916
  973MOL0     C28344   8.234   2.877   3.385  0.3078  0.1157  0.4349
  973MOL0     C28345   8.376   2.827   3.386 -0.1403  0.3586 -0.5754
  973MOL0     C28346   8.466   2.880   3.275  0.1269  0.4818 -0.9135
  973MOL0     C28347   8.471   2.773   3.168 -0.5932 -0.4085  0.3358
  973MOL0    Cl28348   8.561   2.835   3.016 -0.2290 -0.1561  0.2870
  973MOL0     C28349   7.512   2.865   3.545 -0.3195  0.1651 -0.4154
  973MOL0     C28350   7.380   2.872   3.494 -0.3050  0.2429  0.6362
  973MOL0     O28351   7.317   2.927   3.140 -0.1931 -0.5038 -0.1326
  973MOL0     C28352   7.084   3.014   3.015 -0.7118  0.0089 -1.1093
  973MOL0     C28353   6.960   3.045   2.952 -0.8763  0.2386  0.3149
  973MOL0     N28354   6.488   3.605   3.118  0.5389 -0.4772  1.0186
  973MOL0     N28355   6.415   3.685   3.039  0.1755 -0.4037  0.4004
  973MOL0     C28356   5.654   4.335   2.685  0.0476  0.0245  0.6498
  973MOL0     C28357   5.525   4.357   2.642 -1.4531 -0.2166  0.1957
  973MOL0     C28358   5.121   4.472   2.546  0.3820  0.5136 -1.5542
  973MOL0     C28359   5.010   4.388   2.508  0.2300 -0.4206  0.4733
  973MOL0     C28360   4.918   4.443   2.417  1.0000  0.8930 -0.7312
  973MOL0     C28361   4.927   4.572   2.369 -0.0585  0.5353 -0.7500
  973MOL0     O28362   4.836   4.619   2.277  0.3892  0.0433 -0.2626
  973MOL0     C28363   4.705   4.552   2.282  0.7854 -0.3384  0.0373
  973MOL0     C28364   4.614   4.621   2.182  0.7203  0.6506 -0.4267
  973MOL0     C28365   4.562   4.514   2.077  1.1904  1.2720  0.3520
  973MOL0     C28366   4.664   4.503   1.965 -1.3045  1.1942  0.0904
  973MOL0     C28367   4.633   4.376   1.895 -1.1085 -0.4600  0.3062
  973MOL0     C28368   4.601   4.272   1.835 -0.5493  0.1068 -0.1452
  973MOL0     C28369   5.025   4.652   2.415 -0.0465 -0.1250 -1.2679
  973MOL0     C28370   5.127   4.605   2.500  0.3887 -0.1347  0.1492
  973MOL0     H28371   5.475   4.651   2.786  0.6160  1.3790 -0.8632
  973MOL0     H28372   5.715   4.629   2.842 -0.6366 -0.8111  1.0119
  973MOL0     H28373   6.039   4.328   2.786 -0.0375 -1.6775 -1.8019
  973MOL0     H28374   5.927   4.265   2.668  0.9358  3.1246 -1.0243
  973MOL0     H28375   5.791   4.211   2.917  0.1627 -3.2461  0.7154
  973MOL0     H28376   5.944   4.264   2.974 -0.1494 -2.1104  0.6774
  973MOL0     H28377   6.061   4.076   2.861 -0.4660 -0.2735  0.9514
  973MOL0     H28378   5.912   4.020   2.789  0.8866  0.5931 -1.2044
  973MOL0     H28379   5.983   4.031   3.090 -2.9928 -3.2209  2.9516
  973MOL0     H28380   5.824   3.997   3.036 -0.0186  1.1715  0.3932
  973MOL0     H28381   5.887   3.782   2.937  2.5312 -1.9278 -1.4266
  973MOL0     H28382   5.983   3.805   3.097  1.8624 -1.0273 -0.7319
  973MOL0     H28383   6.173   3.848   2.959  2.1166 -3.0400 -0.3030
  973MOL0     H28384   6.069   3.860   2.817  1.3161 -0.8114 -0.1024
  973MOL0     H28385   6.077   3.598   2.982  1.1954 -2.3373 -1.6808
  973MOL0     H28386   6.036   3.618   2.818  0.2628 -1.3618  0.1316
  973MOL0     H28387   6.274   3.733   2.799 -1.2038  0.7884  0.2808
  973MOL0     H28388   6.260   3.562   2.759  1.3927  1.2585 -0.4022
  973MOL0     H28389   6.291   3.385   2.952 -0.4350  0.4908  1.6386
  973MOL0     H28390   6.386   3.323   3.219 -0.4457  2.1134 -1.0276
  973MOL0     H28391   6.546   3.378   3.255  0.4032  3.3654 -1.5626
  973MOL0     H28392   6.465   3.196   3.028  0.0982 -1.2794 -0.0892
  973MOL0     H28393   6.600   3.168   3.144  1.3300  0.0009 -0.6939
  973MOL0     H28394   6.611   3.362   2.902 -2.2156  1.8263  2.2803
  973MOL0     H28395   6.735   3.335   3.028 -0.8685 -0.7404  3.1848
  973MOL0     H28396   6.799   3.210   2.831  1.0414 -0.2834 -0.0353
  973MOL0     H28397   6.633   3.154   2.811  1.2694 -1.2377 -1.2986
  973MOL0     H28398   6.745   2.942   3.177  1.4454 -3.8367  0.0971
  973MOL0     H28399   6.971   2.905   3.311 -3.6846 -1.0486 -0.9071
  973MOL0     H28400   7.404   3.159   3.337  0.5938  0.0606 -0.3868
  973MOL0     H28401   7.638   3.135   3.380  0.3284  0.9871  1.8262
  973MOL0     H28402   7.765   2.761   3.533 -2.9295 -0.6786  1.2622
  973MOL0     H28403   7.738   2.820   3.705 -1.1887 -0.0442 -0.5997
  973MOL0     H28404   7.958   2.741   3.678 -0.0503 -2.1234 -2.9398
  973MOL0     H28405   7.966   2.931   3.664 -0.8802  0.7581 -0.1061
  973MOL0     H28406   7.978   2.906   3.429  2.9944  1.4184  1.0785
  973MOL0     H28407   7.971   2.731   3.446 -0.8778  0.2476  0.3351
  973MOL0     H28408   8.178   2.899   3.600 -3.2734  0.2142  0.8544
  973MOL0     H28409   8.217   2.735   3.539  1.6886 -0.3615 -1.5959
  973MOL0     H28410   8.228   2.986   3.379 -2.4181 -0.0341 -1.3017
  973MOL0     H28411   8.175   2.839   3.301  0.0011 -0.6004  0.9630
  973MOL0     H28412   8.368   2.719   3.398 -3.5358  0.6385  1.0065
  973MOL0     H28413   8.414   2.861   3.483 -0.4622 -0.3864 -0.1831
  973MOL0     H28414   8.429   2.973   3.230 -3.0204 -1.5740 -3.0077
  973MOL0     H28415   8.566   2.892   3.317  0.2106 -2.1985 -0.1794
  973MOL0     H28416   8.371   2.733   3.150  0.2644 -1.6720 -2.0024
  973MOL0     H28417   8.524   2.686   3.208 -1.6842 -1.1326  0.2284
  973MOL0     H28418   7.549   2.785   3.608 -1.2793  0.5747  0.6947
  973MOL0     H28419   7.311   2.789   3.509 -2.8818  2.0823 -0.3592
  973MOL0     H28420   7.176   3.043   2.966 -1.0729  3.0874 -0.1428
  973MOL0     H28421   6.989   3.093   2.858 -1.5066  0.7522  0.3777
  973MOL0     H28422   5.701   4.241   2.657 -0.1064 -0.1513  0.9783
  973MOL0     H28423   5.482   4.282   2.576 -0.1947 -0.1085 -0.7963
  973MOL0     H28424   5.010   4.285   2.540  1.1210 -0.2505  1.0525
  973MOL0     H28425   4.832   4.384   2.388  0.2534  3.4212 -4.2881
  973MOL0     H28426   4.673   4.586   2.381  2.3543  1.6387 -0.0645
  973MOL0     H28427   4.695   4.444   2.271 -0.3676 -0.2157 -0.2268
  973MOL0     H28428   4.533   4.676   2.231  1.2763  0.3717  0.8312
  973MOL0     H28429   4.672   4.695   2.126 -3.7878  2.2521 -3.6048
  973MOL0     H28430   4.467   4.541   2.031  1.9542 -0.3130 -2.3491
  973MOL0     H28431   4.541   4.419   2.127 -1.7783  1.7830  0.2532
  973MOL0     H28432   4.643   4.581   1.890 -0.6205 -1.9649 -3.6832
  973MOL0     H28433   4.765   4.521   2.003 -0.5333  1.9762 -2.1426
  973MOL0     H28434   4.569   4.184   1.782 -3.4605  0.4986  0.7673
  973MOL0     H28435   5.037   4.758   2.397 -0.3653 -0.2758 -2.4541
  973MOL0     H28436   5.215   4.660   2.534  1.5516 -0.6425 -1.8751
  974MOL0     O28437   4.961   2.096   6.887 -0.6526 -0.2512 -0.2072
  974MOL0     C28438   4.987   2.175   6.796 -0.6046 -0.6432 -0.1772
  974MOL0     O28439   4.918   2.191   6.683 -0.0282  0.2067  0.0815
  974MOL0     C28440   4.830   2.095   6.645 -0.9180  0.8275 -0.1965
  974MOL0     C28441   4.706   2.131   6.603 -0.3854  0.6719 -0.7245
  974MOL0     C28442   4.617   2.042   6.546 -0.1258 -0.0918 -0.8965
  974MOL0     C28443   4.642   1.904   6.553  0.4113  0.4414 -0.4464
  974MOL0     O28444   4.554   1.827   6.482 -0.5639  0.4103 -0.0356
  974MOL0     C28445   4.605   1.728   6.389 -0.5671  0.5311  0.3497
  974MOL0     C28446   4.486   1.651   6.321  0.0429  0.8516 -0.2014
  974MOL0     C28447   4.380   1.603   6.420 -0.1350  0.2112  0.5853
  974MOL0     C28448   4.253   1.578   6.338  0.2244 -0.0845 -0.0264
  974MOL0     C28449   4.116   1.606   6.402  0.3324  0.1120 -0.0876
  974MOL0     C28450   4.095   1.525   6.528 -0.5256 -0.2817 -0.6203
  974MOL0     C28451   3.960   1.560   6.600 -0.7503  0.3983 -1.2687
  974MOL0     C28452   3.956   1.701   6.651  0.2060  0.4284 -0.2667
  974MOL0     N28453   4.057   1.742   6.756 -0.0561  0.4833 -0.1082
  974MOL0     C28454   4.168   1.821   6.722 -0.3836 -0.1086 -0.1485
  974MOL0     C28455   4.237   1.822   6.842  1.1750 -1.2090  1.7197
  974MOL0     C28456   4.377   1.870   6.844 -0.0800  0.1755  0.5016
  974MOL0     C28457   4.385   2.010   6.919 -0.3472 -0.3104  0.9031
  974MOL0     C28458   4.312   2.120   6.835  0.4497  0.1166  0.6967
  974MOL0     C28459   4.308   2.260   6.902  0.0163  0.2573  0.6309
  974MOL0     O28460   4.228   2.351   6.824 -0.3806 -0.5391 -0.2307
  974MOL0     C28461   4.208   2.475   6.872 -0.0692  0.8569  0.3161
  974MOL0     C28462   4.107   2.552   6.809 -0.3430  0.9945  0.2298
  974MOL0     C28463   4.066   2.672   6.869  0.2297  1.1227  1.0228
  974MOL0     C28464   4.136   2.724   6.981  0.0932  0.5118  1.2673
  974MOL0     C28465   4.106   2.855   7.037 -0.5850 -0.8578 -0.0963
  974MOL0     O28466   4.201   2.894   7.128 -0.5612  0.6994  0.9283
  974MOL0     C28467   4.166   3.018   7.178  0.1927  0.3807 -0.2339
  974MOL0     C28468   4.113   3.035   7.307  1.3051 -0.0461 -0.3867
  974MOL0     C28469   4.082   3.158   7.359  0.3304 -0.0158 -0.1492
  974MOL0     C28470   4.126   3.274   7.293 -0.6691  0.4280  0.0877
  974MOL0     O28471   4.117   3.396   7.356  0.2413  0.2609 -0.3833
  974MOL0     C28472   4.217   3.493   7.325 -0.4726 -0.9466  0.8389
  974MOL0     C28473   4.251   3.589   7.442  0.5445  0.0068 -0.1324
  974MOL0     C28474   4.131   3.684   7.461  1.1788 -0.5888 -0.3881
  974MOL0     C28475   4.166   3.772   7.592 -0.8888  0.1519  0.5112
  974MOL0     C28476   4.040   3.836   7.657 -0.4080  0.0708  1.2910
  974MOL0     C28477   4.018   3.973   7.577  0.0920  0.4449  0.0471
  974MOL0     C28478   3.909   4.057   7.641  0.6171  0.5127 -0.4585
  974MOL0     C28479   3.766   4.001   7.605  0.2681  0.4162  0.4437
  974MOL0    Cl28480   3.638   4.105   7.670 -0.0705  0.1047 -0.3946
  974MOL0     C28481   4.180   3.260   7.164  0.1068 -1.0562 -0.2827
  974MOL0     C28482   4.191   3.134   7.110  0.2685  0.1045  0.2543
  974MOL0     O28483   4.023   2.926   6.980  0.3313  0.2921 -0.7320
  974MOL0     C28484   4.235   2.647   7.032 -0.1147 -0.2626  1.2742
  974MOL0     C28485   4.274   2.526   6.979  1.0207 -1.2061 -0.0925
  974MOL0     N28486   4.166   1.751   6.941 -0.7621 -0.7425  0.1531
  974MOL0     N28487   4.065   1.687   6.888  0.1142 -0.6965  0.3799
  974MOL0     C28488   4.765   1.859   6.615  1.0317  0.6055  0.2016
  974MOL0     C28489   4.856   1.959   6.655  0.5717  0.3201  0.6705
  974MOL0     C28490   5.085   2.272   6.834 -0.4123  0.1062 -0.3743
  974MOL0     C28491   5.192   2.237   6.919  0.3009  0.7394 -1.2013
  974MOL0     C28492   5.292   2.331   6.967 -0.0745  0.1067  0.7789
  974MOL0     C28493   5.291   2.461   6.910  0.3784  0.9163  0.1915
  974MOL0     O28494   5.402   2.535   6.937 -0.4186 -0.3846 -0.0007
  974MOL0     C28495   5.405   2.676   6.894  0.8743  0.2299 -0.3528
  974MOL0     C28496   5.535   2.741   6.938 -1.1346 -0.4568 -0.1223
  974MOL0     C28497   5.570   2.865   6.845 -0.3114  0.0955  0.8484
  974MOL0     C28498   5.708   2.907   6.868  0.8885 -0.0471 -1.2655
  974MOL0     C28499   5.759   2.998   6.767  0.6621 -0.0806  0.4531
  974MOL0     C28500   5.801   3.071   6.675 -0.9826 -0.1996  0.0511
  974MOL0     C28501   5.191   2.491   6.817  0.5079 -0.7882 -0.0908
  974MOL0     C28502   5.092   2.405   6.778  0.6996 -1.0470 -0.1137
  974MOL0     H28503   4.676   2.235   6.605  2.8380  1.7113  1.5037
  974MOL0     H28504   4.528   2.084   6.502 -0.6241 -1.2457 -1.0151
  974MOL0     H28505   4.657   1.647   6.442  2.0820  0.6158 -1.9115
  974MOL0     H28506   4.680   1.776   6.326  0.9455 -1.0055  0.8872
  974MOL0     H28507   4.517   1.559   6.270 -2.1654 -0.2752  0.3717
  974MOL0     H28508   4.449   1.719   6.244 -1.0144  0.0356 -0.4341
  974MOL0     H28509   4.356   1.683   6.490 -1.3598 -0.8896  1.4795
  974MOL0     H28510   4.417   1.514   6.473  0.3636 -0.0047 -0.0959
  974MOL0     H28511   4.256   1.626   6.240 -1.5075 -0.5858 -0.3459
  974MOL0     H28512   4.247   1.469   6.328  1.9469 -0.0972 -1.5121
  974MOL0     H28513   4.042   1.589   6.323 -0.7531  0.6283  0.7990
  974MOL0     H28514   4.107   1.714   6.418  0.9277  0.3370 -1.1720
  974MOL0     H28515   4.177   1.545   6.597  0.5875 -0.9194 -1.7234
  974MOL0     H28516   4.096   1.418   6.507  0.7480 -0.7151  1.3640
  974MOL0     H28517   3.882   1.542   6.526 -0.6290 -3.5979 -0.6262
  974MOL0     H28518   3.940   1.496   6.687  1.1239 -1.5456 -2.1523
  974MOL0     H28519   3.854   1.699   6.691 -0.1344 -0.9555 -1.1306
  974MOL0     H28520   3.953   1.772   6.568 -2.5356  2.5106  1.4112
  974MOL0     H28521   4.206   1.876   6.637  2.0037 -0.5938  0.5376
  974MOL0     H28522   4.435   1.869   6.752 -1.1991  0.4237 -0.2305
  974MOL0     H28523   4.417   1.793   6.910  2.1052  0.4265 -0.4562
  974MOL0     H28524   4.492   2.034   6.926 -0.2839 -0.5235  0.6845
  974MOL0     H28525   4.337   2.003   7.017 -0.7057  0.3097  0.7774
  974MOL0     H28526   4.372   2.133   6.744 -0.0649 -0.9773  0.1833
  974MOL0     H28527   4.216   2.084   6.797  0.6095 -0.1901  0.5828
  974MOL0     H28528   4.404   2.308   6.921 -0.7538  1.3182  2.0286
  974MOL0     H28529   4.263   2.249   7.001 -1.6587  2.3196  0.1722
  974MOL0     H28530   4.058   2.497   6.729  1.4133 -0.6002  0.1464
  974MOL0     H28531   3.992   2.725   6.810 -0.1376 -0.3401  0.1254
  974MOL0     H28532   4.086   2.952   7.372  1.3091 -0.1603 -0.5329
  974MOL0     H28533   4.047   3.176   7.460  3.0513  0.9020  0.7238
  974MOL0     H28534   4.187   3.558   7.242  1.4132  0.6211  1.3032
  974MOL0     H28535   4.312   3.440   7.309  0.2427 -0.0115  1.8358
  974MOL0     H28536   4.346   3.643   7.430  0.2434  0.4868 -0.3855
  974MOL0     H28537   4.265   3.530   7.533 -3.1738 -1.1684 -0.1475
  974MOL0     H28538   4.036   3.631   7.473  0.9640  0.0827  1.2045
  974MOL0     H28539   4.122   3.753   7.377  0.6774 -0.0403  0.1017
  974MOL0     H28540   4.217   3.715   7.670 -0.5941 -1.3328 -0.7108
  974MOL0     H28541   4.249   3.834   7.558  0.0404 -1.2484  0.1164
  974MOL0     H28542   4.071   3.866   7.758  0.8888 -0.1437  0.9739
  974MOL0     H28543   3.956   3.768   7.672  1.2075 -1.5804  3.5492
  974MOL0     H28544   3.981   3.963   7.474 -1.7601 -0.2549  0.7485
  974MOL0     H28545   4.111   4.028   7.558 -1.2274  2.4066 -1.0340
  974MOL0     H28546   3.916   4.035   7.748 -0.9083 -1.8421 -0.7755
  974MOL0     H28547   3.924   4.162   7.615  1.0508  0.9249  1.3013
  974MOL0     H28548   3.747   3.898   7.638  0.7757 -0.5813 -2.1037
  974MOL0     H28549   3.769   4.005   7.496 -0.7720 -3.1230  0.1535
  974MOL0     H28550   4.200   3.344   7.099  1.8944 -1.0725  0.1834
  974MOL0     H28551   4.227   3.122   7.009  3.5469 -0.8587  1.4129
  974MOL0     H28552   4.289   2.681   7.120  3.5613 -1.1608 -0.4352
  974MOL0     H28553   4.346   2.473   7.041  1.7958 -1.5408 -1.2499
  974MOL0     H28554   4.781   1.752   6.627  2.4524  0.3689 -2.9259
  974MOL0     H28555   4.953   1.933   6.696  0.0018  0.5022  2.2218
  974MOL0     H28556   5.199   2.137   6.961  1.5433  1.4407  0.3406
  974MOL0     H28557   5.368   2.295   7.037 -0.8358  3.4839  3.6712
  974MOL0     H28558   5.308   2.720   6.921  0.1657 -2.7454  2.5717
  974MOL0     H28559   5.396   2.683   6.785 -3.0358 -0.2705 -0.2064
  974MOL0     H28560   5.530   2.782   7.040 -2.1179  0.2412 -0.4378
  974MOL0     H28561   5.620   2.673   6.948 -0.0344  0.7465 -1.0307
  974MOL0     H28562   5.493   2.940   6.861 -2.7296 -1.1786 -3.3320
  974MOL0     H28563   5.547   2.839   6.742  1.8898  0.2378  0.2664
  974MOL0     H28564   5.729   2.949   6.966  1.6915  1.4822 -2.0581
  974MOL0     H28565   5.762   2.813   6.849  2.7682  1.1196 -1.9524
  974MOL0     H28566   5.843   3.136   6.601  1.4708 -3.1676 -1.4022
  974MOL0     H28567   5.191   2.586   6.765  0.4532 -1.2539 -0.9486
  974MOL0     H28568   5.010   2.447   6.720 -0.4638  1.1488  2.8639
  975MOL0     O28569   3.400   0.029   7.869 -0.5019 -0.0897 -0.0622
  975MOL0     C28570   3.501  -0.041   7.857 -0.0581 -0.0215  0.6787
  975MOL0     O28571   3.500  -0.177   7.826 -0.4313  0.1088 -0.7088
  975MOL0     C28572   3.394  -0.256   7.837  0.3963  0.3042 -0.0506
  975MOL0     C28573   3.297  -0.248   7.942  0.1394  0.9748  0.2564
  975MOL0     C28574   3.193  -0.334   7.944  0.4256 -0.0471 -0.4344
  975MOL0     C28575   3.181  -0.440   7.848  0.1014 -0.1200 -0.2160
  975MOL0     O28576   3.063  -0.506   7.844 -0.0298  0.9455 -0.1158
  975MOL0     C28577   3.031  -0.568   7.713 -0.3552 -0.1261  0.0217
  975MOL0     C28578   2.886  -0.598   7.702  0.5661 -0.4066 -0.1975
  975MOL0     C28579   2.831  -0.727   7.772  0.1209  0.4745  0.3196
  975MOL0     C28580   2.689  -0.745   7.727 -0.5127 -0.2567  0.6633
  975MOL0     C28581   2.577  -0.686   7.825 -0.5689  0.5038 -1.2794
  975MOL0     C28582   2.437  -0.744   7.800  0.7140  0.7974 -1.6286
  975MOL0     C28583   2.393  -0.862   7.898  0.4157  0.2775  0.3553
  975MOL0     C28584   2.346  -0.980   7.819 -0.6519  0.1313 -0.1578
  975MOL0     N28585   2.334  -1.102   7.900 -1.1336  0.3398 -0.1157
  975MOL0     C28586   2.224  -1.148   7.969  0.0166 -0.1667  0.1121
  975MOL0     C28587   2.243  -1.276   8.010  0.9089  0.0755  0.0748
  975MOL0     C28588   2.132  -1.359   8.076 -0.1911 -0.2232  0.6308
  975MOL0     C28589   1.993  -1.358   8.018  0.0221 -0.5180  0.9303
  975MOL0     C28590   1.981  -1.370   7.871  0.3010  0.1480  0.2969
  975MOL0     C28591   1.851  -1.303   7.824 -0.4346 -0.0004  0.2385
  975MOL0     O28592   1.835  -1.169   7.871  0.1837  0.2418  0.3842
  975MOL0     C28593   1.898  -1.075   7.793 -0.6271  0.3866 -0.1799
  975MOL0     C28594   1.922  -0.957   7.861 -0.6427 -0.7805  0.5944
  975MOL0     C28595   1.975  -0.844   7.799  0.4608  0.1224 -0.5463
  975MOL0     C28596   2.031  -0.839   7.669  1.0228  0.0308 -0.3697
  975MOL0     C28597   2.095  -0.725   7.603  0.2561 -0.1055  0.2631
  975MOL0     O28598   2.122  -0.737   7.471 -0.0700 -0.5448  0.4333
  975MOL0     C28599   2.178  -0.628   7.416 -0.5427 -0.4072  0.4757
  975MOL0     C28600   2.290  -0.544   7.459  1.1384  0.8334  1.0014
  975MOL0     C28601   2.334  -0.443   7.377 -0.7255 -1.1796 -1.0584
  975MOL0     C28602   2.286  -0.423   7.247  0.1090 -0.0913 -0.9339
  975MOL0     O28603   2.324  -0.316   7.170  0.2275  0.4842  0.2798
  975MOL0     C28604   2.274  -0.309   7.033  1.3395 -0.7942  0.3454
  975MOL0     C28605   2.321  -0.186   6.948 -0.0430 -0.0270 -0.4273
  975MOL0     C28606   2.285  -0.202   6.799 -0.0800 -0.1906 -0.9849
  975MOL0     C28607   2.342  -0.094   6.706  0.6397  0.3365  0.2348
  975MOL0     C28608   2.399  -0.145   6.582 -0.5840 -0.1859 -0.2092
  975MOL0     C28609   2.303  -0.212   6.489 -0.0152 -0.2386  0.2743
  975MOL0     C28610   2.368  -0.248   6.350  0.5458 -0.2954 -0.2877
  975MOL0     C28611   2.263  -0.319   6.263 -0.4182  0.3490  0.2697
  975MOL0    Cl28612   2.269  -0.497   6.290  0.2112 -0.0948  0.1783
  975MOL0     C28613   2.193  -0.520   7.198  0.3763  0.1451 -0.5504
  975MOL0     C28614   2.142  -0.618   7.286  0.7314  0.2094  0.7258
  975MOL0     O28615   2.111  -0.626   7.667 -0.4127 -0.1535  0.1361
  975MOL0     C28616   2.017  -0.967   7.601 -0.0207 -0.7459 -0.0030
  975MOL0     C28617   1.947  -1.070   7.658  0.3984  0.2205 -0.3102
  975MOL0     N28618   2.366  -1.315   7.952 -0.5312 -0.8664  0.0945
  975MOL0     N28619   2.415  -1.214   7.882  0.9519  1.7345 -1.1029
  975MOL0     C28620   3.287  -0.458   7.756  1.4183  0.6688 -0.1876
  975MOL0     C28621   3.390  -0.364   7.746  0.1175 -0.6608  0.0490
  975MOL0     C28622   3.631   0.036   7.870 -0.6747 -0.3129  0.4062
  975MOL0     C28623   3.631   0.177   7.892 -0.3745 -0.0806 -0.4798
  975MOL0     C28624   3.748   0.249   7.908  0.1706  0.0540 -0.4273
  975MOL0     C28625   3.878   0.194   7.889 -0.0767 -0.1645  0.7170
  975MOL0     O28626   3.995   0.266   7.876  0.5415 -1.0655 -0.7380
  975MOL0     C28627   4.022   0.330   8.003  0.5231  0.2574 -0.1055
  975MOL0     C28628   4.089   0.233   8.112  0.2128  0.0472  0.1155
  975MOL0     C28629   4.074   0.288   8.252 -0.6023  0.0033  1.1111
  975MOL0     C28630   4.172   0.207   8.343 -0.1702 -0.0821 -0.4818
  975MOL0     C28631   4.316   0.241   8.325  0.4483  0.2416  0.0677
  975MOL0     C28632   4.433   0.270   8.300  0.8940 -1.3093  0.5959
  975MOL0     C28633   3.878   0.055   7.866 -0.3546  0.9075 -0.0667
  975MOL0     C28634   3.759  -0.019   7.854  1.1642  1.3606  0.5493
  975MOL0     H28635   3.299  -0.165   8.012  4.0704  1.5745 -0.3516
  975MOL0     H28636   3.120  -0.323   8.023  2.8827  5.8999  1.5769
  975MOL0     H28637   3.080  -0.665   7.698 -0.2992 -0.0802 -0.0859
  975MOL0     H28638   3.057  -0.509   7.625  1.2078  0.0445  0.5642
  975MOL0     H28639   2.863  -0.605   7.596 -0.2413 -1.5842  0.0324
  975MOL0     H28640   2.816  -0.519   7.734 -1.1114 -1.9797  0.1768
  975MOL0     H28641   2.831  -0.722   7.882 -1.4557 -0.5059  0.4021
  975MOL0     H28642   2.902  -0.807   7.750  2.8958  3.0853 -0.9035
  975MOL0     H28643   2.670  -0.694   7.631 -0.0227 -0.2896  0.5451
  975MOL0     H28644   2.677  -0.853   7.715 -0.4781 -0.1510 -0.4603
  975MOL0     H28645   2.590  -0.579   7.811  2.2981  0.3330 -0.6612
  975MOL0     H28646   2.604  -0.716   7.927  1.8930  1.1071 -1.6850
  975MOL0     H28647   2.426  -0.778   7.697 -0.4485 -1.0620 -0.9507
  975MOL0     H28648   2.362  -0.666   7.813  1.7206  1.6143 -0.4916
  975MOL0     H28649   2.485  -0.883   7.954  2.9274  2.0214 -2.8083
  975MOL0     H28650   2.306  -0.831   7.958 -1.8674  1.7062 -3.3503
  975MOL0     H28651   2.432  -0.994   7.753  1.1447 -1.4251  2.3273
  975MOL0     H28652   2.253  -0.963   7.764  0.3081 -1.1065 -2.2613
  975MOL0     H28653   2.134  -1.096   7.998  0.3366 -0.3763  1.5900
  975MOL0     H28654   2.124  -1.328   8.181  2.5299 -0.7654  1.0551
  975MOL0     H28655   2.161  -1.464   8.072  0.4101 -0.0905  1.2420
  975MOL0     H28656   1.949  -1.264   8.054  1.0743 -1.2994  4.6426
  975MOL0     H28657   1.935  -1.439   8.064  1.2270 -1.0447  1.5484
  975MOL0     H28658   2.061  -1.320   7.815 -2.3220  2.9956 -1.2024
  975MOL0     H28659   1.992  -1.477   7.852  1.2756  0.3615 -0.4353
  975MOL0     H28660   1.779  -1.375   7.862  2.7942 -2.1260  2.9885
  975MOL0     H28661   1.846  -1.317   7.716  0.1205 -0.0497  0.2137
  975MOL0     H28662   1.900  -0.958   7.967  2.8967 -2.8855  1.4618
  975MOL0     H28663   1.974  -0.746   7.845  2.9411  0.0705 -0.2410
  975MOL0     H28664   2.341  -0.568   7.552  2.9341  0.3339 -0.0490
  975MOL0     H28665   2.413  -0.376   7.409 -1.1564 -0.9510 -0.4395
  975MOL0     H28666   2.165  -0.305   7.034  1.2580 -1.9393 -1.0504
  975MOL0     H28667   2.310  -0.393   6.974  2.7456  1.8740 -2.9575
  975MOL0     H28668   2.429  -0.187   6.968 -0.0315 -0.8009 -0.4757
  975MOL0     H28669   2.281  -0.094   6.990  3.4184  1.3108  0.3064
  975MOL0     H28670   2.176  -0.189   6.796  0.1733  4.6564  1.6213
  975MOL0     H28671   2.316  -0.300   6.762  1.6640 -1.9366  4.2581
  975MOL0     H28672   2.268  -0.022   6.668  1.8741 -0.4122 -4.1454
  975MOL0     H28673   2.414  -0.036   6.764 -0.9850  0.6108  2.1022
  975MOL0     H28674   2.482  -0.212   6.604  1.4836  1.8600 -1.3181
  975MOL0     H28675   2.442  -0.060   6.528 -1.2207 -0.0783 -0.5589
  975MOL0     H28676   2.221  -0.139   6.485  0.0526 -0.1945 -0.4210
  975MOL0     H28677   2.258  -0.294   6.546 -0.2123 -0.2617  0.0849
  975MOL0     H28678   2.412  -0.163   6.296  1.2592 -0.8774 -0.6421
  975MOL0     H28679   2.463  -0.302   6.357 -0.9015 -2.7280  4.5999
  975MOL0     H28680   2.303  -0.308   6.162  0.2524  0.5349  0.5504
  975MOL0     H28681   2.165  -0.272   6.271  0.3273  2.1178 -0.5484
  975MOL0     H28682   2.151  -0.528   7.098 -0.8282  1.4661 -0.1953
  975MOL0     H28683   2.082  -0.701   7.251  1.6467 -0.4469  0.6706
  975MOL0     H28684   2.055  -0.969   7.500  0.7370  2.0914  0.1327
  975MOL0     H28685   1.945  -1.156   7.592  3.5852 -0.4880  0.3634
  975MOL0     H28686   3.287  -0.547   7.694 -1.1943  1.8412 -2.1041
  975MOL0     H28687   3.471  -0.366   7.673  0.1430 -0.3700  0.0695
  975MOL0     H28688   3.543   0.237   7.873  0.2849  0.6102 -1.5188
  975MOL0     H28689   3.745   0.356   7.929  1.6883 -0.3801  2.5133
  975MOL0     H28690   3.932   0.369   8.050  0.7638 -0.1695  0.7362
  975MOL0     H28691   4.087   0.417   7.985 -1.0882  1.1238 -2.1197
  975MOL0     H28692   4.046   0.133   8.111  0.9899 -0.3188 -1.7039
  975MOL0     H28693   4.195   0.227   8.084  0.5425  1.4496  0.9262
  975MOL0     H28694   3.971   0.264   8.279 -0.1887 -1.7325  1.2202
  975MOL0     H28695   4.102   0.394   8.263 -0.2502  0.0164  0.1537
  975MOL0     H28696   4.145   0.234   8.446 -2.5761 -1.5386 -0.6466
  975MOL0     H28697   4.145   0.102   8.330 -1.7565  0.2179  0.1369
  975MOL0     H28698   4.539   0.282   8.290  0.8241  0.0425  1.2887
  975MOL0     H28699   3.973   0.004   7.855  0.7197  1.8413  3.5582
  975MOL0     H28700   3.750  -0.121   7.820 -1.3717  1.5571  0.4787
  976MOL0     O28701   7.630   2.294   7.469 -0.0031  0.5146 -0.0895
  976MOL0     C28702   7.535   2.358   7.450 -0.7106 -0.1125  0.8759
  976MOL0     O28703   7.524   2.454   7.359 -0.6164 -0.5704  0.1087
  976MOL0     C28704   7.604   2.478   7.250  0.2697  0.8048 -0.0909
  976MOL0     C28705   7.737   2.469   7.248 -0.3119  0.4277 -0.1709
  976MOL0     C28706   7.816   2.514   7.143 -0.3583  1.0295 -0.0934
  976MOL0     C28707   7.751   2.551   7.029 -0.5200 -0.0082  0.3836
  976MOL0     O28708   7.813   2.586   6.911 -0.1417 -0.7140 -0.5296
  976MOL0     C28709   7.960   2.599   6.903  0.9842  0.0201 -0.9904
  976MOL0     C28710   7.980   2.678   6.784  0.5151  0.6556  0.1997
  976MOL0     C28711   7.911   2.807   6.782 -0.4798  0.5077  0.9073
  976MOL0     C28712   7.952   2.882   6.655 -0.0956  0.3336 -0.2486
  976MOL0     C28713   8.097   2.954   6.665  0.0295  0.2090 -0.3196
  976MOL0     C28714   8.094   3.092   6.599  0.8715  0.3093  0.0745
  976MOL0     C28715   8.078   3.079   6.452 -0.4113 -1.1464  0.9106
  976MOL0     C28716   8.221   3.056   6.402  0.2157 -0.7107  0.5456
  976MOL0     N28717   8.233   3.008   6.261 -0.2538 -0.5343 -0.5489
  976MOL0     C28718   8.144   2.999   6.164 -0.1843 -0.1363  0.3661
  976MOL0     C28719   8.203   2.920   6.066 -0.7932 -0.2974 -0.1398
  976MOL0     C28720   8.156   2.885   5.920 -1.0009 -0.1064 -1.0490
  976MOL0     C28721   8.127   3.018   5.853  0.6898 -0.0881 -0.2763
  976MOL0     C28722   8.001   3.095   5.899  0.8400 -0.0298  0.2606
  976MOL0     C28723   7.871   3.016   5.892  0.2460  0.1930  0.2006
  976MOL0     O28724   7.841   2.938   6.006  0.5674 -0.7472  0.1123
  976MOL0     C28725   7.803   3.007   6.127  0.3275  0.0402 -0.0518
  976MOL0     C28726   7.779   3.152   6.152  0.2595  0.7153 -0.1389
  976MOL0     C28727   7.742   3.196   6.282  1.0142  0.9973  1.2431
  976MOL0     C28728   7.729   3.110   6.393  0.2108  0.5655 -0.1105
  976MOL0     C28729   7.705   3.165   6.527 -0.1324 -0.6265  0.7470
  976MOL0     O28730   7.770   3.283   6.551 -0.2870  0.2226 -0.2483
  976MOL0     C28731   7.746   3.354   6.670 -0.1841  0.2458  0.8319
  976MOL0     C28732   7.737   3.495   6.669 -0.1555 -0.7577 -0.8136
  976MOL0     C28733   7.724   3.565   6.788  0.7199  0.5726 -0.7714
  976MOL0     C28734   7.716   3.499   6.915  0.5529 -0.0728  0.3919
  976MOL0     O28735   7.685   3.560   7.028 -0.4924  0.3927  0.1237
  976MOL0     C28736   7.791   3.568   7.116 -0.5915  0.4954 -0.4289
  976MOL0     C28737   7.812   3.712   7.179  0.1950  0.0882  0.2420
  976MOL0     C28738   7.697   3.756   7.274 -0.3543 -0.4566  0.7249
  976MOL0     C28739   7.733   3.868   7.373 -0.1826 -0.0080 -0.5168
  976MOL0     C28740   7.610   3.923   7.450 -0.0455  0.4043 -1.3307
  976MOL0     C28741   7.550   4.041   7.380  0.1076  0.6728  0.0702
  976MOL0     C28742   7.631   4.165   7.381 -0.0194  0.2099 -0.0271
  976MOL0     C28743   7.601   4.259   7.264  0.7013  0.7022  0.1179
  976MOL0    Cl28744   7.439   4.326   7.274  0.1005  0.0267  0.3891
  976MOL0     C28745   7.723   3.358   6.914  0.0950 -0.1906  0.4333
  976MOL0     C28746   7.750   3.290   6.791  0.2519  1.1779  0.1973
  976MOL0     O28747   7.621   3.111   6.600 -0.1405  0.3678  0.2914
  976MOL0     C28748   7.759   2.970   6.368  0.4214 -0.0948 -0.0521
  976MOL0     C28749   7.792   2.923   6.237 -1.1474  0.8774 -0.1999
  976MOL0     N28750   8.327   2.890   6.103 -0.6002  0.0692  0.6869
  976MOL0     N28751   8.344   2.943   6.221  0.0099 -0.3717 -0.4160
  976MOL0     C28752   7.615   2.545   7.026  0.4388 -0.1497 -0.1998
  976MOL0     C28753   7.537   2.519   7.135 -0.5412 -0.1714 -0.8869
  976MOL0     C28754   7.430   2.334   7.554 -0.1853 -0.6564  0.0923
  976MOL0     C28755   7.297   2.345   7.522  0.3605 -0.0451 -0.1570
  976MOL0     C28756   7.203   2.316   7.629 -0.6788  0.2286  1.0202
  976MOL0     C28757   7.247   2.262   7.750 -0.2130 -0.4925  0.2882
  976MOL0     O28758   7.183   2.215   7.856 -0.4909 -0.3913 -0.4402
  976MOL0     C28759   7.059   2.153   7.848 -0.1592 -0.6201 -0.1220
  976MOL0     C28760   7.082   2.004   7.813  0.6402  0.0082  1.2746
  976MOL0     C28761   7.200   1.931   7.863 -0.3240  0.5115 -0.6119
  976MOL0     C28762   7.217   1.943   8.013  0.1045 -0.1317  0.0639
  976MOL0     C28763   7.315   1.846   8.065 -0.0246 -0.6432 -0.4594
  976MOL0     C28764   7.385   1.761   8.110  0.3355 -1.0839 -0.2738
  976MOL0     C28765   7.383   2.256   7.773 -0.5750 -0.3250 -0.4395
  976MOL0     C28766   7.470   2.291   7.677 -0.0629  0.4334 -0.0892
  976MOL0     H28767   7.771   2.430   7.343 -1.8578  1.4935  0.8492
  976MOL0     H28768   7.924   2.508   7.150 -0.4613  0.5263  1.4956
  976MOL0     H28769   7.993   2.496   6.887 -1.8586 -0.9362 -1.2804
  976MOL0     H28770   8.013   2.632   6.993 -2.0632 -2.7321  2.1123
  976MOL0     H28771   7.941   2.615   6.703  1.5642 -1.4501  1.2469
  976MOL0     H28772   8.087   2.685   6.763 -0.2694  2.8344 -4.2612
  976MOL0     H28773   7.944   2.874   6.861  1.3539  0.8360 -0.0854
  976MOL0     H28774   7.801   2.803   6.789 -0.4243 -0.5160  1.4239
  976MOL0     H28775   7.942   2.818   6.567  3.3857  2.4541 -2.4506
  976MOL0     H28776   7.867   2.950   6.640  2.4580  3.2374 -3.0178
  976MOL0     H28777   8.179   2.894   6.625  3.2538  3.0347  1.5499
  976MOL0     H28778   8.126   2.970   6.769  0.3586 -1.6911 -0.0900
  976MOL0     H28779   8.180   3.155   6.622  0.5393 -0.3059  3.4278
  976MOL0     H28780   8.011   3.145   6.646  0.7501 -1.6355  2.2405
  976MOL0     H28781   8.027   2.986   6.423 -0.5514 -0.2928 -1.9098
  976MOL0     H28782   8.019   3.162   6.412  1.4554  0.1172  0.6581
  976MOL0     H28783   8.265   2.986   6.473 -2.0769 -0.3619  2.4484
  976MOL0     H28784   8.271   3.154   6.402 -1.7119  0.4515 -2.9012
  976MOL0     H28785   8.051   3.055   6.172  1.1648  2.4250 -0.5547
  976MOL0     H28786   8.067   2.823   5.911  0.3903 -2.9854  2.4729
  976MOL0     H28787   8.242   2.836   5.873 -0.5755  2.8018 -3.6165
  976MOL0     H28788   8.125   3.003   5.744  3.3076 -2.5499 -0.1227
  976MOL0     H28789   8.206   3.089   5.879  0.7599  0.4514 -1.8247
  976MOL0     H28790   8.015   3.140   5.998  0.3224 -0.1978  0.4106
  976MOL0     H28791   8.009   3.167   5.818  1.4244 -1.9663 -1.4807
  976MOL0     H28792   7.869   2.943   5.810  0.3254 -0.5265  0.8305
  976MOL0     H28793   7.791   3.089   5.875  2.7774  3.6817  2.1553
  976MOL0     H28794   7.806   3.227   6.078  0.1444  2.6465  1.6863
  976MOL0     H28795   7.722   3.302   6.287 -3.1470  0.5447 -1.2852
  976MOL0     H28796   7.748   3.538   6.571 -3.3317 -0.4910 -1.1626
  976MOL0     H28797   7.733   3.673   6.798 -1.8458  0.9873 -2.0070
  976MOL0     H28798   7.881   3.552   7.056  0.2716  3.4015 -0.1003
  976MOL0     H28799   7.789   3.488   7.190 -0.2080  0.1483 -0.7931
  976MOL0     H28800   7.833   3.786   7.101  1.3023  1.0551  1.4191
  976MOL0     H28801   7.896   3.712   7.250 -1.0121  0.9614  1.7171
  976MOL0     H28802   7.656   3.673   7.332 -3.3774 -0.3329 -1.0331
  976MOL0     H28803   7.621   3.800   7.209  1.6012 -0.5709 -1.8342
  976MOL0     H28804   7.791   3.828   7.456 -2.8094  1.9874  2.5065
  976MOL0     H28805   7.804   3.940   7.331  2.5289 -0.2815  3.1809
  976MOL0     H28806   7.658   3.941   7.547  1.6966  1.8678 -2.4023
  976MOL0     H28807   7.531   3.847   7.458  0.8655 -0.4894 -0.3657
  976MOL0     H28808   7.461   4.064   7.441  0.1377 -1.3769  0.9636
  976MOL0     H28809   7.515   4.009   7.281 -1.3455  1.0986  0.4196
  976MOL0     H28810   7.607   4.226   7.468  0.7471  3.1859 -1.7429
  976MOL0     H28811   7.739   4.150   7.370  0.3881  2.0650  0.9742
  976MOL0     H28812   7.606   4.202   7.171 -2.3407 -0.6895  0.6775
  976MOL0     H28813   7.677   4.338   7.266  1.3567  0.1601  3.7114
  976MOL0     H28814   7.731   3.300   7.005 -1.1807 -1.9624 -0.5263
  976MOL0     H28815   7.800   3.194   6.791  4.3260  2.8583  4.6056
  976MOL0     H28816   7.763   2.902   6.452  1.1494 -0.8613 -0.6942
  976MOL0     H28817   7.810   2.818   6.215 -1.7275  0.2863  1.9349
  976MOL0     H28818   7.571   2.579   6.933  0.4720  1.2464  0.2645
  976MOL0     H28819   7.430   2.536   7.147 -0.3845 -0.2810  1.0203
  976MOL0     H28820   7.260   2.382   7.427 -0.6334 -1.4047 -0.3362
  976MOL0     H28821   7.097   2.327   7.611 -0.3525 -0.7021 -2.0887
  976MOL0     H28822   6.989   2.200   7.779 -0.0333  0.6020  0.5633
  976MOL0     H28823   7.010   2.161   7.945 -0.9640  0.9131 -0.6240
  976MOL0     H28824   7.002   1.936   7.845  0.8260 -1.3782 -0.9669
  976MOL0     H28825   7.078   2.002   7.703 -1.4116  1.5822  1.2494
  976MOL0     H28826   7.286   1.953   7.799  0.2245 -2.3198 -0.9742
  976MOL0     H28827   7.189   1.822   7.858  1.6507  0.0190  2.8366
  976MOL0     H28828   7.251   2.046   8.028 -0.2992 -0.1905  1.5083
  976MOL0     H28829   7.128   1.920   8.072  0.3390  0.3972  0.6263
  976MOL0     H28830   7.456   1.685   8.134  1.6710 -0.0479 -0.8125
  976MOL0     H28831   7.425   2.225   7.868  0.2166  1.8706 -0.0328
  976MOL0     H28832   7.575   2.300   7.703 -0.0271  2.8707 -0.7490
  977MOL0     O28833   4.627  11.188   6.974  0.6945  0.8625 -0.0255
  977MOL0     C28834   4.661  11.076   6.936 -0.0944  0.3459  0.7316
  977MOL0     O28835   4.593  11.000   6.834 -0.1467  0.7176 -0.4530
  977MOL0     C28836   4.502  11.075   6.764 -0.1900 -0.1104  0.6823
  977MOL0     C28837   4.545  11.121   6.640  0.4433 -0.8452  0.8663
  977MOL0     C28838   4.449  11.186   6.561 -0.1419  0.0209 -0.0932
  977MOL0     C28839   4.313  11.200   6.598  0.5708  0.5179  0.6623
  977MOL0     O28840   4.204  11.229   6.516  0.2143 -0.6598  0.1865
  977MOL0     C28841   4.220  11.349   6.432 -0.1645  0.4254 -0.5943
  977MOL0     C28842   4.142  11.471   6.484 -0.6844  0.6834 -0.4918
  977MOL0     C28843   4.006  11.432   6.548  0.0556 -0.2728 -0.4617
  977MOL0     C28844   3.917  11.551   6.600 -0.6428  0.7613  0.0793
  977MOL0     C28845   3.996  11.686   6.606  1.1735 -0.9736 -0.2328
  977MOL0     C28846   3.903  11.791   6.644 -0.1368 -0.3473 -0.3767
  977MOL0     C28847   3.966  11.934   6.664  0.3142 -0.4542 -0.1185
  977MOL0     C28848   3.875  12.036   6.742  0.1450  0.2040  0.0056
  977MOL0     N28849   3.740  12.053   6.702  1.5731 -0.5706  0.5422
  977MOL0     C28850   3.644  11.951   6.724  0.1115  0.3894 -0.3511
  977MOL0     C28851   3.540  11.991   6.645 -0.2379  0.3056 -0.6254
  977MOL0     C28852   3.407  11.923   6.625 -0.6593  0.2917  0.2295
  977MOL0     C28853   3.368  11.823   6.732  0.1657 -0.0320 -0.4072
  977MOL0     C28854   3.218  11.811   6.771 -0.1007 -0.3103 -0.9708
  977MOL0     C28855   3.128  11.756   6.665 -0.0270  0.0106  0.3021
  977MOL0     O28856   3.135  11.839   6.541  0.4406 -0.1026 -0.1642
  977MOL0     C28857   3.059  11.804   6.431  0.4974 -0.5212  0.2261
  977MOL0     C28858   3.023  11.671   6.404  0.1842  0.3327 -0.6572
  977MOL0     C28859   2.936  11.645   6.297  0.4040 -0.1410 -0.5441
  977MOL0     C28860   2.879  11.751   6.216 -0.1814 -0.0926  0.0007
  977MOL0     C28861   2.767  11.717   6.122 -0.6003 -0.7512 -0.2662
  977MOL0     O28862   2.762  11.775   5.998  0.1838 -0.4065 -0.7111
  977MOL0     C28863   2.648  11.759   5.932  0.4526 -0.1252 -0.6844
  977MOL0     C28864   2.531  11.828   5.947 -0.5679  0.8128 -0.1261
  977MOL0     C28865   2.418  11.794   5.868 -0.5649  0.6744  0.3096
  977MOL0     C28866   2.416  11.693   5.769 -0.4801  0.4689 -0.2014
  977MOL0     O28867   2.303  11.665   5.703  0.0774  0.5363  0.1521
  977MOL0     C28868   2.210  11.781   5.669 -0.7680  0.5107  0.0718
  977MOL0     C28869   2.077  11.739   5.725 -0.6686 -0.0240  0.4731
  977MOL0     C28870   1.985  11.851   5.695  0.8372 -0.4020 -0.0108
  977MOL0     C28871   1.848  11.840   5.777  0.2008  1.3108 -0.5262
  977MOL0     C28872   1.752  11.742   5.708  0.0011  0.2841 -0.1215
  977MOL0     C28873   1.619  11.740   5.780  0.1941 -0.3139  0.1410
  977MOL0     C28874   1.525  11.625   5.727 -0.2580 -0.0383 -0.1048
  977MOL0     C28875   1.516  11.512   5.830 -0.5532  0.3065 -0.0983
  977MOL0    Cl28876   1.479  11.581   5.981 -0.1610 -0.1347  0.0437
  977MOL0     C28877   2.539  11.626   5.760 -0.2441  0.1035  1.2568
  977MOL0     C28878   2.652  11.661   5.838 -0.1347  0.1700  0.5875
  977MOL0     O28879   2.710  11.612   6.145  0.9030 -0.4244 -0.6097
  977MOL0     C28880   2.928  11.881   6.240  0.0307 -0.3744  0.6560
  977MOL0     C28881   3.018  11.909   6.347  0.4594 -0.9209  0.1410
  977MOL0     N28882   3.580  12.101   6.572  0.2451  1.3015  0.3528
  977MOL0     N28883   3.696  12.139   6.603  0.1636  0.4723 -0.0528
  977MOL0     C28884   4.284  11.143   6.716 -0.5708 -0.1659 -0.3103
  977MOL0     C28885   4.375  11.095   6.806  0.6205 -0.5636 -0.0319
  977MOL0     C28886   4.775  11.017   7.004 -0.4058 -0.4177 -0.4603
  977MOL0     C28887   4.831  11.071   7.131  0.6140 -0.0435 -0.1133
  977MOL0     C28888   4.950  11.024   7.179  0.6416 -0.1554 -0.8276
  977MOL0     C28889   5.014  10.921   7.115 -0.0406 -0.5358 -0.6005
  977MOL0     O28890   5.132  10.875   7.166 -0.8403  0.0769 -0.2429
  977MOL0     C28891   5.235  10.806   7.082 -0.2220  0.6073  0.2858
  977MOL0     C28892   5.287  10.895   6.972  0.0016 -0.2360 -0.8124
  977MOL0     C28893   5.388  10.996   7.024 -1.1238  0.4724 -0.1478
  977MOL0     C28894   5.452  11.080   6.919 -0.7173  1.3510  0.7872
  977MOL0     C28895   5.562  11.151   6.978 -0.2384  0.8447 -0.0996
  977MOL0     C28896   5.664  11.196   7.022  0.1817  1.0986 -0.7126
  977MOL0     C28897   4.961  10.863   6.998  0.0737 -0.5473  0.0820
  977MOL0     C28898   4.843  10.912   6.937  1.0278 -0.3185 -0.4217
  977MOL0     H28899   4.641  11.097   6.596  0.9638  3.0563 -0.5413
  977MOL0     H28900   4.479  11.233   6.468  0.0744  1.2664  0.5839
  977MOL0     H28901   4.158  11.329   6.344 -0.0162 -2.3301 -0.1524
  977MOL0     H28902   4.323  11.363   6.399 -0.3204  2.4568 -0.3327
  977MOL0     H28903   4.127  11.550   6.410 -1.8452  1.6561  0.7285
  977MOL0     H28904   4.191  11.518   6.569 -1.6548 -1.1639  1.1692
  977MOL0     H28905   4.035  11.372   6.635  0.7413  1.0935  0.2753
  977MOL0     H28906   3.964  11.364   6.473 -0.0078  2.6065 -3.2617
  977MOL0     H28907   3.847  11.557   6.516  1.6982  2.8105 -1.8769
  977MOL0     H28908   3.865  11.539   6.696 -2.2895  0.0185 -0.8713
  977MOL0     H28909   4.039  11.703   6.506 -0.6576 -1.6635 -1.1823
  977MOL0     H28910   4.075  11.676   6.681  1.7575  0.8005 -0.5646
  977MOL0     H28911   3.852  11.757   6.735 -0.6067  1.2637 -0.0076
  977MOL0     H28912   3.825  11.805   6.569 -0.6043 -1.6495 -0.1740
  977MOL0     H28913   4.060  11.918   6.718  0.3263 -1.6727 -0.4910
  977MOL0     H28914   3.992  11.980   6.568 -1.1419  3.7878  1.2846
  977MOL0     H28915   3.924  12.134   6.741 -1.2158  0.9233 -1.8708
  977MOL0     H28916   3.876  12.007   6.847  1.2098  3.6198  1.0369
  977MOL0     H28917   3.653  11.867   6.793  1.9565  2.8043  2.6386
  977MOL0     H28918   3.412  11.877   6.525 -1.3619 -2.3930  1.3274
  977MOL0     H28919   3.328  11.995   6.604  1.1003  1.2296 -4.2875
  977MOL0     H28920   3.420  11.856   6.823 -1.0851  0.4378  0.1530
  977MOL0     H28921   3.401  11.719   6.721 -0.1301 -0.7434  3.7025
  977MOL0     H28922   3.213  11.749   6.861 -2.5619 -1.4507 -1.7886
  977MOL0     H28923   3.173  11.905   6.805 -2.6681 -1.6118 -0.5388
  977MOL0     H28924   3.022  11.759   6.691 -0.8398 -0.6288 -2.6416
  977MOL0     H28925   3.147  11.648   6.655 -1.0676 -0.4510  2.5133
  977MOL0     H28926   3.048  11.584   6.462 -4.3339 -0.4266  0.5720
  977MOL0     H28927   2.912  11.539   6.289  0.1223  0.0177 -1.9138
  977MOL0     H28928   2.533  11.907   6.021  0.1237  0.8405 -0.1663
  977MOL0     H28929   2.327  11.843   5.902 -2.9392 -2.6173 -0.8616
  977MOL0     H28930   2.210  11.786   5.560  1.0645 -1.1372 -0.0704
  977MOL0     H28931   2.262  11.871   5.701 -0.0545 -0.5889  2.2506
  977MOL0     H28932   2.097  11.711   5.829  3.2129 -0.0337 -0.1374
  977MOL0     H28933   2.043  11.653   5.665  0.2652 -0.3398  0.3882
  977MOL0     H28934   1.953  11.879   5.594 -0.7580  2.5889  1.1857
  977MOL0     H28935   2.028  11.936   5.749  2.3031 -1.2018  0.1147
  977MOL0     H28936   1.850  11.802   5.880 -1.6941  1.7550 -0.2797
  977MOL0     H28937   1.800  11.938   5.789 -1.2842  0.7308 -1.4328
  977MOL0     H28938   1.786  11.639   5.694 -3.8796 -0.9456 -1.7882
  977MOL0     H28939   1.735  11.789   5.611  1.6649  0.0863 -0.5326
  977MOL0     H28940   1.562  11.832   5.769  0.9269 -0.0430 -1.8147
  977MOL0     H28941   1.642  11.733   5.887  0.0440  0.7499  0.2520
  977MOL0     H28942   1.423  11.665   5.719 -0.7031 -1.0659  0.2866
  977MOL0     H28943   1.539  11.604   5.621 -0.7408  0.0175 -0.1803
  977MOL0     H28944   1.617  11.476   5.852  0.1372  1.4164 -1.3235
  977MOL0     H28945   1.456  11.434   5.782  0.5910 -0.0721 -0.9446
  977MOL0     H28946   2.550  11.548   5.685  2.8483  2.1935 -0.6967
  977MOL0     H28947   2.745  11.605   5.831  0.8574  1.5362  1.9455
  977MOL0     H28948   2.888  11.967   6.186  1.0726 -0.3010 -0.0360
  977MOL0     H28949   3.035  12.013   6.373 -0.0558  0.1703 -3.3354
  977MOL0     H28950   4.180  11.150   6.747 -0.8676 -0.0107 -1.3052
  977MOL0     H28951   4.355  11.056   6.905  0.4761 -2.0423 -0.6255
  977MOL0     H28952   4.788  11.162   7.173  1.3321  0.1210  0.2931
  977MOL0     H28953   4.974  11.073   7.273  0.6569  1.0563 -1.4468
  977MOL0     H28954   5.198  10.711   7.041 -0.2089 -0.0672  1.7914
  977MOL0     H28955   5.315  10.774   7.149 -0.3629  3.2571  1.8439
  977MOL0     H28956   5.318  10.827   6.892 -0.3246 -2.0062  0.4980
  977MOL0     H28957   5.207  10.962   6.938  1.0419  1.4852 -0.0369
  977MOL0     H28958   5.471  10.946   7.074  0.0366  0.1562 -2.2653
  977MOL0     H28959   5.334  11.065   7.090 -0.5073  1.5147 -0.7132
  977MOL0     H28960   5.491  11.023   6.834  2.6385  0.8462  2.4710
  977MOL0     H28961   5.376  11.146   6.877 -0.1291  2.3637  1.2793
  977MOL0     H28962   5.752  11.243   7.062 -0.6407  2.4828 -0.4818
  977MOL0     H28963   5.016  10.795   6.933  0.7084  1.5336 -1.6710
  977MOL0     H28964   4.828  10.879   6.834 -2.1168  1.6118 -0.6830
  978MOL0     O28965   6.092   9.143   3.190 -0.0972  0.1293 -0.0858
  978MOL0     C28966   6.011   9.064   3.242 -0.1170  0.1663  0.3938
  978MOL0     O28967   5.894   9.103   3.303 -0.2116  0.3966  0.5602
  978MOL0     C28968   5.873   9.232   3.350  0.7402  0.6533  0.3406
  978MOL0     C28969   5.951   9.292   3.448 -0.3632 -0.6919 -0.3236
  978MOL0     C28970   5.917   9.424   3.493 -0.1489  0.1534  0.8179
  978MOL0     C28971   5.802   9.495   3.441  0.8238  0.5858 -0.3060
  978MOL0     O28972   5.775   9.617   3.485 -0.0527 -0.0929 -0.3323
  978MOL0     C28973   5.643   9.657   3.453  0.4095  0.1409  0.2860
  978MOL0     C28974   5.603   9.801   3.495  0.0940  0.1803 -0.2123
  978MOL0     C28975   5.460   9.843   3.463 -0.2986  1.2168  0.2977
  978MOL0     C28976   5.423   9.985   3.482 -0.3926 -0.1436  0.6755
  978MOL0     C28977   5.271  10.010   3.437  0.3139  1.5598 -0.5713
  978MOL0     C28978   5.215  10.148   3.458 -0.0805  0.7506  0.4804
  978MOL0     C28979   5.080  10.162   3.377  0.5390 -0.8376 -1.4463
  978MOL0     C28980   5.048  10.306   3.359 -1.0821 -0.6491  0.0915
  978MOL0     N28981   4.918  10.337   3.298  0.2382 -0.1382  0.1613
  978MOL0     C28982   4.811  10.360   3.376 -0.8993 -0.3274  0.5139
  978MOL0     C28983   4.738  10.449   3.313  0.3765 -0.1263 -0.1671
  978MOL0     C28984   4.592  10.484   3.362  0.4953  0.2572  0.4227
  978MOL0     C28985   4.577  10.630   3.413  0.1423  0.0237 -0.0497
  978MOL0     C28986   4.628  10.743   3.319  0.1425  0.4381  0.9656
  978MOL0     C28987   4.533  10.860   3.308  0.5902  0.2900  0.3174
  978MOL0     O28988   4.414  10.823   3.230 -0.3058 -0.5649  0.0371
  978MOL0     C28989   4.287  10.840   3.286 -0.6550  0.2466  0.1383
  978MOL0     C28990   4.229  10.958   3.336  0.1680 -0.1737 -0.0629
  978MOL0     C28991   4.100  10.967   3.366 -0.4888  0.2110  0.4838
  978MOL0     C28992   4.014  10.863   3.337  1.1598 -0.1793 -0.7301
  978MOL0     C28993   3.868  10.867   3.354  0.1548  0.0412  0.1522
  978MOL0     O28994   3.796  10.755   3.358  0.0703  0.4682  0.6005
  978MOL0     C28995   3.659  10.752   3.319 -0.2710  0.7313  1.0102
  978MOL0     C28996   3.602  10.841   3.229  0.3614 -1.0614 -0.2493
  978MOL0     C28997   3.463  10.837   3.192 -0.0744 -0.5313 -0.1690
  978MOL0     C28998   3.379  10.732   3.244  0.0977  0.5072  0.4169
  978MOL0     O28999   3.253  10.703   3.218 -0.3930  0.1003  0.3236
  978MOL0     C29000   3.172  10.805   3.168  0.2119  0.4369 -0.7358
  978MOL0     C29001   3.033  10.768   3.172  0.1612  0.3223 -0.3983
  978MOL0     C29002   2.954  10.891   3.117  1.1198 -0.1817 -0.4409
  978MOL0     C29003   2.801  10.865   3.096 -0.0582  0.0291  1.1330
  978MOL0     C29004   2.777  10.771   2.976  0.7782 -0.6777 -0.0683
  978MOL0     C29005   2.618  10.763   2.950  0.2367 -0.3005 -0.3099
  978MOL0     C29006   2.559  10.876   2.866  0.9245 -0.1106  0.2578
  978MOL0     C29007   2.436  10.840   2.781 -0.4342  0.1626 -0.7408
  978MOL0    Cl29008   2.320  10.971   2.754  0.2570 -0.3091 -0.1929
  978MOL0     C29009   3.442  10.632   3.326  0.2483 -0.5624 -0.4132
  978MOL0     C29010   3.580  10.643   3.366 -0.2944  1.3425  1.0920
  978MOL0     O29011   3.824  10.979   3.378 -0.0459  0.0697  0.0884
  978MOL0     C29012   4.072  10.737   3.307 -0.2300 -0.2312 -0.2860
  978MOL0     C29013   4.209  10.728   3.275  0.8421 -0.3300  0.1187
  978MOL0     N29014   4.797  10.480   3.196 -0.0049  0.4955 -0.4328
  978MOL0     N29015   4.900  10.410   3.182 -0.6100  1.1964  0.1237
  978MOL0     C29016   5.726   9.424   3.342 -0.3488  0.5599 -1.0697
  978MOL0     C29017   5.762   9.299   3.302 -0.5298  0.2880 -0.5446
  978MOL0     C29018   6.040   8.916   3.234 -0.0669 -0.6849  0.8632
  978MOL0     C29019   5.959   8.827   3.294  0.9934  0.5976  0.0555
  978MOL0     C29020   6.004   8.690   3.304  0.9663 -0.5633 -0.0050
  978MOL0     C29021   6.123   8.647   3.250  0.1717 -0.6346 -0.2408
  978MOL0     O29022   6.167   8.524   3.286  0.6286 -0.4417 -0.2067
  978MOL0     C29023   6.283   8.462   3.229  0.5818 -1.2409 -0.7350
  978MOL0     C29024   6.304   8.316   3.281  0.6253 -0.1846  0.7162
  978MOL0     C29025   6.194   8.214   3.246 -0.9212  0.0318  0.9754
  978MOL0     C29026   6.203   8.090   3.332  0.1632  0.3899  0.1559
  978MOL0     C29027   6.330   8.007   3.309 -0.1008  1.0525  0.6614
  978MOL0     C29028   6.430   7.947   3.294  0.2571 -0.1599  0.5654
  978MOL0     C29029   6.197   8.743   3.178  0.1608  0.0109 -1.0060
  978MOL0     C29030   6.157   8.874   3.167 -0.1816  0.1308 -0.7266
  978MOL0     H29031   6.042   9.241   3.478 -0.9045 -1.6345 -0.2443
  978MOL0     H29032   5.979   9.477   3.564 -2.8329  3.2412  1.0859
  978MOL0     H29033   5.575   9.582   3.495  0.5287 -0.8901 -1.2917
  978MOL0     H29034   5.620   9.660   3.346 -0.2683  0.3369  0.4307
  978MOL0     H29035   5.677   9.875   3.464  0.5029 -0.6783 -1.3597
  978MOL0     H29036   5.617   9.794   3.603  3.2655 -0.8595 -0.5806
  978MOL0     H29037   5.388   9.776   3.512  1.4702 -1.7896 -0.9244
  978MOL0     H29038   5.441   9.842   3.356  0.5609  2.6301  0.1094
  978MOL0     H29039   5.435  10.013   3.587  0.0359  2.0094  0.0973
  978MOL0     H29040   5.495  10.043   3.423  0.3610 -0.4834  1.2405
  978MOL0     H29041   5.214   9.936   3.494 -0.1728  0.7141 -2.1283
  978MOL0     H29042   5.263   9.990   3.330  1.8338 -1.3345 -0.2559
  978MOL0     H29043   5.298  10.213   3.429  1.1368 -0.5011  1.0544
  978MOL0     H29044   5.192  10.154   3.564 -1.1724 -2.3400  0.5095
  978MOL0     H29045   5.090  10.124   3.275  2.8759 -0.5726 -1.3652
  978MOL0     H29046   5.000  10.108   3.429 -1.4862  2.7000 -0.5161
  978MOL0     H29047   5.122  10.356   3.295 -3.1354 -2.0136 -3.6051
  978MOL0     H29048   5.051  10.353   3.458 -1.6894  3.1250 -1.4982
  978MOL0     H29049   4.796  10.306   3.469 -0.9193  0.5516  1.0333
  978MOL0     H29050   4.566  10.415   3.442 -0.0119 -0.4286 -0.3085
  978MOL0     H29051   4.527  10.466   3.276  4.0244 -2.7085 -1.9484
  978MOL0     H29052   4.636  10.649   3.503 -1.4347  2.0667  0.6246
  978MOL0     H29053   4.470  10.644   3.434  0.8407  0.4150  4.1606
  978MOL0     H29054   4.726  10.775   3.353  0.5164 -1.2047  1.5543
  978MOL0     H29055   4.640  10.700   3.220 -2.6199  0.0847  0.6985
  978MOL0     H29056   4.585  10.939   3.253  0.9591  0.2716  0.6334
  978MOL0     H29057   4.509  10.896   3.409 -1.4412 -0.0981  0.0118
  978MOL0     H29058   4.274  11.055   3.355  0.7134 -0.5374  0.5464
  978MOL0     H29059   4.077  11.065   3.408  2.9128  1.3160  0.1230
  978MOL0     H29060   3.664  10.924   3.194 -1.7227 -0.0033 -1.6542
  978MOL0     H29061   3.423  10.914   3.126  0.6616 -1.0570 -1.2364
  978MOL0     H29062   3.198  10.842   3.069 -0.8068  1.6951 -0.5558
  978MOL0     H29063   3.192  10.891   3.232 -0.9795 -0.7153  1.3093
  978MOL0     H29064   3.006  10.748   3.276  0.8717  3.0884  0.4041
  978MOL0     H29065   3.021  10.675   3.116 -1.9824 -0.5637  1.4178
  978MOL0     H29066   2.993  10.940   3.027  1.6353  1.9199  0.8410
  978MOL0     H29067   2.961  10.980   3.181 -1.4370  0.4768 -0.9681
  978MOL0     H29068   2.753  10.833   3.189  1.1482 -2.5899  0.9508
  978MOL0     H29069   2.756  10.960   3.065  0.4037 -0.3307 -0.7704
  978MOL0     H29070   2.827  10.680   3.009  0.5488 -0.9232 -0.3968
  978MOL0     H29071   2.832  10.814   2.892 -0.2875  0.7444 -0.0812
  978MOL0     H29072   2.569  10.775   3.047 -0.3568  3.1798 -0.8948
  978MOL0     H29073   2.585  10.669   2.903 -0.6401  0.2593 -0.8442
  978MOL0     H29074   2.534  10.959   2.932  2.7622 -0.0431  0.9579
  978MOL0     H29075   2.634  10.925   2.803  0.3431 -0.8314 -1.0211
  978MOL0     H29076   2.392  10.755   2.832  1.6894 -3.0169 -3.7557
  978MOL0     H29077   2.462  10.796   2.684 -2.0113 -0.7616 -0.7754
  978MOL0     H29078   3.396  10.541   3.362 -0.5492  0.4288  1.1652
  978MOL0     H29079   3.616  10.564   3.431 -2.2084 -2.2650 -1.8565
  978MOL0     H29080   4.016  10.644   3.304  1.7558 -1.4961  0.0573
  978MOL0     H29081   4.252  10.631   3.250  2.5156  0.6286 -0.8635
  978MOL0     H29082   5.639   9.471   3.298 -0.1454  2.3369  0.2980
  978MOL0     H29083   5.707   9.259   3.217  0.3473  0.9652 -1.4635
  978MOL0     H29084   5.866   8.852   3.344  1.1366  1.5760 -0.1296
  978MOL0     H29085   5.949   8.619   3.365 -3.7277  1.1917 -1.7428
  978MOL0     H29086   6.373   8.515   3.261 -0.6473 -1.7285  4.4659
  978MOL0     H29087   6.266   8.449   3.122  0.1375  0.4405 -0.9029
  978MOL0     H29088   6.394   8.271   3.237 -0.2484 -2.7774  1.4202
  978MOL0     H29089   6.321   8.329   3.388 -1.5172 -1.7704  1.3145
  978MOL0     H29090   6.213   8.183   3.143  0.2404 -5.0595  2.4262
  978MOL0     H29091   6.096   8.261   3.255 -1.5742 -0.7334 -1.4222
  978MOL0     H29092   6.186   8.119   3.436 -0.4033 -2.4940  0.9655
  978MOL0     H29093   6.124   8.015   3.327 -1.7655  1.9099  3.9009
  978MOL0     H29094   6.525   7.899   3.285  0.4969  0.2882  0.6593
  978MOL0     H29095   6.291   8.711   3.135 -0.0260 -1.7337 -0.2101
  978MOL0     H29096   6.220   8.938   3.107 -1.9771 -1.1805 -4.2760
  979MOL0     O29097   7.144   6.646   4.750  0.0594  0.7357 -0.7890
  979MOL0     C29098   7.112   6.540   4.698 -0.1893  0.1014  1.0038
  979MOL0     O29099   7.193   6.438   4.674  0.1680  0.4988 -0.3365
  979MOL0     C29100   7.314   6.439   4.735 -0.1369  0.0290 -0.0311
  979MOL0     C29101   7.424   6.480   4.666  0.1347  1.1672 -0.5233
  979MOL0     C29102   7.551   6.473   4.728 -0.5223 -0.3630  0.1877
  979MOL0     C29103   7.564   6.464   4.867 -0.7175 -0.4577 -0.1769
  979MOL0     O29104   7.685   6.482   4.926  0.7086  0.2541  0.6500
  979MOL0     C29105   7.750   6.606   4.896 -0.3998  0.1525 -0.7227
  979MOL0     C29106   7.688   6.703   5.003 -0.3340 -1.4491  0.8541
  979MOL0     C29107   7.723   6.857   4.962  0.2358  1.1132  0.3416
  979MOL0     C29108   7.685   6.967   5.064  0.1536  0.3849 -1.3226
  979MOL0     C29109   7.701   7.108   5.007 -0.5997 -0.2074  0.2785
  979MOL0     C29110   7.643   7.217   5.099 -0.3400  0.6858 -0.2062
  979MOL0     C29111   7.756   7.271   5.195  0.0722  0.1773  1.0542
  979MOL0     C29112   7.691   7.362   5.298 -1.2510 -0.7320 -0.1586
  979MOL0     N29113   7.619   7.292   5.401  0.2561  0.7437  0.4923
  979MOL0     C29114   7.486   7.322   5.424 -0.3375  0.2504 -0.6733
  979MOL0     C29115   7.457   7.266   5.544  0.1406 -0.0344 -1.6635
  979MOL0     C29116   7.328   7.287   5.616 -0.0151  0.3254  0.2615
  979MOL0     C29117   7.211   7.231   5.533 -0.0066 -0.4185  0.0753
  979MOL0     C29118   7.220   7.077   5.504 -0.5461  0.0890  0.1167
  979MOL0     C29119   7.099   7.019   5.434 -0.3643 -0.4517  1.2665
  979MOL0     O29120   7.068   7.085   5.308 -0.3840  0.7236  0.6498
  979MOL0     C29121   6.960   7.048   5.232  0.8044 -0.6617 -0.4558
  979MOL0     C29122   6.969   7.078   5.095  0.5109 -0.4539 -0.2054
  979MOL0     C29123   6.879   7.042   4.994  0.0670  0.4213 -0.3386
  979MOL0     C29124   6.774   6.963   5.035 -0.0636  0.8459 -1.0738
  979MOL0     C29125   6.673   6.914   4.937 -0.3335  0.4993 -0.4809
  979MOL0     O29126   6.559   6.851   4.980  0.3906  0.2409  0.4349
  979MOL0     C29127   6.456   6.806   4.901 -0.1633 -0.8360 -0.2389
  979MOL0     C29128   6.337   6.767   4.968 -0.4753  1.6618  0.2149
  979MOL0     C29129   6.212   6.736   4.910 -0.8674 -0.4252  0.7404
  979MOL0     C29130   6.206   6.738   4.763  0.3457  0.1304  0.0959
  979MOL0     O29131   6.092   6.717   4.681 -0.3690 -0.0627  0.5037
  979MOL0     C29132   5.980   6.667   4.748  0.7924 -0.4581 -0.4773
  979MOL0     C29133   5.896   6.605   4.632  0.4029  0.8929  0.3397
  979MOL0     C29134   5.741   6.601   4.645  0.0336  0.5823  1.4276
  979MOL0     C29135   5.673   6.540   4.517  0.2211  0.4275  0.2582
  979MOL0     C29136   5.529   6.589   4.510 -0.1723  0.4342  0.2361
  979MOL0     C29137   5.458   6.528   4.381 -0.1592 -0.0272  0.5235
  979MOL0     C29138   5.318   6.588   4.382  0.3164  0.2342  0.4076
  979MOL0     C29139   5.223   6.521   4.275  0.8923 -0.2665 -0.4453
  979MOL0    Cl29140   5.288   6.479   4.114 -0.2096  0.2400  0.3596
  979MOL0     C29141   6.322   6.781   4.698  0.0011 -0.0538  0.2336
  979MOL0     C29142   6.450   6.807   4.763  0.4660  0.6356  0.2894
  979MOL0     O29143   6.704   6.939   4.822  0.0562  0.9938  0.5679
  979MOL0     C29144   6.762   6.930   5.176  0.2138  0.4709 -0.3286
  979MOL0     C29145   6.850   6.974   5.271  0.8076 -0.8052 -0.2088
  979MOL0     N29146   7.574   7.204   5.600  0.0936 -0.1541 -0.1178
  979MOL0     N29147   7.667   7.215   5.509  0.7282 -0.1083 -0.5848
  979MOL0     C29148   7.445   6.432   4.940 -0.1241 -0.6655  0.0014
  979MOL0     C29149   7.321   6.412   4.874  0.3392 -0.2636 -0.4596
  979MOL0     C29150   6.995   6.535   4.612  0.2071  0.1874  0.2312
  979MOL0     C29151   6.876   6.586   4.667  0.0328  0.2307 -0.7250
  979MOL0     C29152   6.760   6.597   4.609  1.1649 -0.7791  0.4192
  979MOL0     C29153   6.749   6.572   4.473 -0.4795 -0.2640  0.0177
  979MOL0     O29154   6.638   6.613   4.407  0.2002 -0.2944  0.2094
  979MOL0     C29155   6.615   6.577   4.275 -0.1307  0.6356 -0.7419
  979MOL0     C29156   6.493   6.644   4.214  0.0431 -0.2974 -0.8192
  979MOL0     C29157   6.481   6.605   4.069  0.6098 -0.2359  0.6717
  979MOL0     C29158   6.358   6.560   4.022  1.3535 -0.8257 -0.8495
  979MOL0     C29159   6.267   6.659   3.973  0.3773 -0.3713  0.2589
  979MOL0     C29160   6.187   6.742   3.932  0.6931  0.0341 -0.1798
  979MOL0     C29161   6.862   6.501   4.417 -0.2390 -0.2505  0.4228
  979MOL0     C29162   6.981   6.475   4.482  0.1813 -0.0872  0.1276
  979MOL0     H29163   7.392   6.498   4.563 -0.7788 -0.2401 -0.5237
  979MOL0     H29164   7.642   6.472   4.668 -1.1764  0.2556 -0.8566
  979MOL0     H29165   7.736   6.646   4.795  2.1801  2.9684 -0.1362
  979MOL0     H29166   7.856   6.601   4.924 -0.0958  1.7873 -1.4342
  979MOL0     H29167   7.716   6.673   5.104 -1.0176 -1.5310  1.0262
  979MOL0     H29168   7.579   6.699   4.999 -0.3697 -1.3371  1.5957
  979MOL0     H29169   7.666   6.886   4.873  0.1888  1.4991  0.4988
  979MOL0     H29170   7.829   6.852   4.935  0.7223 -0.3281  2.3048
  979MOL0     H29171   7.579   6.954   5.089  0.4519 -2.0847 -1.0504
  979MOL0     H29172   7.744   6.950   5.155 -2.1464 -0.9372  0.0310
  979MOL0     H29173   7.635   7.102   4.920  0.6906  1.2687 -0.8447
  979MOL0     H29174   7.806   7.130   4.988 -0.0283 -2.4434  0.5721
  979MOL0     H29175   7.562   7.178   5.161  1.6372 -1.7631  1.0366
  979MOL0     H29176   7.609   7.298   5.034 -1.2135 -1.3531 -2.4399
  979MOL0     H29177   7.802   7.184   5.242 -0.0226 -0.1584  0.5445
  979MOL0     H29178   7.827   7.324   5.132 -0.8584  0.3059  0.0812
  979MOL0     H29179   7.617   7.431   5.257  1.5737  2.6123 -0.1082
  979MOL0     H29180   7.770   7.422   5.344 -2.9927 -0.0228  2.0952
  979MOL0     H29181   7.416   7.371   5.356 -0.7700  2.0701  0.9964
  979MOL0     H29182   7.302   7.391   5.634 -1.0869 -0.2564  2.4059
  979MOL0     H29183   7.341   7.236   5.712 -0.5971 -0.5739 -0.1285
  979MOL0     H29184   7.197   7.282   5.437  1.1544 -0.7463 -0.2913
  979MOL0     H29185   7.120   7.250   5.591  1.6083 -0.5210  2.7954
  979MOL0     H29186   7.311   7.051   5.449 -1.1668 -1.3781 -0.2732
  979MOL0     H29187   7.225   7.031   5.604 -0.9608  1.1816  0.6508
  979MOL0     H29188   7.003   7.031   5.485 -2.1191 -0.1059 -1.8570
  979MOL0     H29189   7.118   6.914   5.411 -0.1729  0.2485 -2.4390
  979MOL0     H29190   7.054   7.139   5.069  0.5216  0.8898  2.5788
  979MOL0     H29191   6.911   7.079   4.897  0.7064 -1.9407 -1.0926
  979MOL0     H29192   6.343   6.763   5.076 -3.2975  2.3851  0.4791
  979MOL0     H29193   6.130   6.712   4.976 -0.6947 -0.8759  0.7927
  979MOL0     H29194   5.925   6.749   4.796 -1.9965 -0.5448 -3.1750
  979MOL0     H29195   5.996   6.581   4.815 -3.9108 -3.6034 -2.7855
  979MOL0     H29196   5.926   6.500   4.616 -0.9697  0.7301 -1.5045
  979MOL0     H29197   5.904   6.654   4.535  2.3695 -0.4697 -0.2605
  979MOL0     H29198   5.694   6.699   4.660 -3.8687 -0.4779 -1.9412
  979MOL0     H29199   5.719   6.544   4.735 -1.7242 -2.5626 -0.8165
  979MOL0     H29200   5.727   6.573   4.428 -0.8164 -1.4946 -1.1441
  979MOL0     H29201   5.664   6.432   4.526 -1.9314  0.3589 -1.7975
  979MOL0     H29202   5.522   6.699   4.514  1.7201  0.5287  2.5786
  979MOL0     H29203   5.484   6.552   4.603  0.2984  2.3112  1.2794
  979MOL0     H29204   5.446   6.420   4.389  0.1856 -0.1810 -0.8894
  979MOL0     H29205   5.514   6.560   4.293 -0.9323 -0.8350 -0.2654
  979MOL0     H29206   5.269   6.586   4.480 -1.4356  0.6437 -0.4195
  979MOL0     H29207   5.334   6.694   4.360 -3.2212  0.2311 -3.6308
  979MOL0     H29208   5.137   6.587   4.261  0.5367 -0.7854 -0.7448
  979MOL0     H29209   5.185   6.426   4.315  1.1781 -0.0618  0.3308
  979MOL0     H29210   6.329   6.788   4.590  4.2892 -2.3159  0.1324
  979MOL0     H29211   6.530   6.830   4.694 -2.2206  0.4445 -3.1503
  979MOL0     H29212   6.669   6.882   5.205 -0.2771  1.0250 -0.9437
  979MOL0     H29213   6.843   6.951   5.377  2.1459  0.5187  0.2094
  979MOL0     H29214   7.455   6.423   5.048 -3.6601  1.8682  0.7539
  979MOL0     H29215   7.239   6.376   4.934 -0.9920  2.2882 -0.5787
  979MOL0     H29216   6.875   6.602   4.775  0.4394 -1.0657 -0.5185
  979MOL0     H29217   6.668   6.637   4.651  0.6542  0.9787 -2.0943
  979MOL0     H29218   6.620   6.469   4.260  4.0581  0.8374 -2.4393
  979MOL0     H29219   6.702   6.606   4.214  0.9579  0.2400  0.5789
  979MOL0     H29220   6.404   6.606   4.264 -0.0991 -4.2739 -3.6853
  979MOL0     H29221   6.500   6.752   4.230 -3.0961 -0.1377  0.1556
  979MOL0     H29222   6.554   6.525   4.050 -0.0191 -0.5885 -0.3619
  979MOL0     H29223   6.510   6.683   3.998 -3.9022 -1.8521 -3.5098
  979MOL0     H29224   6.356   6.488   3.940 -1.0135 -0.8104 -0.8575
  979MOL0     H29225   6.297   6.514   4.100 -1.6048  0.6241 -2.1343
  979MOL0     H29226   6.113   6.817   3.909 -0.6403 -0.2008  2.7884
  979MOL0     H29227   6.848   6.466   4.315  2.1962  1.6897 -0.6725
  979MOL0     H29228   7.070   6.425   4.446  0.9295  0.8541  0.6493
  980MOL0     O29229   4.671   3.943   3.392 -0.3266 -0.2928  0.4600
  980MOL0     C29230   4.744   4.045   3.400 -0.5008  0.4529  0.6251
  980MOL0     O29231   4.708   4.161   3.466 -0.7878 -0.0936 -0.1916
  980MOL0     C29232   4.587   4.174   3.515  1.0019 -0.1359  0.1309
  980MOL0     C29233   4.476   4.160   3.432 -0.4663  1.3975 -0.1673
  980MOL0     C29234   4.349   4.184   3.479  0.0729 -0.5223  0.1015
  980MOL0     C29235   4.327   4.216   3.617  0.2061  0.6934 -0.5018
  980MOL0     O29236   4.207   4.219   3.673 -0.1405 -0.3744  0.4070
  980MOL0     C29237   4.102   4.271   3.591 -0.2925 -1.3454 -0.5741
  980MOL0     C29238   3.989   4.335   3.681 -0.6454  0.6913  0.9622
  980MOL0     C29239   3.857   4.256   3.670  0.5055  0.1580  0.0608
  980MOL0     C29240   3.764   4.327   3.772 -0.8049  0.3876 -0.2614
  980MOL0     C29241   3.637   4.247   3.809 -0.6010  1.2155  0.1454
  980MOL0     C29242   3.532   4.210   3.697 -0.7533  0.1610 -0.0962
  980MOL0     C29243   3.426   4.120   3.745 -0.2431 -0.2517  0.3127
  980MOL0     C29244   3.457   4.014   3.850  0.5274  0.2912  0.1575
  980MOL0     N29245   3.525   3.894   3.796  0.1227  0.5010  0.2126
  980MOL0     C29246   3.602   3.893   3.681  0.7028  0.2724 -0.9200
  980MOL0     C29247   3.652   3.776   3.673 -0.4922 -0.0683  0.4691
  980MOL0     C29248   3.729   3.719   3.553 -0.8188 -0.4905 -0.1690
  980MOL0     C29249   3.858   3.665   3.589  0.9254 -0.4637 -0.2268
  980MOL0     C29250   3.964   3.762   3.648 -0.0175  0.2558  0.1856
  980MOL0     C29251   4.100   3.682   3.656 -0.7774  0.2229 -0.1409
  980MOL0     O29252   4.218   3.767   3.665 -0.8032  0.3175  0.9221
  980MOL0     C29253   4.340   3.712   3.646  0.6934 -0.0675  0.5116
  980MOL0     C29254   4.356   3.572   3.649  0.1805 -0.0980  0.9220
  980MOL0     C29255   4.489   3.526   3.631  0.5900  0.1579  0.4019
  980MOL0     C29256   4.590   3.616   3.622 -0.7334 -1.0158  0.2955
  980MOL0     C29257   4.736   3.551   3.608 -0.0665 -0.6406 -0.3646
  980MOL0     O29258   4.840   3.622   3.670  0.3628  0.2090  0.1380
  980MOL0     C29259   4.969   3.579   3.650 -0.2079 -0.8165  0.0024
  980MOL0     C29260   5.016   3.444   3.671  0.7677 -0.0524 -1.0120
  980MOL0     C29261   5.149   3.405   3.631  0.7943  0.3443 -0.1393
  980MOL0     C29262   5.239   3.494   3.567 -0.5982  0.2805  0.5361
  980MOL0     O29263   5.359   3.437   3.518 -0.6025 -0.3395  0.2002
  980MOL0     C29264   5.475   3.525   3.530  0.3726  0.5960  0.4339
  980MOL0     C29265   5.496   3.578   3.387  0.3341  0.4608  0.3246
  980MOL0     C29266   5.541   3.475   3.290  0.4454 -0.2379  0.1097
  980MOL0     C29267   5.569   3.537   3.151 -0.3832  0.0585  0.1732
  980MOL0     C29268   5.627   3.429   3.054 -1.1234  0.1078 -0.0255
  980MOL0     C29269   5.738   3.486   2.968  0.5489 -0.0782 -0.2061
  980MOL0     C29270   5.699   3.601   2.885 -0.3918  0.2199 -0.1104
  980MOL0     C29271   5.579   3.579   2.799  1.2700  0.1095 -0.2336
  980MOL0    Cl29272   5.590   3.433   2.698  0.1946 -0.2774  0.0690
  980MOL0     C29273   5.201   3.627   3.551  0.0114  0.0290 -0.5976
  980MOL0     C29274   5.062   3.670   3.590  0.5890  0.6682 -0.4966
  980MOL0     O29275   4.746   3.454   3.537 -0.3535  0.0351  0.2860
  980MOL0     C29276   4.571   3.759   3.631  0.9030 -0.3260 -0.6617
  980MOL0     C29277   4.447   3.800   3.635  0.4061 -1.5803 -0.8191
  980MOL0     N29278   3.610   3.705   3.776  0.2144 -0.6059 -0.2210
  980MOL0     N29279   3.537   3.778   3.847  0.6226  0.5745 -0.2674
  980MOL0     C29280   4.437   4.224   3.703  0.8215 -0.1014 -0.5654
  980MOL0     C29281   4.566   4.214   3.648  0.8968 -0.0633  0.6972
  980MOL0     C29282   4.885   4.040   3.343  0.6453  0.6363  0.0380
  980MOL0     C29283   4.930   3.926   3.271 -0.8139  0.0409  0.9238
  980MOL0     C29284   5.066   3.914   3.235 -0.6323  0.3280 -0.1923
  980MOL0     C29285   5.160   4.013   3.284 -0.8850  0.4959 -0.1380
  980MOL0     O29286   5.292   4.013   3.250  0.4593  0.6969  0.0857
  980MOL0     C29287   5.348   3.906   3.165  1.7612  0.7823  0.0227
  980MOL0     C29288   5.496   3.924   3.140  0.2353  0.1720 -0.1685
  980MOL0     C29289   5.537   4.065   3.097 -0.2131  0.4274 -0.5244
  980MOL0     C29290   5.543   4.083   2.946  0.9495  0.1956 -1.0921
  980MOL0     C29291   5.615   3.992   2.865 -0.2604  0.3874 -0.3536
  980MOL0     C29292   5.659   3.931   2.770  1.1905  0.5772 -0.0713
  980MOL0     C29293   5.118   4.115   3.368 -0.5430 -0.6176  0.1862
  980MOL0     C29294   4.984   4.131   3.387 -0.0527  0.2483 -0.1838
  980MOL0     H29295   4.481   4.146   3.324 -0.9536  1.3583 -0.1862
  980MOL0     H29296   4.265   4.170   3.412 -0.9723  0.8817  1.0809
  980MOL0     H29297   4.062   4.193   3.526 -1.0871 -3.3298  2.0732
  980MOL0     H29298   4.146   4.348   3.528 -0.0647 -1.8657 -1.0554
  980MOL0     H29299   3.989   4.436   3.639  3.8342  0.3636 -0.3317
  980MOL0     H29300   4.017   4.350   3.786  0.1032  1.6237  0.6470
  980MOL0     H29301   3.890   4.156   3.701 -1.3602 -0.2002  1.0502
  980MOL0     H29302   3.806   4.257   3.573 -2.4702 -0.5468  1.4803
  980MOL0     H29303   3.813   4.348   3.867 -0.9788  2.4085 -0.5719
  980MOL0     H29304   3.737   4.419   3.719  0.7109 -0.1424 -2.0470
  980MOL0     H29305   3.585   4.295   3.892 -0.8943 -0.0852  0.7468
  980MOL0     H29306   3.679   4.152   3.845  0.2997  0.5281 -2.4800
  980MOL0     H29307   3.582   4.181   3.605 -0.5414 -0.7633  0.2949
  980MOL0     H29308   3.478   4.298   3.661 -2.0139 -0.4705  0.2141
  980MOL0     H29309   3.356   4.181   3.802  1.8532 -0.2442  3.0721
  980MOL0     H29310   3.380   4.073   3.657  0.1209  1.2819 -0.7224
  980MOL0     H29311   3.373   3.979   3.912  0.4791 -0.9668 -0.5787
  980MOL0     H29312   3.522   4.061   3.925  0.1172 -1.2577  1.5653
  980MOL0     H29313   3.622   3.973   3.611  4.1472 -0.7264 -1.2794
  980MOL0     H29314   3.738   3.795   3.476  0.6427 -1.5083 -1.0489
  980MOL0     H29315   3.667   3.635   3.518 -0.6183 -0.2835 -1.0399
  980MOL0     H29316   3.893   3.624   3.494 -1.3398 -0.6559 -1.0414
  980MOL0     H29317   3.845   3.580   3.656  5.5190 -1.2097  0.0023
  980MOL0     H29318   3.968   3.846   3.578 -0.9454  1.1249  1.1403
  980MOL0     H29319   3.938   3.799   3.747 -1.3366 -1.2462  0.4556
  980MOL0     H29320   4.100   3.613   3.570  2.0740  0.0385 -0.0966
  980MOL0     H29321   4.108   3.624   3.748  0.8317  2.2265  1.0642
  980MOL0     H29322   4.274   3.501   3.641 -0.5135  0.5820  1.8828
  980MOL0     H29323   4.507   3.420   3.615 -0.2657 -0.3214  2.3874
  980MOL0     H29324   4.957   3.369   3.722  1.8591  0.9271  1.8906
  980MOL0     H29325   5.165   3.298   3.640 -1.2331 -0.0836 -0.9886
  980MOL0     H29326   5.564   3.476   3.569 -0.2706 -2.5245 -1.6338
  980MOL0     H29327   5.454   3.610   3.595  1.7335  0.4984  1.0380
  980MOL0     H29328   5.564   3.664   3.389 -1.0571  1.5986  1.7212
  980MOL0     H29329   5.399   3.610   3.348  0.5284  1.0753  0.3320
  980MOL0     H29330   5.456   3.407   3.277  0.3798 -0.7040  2.5868
  980MOL0     H29331   5.633   3.429   3.328  1.3503  1.6404  0.2837
  980MOL0     H29332   5.479   3.577   3.105  0.4997  1.2032 -0.6328
  980MOL0     H29333   5.639   3.619   3.168  0.9307 -1.1940  1.0857
  980MOL0     H29334   5.546   3.389   2.992  0.3110 -2.4612 -0.4062
  980MOL0     H29335   5.655   3.339   3.110 -2.1101 -0.1973 -0.0141
  980MOL0     H29336   5.773   3.406   2.901  1.9808  2.8697 -3.3145
  980MOL0     H29337   5.824   3.503   3.033 -0.9236 -0.3918  1.9363
  980MOL0     H29338   5.682   3.687   2.950 -2.6304 -1.3590  1.5281
  980MOL0     H29339   5.786   3.618   2.820  0.0742 -1.3822  0.0450
  980MOL0     H29340   5.555   3.666   2.737 -0.0913 -0.8590 -1.1179
  980MOL0     H29341   5.490   3.583   2.863  1.1225  1.1100 -0.4846
  980MOL0     H29342   5.270   3.701   3.513  1.2942 -0.4029  0.8058
  980MOL0     H29343   5.044   3.774   3.565  3.1925  0.9249 -1.6637
  980MOL0     H29344   4.658   3.824   3.638  1.1691 -0.8603  1.8197
  980MOL0     H29345   4.424   3.905   3.650  1.2382 -1.3948 -0.8063
  980MOL0     H29346   4.410   4.244   3.806  0.9136  1.2254 -0.7791
  980MOL0     H29347   4.661   4.213   3.699 -0.3207 -2.9372  3.2029
  980MOL0     H29348   4.863   3.855   3.223  1.3540 -0.7046 -1.2048
  980MOL0     H29349   5.112   3.828   3.187  2.1010  0.6310  1.6901
  980MOL0     H29350   5.301   3.903   3.066 -0.7586 -0.5058  1.1802
  980MOL0     H29351   5.335   3.811   3.216  0.9035  2.1374  2.4975
  980MOL0     H29352   5.555   3.898   3.228  1.0663 -1.4530 -1.1498
  980MOL0     H29353   5.525   3.847   3.068 -0.9665 -1.1377  0.6818
  980MOL0     H29354   5.640   4.084   3.130 -0.3683  2.0014 -0.8414
  980MOL0     H29355   5.478   4.141   3.149  0.1626  0.1935  0.2497
  980MOL0     H29356   5.440   4.096   2.913  0.6654  4.7742  0.9317
  980MOL0     H29357   5.586   4.183   2.932 -1.9894  1.6220 -0.5589
  980MOL0     H29358   5.686   3.855   2.700 -3.0781  0.5561 -2.0113
  980MOL0     H29359   5.183   4.196   3.401  0.4436 -3.1053  5.4424
  980MOL0     H29360   4.954   4.217   3.447 -0.5686  0.9460 -1.4124
  981MOL0     O29361  10.048   6.479   2.531 -0.0153 -0.5463 -0.0362
  981MOL0     C29362  10.164   6.488   2.549 -0.3922 -0.2740 -0.1999
  981MOL0     O29363  10.231   6.435   2.653  0.5215  0.1434  0.2693
  981MOL0     C29364  10.170   6.358   2.745 -1.7011 -0.1357  0.4280
  981MOL0     C29365  10.172   6.221   2.720 -0.6266 -0.2101  0.0087
  981MOL0     C29366  10.103   6.140   2.810  0.1372  0.0813  0.1457
  981MOL0     C29367  10.053   6.184   2.935 -0.1767 -0.3549  0.5825
  981MOL0     O29368   9.988   6.094   3.010  0.3143 -0.1361 -0.5877
  981MOL0     C29369   9.946   6.142   3.144 -1.4140  0.9492 -0.3284
  981MOL0     C29370   9.881   6.019   3.199  0.0788 -0.7795 -0.6249
  981MOL0     C29371   9.784   6.080   3.306 -0.1205  0.9855  0.9663
  981MOL0     C29372   9.669   5.981   3.329 -0.2397 -0.7519  0.2062
  981MOL0     C29373   9.599   5.994   3.464 -0.2453 -0.0438  0.9468
  981MOL0     C29374   9.478   6.096   3.461 -0.1197 -0.3170  0.7740
  981MOL0     C29375   9.516   6.242   3.475 -0.4646  0.5050 -0.2344
  981MOL0     C29376   9.399   6.338   3.474  0.5740  0.2919 -0.4676
  981MOL0     N29377   9.300   6.302   3.583 -0.1732 -0.6878  0.7321
  981MOL0     C29378   9.337   6.308   3.719  0.3357  0.1897  0.9722
  981MOL0     C29379   9.218   6.275   3.778  0.1461 -0.5881  0.4210
  981MOL0     C29380   9.185   6.270   3.927 -0.9252  0.3826  0.8527
  981MOL0     C29381   9.064   6.192   3.957  0.5640  0.7057 -0.1029
  981MOL0     C29382   8.935   6.275   3.930  0.0946  0.8607 -0.1754
  981MOL0     C29383   8.799   6.196   3.963  0.2268  0.5622 -0.6367
  981MOL0     O29384   8.798   6.193   4.108 -0.3510 -0.1863  0.3246
  981MOL0     C29385   8.705   6.112   4.170  0.2396  0.1926  0.4191
  981MOL0     C29386   8.588   6.058   4.108 -0.0438 -0.6811 -0.4587
  981MOL0     C29387   8.504   5.970   4.181 -0.0776 -0.3467  0.1938
  981MOL0     C29388   8.534   5.930   4.316 -0.0655 -0.4977 -0.0334
  981MOL0     C29389   8.454   5.825   4.384 -0.6672 -0.2164  0.1041
  981MOL0     O29390   8.469   5.813   4.517 -0.0693 -0.0975 -0.5769
  981MOL0     C29391   8.431   5.700   4.585  0.3456 -0.0350  0.5807
  981MOL0     C29392   8.526   5.644   4.669  1.1278  0.4282 -0.2850
  981MOL0     C29393   8.482   5.542   4.760 -0.6137  0.1615  0.2719
  981MOL0     C29394   8.349   5.486   4.754  0.4315  0.1536  1.6815
  981MOL0     O29395   8.314   5.382   4.832  0.2103 -0.1031 -0.5957
  981MOL0     C29396   8.216   5.421   4.932 -0.5612  0.7408  0.2940
  981MOL0     C29397   8.129   5.311   4.985  0.0387  0.8076 -0.1364
  981MOL0     C29398   8.197   5.201   5.073 -0.0808  0.0492  0.5808
  981MOL0     C29399   8.102   5.086   5.107  0.9010 -0.1731 -0.1974
  981MOL0     C29400   8.167   4.997   5.206  0.5674  0.8307 -1.3322
  981MOL0     C29401   8.059   4.912   5.268  0.0703  0.9575 -0.1053
  981MOL0     C29402   8.121   4.822   5.386 -0.0239 -0.0259 -0.3488
  981MOL0     C29403   8.141   4.890   5.520  1.0585  0.4357 -0.6654
  981MOL0    Cl29404   7.983   4.914   5.608 -0.0403 -0.6469 -0.3650
  981MOL0     C29405   8.261   5.533   4.657 -0.2272  0.2082  0.2611
  981MOL0     C29406   8.296   5.641   4.576  0.2935  0.3534  0.0333
  981MOL0     O29407   8.401   5.743   4.310  0.4943 -0.1343  0.5867
  981MOL0     C29408   8.649   5.981   4.376  0.3965  0.8199 -0.1900
  981MOL0     C29409   8.728   6.068   4.305  0.5428  0.1341  0.0779
  981MOL0     N29410   9.118   6.262   3.679  0.2697  0.3112  0.0652
  981MOL0     N29411   9.171   6.280   3.556 -0.3770  0.1318  0.0616
  981MOL0     C29412  10.060   6.318   2.965 -0.2602 -0.4934  0.8828
  981MOL0     C29413  10.123   6.408   2.872  0.4310  0.2250  0.3060
  981MOL0     C29414  10.243   6.542   2.433 -0.1425  0.1602  0.0442
  981MOL0     C29415  10.368   6.510   2.411 -0.6903 -1.1689 -0.7760
  981MOL0     C29416  10.442   6.589   2.313 -0.1454  1.0725  0.1940
  981MOL0     C29417  10.384   6.695   2.238 -0.2941 -0.7177  0.1437
  981MOL0     O29418  10.450   6.762   2.143 -0.0490 -1.1245  0.3639
  981MOL0     C29419  10.446   6.903   2.160  0.1981 -0.1366  0.3466
  981MOL0     C29420  10.547   6.956   2.066 -0.9606  0.7551  0.1360
  981MOL0     C29421  10.512   7.099   2.022  0.3069 -0.4616  1.0223
  981MOL0     C29422  10.625   7.153   1.921 -0.6129 -0.4133 -0.0276
  981MOL0     C29423  10.614   7.076   1.798  0.6145  0.3895  2.1939
  981MOL0     C29424  10.611   7.009   1.691 -0.2713  0.5205 -0.7130
  981MOL0     C29425  10.251   6.712   2.260  0.2999 -0.0212 -0.5864
  981MOL0     C29426  10.177   6.634   2.347  0.7870  1.3878 -0.3944
  981MOL0     H29427  10.222   6.173   2.636  0.0191  0.3882  0.0406
  981MOL0     H29428  10.080   6.038   2.781 -2.7157  0.8901 -0.7923
  981MOL0     H29429   9.882   6.230   3.135 -1.6863  0.8500  0.6079
  981MOL0     H29430  10.028   6.172   3.209 -3.5261  0.6863  2.6293
  981MOL0     H29431   9.964   5.958   3.236  0.6224  1.8471  3.0160
  981MOL0     H29432   9.816   5.975   3.123 -4.3900  2.0447  1.1474
  981MOL0     H29433   9.747   6.181   3.286 -0.8317  0.8071  1.3563
  981MOL0     H29434   9.848   6.092   3.393 -1.8476  0.0738  2.4137
  981MOL0     H29435   9.597   5.994   3.248  0.5003 -0.0129 -0.3566
  981MOL0     H29436   9.715   5.882   3.332  2.9257  0.5964  0.4687
  981MOL0     H29437   9.682   6.022   3.529  0.0572  1.7577 -0.1592
  981MOL0     H29438   9.560   5.903   3.511  1.9165 -1.9628 -0.6827
  981MOL0     H29439   9.411   6.078   3.545 -1.5690 -3.4748 -0.8672
  981MOL0     H29440   9.421   6.070   3.371  0.1341  1.0461  0.1904
  981MOL0     H29441   9.561   6.254   3.573  3.3876  1.6922 -1.9531
  981MOL0     H29442   9.581   6.272   3.392 -1.4398 -2.0523 -2.0629
  981MOL0     H29443   9.345   6.316   3.381  1.8297 -0.6369 -0.9973
  981MOL0     H29444   9.436   6.439   3.492  2.5109 -0.5507  0.4412
  981MOL0     H29445   9.436   6.338   3.753  1.5577 -1.2911 -1.0541
  981MOL0     H29446   9.178   6.369   3.973 -0.7293 -0.0010  1.7275
  981MOL0     H29447   9.275   6.221   3.964  1.8880  2.6772 -2.4305
  981MOL0     H29448   9.057   6.162   4.062 -2.9085  1.8177  0.1272
  981MOL0     H29449   9.066   6.108   3.888  1.0304  1.6780 -1.3108
  981MOL0     H29450   8.931   6.366   3.991  0.0348  2.2644 -2.2010
  981MOL0     H29451   8.925   6.298   3.824 -2.2824 -2.6087 -0.8673
  981MOL0     H29452   8.808   6.095   3.921 -1.4743 -0.4300  1.2078
  981MOL0     H29453   8.711   6.248   3.927 -1.1606 -0.5856  0.9377
  981MOL0     H29454   8.560   6.075   4.005  1.0834 -1.4680 -0.9109
  981MOL0     H29455   8.408   5.942   4.137 -0.1465  0.1903 -0.0115
  981MOL0     H29456   8.627   5.683   4.673  0.7222  1.5240 -0.5257
  981MOL0     H29457   8.556   5.494   4.823 -0.6359 -0.5209 -0.2028
  981MOL0     H29458   8.143   5.497   4.906 -0.0779  0.0551 -3.7188
  981MOL0     H29459   8.264   5.457   5.024  4.6822 -4.9630  0.4301
  981MOL0     H29460   8.093   5.259   4.896 -1.3804 -1.7337  1.7905
  981MOL0     H29461   8.041   5.350   5.038 -4.0743 -2.0826 -4.0955
  981MOL0     H29462   8.222   5.254   5.166 -0.0411  0.2714  0.4456
  981MOL0     H29463   8.290   5.169   5.025  0.7660  0.7588  1.6745
  981MOL0     H29464   8.004   5.116   5.144 -0.1449 -2.2682 -1.1176
  981MOL0     H29465   8.078   5.032   5.015 -1.7874  2.0266 -0.9158
  981MOL0     H29466   8.222   5.056   5.280  0.3664  0.0647 -0.5454
  981MOL0     H29467   8.237   4.921   5.171 -0.9754 -2.0342  1.2200
  981MOL0     H29468   8.023   4.842   5.191  1.6889 -2.4801  2.0401
  981MOL0     H29469   7.973   4.967   5.307  1.2544  2.4913  0.4278
  981MOL0     H29470   8.078   4.722   5.391 -1.0258  0.4116 -0.0287
  981MOL0     H29471   8.220   4.787   5.355  0.8088  1.4304  0.5621
  981MOL0     H29472   8.192   4.983   5.495 -1.7200  1.7040 -2.1344
  981MOL0     H29473   8.203   4.828   5.585 -2.2358 -2.5260 -0.0699
  981MOL0     H29474   8.166   5.484   4.638  0.8711 -1.6101 -0.7924
  981MOL0     H29475   8.229   5.674   4.498 -2.0402 -1.9627  0.9275
  981MOL0     H29476   8.665   5.976   4.483  0.0962  0.5221 -0.1555
  981MOL0     H29477   8.805   6.113   4.366  1.1170 -1.7409  0.8075
  981MOL0     H29478  10.005   6.365   3.045 -1.6759  0.8629 -0.7853
  981MOL0     H29479  10.116   6.515   2.887  1.5127  0.4292 -0.5063
  981MOL0     H29480  10.426   6.444   2.475  1.9779 -0.2070 -2.0629
  981MOL0     H29481  10.549   6.586   2.292 -0.3939 -1.8438 -1.0126
  981MOL0     H29482  10.454   6.932   2.265 -1.7901 -1.7720  1.0259
  981MOL0     H29483  10.347   6.934   2.123  0.4635  1.4851  0.9176
  981MOL0     H29484  10.639   6.949   2.125  0.3836 -2.3298 -2.0310
  981MOL0     H29485  10.553   6.888   1.981  2.1954  1.7694 -0.5889
  981MOL0     H29486  10.508   7.169   2.105  2.9469  1.0737 -0.0096
  981MOL0     H29487  10.415   7.093   1.971 -0.3625  2.1136  1.8649
  981MOL0     H29488  10.606   7.258   1.897 -1.1403 -0.4907  0.0512
  981MOL0     H29489  10.724   7.132   1.965  0.4482 -1.0355 -2.5650
  981MOL0     H29490  10.609   6.939   1.609 -2.7545  0.1745 -0.4533
  981MOL0     H29491  10.196   6.783   2.199  1.0906  0.7220 -0.4499
  981MOL0     H29492  10.072   6.660   2.350  0.6555  0.8072  0.6049
  982MOL0     O29493   1.596   3.961   9.210 -0.6694  0.6747  0.0942
  982MOL0     C29494   1.639   4.058   9.274 -0.1634  0.4976 -0.1762
  982MOL0     O29495   1.579   4.120   9.382  0.6076 -0.1485 -0.3283
  982MOL0     C29496   1.441   4.119   9.401 -0.4457 -0.4890  0.6884
  982MOL0     C29497   1.347   4.064   9.310 -0.0494 -0.1215 -1.0185
  982MOL0     C29498   1.214   4.082   9.320  0.2483 -1.0954  0.5764
  982MOL0     C29499   1.161   4.166   9.417  0.3701  0.7952  0.2560
  982MOL0     O29500   1.029   4.201   9.408  0.7842 -0.0693 -0.7154
  982MOL0     C29501   0.989   4.320   9.465 -0.3225 -1.4847 -0.4046
  982MOL0     C29502   0.839   4.338   9.447  0.0983  0.5496 -0.2430
  982MOL0     C29503   0.789   4.473   9.512  0.9599 -0.0350 -0.5467
  982MOL0     C29504   0.638   4.463   9.535 -1.0043  0.3311  0.5397
  982MOL0     C29505   0.592   4.569   9.629 -0.3522  0.2080  0.1873
  982MOL0     C29506   0.464   4.530   9.704 -0.1446 -0.1823  0.4098
  982MOL0     C29507   0.337   4.556   9.626  0.1617  0.2234  0.2394
  982MOL0     C29508   0.213   4.504   9.688 -0.0956  1.0918  0.1812
  982MOL0     N29509   0.085   4.537   9.633  0.1881  1.0179  0.3488
  982MOL0     C29510  -0.025   4.458   9.630  0.2002  0.2554 -1.0298
  982MOL0     C29511  -0.132   4.530   9.581  0.0177  0.8605 -0.1378
  982MOL0     C29512  -0.270   4.481   9.604  0.9148 -0.3501  0.1707
  982MOL0     C29513  -0.366   4.476   9.476  0.2557  0.4509 -0.4737
  982MOL0     C29514  -0.514   4.430   9.507 -0.2913  0.4253  0.0738
  982MOL0     C29515  -0.607   4.549   9.514  1.3340 -0.1576 -0.1665
  982MOL0     O29516  -0.743   4.495   9.508  0.1596  0.2913  0.2641
  982MOL0     C29517  -0.804   4.462   9.628  1.1286  1.1340 -0.0885
  982MOL0     C29518  -0.941   4.425   9.614  0.5209  0.1072 -0.5817
  982MOL0     C29519  -1.014   4.379   9.715  0.5019 -0.7226 -0.1259
  982MOL0     C29520  -0.964   4.380   9.848 -0.2738 -0.4047 -0.0280
  982MOL0     C29521  -1.053   4.340   9.962 -0.8820  0.8120 -0.8007
  982MOL0     O29522  -0.980   4.336  10.081  0.4927 -0.8911  0.1292
  982MOL0     C29523  -1.046   4.276  10.189 -0.3738  0.3760  1.1464
  982MOL0     C29524  -1.111   4.153  10.187  0.5732  0.6538  0.3372
  982MOL0     C29525  -1.186   4.103  10.301 -0.4297 -0.3561  1.1437
  982MOL0     C29526  -1.200   4.175  10.417 -0.0526  0.5943 -0.0300
  982MOL0     O29527  -1.271   4.130  10.530 -0.4488 -0.4687  0.8968
  982MOL0     C29528  -1.397   4.061  10.525 -0.5477 -0.6317  0.6347
  982MOL0     C29529  -1.503   4.161  10.490  0.0556 -0.8651 -1.1084
  982MOL0     C29530  -1.638   4.096  10.499 -0.2204 -0.4410 -0.1056
  982MOL0     C29531  -1.754   4.209  10.515  0.6389 -0.0401  0.2790
  982MOL0     C29532  -1.888   4.168  10.568 -0.4450  0.7894 -0.7405
  982MOL0     C29533  -1.884   4.150  10.718  1.2359 -0.0589  0.1389
  982MOL0     C29534  -2.027   4.114  10.776  0.9930 -0.0565  0.3209
  982MOL0     C29535  -2.114   4.227  10.819 -0.4302 -0.4454 -0.3432
  982MOL0    Cl29536  -2.131   4.371  10.715  0.0802  0.0200  0.5516
  982MOL0     C29537  -1.125   4.291  10.425 -0.5921  0.6077  0.5812
  982MOL0     C29538  -1.043   4.343  10.316  0.4640  0.0724 -0.3150
  982MOL0     O29539  -1.170   4.310   9.945 -0.0012  0.3369  0.5818
  982MOL0     C29540  -0.832   4.429   9.869  0.4006  0.1165  1.0962
  982MOL0     C29541  -0.754   4.469   9.756  0.2813  0.1946  0.1746
  982MOL0     N29542  -0.084   4.658   9.569 -0.1339 -0.4579 -0.7231
  982MOL0     N29543   0.046   4.664   9.598  0.3773  0.7002 -0.0448
  982MOL0     C29544   1.256   4.213   9.511  0.9302 -0.7477 -0.7467
  982MOL0     C29545   1.391   4.198   9.496  0.3139 -0.2770  0.8313
  982MOL0     C29546   1.786   4.080   9.260  0.8055  0.5607  0.3026
  982MOL0     C29547   1.822   4.124   9.132  0.3043 -0.4410  0.4246
  982MOL0     C29548   1.958   4.178   9.114  0.5796  0.0920 -0.2006
  982MOL0     C29549   2.053   4.157   9.222 -0.5824 -0.1989 -0.0309
  982MOL0     O29550   2.183   4.206   9.227  0.6066 -0.5695 -0.5854
  982MOL0     C29551   2.258   4.184   9.110 -0.2998  0.3476 -0.1222
  982MOL0     C29552   2.405   4.185   9.129  0.0081 -0.2455  0.0304
  982MOL0     C29553   2.447   4.328   9.171 -0.1551  0.8381 -0.1232
  982MOL0     C29554   2.597   4.325   9.220  0.5632 -0.0600 -0.4502
  982MOL0     C29555   2.684   4.274   9.121 -0.2181 -0.3678  0.4928
  982MOL0     C29556   2.764   4.245   9.042 -0.2722 -0.5569 -0.6487
  982MOL0     C29557   2.020   4.088   9.341  0.6293 -0.4370 -1.0205
  982MOL0     C29558   1.883   4.051   9.352 -0.3388 -0.1876 -0.3244
  982MOL0     H29559   1.376   3.994   9.232 -1.9478 -1.5190 -0.5534
  982MOL0     H29560   1.137   4.038   9.258 -1.9762  2.2989  0.6465
  982MOL0     H29561   1.026   4.414   9.422 -0.3176 -1.1287  0.3558
  982MOL0     H29562   1.011   4.316   9.572  2.0606 -0.9309 -0.8180
  982MOL0     H29563   0.796   4.259   9.509 -4.9287  1.3665 -2.2055
  982MOL0     H29564   0.809   4.328   9.342  0.3311 -2.4793 -0.0974
  982MOL0     H29565   0.810   4.561   9.450 -0.7770 -0.8001 -2.3312
  982MOL0     H29566   0.837   4.489   9.608  0.2626 -3.4096  0.5055
  982MOL0     H29567   0.577   4.467   9.444 -2.4484 -2.1078  1.3008
  982MOL0     H29568   0.628   4.362   9.575 -0.1354 -0.0005 -0.0542
  982MOL0     H29569   0.568   4.659   9.573  0.7520  0.9397  0.8649
  982MOL0     H29570   0.674   4.594   9.697 -0.9180  3.1646 -0.1085
  982MOL0     H29571   0.449   4.594   9.791  0.0946 -0.1116  0.3985
  982MOL0     H29572   0.466   4.423   9.728 -4.4342  0.1016  3.1393
  982MOL0     H29573   0.332   4.661   9.594 -1.2754 -0.1827 -1.0040
  982MOL0     H29574   0.338   4.491   9.538  0.5185 -1.1485  1.2248
  982MOL0     H29575   0.215   4.536   9.792  1.8256  2.4477 -0.2382
  982MOL0     H29576   0.208   4.395   9.672 -0.5381  1.2307 -0.7162
  982MOL0     H29577  -0.030   4.364   9.684 -0.1207  0.5159 -0.5920
  982MOL0     H29578  -0.305   4.556   9.675 -1.3647  0.5553 -1.7799
  982MOL0     H29579  -0.280   4.388   9.659 -1.3574  1.0396  2.2830
  982MOL0     H29580  -0.310   4.405   9.414  0.5240 -1.9305  2.2488
  982MOL0     H29581  -0.363   4.572   9.424  1.6827  0.0295 -1.2332
  982MOL0     H29582  -0.553   4.367   9.427  0.7398 -1.8875  1.2752
  982MOL0     H29583  -0.516   4.370   9.599  1.5848 -1.3383 -0.9441
  982MOL0     H29584  -0.584   4.619   9.434  0.4218 -0.5614 -0.8015
  982MOL0     H29585  -0.603   4.615   9.601 -1.4585 -0.4494  0.2891
  982MOL0     H29586  -0.990   4.433   9.517  2.4596 -0.0066 -1.6282
  982MOL0     H29587  -1.112   4.335   9.700  0.4129 -1.1206  1.5192
  982MOL0     H29588  -1.121   4.093  10.097  1.6245  1.8193 -0.5922
  982MOL0     H29589  -1.233   4.006  10.298 -1.5946  0.2118  0.1001
  982MOL0     H29590  -1.389   4.022  10.627 -1.2660 -2.7538 -0.0674
  982MOL0     H29591  -1.398   3.985  10.447 -0.6828  0.0121  0.0018
  982MOL0     H29592  -1.493   4.210  10.393 -0.9864 -0.0909 -0.8430
  982MOL0     H29593  -1.492   4.231  10.574 -3.2116 -1.8785  0.3280
  982MOL0     H29594  -1.626   4.028  10.583  0.4001  1.2341  1.2259
  982MOL0     H29595  -1.670   4.036  10.413 -3.2628 -0.2408  0.7760
  982MOL0     H29596  -1.718   4.288  10.581  0.0902  1.9642 -1.6703
  982MOL0     H29597  -1.768   4.244  10.412 -0.9461 -2.7211 -0.5026
  982MOL0     H29598  -1.919   4.070  10.531 -2.1249 -1.0146  4.5346
  982MOL0     H29599  -1.972   4.236  10.550  0.1009  1.6899  0.0275
  982MOL0     H29600  -1.840   4.237  10.767  1.5577 -0.5129  0.6696
  982MOL0     H29601  -1.811   4.070  10.733  1.8988  0.1077 -1.9184
  982MOL0     H29602  -2.072   4.051  10.699 -1.1362 -0.1395  1.5415
  982MOL0     H29603  -2.012   4.052  10.865 -1.2054 -2.0663 -0.5943
  982MOL0     H29604  -2.064   4.260  10.910  0.3592 -0.8310 -0.6312
  982MOL0     H29605  -2.207   4.176  10.848 -0.3498  0.0849  0.9171
  982MOL0     H29606  -1.116   4.327  10.526 -3.0693 -0.6732  1.3254
  982MOL0     H29607  -0.977   4.428  10.335  0.4146 -0.2492  1.4448
  982MOL0     H29608  -0.783   4.422   9.965  0.2838 -3.6616  1.0116
  982MOL0     H29609  -0.647   4.483   9.768  0.6195 -2.4060  0.8143
  982MOL0     H29610   1.235   4.276   9.597  1.6870 -1.6100  0.0929
  982MOL0     H29611   1.459   4.239   9.571  2.1837 -0.0981 -0.8668
  982MOL0     H29612   1.765   4.143   9.041  1.5654  3.4629  0.2883
  982MOL0     H29613   1.990   4.223   9.020 -0.6981  0.6094 -0.4082
  982MOL0     H29614   2.238   4.261   9.036  1.4591 -0.5476 -1.6008
  982MOL0     H29615   2.239   4.086   9.064  3.8669 -0.6516 -0.1449
  982MOL0     H29616   2.436   4.108   9.200 -1.2822 -0.0906  0.7922
  982MOL0     H29617   2.466   4.157   9.043  1.2477 -0.1169  0.8475
  982MOL0     H29618   2.382   4.372   9.247 -1.9457  0.8620 -1.5924
  982MOL0     H29619   2.441   4.396   9.085 -0.9814  3.2018  1.6971
  982MOL0     H29620   2.629   4.429   9.224 -0.4461  0.2521  0.1052
  982MOL0     H29621   2.604   4.270   9.315  2.1771  1.4221  0.3415
  982MOL0     H29622   2.835   4.242   8.962 -0.0334 -0.3615 -0.4454
  982MOL0     H29623   2.086   4.069   9.425  1.2935 -1.0967 -1.6726
  982MOL0     H29624   1.849   4.020   9.451 -4.7232 -0.4718 -1.7284
  983MOL0     O29625   7.447   6.357   4.271  0.6397 -0.4848 -0.3141
  983MOL0     C29626   7.350   6.434   4.253  0.1655  0.3607  0.4833
  983MOL0     O29627   7.351   6.566   4.273 -0.3256 -0.1703 -0.4697
  983MOL0     C29628   7.458   6.623   4.337 -0.0061  0.2344  0.6846
  983MOL0     C29629   7.596   6.610   4.301 -0.1195 -0.1778  0.1873
  983MOL0     C29630   7.693   6.677   4.378 -0.5416  0.8771 -0.7043
  983MOL0     C29631   7.645   6.744   4.502 -0.0355 -0.9064  0.9446
  983MOL0     O29632   7.733   6.815   4.591  0.3334 -0.5955 -0.4473
  983MOL0     C29633   7.870   6.764   4.608  0.6267  0.2739 -0.0739
  983MOL0     C29634   7.980   6.830   4.537  0.5616 -0.4574  0.3028
  983MOL0     C29635   8.004   6.977   4.588  1.6599 -0.1133 -0.4968
  983MOL0     C29636   7.884   7.081   4.557 -0.3359  0.6227 -1.0841
  983MOL0     C29637   7.916   7.226   4.595  0.1723 -0.6552 -0.2375
  983MOL0     C29638   7.791   7.308   4.625 -0.0432  0.6644  0.2957
  983MOL0     C29639   7.835   7.443   4.687  0.0200  0.9536 -1.0687
  983MOL0     C29640   7.717   7.543   4.674 -0.4759  0.2442 -1.0018
  983MOL0     N29641   7.735   7.651   4.766 -0.0008 -0.5372 -0.5978
  983MOL0     C29642   7.811   7.771   4.757 -0.4355 -0.3641  0.5644
  983MOL0     C29643   7.791   7.831   4.872 -0.1114  0.1415 -0.5512
  983MOL0     C29644   7.848   7.957   4.922  0.0313  0.1801  0.5688
  983MOL0     C29645   7.744   8.076   4.916  0.0895  1.0037 -0.6847
  983MOL0     C29646   7.688   8.089   4.780 -1.2677  0.3841  0.5442
  983MOL0     C29647   7.642   8.236   4.758 -0.1184 -0.3555 -0.6477
  983MOL0     O29648   7.600   8.247   4.619  0.4395 -0.3449 -0.5519
  983MOL0     C29649   7.533   8.360   4.575  0.3836 -0.2160  0.4836
  983MOL0     C29650   7.484   8.459   4.668  0.1677 -0.7705 -0.1226
  983MOL0     C29651   7.397   8.564   4.619 -0.3544 -0.8292 -0.5955
  983MOL0     C29652   7.375   8.575   4.483 -0.3410  0.6403  0.4298
  983MOL0     C29653   7.298   8.689   4.423 -0.2615 -0.3156 -0.3163
  983MOL0     O29654   7.256   8.678   4.292 -0.0814 -0.1653  0.7171
  983MOL0     C29655   7.170   8.770   4.246  0.5377 -0.2515 -0.5507
  983MOL0     C29656   7.048   8.804   4.304 -0.1687 -0.5730 -0.5019
  983MOL0     C29657   6.970   8.906   4.234 -0.1158  0.4905  0.2201
  983MOL0     C29658   7.009   8.967   4.108  0.5959  0.0032  1.0701
  983MOL0     O29659   6.947   9.054   4.024  0.5219 -1.0364  0.7630
  983MOL0     C29660   6.804   9.046   4.014 -0.5893 -0.0342  0.4576
  983MOL0     C29661   6.754   9.092   3.879  1.3072  0.9637 -0.0444
  983MOL0     C29662   6.774   9.239   3.859  0.3644 -0.3865 -0.7542
  983MOL0     C29663   6.753   9.305   3.714 -0.2173 -0.2937  0.2021
  983MOL0     C29664   6.685   9.436   3.706  0.2760 -0.3437  0.5676
  983MOL0     C29665   6.541   9.425   3.752 -0.7260 -0.0940 -0.6159
  983MOL0     C29666   6.460   9.535   3.690  0.1835 -0.1348  0.3222
  983MOL0     C29667   6.319   9.520   3.748  0.0696 -0.1932 -0.0499
  983MOL0    Cl29668   6.204   9.405   3.675 -0.9543 -0.0269  0.2340
  983MOL0     C29669   7.137   8.932   4.064  0.4208  0.0187 -0.9645
  983MOL0     C29670   7.216   8.841   4.132 -0.9612 -0.0737 -0.0372
  983MOL0     O29671   7.268   8.787   4.496 -0.3871  0.1075 -0.1121
  983MOL0     C29672   7.417   8.470   4.396 -0.0266  0.1051  1.5131
  983MOL0     C29673   7.496   8.364   4.441  0.4164 -0.6397 -0.3979
  983MOL0     N29674   7.716   7.752   4.959  1.0119  0.0378 -0.0734
  983MOL0     N29675   7.682   7.650   4.891 -0.3403 -0.0117  0.9972
  983MOL0     C29676   7.511   6.756   4.524 -0.0456  0.7841 -0.6307
  983MOL0     C29677   7.415   6.703   4.436  0.0680 -0.1286 -1.1346
  983MOL0     C29678   7.219   6.372   4.210 -0.2960  0.4915 -0.2916
  983MOL0     C29679   7.177   6.246   4.258  0.3843 -0.5305 -1.2666
  983MOL0     C29680   7.053   6.191   4.216  0.4159 -0.6535  0.3185
  983MOL0     C29681   6.962   6.270   4.131 -0.5122  0.6255  0.1705
  983MOL0     O29682   6.840   6.206   4.094 -1.0350 -0.4261 -0.0173
  983MOL0     C29683   6.856   6.063   4.068  1.1282 -0.1546 -0.8966
  983MOL0     C29684   6.735   6.005   4.011 -0.0012 -0.8475  0.5453
  983MOL0     C29685   6.754   5.860   3.991 -0.1787 -0.7027 -0.8667
  983MOL0     C29686   6.633   5.778   3.947  0.2582  0.2359  0.8083
  983MOL0     C29687   6.575   5.841   3.833  0.4725 -0.6256 -0.0558
  983MOL0     C29688   6.524   5.898   3.741 -0.2616 -0.1692  0.2874
  983MOL0     C29689   6.998   6.398   4.105 -0.3792  0.3951 -0.0099
  983MOL0     C29690   7.124   6.451   4.136 -0.0810  0.8217  1.0671
  983MOL0     H29691   7.621   6.567   4.205  3.4106 -1.8569  1.6702
  983MOL0     H29692   7.793   6.676   4.336 -0.3948 -1.2779 -0.4220
  983MOL0     H29693   7.863   6.656   4.591  1.3827  0.6623 -3.6303
  983MOL0     H29694   7.886   6.777   4.716  0.5781  5.0486 -0.4446
  983MOL0     H29695   7.966   6.842   4.429  2.5687  0.1564  0.0716
  983MOL0     H29696   8.074   6.779   4.560 -0.5169 -2.3485  0.7219
  983MOL0     H29697   8.095   7.005   4.535  1.2809 -0.8696 -1.5683
  983MOL0     H29698   8.016   6.980   4.697 -0.8581 -2.0432 -0.0589
  983MOL0     H29699   7.846   7.076   4.455  0.4742  0.0013 -1.3662
  983MOL0     H29700   7.804   7.049   4.625  1.9127 -0.0870  1.3999
  983MOL0     H29701   7.972   7.270   4.511 -0.6687 -0.0151 -0.4689
  983MOL0     H29702   7.990   7.220   4.676 -0.5868  0.1475  0.5265
  983MOL0     H29703   7.722   7.247   4.682 -1.3665 -0.8530 -2.6839
  983MOL0     H29704   7.736   7.334   4.533  0.4423 -1.6243 -0.7096
  983MOL0     H29705   7.855   7.421   4.793 -0.7886  3.8578 -0.2363
  983MOL0     H29706   7.923   7.492   4.646 -0.9686  1.3301 -2.8640
  983MOL0     H29707   7.614   7.506   4.681 -0.3445  0.1350  0.8806
  983MOL0     H29708   7.728   7.581   4.572 -1.1644 -1.0845 -1.5956
  983MOL0     H29709   7.868   7.807   4.672 -0.7765 -1.0929  0.0127
  983MOL0     H29710   7.943   7.981   4.874 -0.8138 -1.3718 -2.0492
  983MOL0     H29711   7.863   7.939   5.029  2.2095 -0.5150  0.2028
  983MOL0     H29712   7.790   8.171   4.947 -0.1025  1.5491 -1.9932
  983MOL0     H29713   7.666   8.059   4.991  0.9980 -1.1288 -0.1616
  983MOL0     H29714   7.762   8.064   4.703 -2.0727 -0.7151  0.0964
  983MOL0     H29715   7.609   8.014   4.770  1.0842 -2.0421 -1.1511
  983MOL0     H29716   7.715   8.310   4.790 -1.4593 -0.0340  1.9229
  983MOL0     H29717   7.561   8.244   4.830  1.8600 -1.2577  1.8278
  983MOL0     H29718   7.516   8.458   4.772  1.4877  0.5368 -0.4950
  983MOL0     H29719   7.352   8.633   4.691  3.0231 -0.5852  1.4839
  983MOL0     H29720   7.009   8.749   4.389 -2.6850  0.9219 -0.5856
  983MOL0     H29721   6.875   8.922   4.283 -0.4610 -1.2719  0.2039
  983MOL0     H29722   6.756   9.100   4.095  1.0823  1.1568  0.6925
  983MOL0     H29723   6.781   8.939   4.024 -0.4826 -0.3236 -1.7129
  983MOL0     H29724   6.648   9.071   3.861  1.3199  1.8767 -1.3290
  983MOL0     H29725   6.801   9.025   3.806 -2.7670 -0.3383 -1.7586
  983MOL0     H29726   6.877   9.263   3.886 -0.6605  2.0161  1.3666
  983MOL0     H29727   6.712   9.296   3.929  0.2818  0.4338 -1.4817
  983MOL0     H29728   6.853   9.321   3.671  0.1067  3.6086  1.9237
  983MOL0     H29729   6.694   9.240   3.649 -3.9556  0.9606  2.0435
  983MOL0     H29730   6.676   9.460   3.600  1.9539 -3.3146 -0.3569
  983MOL0     H29731   6.737   9.520   3.754  1.9476  0.5868 -2.5748
  983MOL0     H29732   6.542   9.439   3.860 -1.0584 -0.2791 -0.5896
  983MOL0     H29733   6.502   9.325   3.730 -1.7227  0.5875 -2.0685
  983MOL0     H29734   6.510   9.632   3.701 -0.7651  0.3823  0.1338
  983MOL0     H29735   6.459   9.527   3.581  0.3516  1.9490  0.1213
  983MOL0     H29736   6.279   9.618   3.719 -1.2386 -0.9617 -0.9512
  983MOL0     H29737   6.328   9.506   3.856  1.5332 -2.6853 -0.4031
  983MOL0     H29738   7.191   8.969   3.977  0.7619  0.2866 -0.6447
  983MOL0     H29739   7.319   8.820   4.105 -1.2742 -1.6605 -0.0591
  983MOL0     H29740   7.411   8.481   4.288  2.9339  0.4673  1.2864
  983MOL0     H29741   7.541   8.290   4.375 -0.0086  2.4873 -4.6296
  983MOL0     H29742   7.481   6.821   4.606  0.3548  2.0877 -1.4825
  983MOL0     H29743   7.312   6.707   4.472  0.0283 -0.3373 -1.2180
  983MOL0     H29744   7.246   6.190   4.320 -1.1066  1.3743  2.3570
  983MOL0     H29745   7.032   6.099   4.270  2.1228  0.1197  2.4178
  983MOL0     H29746   6.881   6.009   4.160  5.1882 -0.9120 -2.2311
  983MOL0     H29747   6.936   6.044   3.996 -0.0069 -3.3282 -1.4624
  983MOL0     H29748   6.658   6.036   4.082  0.5839  3.2071 -0.3286
  983MOL0     H29749   6.727   6.077   3.929 -1.8951  1.0142  2.2356
  983MOL0     H29750   6.785   5.829   4.092  1.4552  0.4036 -0.9962
  983MOL0     H29751   6.841   5.838   3.928 -1.5329 -0.1483 -3.0349
  983MOL0     H29752   6.679   5.684   3.913  1.5880  0.5490  1.6526
  983MOL0     H29753   6.559   5.759   4.025  0.5980  2.3760  1.7176
  983MOL0     H29754   6.480   5.949   3.658  3.0782  0.7721 -1.0875
  983MOL0     H29755   6.930   6.466   4.054  1.5213  1.8157 -0.7607
  983MOL0     H29756   7.143   6.550   4.098 -1.0826 -0.3905 -3.1436
  984MOL0     O29757   5.585   4.935   9.109 -0.0813  0.5070  0.7455
  984MOL0     C29758   5.651   4.843   9.067 -0.1513  0.5163 -0.7856
  984MOL0     O29759   5.611   4.752   8.974 -0.5864 -0.0956  0.0706
  984MOL0     C29760   5.479   4.745   8.951  0.5665 -0.6387  0.7606
  984MOL0     C29761   5.367   4.751   9.045 -0.5997 -0.3661  0.5007
  984MOL0     C29762   5.237   4.724   9.004 -0.5663 -0.8929 -0.7059
  984MOL0     C29763   5.211   4.700   8.866  0.7797 -0.5573 -0.4587
  984MOL0     O29764   5.074   4.698   8.829  0.0897 -0.3154 -0.4222
  984MOL0     C29765   5.043   4.576   8.752  0.5713 -0.4059 -0.3853
  984MOL0     C29766   4.913   4.519   8.807  0.5875  0.8950  0.4190
  984MOL0     C29767   4.947   4.449   8.935 -0.6770  0.1686 -0.5075
  984MOL0     C29768   4.850   4.333   8.975 -0.3056  0.6326  0.1909
  984MOL0     C29769   4.906   4.261   9.101  0.4006  0.3308  0.4147
  984MOL0     C29770   4.827   4.142   9.167 -0.4381 -0.1838 -0.9253
  984MOL0     C29771   4.673   4.169   9.197  0.3057  0.2466  0.0939
  984MOL0     C29772   4.611   4.039   9.240 -0.6728 -0.4892 -0.6077
  984MOL0     N29773   4.466   4.050   9.255 -0.2480  0.0265  0.7379
  984MOL0     C29774   4.388   4.070   9.144 -1.2533 -0.1661  0.8254
  984MOL0     C29775   4.267   4.091   9.180 -0.0134 -0.3078  0.3200
  984MOL0     C29776   4.148   4.109   9.103  0.3537  0.1218 -0.1960
  984MOL0     C29777   4.072   3.976   9.109  0.7904 -0.6466  0.0196
  984MOL0     C29778   3.930   3.969   9.035  0.0499  0.9152  0.1452
  984MOL0     C29779   3.872   3.837   9.006  0.2460  0.6586  0.7306
  984MOL0     O29780   3.738   3.837   8.973  0.4240  0.3750  0.6913
  984MOL0     C29781   3.692   3.738   8.895  0.2838 -0.0988 -0.4181
  984MOL0     C29782   3.759   3.620   8.862  0.4603  0.0600  0.3932
  984MOL0     C29783   3.683   3.520   8.788  0.3015 -0.4437  0.6465
  984MOL0     C29784   3.543   3.539   8.752  0.7380  0.2942 -0.2733
  984MOL0     C29785   3.468   3.441   8.677  0.2453  0.2594 -0.2219
  984MOL0     O29786   3.541   3.328   8.659  1.0861  0.1903 -0.1371
  984MOL0     C29787   3.474   3.219   8.597  0.3951  0.2835  0.2760
  984MOL0     C29788   3.506   3.097   8.658  0.5843  0.4169 -0.1544
  984MOL0     C29789   3.468   2.971   8.602  0.5768 -0.3230  0.1968
  984MOL0     C29790   3.388   2.973   8.485  0.8798 -0.6136 -0.3225
  984MOL0     O29791   3.336   2.855   8.426 -0.4464 -0.2275  0.0089
  984MOL0     C29792   3.314   2.735   8.505  0.1102 -0.7244  0.3842
  984MOL0     C29793   3.222   2.630   8.453  0.7993 -0.3675 -0.0988
  984MOL0     C29794   3.241   2.591   8.311 -0.2677 -0.1916 -1.0293
  984MOL0     C29795   3.131   2.493   8.273 -0.0979  0.5905  0.1631
  984MOL0     C29796   3.126   2.455   8.127  0.1188 -0.4594 -0.4670
  984MOL0     C29797   3.253   2.379   8.080  0.1313 -0.1306 -0.1246
  984MOL0     C29798   3.260   2.379   7.926 -0.2003 -0.7058  1.0391
  984MOL0     C29799   3.376   2.287   7.885  0.4343 -1.4991 -0.3064
  984MOL0    Cl29800   3.546   2.316   7.918 -0.4128 -0.4613  0.5348
  984MOL0     C29801   3.359   3.093   8.421  0.2223 -0.0693  0.2414
  984MOL0     C29802   3.397   3.220   8.473 -0.2834  0.4084  0.1053
  984MOL0     O29803   3.346   3.458   8.651 -0.4685  0.7460 -0.1749
  984MOL0     C29804   3.490   3.661   8.791  0.4061  0.1070  0.3561
  984MOL0     C29805   3.559   3.750   8.864 -0.6770  0.1846  0.5406
  984MOL0     N29806   4.259   4.095   9.317  0.1523  0.6552  0.3038
  984MOL0     N29807   4.381   4.076   9.363 -0.4118 -0.5056  0.2871
  984MOL0     C29808   5.311   4.708   8.771 -0.2445  0.5377  0.3108
  984MOL0     C29809   5.451   4.712   8.813 -0.0987  0.2884 -0.3248
  984MOL0     C29810   5.790   4.827   9.100 -0.0260 -0.2652  0.0289
  984MOL0     C29811   5.874   4.937   9.085 -0.8988  0.4726  0.1792
  984MOL0     C29812   6.008   4.940   9.117 -1.1686  0.1740 -0.9785
  984MOL0     C29813   6.061   4.816   9.140  0.0680  1.0484  0.4371
  984MOL0     O29814   6.198   4.797   9.141  0.9049 -0.0270  0.2945
  984MOL0     C29815   6.278   4.870   9.056 -0.2524 -0.4918  0.3458
  984MOL0     C29816   6.354   4.975   9.129 -1.0253 -0.1366 -0.1823
  984MOL0     C29817   6.419   4.931   9.270 -0.1158 -0.8378  0.6744
  984MOL0     C29818   6.537   4.834   9.249 -0.0053  0.1215 -0.4953
  984MOL0     C29819   6.644   4.912   9.185 -0.2288  0.4250  0.3810
  984MOL0     C29820   6.726   4.982   9.141 -0.6015  0.0465 -0.9595
  984MOL0     C29821   5.988   4.704   9.154  0.3837  0.0813 -0.5315
  984MOL0     C29822   5.849   4.704   9.139 -0.6724 -0.2633  0.2243
  984MOL0     H29823   5.381   4.787   9.147 -2.8529  0.1425  0.6843
  984MOL0     H29824   5.152   4.727   9.071 -1.8857  2.1950 -2.3020
  984MOL0     H29825   5.127   4.506   8.753  4.6868  3.9532 -1.9390
  984MOL0     H29826   5.032   4.606   8.647 -2.8762 -3.0212 -0.9871
  984MOL0     H29827   4.883   4.447   8.730  2.2884  0.7867 -0.1943
  984MOL0     H29828   4.829   4.586   8.827 -1.3660 -1.8131  1.7705
  984MOL0     H29829   4.971   4.515   9.019 -0.4564 -0.6903  0.1273
  984MOL0     H29830   5.035   4.391   8.907  0.1067  1.6250 -1.1555
  984MOL0     H29831   4.750   4.373   8.993 -1.3030 -1.9350  0.8512
  984MOL0     H29832   4.840   4.272   8.885  0.5407  1.5269 -0.5338
  984MOL0     H29833   4.912   4.338   9.179 -0.0139  0.1860  0.5912
  984MOL0     H29834   5.008   4.223   9.094  1.2367  2.3523  0.8570
  984MOL0     H29835   4.881   4.108   9.257  3.0104  2.3826 -1.7798
  984MOL0     H29836   4.846   4.062   9.096  2.4464 -0.7508  0.2995
  984MOL0     H29837   4.655   4.244   9.275 -2.0379 -0.8720  0.7158
  984MOL0     H29838   4.620   4.215   9.114  0.5371 -0.2661 -0.3448
  984MOL0     H29839   4.644   4.006   9.339  0.6874 -1.2444 -1.2977
  984MOL0     H29840   4.640   3.958   9.173 -0.1634 -1.1675  0.4226
  984MOL0     H29841   4.423   4.065   9.042  0.2765  1.7711  1.1880
  984MOL0     H29842   4.155   4.147   9.000  0.6527 -0.6109 -0.4493
  984MOL0     H29843   4.082   4.177   9.158  0.4800  1.3779 -1.5286
  984MOL0     H29844   4.069   3.946   9.214 -1.2322 -0.1661  0.1328
  984MOL0     H29845   4.135   3.897   9.067  0.4055 -1.1670  0.4202
  984MOL0     H29846   3.855   4.017   9.098  1.6002  1.7208  1.4670
  984MOL0     H29847   3.946   4.011   8.936  3.5825 -0.4675 -0.0265
  984MOL0     H29848   3.895   3.773   9.091  3.4785  3.6172  2.3143
  984MOL0     H29849   3.935   3.810   8.920  3.1023 -0.4490  3.0222
  984MOL0     H29850   3.858   3.591   8.895  0.3788  0.8395  1.3908
  984MOL0     H29851   3.729   3.426   8.762  2.0127  0.3734  0.5390
  984MOL0     H29852   3.567   3.101   8.748  1.4958 -2.1706 -0.5691
  984MOL0     H29853   3.485   2.875   8.650  2.0565  0.2923  0.9638
  984MOL0     H29854   3.278   2.768   8.603 -0.3863  0.7369 -0.2587
  984MOL0     H29855   3.408   2.680   8.513  1.6883  1.7067 -0.5890
  984MOL0     H29856   3.119   2.663   8.471  0.4155 -2.3251  1.6230
  984MOL0     H29857   3.228   2.548   8.526 -1.0908 -1.0425 -0.6322
  984MOL0     H29858   3.342   2.548   8.303 -0.0696  0.1618 -0.4667
  984MOL0     H29859   3.240   2.678   8.244  3.9124  2.1494  1.4622
  984MOL0     H29860   3.152   2.399   8.324  2.0951  0.3077 -1.1326
  984MOL0     H29861   3.034   2.538   8.298  0.6734  4.0850 -2.3321
  984MOL0     H29862   3.125   2.547   8.068 -1.8573 -2.1231 -3.2782
  984MOL0     H29863   3.030   2.403   8.121  0.8424 -1.8537 -0.3668
  984MOL0     H29864   3.263   2.280   8.125 -2.1776 -0.5531 -0.3852
  984MOL0     H29865   3.343   2.430   8.116 -1.1392 -0.2099  3.6046
  984MOL0     H29866   3.163   2.343   7.890  0.1453 -1.3162  0.7120
  984MOL0     H29867   3.277   2.478   7.884 -2.6137 -0.6783 -0.0717
  984MOL0     H29868   3.378   2.285   7.776 -3.7503  2.3732 -0.7094
  984MOL0     H29869   3.335   2.192   7.923 -2.2804 -0.1989  0.2385
  984MOL0     H29870   3.297   3.087   8.332  0.1503  1.6510  0.1386
  984MOL0     H29871   3.377   3.315   8.425  1.3504  0.0958 -1.2762
  984MOL0     H29872   3.383   3.667   8.776  0.4884  2.9674  0.3250
  984MOL0     H29873   3.500   3.838   8.886  1.8176  2.0561  0.0779
  984MOL0     H29874   5.285   4.691   8.667 -0.4612  0.4215  0.3836
  984MOL0     H29875   5.522   4.691   8.734  0.0903 -0.4655  0.0378
  984MOL0     H29876   5.836   5.030   9.044  0.4624  0.8605 -0.2403
  984MOL0     H29877   6.068   5.030   9.104 -3.0720  1.6921  0.2764
  984MOL0     H29878   6.225   4.910   8.970 -0.9551  1.1977  1.5167
  984MOL0     H29879   6.350   4.792   9.030 -1.8799 -2.2142  0.8003
  984MOL0     H29880   6.430   5.018   9.062 -2.5684  2.2156 -0.5521
  984MOL0     H29881   6.289   5.058   9.158  0.0449  1.3670 -1.8495
  984MOL0     H29882   6.345   4.891   9.340 -1.7886  1.8216  0.5294
  984MOL0     H29883   6.461   5.019   9.319  1.6001 -0.1092 -1.8929
  984MOL0     H29884   6.585   4.790   9.337  1.5671  0.0312 -1.3700
  984MOL0     H29885   6.496   4.750   9.193 -0.1489  0.4437 -0.8752
  984MOL0     H29886   6.793   5.049   9.091 -1.1276  1.5889  0.3305
  984MOL0     H29887   6.036   4.607   9.162  0.5572  0.1667 -0.5207
  984MOL0     H29888   5.790   4.614   9.150 -1.9083  0.6424  1.5160
  985MOL0     O29889   7.754   0.248  11.301 -1.2941  0.7624 -0.4550
  985MOL0     C29890   7.714   0.149  11.237 -0.1474 -0.0368 -1.0106
  985MOL0     O29891   7.781   0.089  11.135 -0.1391  0.1445 -0.6685
  985MOL0     C29892   7.902   0.131  11.101  0.5507  0.1727 -0.2848
  985MOL0     C29893   7.934   0.119  10.967  0.1330 -0.3727 -0.7648
  985MOL0     C29894   8.056   0.165  10.913  1.2804 -0.1024  0.3202
  985MOL0     C29895   8.159   0.211  10.997  0.3933  0.0802 -0.0782
  985MOL0     O29896   8.275   0.243  10.931 -0.1292  0.2108  0.2009
  985MOL0     C29897   8.376   0.304  11.008  0.5747 -0.0582  0.0963
  985MOL0     C29898   8.506   0.322  10.927  0.1797  0.3192  0.6990
  985MOL0     C29899   8.535   0.179  10.877  0.0734  0.0165 -0.0960
  985MOL0     C29900   8.691   0.176  10.845 -0.0478  0.4601 -0.2093
  985MOL0     C29901   8.712   0.033  10.793 -0.8111 -0.3532 -0.4689
  985MOL0     C29902   8.835   0.032  10.705 -0.3500 -1.0818 -0.5232
  985MOL0     C29903   8.971   0.058  10.782 -0.7575 -0.1534 -0.8098
  985MOL0     C29904   9.100   0.008  10.709  0.3055  0.1009 -0.0824
  985MOL0     N29905   9.129  -0.133  10.733  0.4010 -0.8331 -0.2771
  985MOL0     C29906   9.087  -0.230  10.644  0.9826  0.6919  0.1418
  985MOL0     C29907   9.126  -0.341  10.709 -1.0610  0.1190 -0.0732
  985MOL0     C29908   9.094  -0.477  10.654  1.1559 -0.0244 -1.2579
  985MOL0     C29909   8.979  -0.529  10.747 -0.9296 -0.8532 -0.8057
  985MOL0     C29910   8.850  -0.455  10.731  0.2270  0.3827 -0.4609
  985MOL0     C29911   8.820  -0.359  10.845 -0.0801 -0.1425 -0.1520
  985MOL0     O29912   8.694  -0.280  10.822  0.0005 -0.2120 -0.0727
  985MOL0     C29913   8.605  -0.297  10.922  1.1373 -0.7801  0.4469
  985MOL0     C29914   8.475  -0.299  10.876  0.4783  0.0394  0.2407
  985MOL0     C29915   8.368  -0.286  10.962  0.2326 -0.5640 -0.2716
  985MOL0     C29916   8.402  -0.272  11.092 -0.4327 -0.5993 -0.3814
  985MOL0     C29917   8.301  -0.241  11.196 -0.1337  0.2909 -0.8209
  985MOL0     O29918   8.182  -0.303  11.171 -0.3160 -0.0874 -0.1522
  985MOL0     C29919   8.066  -0.270  11.248 -0.5795  0.0299  0.2540
  985MOL0     C29920   7.973  -0.368  11.292  0.1094 -0.1741  0.2553
  985MOL0     C29921   7.860  -0.341  11.372 -0.2318 -0.1734 -1.0282
  985MOL0     C29922   7.832  -0.206  11.409  0.2275 -0.3014 -0.3846
  985MOL0     O29923   7.736  -0.177  11.504  0.5393 -0.5782 -0.5810
  985MOL0     C29924   7.642  -0.273  11.529 -0.3812  0.6046  0.5047
  985MOL0     C29925   7.523  -0.227  11.619  0.4717  0.2093  0.1366
  985MOL0     C29926   7.438  -0.352  11.640 -1.0321 -0.7692  0.8633
  985MOL0     C29927   7.349  -0.327  11.761 -0.7645  0.1293 -0.4754
  985MOL0     C29928   7.232  -0.420  11.781  0.3823 -0.3925 -0.5729
  985MOL0     C29929   7.145  -0.374  11.902 -0.1532 -0.3196  0.3871
  985MOL0     C29930   7.057  -0.240  11.888 -1.3462  0.3775  0.7030
  985MOL0     C29931   6.956  -0.233  11.995 -0.2924 -0.2301 -0.0176
  985MOL0    Cl29932   6.821  -0.344  11.950  0.4000 -0.6101 -0.1882
  985MOL0     C29933   7.919  -0.111  11.363 -0.7450 -0.2504  0.7826
  985MOL0     C29934   8.030  -0.145  11.285 -0.1548 -0.5488  0.0758
  985MOL0     O29935   8.316  -0.167  11.295 -0.0362 -0.0682  0.1868
  985MOL0     C29936   8.537  -0.259  11.142  0.1406 -0.3460 -0.2092
  985MOL0     C29937   8.635  -0.266  11.048 -0.1566 -0.1492 -0.1892
  985MOL0     N29938   9.197  -0.317  10.827 -0.2222 -0.0483  0.1385
  985MOL0     N29939   9.189  -0.187  10.839 -0.0960 -0.4115 -0.3895
  985MOL0     C29940   8.134   0.216  11.136 -0.2766 -0.2225 -0.8094
  985MOL0     C29941   8.005   0.181  11.187 -0.8793  0.6959 -0.6794
  985MOL0     C29942   7.586   0.095  11.277 -0.0968  0.4849 -0.4959
  985MOL0     C29943   7.529   0.008  11.186  0.9828 -0.4427  0.7715
  985MOL0     C29944   7.408  -0.061  11.215 -0.5008  0.4306  1.0811
  985MOL0     C29945   7.327  -0.025  11.315 -0.4594 -0.3816  0.0827
  985MOL0     O29946   7.216  -0.090  11.343  0.6023  0.3010 -0.6558
  985MOL0     C29947   7.125  -0.027  11.434 -0.1794 -0.0904 -0.3828
  985MOL0     C29948   6.994  -0.117  11.468  0.6219 -0.9635  0.8602
  985MOL0     C29949   6.916  -0.143  11.340 -0.1300 -0.2185 -0.3783
  985MOL0     C29950   6.811  -0.249  11.362 -0.5375 -0.3011  0.3346
  985MOL0     C29951   6.765  -0.314  11.241 -0.5287 -0.0515 -0.0495
  985MOL0     C29952   6.742  -0.369  11.136 -0.7818  0.8526  0.7445
  985MOL0     C29953   7.376   0.076  11.403 -0.2361  0.7974  0.7761
  985MOL0     C29954   7.506   0.134  11.379 -0.7479 -0.7719 -0.7582
  985MOL0     H29955   7.862   0.085  10.894  1.2813 -0.6143 -1.8073
  985MOL0     H29956   8.071   0.164  10.806  0.6136  1.3816  0.1971
  985MOL0     H29957   8.395   0.237  11.093 -2.5467  0.2038  1.1459
  985MOL0     H29958   8.347   0.406  11.036  2.2578  0.3672  0.3816
  985MOL0     H29959   8.592   0.370  10.974  0.8113  0.0676 -0.1671
  985MOL0     H29960   8.473   0.393  10.851 -1.6208  2.1610  3.0797
  985MOL0     H29961   8.469   0.147  10.796 -2.1781 -1.4630  2.1557
  985MOL0     H29962   8.514   0.111  10.959  0.1376  0.9243  0.6989
  985MOL0     H29963   8.706   0.254  10.769 -0.6588  2.8837  2.0151
  985MOL0     H29964   8.750   0.184  10.937 -2.6184 -1.8041  1.7893
  985MOL0     H29965   8.621  -0.003  10.745 -1.3523  2.0362 -1.3640
  985MOL0     H29966   8.723  -0.034  10.879 -3.0194  0.1209  0.2302
  985MOL0     H29967   8.813   0.107  10.628 -3.4686 -0.3232  0.9389
  985MOL0     H29968   8.849  -0.068  10.663 -0.6408 -0.5246 -2.0047
  985MOL0     H29969   8.981   0.165  10.805  8.0346 -0.5473  0.4551
  985MOL0     H29970   8.954  -0.002  10.871  0.2321  0.3490 -0.2617
  985MOL0     H29971   9.190   0.062  10.741  1.3203 -0.9894 -1.0049
  985MOL0     H29972   9.075   0.029  10.605 -0.2002  1.3207  0.2667
  985MOL0     H29973   9.025  -0.230  10.555 -2.4288  1.3875  2.3268
  985MOL0     H29974   9.182  -0.541  10.662 -0.2675 -1.8640  0.4900
  985MOL0     H29975   9.069  -0.478  10.548 -2.0091 -0.1132 -0.6065
  985MOL0     H29976   9.010  -0.521  10.851  0.5172  1.3103 -1.3439
  985MOL0     H29977   8.965  -0.637  10.732 -0.7978 -0.7752 -1.5376
  985MOL0     H29978   8.845  -0.412  10.631 -0.5323 -2.4083 -1.7319
  985MOL0     H29979   8.772  -0.533  10.734  1.7420 -1.2089 -0.9156
  985MOL0     H29980   8.905  -0.289  10.850  0.9521 -1.3558 -0.1964
  985MOL0     H29981   8.817  -0.413  10.940 -1.8391 -0.1385 -0.1699
  985MOL0     H29982   8.456  -0.300  10.769  2.1821 -1.6097 -0.1114
  985MOL0     H29983   8.266  -0.293  10.925 -0.6069 -0.1167  1.8122
  985MOL0     H29984   7.983  -0.474  11.274  0.2000 -0.3649  1.3457
  985MOL0     H29985   7.809  -0.429  11.410  2.3169 -2.1068 -1.7864
  985MOL0     H29986   7.690  -0.357  11.578 -2.1421  1.3051  3.7437
  985MOL0     H29987   7.598  -0.310  11.436  0.8246  3.5776 -1.3849
  985MOL0     H29988   7.463  -0.145  11.579  1.5468  2.4175  2.7243
  985MOL0     H29989   7.565  -0.185  11.711  0.4867  0.8509 -0.1600
  985MOL0     H29990   7.499  -0.443  11.642  0.5741  0.2539  0.4653
  985MOL0     H29991   7.376  -0.362  11.551  0.1630  0.3013 -0.1396
  985MOL0     H29992   7.417  -0.324  11.848 -0.9011 -0.1735 -0.3563
  985MOL0     H29993   7.309  -0.225  11.752  0.1001  0.4457 -0.9150
  985MOL0     H29994   7.273  -0.521  11.788  3.9363  0.9740  1.6549
  985MOL0     H29995   7.156  -0.424  11.703 -0.6795  0.7762  0.3479
  985MOL0     H29996   7.210  -0.369  11.990 -0.6240  1.8889  0.6710
  985MOL0     H29997   7.069  -0.449  11.924 -1.4515  0.4426 -1.2655
  985MOL0     H29998   7.130  -0.161  11.906 -1.4131  0.7346 -0.5103
  985MOL0     H29999   7.006  -0.223  11.793  0.3504  0.2001 -0.2864
  985MOL0     H30000   6.919  -0.130  12.006  0.7093  0.4689 -2.4855
  985MOL0     H30001   6.998  -0.259  12.093  0.8189 -0.5544 -0.5619
  985MOL0     H30002   7.906  -0.008  11.395  4.3633  1.2231 -0.7946
  985MOL0     H30003   8.099  -0.064  11.262  1.0089 -2.3113 -3.4207
  985MOL0     H30004   8.549  -0.247  11.249 -2.0466 -1.1251  0.1894
  985MOL0     H30005   8.737  -0.244  11.077 -0.2462  0.0968 -0.0621
  985MOL0     H30006   8.210   0.252  11.205  0.1782  1.5232 -2.1381
  985MOL0     H30007   7.978   0.194  11.291 -1.2622  2.8811 -0.9926
  985MOL0     H30008   7.589  -0.025  11.103  2.3257  0.0402  1.5288
  985MOL0     H30009   7.373  -0.131  11.139 -2.4517  0.9938  1.4004
  985MOL0     H30010   7.092   0.065  11.386  0.9784  1.2961  1.3722
  985MOL0     H30011   7.165  -0.008  11.534 -1.6831  1.0678  0.0322
  985MOL0     H30012   7.023  -0.213  11.512 -1.4346 -2.7471 -1.3875
  985MOL0     H30013   6.919  -0.068  11.531 -0.0972 -0.5824 -0.2509
  985MOL0     H30014   6.987  -0.176  11.264  1.0786 -0.8608  0.9707
  985MOL0     H30015   6.859  -0.056  11.305  0.1380 -0.2020 -0.7797
  985MOL0     H30016   6.859  -0.326  11.423  0.9235 -1.4236 -2.0815
  985MOL0     H30017   6.726  -0.214  11.422  1.0909  1.4476  1.7635
  985MOL0     H30018   6.709  -0.423  11.050  0.1539 -0.1186  0.9688
  985MOL0     H30019   7.314   0.108  11.486 -1.0030 -1.5744  1.2014
  985MOL0     H30020   7.541   0.218  11.439 -3.0937 -1.1108  1.2130
  986MOL0     O30021   6.547   4.116   0.147 -1.1457  0.3461  0.9222
  986MOL0     C30022   6.477   4.141   0.241 -0.2589  0.5254  0.3981
  986MOL0     O30023   6.520   4.136   0.368 -0.3513  1.2115 -0.5706
  986MOL0     C30024   6.653   4.090   0.397  0.4683 -0.1178 -0.9544
  986MOL0     C30025   6.695   3.954   0.385  1.0191  0.1258  0.6425
  986MOL0     C30026   6.829   3.920   0.416  0.7467  0.8696 -0.5530
  986MOL0     C30027   6.928   4.014   0.447  1.1107  0.7717 -0.3537
  986MOL0     O30028   7.056   3.975   0.478 -0.3643 -0.7294 -1.0625
  986MOL0     C30029   7.073   3.860   0.560  0.2568 -0.4798  0.3647
  986MOL0     C30030   7.218   3.868   0.611 -0.6362  0.1157 -0.2669
  986MOL0     C30031   7.256   3.750   0.699 -0.1297 -0.3393  0.5160
  986MOL0     C30032   7.376   3.751   0.783 -1.0531 -0.7254  0.3418
  986MOL0     C30033   7.407   3.606   0.844 -0.1714 -0.0790 -0.6888
  986MOL0     C30034   7.334   3.595   0.981 -0.9785  0.0750 -0.1854
  986MOL0     C30035   7.410   3.506   1.081  0.1132 -0.6136 -0.0770
  986MOL0     C30036   7.355   3.364   1.054  0.4725 -0.3665 -0.1044
  986MOL0     N30037   7.417   3.264   1.148 -0.3328 -0.5203  0.6640
  986MOL0     C30038   7.517   3.170   1.106 -0.9320  0.0344 -0.0808
  986MOL0     C30039   7.547   3.109   1.230  0.0538 -0.1554  0.5939
  986MOL0     C30040   7.641   2.996   1.247 -0.2493  0.6222  1.0529
  986MOL0     C30041   7.592   2.861   1.218  1.8913 -0.2064  0.5316
  986MOL0     C30042   7.462   2.820   1.289 -0.1553 -0.0735 -0.6653
  986MOL0     C30043   7.411   2.689   1.215  0.0527 -0.6080  0.0086
  986MOL0     O30044   7.373   2.719   1.073 -0.2542  0.4764 -0.0127
  986MOL0     C30045   7.310   2.833   1.034  0.0972 -0.1663  0.9920
  986MOL0     C30046   7.357   2.930   0.949  0.5454 -0.4193  0.1694
  986MOL0     C30047   7.284   3.038   0.899  0.0707  0.2380  0.1821
  986MOL0     C30048   7.155   3.064   0.959 -0.7727  0.4057  0.7301
  986MOL0     C30049   7.065   3.175   0.924  0.2216  0.0191 -0.6914
  986MOL0     O30050   6.962   3.203   1.010  0.5154  0.0284 -0.9103
  986MOL0     C30051   6.844   3.260   0.956 -0.2602  0.2233  0.5741
  986MOL0     C30052   6.716   3.212   0.996 -0.1834 -0.2837 -0.2846
  986MOL0     C30053   6.605   3.269   0.930  0.7294 -0.2269  0.4051
  986MOL0     C30054   6.614   3.377   0.836 -0.2592  0.1956  0.2046
  986MOL0     O30055   6.511   3.437   0.777 -0.5933  0.0078  0.0693
  986MOL0     C30056   6.380   3.423   0.832  0.2261  0.8697 -0.0318
  986MOL0     C30057   6.282   3.476   0.740  0.6724 -1.0944  0.2937
  986MOL0     C30058   6.141   3.429   0.774  0.6954 -0.5755 -0.1712
  986MOL0     C30059   6.098   3.480   0.911  0.0707 -0.0187 -0.6596
  986MOL0     C30060   5.939   3.476   0.924  0.2126  0.3963 -0.1333
  986MOL0     C30061   5.909   3.549   1.055 -0.1839 -0.5000  0.1026
  986MOL0     C30062   5.762   3.536   1.096  0.2993  0.6322  0.4897
  986MOL0     C30063   5.707   3.617   1.210  0.3361  0.2455 -0.3341
  986MOL0    Cl30064   5.681   3.790   1.163  0.7448  0.3083 -0.1058
  986MOL0     C30065   6.743   3.434   0.816  0.9822 -0.1429 -0.1762
  986MOL0     C30066   6.852   3.374   0.880  0.4575 -0.9186  0.3398
  986MOL0     O30067   7.082   3.212   0.804 -0.1194  0.3782  0.0627
  986MOL0     C30068   7.106   2.961   1.050  0.4908  0.1009  0.0030
  986MOL0     C30069   7.181   2.852   1.074 -0.5144  0.7343 -0.1189
  986MOL0     N30070   7.479   3.168   1.333  0.0832 -0.6714  0.3971
  986MOL0     N30071   7.395   3.257   1.284 -0.4964  0.3246 -0.1208
  986MOL0     C30072   6.883   4.149   0.454 -0.1556 -0.1441  0.1153
  986MOL0     C30073   6.753   4.182   0.437  0.4980  0.8662  0.1837
  986MOL0     C30074   6.337   4.169   0.219 -0.8100  0.4301 -0.3880
  986MOL0     C30075   6.295   4.197   0.092 -0.0401  0.4899  0.3112
  986MOL0     C30076   6.162   4.217   0.062  0.9054 -0.5365 -0.3930
  986MOL0     C30077   6.064   4.193   0.158 -1.3771  0.1923 -0.3362
  986MOL0     O30078   5.937   4.198   0.130  0.7610 -0.2050 -0.6187
  986MOL0     C30079   5.885   4.200  -0.006 -0.0411  1.0725 -0.2673
  986MOL0     C30080   5.898   4.051  -0.047 -0.7103 -0.3217 -0.5202
  986MOL0     C30081   5.784   3.970   0.012 -0.2064  0.2218 -0.9102
  986MOL0     C30082   5.751   3.854  -0.077  0.5556 -0.0516 -0.6427
  986MOL0     C30083   5.669   3.761  -0.012  1.1456  0.0672 -0.0420
  986MOL0     C30084   5.613   3.669   0.049 -0.6087  0.1537  0.4671
  986MOL0     C30085   6.106   4.175   0.289 -0.4042  0.5557 -0.0839
  986MOL0     C30086   6.244   4.166   0.320  0.0719 -0.2256 -0.5397
  986MOL0     H30087   6.626   3.886   0.337 -0.3811  1.5647  0.5362
  986MOL0     H30088   6.854   3.815   0.403 -0.0845  0.1668  2.6553
  986MOL0     H30089   7.050   3.778   0.491 -0.1244  2.6950 -3.7448
  986MOL0     H30090   7.005   3.865   0.645  0.9867  2.0459  0.9130
  986MOL0     H30091   7.236   3.963   0.661 -0.8605  0.9939 -1.7801
  986MOL0     H30092   7.286   3.873   0.525  1.6094 -0.2429  1.3913
  986MOL0     H30093   7.256   3.666   0.628 -1.3919 -1.3283  1.6294
  986MOL0     H30094   7.165   3.730   0.756  0.2997 -1.1467  0.9345
  986MOL0     H30095   7.458   3.781   0.717 -2.4360  2.4593 -0.1344
  986MOL0     H30096   7.371   3.824   0.865  2.6176 -0.9642  0.9588
  986MOL0     H30097   7.514   3.597   0.863 -0.3700  1.1362  1.2812
  986MOL0     H30098   7.386   3.521   0.778  2.6318 -2.9000  1.7474
  986MOL0     H30099   7.232   3.558   0.973 -1.4463  1.2020  0.3382
  986MOL0     H30100   7.322   3.696   1.022  2.1695  1.1581 -1.5571
  986MOL0     H30101   7.518   3.508   1.063  0.5695  0.3480  2.3951
  986MOL0     H30102   7.394   3.542   1.183  2.3893  1.5575 -0.3982
  986MOL0     H30103   7.397   3.329   0.959  2.6732 -0.0148  0.6953
  986MOL0     H30104   7.246   3.353   1.062  0.6646 -1.7300  0.8694
  986MOL0     H30105   7.569   3.146   1.014  0.7643 -4.2652  1.7424
  986MOL0     H30106   7.667   2.994   1.354  1.1876  2.9042  0.8115
  986MOL0     H30107   7.727   3.014   1.183 -1.7475  3.3838 -0.3719
  986MOL0     H30108   7.659   2.776   1.228  0.5772 -1.6063 -1.6644
  986MOL0     H30109   7.573   2.855   1.110  0.7667 -5.0099  0.7602
  986MOL0     H30110   7.488   2.790   1.391 -0.7177 -1.4233 -0.9034
  986MOL0     H30111   7.381   2.893   1.282 -0.1799 -0.2167 -2.1673
  986MOL0     H30112   7.320   2.664   1.270 -1.1601 -2.2602 -2.5857
  986MOL0     H30113   7.491   2.614   1.221  0.9590  0.1543 -1.7564
  986MOL0     H30114   7.459   2.918   0.914  0.9941 -0.5982  1.4959
  986MOL0     H30115   7.335   3.110   0.836 -0.0940  1.6977  1.6300
  986MOL0     H30116   6.713   3.135   1.072  2.5252 -1.1862 -1.0136
  986MOL0     H30117   6.512   3.224   0.963 -0.0755 -0.1167 -1.5949
  986MOL0     H30118   6.380   3.494   0.916 -0.7940 -1.2084  1.8184
  986MOL0     H30119   6.355   3.323   0.868 -1.8072  1.5433  0.5463
  986MOL0     H30120   6.305   3.429   0.644 -0.4983 -1.9670  0.4246
  986MOL0     H30121   6.289   3.583   0.723  0.8310 -0.8072  1.9373
  986MOL0     H30122   6.135   3.319   0.770  1.6720 -0.8230  2.5598
  986MOL0     H30123   6.075   3.465   0.694  3.1486 -0.2980 -2.1748
  986MOL0     H30124   6.150   3.410   0.976  1.6876  0.8344 -0.9909
  986MOL0     H30125   6.133   3.584   0.920 -1.6775  0.5565 -0.0060
  986MOL0     H30126   5.908   3.371   0.926  1.6542 -0.0506  1.4049
  986MOL0     H30127   5.888   3.530   0.844 -3.2392  0.2733  1.7856
  986MOL0     H30128   5.940   3.652   1.038  0.8030 -0.8691 -0.4090
  986MOL0     H30129   5.978   3.526   1.137  0.5054  0.7408 -0.1096
  986MOL0     H30130   5.695   3.546   1.010  1.0278 -0.7901 -0.2911
  986MOL0     H30131   5.755   3.428   1.113  1.2788  0.3549 -0.7009
  986MOL0     H30132   5.776   3.618   1.294 -1.5571  0.5823  1.3084
  986MOL0     H30133   5.618   3.571   1.255  0.6643 -2.2491 -2.0248
  986MOL0     H30134   6.765   3.522   0.757 -0.6970  0.8223  0.5698
  986MOL0     H30135   6.946   3.430   0.882  1.2532 -2.2354  1.1409
  986MOL0     H30136   7.003   2.967   1.084 -0.5049 -0.8934 -2.5197
  986MOL0     H30137   7.133   2.777   1.136  0.8149 -0.7424 -0.8058
  986MOL0     H30138   6.947   4.228   0.492  0.1132  1.1190 -2.7272
  986MOL0     H30139   6.743   4.289   0.455  1.6196  0.8830  0.7929
  986MOL0     H30140   6.370   4.194   0.014 -0.4842  1.6662 -0.1899
  986MOL0     H30141   6.139   4.224  -0.044  2.5111  2.9096 -0.6370
  986MOL0     H30142   5.941   4.268  -0.071  2.1826 -0.7280 -0.3597
  986MOL0     H30143   5.783   4.238  -0.005  1.2576  4.9648  0.7291
  986MOL0     H30144   5.901   4.038  -0.155 -0.2008 -0.1358 -0.5326
  986MOL0     H30145   5.987   4.010   0.001 -1.2977  0.2384  1.1196
  986MOL0     H30146   5.696   4.034   0.025 -1.9005 -2.0414 -0.6888
  986MOL0     H30147   5.817   3.944   0.113  1.9462  2.9668 -0.7664
  986MOL0     H30148   5.697   3.895  -0.163  0.5115  3.4489  0.9083
  986MOL0     H30149   5.842   3.816  -0.124  1.5222 -0.9234  1.7826
  986MOL0     H30150   5.554   3.610   0.117  1.5772  0.3212  2.6372
  986MOL0     H30151   6.029   4.153   0.362 -1.8118  0.2083 -1.6090
  986MOL0     H30152   6.266   4.156   0.426 -1.3413 -1.0104 -0.2902
  987MOL0     O30153   7.848   8.574   5.187 -0.1586 -0.0248  0.1356
  987MOL0     C30154   7.853   8.523   5.301 -0.5995  0.5050  0.8722
  987MOL0     O30155   7.804   8.578   5.407  0.6768 -0.0014  0.6692
  987MOL0     C30156   7.740   8.702   5.419 -0.2387  0.0783  0.0978
  987MOL0     C30157   7.625   8.719   5.491  0.5473 -0.3389 -0.5610
  987MOL0     C30158   7.550   8.841   5.495 -0.1280 -0.3926  0.5744
  987MOL0     C30159   7.594   8.954   5.429  0.3413  0.3224 -0.2704
  987MOL0     O30160   7.519   9.070   5.431  0.3329  0.3555 -1.1626
  987MOL0     C30161   7.459   9.120   5.553  0.1540 -0.2333 -1.1294
  987MOL0     C30162   7.446   9.276   5.559 -0.6963 -0.6454 -0.4389
  987MOL0     C30163   7.347   9.323   5.458 -0.3360  0.3334 -0.5706
  987MOL0     C30164   7.330   9.472   5.460 -0.7725 -0.2925 -0.3360
  987MOL0     C30165   7.233   9.525   5.569 -0.3788  0.0181 -0.0311
  987MOL0     C30166   7.223   9.676   5.576 -0.8265  0.9114 -0.9194
  987MOL0     C30167   7.114   9.715   5.685 -0.8451  0.2793  0.0867
  987MOL0     C30168   7.168   9.754   5.821  0.5869 -0.2615  0.1712
  987MOL0     N30169   7.079   9.846   5.902 -0.2795  0.8779 -0.3987
  987MOL0     C30170   7.046   9.970   5.861  0.2759 -0.1473 -0.1018
  987MOL0     C30171   6.945  10.002   5.940 -0.8750  0.5919  0.3518
  987MOL0     C30172   6.868  10.123   5.926  0.5998 -0.2116  0.4926
  987MOL0     C30173   6.939  10.248   5.987 -0.0269  0.3429 -0.0089
  987MOL0     C30174   6.988  10.231   6.132 -0.0620 -0.4187  0.3436
  987MOL0     C30175   7.070  10.351   6.176 -0.0594  0.0473 -0.1730
  987MOL0     O30176   7.160  10.397   6.086  0.5377 -0.0042  0.4700
  987MOL0     C30177   7.242  10.508   6.118  0.0069  0.1993  0.1958
  987MOL0     C30178   7.342  10.543   6.032 -0.3291  0.4606 -0.4745
  987MOL0     C30179   7.422  10.650   6.053 -0.4406  0.4193  0.1127
  987MOL0     C30180   7.403  10.730   6.174  0.3710  0.0004  0.0740
  987MOL0     C30181   7.482  10.848   6.202 -0.0960  0.3002 -0.3505
  987MOL0     O30182   7.579  10.864   6.109  0.2234 -0.3850 -0.9335
  987MOL0     C30183   7.647  10.986   6.082 -0.1446  0.0184 -0.4408
  987MOL0     C30184   7.596  11.110   6.109  0.7227 -0.3763  0.5320
  987MOL0     C30185   7.668  11.230   6.101 -0.7696 -0.4460  0.2358
  987MOL0     C30186   7.792  11.221   6.035 -1.3361 -0.4328 -0.8349
  987MOL0     O30187   7.878  11.320   5.993 -1.3779  0.1318  0.0208
  987MOL0     C30188   7.842  11.452   6.032  0.6422  0.7701 -1.6338
  987MOL0     C30189   7.949  11.541   5.978 -0.4832  0.3844 -0.2512
  987MOL0     C30190   8.094  11.534   6.034 -0.3534  0.9567  0.5638
  987MOL0     C30191   8.104  11.497   6.182 -0.0123 -0.2344  0.2600
  987MOL0     C30192   8.241  11.457   6.223  1.3282  0.8638 -1.0119
  987MOL0     C30193   8.354  11.559   6.216  0.1174 -0.7964  0.0498
  987MOL0     C30194   8.491  11.481   6.233  0.4455 -0.0287  0.3087
  987MOL0     C30195   8.608  11.559   6.289  0.1996 -0.7466  0.2325
  987MOL0    Cl30196   8.563  11.659   6.433 -0.5999  0.2464  0.0092
  987MOL0     C30197   7.848  11.094   6.002  0.6432  0.6130  0.0324
  987MOL0     C30198   7.770  10.974   6.029 -0.0184 -0.0813  0.6272
  987MOL0     O30199   7.464  10.919   6.297 -1.0174 -0.6731  0.4566
  987MOL0     C30200   7.305  10.685   6.264  0.2853 -0.0535 -0.1145
  987MOL0     C30201   7.217  10.582   6.230 -0.3625 -0.3010 -0.1822
  987MOL0     N30202   6.923   9.901   6.031  0.4461 -0.2304 -0.4735
  987MOL0     N30203   6.991   9.805   5.986  0.4720  1.0760  0.1680
  987MOL0     C30204   7.719   8.942   5.362  0.1437 -0.4261  0.5717
  987MOL0     C30205   7.787   8.819   5.355 -0.5541 -0.0294 -0.0143
  987MOL0     C30206   7.914   8.386   5.308  0.0767 -0.3981  0.2419
  987MOL0     C30207   7.978   8.324   5.199  0.1386 -0.2352  0.0543
  987MOL0     C30208   8.033   8.196   5.215 -0.6880  0.3277 -0.0951
  987MOL0     C30209   8.038   8.132   5.339  0.0477  0.2195 -0.3542
  987MOL0     O30210   8.107   8.017   5.344  0.3016  0.1688 -0.5599
  987MOL0     C30211   8.073   7.907   5.434 -0.1642  0.5453  0.1391
  987MOL0     C30212   7.958   7.826   5.374  0.8786 -0.0025 -0.3246
  987MOL0     C30213   8.009   7.750   5.255  0.3745 -0.0144  0.1951
  987MOL0     C30214   7.917   7.644   5.206  0.4472  0.7257 -0.1532
  987MOL0     C30215   7.978   7.581   5.086 -0.8000 -0.4291  0.1637
  987MOL0     C30216   8.009   7.518   4.989  0.0607  0.4156  0.4147
  987MOL0     C30217   7.964   8.186   5.449  0.4087 -0.5763  0.3130
  987MOL0     C30218   7.901   8.310   5.429  0.4902 -0.7918  0.6106
  987MOL0     H30219   7.581   8.632   5.538 -0.0811  0.9902  1.3757
  987MOL0     H30220   7.459   8.843   5.555 -0.8121 -1.4712 -0.3925
  987MOL0     H30221   7.526   9.086   5.632 -0.8199  0.5727  0.0721
  987MOL0     H30222   7.356   9.085   5.570  0.7009 -0.8452  1.2378
  987MOL0     H30223   7.540   9.325   5.531  1.0053 -2.2903  1.9545
  987MOL0     H30224   7.423   9.304   5.662 -0.6584  1.9728 -1.0634
  987MOL0     H30225   7.253   9.277   5.487  1.0394 -2.1310  0.2608
  987MOL0     H30226   7.390   9.295   5.361 -1.4269 -1.3527 -0.6028
  987MOL0     H30227   7.422   9.531   5.465 -1.9983  2.0534 -2.9880
  987MOL0     H30228   7.293   9.507   5.363  2.1032  1.3960 -0.9463
  987MOL0     H30229   7.244   9.466   5.660  0.6303 -2.6188 -1.7167
  987MOL0     H30230   7.133   9.497   5.535 -0.5090  0.0847  0.3005
  987MOL0     H30231   7.187   9.706   5.477  0.8134  0.2209 -1.7587
  987MOL0     H30232   7.318   9.729   5.585 -0.2644 -0.3157  0.8952
  987MOL0     H30233   7.051   9.794   5.643 -0.6695 -0.0085 -0.7405
  987MOL0     H30234   7.038   9.636   5.697 -1.9209  1.5573  2.1105
  987MOL0     H30235   7.266   9.799   5.809  0.8153 -1.4282 -3.4582
  987MOL0     H30236   7.187   9.664   5.881 -0.7368 -0.8071 -0.1944
  987MOL0     H30237   7.092  10.019   5.776  2.6332  1.8643  2.1491
  987MOL0     H30238   6.774  10.110   5.980  0.8524 -0.6721  0.8281
  987MOL0     H30239   6.846  10.138   5.820  1.9949 -1.5293 -0.0065
  987MOL0     H30240   6.866  10.329   6.000 -0.3597 -0.1917  1.6859
  987MOL0     H30241   7.021  10.284   5.924 -0.8600  3.0495  0.3037
  987MOL0     H30242   6.906  10.217   6.204  0.8676  3.3985  2.4161
  987MOL0     H30243   7.047  10.139   6.138 -0.9727 -1.2534 -2.1536
  987MOL0     H30244   7.114  10.324   6.273 -3.0528 -1.0687  1.0068
  987MOL0     H30245   6.991  10.425   6.189 -2.6698 -2.6957  0.5293
  987MOL0     H30246   7.353  10.478   5.946 -3.1974 -1.7652  0.6636
  987MOL0     H30247   7.503  10.678   5.987 -1.2408  1.1146 -0.5879
  987MOL0     H30248   7.500  11.128   6.158  2.3219  0.9873  3.4344
  987MOL0     H30249   7.641  11.333   6.123  3.1579  0.7143  0.5177
  987MOL0     H30250   7.840  11.452   6.141  0.1643 -2.2201 -1.5417
  987MOL0     H30251   7.740  11.472   5.999  0.4220  1.6297 -0.4755
  987MOL0     H30252   7.928  11.642   6.016  0.2109  0.9148 -1.2178
  987MOL0     H30253   7.950  11.539   5.869  0.1624  0.5071 -0.2522
  987MOL0     H30254   8.151  11.625   6.017 -1.0640  1.1002 -1.3735
  987MOL0     H30255   8.125  11.457   5.962  0.1112  0.0797  1.6727
  987MOL0     H30256   8.072  11.585   6.238 -0.2386 -0.8597  1.1385
  987MOL0     H30257   8.040  11.409   6.190 -1.2466  0.4922 -1.1028
  987MOL0     H30258   8.278  11.377   6.158  0.5583 -1.5196  1.3253
  987MOL0     H30259   8.238  11.419   6.326 -0.8483  2.2385 -0.5051
  987MOL0     H30260   8.336  11.636   6.292 -1.1718 -2.4234  1.4672
  987MOL0     H30261   8.366  11.609   6.120  0.9664 -0.1174  0.4898
  987MOL0     H30262   8.479  11.396   6.302 -1.7530  0.3179  0.4120
  987MOL0     H30263   8.527  11.435   6.140  3.3594 -0.8197  1.6956
  987MOL0     H30264   8.649  11.622   6.209  0.8245 -2.3887 -0.8097
  987MOL0     H30265   8.688  11.487   6.309  0.7080 -0.6086 -1.1484
  987MOL0     H30266   7.947  11.088   5.958 -0.0984 -3.5015 -1.4958
  987MOL0     H30267   7.822  10.882   6.003  1.4768  0.7405  0.6000
  987MOL0     H30268   7.301  10.742   6.357 -2.9943  1.6088 -1.1107
  987MOL0     H30269   7.141  10.558   6.303 -1.6081 -0.0344 -1.3444
  987MOL0     H30270   7.748   9.029   5.304  0.4734  1.0227  2.7848
  987MOL0     H30271   7.888   8.815   5.315 -0.4938 -0.2885  0.1546
  987MOL0     H30272   7.996   8.378   5.106 -0.9297  0.4843  0.2545
  987MOL0     H30273   8.077   8.144   5.131 -0.4890 -0.3044  0.3843
  987MOL0     H30274   8.047   7.947   5.532 -2.5945 -0.3434 -0.0822
  987MOL0     H30275   8.155   7.837   5.452  1.4599  2.4181  0.3429
  987MOL0     H30276   7.926   7.757   5.452 -2.1408  2.0919  0.4250
  987MOL0     H30277   7.876   7.894   5.353  0.2668  0.1319  2.1776
  987MOL0     H30278   8.114   7.724   5.272  0.7888  0.1209 -1.8545
  987MOL0     H30279   8.007   7.824   5.175 -1.1367 -0.4368 -0.2027
  987MOL0     H30280   7.912   7.569   5.285  1.1356 -1.8670 -2.3980
  987MOL0     H30281   7.817   7.679   5.180  0.0871 -0.8318 -1.0555
  987MOL0     H30282   8.050   7.468   4.904 -2.0482  1.2767 -1.2062
  987MOL0     H30283   7.962   8.141   5.548 -2.2181  5.1428  3.3066
  987MOL0     H30284   7.845   8.356   5.509  1.4556 -0.8241  1.3124
  988MOL0     O30285   1.968  11.010   1.533 -0.7077 -0.3389  0.5547
  988MOL0     C30286   2.012  10.905   1.485  0.4902  0.2389 -0.0633
  988MOL0     O30287   1.983  10.860   1.371 -0.0442  0.3219  0.2352
  988MOL0     C30288   1.890  10.917   1.287 -0.1709  0.8382  0.2358
  988MOL0     C30289   1.912  10.872   1.156  0.2237  0.1971  0.3610
  988MOL0     C30290   1.823  10.898   1.052 -0.1813  0.3034  0.4455
  988MOL0     C30291   1.721  10.997   1.072  0.5134  1.2629  0.0646
  988MOL0     O30292   1.642  11.037   0.970 -0.2740  0.5311 -0.1620
  988MOL0     C30293   1.684  11.023   0.831  0.7211  0.1375 -0.6923
  988MOL0     C30294   1.616  11.138   0.757 -0.7459 -0.0393 -0.5759
  988MOL0     C30295   1.704  11.269   0.754 -0.6987 -0.8645 -0.8943
  988MOL0     C30296   1.847  11.267   0.685  0.0783 -0.3128 -0.0561
  988MOL0     C30297   1.909  11.415   0.707 -0.5426  0.3672 -1.0338
  988MOL0     C30298   1.936  11.443   0.854 -0.5869  0.5831  0.2718
  988MOL0     C30299   2.043  11.553   0.868 -0.1679  0.3666 -0.0580
  988MOL0     C30300   1.988  11.689   0.845  0.4532 -0.2412 -0.3479
  988MOL0     N30301   1.901  11.741   0.952  0.3314  0.2810  1.2571
  988MOL0     C30302   1.782  11.799   0.932  0.5689  0.1732  0.4588
  988MOL0     C30303   1.750  11.826   1.059 -0.0839  0.6179 -0.5985
  988MOL0     C30304   1.629  11.908   1.091  0.3150  0.7855 -0.1640
  988MOL0     C30305   1.521  11.841   1.182  0.0919 -0.4926 -0.3341
  988MOL0     C30306   1.398  11.932   1.180  0.8348  0.1033  0.2488
  988MOL0     C30307   1.297  11.907   1.063  0.5809 -0.5202 -0.7456
  988MOL0     O30308   1.163  11.959   1.101 -0.3575  0.0664 -0.8106
  988MOL0     C30309   1.154  12.093   1.125  1.4357  0.7429  0.8475
  988MOL0     C30310   1.163  12.182   1.026  0.9950  1.0943  0.2837
  988MOL0     C30311   1.168  12.318   1.037 -0.3718 -0.2023 -0.2866
  988MOL0     C30312   1.145  12.374   1.165 -0.5291  0.3607  0.7943
  988MOL0     C30313   1.156  12.518   1.193  0.5181 -0.5159  1.5333
  988MOL0     O30314   1.111  12.565   1.314 -0.5047 -0.1436  0.4441
  988MOL0     C30315   1.101  12.694   1.355 -0.5741  0.0208  1.3585
  988MOL0     C30316   1.147  12.718   1.482 -0.2734  0.4846 -0.1719
  988MOL0     C30317   1.104  12.831   1.548 -0.1280 -0.5978  0.5742
  988MOL0     C30318   1.026  12.930   1.485 -0.1377 -1.2751  0.4337
  988MOL0     O30319   0.976  13.035   1.555 -0.6240 -0.3030 -0.5064
  988MOL0     C30320   1.018  13.170   1.516 -0.2020  0.2885 -0.7791
  988MOL0     C30321   0.935  13.287   1.563  0.8705 -0.1833  0.0145
  988MOL0     C30322   0.809  13.308   1.487 -0.6960  0.1335 -0.1300
  988MOL0     C30323   0.725  13.398   1.565  1.4608 -0.7767  0.2663
  988MOL0     C30324   0.600  13.416   1.473 -0.2875 -0.6498  0.1346
  988MOL0     C30325   0.506  13.503   1.556  0.3561  0.4044  0.2924
  988MOL0     C30326   0.531  13.648   1.574 -0.9771  0.4675 -0.3341
  988MOL0     C30327   0.562  13.667   1.723 -0.0036  1.1400 -0.2934
  988MOL0    Cl30328   0.581  13.843   1.765  0.1916 -0.5267  0.2740
  988MOL0     C30329   1.003  12.917   1.348 -0.5199 -1.0978  0.3819
  988MOL0     C30330   1.034  12.793   1.282 -0.8565 -0.4665  0.0710
  988MOL0     O30331   1.206  12.588   1.107  0.0422  0.5637 -0.4443
  988MOL0     C30332   1.136  12.282   1.272  0.4263 -0.2039 -0.2193
  988MOL0     C30333   1.127  12.144   1.248 -1.0745  0.0399 -0.6817
  988MOL0     N30334   1.832  11.771   1.148 -1.1897  0.0153  0.6804
  988MOL0     N30335   1.931  11.728   1.077 -0.6852  0.0420 -0.7607
  988MOL0     C30336   1.708  11.044   1.196  0.1730  1.0160  0.9620
  988MOL0     C30337   1.785  11.008   1.304  0.3285 -1.0340 -0.4760
  988MOL0     C30338   2.093  10.822   1.577 -0.6925 -0.5683 -0.1892
  988MOL0     C30339   2.130  10.689   1.536 -0.1533  0.9168 -0.2647
  988MOL0     C30340   2.204  10.621   1.630  0.0253 -0.5242 -0.1556
  988MOL0     C30341   2.250  10.670   1.745  0.1028  0.4790 -0.7612
  988MOL0     O30342   2.332  10.599   1.836 -0.0495  0.6954  0.5092
  988MOL0     C30343   2.359  10.465   1.809  1.0571  0.3210  0.2444
  988MOL0     C30344   2.241  10.373   1.841 -0.3275 -0.7804 -0.6359
  988MOL0     C30345   2.279  10.240   1.905  0.5066 -1.0155  0.4364
  988MOL0     C30346   2.147  10.172   1.943 -0.7260 -0.1589 -0.7860
  988MOL0     C30347   2.096  10.195   2.080 -0.0172 -0.1479  0.0253
  988MOL0     C30348   2.024  10.212   2.180 -0.1862  0.1057  0.2345
  988MOL0     C30349   2.227  10.804   1.783  0.0631 -0.5503  0.4544
  988MOL0     C30350   2.149  10.884   1.697  0.1045  0.8582 -1.1039
  988MOL0     H30351   1.994  10.802   1.146 -0.9367 -0.8986 -2.8255
  988MOL0     H30352   1.823  10.844   0.958 -0.0484 -2.4527  1.9128
  988MOL0     H30353   1.639  10.929   0.796  1.8862 -1.0774  0.9126
  988MOL0     H30354   1.793  11.022   0.826  0.9068  2.0052  1.7334
  988MOL0     H30355   1.518  11.160   0.800 -0.4750  3.4191 -1.4548
  988MOL0     H30356   1.595  11.110   0.653 -0.8082 -1.7978 -0.1344
  988MOL0     H30357   1.719  11.306   0.855 -1.8451 -2.0076 -0.2811
  988MOL0     H30358   1.644  11.347   0.705 -1.3626 -0.5965  0.3118
  988MOL0     H30359   1.920  11.198   0.727  1.2233  0.4967 -0.6631
  988MOL0     H30360   1.822  11.244   0.582  1.5877  0.3773 -0.6030
  988MOL0     H30361   1.836  11.490   0.675  1.1350  2.5616  0.0202
  988MOL0     H30362   1.999  11.428   0.645 -0.2850  0.1910 -0.7030
  988MOL0     H30363   1.973  11.358   0.913 -1.2465  1.2465  1.7022
  988MOL0     H30364   1.847  11.485   0.903 -1.0964  1.0746 -1.0377
  988MOL0     H30365   2.090  11.552   0.967  1.0116 -0.0716 -0.6072
  988MOL0     H30366   2.130  11.538   0.804  1.3690  3.1044  1.1852
  988MOL0     H30367   1.935  11.684   0.749 -0.4359 -3.0592  0.1865
  988MOL0     H30368   2.073  11.758   0.847  0.0933  0.4156 -3.3442
  988MOL0     H30369   1.733  11.822   0.838 -0.4672  2.7232  1.5215
  988MOL0     H30370   1.595  11.937   0.992 -0.5905  1.0006  0.2004
  988MOL0     H30371   1.658  12.003   1.137  2.8649  1.3666 -2.7161
  988MOL0     H30372   1.574  11.827   1.277  2.2190  1.1013 -1.1962
  988MOL0     H30373   1.497  11.745   1.136  0.2349 -0.9743  0.5751
  988MOL0     H30374   1.351  11.916   1.278  1.3311 -0.6023  0.3780
  988MOL0     H30375   1.435  12.035   1.187  0.4620  0.1816  1.2024
  988MOL0     H30376   1.297  11.797   1.058 -1.0734 -0.5096 -1.8156
  988MOL0     H30377   1.336  11.940   0.967 -1.1390  0.7826 -1.0524
  988MOL0     H30378   1.203  12.148   0.931  1.5405 -0.2754  0.9789
  988MOL0     H30379   1.201  12.368   0.946  3.4444 -0.1907  0.9108
  988MOL0     H30380   1.201  12.641   1.537 -2.7108  0.6452  2.6953
  988MOL0     H30381   1.132  12.846   1.652 -1.1209 -1.2419  0.9471
  988MOL0     H30382   1.016  13.175   1.407 -1.2607  1.8023 -0.7226
  988MOL0     H30383   1.122  13.189   1.545  0.9664 -1.8160 -3.2173
  988MOL0     H30384   1.000  13.376   1.564  0.8148 -0.0155 -3.1029
  988MOL0     H30385   0.904  13.265   1.665  0.0416  1.1893  0.0899
  988MOL0     H30386   0.765  13.207   1.488  2.0672 -1.1718 -0.9304
  988MOL0     H30387   0.825  13.347   1.386  0.1993 -3.7185 -1.6760
  988MOL0     H30388   0.694  13.349   1.657 -0.6342 -3.1385 -1.5513
  988MOL0     H30389   0.776  13.494   1.579  0.7591 -0.2376 -0.7396
  988MOL0     H30390   0.554  13.319   1.454  1.1659 -1.0850 -1.3717
  988MOL0     H30391   0.613  13.460   1.373 -1.6478 -0.5608 -0.0290
  988MOL0     H30392   0.497  13.446   1.649 -0.0743  0.2870  0.1790
  988MOL0     H30393   0.409  13.495   1.507  0.0324 -3.1048  1.2584
  988MOL0     H30394   0.607  13.693   1.509 -2.5410  1.6422 -1.4061
  988MOL0     H30395   0.442  13.704   1.544 -2.0127 -0.5482  0.7743
  988MOL0     H30396   0.648  13.608   1.757  0.8444  1.4175 -1.8665
  988MOL0     H30397   0.476  13.630   1.779  0.5343 -1.5124 -1.0953
  988MOL0     H30398   0.942  12.992   1.300 -0.0433  0.4969  2.1646
  988MOL0     H30399   0.993  12.774   1.184  0.0098 -0.8391 -0.2260
  988MOL0     H30400   1.124  12.319   1.373  1.6389 -0.7327  0.1454
  988MOL0     H30401   1.110  12.078   1.332  1.2207 -0.8267 -0.8402
  988MOL0     H30402   1.636  11.121   1.224 -3.8831 -1.8307 -0.6079
  988MOL0     H30403   1.756  11.037   1.404 -1.2499 -1.3413 -0.8165
  988MOL0     H30404   2.112  10.652   1.436 -2.2063  3.3503 -0.9184
  988MOL0     H30405   2.228  10.521   1.596 -2.3918 -0.5338 -2.1114
  988MOL0     H30406   2.443  10.426   1.867 -0.4154  0.4748  2.6053
  988MOL0     H30407   2.389  10.455   1.704  1.5247  1.8151  0.2133
  988MOL0     H30408   2.196  10.415   1.932  1.0214 -0.2754 -0.1858
  988MOL0     H30409   2.171  10.360   1.758  0.5453 -1.0066 -1.3450
  988MOL0     H30410   2.331  10.264   1.998  0.5862  2.2415 -0.3478
  988MOL0     H30411   2.330  10.178   1.830  0.6793  0.6187 -0.8529
  988MOL0     H30412   2.064  10.181   1.872 -0.1968 -2.5791 -1.8121
  988MOL0     H30413   2.161  10.064   1.941  0.4972 -0.0685  0.8777
  988MOL0     H30414   1.949  10.213   2.257  1.7599  2.9431  2.3309
  988MOL0     H30415   2.259  10.838   1.881 -0.4428 -0.8735  0.7354
  988MOL0     H30416   2.141  10.990   1.719 -0.8899  0.4563  0.6534
  989MOL0     O30417  11.287   8.829   8.350  0.5192 -0.0267 -0.8072
  989MOL0     C30418  11.284   8.708   8.365 -1.0015 -0.4946  0.4435
  989MOL0     O30419  11.268   8.620   8.256 -0.1726  0.0959  0.2864
  989MOL0     C30420  11.292   8.671   8.129  0.3819 -0.3290 -0.1964
  989MOL0     C30421  11.391   8.615   8.052 -0.0547  0.4580 -0.8821
  989MOL0     C30422  11.422   8.666   7.927  0.0568  0.3646 -0.1056
  989MOL0     C30423  11.349   8.786   7.881  0.1277  0.7111  0.1094
  989MOL0     O30424  11.377   8.858   7.771  0.4176  0.4950 -0.0138
  989MOL0     C30425  11.471   8.793   7.670 -0.7264 -0.2509 -0.4480
  989MOL0     C30426  11.448   8.854   7.532  0.6486 -0.2054  0.3144
  989MOL0     C30427  11.301   8.845   7.500 -0.0363  0.3616 -0.1392
  989MOL0     C30428  11.283   8.850   7.354 -0.2992  0.3628  0.4076
  989MOL0     C30429  11.132   8.866   7.306 -0.1677  0.6295  0.7553
  989MOL0     C30430  11.051   8.730   7.300  0.4492 -1.0607 -0.3484
  989MOL0     C30431  10.981   8.712   7.438 -0.9777 -0.5899  0.3460
  989MOL0     C30432  10.906   8.583   7.446  0.3247 -0.2512  0.0701
  989MOL0     N30433  10.854   8.569   7.576 -0.0227 -0.0301 -0.2090
  989MOL0     C30434  10.916   8.568   7.694  0.5878  0.0696  0.3319
  989MOL0     C30435  10.818   8.518   7.784  0.9353 -0.9827 -0.2207
  989MOL0     C30436  10.849   8.490   7.927  0.5134  0.2380  0.5228
  989MOL0     C30437  10.894   8.600   8.032  0.1769 -0.4460 -0.5623
  989MOL0     C30438  10.849   8.559   8.179  0.2002 -0.9154  0.0930
  989MOL0     C30439  10.886   8.675   8.285 -0.3710  0.0269  0.3641
  989MOL0     O30440  10.842   8.637   8.420 -0.2693  0.1007  0.6008
  989MOL0     C30441  10.869   8.723   8.529 -0.4547  0.2787 -0.2197
  989MOL0     C30442  10.924   8.850   8.526 -0.1434  0.8322  0.2594
  989MOL0     C30443  10.957   8.926   8.635 -0.3318 -0.5218  0.1886
  989MOL0     C30444  10.924   8.885   8.765  0.1483 -0.2490 -0.5646
  989MOL0     C30445  10.950   8.961   8.892  0.1239 -0.2965  0.2056
  989MOL0     O30446  10.896   8.900   9.003  0.8984 -0.6509  0.9918
  989MOL0     C30447  10.916   8.961   9.125  0.9476  0.1294 -0.6525
  989MOL0     C30448  10.953   8.884   9.235  0.0313 -0.7603  0.7351
  989MOL0     C30449  10.992   8.938   9.355 -1.4535 -1.6431 -0.3597
  989MOL0     C30450  10.969   9.078   9.377  0.0562 -0.0967  0.2050
  989MOL0     O30451  10.985   9.122   9.499  0.7218 -0.1786  0.1466
  989MOL0     C30452  11.014   9.262   9.505  0.1164  0.4803  0.0118
  989MOL0     C30453  11.075   9.277   9.651 -0.8448 -0.4951  0.2295
  989MOL0     C30454  11.217   9.207   9.665  0.4159 -0.6532 -0.2051
  989MOL0     C30455  11.320   9.300   9.591 -0.6698  0.5401  0.2457
  989MOL0     C30456  11.334   9.436   9.663 -0.1318  0.1342  0.3387
  989MOL0     C30457  11.448   9.522   9.609 -0.6934 -0.7300 -0.1268
  989MOL0     C30458  11.458   9.666   9.684  0.0945  0.4814  0.3819
  989MOL0     C30459  11.576   9.746   9.623  0.0460  0.1340  0.4151
  989MOL0    Cl30460  11.527   9.782   9.464 -0.4528 -0.0426 -0.3463
  989MOL0     C30461  10.912   9.151   9.268 -0.7307  0.2142  0.3331
  989MOL0     C30462  10.885   9.094   9.151  0.5957  0.7214  0.7031
  989MOL0     O30463  11.026   9.056   8.890  0.2019  0.1909 -0.3040
  989MOL0     C30464  10.867   8.751   8.776  0.2465 -0.1325  0.1737
  989MOL0     C30465  10.849   8.669   8.665 -0.7217 -0.1681  0.2930
  989MOL0     N30466  10.697   8.501   7.719 -0.1961 -0.5983 -0.1511
  989MOL0     N30467  10.721   8.533   7.599 -0.3431  0.0472  0.5305
  989MOL0     C30468  11.251   8.841   7.958 -0.6062  0.5078  0.0291
  989MOL0     C30469  11.218   8.774   8.073 -0.1068  0.8402 -0.0310
  989MOL0     C30470  11.279   8.661   8.508 -0.0276 -0.1998 -0.5549
  989MOL0     C30471  11.322   8.755   8.608 -0.6192  0.5466  0.0954
  989MOL0     C30472  11.318   8.709   8.740  0.6071  0.5688  0.7434
  989MOL0     C30473  11.259   8.581   8.777 -0.6055  0.7753  0.1701
  989MOL0     O30474  11.246   8.543   8.908  0.2044  0.1466  0.9062
  989MOL0     C30475  11.122   8.589   8.975  0.2696  0.4167 -0.1358
  989MOL0     C30476  11.052   8.472   9.054 -0.7129  0.1525 -0.1453
  989MOL0     C30477  11.007   8.377   8.942 -0.9142  0.0469  0.0661
  989MOL0     C30478  10.900   8.280   8.995 -0.7056  0.8701 -0.1439
  989MOL0     C30479  10.944   8.204   9.111 -0.0633 -0.5973 -0.0327
  989MOL0     C30480  10.994   8.126   9.192 -1.0005 -0.6764  0.6184
  989MOL0     C30481  11.228   8.487   8.680  0.5674 -0.7608  0.0544
  989MOL0     C30482  11.242   8.524   8.544 -0.1202 -0.7239 -0.2094
  989MOL0     H30483  11.461   8.545   8.096 -1.2780  0.0737  0.5355
  989MOL0     H30484  11.508   8.625   7.875 -0.1531  0.9520 -0.9266
  989MOL0     H30485  11.439   8.691   7.648 -1.5063  0.1091 -1.0682
  989MOL0     H30486  11.576   8.797   7.698 -1.5802 -0.3332  3.3255
  989MOL0     H30487  11.505   8.796   7.458  0.2368  2.3606 -2.1715
  989MOL0     H30488  11.493   8.952   7.514 -2.4426  0.9861 -1.7700
  989MOL0     H30489  11.243   8.926   7.544  0.2662  1.6376 -2.0045
  989MOL0     H30490  11.260   8.753   7.544  1.6921 -1.9771 -3.0185
  989MOL0     H30491  11.336   8.933   7.307  1.4423  0.8635  3.0498
  989MOL0     H30492  11.327   8.758   7.313 -2.1428 -1.1429  1.6288
  989MOL0     H30493  11.139   8.885   7.199 -3.4369  0.8067  0.4676
  989MOL0     H30494  11.088   8.958   7.346  1.3150  1.7912 -0.1656
  989MOL0     H30495  11.106   8.640   7.272  0.0551 -1.7657  1.0484
  989MOL0     H30496  10.969   8.750   7.231  2.0373  1.7860 -1.5930
  989MOL0     H30497  11.050   8.733   7.520  0.1312 -0.8581 -0.4924
  989MOL0     H30498  10.894   8.779   7.441 -0.9230 -0.5078  0.1730
  989MOL0     H30499  10.975   8.498   7.439 -1.3566 -1.6037 -0.8351
  989MOL0     H30500  10.832   8.576   7.366 -0.3299  1.4850  0.4696
  989MOL0     H30501  11.020   8.582   7.719  0.2826 -0.5018  2.0367
  989MOL0     H30502  10.941   8.431   7.923  1.1477  1.2680 -0.8991
  989MOL0     H30503  10.767   8.432   7.972 -2.4387  3.3359 -0.4678
  989MOL0     H30504  10.850   8.694   7.996  3.3202  2.3013  2.1232
  989MOL0     H30505  11.002   8.615   8.038  0.1072 -0.2220  0.3018
  989MOL0     H30506  10.740   8.543   8.178 -0.2398  0.5626  4.5116
  989MOL0     H30507  10.910   8.474   8.210 -0.7989 -1.1037  1.6593
  989MOL0     H30508  10.835   8.769   8.260 -0.8577  0.0034  1.2288
  989MOL0     H30509  10.990   8.708   8.272 -0.7957  0.7023 -1.7245
  989MOL0     H30510  10.946   8.878   8.423  2.2545 -2.5193 -0.3090
  989MOL0     H30511  11.014   9.016   8.615 -0.9910  0.2649  1.6972
  989MOL0     H30512  10.976   8.780   9.211  0.4976 -0.1807 -1.5044
  989MOL0     H30513  11.030   8.881   9.439  2.4363  1.5839  0.3744
  989MOL0     H30514  10.922   9.321   9.504  0.0977  0.4510 -0.6376
  989MOL0     H30515  11.090   9.292   9.432  0.3240 -0.9430 -0.3927
  989MOL0     H30516  10.995   9.246   9.719 -2.0378  3.0871  0.6749
  989MOL0     H30517  11.086   9.384   9.667  1.8500 -0.5996 -0.4135
  989MOL0     H30518  11.225   9.102   9.636  3.4769 -0.4282 -0.4736
  989MOL0     H30519  11.230   9.211   9.773 -4.7401  2.0731  0.6612
  989MOL0     H30520  11.419   9.253   9.601 -0.0825  1.7438  0.2286
  989MOL0     H30521  11.306   9.315   9.483  0.5380 -0.1480 -0.0338
  989MOL0     H30522  11.353   9.424   9.770 -1.2768 -2.5464  0.3086
  989MOL0     H30523  11.244   9.497   9.657 -0.4297 -0.2526  0.7868
  989MOL0     H30524  11.451   9.540   9.501  1.1216 -1.9071 -0.3158
  989MOL0     H30525  11.549   9.483   9.624 -1.0247 -1.1258  1.2379
  989MOL0     H30526  11.367   9.722   9.661  0.5711  2.4154  2.8107
  989MOL0     H30527  11.473   9.656   9.791  1.7457  2.1775  0.3551
  989MOL0     H30528  11.668   9.688   9.614 -0.3468 -0.0980 -4.6011
  989MOL0     H30529  11.588   9.840   9.679 -1.5907  1.6012 -1.5729
  989MOL0     H30530  10.902   9.257   9.290  2.8594  0.7860 -0.2007
  989MOL0     H30531  10.858   9.163   9.072 -3.2918 -2.5800 -1.2791
  989MOL0     H30532  10.849   8.711   8.875  1.7007 -1.2731  0.0090
  989MOL0     H30533  10.807   8.572   8.691 -1.2864 -0.3116 -1.0330
  989MOL0     H30534  11.202   8.926   7.911 -0.9707  1.2100  1.5980
  989MOL0     H30535  11.123   8.806   8.114  0.9416  3.5112  0.4890
  989MOL0     H30536  11.369   8.849   8.582 -2.0653  0.3139 -4.2980
  989MOL0     H30537  11.342   8.781   8.818  2.4116  1.4821 -0.5763
  989MOL0     H30538  11.051   8.623   8.899 -1.9636 -1.4580  0.9519
  989MOL0     H30539  11.130   8.675   9.042  0.6268 -0.1333  0.5467
  989MOL0     H30540  11.125   8.433   9.125 -1.3457 -0.5549  0.1369
  989MOL0     H30541  10.964   8.514   9.103 -0.9546 -0.1921 -0.2773
  989MOL0     H30542  11.083   8.305   8.911 -1.9741 -0.6465 -1.0486
  989MOL0     H30543  10.969   8.434   8.857 -0.5231 -1.2363 -0.9917
  989MOL0     H30544  10.804   8.328   9.013 -1.5506 -0.7223 -0.2028
  989MOL0     H30545  10.884   8.201   8.921 -1.7541 -0.1947  1.1722
  989MOL0     H30546  11.044   8.067   9.267 -0.5299 -1.9236 -0.6306
  989MOL0     H30547  11.198   8.384   8.695 -0.1286 -0.5397  0.2188
  989MOL0     H30548  11.204   8.461   8.464 -0.7349 -0.0756 -0.4365
  990MOL0     O30549   4.780   0.307   4.217 -0.5071 -0.0435  0.5411
  990MOL0     C30550   4.718   0.232   4.146  0.3666 -0.4906 -0.5083
  990MOL0     O30551   4.774   0.133   4.069 -0.5857 -0.1349 -0.9660
  990MOL0     C30552   4.914   0.104   4.062  0.5895  0.2419  0.7675
  990MOL0     C30553   5.023   0.161   4.130  0.0006  0.4820 -0.3606
  990MOL0     C30554   5.149   0.124   4.090 -0.9118 -0.4608  0.2665
  990MOL0     C30555   5.181   0.032   3.985 -0.1142  0.3008 -0.4186
  990MOL0     O30556   5.313   0.002   3.973  0.3434  0.8474  0.8811
  990MOL0     C30557   5.343  -0.132   3.918  0.1605  0.4052  0.2192
  990MOL0     C30558   5.490  -0.154   3.948  0.3249  0.7861  0.6728
  990MOL0     C30559   5.572  -0.058   3.865 -0.1460  0.3592 -0.5460
  990MOL0     C30560   5.716  -0.111   3.855 -0.0472  0.4885 -0.2752
  990MOL0     C30561   5.774  -0.058   3.717  0.7781  0.1818  0.4576
  990MOL0     C30562   5.905  -0.117   3.683 -0.4277  0.3048  0.3778
  990MOL0     C30563   6.019  -0.018   3.699 -0.7359 -0.2358  0.0223
  990MOL0     C30564   6.145  -0.085   3.681 -0.7721  0.4010 -1.0883
  990MOL0     N30565   6.247   0.004   3.739  0.2929 -0.4709  0.0918
  990MOL0     C30566   6.312   0.104   3.679  0.0784  0.7720  0.3916
  990MOL0     C30567   6.401   0.149   3.770  0.2916  0.9807 -0.5113
  990MOL0     C30568   6.520   0.234   3.755  0.3586  0.0722 -0.1952
  990MOL0     C30569   6.616   0.180   3.646 -0.4710  0.2659 -0.0551
  990MOL0     C30570   6.675   0.031   3.691 -0.0382 -0.9375  0.4076
  990MOL0     C30571   6.790   0.001   3.586 -0.7571  0.6923 -0.6935
  990MOL0     O30572   6.832  -0.133   3.613 -0.9997 -0.1495  0.1584
  990MOL0     C30573   6.761  -0.245   3.571 -0.8925 -0.1680 -0.4403
  990MOL0     C30574   6.668  -0.245   3.476 -0.8789  0.5727 -0.3215
  990MOL0     C30575   6.603  -0.373   3.449  0.7442 -1.1819 -0.1704
  990MOL0     C30576   6.638  -0.492   3.510  0.6690 -0.0387  0.2243
  990MOL0     C30577   6.556  -0.607   3.488 -0.5124  0.1383 -0.7494
  990MOL0     O30578   6.426  -0.604   3.433 -0.5269  0.4643 -0.5810
  990MOL0     C30579   6.355  -0.730   3.415  0.2717  1.0141  0.0109
  990MOL0     C30580   6.261  -0.736   3.315  0.6534 -0.5520  0.7120
  990MOL0     C30581   6.170  -0.837   3.317  0.7285  0.0087  0.1702
  990MOL0     C30582   6.176  -0.950   3.406  0.2901 -0.0025  0.3173
  990MOL0     O30583   6.085  -1.057   3.406 -0.0313 -0.4604 -0.5112
  990MOL0     C30584   5.990  -1.081   3.302  0.3220  0.5999 -0.3351
  990MOL0     C30585   5.850  -1.028   3.345 -0.6768 -0.6847  0.0276
  990MOL0     C30586   5.749  -1.085   3.249 -0.2922  0.1250  0.6060
  990MOL0     C30587   5.598  -1.050   3.292 -0.2311 -0.5454 -0.7049
  990MOL0     C30588   5.500  -1.053   3.177 -0.2899 -0.4843  0.9259
  990MOL0     C30589   5.525  -0.943   3.080 -0.1365  1.0366  0.7729
  990MOL0     C30590   5.426  -0.908   2.968 -0.7231  0.1775 -0.3117
  990MOL0     C30591   5.502  -0.807   2.872  0.0540 -0.3406 -0.4415
  990MOL0    Cl30592   5.605  -0.883   2.743 -0.3811 -0.3695  0.0946
  990MOL0     C30593   6.282  -0.953   3.488  0.5975 -0.4873  0.3857
  990MOL0     C30594   6.366  -0.842   3.501  0.0659 -0.1974  0.8147
  990MOL0     O30595   6.620  -0.708   3.505  0.0487 -0.2440  0.0459
  990MOL0     C30596   6.747  -0.484   3.599 -0.9693 -0.2878 -0.4056
  990MOL0     C30597   6.811  -0.365   3.622 -0.0512  0.0910  0.9798
  990MOL0     N30598   6.380   0.075   3.885  0.5222  0.5404 -0.9266
  990MOL0     N30599   6.288  -0.009   3.865 -0.3674 -0.4617  0.8815
  990MOL0     C30600   5.070  -0.030   3.922 -0.4933  0.4201  0.2190
  990MOL0     C30601   4.946   0.006   3.967  0.0253 -0.7025 -0.4146
  990MOL0     C30602   4.573   0.255   4.124 -0.3399 -0.6084  0.0104
  990MOL0     C30603   4.502   0.355   4.191 -0.2801  0.7427 -0.8844
  990MOL0     C30604   4.360   0.363   4.185 -0.4620 -0.1824  0.4250
  990MOL0     C30605   4.294   0.282   4.093  0.3669  0.0411 -0.5265
  990MOL0     O30606   4.162   0.301   4.072 -1.1676 -0.8624  0.5611
  990MOL0     C30607   4.107   0.258   3.950  0.2954  0.0721 -0.9671
  990MOL0     C30608   3.965   0.316   3.926 -0.4262 -0.3825 -0.6417
  990MOL0     C30609   3.977   0.472   3.957 -0.9719  0.0814  0.5321
  990MOL0     C30610   3.850   0.549   3.921  0.5527 -0.3274  0.0730
  990MOL0     C30611   3.869   0.696   3.956  0.2924 -0.0609 -0.2743
  990MOL0     C30612   3.890   0.806   3.986 -0.2129 -1.6551 -0.1193
  990MOL0     C30613   4.364   0.192   4.028 -0.0608  0.1907  0.9039
  990MOL0     C30614   4.499   0.169   4.038  0.0662 -0.5691  0.1311
  990MOL0     H30615   5.011   0.230   4.213  1.0006 -0.6748  0.8108
  990MOL0     H30616   5.234   0.183   4.124 -0.5292 -1.7764  1.7353
  990MOL0     H30617   5.320  -0.123   3.812 -0.1916 -1.5358  0.0936
  990MOL0     H30618   5.297  -0.215   3.972  1.4067  1.9004  3.9545
  990MOL0     H30619   5.515  -0.258   3.925  0.8007  1.0093  0.1659
  990MOL0     H30620   5.513  -0.147   4.055  0.0234 -1.9199  0.9806
  990MOL0     H30621   5.568   0.036   3.921 -1.1479 -1.5187  2.8891
  990MOL0     H30622   5.535  -0.045   3.763  2.5593  0.4833 -1.5677
  990MOL0     H30623   5.779  -0.072   3.935 -0.0499  1.5710 -0.7781
  990MOL0     H30624   5.708  -0.220   3.855  1.3312  0.3702 -0.4802
  990MOL0     H30625   5.780   0.051   3.723  1.0169  0.1958 -0.0086
  990MOL0     H30626   5.701  -0.069   3.637 -1.1629  3.0430  1.6694
  990MOL0     H30627   5.903  -0.147   3.578  0.5840  4.7549 -1.1372
  990MOL0     H30628   5.927  -0.198   3.753  0.3802  1.3143  1.3264
  990MOL0     H30629   5.998   0.055   3.620  2.9253  1.7859  0.6954
  990MOL0     H30630   6.020   0.045   3.788 -1.6774  2.0171 -1.4685
  990MOL0     H30631   6.166  -0.112   3.576 -2.2639  1.1549 -1.6036
  990MOL0     H30632   6.146  -0.180   3.735 -1.2369 -0.6119 -2.7734
  990MOL0     H30633   6.290   0.138   3.578 -2.0898 -3.3406 -0.7203
  990MOL0     H30634   6.569   0.230   3.853  0.1006  0.4665 -0.0462
  990MOL0     H30635   6.483   0.333   3.726 -0.1188 -0.0022  0.1412
  990MOL0     H30636   6.705   0.242   3.637  0.6421 -0.9679  1.6143
  990MOL0     H30637   6.567   0.173   3.549  0.3912 -0.2710 -0.4578
  990MOL0     H30638   6.720   0.037   3.791  0.8002 -4.9225  0.4387
  990MOL0     H30639   6.594  -0.042   3.704 -0.6688 -0.0365  1.8939
  990MOL0     H30640   6.869   0.076   3.601  0.2903 -0.1291 -1.9302
  990MOL0     H30641   6.769   0.008   3.479  3.5287  0.5764 -1.6995
  990MOL0     H30642   6.631  -0.153   3.431 -0.7474 -0.6455 -3.0925
  990MOL0     H30643   6.509  -0.362   3.396  1.2166 -0.5009 -0.8897
  990MOL0     H30644   6.249  -0.650   3.250 -0.6825 -0.3905  1.1426
  990MOL0     H30645   6.098  -0.814   3.239  1.2049  0.7654 -0.0566
  990MOL0     H30646   5.987  -1.191   3.306  1.2844  0.5985  1.6430
  990MOL0     H30647   6.016  -1.050   3.201 -1.5541 -3.0263 -2.1405
  990MOL0     H30648   5.846  -0.920   3.332 -3.1462 -0.7618 -0.3718
  990MOL0     H30649   5.844  -1.061   3.449  0.3770  1.9224  0.9860
  990MOL0     H30650   5.768  -1.191   3.224  2.5988  0.4104  1.2029
  990MOL0     H30651   5.779  -1.034   3.157 -1.1424  3.5689  2.1162
  990MOL0     H30652   5.577  -1.126   3.368  1.0416 -0.9885 -0.7592
  990MOL0     H30653   5.606  -0.951   3.338  0.2631 -0.2562 -1.4098
  990MOL0     H30654   5.397  -1.044   3.211 -0.4928 -0.4238  0.3185
  990MOL0     H30655   5.489  -1.153   3.135 -1.9082 -0.8658  2.1633
  990MOL0     H30656   5.614  -0.980   3.028  0.8737 -1.2498  3.8711
  990MOL0     H30657   5.543  -0.852   3.137  0.3923 -0.2750  2.7823
  990MOL0     H30658   5.398  -1.000   2.917 -0.2094 -2.2616  3.4416
  990MOL0     H30659   5.336  -0.858   3.005  0.6968  3.1222 -0.5141
  990MOL0     H30660   5.576  -0.746   2.926 -1.0201  0.5773  0.0325
  990MOL0     H30661   5.421  -0.756   2.820 -1.8949  0.3756  2.9883
  990MOL0     H30662   6.296  -1.043   3.548  1.1025  0.6329  2.0223
  990MOL0     H30663   6.433  -0.859   3.585 -0.2546  1.2363  1.3971
  990MOL0     H30664   6.779  -0.580   3.641 -2.6474 -0.9754 -0.6292
  990MOL0     H30665   6.897  -0.356   3.687  0.6520  2.6894 -0.1602
  990MOL0     H30666   5.069  -0.103   3.842 -0.6851  0.9951 -0.3114
  990MOL0     H30667   4.866  -0.034   3.906 -1.7044 -0.0906  1.3266
  990MOL0     H30668   4.557   0.421   4.257 -2.1515  1.6252 -0.1589
  990MOL0     H30669   4.300   0.425   4.250  1.7757 -0.4665  2.9519
  990MOL0     H30670   4.096   0.150   3.935 -2.3473  0.2888 -1.1183
  990MOL0     H30671   4.173   0.301   3.874  0.6323  0.8705 -0.2393
  990MOL0     H30672   3.956   0.306   3.818 -0.9167 -0.4680 -0.5952
  990MOL0     H30673   3.888   0.266   3.985 -0.0314 -1.3756 -0.9609
  990MOL0     H30674   4.065   0.506   3.901 -1.2303 -2.8999 -2.0227
  990MOL0     H30675   4.000   0.492   4.062  0.3393  0.1500  0.2549
  990MOL0     H30676   3.824   0.535   3.815 -1.4388  0.0931  0.4697
  990MOL0     H30677   3.776   0.513   3.992  0.4304  2.5375  1.5069
  990MOL0     H30678   3.916   0.908   4.009 -1.4051 -1.0131 -1.4579
  990MOL0     H30679   4.303   0.125   3.968 -0.9116 -0.7222  2.7108
  990MOL0     H30680   4.552   0.088   3.987 -0.3513 -1.4000  0.9824
  991MOL0     O30681   3.835  10.286  10.194  0.1439 -0.0604 -0.1975
  991MOL0     C30682   3.767  10.240  10.099  0.2409  0.3104 -0.0781
  991MOL0     O30683   3.810  10.248   9.973 -0.5160 -0.5061  0.2663
  991MOL0     C30684   3.939  10.286   9.930 -0.3199  0.5655 -0.9238
  991MOL0     C30685   3.953  10.389   9.838 -0.1360 -0.1386 -0.5809
  991MOL0     C30686   4.088  10.434   9.819  0.4568 -1.1286  0.2342
  991MOL0     C30687   4.199  10.376   9.885 -0.0048 -1.2645 -0.4196
  991MOL0     O30688   4.323  10.414   9.870 -0.7478  0.2412  0.4737
  991MOL0     C30689   4.364  10.509   9.766 -0.7193 -0.9563  0.0723
  991MOL0     C30690   4.380  10.647   9.838  0.6539  0.6415  0.0978
  991MOL0     C30691   4.465  10.755   9.776 -0.1471 -0.9057  0.8134
  991MOL0     C30692   4.586  10.698   9.702  0.1010 -0.3701  0.2041
  991MOL0     C30693   4.660  10.817   9.642  0.1905 -0.3121 -1.0392
  991MOL0     C30694   4.797  10.771   9.575  0.4655 -0.0231 -0.0194
  991MOL0     C30695   4.885  10.888   9.547  0.7505 -0.4933  1.1159
  991MOL0     C30696   4.888  10.950   9.402 -0.8465  0.3691 -0.1257
  991MOL0     N30697   4.760  11.014   9.379 -0.3088  0.2449  0.6127
  991MOL0     C30698   4.667  10.950   9.308  1.1506  0.3021 -0.4342
  991MOL0     C30699   4.561  11.035   9.308  0.2365 -0.0497 -0.7540
  991MOL0     C30700   4.443  11.012   9.213 -0.1291 -0.4530  0.1432
  991MOL0     C30701   4.377  10.874   9.242  0.3111 -0.5992 -0.6141
  991MOL0     C30702   4.309  10.885   9.373  0.1011  0.1114  0.0613
  991MOL0     C30703   4.260  10.744   9.435  0.3662 -1.8164  0.1616
  991MOL0     O30704   4.204  10.777   9.563  0.6609  1.1646  0.2532
  991MOL0     C30705   4.061  10.777   9.583 -0.2730  0.9424  0.3649
  991MOL0     C30706   3.968  10.747   9.483  0.1206  0.0116  1.9319
  991MOL0     C30707   3.836  10.724   9.513  0.6905 -0.4584 -0.4961
  991MOL0     C30708   3.787  10.740   9.645 -0.0017 -0.6951  0.8927
  991MOL0     C30709   3.642  10.721   9.684  0.1419  0.2699 -0.5319
  991MOL0     O30710   3.551  10.682   9.584  0.3229 -0.0707 -0.3276
  991MOL0     C30711   3.420  10.681   9.625  0.5081 -0.1607 -0.6324
  991MOL0     C30712   3.364  10.570   9.694 -0.8019 -1.0223  0.4925
  991MOL0     C30713   3.230  10.586   9.720  0.1452  0.7971  0.0762
  991MOL0     C30714   3.146  10.689   9.685  0.5930 -1.6594  0.4317
  991MOL0     O30715   3.012  10.677   9.716  0.0400 -0.1617 -0.0915
  991MOL0     C30716   2.914  10.781   9.693  0.0254  1.1181 -0.3080
  991MOL0     C30717   2.932  10.893   9.800 -0.3856  0.3795 -0.5978
  991MOL0     C30718   2.855  11.027   9.778  0.4585 -0.1845  0.4826
  991MOL0     C30719   2.712  11.013   9.719 -0.2394 -0.0030  0.1157
  991MOL0     C30720   2.659  11.139   9.655 -0.0220  1.0089  0.0764
  991MOL0     C30721   2.610  11.233   9.752  0.8647  0.2956 -1.0526
  991MOL0     C30722   2.607  11.382   9.708 -0.2256 -0.1777  0.6616
  991MOL0     C30723   2.552  11.480   9.813 -0.4205 -0.1242  0.5835
  991MOL0    Cl30724   2.381  11.448   9.850  0.0595  0.1528  0.1259
  991MOL0     C30725   3.200  10.787   9.607 -1.1192 -0.9461 -1.5937
  991MOL0     C30726   3.339  10.782   9.580 -0.0288  0.1517  0.0494
  991MOL0     O30727   3.619  10.749   9.796 -0.4554 -0.4531 -0.7315
  991MOL0     C30728   3.880  10.767   9.745  0.3390 -0.3930  0.1608
  991MOL0     C30729   4.014  10.775   9.717  0.6638 -1.2135  0.0476
  991MOL0     N30730   4.602  11.150   9.380  0.1262 -0.1606  0.2219
  991MOL0     N30731   4.723  11.137   9.423  0.3626 -0.6021 -0.4949
  991MOL0     C30732   4.176  10.271   9.974 -0.2316 -0.3327 -0.9979
  991MOL0     C30733   4.049  10.230   9.997  0.1567  0.6209 -0.0574
  991MOL0     C30734   3.631  10.182  10.122  0.0241  0.1995 -1.4377
  991MOL0     C30735   3.609  10.115  10.242 -0.2288 -0.7221 -0.3201
  991MOL0     C30736   3.482  10.071  10.277 -0.0954 -0.0882 -0.5887
  991MOL0     C30737   3.388  10.075  10.187  0.7912  0.4651 -0.0089
  991MOL0     O30738   3.269  10.022  10.232 -0.2390  0.0507  0.4089
  991MOL0     C30739   3.152  10.048  10.153  0.4071 -1.4587 -0.7673
  991MOL0     C30740   3.022   9.998  10.222  0.5108  0.5736  0.4034
  991MOL0     C30741   2.898  10.025  10.134  0.9135  0.7382 -0.0094
  991MOL0     C30742   2.758   9.972  10.178  0.9733  1.0615 -0.2960
  991MOL0     C30743   2.763   9.833  10.223 -0.3337 -0.1071  0.0599
  991MOL0     C30744   2.759   9.717  10.258  0.1368 -0.3008  0.3850
  991MOL0     C30745   3.410  10.127  10.059 -0.0023  0.5074 -0.5653
  991MOL0     C30746   3.530  10.176  10.027 -0.4497 -0.7437  0.3920
  991MOL0     H30747   3.865  10.435   9.795 -0.9902  1.3591  2.4688
  991MOL0     H30748   4.089  10.527   9.764 -0.7689  0.9159  3.4050
  991MOL0     H30749   4.284  10.517   9.692 -1.2643  0.0312  0.7407
  991MOL0     H30750   4.454  10.462   9.725 -2.2424 -3.6213 -0.4870
  991MOL0     H30751   4.398  10.636   9.945  0.2296 -0.1715  0.0955
  991MOL0     H30752   4.276  10.679   9.852  0.3097 -0.7243  0.8276
  991MOL0     H30753   4.501  10.824   9.853  1.3501  0.5652 -1.0948
  991MOL0     H30754   4.407  10.819   9.709  2.1732  2.0659  1.4408
  991MOL0     H30755   4.651  10.637   9.766  1.3650 -0.7299 -1.3409
  991MOL0     H30756   4.568  10.637   9.613  2.2216 -0.5785 -0.1448
  991MOL0     H30757   4.680  10.890   9.721 -2.2037  1.6339 -2.0927
  991MOL0     H30758   4.596  10.858   9.563 -2.3130 -0.6004  0.7342
  991MOL0     H30759   4.783  10.718   9.480  3.4836 -0.8289 -0.1041
  991MOL0     H30760   4.832  10.685   9.634  0.9575 -0.0395 -0.3341
  991MOL0     H30761   4.858  10.963   9.622  1.2273 -3.1771  4.2218
  991MOL0     H30762   4.989  10.859   9.563  1.2918  1.4977  1.4246
  991MOL0     H30763   4.922  10.879   9.326  2.4450  0.5255  1.0107
  991MOL0     H30764   4.975  11.017   9.408  0.2737 -1.0511  5.2692
  991MOL0     H30765   4.674  10.850   9.268  3.4184  0.0765  0.4153
  991MOL0     H30766   4.477  11.025   9.110  1.3948  2.6783  0.9319
  991MOL0     H30767   4.371  11.094   9.215 -0.4555 -0.5815 -2.3766
  991MOL0     H30768   4.460  10.802   9.242 -0.6689 -1.7730 -1.5532
  991MOL0     H30769   4.301  10.861   9.165 -0.0147  1.7804 -0.7808
  991MOL0     H30770   4.386  10.918   9.443 -0.9227 -1.1179  1.8773
  991MOL0     H30771   4.232  10.962   9.375  0.2572  0.6697 -4.5960
  991MOL0     H30772   4.347  10.679   9.448  2.6986  1.2258  0.6558
  991MOL0     H30773   4.187  10.689   9.373  1.1304 -0.5953 -1.9435
  991MOL0     H30774   4.000  10.746   9.379  2.3850  0.4817  2.5559
  991MOL0     H30775   3.771  10.703   9.429  1.8254  1.7489 -2.0472
  991MOL0     H30776   3.427  10.486   9.722  0.3208  0.1121  1.4298
  991MOL0     H30777   3.180  10.506   9.775 -0.0520  1.0044  0.2014
  991MOL0     H30778   2.813  10.738   9.694  0.4765 -0.0480 -1.7088
  991MOL0     H30779   2.936  10.828   9.597 -1.2325  2.2664 -0.0674
  991MOL0     H30780   3.033  10.936   9.802 -0.1726 -0.1179  1.8145
  991MOL0     H30781   2.912  10.852   9.899 -0.3189 -0.5599 -0.9689
  991MOL0     H30782   2.915  11.082   9.704  0.0217 -0.2093  0.1061
  991MOL0     H30783   2.854  11.088   9.869  2.5123 -0.6639  0.8903
  991MOL0     H30784   2.718  10.931   9.647 -2.1572 -1.7970  1.8718
  991MOL0     H30785   2.646  10.971   9.795  0.4361  1.3755  1.5187
  991MOL0     H30786   2.574  11.123   9.587 -1.1115 -1.3651  1.8139
  991MOL0     H30787   2.744  11.165   9.592 -0.0875 -2.4904 -1.7314
  991MOL0     H30788   2.674  11.234   9.840  0.3800 -0.3215 -0.6851
  991MOL0     H30789   2.509  11.208   9.787  1.1082 -1.9477 -1.7988
  991MOL0     H30790   2.710  11.414   9.688 -0.2268 -0.8302 -0.4133
  991MOL0     H30791   2.550  11.400   9.617 -0.8637 -0.4325  1.0046
  991MOL0     H30792   2.552  11.585   9.781 -4.8721  0.0444  0.4615
  991MOL0     H30793   2.605  11.466   9.908  0.4674 -1.0087 -0.0325
  991MOL0     H30794   3.138  10.860   9.556 -2.0091  0.0988  0.8162
  991MOL0     H30795   3.383  10.869   9.532  1.0920 -1.0500 -1.2008
  991MOL0     H30796   3.868  10.781   9.852 -0.9448  0.4358 -0.0643
  991MOL0     H30797   4.092  10.776   9.793  0.5296 -1.1414  0.1859
  991MOL0     H30798   4.259  10.217  10.017  0.4962  2.0000  0.7564
  991MOL0     H30799   4.033  10.158  10.076 -1.8857  1.1843  0.0923
  991MOL0     H30800   3.675  10.140  10.324 -1.0296 -1.5572  0.6011
  991MOL0     H30801   3.438  10.036  10.370 -1.6402  0.6955 -1.0011
  991MOL0     H30802   3.159  10.011  10.050  4.1985 -0.4217 -1.0111
  991MOL0     H30803   3.139  10.157  10.150 -2.4955 -1.6659  0.5171
  991MOL0     H30804   3.038   9.895  10.254 -1.1201 -0.1006 -0.8243
  991MOL0     H30805   3.005  10.050  10.317  1.5942 -2.8377  2.6393
  991MOL0     H30806   2.913   9.955  10.051 -0.7772 -2.4813  2.1640
  991MOL0     H30807   2.887  10.132  10.117 -3.5900  1.1474  3.6352
  991MOL0     H30808   2.724  10.034  10.262  0.1075 -0.0039  0.1576
  991MOL0     H30809   2.679   9.989  10.105 -1.2948 -0.5616  1.6338
  991MOL0     H30810   2.756   9.611  10.277  0.0421 -0.5723 -1.0656
  991MOL0     H30811   3.334  10.139   9.982 -1.1767 -0.3768  0.4157
  991MOL0     H30812   3.547  10.225   9.931 -2.2622 -0.4923  0.1735
  992MOL0     O30813   6.021   7.427   6.125 -0.5888  0.3720 -0.4639
  992MOL0     C30814   5.934   7.494   6.184  0.1029  0.2718  0.0906
  992MOL0     O30815   5.961   7.602   6.260  0.6341  0.2355  0.0078
  992MOL0     C30816   6.076   7.673   6.228 -1.1756 -0.1201  0.2815
  992MOL0     C30817   6.141   7.685   6.096 -0.6198 -0.1287  0.1155
  992MOL0     C30818   6.248   7.785   6.072  0.1327 -0.5409  0.0997
  992MOL0     C30819   6.292   7.855   6.182  0.6457  0.8508 -0.5508
  992MOL0     O30820   6.399   7.940   6.174  0.2403  0.5259  0.0201
  992MOL0     C30821   6.502   7.919   6.063  0.3533  0.0912  0.1127
  992MOL0     C30822   6.599   8.042   6.085 -0.1167 -0.2843 -0.6674
  992MOL0     C30823   6.708   8.056   5.976 -0.7640  0.8580  0.2995
  992MOL0     C30824   6.848   8.033   6.033 -0.8895 -0.1635  0.9378
  992MOL0     C30825   6.892   7.890   6.075  0.8887  0.2661 -0.7482
  992MOL0     C30826   7.031   7.899   6.137 -0.5208  0.6063 -0.3224
  992MOL0     C30827   7.090   7.766   6.187  0.5153 -0.1222  0.0360
  992MOL0     C30828   7.079   7.645   6.099  0.7631 -0.0010 -0.8067
  992MOL0     N30829   7.178   7.662   5.991 -0.6483  0.0958  0.0937
  992MOL0     C30830   7.312   7.673   6.006 -0.5394 -0.2443  0.2060
  992MOL0     C30831   7.361   7.687   5.881  0.1906  0.3075 -0.0776
  992MOL0     C30832   7.508   7.684   5.850 -0.1782 -0.6335 -0.5531
  992MOL0     C30833   7.541   7.590   5.724 -0.2598  0.7053 -0.2627
  992MOL0     C30834   7.662   7.629   5.636 -0.1609 -0.9221  0.2061
  992MOL0     C30835   7.590   7.696   5.514  0.7519  0.5386 -0.1408
  992MOL0     O30836   7.680   7.784   5.449  0.2075  0.0695  0.9544
  992MOL0     C30837   7.611   7.874   5.373 -0.5366 -0.1591 -0.5837
  992MOL0     C30838   7.550   7.843   5.258  0.2064  0.4106  1.0818
  992MOL0     C30839   7.479   7.934   5.174 -0.4761 -0.1528 -0.0614
  992MOL0     C30840   7.497   8.079   5.210 -0.4445  1.5052 -0.4505
  992MOL0     C30841   7.445   8.180   5.122  1.1179 -0.0745  0.9424
  992MOL0     O30842   7.454   8.306   5.175  0.4225 -0.9940 -0.1010
  992MOL0     C30843   7.415   8.415   5.101  0.0927  0.1902 -0.1069
  992MOL0     C30844   7.307   8.420   5.012  0.5365  0.0310 -0.2776
  992MOL0     C30845   7.260   8.541   4.959  0.9625 -0.3541 -0.2079
  992MOL0     C30846   7.323   8.670   4.994  0.7240 -0.1318  0.4525
  992MOL0     O30847   7.256   8.781   4.957 -0.3418  0.0042  0.1056
  992MOL0     C30848   7.311   8.911   4.982  0.0323  0.7949 -0.3083
  992MOL0     C30849   7.207   9.026   4.953  1.6278  0.6202 -0.2455
  992MOL0     C30850   7.277   9.156   4.969 -0.2158 -0.9194 -0.3034
  992MOL0     C30851   7.189   9.273   4.943  0.4907 -0.4966 -0.4073
  992MOL0     C30852   7.256   9.406   4.983  0.0329 -0.0059  0.1523
  992MOL0     C30853   7.176   9.515   4.914 -0.4439  0.1551 -0.5323
  992MOL0     C30854   7.111   9.610   5.012 -0.8327 -0.1803  0.4844
  992MOL0     C30855   6.983   9.545   5.084  0.7009 -0.4791  0.2552
  992MOL0    Cl30856   6.917   9.647   5.199  0.3904 -0.3716  0.0114
  992MOL0     C30857   7.425   8.668   5.077 -0.0484  0.8072 -0.2147
  992MOL0     C30858   7.483   8.539   5.127  0.5148 -0.9300 -0.0660
  992MOL0     O30859   7.418   8.153   5.003  0.6056 -0.2792 -0.6039
  992MOL0     C30860   7.567   8.102   5.331 -0.4039 -0.3767  0.0815
  992MOL0     C30861   7.611   8.007   5.405 -0.5497  0.1920 -0.1641
  992MOL0     N30862   7.254   7.702   5.788 -0.0898  0.1388  0.2806
  992MOL0     N30863   7.148   7.675   5.857 -0.4831 -0.6342  0.1333
  992MOL0     C30864   6.232   7.836   6.307  0.2860  0.1230  0.5026
  992MOL0     C30865   6.132   7.740   6.336  0.6612  0.3024 -0.0599
  992MOL0     C30866   5.795   7.438   6.185  0.2820 -0.7617 -0.4219
  992MOL0     C30867   5.749   7.319   6.122 -0.5228 -0.2035 -0.0389
  992MOL0     C30868   5.612   7.291   6.110  0.4257  0.4122  0.0368
  992MOL0     C30869   5.513   7.359   6.179 -0.6717 -0.5650  0.0128
  992MOL0     O30870   5.382   7.324   6.186 -0.4588  0.0672  0.3046
  992MOL0     C30871   5.310   7.339   6.064 -0.2051 -1.1875  0.5008
  992MOL0     C30872   5.242   7.219   6.006  0.2658  0.5225  0.2665
  992MOL0     C30873   5.116   7.193   6.084  0.4036  0.2721 -0.1779
  992MOL0     C30874   5.071   7.058   6.046  0.3039  0.6635 -0.1949
  992MOL0     C30875   5.017   7.052   5.910  0.3250 -0.0278 -0.0522
  992MOL0     C30876   4.968   7.026   5.802  0.5258 -0.5567 -0.7211
  992MOL0     C30877   5.561   7.477   6.240 -0.5693 -0.2973 -0.0937
  992MOL0     C30878   5.695   7.521   6.241 -1.0276 -0.3517 -0.3871
  992MOL0     H30879   6.098   7.634   6.010  1.4420 -2.2334  0.2149
  992MOL0     H30880   6.288   7.790   5.971 -1.7375  0.3798 -0.6520
  992MOL0     H30881   6.464   7.919   5.960  0.0491 -2.2836  0.1773
  992MOL0     H30882   6.554   7.826   6.087  0.2018  0.3868  1.7251
  992MOL0     H30883   6.647   8.014   6.180  0.8702  3.7617  0.2117
  992MOL0     H30884   6.540   8.132   6.103 -0.7169 -0.8067  0.0920
  992MOL0     H30885   6.711   8.157   5.934 -1.4012  1.1155  0.8545
  992MOL0     H30886   6.698   7.985   5.893 -1.3063 -0.4785  1.4642
  992MOL0     H30887   6.926   8.068   5.966 -2.2909  0.4399 -0.4439
  992MOL0     H30888   6.843   8.095   6.123 -2.1736  3.8741 -1.6293
  992MOL0     H30889   6.888   7.818   5.992  0.7216  0.6842 -1.1104
  992MOL0     H30890   6.821   7.862   6.153  2.8781  0.3331  1.1900
  992MOL0     H30891   7.027   7.968   6.223  0.3583 -0.8331  0.9365
  992MOL0     H30892   7.103   7.933   6.061 -0.1380 -1.9063 -1.1529
  992MOL0     H30893   7.191   7.784   6.222  0.5287 -1.0845  0.5389
  992MOL0     H30894   7.035   7.745   6.280  1.4463  1.8741  1.0785
  992MOL0     H30895   6.983   7.643   6.048  0.9007 -0.9068 -1.0346
  992MOL0     H30896   7.080   7.547   6.148  0.5646 -0.9246 -2.5847
  992MOL0     H30897   7.367   7.676   6.100  0.2375 -2.1876 -0.1364
  992MOL0     H30898   7.570   7.663   5.938  0.5923  0.9120 -0.6963
  992MOL0     H30899   7.533   7.787   5.825  3.2860 -1.3750 -0.6503
  992MOL0     H30900   7.452   7.572   5.663  1.2424  0.8117 -2.6072
  992MOL0     H30901   7.557   7.492   5.771 -1.7146 -0.2861 -1.7302
  992MOL0     H30902   7.722   7.703   5.690 -2.0518  1.3543 -0.6117
  992MOL0     H30903   7.715   7.539   5.604  2.5873 -0.0826  2.0187
  992MOL0     H30904   7.522   7.760   5.571  2.8123  2.3568  0.3995
  992MOL0     H30905   7.540   7.627   5.446  0.8427 -3.7948  3.7229
  992MOL0     H30906   7.580   7.747   5.216 -0.2560  0.5452  0.4366
  992MOL0     H30907   7.444   7.902   5.076  0.2666 -1.9790  0.2352
  992MOL0     H30908   7.257   8.326   4.992 -0.0362 -0.7234  3.7390
  992MOL0     H30909   7.169   8.534   4.900 -1.6381  1.5258  3.2120
  992MOL0     H30910   7.408   8.933   4.937 -0.1411  1.7212 -0.2466
  992MOL0     H30911   7.334   8.912   5.089 -1.1767  0.2229 -0.0182
  992MOL0     H30912   7.116   9.019   5.013  2.4638 -1.3019  0.8831
  992MOL0     H30913   7.177   9.007   4.849 -1.1684 -3.5316  1.0941
  992MOL0     H30914   7.375   9.157   4.921 -0.0701  0.3170 -0.0122
  992MOL0     H30915   7.306   9.160   5.075  0.6492  1.5252 -0.5692
  992MOL0     H30916   7.156   9.273   4.839  1.3591 -0.8593 -0.6925
  992MOL0     H30917   7.102   9.260   5.008  0.4191 -1.0876 -0.6139
  992MOL0     H30918   7.353   9.409   4.932  1.2181  0.5645  2.3194
  992MOL0     H30919   7.255   9.412   5.092 -2.6479  0.1590  0.1860
  992MOL0     H30920   7.095   9.473   4.854  2.0898 -2.4857 -2.3680
  992MOL0     H30921   7.232   9.581   4.846 -0.2975 -0.0075 -0.5705
  992MOL0     H30922   7.174   9.636   5.097 -4.6066  1.8579  2.8749
  992MOL0     H30923   7.092   9.707   4.965  0.1356  0.9109  2.2417
  992MOL0     H30924   7.010   9.450   5.131  0.2717  0.3367  2.2446
  992MOL0     H30925   6.907   9.524   5.007  0.1790 -2.6589  1.2751
  992MOL0     H30926   7.474   8.761   5.104  0.9055 -0.3893  2.6042
  992MOL0     H30927   7.575   8.540   5.185 -0.9078  0.0034  2.3026
  992MOL0     H30928   7.594   8.202   5.361 -1.0657 -0.2119  0.1431
  992MOL0     H30929   7.658   8.043   5.496 -2.7068  1.8779  0.3797
  992MOL0     H30930   6.269   7.902   6.385 -0.0162  1.7800 -0.7112
  992MOL0     H30931   6.079   7.736   6.430 -1.3390 -0.4064 -1.1543
  992MOL0     H30932   5.815   7.250   6.070 -1.7515  0.3561 -2.5141
  992MOL0     H30933   5.581   7.204   6.053  1.5648 -0.2766  0.4406
  992MOL0     H30934   5.369   7.388   5.987  0.1313  0.5438  1.7835
  992MOL0     H30935   5.228   7.411   6.067  0.0013 -0.7046 -2.6935
  992MOL0     H30936   5.216   7.251   5.905  0.0412  1.7640  0.6964
  992MOL0     H30937   5.299   7.125   6.008 -0.6261 -0.2198  5.3462
  992MOL0     H30938   5.048   7.277   6.070  3.6444  3.4250  1.5087
  992MOL0     H30939   5.147   7.200   6.189  2.1674 -2.4638 -0.4187
  992MOL0     H30940   5.157   6.992   6.057  0.7568  0.9930 -1.5432
  992MOL0     H30941   4.998   7.019   6.118 -0.1525  0.9112 -0.5163
  992MOL0     H30942   4.924   6.994   5.710 -1.4365  0.9811 -0.3816
  992MOL0     H30943   5.486   7.537   6.290 -0.4786 -1.3634  1.3847
  992MOL0     H30944   5.719   7.613   6.293 -0.1434 -2.4429  3.2800
  993MOL0     O30945   1.058  10.043   8.859 -0.4081 -0.3705  0.0891
  993MOL0     C30946   1.090   9.964   8.767  0.0273 -0.8124 -1.2146
  993MOL0     O30947   1.188   9.994   8.672  0.9013  0.2184  0.4603
  993MOL0     C30948   1.213  10.129   8.629  0.0904  0.4622 -0.0573
  993MOL0     C30949   1.327  10.148   8.556 -0.4538 -0.3684  0.6049
  993MOL0     C30950   1.364  10.281   8.499  1.0595 -0.1735  0.0658
  993MOL0     C30951   1.277  10.391   8.520 -0.3663  0.7717 -0.0985
  993MOL0     O30952   1.299  10.523   8.493 -0.1069 -0.7410  0.7427
  993MOL0     C30953   1.434  10.584   8.486  0.9024 -0.0635 -0.3391
  993MOL0     C30954   1.436  10.727   8.415 -0.2331 -0.0237  0.2205
  993MOL0     C30955   1.398  10.722   8.265  0.2646 -0.5995 -0.4020
  993MOL0     C30956   1.350  10.862   8.217 -0.0008  0.0437  0.2439
  993MOL0     C30957   1.363  10.871   8.064  0.8760  0.5120  0.8644
  993MOL0     C30958   1.279  10.985   7.997  0.2211  0.6361 -0.0695
  993MOL0     C30959   1.323  11.115   8.059 -0.0127  0.1963  0.0101
  993MOL0     C30960   1.308  11.242   7.966 -0.4853 -0.0857 -0.3811
  993MOL0     N30961   1.168  11.264   7.931  0.8083  0.5899  0.0661
  993MOL0     C30962   1.086  11.194   7.837 -0.2787 -0.1675 -0.2639
  993MOL0     C30963   0.975  11.277   7.821 -0.6856  0.4364 -0.5301
  993MOL0     C30964   0.870  11.268   7.705 -0.3270 -0.0189 -0.4347
  993MOL0     C30965   0.869  11.132   7.626  0.3326 -0.0490 -0.4538
  993MOL0     C30966   0.762  11.152   7.519 -0.3236  0.8431 -0.1645
  993MOL0     C30967   0.746  11.036   7.419  0.4588  0.7870 -0.7937
  993MOL0     O30968   0.782  10.909   7.466  0.3300  0.2309 -0.2868
  993MOL0     C30969   0.699  10.834   7.539 -0.6778 -0.3949 -0.3520
  993MOL0     C30970   0.734  10.698   7.564  0.4343 -1.0126 -0.2800
  993MOL0     C30971   0.663  10.616   7.649 -0.3232 -0.6158 -0.2961
  993MOL0     C30972   0.558  10.665   7.724 -0.2964 -0.0460 -0.4232
  993MOL0     C30973   0.475  10.580   7.809 -0.4982 -0.0371 -0.2844
  993MOL0     O30974   0.496  10.446   7.809  0.8275  0.0783  0.0502
  993MOL0     C30975   0.456  10.351   7.901  0.0489 -0.4829  0.2390
  993MOL0     C30976   0.384  10.388   8.017 -0.2515 -0.5726  0.0773
  993MOL0     C30977   0.359  10.286   8.118 -0.1270  0.1641  0.3139
  993MOL0     C30978   0.402  10.151   8.091 -0.3787 -0.5340 -0.7126
  993MOL0     O30979   0.386  10.045   8.173 -0.1080  0.8249  0.0675
  993MOL0     C30980   0.370  10.083   8.316  0.3278 -0.4612 -0.8971
  993MOL0     C30981   0.348   9.949   8.378  0.4338 -0.1762 -0.2505
  993MOL0     C30982   0.379   9.930   8.522 -0.1697  0.5522  0.1847
  993MOL0     C30983   0.346   9.797   8.589  0.3896  0.1146 -0.3812
  993MOL0     C30984   0.415   9.774   8.720  0.2241 -0.0135  0.0646
  993MOL0     C30985   0.345   9.665   8.798  0.2736  1.2788 -0.4181
  993MOL0     C30986   0.402   9.667   8.937  0.0319 -0.6295  1.1102
  993MOL0     C30987   0.338   9.555   9.017  0.9252 -0.1151 -0.3482
  993MOL0    Cl30988   0.389   9.392   8.988 -0.1668  0.0614 -0.3287
  993MOL0     C30989   0.467  10.131   7.974  0.7690 -0.0182  0.6339
  993MOL0     C30990   0.500  10.226   7.881  0.2237 -0.4415 -0.6806
  993MOL0     O30991   0.384  10.634   7.872 -0.6919 -0.3708  0.3715
  993MOL0     C30992   0.520  10.800   7.704  0.7243 -0.1831  0.5605
  993MOL0     C30993   0.586  10.883   7.612 -0.5445  0.8072  0.5591
  993MOL0     N30994   0.994  11.387   7.907  0.2988  0.0899  0.7922
  993MOL0     N30995   1.107  11.378   7.970  0.3422  0.1672 -0.5597
  993MOL0     C30996   1.169  10.361   8.592 -0.3187 -1.3206 -0.5658
  993MOL0     C30997   1.131  10.242   8.645  0.1050  0.1552 -0.0911
  993MOL0     C30998   1.019   9.833   8.769 -0.5258 -0.8312 -0.7823
  993MOL0     C30999   0.949   9.797   8.879  0.1291 -1.2434  0.0755
  993MOL0     C31000   0.878   9.679   8.879  0.1151  0.3683  0.4372
  993MOL0     C31001   0.876   9.589   8.773  0.5568 -0.3379 -0.1443
  993MOL0     O31002   0.794   9.481   8.753 -0.5250  0.0709 -0.4944
  993MOL0     C31003   0.758   9.409   8.873 -0.6599 -0.4026  0.4659
  993MOL0     C31004   0.728   9.270   8.826 -0.1212  0.3360 -0.4182
  993MOL0     C31005   0.708   9.162   8.933  1.1780  0.1022 -0.4205
  993MOL0     C31006   0.700   9.019   8.881  0.3310 -0.1602  0.0498
  993MOL0     C31007   0.564   8.986   8.834  0.2772 -0.3295  0.3094
  993MOL0     C31008   0.451   8.955   8.804  0.3948 -0.0061 -0.3368
  993MOL0     C31009   0.940   9.620   8.658 -0.0461  0.0529  0.5243
  993MOL0     C31010   1.011   9.745   8.657 -0.4758 -0.5133 -0.4217
  993MOL0     H31011   1.393  10.069   8.522  0.4023  1.0248 -1.1375
  993MOL0     H31012   1.453  10.291   8.438 -0.9345 -0.5176 -3.1600
  993MOL0     H31013   1.500  10.522   8.425  0.8431 -2.4465  1.8331
  993MOL0     H31014   1.473  10.603   8.587 -1.6734  1.5778  0.4428
  993MOL0     H31015   1.539  10.761   8.424  0.5339 -2.2602  0.5231
  993MOL0     H31016   1.370  10.798   8.467  2.1483 -0.3092  4.0463
  993MOL0     H31017   1.318  10.647   8.257  0.1038 -0.4888  0.1163
  993MOL0     H31018   1.480  10.683   8.204  1.0519  1.5943 -0.8451
  993MOL0     H31019   1.252  10.895   8.251 -0.3181 -0.5611 -0.0557
  993MOL0     H31020   1.419  10.933   8.263  1.3209 -0.3638 -1.0027
  993MOL0     H31021   1.342  10.774   8.018  2.8724 -0.9229  2.7708
  993MOL0     H31022   1.469  10.891   8.046  0.5496  2.0589  0.5358
  993MOL0     H31023   1.171  10.968   8.008  0.3329 -0.8794 -1.0637
  993MOL0     H31024   1.297  10.989   7.889  1.1030 -2.7521 -0.1585
  993MOL0     H31025   1.261  11.135   8.146 -3.9093  1.2212 -2.7601
  993MOL0     H31026   1.429  11.117   8.086 -0.0736  1.9713  0.1957
  993MOL0     H31027   1.361  11.220   7.872 -4.2930 -0.2553 -2.7139
  993MOL0     H31028   1.349  11.334   8.008  0.4301 -0.4173 -0.5053
  993MOL0     H31029   1.100  11.099   7.786  0.4017 -1.1275  1.6362
  993MOL0     H31030   0.892  11.351   7.637  1.6056  1.1066  1.4207
  993MOL0     H31031   0.778  11.287   7.761 -0.0771  1.1171 -0.3758
  993MOL0     H31032   0.845  11.053   7.698 -0.5293  0.8595  0.2742
  993MOL0     H31033   0.964  11.095   7.587 -0.9381 -0.3185 -3.5889
  993MOL0     H31034   0.670  11.156   7.578 -2.0126 -1.0122 -2.4654
  993MOL0     H31035   0.761  11.245   7.462  0.5180  0.6872 -0.4572
  993MOL0     H31036   0.815  11.057   7.337  3.3404 -0.1178  1.2583
  993MOL0     H31037   0.649  11.039   7.367 -1.2660 -0.4790  2.1076
  993MOL0     H31038   0.817  10.641   7.522  1.3426 -0.3235  0.5405
  993MOL0     H31039   0.688  10.510   7.650 -0.4886 -0.6473  0.7651
  993MOL0     H31040   0.352  10.490   8.036  1.6107  0.1881 -0.6285
  993MOL0     H31041   0.300  10.311   8.205  0.9108  2.7451  0.3574
  993MOL0     H31042   0.301  10.158   8.355  3.7495  3.4736 -1.5564
  993MOL0     H31043   0.467  10.118   8.353  0.0802  0.3770 -1.0202
  993MOL0     H31044   0.399   9.879   8.311 -1.5560 -1.0569 -0.9058
  993MOL0     H31045   0.241   9.930   8.368  0.0006  0.2309  2.7183
  993MOL0     H31046   0.325  10.008   8.577 -0.5035  0.1469  0.4365
  993MOL0     H31047   0.487   9.943   8.536 -0.2921  2.5162 -0.3360
  993MOL0     H31048   0.238   9.783   8.596  0.4762 -1.1130 -1.1646
  993MOL0     H31049   0.389   9.716   8.528  3.3413  0.0709  1.5585
  993MOL0     H31050   0.414   9.876   8.759  1.0217  0.2860 -0.6508
  993MOL0     H31051   0.520   9.743   8.709 -0.4761 -2.0045 -1.8407
  993MOL0     H31052   0.359   9.563   8.761  2.6016  0.3401  2.5605
  993MOL0     H31053   0.244   9.697   8.824 -0.1757 -0.0746 -0.4128
  993MOL0     H31054   0.509   9.656   8.954  0.2273  0.7353  0.8818
  993MOL0     H31055   0.369   9.762   8.980  0.6005 -2.0502  5.1186
  993MOL0     H31056   0.232   9.566   8.994  0.3190  0.3859  2.3051
  993MOL0     H31057   0.349   9.574   9.124 -0.5879  0.1410 -0.2089
  993MOL0     H31058   0.490  10.027   7.954  1.4132  0.5159 -1.7093
  993MOL0     H31059   0.556  10.201   7.791 -0.1374 -0.7876 -0.8198
  993MOL0     H31060   0.426  10.832   7.748 -0.0490  0.5188 -1.4615
  993MOL0     H31061   0.547  10.984   7.604 -3.8776 -0.4824 -1.3442
  993MOL0     H31062   1.097  10.439   8.614  1.5190 -0.4139  2.9927
  993MOL0     H31063   1.034  10.236   8.695 -1.5264 -0.4855 -3.0545
  993MOL0     H31064   0.937   9.872   8.957  2.7762  0.5843 -1.1400
  993MOL0     H31065   0.807   9.668   8.961 -4.4795  6.0807 -2.0334
  993MOL0     H31066   0.666   9.451   8.915 -1.3977 -1.0801 -0.4340
  993MOL0     H31067   0.839   9.408   8.947  1.1662  0.2802 -1.4362
  993MOL0     H31068   0.642   9.267   8.759 -1.0300  1.6391  0.6342
  993MOL0     H31069   0.815   9.231   8.772  2.0914 -0.4479  3.2808
  993MOL0     H31070   0.619   9.182   8.993  0.1025 -1.1156 -1.5372
  993MOL0     H31071   0.790   9.169   9.005 -1.1035 -2.0775  2.6745
  993MOL0     H31072   0.770   9.009   8.798 -0.0938  4.0439 -1.0249
  993MOL0     H31073   0.728   8.946   8.958  1.5076 -0.1339 -0.3379
  993MOL0     H31074   0.353   8.912   8.804 -0.3671  1.2901  3.4834
  993MOL0     H31075   0.935   9.561   8.566  1.5486 -2.7453  2.1044
  993MOL0     H31076   1.058   9.760   8.561  1.3032 -0.3350  0.4388
  994MOL0     O31077   3.978   2.083  10.879  0.0892 -0.0938  0.0647
  994MOL0     C31078   3.907   2.090  10.980  0.8638  0.7303  0.5330
  994MOL0     O31079   3.780   2.146  10.975  0.2532 -0.5322 -1.1094
  994MOL0     C31080   3.736   2.180  10.855 -0.5075  1.2985 -0.1310
  994MOL0     C31081   3.761   2.303  10.804  0.3039 -0.0861  0.8668
  994MOL0     C31082   3.696   2.345  10.689  0.3077  0.6717  0.0534
  994MOL0     C31083   3.602   2.267  10.626 -0.3300 -0.7182  0.4801
  994MOL0     O31084   3.527   2.318  10.522 -0.7729 -0.1426 -0.0307
  994MOL0     C31085   3.480   2.234  10.420 -0.0412 -0.6778  0.8616
  994MOL0     C31086   3.360   2.300  10.353 -0.0310  0.8552 -0.1780
  994MOL0     C31087   3.389   2.445  10.297  0.4074  0.1336  0.7427
  994MOL0     C31088   3.264   2.518  10.233  0.1748  0.2224 -0.1706
  994MOL0     C31089   3.283   2.665  10.208  0.1364  0.0558 -0.0214
  994MOL0     C31090   3.147   2.733  10.177 -0.2532 -0.2281  0.3170
  994MOL0     C31091   3.083   2.796  10.299  0.9048 -0.0610 -0.3143
  994MOL0     C31092   2.976   2.903  10.287 -0.3061 -0.7576  0.3399
  994MOL0     N31093   2.915   2.940  10.417 -1.0326  0.6002 -0.2777
  994MOL0     C31094   2.986   3.015  10.511  0.1047  0.1019  0.1758
  994MOL0     C31095   2.891   3.041  10.609 -0.7321  0.4106 -0.1936
  994MOL0     C31096   2.934   3.100  10.746  0.7664  0.4081  0.2965
  994MOL0     C31097   2.991   3.239  10.736 -0.5039  0.1714 -0.3825
  994MOL0     C31098   2.897   3.356  10.703  0.4064 -0.1137  0.3876
  994MOL0     C31099   2.837   3.427  10.830 -0.2798  0.2000 -0.5528
  994MOL0     O31100   2.741   3.521  10.787 -0.5242  0.1408 -0.6653
  994MOL0     C31101   2.751   3.646  10.851  0.5192  0.5615  0.4225
  994MOL0     C31102   2.645   3.671  10.943  0.4652  0.5926 -0.8001
  994MOL0     C31103   2.647   3.786  11.022  1.3052  0.6365 -0.2095
  994MOL0     C31104   2.741   3.883  10.994 -0.1281  0.4338 -0.6176
  994MOL0     C31105   2.729   4.008  11.066 -0.0162 -0.0623  0.1816
  994MOL0     O31106   2.832   4.103  11.071 -0.1305  0.1476  0.7117
  994MOL0     C31107   2.819   4.225  11.147  0.0389  0.0116  1.0495
  994MOL0     C31108   2.942   4.283  11.178 -0.2270  0.6580  0.0563
  994MOL0     C31109   2.959   4.388  11.270 -1.3122  0.3774  0.4510
  994MOL0     C31110   2.849   4.438  11.328 -1.1426 -1.0770  0.0593
  994MOL0     O31111   2.871   4.545  11.415 -0.3341  0.5193  0.6843
  994MOL0     C31112   2.780   4.579  11.520  0.1204  0.8496  1.7319
  994MOL0     C31113   2.790   4.733  11.534 -0.4114  0.5957  0.6155
  994MOL0     C31114   2.675   4.812  11.491  0.7581 -0.5799  0.1940
  994MOL0     C31115   2.597   4.851  11.605 -0.8407 -0.9369 -0.4830
  994MOL0     C31116   2.464   4.919  11.569 -0.7496 -0.2949  0.1851
  994MOL0     C31117   2.422   5.007  11.684 -0.1536 -0.2333 -0.1064
  994MOL0     C31118   2.286   5.056  11.643  0.8337  0.6868 -0.7208
  994MOL0     C31119   2.214   5.159  11.719 -0.9144 -0.1211 -0.2199
  994MOL0    Cl31120   2.218   5.106  11.890 -0.1962  0.2208  0.0457
  994MOL0     C31121   2.718   4.396  11.288  0.1006 -0.4096  0.1673
  994MOL0     C31122   2.701   4.283  11.201 -0.4419 -0.0273 -0.8357
  994MOL0     O31123   2.619   4.024  11.122 -0.1133 -0.1430  0.3578
  994MOL0     C31124   2.853   3.854  10.905  0.4425  0.5953  0.0078
  994MOL0     C31125   2.858   3.732  10.827 -0.2939  0.3828  0.2399
  994MOL0     N31126   2.771   2.974  10.573 -0.3844 -0.4612  1.0889
  994MOL0     N31127   2.786   2.916  10.458 -0.1357  0.2645  0.1906
  994MOL0     C31128   3.584   2.139  10.678  0.4638 -0.3369 -0.5582
  994MOL0     C31129   3.643   2.097  10.797 -0.4365 -0.2957  0.7057
  994MOL0     C31130   3.937   2.011  11.102 -0.2507 -0.0129  0.3898
  994MOL0     C31131   3.833   1.955  11.167  0.3635 -0.2382  0.1330
  994MOL0     C31132   3.851   1.878  11.282 -0.2952  0.1742 -0.3246
  994MOL0     C31133   3.984   1.852  11.326 -0.8236 -0.7761 -1.3146
  994MOL0     O31134   4.018   1.770  11.434 -0.6096 -0.5333 -0.7435
  994MOL0     C31135   3.926   1.684  11.502 -0.5627  0.1609  0.4153
  994MOL0     C31136   3.975   1.661  11.645  0.0788  0.4849 -0.2465
  994MOL0     C31137   3.994   1.798  11.718  0.3178  0.1888  0.1008
  994MOL0     C31138   4.056   1.801  11.854 -0.2924 -1.0744  0.0614
  994MOL0     C31139   3.981   1.715  11.935 -0.8026 -0.5041 -0.2933
  994MOL0     C31140   3.906   1.649  12.005 -0.1311  0.0023  0.1449
  994MOL0     C31141   4.098   1.910  11.264  1.1722 -0.5814  0.4309
  994MOL0     C31142   4.074   1.991  11.155  0.0918  0.0306  0.5579
  994MOL0     H31143   3.835   2.362  10.856  1.9067 -1.6339  0.4360
  994MOL0     H31144   3.725   2.446  10.658  1.7531  0.0700 -0.6615
  994MOL0     H31145   3.452   2.131  10.445 -1.1694 -0.2294  1.5420
  994MOL0     H31146   3.552   2.231  10.338 -2.2319  0.1203 -1.1863
  994MOL0     H31147   3.273   2.302  10.419  0.0890  0.1670  0.0166
  994MOL0     H31148   3.327   2.227  10.278  0.0454  0.6290  0.0063
  994MOL0     H31149   3.471   2.443  10.224  0.9700  2.3497  1.2268
  994MOL0     H31150   3.429   2.510  10.376  1.9802  0.2869 -0.1414
  994MOL0     H31151   3.247   2.463  10.140 -0.1613  0.8903 -0.5108
  994MOL0     H31152   3.178   2.509  10.300  1.0587  2.5238  1.3918
  994MOL0     H31153   3.342   2.678  10.116 -1.8457  0.8001 -1.2447
  994MOL0     H31154   3.333   2.712  10.293 -1.3327  1.5153  0.0971
  994MOL0     H31155   3.084   2.657  10.130 -1.0955  1.6676 -1.7876
  994MOL0     H31156   3.161   2.813  10.104 -1.2429  2.3186  2.7414
  994MOL0     H31157   3.028   2.719  10.355 -1.0545 -0.4095 -2.5737
  994MOL0     H31158   3.167   2.825  10.362  1.2726  3.1822 -2.1031
  994MOL0     H31159   2.901   2.872  10.213  0.6344 -0.9849 -0.5351
  994MOL0     H31160   3.028   2.993  10.254  1.7039 -2.4280 -1.3536
  994MOL0     H31161   3.092   3.031  10.525  0.3039 -1.5185  0.7836
  994MOL0     H31162   3.021   3.040  10.774  1.0340  0.4603 -0.3952
  994MOL0     H31163   2.866   3.087  10.831 -2.1316 -2.7964 -2.2030
  994MOL0     H31164   3.080   3.243  10.673 -0.8447 -1.8252 -1.0659
  994MOL0     H31165   3.031   3.273  10.833 -3.7854  0.2584  1.0724
  994MOL0     H31166   2.931   3.418  10.619  1.4716 -1.4762 -0.2334
  994MOL0     H31167   2.807   3.312  10.659  1.7677 -2.2926 -0.4342
  994MOL0     H31168   2.920   3.471  10.886 -1.7474  0.6030  1.3923
  994MOL0     H31169   2.791   3.359  10.902 -2.8228  1.0592 -1.2789
  994MOL0     H31170   2.563   3.609  10.978 -0.9271  2.7779  0.0018
  994MOL0     H31171   2.558   3.788  11.084  0.9295 -2.4305 -0.4829
  994MOL0     H31172   3.034   4.248  11.132 -0.8941 -0.1563 -0.7009
  994MOL0     H31173   3.057   4.426  11.295 -1.0092  1.2971 -1.8463
  994MOL0     H31174   2.815   4.525  11.609  1.1095  1.7915  1.9209
  994MOL0     H31175   2.677   4.546  11.503  0.9492  0.2533 -4.0140
  994MOL0     H31176   2.885   4.762  11.489  0.3642  1.7345  2.8516
  994MOL0     H31177   2.817   4.747  11.639 -3.2514  0.5190  1.4288
  994MOL0     H31178   2.612   4.748  11.428 -0.0794 -1.2826  1.7131
  994MOL0     H31179   2.698   4.907  11.442  2.5577 -0.9951  0.1318
  994MOL0     H31180   2.566   4.767  11.668 -2.3063  1.5505  2.3506
  994MOL0     H31181   2.664   4.916  11.661  1.4231 -1.1873 -2.6882
  994MOL0     H31182   2.389   4.844  11.544 -1.1697  0.1103  0.2108
  994MOL0     H31183   2.464   4.985  11.482 -1.5134  0.9310  1.0830
  994MOL0     H31184   2.488   5.091  11.706 -1.9139  1.5820 -1.4752
  994MOL0     H31185   2.419   4.940  11.771  2.0244 -2.4135 -1.5487
  994MOL0     H31186   2.293   5.092  11.540  0.4865  2.3138 -0.2055
  994MOL0     H31187   2.218   4.971  11.644  0.6294  0.8458  0.5141
  994MOL0     H31188   2.115   5.164  11.674  0.0697 -0.4381 -2.5956
  994MOL0     H31189   2.270   5.250  11.693  0.8105 -1.5222 -1.6855
  994MOL0     H31190   2.632   4.444  11.334  2.5228  4.0721  0.6357
  994MOL0     H31191   2.605   4.260  11.156  0.7466 -1.5790 -2.7763
  994MOL0     H31192   2.925   3.930  10.879  1.2006 -0.8021 -2.2575
  994MOL0     H31193   2.937   3.711  10.756 -2.1682  0.1989 -1.8938
  994MOL0     H31194   3.504   2.084  10.627  0.3646  0.4407 -1.2635
  994MOL0     H31195   3.614   2.001  10.840 -2.6036 -0.9095 -1.8006
  994MOL0     H31196   3.734   1.984  11.133  1.9395  2.4044 -2.6698
  994MOL0     H31197   3.768   1.831  11.334  0.1897 -0.2764  0.0389
  994MOL0     H31198   3.938   1.584  11.460  0.6197 -0.0853  1.2639
  994MOL0     H31199   3.823   1.719  11.509 -0.3418  1.4785 -1.9456
  994MOL0     H31200   3.898   1.597  11.689  1.5989 -3.9946 -3.4271
  994MOL0     H31201   4.066   1.600  11.647 -1.2228 -1.6000 -1.3435
  994MOL0     H31202   3.901   1.856  11.721 -1.8166 -2.9762 -0.1553
  994MOL0     H31203   4.066   1.850  11.654 -1.9554  2.5302 -0.7654
  994MOL0     H31204   4.163   1.783  11.838  0.0549 -0.6152  1.6740
  994MOL0     H31205   4.056   1.906  11.886  0.8564 -1.8543  2.9180
  994MOL0     H31206   3.840   1.590  12.066  1.1106 -1.3864  0.1934
  994MOL0     H31207   4.199   1.877  11.290  1.7977  1.7779  1.2465
  994MOL0     H31208   4.153   2.047  11.106  0.5744 -0.2765  0.9754
  995MOL0     O31209   5.985   8.380   1.533 -0.3376 -0.8395 -0.7070
  995MOL0     C31210   5.999   8.306   1.635 -0.0504 -0.8251  0.4359
  995MOL0     O31211   5.900   8.287   1.720 -0.0920  0.4330 -0.3304
  995MOL0     C31212   5.787   8.367   1.716  0.4786 -0.7514  0.0999
  995MOL0     C31213   5.782   8.508   1.690  0.1465 -0.6195  0.4019
  995MOL0     C31214   5.666   8.577   1.720  0.3243  0.5630  0.0480
  995MOL0     C31215   5.553   8.508   1.776 -0.2051 -0.0305  0.6618
  995MOL0     O31216   5.444   8.575   1.822  0.1642  0.0154 -0.0964
  995MOL0     C31217   5.420   8.712   1.787 -0.0251  0.1385 -0.4710
  995MOL0     C31218   5.279   8.768   1.830 -0.7359  0.7505  0.2500
  995MOL0     C31219   5.160   8.696   1.755  0.0858 -0.3466 -0.3932
  995MOL0     C31220   5.027   8.767   1.779  0.2264 -0.1864 -0.3915
  995MOL0     C31221   4.975   8.774   1.926  0.2063  0.0706 -0.6041
  995MOL0     C31222   4.831   8.810   1.964 -0.3447  0.0389  0.3529
  995MOL0     C31223   4.796   8.938   1.889  0.2838  0.1476  0.0942
  995MOL0     C31224   4.660   9.002   1.931  0.1411  0.0107 -0.6030
  995MOL0     N31225   4.661   9.021   2.080 -0.2451  0.1416 -0.2884
  995MOL0     C31226   4.765   9.079   2.152  0.5504  0.6401 -0.3138
  995MOL0     C31227   4.752   9.027   2.278  0.1424 -0.1124 -0.2617
  995MOL0     C31228   4.855   9.056   2.385  0.1726  1.3020  0.3503
  995MOL0     C31229   5.004   9.041   2.344  0.3013 -0.4798  0.1099
  995MOL0     C31230   5.111   9.124   2.424  0.2912  0.3909  0.5097
  995MOL0     C31231   5.235   9.099   2.343  0.1800  0.5637 -0.8154
  995MOL0     O31232   5.228   9.169   2.217 -0.4245 -0.2806  0.5839
  995MOL0     C31233   5.334   9.162   2.132  0.5309  0.4626 -0.5787
  995MOL0     C31234   5.316   9.225   2.011 -0.1381  0.1786 -0.4533
  995MOL0     C31235   5.409   9.220   1.909  0.1695  0.7424 -0.0862
  995MOL0     C31236   5.525   9.150   1.914 -0.1810 -0.2128  1.3245
  995MOL0     C31237   5.619   9.131   1.794  0.3272 -0.0395 -0.2662
  995MOL0     O31238   5.664   9.001   1.779  0.0444  0.3195  0.2603
  995MOL0     C31239   5.742   8.969   1.671  0.4244  0.0299  0.6874
  995MOL0     C31240   5.704   9.007   1.540  0.1875 -0.5252 -1.1791
  995MOL0     C31241   5.787   8.985   1.427 -1.2047  0.2451 -0.1094
  995MOL0     C31242   5.905   8.910   1.444 -0.6838 -0.7396 -1.4382
  995MOL0     O31243   5.988   8.884   1.333 -0.2390 -0.9058 -0.0956
  995MOL0     C31244   6.129   8.870   1.349 -0.3748  1.6850 -0.3322
  995MOL0     C31245   6.209   8.910   1.217  0.5424  0.4971 -0.1682
  995MOL0     C31246   6.337   8.828   1.219  0.6681  0.6189 -0.0210
  995MOL0     C31247   6.398   8.837   1.082  0.3137 -0.1774  0.2872
  995MOL0     C31248   6.348   8.724   0.995  0.6755  0.5683 -1.4035
  995MOL0     C31249   6.429   8.718   0.867  0.1768  0.9085 -0.5064
  995MOL0     C31250   6.406   8.597   0.774  0.6562 -0.7346 -0.1442
  995MOL0     C31251   6.487   8.476   0.801  0.1312  0.0977  0.8294
  995MOL0    Cl31252   6.461   8.391   0.959  0.1466 -0.1078 -0.3020
  995MOL0     C31253   5.934   8.855   1.572  0.0081  0.2833 -0.4556
  995MOL0     C31254   5.856   8.893   1.685 -0.6576  0.7699  0.3707
  995MOL0     O31255   5.655   9.237   1.739  0.1695  0.6302  0.1513
  995MOL0     C31256   5.553   9.097   2.039 -0.2400  0.5677 -0.3692
  995MOL0     C31257   5.455   9.103   2.144 -0.3782 -0.1691  0.6416
  995MOL0     N31258   4.647   8.947   2.281 -0.7437  0.8443 -0.3665
  995MOL0     N31259   4.593   8.944   2.173 -0.3350 -0.0666  0.3730
  995MOL0     C31260   5.550   8.369   1.779  0.2324  0.4402  0.6450
  995MOL0     C31261   5.674   8.296   1.757  1.7167 -0.1936 -0.7832
  995MOL0     C31262   6.121   8.231   1.661 -0.2503 -0.2048  0.2503
  995MOL0     C31263   6.127   8.126   1.746 -0.5581 -0.2683 -0.1169
  995MOL0     C31264   6.233   8.034   1.754  0.0772  0.2748  0.7702
  995MOL0     C31265   6.354   8.064   1.681  0.8117  0.0251 -0.0418
  995MOL0     O31266   6.465   7.988   1.702 -0.4354 -1.1407  0.3757
  995MOL0     C31267   6.594   8.027   1.652  0.3277 -0.0139 -0.0759
  995MOL0     C31268   6.645   8.152   1.730  1.0332  0.7771  0.5480
  995MOL0     C31269   6.712   8.119   1.863  0.2870 -0.3300  0.1481
  995MOL0     C31270   6.797   8.239   1.914 -0.4483  0.1958 -0.0731
  995MOL0     C31271   6.700   8.345   1.945 -0.1042  0.2880  0.4341
  995MOL0     C31272   6.630   8.441   1.974 -0.1049 -0.6609 -0.6640
  995MOL0     C31273   6.346   8.180   1.599  0.2803 -0.3206 -0.9736
  995MOL0     C31274   6.233   8.257   1.584 -0.3520 -0.4801  0.7800
  995MOL0     H31275   5.874   8.563   1.670 -0.7333  0.3143 -1.2705
  995MOL0     H31276   5.671   8.684   1.702  2.5952  0.2891 -1.2748
  995MOL0     H31277   5.425   8.739   1.681 -1.3201 -2.5698 -1.3070
  995MOL0     H31278   5.490   8.778   1.840  0.7925  0.5173 -1.9643
  995MOL0     H31279   5.268   8.873   1.802 -0.5912  1.1095  1.4613
  995MOL0     H31280   5.255   8.750   1.935 -1.0755 -1.2645 -0.1228
  995MOL0     H31281   5.161   8.593   1.794  0.5256 -1.0057 -2.0682
  995MOL0     H31282   5.190   8.701   1.650  0.6401  1.7643 -0.1744
  995MOL0     H31283   5.047   8.867   1.740 -0.7108 -1.4966 -4.8074
  995MOL0     H31284   4.951   8.719   1.717 -1.0677  0.2949  0.7788
  995MOL0     H31285   5.039   8.850   1.972  0.2135 -0.7474  0.7945
  995MOL0     H31286   5.001   8.683   1.980 -1.3618  0.5777  1.1484
  995MOL0     H31287   4.831   8.819   2.073  0.7471 -5.2579  1.0683
  995MOL0     H31288   4.773   8.720   1.941  0.9435 -0.5316 -0.7924
  995MOL0     H31289   4.880   9.004   1.910  1.4496 -0.4022 -2.5019
  995MOL0     H31290   4.793   8.916   1.782 -0.8018  1.2875 -0.1332
  995MOL0     H31291   4.581   8.927   1.915 -0.2452  0.7129 -2.1339
  995MOL0     H31292   4.632   9.092   1.876 -0.6736  0.3020  0.2660
  995MOL0     H31293   4.840   9.150   2.119  0.5748  0.0820 -1.5323
  995MOL0     H31294   4.836   8.985   2.466  2.0528 -0.4096 -0.6202
  995MOL0     H31295   4.839   9.161   2.414 -2.3548  1.0981 -0.0814
  995MOL0     H31296   5.007   9.061   2.237 -0.2677 -3.9764 -0.6953
  995MOL0     H31297   5.029   8.935   2.350  2.5052 -0.1324 -1.6682
  995MOL0     H31298   5.078   9.228   2.429 -0.5946  0.0752  1.4687
  995MOL0     H31299   5.127   9.079   2.522  2.1677 -0.9772 -0.3573
  995MOL0     H31300   5.242   8.990   2.331  1.8337  0.6476 -0.8907
  995MOL0     H31301   5.327   9.139   2.387 -0.2235 -0.9068  1.5660
  995MOL0     H31302   5.223   9.277   1.988 -1.2641 -1.8773 -0.8001
  995MOL0     H31303   5.391   9.262   1.810  0.9299 -0.9131 -0.9623
  995MOL0     H31304   5.615   9.064   1.518 -0.7729 -0.6659  1.9365
  995MOL0     H31305   5.784   9.015   1.323  0.2883 -1.2564 -0.6285
  995MOL0     H31306   6.150   8.766   1.375 -1.4249  1.1109 -1.6534
  995MOL0     H31307   6.172   8.917   1.438 -0.3725 -1.3682  1.4245
  995MOL0     H31308   6.235   9.015   1.198 -1.8953  1.2396  0.1546
  995MOL0     H31309   6.141   8.879   1.137  2.7100 -1.1431 -1.4774
  995MOL0     H31310   6.323   8.726   1.257  2.5817 -0.3216 -1.6635
  995MOL0     H31311   6.395   8.879   1.296 -0.2905 -1.7081  2.4078
  995MOL0     H31312   6.382   8.935   1.036  1.9369  0.9100  1.9058
  995MOL0     H31313   6.507   8.829   1.081  0.3266 -0.1490 -1.1993
  995MOL0     H31314   6.241   8.730   0.975 -0.0639  0.6738  1.9942
  995MOL0     H31315   6.370   8.634   1.054  0.3334  2.3842  1.7576
  995MOL0     H31316   6.535   8.698   0.883 -0.1676 -0.5473  0.1558
  995MOL0     H31317   6.403   8.807   0.810 -3.1514  1.3011  1.3671
  995MOL0     H31318   6.298   8.581   0.765  0.5151  0.5076 -0.9951
  995MOL0     H31319   6.437   8.645   0.680  0.2869  2.2306  1.1182
  995MOL0     H31320   6.593   8.502   0.796  0.2974 -0.3628  1.5928
  995MOL0     H31321   6.475   8.410   0.714 -0.4357 -0.1581  1.0942
  995MOL0     H31322   6.022   8.793   1.589 -0.8041 -0.7363  0.1675
  995MOL0     H31323   5.863   8.848   1.784  0.1296 -2.9620 -1.2145
  995MOL0     H31324   5.638   9.030   2.051 -1.1063 -0.4729  0.1251
  995MOL0     H31325   5.479   9.055   2.239 -1.0776  0.1655  0.9891
  995MOL0     H31326   5.453   8.333   1.812 -0.2250 -0.0514 -1.0798
  995MOL0     H31327   5.692   8.189   1.771 -2.6494 -1.1280 -0.8547
  995MOL0     H31328   6.052   8.095   1.818 -0.3226 -0.5310  0.0209
  995MOL0     H31329   6.236   7.952   1.825 -0.5589  1.2527  1.9715
  995MOL0     H31330   6.581   8.042   1.544 -3.1074  1.4835  0.4265
  995MOL0     H31331   6.663   7.942   1.658 -0.1640 -0.5652 -1.7257
  995MOL0     H31332   6.709   8.211   1.664  1.7774  0.1414  0.6818
  995MOL0     H31333   6.559   8.213   1.757 -1.8356 -2.5535 -0.2912
  995MOL0     H31334   6.783   8.045   1.826  0.2376 -0.4578  0.3082
  995MOL0     H31335   6.641   8.076   1.934 -1.3990 -0.6276 -1.6050
  995MOL0     H31336   6.862   8.218   2.000  1.4050  0.6426 -1.3296
  995MOL0     H31337   6.866   8.266   1.834 -1.4267  2.8913 -0.1097
  995MOL0     H31338   6.585   8.528   2.017  0.4864  1.0532 -3.2615
  995MOL0     H31339   6.435   8.221   1.553  0.1861 -0.1735 -1.0259
  995MOL0     H31340   6.231   8.347   1.523  0.6845 -0.2487  1.0686
  996MOL0     O31341   8.600   0.460   7.724  0.2298 -0.0403  0.3337
  996MOL0     C31342   8.696   0.395   7.677  0.1330 -0.7496  0.2619
  996MOL0     O31343   8.789   0.338   7.753  0.3198 -0.5282  0.2539
  996MOL0     C31344   8.781   0.299   7.887 -0.3197 -0.0739 -0.0553
  996MOL0     C31345   8.875   0.200   7.940 -1.2828 -0.1318 -0.1744
  996MOL0     C31346   8.870   0.156   8.070 -0.0610 -0.0883 -0.4365
  996MOL0     C31347   8.781   0.214   8.163  0.6102 -0.1952  0.3501
  996MOL0     O31348   8.780   0.166   8.295  0.2996  0.0606 -0.0006
  996MOL0     C31349   8.745   0.255   8.403 -0.1765 -0.3161  0.8317
  996MOL0     C31350   8.879   0.307   8.464  0.9406  0.4928 -0.4663
  996MOL0     C31351   8.951   0.410   8.361  1.0771  1.9249 -0.6028
  996MOL0     C31352   9.085   0.444   8.425  0.1276 -0.5018  0.0932
  996MOL0     C31353   9.191   0.516   8.340  0.0485 -0.0443 -0.4281
  996MOL0     C31354   9.233   0.440   8.205  1.1179  0.1637 -0.3403
  996MOL0     C31355   9.362   0.484   8.136 -0.1690  0.0986  0.0287
  996MOL0     C31356   9.416   0.383   8.036 -0.1011 -0.0540 -0.5732
  996MOL0     N31357   9.553   0.424   7.997  0.8799  0.0354  0.6473
  996MOL0     C31358   9.578   0.492   7.879  0.3918 -0.7739  0.3681
  996MOL0     C31359   9.712   0.502   7.867  0.6641 -0.6911 -0.1238
  996MOL0     C31360   9.798   0.558   7.758 -0.3809 -1.5423 -0.6862
  996MOL0     C31361   9.873   0.691   7.772  0.2264 -0.5377  0.0029
  996MOL0     C31362   9.975   0.704   7.874  0.2551  0.2169 -0.6039
  996MOL0     C31363  10.014   0.850   7.893  0.1238 -0.2572  0.1768
  996MOL0     O31364  10.012   0.930   7.779  0.4065 -0.2130 -0.2140
  996MOL0     C31365  10.120   0.950   7.690 -0.0997 -0.0062 -0.6056
  996MOL0     C31366  10.103   1.044   7.589  0.0589 -0.3350 -1.0698
  996MOL0     C31367  10.195   1.061   7.481  0.0169  0.0836  0.0702
  996MOL0     C31368  10.313   0.989   7.475  0.7176  0.0500 -0.2033
  996MOL0     C31369  10.412   1.004   7.365  0.4631  0.8842 -0.5359
  996MOL0     O31370  10.544   0.977   7.392  0.7847 -0.1372 -0.2004
  996MOL0     C31371  10.632   0.967   7.283  0.1825 -0.1857 -0.3315
  996MOL0     C31372  10.737   0.869   7.286 -0.2802  0.0862 -0.2625
  996MOL0     C31373  10.839   0.868   7.188 -0.0966  0.7377  0.1012
  996MOL0     C31374  10.835   0.951   7.076  0.5558  0.7154 -1.1533
  996MOL0     O31375  10.919   0.943   6.972 -0.0777 -1.2243 -0.0482
  996MOL0     C31376  11.036   0.868   6.964  0.6205 -1.1772  0.3779
  996MOL0     C31377  11.112   0.936   6.849 -0.3886  0.0620 -0.1558
  996MOL0     C31378  11.245   0.873   6.836 -0.7004 -0.2092  0.3947
  996MOL0     C31379  11.327   0.958   6.740  0.0847  0.2979 -0.6401
  996MOL0     C31380  11.476   0.903   6.730 -0.0985  0.1259  0.3524
  996MOL0     C31381  11.570   1.019   6.727  0.0647 -0.9328  0.8286
  996MOL0     C31382  11.716   0.980   6.727 -0.0638  0.2377  0.7482
  996MOL0     C31383  11.814   1.093   6.713  0.9259  0.3411 -0.4177
  996MOL0    Cl31384  11.977   1.025   6.749 -0.3982  0.4089 -0.0225
  996MOL0     C31385  10.739   1.050   7.073  0.7535  0.2879  0.3877
  996MOL0     C31386  10.644   1.060   7.179  0.6265 -0.8638 -0.3701
  996MOL0     O31387  10.368   1.055   7.260  0.8892 -0.2274  0.0850
  996MOL0     C31388  10.336   0.898   7.582 -0.1342  0.4149 -0.1916
  996MOL0     C31389  10.238   0.877   7.684 -0.7925 -0.0272 -0.3011
  996MOL0     N31390   9.767   0.439   7.976  0.1333 -0.4382 -0.1454
  996MOL0     N31391   9.679   0.393   8.057 -0.0887 -0.3221  0.4811
  996MOL0     C31392   8.685   0.300   8.117  0.6913 -0.5283  0.3240
  996MOL0     C31393   8.685   0.337   7.978  0.4125 -1.1986 -0.7066
  996MOL0     C31394   8.720   0.371   7.531 -1.2054  0.4409 -0.5126
  996MOL0     C31395   8.773   0.247   7.482 -0.2848  0.2463  0.1345
  996MOL0     C31396   8.785   0.220   7.344 -0.0491  0.1531  0.7553
  996MOL0     C31397   8.737   0.311   7.253  0.6476  0.3169  0.0629
  996MOL0     O31398   8.736   0.266   7.125 -0.4055  0.2071 -0.3178
  996MOL0     C31399   8.690   0.348   7.018  0.2172  0.4236 -0.3828
  996MOL0     C31400   8.711   0.273   6.890 -0.2790 -0.6396 -0.5918
  996MOL0     C31401   8.854   0.225   6.852  0.1965  0.3445 -0.0676
  996MOL0     C31402   8.964   0.328   6.855  0.3916 -0.4243  0.3038
  996MOL0     C31403   9.081   0.294   6.771 -0.4010  0.2480 -0.4702
  996MOL0     C31404   9.161   0.263   6.693  0.5072 -0.1415 -0.3710
  996MOL0     C31405   8.685   0.436   7.299 -0.8747 -0.6266  0.1749
  996MOL0     C31406   8.683   0.464   7.436  0.4667  0.3780  0.0002
  996MOL0     H31407   8.953   0.155   7.879 -1.7293 -0.7036 -0.3276
  996MOL0     H31408   8.944   0.091   8.116 -2.0975  0.0954  3.5534
  996MOL0     H31409   8.687   0.186   8.466  2.3014 -2.6517  0.7489
  996MOL0     H31410   8.686   0.339   8.366  0.3533 -1.0461 -1.8639
  996MOL0     H31411   8.940   0.221   8.494 -0.9786 -0.6275  0.4838
  996MOL0     H31412   8.848   0.363   8.553 -0.2397 -4.0902  2.3856
  996MOL0     H31413   8.884   0.493   8.336 -2.0016 -0.1744  0.1913
  996MOL0     H31414   8.954   0.354   8.267 -0.0140  1.5376 -0.4222
  996MOL0     H31415   9.064   0.512   8.508 -2.5759 -1.1114  0.0192
  996MOL0     H31416   9.122   0.347   8.459  0.3618 -0.9155 -1.2807
  996MOL0     H31417   9.272   0.530   8.412 -1.2787  2.6297  0.6771
  996MOL0     H31418   9.153   0.616   8.318 -2.3467 -1.4323 -3.2463
  996MOL0     H31419   9.154   0.459   8.132  1.6131 -1.8710 -1.4968
  996MOL0     H31420   9.227   0.332   8.225 -0.6806  0.5694  1.7546
  996MOL0     H31421   9.365   0.578   8.079  0.7979 -0.4931 -0.9559
  996MOL0     H31422   9.427   0.496   8.223 -1.8338 -1.4012  1.5529
  996MOL0     H31423   9.344   0.369   7.955 -0.2083 -0.7315 -0.3669
  996MOL0     H31424   9.431   0.293   8.096  1.8055  2.0185  2.2908
  996MOL0     H31425   9.505   0.530   7.808 -0.4686 -2.5150  0.2676
  996MOL0     H31426   9.739   0.566   7.666  0.1024  1.7426 -0.8289
  996MOL0     H31427   9.877   0.487   7.735  0.8212  0.2070 -2.2664
  996MOL0     H31428   9.795   0.766   7.790 -2.0594 -2.3634 -1.7737
  996MOL0     H31429   9.905   0.711   7.669 -0.6229  1.5581  0.0858
  996MOL0     H31430   9.935   0.665   7.968 -0.4614 -0.8880 -1.3317
  996MOL0     H31431  10.061   0.642   7.846 -0.2075  0.3708 -2.5089
  996MOL0     H31432  10.113   0.850   7.939  1.2304 -0.2218 -2.0726
  996MOL0     H31433   9.941   0.890   7.964 -1.9646  0.9293 -2.4524
  996MOL0     H31434  10.015   1.107   7.600  0.1275  0.3308 -3.6066
  996MOL0     H31435  10.167   1.144   7.416  0.6275 -0.4686 -0.9334
  996MOL0     H31436  10.740   0.798   7.368 -0.6081  0.6083  0.2048
  996MOL0     H31437  10.929   0.809   7.204 -0.0843 -0.2611 -3.0841
  996MOL0     H31438  11.015   0.770   6.920 -2.0939 -0.1844 -0.7757
  996MOL0     H31439  11.103   0.879   7.049  0.9851  0.0961 -0.0503
  996MOL0     H31440  11.124   1.044   6.864  1.8973  0.6181 -4.3660
  996MOL0     H31441  11.053   0.921   6.757 -0.0225  1.5358 -0.6552
  996MOL0     H31442  11.237   0.770   6.802  0.0696  0.7578 -3.0513
  996MOL0     H31443  11.294   0.868   6.934  0.3042 -1.9060 -0.1501
  996MOL0     H31444  11.270   0.980   6.649 -2.7691  0.6318  1.0806
  996MOL0     H31445  11.321   1.047   6.804 -2.4607 -1.6853  2.1599
  996MOL0     H31446  11.493   0.843   6.640  0.7011  0.0987  0.5126
  996MOL0     H31447  11.504   0.846   6.819  0.0065 -0.3327  0.0268
  996MOL0     H31448  11.556   1.100   6.799  0.7141 -0.0391 -0.0283
  996MOL0     H31449  11.549   1.073   6.634 -1.1474 -0.5778  1.2877
  996MOL0     H31450  11.728   0.929   6.822 -0.5476 -4.2345 -1.3140
  996MOL0     H31451  11.738   0.900   6.656  0.1691  0.0458  1.0369
  996MOL0     H31452  11.807   1.170   6.790  1.7631  0.3198 -0.3095
  996MOL0     H31453  11.807   1.148   6.619  1.8565  0.0662 -0.6676
  996MOL0     H31454  10.751   1.128   6.999  0.9705  0.7317  0.8886
  996MOL0     H31455  10.573   1.143   7.178  0.6052 -0.8787 -0.1546
  996MOL0     H31456  10.434   0.853   7.581 -0.4975 -0.4139 -2.2636
  996MOL0     H31457  10.264   0.797   7.753  2.1567  0.3706 -0.7987
  996MOL0     H31458   8.599   0.325   8.177 -2.0079  0.4015 -3.5269
  996MOL0     H31459   8.597   0.392   7.945  0.5601 -1.3636 -1.3926
  996MOL0     H31460   8.821   0.174   7.545 -0.5947 -0.2761 -0.2269
  996MOL0     H31461   8.832   0.135   7.296 -2.8915 -0.1079 -1.8624
  996MOL0     H31462   8.750   0.439   7.019 -0.0316  0.6476 -2.2060
  996MOL0     H31463   8.585   0.372   7.035 -0.0049 -1.6700  1.8216
  996MOL0     H31464   8.638   0.191   6.885  1.1810 -1.9113 -2.6394
  996MOL0     H31465   8.680   0.349   6.818  3.0714  0.2279 -1.2827
  996MOL0     H31466   8.839   0.171   6.758 -0.6442 -1.9985  1.3231
  996MOL0     H31467   8.892   0.147   6.919  1.5901  1.9605  1.1007
  996MOL0     H31468   8.917   0.414   6.805 -0.9680 -2.5337 -2.2703
  996MOL0     H31469   8.994   0.347   6.958 -0.2171 -0.3719  0.4753
  996MOL0     H31470   9.218   0.222   6.613  1.1389  1.3437 -0.7136
  996MOL0     H31471   8.637   0.514   7.241 -2.0909 -0.3261  1.5180
  996MOL0     H31472   8.639   0.555   7.476 -0.6300 -1.1198  2.4682
  997MOL0     O31473   3.882   5.582   2.543  0.1374  0.3312 -1.1755
  997MOL0     C31474   3.762   5.610   2.542 -0.5069 -0.1247  0.3492
  997MOL0     O31475   3.657   5.525   2.538 -0.4181  0.5423  0.1742
  997MOL0     C31476   3.679   5.393   2.555  0.2910  0.2724  0.8031
  997MOL0     C31477   3.794   5.320   2.514  0.3293  0.0852 -1.1177
  997MOL0     C31478   3.793   5.176   2.538  1.1753  0.5414 -0.5466
  997MOL0     C31479   3.681   5.113   2.599 -0.5898  0.2347 -0.3828
  997MOL0     O31480   3.702   4.974   2.618  0.5767 -0.6522 -0.1390
  997MOL0     C31481   3.596   4.891   2.672  0.7924  0.7467 -0.2998
  997MOL0     C31482   3.570   4.750   2.617  0.7201  0.2067 -0.4412
  997MOL0     C31483   3.627   4.717   2.487 -0.8153  0.9248  0.3818
  997MOL0     C31484   3.549   4.772   2.363 -0.1274 -0.1571  0.6513
  997MOL0     C31485   3.598   4.699   2.242  0.0752 -0.2534  1.3218
  997MOL0     C31486   3.558   4.755   2.112 -0.0442 -0.1359 -0.6639
  997MOL0     C31487   3.587   4.647   2.014  0.8758 -0.5466  0.9179
  997MOL0     C31488   3.548   4.695   1.871  0.0791  1.0122  0.1539
  997MOL0     N31489   3.638   4.794   1.810 -0.1153 -0.5077 -0.1317
  997MOL0     C31490   3.674   4.922   1.852  0.1472  0.2356 -0.0203
  997MOL0     C31491   3.777   4.952   1.762  0.0898  0.3255 -0.3370
  997MOL0     C31492   3.858   5.079   1.768  0.3124  0.8262  0.0729
  997MOL0     C31493   3.989   5.097   1.706  0.5953 -0.5978 -0.0669
  997MOL0     C31494   4.102   5.007   1.764  0.2078  0.0851  0.1405
  997MOL0     C31495   4.125   5.043   1.910 -0.3123  0.3072  1.4698
  997MOL0     O31496   4.268   5.014   1.936  0.0722  0.7745 -0.2267
  997MOL0     C31497   4.313   5.007   2.070  0.0923  0.3709  0.5863
  997MOL0     C31498   4.451   4.994   2.080  0.3240  0.1407  0.6423
  997MOL0     C31499   4.513   4.980   2.201  0.3782  0.2576  0.3779
  997MOL0     C31500   4.448   5.004   2.319  0.4257  0.0945 -0.2647
  997MOL0     C31501   4.513   5.003   2.448 -0.4403  0.1808  0.0701
  997MOL0     O31502   4.446   5.018   2.563 -0.0255  0.1945  0.1025
  997MOL0     C31503   4.508   5.007   2.680  0.0381  0.3660  0.2352
  997MOL0     C31504   4.617   5.087   2.717  0.1099  0.2500 -0.3969
  997MOL0     C31505   4.681   5.080   2.845  0.0941 -0.0171  0.0778
  997MOL0     C31506   4.620   5.000   2.940 -0.6926  0.5048 -0.1745
  997MOL0     O31507   4.652   4.972   3.077  0.2766 -0.1337 -0.4023
  997MOL0     C31508   4.788   5.012   3.106 -0.2590  0.8463 -0.0357
  997MOL0     C31509   4.830   4.960   3.243 -0.1692  0.0343 -0.1464
  997MOL0     C31510   4.801   4.807   3.265 -1.2076  0.9572 -0.3533
  997MOL0     C31511   4.894   4.758   3.393  0.4991  0.5102 -1.0570
  997MOL0     C31512   4.823   4.638   3.457 -0.0028  0.3592  0.0491
  997MOL0     C31513   4.903   4.571   3.572  0.4952 -0.9849 -0.7464
  997MOL0     C31514   4.813   4.478   3.650 -0.6781  0.3467 -0.4519
  997MOL0     C31515   4.862   4.428   3.780 -0.2779 -0.7288 -0.4339
  997MOL0    Cl31516   5.025   4.336   3.761 -0.0071  0.3030  0.0112
  997MOL0     C31517   4.505   4.940   2.908  0.0753  1.2064  0.5242
  997MOL0     C31518   4.450   4.932   2.782  0.3286  0.1581  0.0656
  997MOL0     O31519   4.627   4.959   2.437  0.2015 -0.3065  0.9001
  997MOL0     C31520   4.304   5.012   2.308  0.2996 -0.4128 -0.4802
  997MOL0     C31521   4.247   5.013   2.187  0.7415 -0.2708 -0.3072
  997MOL0     N31522   3.794   4.850   1.669  0.3538 -0.7651 -0.3419
  997MOL0     N31523   3.709   4.759   1.696  0.5304 -0.0552  0.2779
  997MOL0     C31524   3.577   5.181   2.642  0.5294 -0.5047 -0.8127
  997MOL0     C31525   3.577   5.320   2.606 -0.4506 -0.4058 -0.2960
  997MOL0     C31526   3.713   5.743   2.511 -0.9303  0.8144 -0.1893
  997MOL0     C31527   3.802   5.845   2.473 -0.0004  0.7633  0.0782
  997MOL0     C31528   3.760   5.973   2.459 -0.3597  0.5076 -0.3691
  997MOL0     C31529   3.628   6.001   2.451  0.0794 -0.1520 -1.2866
  997MOL0     O31530   3.590   6.123   2.407 -0.0634  0.0561 -0.9029
  997MOL0     C31531   3.453   6.162   2.376  0.5441 -0.2336  1.0611
  997MOL0     C31532   3.452   6.310   2.353  0.1378  0.4741  0.1914
  997MOL0     C31533   3.313   6.359   2.322  0.1117 -0.5002  0.2983
  997MOL0     C31534   3.264   6.309   2.184  0.2284 -0.2779  0.2019
  997MOL0     C31535   3.131   6.347   2.139  1.3180  0.0831  0.7991
  997MOL0     C31536   3.013   6.363   2.116  0.6376  0.0879 -0.4825
  997MOL0     C31537   3.529   5.906   2.489 -0.3081  0.2927  1.3697
  997MOL0     C31538   3.572   5.775   2.530  0.1466 -0.3166  0.4989
  997MOL0     H31539   3.890   5.355   2.479  1.5663 -0.6513  1.3336
  997MOL0     H31540   3.874   5.109   2.514 -0.3527 -1.7894  0.5144
  997MOL0     H31541   3.510   4.948   2.637  1.0052 -1.0915 -4.2817
  997MOL0     H31542   3.599   4.893   2.782 -1.3683  1.1497 -0.1951
  997MOL0     H31543   3.463   4.729   2.626  1.1695 -1.9137  0.8300
  997MOL0     H31544   3.627   4.689   2.689  0.5765  1.1764  0.5240
  997MOL0     H31545   3.631   4.608   2.483  0.6718  0.9614  0.4121
  997MOL0     H31546   3.727   4.761   2.486 -0.7131  0.7292  1.3373
  997MOL0     H31547   3.445   4.745   2.381 -0.3859 -0.6981 -1.3667
  997MOL0     H31548   3.571   4.879   2.356  1.4994 -0.5576 -1.8821
  997MOL0     H31549   3.562   4.596   2.247 -0.8185  0.0420  1.1629
  997MOL0     H31550   3.707   4.704   2.244  0.0592  0.1425  1.1223
  997MOL0     H31551   3.627   4.838   2.095 -0.8772  0.2771 -2.3365
  997MOL0     H31552   3.454   4.790   2.111 -0.0980 -0.2202 -2.5700
  997MOL0     H31553   3.688   4.605   2.024  0.3478 -1.8667  0.9131
  997MOL0     H31554   3.526   4.566   2.054 -1.0499  0.8406  0.9266
  997MOL0     H31555   3.448   4.739   1.870 -0.6740 -0.6280 -1.2521
  997MOL0     H31556   3.540   4.604   1.811 -1.7585 -0.6409  2.7087
  997MOL0     H31557   3.651   4.980   1.940  0.1738 -0.5426  0.5109
  997MOL0     H31558   3.867   5.118   1.870 -1.1879 -1.2509  1.1020
  997MOL0     H31559   3.792   5.149   1.717  1.0182  1.3159 -0.1732
  997MOL0     H31560   4.031   5.198   1.713  2.9984 -1.5905  1.0551
  997MOL0     H31561   3.970   5.073   1.601  0.1003  1.2529 -0.4311
  997MOL0     H31562   4.069   4.903   1.753  1.1742 -0.0167 -2.5963
  997MOL0     H31563   4.185   5.030   1.696  0.7279  3.3161  1.6894
  997MOL0     H31564   4.052   4.978   1.960 -0.1600 -1.1842 -0.1541
  997MOL0     H31565   4.103   5.146   1.937 -2.1162  2.0726 -5.0660
  997MOL0     H31566   4.508   4.987   1.988  2.0654 -1.7133  1.7952
  997MOL0     H31567   4.621   4.970   2.194  0.4890 -0.5105  2.4808
  997MOL0     H31568   4.661   5.152   2.641 -2.0661 -1.9882 -3.8831
  997MOL0     H31569   4.772   5.132   2.871 -1.9191  3.8668  0.0333
  997MOL0     H31570   4.794   5.120   3.119  1.9243  0.6434  1.2301
  997MOL0     H31571   4.849   4.978   3.022 -3.7903  0.0265 -2.4778
  997MOL0     H31572   4.777   5.021   3.316 -0.0082 -0.2789  0.2307
  997MOL0     H31573   4.937   4.976   3.257  0.1902 -1.8410 -0.4681
  997MOL0     H31574   4.832   4.745   3.181 -1.5074  0.9654 -0.4724
  997MOL0     H31575   4.694   4.789   3.281 -0.8356  0.2153  1.6176
  997MOL0     H31576   4.984   4.713   3.351 -1.0551 -1.8656 -2.0240
  997MOL0     H31577   4.905   4.832   3.473  0.4369 -0.6942  0.0978
  997MOL0     H31578   4.800   4.564   3.379 -2.3943  2.7437 -1.7415
  997MOL0     H31579   4.729   4.681   3.494  0.2909  2.1315 -1.0994
  997MOL0     H31580   4.947   4.644   3.641 -0.4590 -1.3810  0.3202
  997MOL0     H31581   4.986   4.517   3.525 -0.1584  0.9928 -4.5635
  997MOL0     H31582   4.715   4.520   3.674 -0.7875  1.1287 -2.1621
  997MOL0     H31583   4.793   4.396   3.580 -1.9037  0.3565 -0.1309
  997MOL0     H31584   4.783   4.366   3.823 -2.1599 -0.5152 -3.2650
  997MOL0     H31585   4.862   4.510   3.852 -1.4201  0.4125 -1.6537
  997MOL0     H31586   4.453   4.875   2.978 -2.0394 -0.1619 -2.1137
  997MOL0     H31587   4.361   4.874   2.764  0.6803 -0.4272  0.2029
  997MOL0     H31588   4.246   5.020   2.399 -1.4298 -0.2526 -1.5475
  997MOL0     H31589   4.143   5.044   2.192  1.9230  4.2787  4.0882
  997MOL0     H31590   3.504   5.136   2.708 -0.5312  1.8182 -0.2898
  997MOL0     H31591   3.484   5.362   2.641  0.4960 -1.7955  4.6429
  997MOL0     H31592   3.908   5.830   2.461  0.2182  1.8433  0.5427
  997MOL0     H31593   3.831   6.050   2.434  0.7432 -0.7132 -1.1222
  997MOL0     H31594   3.391   6.137   2.463 -0.9915 -0.4345 -0.0400
  997MOL0     H31595   3.422   6.108   2.285 -0.2641 -1.3150  1.9489
  997MOL0     H31596   3.485   6.363   2.443  0.3354 -1.2162  1.1596
  997MOL0     H31597   3.520   6.327   2.269  0.5785 -0.7926  0.2687
  997MOL0     H31598   3.322   6.468   2.326  0.1732 -0.4696 -0.4865
  997MOL0     H31599   3.234   6.332   2.392  0.9190  1.2747  1.9872
  997MOL0     H31600   3.345   6.350   2.122  2.7459 -2.5734  1.7672
  997MOL0     H31601   3.274   6.200   2.176 -2.4401 -0.6047  0.3666
  997MOL0     H31602   2.914   6.385   2.079  1.1038 -2.2742 -3.5331
  997MOL0     H31603   3.424   5.924   2.472 -0.1128  0.2957  0.1167
  997MOL0     H31604   3.497   5.705   2.563 -2.5079  1.5709 -1.1289
  998MOL0     O31605   5.075  10.398   4.640  0.4912 -0.8327 -0.3520
  998MOL0     C31606   4.946  10.390   4.641  0.8356  1.0117  0.1697
  998MOL0     O31607   4.877  10.286   4.676  0.0002  0.4420  1.1778
  998MOL0     C31608   4.956  10.172   4.679 -0.6026 -0.6286  0.2403
  998MOL0     C31609   4.995  10.119   4.811  1.1163 -0.1301 -0.6499
  998MOL0     C31610   5.078  10.009   4.810  0.5530  0.1878 -0.4367
  998MOL0     C31611   5.133   9.965   4.695 -0.4569  0.8779  0.9424
  998MOL0     O31612   5.225   9.864   4.681 -0.0807  0.7144  0.3221
  998MOL0     C31613   5.364   9.909   4.690  0.7926  0.1668 -0.1500
  998MOL0     C31614   5.420   9.884   4.835 -0.5542 -0.1051 -0.5505
  998MOL0     C31615   5.402   9.739   4.879 -0.3655 -0.9615  0.1007
  998MOL0     C31616   5.481   9.706   5.007  0.3314 -0.3559 -0.0832
  998MOL0     C31617   5.498   9.557   5.036  0.4334 -0.1450 -0.2204
  998MOL0     C31618   5.369   9.497   5.081 -0.6387  0.0261 -0.6992
  998MOL0     C31619   5.385   9.371   5.154 -0.4353 -0.4810 -0.9873
  998MOL0     C31620   5.469   9.361   5.289  0.0677 -0.1804  0.2890
  998MOL0     N31621   5.430   9.467   5.379  0.3932  0.2026  0.2219
  998MOL0     C31622   5.301   9.492   5.418 -0.5840 -0.3824  0.1899
  998MOL0     C31623   5.311   9.590   5.509 -0.7950 -0.9526 -0.3335
  998MOL0     C31624   5.197   9.660   5.581 -0.5521  0.0454 -0.8989
  998MOL0     C31625   5.126   9.542   5.653 -0.2584 -0.3307  0.9745
  998MOL0     C31626   4.969   9.549   5.673 -0.6162 -0.0205 -0.3038
  998MOL0     C31627   4.926   9.683   5.744 -0.0398 -0.2792 -0.4998
  998MOL0     O31628   4.877   9.774   5.649  0.2117  0.4503 -0.1552
  998MOL0     C31629   4.743   9.784   5.619 -0.6419  0.3184 -0.3446
  998MOL0     C31630   4.707   9.889   5.532 -0.1390  0.5136 -0.1397
  998MOL0     C31631   4.571   9.910   5.488 -0.4533 -0.0219 -0.2913
  998MOL0     C31632   4.466   9.824   5.539  0.3307  0.4344 -0.4703
  998MOL0     C31633   4.319   9.842   5.510 -0.0718 -0.3526 -0.4829
  998MOL0     O31634   4.272   9.947   5.445  0.1583  0.2940  0.0304
  998MOL0     C31635   4.140   9.986   5.430 -0.3534 -0.9729 -0.2560
  998MOL0     C31636   4.094  10.110   5.482 -0.9600  0.5825  0.1047
  998MOL0     C31637   3.964  10.130   5.477  0.2916  0.0579 -0.4936
  998MOL0     C31638   3.864  10.047   5.427  0.8802  0.6712 -0.3894
  998MOL0     O31639   3.731  10.084   5.442 -0.0682 -0.5431  0.1239
  998MOL0     C31640   3.632   9.995   5.386 -0.2467 -0.8711  0.2057
  998MOL0     C31641   3.495  10.039   5.420  0.7616 -1.3318  0.7581
  998MOL0     C31642   3.482  10.187   5.363 -0.2732 -0.0159  0.2451
  998MOL0     C31643   3.330  10.209   5.329  0.7638  0.4568 -0.0042
  998MOL0     C31644   3.245  10.228   5.452  0.0384 -0.8399  0.0561
  998MOL0     C31645   3.106  10.258   5.399  0.8096  0.2277  0.7706
  998MOL0     C31646   3.019  10.272   5.522 -0.0552 -0.5248 -0.4725
  998MOL0     C31647   2.873  10.297   5.481  0.6101 -0.1811 -0.0087
  998MOL0    Cl31648   2.799  10.154   5.404 -0.3059  0.0705 -0.2153
  998MOL0     C31649   3.907   9.925   5.365  0.1134  0.1808  0.4085
  998MOL0     C31650   4.044   9.896   5.373  0.0697  0.2972  0.0202
  998MOL0     O31651   4.242   9.767   5.564 -0.3557  0.3962  0.0707
  998MOL0     C31652   4.502   9.722   5.634 -1.0780 -0.1448  0.0979
  998MOL0     C31653   4.639   9.700   5.673 -0.3534  1.0733 -0.0776
  998MOL0     N31654   5.441   9.618   5.542  1.5061 -0.1007 -0.3130
  998MOL0     N31655   5.510   9.551   5.452  0.0178 -0.0689  0.3598
  998MOL0     C31656   5.086  10.006   4.564  0.4977  0.0214 -0.1791
  998MOL0     C31657   4.997  10.110   4.565  0.6004  0.3710 -0.1546
  998MOL0     C31658   4.858  10.504   4.608  0.0017 -0.6675  0.7968
  998MOL0     C31659   4.895  10.600   4.515  0.7098 -0.3416 -0.3385
  998MOL0     C31660   4.806  10.704   4.472  0.1742 -0.3029  0.0128
  998MOL0     C31661   4.671  10.702   4.523 -0.0709 -0.5121  1.2739
  998MOL0     O31662   4.594  10.813   4.488 -0.7943  0.8125 -0.1079
  998MOL0     C31663   4.456  10.811   4.518  0.5339  1.0180  0.2683
  998MOL0     C31664   4.413  10.900   4.626 -0.1671 -0.2025 -0.2548
  998MOL0     C31665   4.461  11.045   4.605  0.3616  0.2341 -0.1401
  998MOL0     C31666   4.437  11.100   4.464  0.4327  0.7172  0.2366
  998MOL0     C31667   4.485  11.234   4.456  0.4357 -0.6176  0.0980
  998MOL0     C31668   4.533  11.342   4.451  0.4436  0.2097  0.0341
  998MOL0     C31669   4.632  10.598   4.610  0.3366 -0.9838 -0.5066
  998MOL0     C31670   4.724  10.502   4.655  0.7764 -0.2380 -0.0055
  998MOL0     H31671   4.958  10.165   4.902 -0.0753  0.1907 -1.2776
  998MOL0     H31672   5.111   9.970   4.906 -1.0976  1.0066  0.5063
  998MOL0     H31673   5.367  10.016   4.669  2.9262  0.1657 -0.0730
  998MOL0     H31674   5.421   9.857   4.613 -0.1884  0.7808 -1.3367
  998MOL0     H31675   5.371   9.951   4.907  0.6754 -0.6495  0.8545
  998MOL0     H31676   5.522   9.913   4.810 -1.9853  2.9979 -3.5326
  998MOL0     H31677   5.423   9.663   4.803 -1.4403  0.1278 -1.3548
  998MOL0     H31678   5.297   9.725   4.906 -0.3764  0.5044  0.8860
  998MOL0     H31679   5.579   9.748   4.981 -0.0528  0.6415  0.0179
  998MOL0     H31680   5.446   9.770   5.089  1.3423 -2.1633  1.8710
  998MOL0     H31681   5.582   9.538   5.104 -0.8406 -1.2031  1.1315
  998MOL0     H31682   5.542   9.507   4.949  3.3242  0.2765  0.8857
  998MOL0     H31683   5.316   9.478   4.987 -0.3087 -1.6406 -0.5906
  998MOL0     H31684   5.308   9.564   5.142  2.3412  0.5195  2.0012
  998MOL0     H31685   5.286   9.326   5.161  0.2286 -1.7553  1.3566
  998MOL0     H31686   5.433   9.300   5.085 -0.0198 -0.7420 -0.4375
  998MOL0     H31687   5.576   9.371   5.271  0.5389  0.4341  3.0134
  998MOL0     H31688   5.472   9.260   5.332  3.2971 -0.5170 -0.4308
  998MOL0     H31689   5.206   9.465   5.373 -0.4087  0.7006 -0.8797
  998MOL0     H31690   5.122   9.693   5.508 -0.5168 -0.5736 -1.2230
  998MOL0     H31691   5.230   9.742   5.645 -1.1526 -0.3389 -0.0887
  998MOL0     H31692   5.174   9.534   5.751  1.5813  0.3147  0.1819
  998MOL0     H31693   5.132   9.452   5.592  3.2293  0.6439 -0.4052
  998MOL0     H31694   4.925   9.536   5.574 -1.9475  0.2693  0.2198
  998MOL0     H31695   4.934   9.463   5.732 -4.1054  1.0452 -0.5595
  998MOL0     H31696   5.007   9.736   5.794 -0.0099 -3.1986  2.9900
  998MOL0     H31697   4.851   9.661   5.820 -2.5388  0.3064 -2.6355
  998MOL0     H31698   4.782   9.958   5.493  0.5347 -0.2911 -0.2957
  998MOL0     H31699   4.553   9.992   5.419 -1.3413 -0.3187 -0.4286
  998MOL0     H31700   4.160  10.187   5.520  1.4234 -1.2066 -0.1887
  998MOL0     H31701   3.931  10.218   5.531 -0.7173 -2.0712  2.6317
  998MOL0     H31702   3.645   9.900   5.439 -2.2738  0.3585  3.2066
  998MOL0     H31703   3.643   9.987   5.278 -2.1089  0.7006 -0.1565
  998MOL0     H31704   3.479  10.026   5.527  3.7270 -3.3888  1.0996
  998MOL0     H31705   3.433   9.968   5.365 -0.0909  0.4937 -0.7721
  998MOL0     H31706   3.522  10.192   5.261  0.5573  1.1879  0.6164
  998MOL0     H31707   3.521  10.269   5.425  0.8791  1.2217 -1.9956
  998MOL0     H31708   3.322  10.288   5.255 -0.8620 -0.7597 -1.1881
  998MOL0     H31709   3.286  10.123   5.279  4.1605 -0.2716 -2.0671
  998MOL0     H31710   3.288  10.314   5.503  1.3241 -1.5678  0.2300
  998MOL0     H31711   3.250  10.144   5.522 -0.8681 -0.0112  1.1640
  998MOL0     H31712   3.067  10.185   5.327 -2.8976  1.7894  0.9410
  998MOL0     H31713   3.092  10.355   5.351 -0.9278 -1.1177 -1.6370
  998MOL0     H31714   3.019  10.180   5.582  1.7382 -2.0443 -2.6533
  998MOL0     H31715   3.051  10.363   5.573  1.3675 -0.6451 -1.1101
  998MOL0     H31716   2.879  10.379   5.409  2.4675 -2.3686 -2.5321
  998MOL0     H31717   2.802  10.311   5.563 -2.5234  1.6552 -2.7782
  998MOL0     H31718   3.838   9.856   5.319  0.1721 -0.8431  1.7976
  998MOL0     H31719   4.084   9.802   5.335 -1.5031 -0.8534  1.0596
  998MOL0     H31720   4.424   9.662   5.680 -2.6093  1.1310 -0.7257
  998MOL0     H31721   4.662   9.620   5.743 -2.3677  2.2261  2.0552
  998MOL0     H31722   5.118   9.964   4.469 -1.4647 -0.7767 -0.5252
  998MOL0     H31723   4.966  10.147   4.468  0.1720 -1.7427 -0.8792
  998MOL0     H31724   4.990  10.601   4.462  0.5478  0.5479 -0.6354
  998MOL0     H31725   4.831  10.787   4.406  1.7821 -2.1450 -1.8635
  998MOL0     H31726   4.417  10.712   4.542  2.2252  0.3520  0.3860
  998MOL0     H31727   4.398  10.847   4.432 -0.2414 -2.9847 -1.0917
  998MOL0     H31728   4.306  10.890   4.644 -0.2686  1.4244  0.1927
  998MOL0     H31729   4.464  10.855   4.711  1.0877 -1.6602 -1.7076
  998MOL0     H31730   4.568  11.047   4.626  0.1675 -3.1521  1.9954
  998MOL0     H31731   4.414  11.107   4.682  1.5408  1.4928 -0.4074
  998MOL0     H31732   4.476  11.033   4.387 -1.4817 -1.5640  1.1126
  998MOL0     H31733   4.328  11.095   4.452  0.5779  0.7310 -1.2284
  998MOL0     H31734   4.580  11.438   4.453  0.6756  0.0922  0.4999
  998MOL0     H31735   4.537  10.596   4.662  1.3852  0.5764  1.6300
  998MOL0     H31736   4.698  10.441   4.741 -1.3643  2.3354  1.3385
  999MOL0     O31737   4.643   4.103   8.828 -0.8042  0.8834  0.1290
  999MOL0     C31738   4.658   4.063   8.712  0.7585 -0.4716 -0.0474
  999MOL0     O31739   4.681   3.930   8.681 -1.2421  0.0487  0.3521
  999MOL0     C31740   4.730   3.847   8.783  0.6522 -0.4626 -0.1454
  999MOL0     C31741   4.843   3.769   8.755 -0.0855 -0.1571  0.3705
  999MOL0     C31742   4.887   3.685   8.852  0.1426 -0.1426  0.1757
  999MOL0     C31743   4.831   3.666   8.976 -0.9930 -0.1331 -0.8902
  999MOL0     O31744   4.884   3.581   9.067  0.7653 -0.8161  0.3386
  999MOL0     C31745   4.863   3.600   9.208 -0.1632  0.7510 -0.3438
  999MOL0     C31746   4.995   3.577   9.293 -0.4000  0.6315  0.0051
  999MOL0     C31747   5.104   3.648   9.238  0.4473 -0.3602 -0.1712
  999MOL0     C31748   5.240   3.630   9.313 -0.4542  0.0042  0.0676
  999MOL0     C31749   5.331   3.749   9.306  0.2249  0.4299 -1.0197
  999MOL0     C31750   5.466   3.726   9.356 -0.3503  0.6178  0.0959
  999MOL0     C31751   5.472   3.728   9.515 -0.2655 -0.1650  0.3385
  999MOL0     C31752   5.400   3.845   9.590 -0.4664 -0.5980  0.1462
  999MOL0     N31753   5.270   3.802   9.627  0.0955  0.1669  0.7658
  999MOL0     C31754   5.239   3.707   9.729  0.6483 -1.4961 -0.8223
  999MOL0     C31755   5.101   3.716   9.735 -0.1541 -0.6484 -0.6113
  999MOL0     C31756   5.020   3.637   9.845  0.5898 -0.4294  0.5759
  999MOL0     C31757   5.074   3.687   9.979 -0.1179 -0.7349  0.6662
  999MOL0     C31758   5.003   3.626  10.092 -0.6060  0.1405  0.1786
  999MOL0     C31759   4.850   3.620  10.078  0.4238  1.0232  0.1278
  999MOL0     O31760   4.800   3.522  10.179  0.3310  0.2339 -0.3808
  999MOL0     C31761   4.679   3.542  10.235 -0.2482 -0.4096  0.2264
  999MOL0     C31762   4.578   3.618  10.176  0.1481  0.3742  1.0915
  999MOL0     C31763   4.461   3.634  10.233  0.4718 -0.1943 -0.1520
  999MOL0     C31764   4.431   3.577  10.354 -0.3334  0.1581  0.4890
  999MOL0     C31765   4.314   3.634  10.416  0.3637  0.6665  0.7172
  999MOL0     O31766   4.232   3.710  10.337  0.8433  0.4346  1.0243
  999MOL0     C31767   4.139   3.789  10.393 -0.5980 -0.5978 -0.4075
  999MOL0     C31768   4.129   3.905  10.320 -0.4789  0.6152 -0.4823
  999MOL0     C31769   4.066   4.017  10.374 -0.2177 -1.2322 -0.5004
  999MOL0     C31770   4.010   4.016  10.506  0.9515 -1.1031 -0.1419
  999MOL0     O31771   3.973   4.141  10.559  0.0176 -0.5879 -0.1436
  999MOL0     C31772   3.919   4.133  10.694 -0.3694  0.4615 -0.5797
  999MOL0     C31773   3.867   4.277  10.735  0.5699  0.2508  0.7204
  999MOL0     C31774   3.875   4.292  10.883  0.2708 -1.1791 -0.8486
  999MOL0     C31775   3.827   4.419  10.939 -0.1569 -0.1826 -0.6365
  999MOL0     C31776   3.918   4.535  10.880  0.1095 -0.0929 -1.2226
  999MOL0     C31777   3.842   4.661  10.867 -1.1049  0.4580 -0.4048
  999MOL0     C31778   3.947   4.771  10.849  0.3438  1.4341 -0.3436
  999MOL0     C31779   3.895   4.905  10.816  0.3609 -0.0167 -0.1826
  999MOL0    Cl31780   3.746   4.942  10.909  0.5001 -0.2671 -0.3990
  999MOL0     C31781   4.002   3.892  10.570 -0.6123  0.9513  0.4373
  999MOL0     C31782   4.070   3.779  10.514  0.2009 -0.6450 -0.4510
  999MOL0     O31783   4.285   3.603  10.534 -0.8284 -0.9682 -0.3774
  999MOL0     C31784   4.530   3.509  10.423  0.7203 -0.1448 -0.7397
  999MOL0     C31785   4.654   3.491  10.356  0.8873  0.0960 -0.7866
  999MOL0     N31786   5.055   3.782   9.621 -0.1934  0.0491  0.0740
  999MOL0     N31787   5.161   3.833   9.564 -0.1922  0.2475  0.8143
  999MOL0     C31788   4.716   3.744   9.014  0.2912 -0.2077 -0.5146
  999MOL0     C31789   4.666   3.828   8.913 -0.7618 -0.2067  0.1927
  999MOL0     C31790   4.638   4.156   8.596 -0.2187 -0.3231  0.2398
  999MOL0     C31791   4.671   4.112   8.463  0.3763 -0.7270  0.2351
  999MOL0     C31792   4.666   4.198   8.355  0.4956  0.0485 -1.0921
  999MOL0     C31793   4.627   4.329   8.371  0.1008  0.8058  0.3760
  999MOL0     O31794   4.636   4.405   8.255 -0.3278  0.4718  0.8877
  999MOL0     C31795   4.531   4.509   8.250  0.2471  0.3810 -1.3374
  999MOL0     C31796   4.506   4.527   8.099 -0.2855 -0.2297  0.0490
  999MOL0     C31797   4.455   4.391   8.028 -0.1236  0.7749 -0.1913
  999MOL0     C31798   4.416   4.421   7.885  0.7999 -1.0281  0.4590
  999MOL0     C31799   4.340   4.307   7.835  0.2921 -0.4864 -0.2903
  999MOL0     C31800   4.274   4.219   7.776  0.5080  0.5197  0.6456
  999MOL0     C31801   4.598   4.377   8.494  0.9069 -0.7700  0.3827
  999MOL0     C31802   4.621   4.297   8.608  0.9387 -0.1074  0.0138
  999MOL0     H31803   4.907   3.783   8.669  2.0120  2.0735  2.1443
  999MOL0     H31804   4.970   3.618   8.836 -0.5524 -1.5621  2.1609
  999MOL0     H31805   4.797   3.514   9.227  0.4827  0.3336  0.0489
  999MOL0     H31806   4.830   3.701   9.232 -0.5953  0.8439 -1.2845
  999MOL0     H31807   5.020   3.472   9.308 -0.9691  0.2376 -1.6008
  999MOL0     H31808   4.984   3.616   9.395  3.5787  0.3665  0.7051
  999MOL0     H31809   5.081   3.755   9.244 -0.4532 -0.5309 -0.4476
  999MOL0     H31810   5.101   3.627   9.131 -4.0467  0.8932 -0.5366
  999MOL0     H31811   5.220   3.618   9.419  0.5360 -0.6795  0.1895
  999MOL0     H31812   5.285   3.543   9.264  1.6503  0.9729  0.2022
  999MOL0     H31813   5.286   3.829   9.365  0.4628  2.0013 -2.8418
  999MOL0     H31814   5.343   3.797   9.208  1.8846  4.1067  0.7630
  999MOL0     H31815   5.541   3.797   9.319  2.1609 -1.5094  0.7554
  999MOL0     H31816   5.502   3.632   9.311 -3.5806 -0.0985 -1.2706
  999MOL0     H31817   5.452   3.626   9.551  1.3246 -0.5485  0.2411
  999MOL0     H31818   5.578   3.715   9.538 -0.4371 -3.2690 -0.2017
  999MOL0     H31819   5.375   3.932   9.528 -2.7791  0.8406  2.8513
  999MOL0     H31820   5.458   3.873   9.679 -2.1060 -1.4025  1.5111
  999MOL0     H31821   5.299   3.653   9.802 -0.2242 -4.2851 -2.0403
  999MOL0     H31822   5.024   3.531   9.820 -1.1036 -0.3537 -0.1530
  999MOL0     H31823   4.916   3.671   9.834  0.2514 -0.5137  2.9732
  999MOL0     H31824   5.077   3.797   9.981 -1.6515 -0.6675  2.3557
  999MOL0     H31825   5.178   3.654   9.986 -0.6647 -2.2260  2.5124
  999MOL0     H31826   5.035   3.522  10.103 -2.2744 -0.1579  3.5550
  999MOL0     H31827   5.035   3.671  10.186  1.3062 -2.3451  0.8284
  999MOL0     H31828   4.816   3.579   9.983 -0.7605 -0.1014  1.0044
  999MOL0     H31829   4.819   3.724  10.093 -4.9075 -0.2005 -0.5558
  999MOL0     H31830   4.593   3.668  10.080  1.7578  1.2296  1.7379
  999MOL0     H31831   4.397   3.699  10.174 -0.6759 -1.8014 -0.7405
  999MOL0     H31832   4.173   3.923  10.223  0.5061  1.0146  0.0204
  999MOL0     H31833   4.066   4.108  10.314 -0.2402 -1.1999 -0.4516
  999MOL0     H31834   4.000   4.108  10.763 -0.3512  1.7108 -0.1224
  999MOL0     H31835   3.845   4.052  10.696  1.5541 -1.3422  0.4374
  999MOL0     H31836   3.761   4.290  10.711  0.3983 -1.6756  0.2582
  999MOL0     H31837   3.919   4.357  10.682  1.2180  0.2449  1.3274
  999MOL0     H31838   3.982   4.284  10.906 -0.0905  1.1816  2.3366
  999MOL0     H31839   3.820   4.211  10.931  0.0194 -1.1410 -1.0722
  999MOL0     H31840   3.719   4.431  10.924 -0.0003  0.9193 -0.9140
  999MOL0     H31841   3.847   4.409  11.046 -0.4412 -0.6365 -0.6203
  999MOL0     H31842   3.964   4.513  10.783 -0.5189 -0.6871 -1.3963
  999MOL0     H31843   3.999   4.563  10.947 -2.5534 -0.0891  2.2699
  999MOL0     H31844   3.789   4.690  10.958  1.0742 -0.9741  1.4236
  999MOL0     H31845   3.761   4.659  10.793 -2.7867  2.5342  1.2434
  999MOL0     H31846   4.001   4.781  10.944  1.1135  0.2121 -0.6311
  999MOL0     H31847   4.012   4.734  10.769  1.5355  0.3277  1.0834
  999MOL0     H31848   3.869   4.921  10.711 -2.4028 -1.4651  0.2001
  999MOL0     H31849   3.970   4.983  10.836  0.7362 -0.0877 -1.2779
  999MOL0     H31850   3.958   3.875  10.668 -1.2548 -3.9233 -0.4278
  999MOL0     H31851   4.077   3.689  10.574  2.8217  1.8379  3.3855
  999MOL0     H31852   4.519   3.491  10.529  0.0238  2.7238 -0.2334
  999MOL0     H31853   4.728   3.429  10.406  0.1895  0.5945  0.9603
  999MOL0     H31854   4.656   3.711   9.097 -0.4364 -0.5542 -1.1684
  999MOL0     H31855   4.580   3.889   8.941  0.4565  0.9809  1.5194
  999MOL0     H31856   4.701   4.009   8.447  1.6823 -0.6030  1.7524
  999MOL0     H31857   4.686   4.162   8.255 -0.4531  0.9395 -1.6311
  999MOL0     H31858   4.568   4.601   8.296 -0.7183 -1.3426  3.4383
  999MOL0     H31859   4.443   4.486   8.310  1.9806  2.0790  2.0936
  999MOL0     H31860   4.428   4.602   8.079  1.4129  1.4440 -0.5218
  999MOL0     H31861   4.602   4.554   8.055 -0.6518  0.4458 -0.3577
  999MOL0     H31862   4.374   4.348   8.088  1.2964 -0.0865  1.1920
  999MOL0     H31863   4.533   4.315   8.036  0.2042  1.2093  1.0156
  999MOL0     H31864   4.348   4.504   7.867  1.0811 -1.2014 -1.7408
  999MOL0     H31865   4.503   4.442   7.822  2.3803 -0.6188  2.6530
  999MOL0     H31866   4.205   4.150   7.731 -1.3013  0.0174  3.8485
  999MOL0     H31867   4.576   4.481   8.516  1.9496 -0.0721 -1.5996
  999MOL0     H31868   4.617   4.343   8.706  0.0912  0.8070 -0.4366
 1000MOL0     O31869   4.713   2.557   2.999 -0.4572  0.6643 -0.7568
 1000MOL0     C31870   4.764   2.665   3.031  0.3204 -0.2896 -0.7258
 1000MOL0     O31871   4.896   2.686   3.045 -0.2292 -0.4968 -0.4498
 1000MOL0     C31872   4.982   2.576   3.018 -0.1498 -0.2840  0.2717
 1000MOL0     C31873   5.063   2.517   3.125  0.2511 -0.8319  0.6661
 1000MOL0     C31874   5.138   2.405   3.102 -0.1156 -0.3717  0.4360
 1000MOL0     C31875   5.133   2.350   2.970 -0.1896 -0.3076  0.6368
 1000MOL0     O31876   5.207   2.232   2.948  0.1135 -0.1989  0.6230
 1000MOL0     C31877   5.112   2.143   2.885  0.6700 -0.4686  0.9178
 1000MOL0     C31878   5.188   2.015   2.917  0.1812 -0.4110  0.5479
 1000MOL0     C31879   5.136   1.879   2.874 -0.2120 -1.0291  0.1296
 1000MOL0     C31880   5.249   1.777   2.891  0.3872 -0.3813  0.3998
 1000MOL0     C31881   5.288   1.761   3.040 -0.3764  0.7666 -0.5463
 1000MOL0     C31882   5.368   1.640   3.077  0.3084  0.4527 -0.0884
 1000MOL0     C31883   5.510   1.654   3.043 -0.1372 -0.1197  0.8591
 1000MOL0     C31884   5.593   1.527   3.026 -0.3516 -0.2833  0.6529
 1000MOL0     N31885   5.592   1.452   3.152  1.4500 -0.0957  0.2245
 1000MOL0     C31886   5.505   1.349   3.179 -0.2024 -0.6184  0.1620
 1000MOL0     C31887   5.512   1.340   3.314 -0.6063 -0.7528  0.2215
 1000MOL0     C31888   5.436   1.250   3.398 -0.1455 -0.3108 -0.2054
 1000MOL0     C31889   5.287   1.288   3.413  0.0411 -0.8629  0.1177
 1000MOL0     C31890   5.256   1.420   3.487  0.2320  0.0133  0.4777
 1000MOL0     C31891   5.342   1.425   3.614  0.1538 -0.6474  0.9303
 1000MOL0     O31892   5.303   1.534   3.694 -0.0316  0.1367 -0.0464
 1000MOL0     C31893   5.211   1.529   3.792 -0.3420 -0.1061  0.0034
 1000MOL0     C31894   5.202   1.636   3.878 -0.1605 -0.8811 -0.1247
 1000MOL0     C31895   5.122   1.634   3.989  1.1407 -0.4658  0.3659
 1000MOL0     C31896   5.025   1.524   4.011  0.8629  0.1459  0.2549
 1000MOL0     C31897   4.928   1.517   4.126  0.7107  0.1941  1.3988
 1000MOL0     O31898   4.831   1.426   4.114 -0.0102  0.5538  0.0548
 1000MOL0     C31899   4.760   1.395   4.230  1.0765 -0.1420  0.0610
 1000MOL0     C31900   4.622   1.414   4.237  0.6368 -0.4130  0.6330
 1000MOL0     C31901   4.548   1.374   4.351 -0.3172 -0.6827 -0.2695
 1000MOL0     C31902   4.613   1.314   4.456  0.0384 -0.5692 -0.5761
 1000MOL0     O31903   4.549   1.258   4.563 -0.3263  0.8423 -0.1965
 1000MOL0     C31904   4.411   1.298   4.578 -0.7365  0.2510 -0.5135
 1000MOL0     C31905   4.361   1.224   4.711  0.7053  0.6547  0.2215
 1000MOL0     C31906   4.337   1.076   4.676  0.6048  1.0857 -0.1385
 1000MOL0     C31907   4.281   0.996   4.797  0.3984  0.2730 -0.5186
 1000MOL0     C31908   4.357   1.002   4.935  0.3041  0.0253  0.7982
 1000MOL0     C31909   4.505   0.959   4.924  0.8355  0.4031 -0.5850
 1000MOL0     C31910   4.541   0.916   5.065  0.2617  0.9639 -0.3317
 1000MOL0     C31911   4.692   0.922   5.075 -0.3146  0.5791 -0.0364
 1000MOL0    Cl31912   4.765   0.875   5.231 -0.0121 -0.0150  0.5839
 1000MOL0     C31913   4.755   1.299   4.456 -1.0248  0.0234 -0.6045
 1000MOL0     C31914   4.824   1.336   4.342 -0.4444  0.1523 -0.2037
 1000MOL0     O31915   4.950   1.595   4.217 -0.4646 -0.1284 -0.0760
 1000MOL0     C31916   5.031   1.417   3.919 -0.4779  0.3472  1.2464
 1000MOL0     C31917   5.123   1.418   3.814 -0.0342  0.4198  0.7627
 1000MOL0     N31918   5.597   1.440   3.365 -0.3779 -0.0028 -0.6574
 1000MOL0     N31919   5.651   1.493   3.265 -0.3372  0.0171 -0.0657
 1000MOL0     C31920   5.080   2.423   2.864 -0.0805 -0.4950 -0.3977
 1000MOL0     C31921   4.994   2.523   2.889  0.0071 -0.5138 -0.5317
 1000MOL0     C31922   4.671   2.779   3.048  1.6229 -0.8048 -0.0981
 1000MOL0     C31923   4.531   2.758   3.044 -0.7788  0.0762 -1.1543
 1000MOL0     C31924   4.436   2.861   3.054 -1.0769 -0.8885 -0.3102
 1000MOL0     C31925   4.486   2.988   3.084 -0.1876  0.3143 -0.7474
 1000MOL0     O31926   4.397   3.086   3.103 -0.0360  0.1300  0.0802
 1000MOL0     C31927   4.430   3.228   3.087 -0.3304  0.2733 -0.1476
 1000MOL0     C31928   4.465   3.263   2.939 -0.8423  0.2944 -0.4680
 1000MOL0     C31929   4.367   3.223   2.823  0.7585  0.1727  1.1205
 1000MOL0     C31930   4.387   3.296   2.697  0.3077 -0.4375 -0.2318
 1000MOL0     C31931   4.321   3.235   2.589 -0.5190 -0.7238 -0.5098
 1000MOL0     C31932   4.263   3.195   2.499  0.8153  0.5539 -0.7800
 1000MOL0     C31933   4.622   3.010   3.072  0.4889  0.4323 -0.1488
 1000MOL0     C31934   4.717   2.908   3.059 -0.1366 -0.2958 -0.1893
 1000MOL0     H31935   5.063   2.558   3.225 -2.6384 -0.5347  0.6437
 1000MOL0     H31936   5.174   2.361   3.195  1.2793  1.1035  0.6376
 1000MOL0     H31937   5.097   2.152   2.777 -3.6238  1.4462  1.4465
 1000MOL0     H31938   5.010   2.154   2.923 -0.5948  1.4970 -2.5600
 1000MOL0     H31939   5.204   2.014   3.026  2.0976 -0.7289  0.3032
 1000MOL0     H31940   5.283   2.027   2.864  0.3804 -1.1469  0.7228
 1000MOL0     H31941   5.101   1.870   2.771 -0.8106 -0.8206  0.3141
 1000MOL0     H31942   5.049   1.855   2.935 -1.5771  3.2005  0.1090
 1000MOL0     H31943   5.208   1.686   2.846 -0.4115 -0.0123  0.3778
 1000MOL0     H31944   5.345   1.806   2.847  0.1894  1.3099  0.9920
 1000MOL0     H31945   5.192   1.760   3.094 -0.5366  0.1175 -0.8401
 1000MOL0     H31946   5.342   1.848   3.079  1.3313  0.0365 -1.2199
 1000MOL0     H31947   5.320   1.555   3.027 -1.0281  0.9679  0.2815
 1000MOL0     H31948   5.358   1.630   3.185  1.9285 -0.5839  0.0104
 1000MOL0     H31949   5.513   1.696   2.942 -2.8549  2.1526  1.5853
 1000MOL0     H31950   5.557   1.732   3.104  0.0821  1.3017 -1.0052
 1000MOL0     H31951   5.696   1.553   3.000 -0.9170  1.7526  0.2865
 1000MOL0     H31952   5.552   1.475   2.939 -0.2103  0.8472 -0.1156
 1000MOL0     H31953   5.447   1.298   3.102 -2.2222  0.6865  0.7399
 1000MOL0     H31954   5.478   1.236   3.498 -0.0673 -2.3854 -0.4824
 1000MOL0     H31955   5.448   1.152   3.350  3.4339  0.9698 -2.2953
 1000MOL0     H31956   5.240   1.209   3.472 -0.7265 -0.4303  0.1004
 1000MOL0     H31957   5.249   1.282   3.311 -1.4299  0.6526  0.5384
 1000MOL0     H31958   5.269   1.496   3.409  2.6464 -0.8539 -0.0320
 1000MOL0     H31959   5.150   1.418   3.514 -0.2368  1.1809 -1.1250
 1000MOL0     H31960   5.440   1.447   3.572 -0.3281  0.1238  0.1632
 1000MOL0     H31961   5.349   1.332   3.669 -4.2425 -1.2985  0.7948
 1000MOL0     H31962   5.282   1.707   3.857  2.6086 -3.8651 -0.4869
 1000MOL0     H31963   5.126   1.726   4.047  1.9416  1.1324 -2.0955
 1000MOL0     H31964   4.568   1.440   4.146  2.0392 -0.0065 -0.1112
 1000MOL0     H31965   4.444   1.399   4.337  0.7684  2.9271 -3.4446
 1000MOL0     H31966   4.352   1.275   4.488 -0.3804  3.8856 -1.8144
 1000MOL0     H31967   4.411   1.405   4.598  1.6716 -0.0159  1.3126
 1000MOL0     H31968   4.267   1.260   4.754 -0.2398 -0.1471 -1.0654
 1000MOL0     H31969   4.433   1.220   4.793  0.8512  0.4552  0.0851
 1000MOL0     H31970   4.430   1.031   4.640  0.5515  0.4873  0.4363
 1000MOL0     H31971   4.261   1.083   4.599 -0.6013  2.7829  1.1332
 1000MOL0     H31972   4.178   1.019   4.826  0.3624 -0.8357  0.2829
 1000MOL0     H31973   4.274   0.892   4.766 -1.4540  0.0284  0.5835
 1000MOL0     H31974   4.312   0.938   5.011 -2.5984  0.3880 -0.5027
 1000MOL0     H31975   4.346   1.105   4.971 -2.3245  0.8327 -1.9416
 1000MOL0     H31976   4.565   1.042   4.886  0.8329  0.2979 -0.8197
 1000MOL0     H31977   4.516   0.869   4.862 -1.8868 -0.5869  0.2247
 1000MOL0     H31978   4.501   0.976   5.148 -1.5655  1.1319 -1.2835
 1000MOL0     H31979   4.505   0.814   5.078  1.4909  0.4363 -0.8608
 1000MOL0     H31980   4.728   1.025   5.066  1.4014  0.1025  0.8611
 1000MOL0     H31981   4.739   0.874   4.989  0.9266 -0.3535  1.1261
 1000MOL0     H31982   4.808   1.246   4.535 -1.1407 -0.3163 -0.7499
 1000MOL0     H31983   4.927   1.304   4.337 -1.6086 -4.0517 -1.1135
 1000MOL0     H31984   4.968   1.328   3.918  0.0967 -0.0823 -0.3953
 1000MOL0     H31985   5.130   1.329   3.753 -0.8727 -0.0655  1.3625
 1000MOL0     H31986   5.109   2.384   2.767 -0.4638  1.0880 -1.1799
 1000MOL0     H31987   4.930   2.561   2.810  0.3392 -2.7189 -1.9230
 1000MOL0     H31988   4.494   2.657   3.029  1.4520 -0.3761 -5.2669
 1000MOL0     H31989   4.330   2.839   3.046 -1.1944 -0.0421 -1.3297
 1000MOL0     H31990   4.519   3.248   3.147  0.7096 -1.9347 -0.8265
 1000MOL0     H31991   4.348   3.294   3.116 -1.2136 -0.6433 -0.4713
 1000MOL0     H31992   4.483   3.370   2.930  1.8984  0.1489  2.0279
 1000MOL0     H31993   4.554   3.208   2.908 -1.4865 -0.6323 -0.7368
 1000MOL0     H31994   4.265   3.245   2.857 -0.0912 -2.1726  0.3357
 1000MOL0     H31995   4.380   3.119   2.792  1.5856  0.8131 -0.8109
 1000MOL0     H31996   4.344   3.397   2.702  1.1130 -0.1278  0.8749
 1000MOL0     H31997   4.492   3.303   2.666  0.0953  1.5181 -0.6407
 1000MOL0     H31998   4.201   3.164   2.418  1.5139 -2.1022 -0.3680
 1000MOL0     H31999   4.673   3.105   3.085 -0.8668  0.8237  3.3729
 1000MOL0     H32000   4.821   2.938   3.066 -0.8993  2.4046  0.7364
 1001MOL0     O32001   1.002   2.546   8.690 -0.2241 -0.1327  0.3765
 1001MOL0     C32002   1.032   2.607   8.789 -0.2306  0.2888 -0.4876
 1001MOL0     O32003   1.141   2.579   8.861  0.4919  0.7854  0.2137
 1001MOL0     C32004   1.147   2.450   8.906 -1.1590 -1.1595  0.1536
 1001MOL0     C32005   1.048   2.350   8.908 -0.6410  0.2845  0.2963
 1001MOL0     C32006   1.080   2.212   8.931 -0.0028  0.8293  0.8091
 1001MOL0     C32007   1.215   2.180   8.967  0.0337  0.1515 -0.1591
 1001MOL0     O32008   1.255   2.051   8.995  0.2607  0.9218  0.5398
 1001MOL0     C32009   1.161   1.956   9.049  0.1301  0.1846 -0.6696
 1001MOL0     C32010   1.117   1.863   8.937 -1.6931 -1.0495 -0.7858
 1001MOL0     C32011   1.003   1.781   8.990 -0.1074 -0.4705  0.6018
 1001MOL0     C32012   0.937   1.694   8.877  0.5813 -0.3793  0.4307
 1001MOL0     C32013   0.904   1.553   8.928  0.5140  0.3272  0.0211
 1001MOL0     C32014   1.035   1.474   8.942 -0.7883  0.0752 -0.3002
 1001MOL0     C32015   1.014   1.325   8.977  0.2582 -0.4095 -0.4211
 1001MOL0     C32016   0.962   1.310   9.119 -0.1314  0.4154  0.6512
 1001MOL0     N32017   0.894   1.185   9.134  0.3072  0.6232 -0.0263
 1001MOL0     C32018   0.754   1.179   9.135 -0.7786 -0.2015  0.2521
 1001MOL0     C32019   0.737   1.046   9.171  0.1114  0.0017  0.7443
 1001MOL0     C32020   0.609   0.973   9.203 -0.5930 -0.6308 -0.0489
 1001MOL0     C32021   0.628   0.829   9.255 -0.2627 -0.2674 -0.1225
 1001MOL0     C32022   0.676   0.718   9.156  1.0269  0.3809 -0.2180
 1001MOL0     C32023   0.676   0.581   9.213  0.2530 -0.3801 -1.0910
 1001MOL0     O32024   0.546   0.559   9.255  0.4351 -0.3008  0.2913
 1001MOL0     C32025   0.523   0.453   9.329 -0.6158 -0.4536  0.0125
 1001MOL0     C32026   0.617   0.351   9.379 -0.2780 -1.0927  0.4817
 1001MOL0     C32027   0.570   0.252   9.466 -0.2206  0.1098  0.2018
 1001MOL0     C32028   0.437   0.258   9.522  0.1954 -0.2454 -0.2078
 1001MOL0     C32029   0.389   0.163   9.609  0.3999  0.7704  0.0288
 1001MOL0     O32030   0.248   0.161   9.635  0.3082  0.2991 -0.5821
 1001MOL0     C32031   0.185   0.094   9.742 -0.4028 -0.2590  0.0869
 1001MOL0     C32032   0.052   0.049   9.723 -0.1166 -0.1420  0.1902
 1001MOL0     C32033  -0.014  -0.030   9.816 -1.5667  0.6403 -0.0309
 1001MOL0     C32034   0.039  -0.059   9.940 -0.2826 -0.1836 -0.1664
 1001MOL0     O32035  -0.034  -0.133  10.027  0.3356 -1.4286 -0.0578
 1001MOL0     C32036   0.002  -0.148  10.160  0.5160 -0.1481  0.3172
 1001MOL0     C32037  -0.089  -0.242  10.250  0.4914 -0.5783 -0.8561
 1001MOL0     C32038  -0.045  -0.393  10.246  0.8557  0.4016 -0.4880
 1001MOL0     C32039  -0.152  -0.485  10.293 -0.9313  0.8048 -0.9051
 1001MOL0     C32040  -0.250  -0.535  10.185 -0.4253  0.3764  0.5018
 1001MOL0     C32041  -0.201  -0.668  10.125  0.0994 -0.3035 -0.0299
 1001MOL0     C32042  -0.296  -0.730  10.031  0.3363 -0.4586  0.6526
 1001MOL0     C32043  -0.273  -0.866   9.992  0.4036  1.6085  0.3453
 1001MOL0    Cl32044  -0.410  -0.920   9.882 -0.3619  0.0481  0.1421
 1001MOL0     C32045   0.165  -0.019   9.965 -0.5271 -0.8519 -0.2538
 1001MOL0     C32046   0.239   0.061   9.868  0.3288  0.2416  0.6696
 1001MOL0     O32047   0.475   0.102   9.665 -0.6062 -0.2295 -0.9683
 1001MOL0     C32048   0.355   0.361   9.478 -0.0599 -0.0736  0.6555
 1001MOL0     C32049   0.396   0.458   9.381  0.5076 -0.0964  0.0877
 1001MOL0     N32050   0.856   0.977   9.179 -0.0828 -0.0426  0.0285
 1001MOL0     N32051   0.948   1.062   9.157 -0.0298 -0.3324 -0.0102
 1001MOL0     C32052   1.313   2.284   8.983  0.9469  0.0050 -0.4416
 1001MOL0     C32053   1.268   2.419   8.962 -0.5882  0.1907  0.1127
 1001MOL0     C32054   0.963   2.728   8.830  0.8786  0.2249 -0.0372
 1001MOL0     C32055   0.974   2.772   8.961 -1.3942 -0.3047 -0.1633
 1001MOL0     C32056   0.918   2.895   8.999 -0.0876  0.2378  0.4708
 1001MOL0     C32057   0.841   2.963   8.908  0.2516  0.3976 -0.5737
 1001MOL0     O32058   0.786   3.073   8.963 -0.7790  0.4779  0.1154
 1001MOL0     C32059   0.708   3.163   8.884 -0.2519 -0.3236 -0.0485
 1001MOL0     C32060   0.679   3.283   8.976  0.2681  0.0850  0.3413
 1001MOL0     C32061   0.578   3.257   9.085 -0.5815  0.0485 -0.2308
 1001MOL0     C32062   0.574   3.384   9.169  0.1113  1.3222 -0.7571
 1001MOL0     C32063   0.474   3.360   9.273  0.2107 -0.3713 -0.3296
 1001MOL0     C32064   0.396   3.348   9.364  0.0334 -1.0064  0.0089
 1001MOL0     C32065   0.829   2.919   8.784  0.0007 -0.3771 -0.0770
 1001MOL0     C32066   0.888   2.798   8.738 -0.1474  0.2546 -0.2659
 1001MOL0     H32067   0.947   2.381   8.884 -1.3516 -1.4417  0.9019
 1001MOL0     H32068   1.002   2.138   8.919 -0.5068  1.2013  1.6958
 1001MOL0     H32069   1.074   1.998   9.100  3.0932  0.9465  4.5629
 1001MOL0     H32070   1.207   1.886   9.119 -2.2786 -0.8492 -0.0211
 1001MOL0     H32071   1.204   1.804   8.907  1.8003  2.8568  0.7508
 1001MOL0     H32072   1.087   1.914   8.845 -2.8171 -0.7125 -0.2574
 1001MOL0     H32073   0.923   1.839   9.036 -0.8200 -1.2879  0.4171
 1001MOL0     H32074   1.053   1.724   9.069  0.3724 -1.3966 -0.3383
 1001MOL0     H32075   0.848   1.750   8.846  1.7546  2.5444  1.9823
 1001MOL0     H32076   1.005   1.686   8.791  1.8312 -3.5942  1.5601
 1001MOL0     H32077   0.845   1.495   8.856 -0.6820 -1.4137  2.2886
 1001MOL0     H32078   0.845   1.558   9.020  1.0063 -2.1146  0.5515
 1001MOL0     H32079   1.086   1.513   9.030 -2.9909 -1.4256  1.7784
 1001MOL0     H32080   1.097   1.490   8.853  1.3817  2.5268  1.5098
 1001MOL0     H32081   0.932   1.286   8.915  0.3878  0.8078 -1.3843
 1001MOL0     H32082   1.105   1.269   8.956  0.2133 -0.8093  0.4165
 1001MOL0     H32083   0.888   1.389   9.136 -1.4595 -0.1351 -1.9736
 1001MOL0     H32084   1.031   1.343   9.197  0.9129  0.1403 -0.1337
 1001MOL0     H32085   0.696   1.270   9.122  2.0178  1.3758 -2.7197
 1001MOL0     H32086   0.559   0.969   9.106  0.1006  3.3417 -0.7377
 1001MOL0     H32087   0.565   1.045   9.272 -2.7563 -3.1297  1.3882
 1001MOL0     H32088   0.534   0.807   9.306 -0.9309 -0.5039 -1.4220
 1001MOL0     H32089   0.693   0.850   9.341 -0.6279 -0.9120  0.3172
 1001MOL0     H32090   0.595   0.714   9.082 -0.2725  3.7232  0.8057
 1001MOL0     H32091   0.773   0.732   9.107  1.9767 -0.7074  1.2938
 1001MOL0     H32092   0.737   0.599   9.302 -1.3550  1.5539 -0.2818
 1001MOL0     H32093   0.718   0.502   9.150 -0.5642 -2.4890  0.9047
 1001MOL0     H32094   0.713   0.354   9.329 -0.6274 -0.0315 -0.1639
 1001MOL0     H32095   0.648   0.183   9.496  0.7221  1.7900  1.9165
 1001MOL0     H32096  -0.006   0.105   9.651  1.1128 -0.7609 -1.3450
 1001MOL0     H32097  -0.113  -0.073   9.802 -1.0349 -0.5476 -0.1764
 1001MOL0     H32098  -0.003  -0.050  10.209  0.6684  0.0187  0.0013
 1001MOL0     H32099   0.100  -0.195  10.168 -0.1208 -1.3918  1.1943
 1001MOL0     H32100  -0.190  -0.242  10.209  0.2262 -2.4156 -0.2823
 1001MOL0     H32101  -0.100  -0.199  10.350  1.4704 -1.6646 -0.2568
 1001MOL0     H32102   0.047  -0.409  10.303 -1.2059 -0.8215  2.7554
 1001MOL0     H32103  -0.024  -0.417  10.141  2.5763  0.1970 -0.1317
 1001MOL0     H32104  -0.112  -0.570  10.349 -0.2102 -0.4118 -3.1506
 1001MOL0     H32105  -0.214  -0.428  10.363 -0.7686 -2.2499  1.9799
 1001MOL0     H32106  -0.247  -0.463  10.103  3.2713 -2.5928 -2.2768
 1001MOL0     H32107  -0.354  -0.533  10.221 -0.1934  1.1440  1.1824
 1001MOL0     H32108  -0.169  -0.732  10.208  3.9223  2.2758  0.7277
 1001MOL0     H32109  -0.111  -0.653  10.065  0.0992 -0.4361 -0.0628
 1001MOL0     H32110  -0.401  -0.730  10.060 -1.2596 -2.6768 -4.1904
 1001MOL0     H32111  -0.297  -0.670   9.939 -2.1553 -2.9005 -1.0530
 1001MOL0     H32112  -0.261  -0.941  10.070 -1.4442 -0.0042 -0.8095
 1001MOL0     H32113  -0.179  -0.869   9.937  0.5200 -2.0674  0.4939
 1001MOL0     H32114   0.225  -0.054  10.048 -3.0275  0.3677  2.2282
 1001MOL0     H32115   0.342   0.086   9.887  0.9555 -2.7555  1.8371
 1001MOL0     H32116   0.252   0.383   9.504  0.4095  2.2847  0.7771
 1001MOL0     H32117   0.333   0.534   9.337  1.9826  0.4952 -1.0937
 1001MOL0     H32118   1.416   2.263   9.010  0.1115  0.4497  3.7982
 1001MOL0     H32119   1.350   2.491   8.965  1.0756 -1.6583  1.6540
 1001MOL0     H32120   1.023   2.709   9.035  1.7385  1.2128 -0.7913
 1001MOL0     H32121   0.928   2.936   9.099 -0.2284  0.6626  0.3121
 1001MOL0     H32122   0.624   3.103   8.847  0.5488 -1.1732 -0.5475
 1001MOL0     H32123   0.762   3.196   8.796  0.9941 -1.0476  0.4190
 1001MOL0     H32124   0.777   3.316   9.012  0.5027  1.5154 -1.4728
 1001MOL0     H32125   0.644   3.357   8.905  3.0043 -2.3860 -4.0618
 1001MOL0     H32126   0.610   3.172   9.146 -1.1609 -1.6386 -2.1601
 1001MOL0     H32127   0.474   3.247   9.051 -0.9656  0.9310  0.6313
 1001MOL0     H32128   0.666   3.411   9.221  0.6290 -2.4382  0.5692
 1001MOL0     H32129   0.538   3.460   9.099 -0.6123  0.1408 -1.7040
 1001MOL0     H32130   0.335   3.344   9.451 -0.1830 -0.0826 -0.0826
 1001MOL0     H32131   0.775   2.974   8.707  1.1663  1.2112  0.2134
 1001MOL0     H32132   0.880   2.757   8.638  1.9016 -0.7601 -0.0460
 1002MOL0     O32133   9.781   6.194   1.796  0.3319 -0.2371 -0.4385
 1002MOL0     C32134   9.665   6.213   1.751  0.5084 -0.5048 -0.0823
 1002MOL0     O32135   9.636   6.285   1.637 -0.1651  0.6920 -0.0286
 1002MOL0     C32136   9.736   6.373   1.593 -0.9327  0.0441 -0.0947
 1002MOL0     C32137   9.800   6.469   1.675  0.2165 -0.2880 -0.6177
 1002MOL0     C32138   9.901   6.548   1.622 -0.0773 -0.2851  0.2901
 1002MOL0     C32139   9.916   6.540   1.483  0.2223  0.3904  0.9360
 1002MOL0     O32140   9.992   6.638   1.411  0.3608  1.1212  0.1564
 1002MOL0     C32141  10.090   6.711   1.479 -0.6288 -0.0935 -0.1280
 1002MOL0     C32142  10.183   6.781   1.381 -0.3049 -0.2356  0.2029
 1002MOL0     C32143  10.122   6.843   1.260  0.3272 -0.4470 -0.1263
 1002MOL0     C32144  10.125   6.747   1.145 -0.1321  0.3673 -0.3459
 1002MOL0     C32145  10.014   6.758   1.030  0.1574  0.3119  0.7473
 1002MOL0     C32146  10.018   6.892   0.958  0.5034  0.1339  0.0437
 1002MOL0     C32147   9.902   6.923   0.862 -0.9540 -0.5714 -0.7217
 1002MOL0     C32148   9.908   6.863   0.724  1.4819 -0.1861 -0.8639
 1002MOL0     N32149  10.006   6.933   0.641  0.4862  0.0279  0.0022
 1002MOL0     C32150  10.070   6.879   0.528  0.2498 -0.6296  0.1346
 1002MOL0     C32151  10.113   6.982   0.455  0.7164 -0.0241  0.0409
 1002MOL0     C32152  10.198   6.981   0.336  0.8563  0.2445 -0.2288
 1002MOL0     C32153  10.149   7.088   0.234  0.0026 -0.8710 -0.5675
 1002MOL0     C32154  10.237   7.100   0.117 -0.1715  0.4181  0.4427
 1002MOL0     C32155  10.202   7.206  -0.003 -1.1047 -0.0241 -1.1258
 1002MOL0     O32156  10.317   7.234  -0.091 -0.6064 -0.3732 -0.9061
 1002MOL0     C32157  10.428   7.304  -0.044  0.6447  0.5844 -0.3898
 1002MOL0     C32158  10.526   7.311  -0.137  0.9683  0.3917  0.6531
 1002MOL0     C32159  10.651   7.370  -0.105 -0.3175 -0.3265  0.4524
 1002MOL0     C32160  10.665   7.427   0.024  0.6032  0.2714 -0.1578
 1002MOL0     C32161  10.794   7.476   0.070 -0.5097 -0.2498  0.6603
 1002MOL0     O32162  10.795   7.500   0.206 -0.9511  0.0801 -0.8043
 1002MOL0     C32163  10.923   7.500   0.270  0.1071  0.4224 -0.0322
 1002MOL0     C32164  10.975   7.612   0.331 -0.7809  0.3355 -0.5948
 1002MOL0     C32165  11.098   7.608   0.385 -0.3825 -0.6943  0.0493
 1002MOL0     C32166  11.173   7.486   0.391 -0.9083 -0.2247 -0.5449
 1002MOL0     O32167  11.299   7.474   0.455 -0.2904  0.0018  0.5576
 1002MOL0     C32168  11.285   7.438   0.586 -0.1409  0.3651  0.3089
 1002MOL0     C32169  11.414   7.475   0.660 -0.6270 -0.5046 -0.1450
 1002MOL0     C32170  11.412   7.439   0.813 -0.1301 -0.5317  0.5399
 1002MOL0     C32171  11.418   7.288   0.836  0.5228  0.4864 -0.2807
 1002MOL0     C32172  11.458   7.243   0.978 -0.3512 -0.5447  1.3657
 1002MOL0     C32173  11.345   7.275   1.084 -0.8574 -0.0304  0.4134
 1002MOL0     C32174  11.399   7.247   1.230 -1.0746  0.6518 -0.4384
 1002MOL0     C32175  11.299   7.302   1.346 -0.0222  0.2684 -0.2601
 1002MOL0    Cl32176  11.293   7.474   1.352 -0.1848 -0.2235  0.1183
 1002MOL0     C32177  11.116   7.376   0.327 -0.2497  0.2727  0.6339
 1002MOL0     C32178  10.990   7.373   0.266 -0.2300 -0.9060 -0.2204
 1002MOL0     O32179  10.895   7.468  -0.004 -0.2367 -0.7407 -0.3580
 1002MOL0     C32180  10.562   7.424   0.120  0.0348  0.2667  0.5127
 1002MOL0     C32181  10.438   7.360   0.086  0.6790 -0.4549 -0.4060
 1002MOL0     N32182  10.097   7.098   0.533  0.4287  0.6635 -0.3069
 1002MOL0     N32183  10.028   7.069   0.638  0.1510  0.7646 -0.3205
 1002MOL0     C32184   9.852   6.453   1.399  0.0085  0.4912 -0.0881
 1002MOL0     C32185   9.760   6.368   1.457  0.9504  0.8333  0.3291
 1002MOL0     C32186   9.555   6.168   1.832 -1.0124 -0.4196 -0.8164
 1002MOL0     C32187   9.571   6.064   1.927  0.1845  0.7444  0.7410
 1002MOL0     C32188   9.458   6.013   1.992  0.6544 -0.2383 -1.5481
 1002MOL0     C32189   9.329   6.076   1.979 -0.5880  0.1111 -0.4578
 1002MOL0     O32190   9.221   6.039   2.053  0.2180 -0.1091 -0.2788
 1002MOL0     C32191   9.247   5.958   2.166  0.6096  0.9990  0.3198
 1002MOL0     C32192   9.150   5.962   2.280  0.1906 -0.5840 -0.5864
 1002MOL0     C32193   9.184   5.849   2.383  0.0239 -0.3484 -0.9514
 1002MOL0     C32194   9.081   5.851   2.500 -0.2425  0.2785  0.6534
 1002MOL0     C32195   9.058   5.974   2.567 -0.9866  0.2749  0.6121
 1002MOL0     C32196   9.035   6.074   2.629 -0.4923 -0.3006  0.3002
 1002MOL0     C32197   9.318   6.185   1.900 -0.3200  0.1748 -1.1319
 1002MOL0     C32198   9.432   6.228   1.828  0.4447  0.2992  0.3988
 1002MOL0     H32199   9.773   6.481   1.780  2.2900 -3.2266  0.3864
 1002MOL0     H32200   9.965   6.604   1.689  4.2048 -5.2347  0.9604
 1002MOL0     H32201  10.144   6.654   1.555 -1.7700 -1.1553 -0.0785
 1002MOL0     H32202  10.034   6.779   1.544 -0.5869 -0.1680 -0.0123
 1002MOL0     H32203  10.256   6.701   1.364 -1.0025 -1.9748  4.2211
 1002MOL0     H32204  10.236   6.864   1.429 -1.0346 -0.1496  0.8888
 1002MOL0     H32205  10.191   6.920   1.225 -1.1425  1.0673  0.1830
 1002MOL0     H32206  10.022   6.884   1.278  0.5462  0.5867 -1.1559
 1002MOL0     H32207  10.219   6.758   1.090  0.9724 -1.4757  1.0702
 1002MOL0     H32208  10.119   6.646   1.187 -1.4835 -0.7731 -3.0062
 1002MOL0     H32209   9.925   6.751   1.092 -0.9435 -2.4465 -0.9548
 1002MOL0     H32210  10.013   6.668   0.967 -1.3758 -0.0306  1.2263
 1002MOL0     H32211  10.106   6.895   0.892  0.5518  3.2288  0.1246
 1002MOL0     H32212  10.025   6.975   1.028 -0.9890 -2.7005  3.9680
 1002MOL0     H32213   9.809   6.895   0.914 -0.6532 -2.2711 -1.0290
 1002MOL0     H32214   9.905   7.032   0.851  4.0659  0.2401  4.1027
 1002MOL0     H32215   9.811   6.855   0.674  1.6239  1.2054 -1.4181
 1002MOL0     H32216   9.938   6.761   0.749  0.1792 -0.9896 -2.4334
 1002MOL0     H32217  10.102   6.777   0.507 -0.1233 -0.5873 -0.6449
 1002MOL0     H32218  10.194   6.885   0.284  0.0912  1.1235 -1.8950
 1002MOL0     H32219  10.305   6.983   0.357  1.2586 -0.8885 -1.9488
 1002MOL0     H32220  10.152   7.182   0.291 -1.2190 -0.1440 -1.6560
 1002MOL0     H32221  10.050   7.064   0.194 -1.0791  1.8706  0.2198
 1002MOL0     H32222  10.334   7.122   0.164 -0.5130  0.1619  1.2787
 1002MOL0     H32223  10.263   7.005   0.069  2.0736  1.2603 -0.1772
 1002MOL0     H32224  10.170   7.300   0.043 -2.4924  2.7498 -6.7780
 1002MOL0     H32225  10.112   7.173  -0.057 -0.8462 -0.9502 -0.9982
 1002MOL0     H32226  10.518   7.263  -0.234  1.0669 -2.8404  2.1236
 1002MOL0     H32227  10.736   7.369  -0.173  0.4972  1.2920  1.3744
 1002MOL0     H32228  10.918   7.704   0.340  0.2886  0.8200  1.9401
 1002MOL0     H32229  11.133   7.699   0.434 -0.4720 -1.6680  2.0325
 1002MOL0     H32230  11.251   7.334   0.590 -3.9318  1.4764  1.0144
 1002MOL0     H32231  11.201   7.491   0.633 -0.5774 -0.8754  0.9743
 1002MOL0     H32232  11.416   7.583   0.671  0.0567 -0.7147  2.3725
 1002MOL0     H32233  11.497   7.443   0.597 -0.6729 -2.3545  0.6541
 1002MOL0     H32234  11.318   7.475   0.855 -1.5390 -0.0770 -2.7244
 1002MOL0     H32235  11.498   7.477   0.868 -0.0684 -0.6449  0.5223
 1002MOL0     H32236  11.318   7.248   0.824  0.0828  1.2674  0.6520
 1002MOL0     H32237  11.488   7.243   0.764  2.7527  0.1901  1.9288
 1002MOL0     H32238  11.546   7.300   1.010 -1.4151  0.5922  2.3940
 1002MOL0     H32239  11.471   7.134   0.980 -2.2423 -0.8480 -0.1737
 1002MOL0     H32240  11.256   7.217   1.059  0.0266 -0.6176 -1.6151
 1002MOL0     H32241  11.326   7.382   1.076  2.0647  0.5518  0.1563
 1002MOL0     H32242  11.415   7.140   1.250 -0.0559  0.8067 -0.4015
 1002MOL0     H32243  11.492   7.302   1.243 -1.0639  0.1319  2.6383
 1002MOL0     H32244  11.327   7.258   1.442 -0.9517 -4.0184 -1.7539
 1002MOL0     H32245  11.198   7.262   1.333  0.4640 -1.1999  0.2522
 1002MOL0     H32246  11.178   7.287   0.319  0.4498  0.8249 -0.4340
 1002MOL0     H32247  10.941   7.285   0.224  0.1635 -0.1952 -2.3067
 1002MOL0     H32248  10.577   7.442   0.226  0.9537  0.3522  0.3712
 1002MOL0     H32249  10.355   7.362   0.156  0.3910 -1.4305 -0.7099
 1002MOL0     H32250   9.863   6.450   1.291 -2.6744  2.4533 -0.5404
 1002MOL0     H32251   9.715   6.295   1.392  0.8280  2.1044 -1.0578
 1002MOL0     H32252   9.659   6.004   1.947 -2.6887 -3.7445  1.3945
 1002MOL0     H32253   9.470   5.929   2.059 -2.0235  0.0550 -0.5446
 1002MOL0     H32254   9.339   5.990   2.215  0.9940  1.5143 -0.7106
 1002MOL0     H32255   9.268   5.860   2.121  0.9822  2.1987 -2.2517
 1002MOL0     H32256   9.170   6.057   2.331 -2.0818  1.0670 -2.5446
 1002MOL0     H32257   9.048   5.953   2.242  0.0387  0.8480 -0.5821
 1002MOL0     H32258   9.281   5.872   2.427 -0.9582  1.6722  0.3118
 1002MOL0     H32259   9.182   5.755   2.327 -0.4040 -2.0285  1.6856
 1002MOL0     H32260   8.984   5.836   2.451  0.4376  0.3320 -0.7501
 1002MOL0     H32261   9.104   5.770   2.570 -0.8293 -0.2456  0.2487
 1002MOL0     H32262   9.006   6.167   2.672 -4.6397 -0.5921 -1.4338
 1002MOL0     H32263   9.215   6.210   1.873 -1.4386 -3.0663 -0.3238
 1002MOL0     H32264   9.407   6.306   1.756  1.9203  1.2927  0.9070
 1003MOL0     O32265   6.555   4.670   4.170 -0.9500  0.5869 -0.0988
 1003MOL0     C32266   6.481   4.745   4.231 -0.0006  0.0610  0.6857
 1003MOL0     O32267   6.518   4.833   4.335  0.3386  0.3832 -0.2708
 1003MOL0     C32268   6.646   4.854   4.374 -0.0952 -0.9126  0.2239
 1003MOL0     C32269   6.662   4.892   4.507  1.3041  0.1309  0.1244
 1003MOL0     C32270   6.787   4.934   4.551 -0.0103 -0.3200  0.0661
 1003MOL0     C32271   6.897   4.937   4.459  0.0384 -0.0443  1.1526
 1003MOL0     O32272   7.017   4.990   4.510 -0.3439  0.3038 -0.0662
 1003MOL0     C32273   7.114   5.040   4.417 -0.7877  0.1638  0.6377
 1003MOL0     C32274   7.230   5.112   4.483  0.3895  0.0574 -0.3917
 1003MOL0     C32275   7.287   5.029   4.593  0.2674 -0.1258  0.0207
 1003MOL0     C32276   7.402   5.097   4.660  0.6037  0.1852  0.4118
 1003MOL0     C32277   7.511   5.125   4.565 -0.6862 -0.6677  0.4044
 1003MOL0     C32278   7.636   5.154   4.641  0.4646  0.5184  0.3751
 1003MOL0     C32279   7.760   5.160   4.549  0.7012  0.5911  0.3847
 1003MOL0     C32280   7.810   5.024   4.502  0.2495  0.2162 -0.4507
 1003MOL0     N32281   7.943   5.034   4.450 -0.0718  0.3115 -0.4351
 1003MOL0     C32282   7.985   5.095   4.332  0.8291  0.0052  0.0167
 1003MOL0     C32283   8.116   5.102   4.335 -0.6749  0.7336  0.4080
 1003MOL0     C32284   8.219   5.174   4.252  0.5435 -0.2887  0.6332
 1003MOL0     C32285   8.173   5.307   4.189  0.4518 -0.4440 -0.8000
 1003MOL0     C32286   8.171   5.421   4.287 -0.1323 -0.6665 -0.2096
 1003MOL0     C32287   8.121   5.557   4.220 -0.1722 -0.3217 -0.2487
 1003MOL0     O32288   8.020   5.552   4.121  0.7351 -0.4944 -0.6100
 1003MOL0     C32289   7.885   5.544   4.155 -0.7925 -0.0013 -0.0685
 1003MOL0     C32290   7.825   5.607   4.258  0.7608  0.3157  0.1158
 1003MOL0     C32291   7.691   5.604   4.276 -0.2791 -0.6609  0.7868
 1003MOL0     C32292   7.605   5.544   4.187  0.3647  0.6994  0.4588
 1003MOL0     C32293   7.462   5.552   4.201  0.2472  0.2587 -0.5649
 1003MOL0     O32294   7.421   5.571   4.331  0.5340  0.7280 -0.2080
 1003MOL0     C32295   7.289   5.590   4.353  0.1006 -0.4032  0.0703
 1003MOL0     C32296   7.223   5.712   4.327 -0.1708 -0.8078  0.0527
 1003MOL0     C32297   7.080   5.713   4.329 -0.1769 -0.6910 -1.0938
 1003MOL0     C32298   7.007   5.596   4.366 -0.1330 -0.1550 -0.5499
 1003MOL0     O32299   6.869   5.599   4.367 -0.6180  0.3047 -0.0350
 1003MOL0     C32300   6.798   5.479   4.392 -0.2874 -0.0387 -0.4796
 1003MOL0     C32301   6.648   5.514   4.391 -1.0214  0.0748  0.0474
 1003MOL0     C32302   6.551   5.392   4.399  0.9634  0.3184  0.3530
 1003MOL0     C32303   6.585   5.270   4.489 -0.2443 -0.0827 -0.4261
 1003MOL0     C32304   6.610   5.307   4.634  0.3401  0.3546 -0.0112
 1003MOL0     C32305   6.589   5.190   4.735  0.2356  0.0145  0.5645
 1003MOL0     C32306   6.651   5.235   4.869  0.0534 -0.4531 -0.6656
 1003MOL0     C32307   6.560   5.343   4.935 -0.0745  0.1681 -0.8293
 1003MOL0    Cl32308   6.649   5.394   5.083  0.0889  0.0020  0.1637
 1003MOL0     C32309   7.084   5.478   4.394  0.2799  0.1932 -0.1670
 1003MOL0     C32310   7.223   5.486   4.387  0.5740  0.1784 -0.0363
 1003MOL0     O32311   7.400   5.537   4.102  0.2194 -0.8928  0.7670
 1003MOL0     C32312   7.662   5.467   4.090 -0.9051 -0.3954  0.0514
 1003MOL0     C32313   7.805   5.470   4.070  0.5727  0.1773  0.0267
 1003MOL0     N32314   8.158   5.048   4.453  0.8129 -0.2350  0.5583
 1003MOL0     N32315   8.054   5.015   4.526 -0.0564  0.4364 -0.0279
 1003MOL0     C32316   6.872   4.896   4.324  0.3676  0.2132  0.6606
 1003MOL0     C32317   6.750   4.856   4.279  1.4914  0.2209 -0.6222
 1003MOL0     C32318   6.340   4.738   4.185  0.0480 -0.1752  0.0594
 1003MOL0     C32319   6.236   4.734   4.279  0.4806  0.7400  0.1991
 1003MOL0     C32320   6.105   4.728   4.225 -0.3202  0.1307  0.1066
 1003MOL0     C32321   6.081   4.726   4.089 -0.6111 -0.0361  0.1609
 1003MOL0     O32322   5.955   4.725   4.034  0.0514  0.2441  0.0379
 1003MOL0     C32323   5.925   4.608   3.945  0.5401  0.4778  0.1697
 1003MOL0     C32324   5.942   4.470   4.012  0.5619  0.0139 -0.3487
 1003MOL0     C32325   5.861   4.430   4.136  0.3438  0.6823 -1.3738
 1003MOL0     C32326   5.701   4.439   4.113  0.5055 -0.7051  0.8616
 1003MOL0     C32327   5.618   4.361   4.209 -0.2081  0.0371  0.0618
 1003MOL0     C32328   5.540   4.299   4.282  0.6634 -0.0670  0.3111
 1003MOL0     C32329   6.193   4.738   4.000  0.1091  0.6469  0.1946
 1003MOL0     C32330   6.325   4.745   4.048 -0.4256 -0.5307  0.0222
 1003MOL0     H32331   6.586   4.915   4.581  2.0671  1.7581  0.4431
 1003MOL0     H32332   6.798   4.966   4.654 -2.0382  3.8202 -0.7678
 1003MOL0     H32333   7.067   5.108   4.346 -1.8007 -1.2414 -0.0555
 1003MOL0     H32334   7.159   4.956   4.363  0.1256  0.2095  1.2900
 1003MOL0     H32335   7.178   5.201   4.519  2.2011  1.3935 -0.9380
 1003MOL0     H32336   7.308   5.136   4.411  0.6657 -0.7754 -0.3839
 1003MOL0     H32337   7.329   4.938   4.549 -0.0952 -0.8900  1.2212
 1003MOL0     H32338   7.214   5.011   4.673  1.2527 -0.2243  0.9250
 1003MOL0     H32339   7.371   5.187   4.713 -0.2714  0.3182 -0.3078
 1003MOL0     H32340   7.441   5.020   4.727  0.7641  0.9926  1.2706
 1003MOL0     H32341   7.488   5.211   4.502 -1.7529 -0.8622  0.5167
 1003MOL0     H32342   7.538   5.039   4.502  2.9859  0.4795  0.1595
 1003MOL0     H32343   7.650   5.080   4.720  0.7705  1.2259  0.9951
 1003MOL0     H32344   7.627   5.247   4.699  0.3021 -0.2668  1.6553
 1003MOL0     H32345   7.745   5.223   4.461 -1.2521 -1.1158 -0.5887
 1003MOL0     H32346   7.844   5.206   4.602  0.9592 -1.9605  2.3779
 1003MOL0     H32347   7.751   4.975   4.424  1.3065 -2.4276  0.3257
 1003MOL0     H32348   7.815   4.960   4.591 -0.2499  3.5785  2.2073
 1003MOL0     H32349   7.914   5.134   4.260  1.3521  2.2496  0.6300
 1003MOL0     H32350   8.256   5.110   4.171  0.2999 -0.6907  0.8331
 1003MOL0     H32351   8.306   5.198   4.313  1.2135  0.3592 -0.5296
 1003MOL0     H32352   8.071   5.286   4.153 -0.6219  0.2869  1.5891
 1003MOL0     H32353   8.240   5.346   4.113 -0.9283  1.3908 -1.1542
 1003MOL0     H32354   8.121   5.391   4.379  0.5671 -0.0071  0.3970
 1003MOL0     H32355   8.268   5.454   4.324  0.7196 -2.0842 -1.0529
 1003MOL0     H32356   8.214   5.595   4.178  0.1021  0.0999  0.7191
 1003MOL0     H32357   8.099   5.622   4.305 -1.8434 -1.3576  0.1512
 1003MOL0     H32358   7.882   5.674   4.322 -1.0569 -1.0020  3.3306
 1003MOL0     H32359   7.643   5.661   4.355  1.1904  2.2667 -0.2807
 1003MOL0     H32360   7.275   5.797   4.284 -0.1300  0.2211  2.0261
 1003MOL0     H32361   7.031   5.805   4.297  0.8119  1.1542  2.2240
 1003MOL0     H32362   6.829   5.443   4.491  0.9617  1.0117 -0.4585
 1003MOL0     H32363   6.825   5.402   4.319 -0.0633 -1.1096  0.6789
 1003MOL0     H32364   6.619   5.557   4.295 -0.7017  0.8747  0.2985
 1003MOL0     H32365   6.618   5.596   4.456  0.7382  0.9680 -0.1948
 1003MOL0     H32366   6.534   5.369   4.294  0.0463 -2.1425  0.9738
 1003MOL0     H32367   6.454   5.415   4.445  0.5655 -1.2280  0.3249
 1003MOL0     H32368   6.498   5.205   4.477  0.1480 -0.7995  0.4965
 1003MOL0     H32369   6.662   5.211   4.439 -0.7761  0.3874 -1.8373
 1003MOL0     H32370   6.531   5.381   4.650  1.5209  1.9739 -1.3649
 1003MOL0     H32371   6.704   5.358   4.657  0.0979 -0.0925  2.2187
 1003MOL0     H32372   6.647   5.107   4.696  1.1073  0.9013 -0.0597
 1003MOL0     H32373   6.488   5.148   4.746  0.5290 -0.8298  0.1217
 1003MOL0     H32374   6.661   5.149   4.936  2.7934 -1.2995 -2.0244
 1003MOL0     H32375   6.752   5.273   4.853 -0.9644  1.9397 -2.0249
 1003MOL0     H32376   6.460   5.302   4.954  0.3401  0.2728  1.9960
 1003MOL0     H32377   6.543   5.429   4.869  0.1784  2.2172  1.6292
 1003MOL0     H32378   7.036   5.382   4.411  1.4130 -0.5090 -0.7827
 1003MOL0     H32379   7.267   5.386   4.391 -1.8578 -1.0113 -0.9296
 1003MOL0     H32380   7.611   5.406   4.017  0.8640 -1.4495 -0.3536
 1003MOL0     H32381   7.856   5.403   4.001 -1.3817 -0.7349 -0.6157
 1003MOL0     H32382   6.939   4.902   4.239 -0.3652 -1.5473 -0.0734
 1003MOL0     H32383   6.733   4.826   4.176 -4.2565  1.1811 -0.2531
 1003MOL0     H32384   6.260   4.736   4.385 -1.6880 -1.8112  0.8490
 1003MOL0     H32385   6.019   4.740   4.289 -1.2616 -2.1208 -0.6427
 1003MOL0     H32386   5.991   4.615   3.859  1.1493 -1.1795  0.4671
 1003MOL0     H32387   5.829   4.606   3.893 -0.6899 -0.7752  2.3110
 1003MOL0     H32388   5.938   4.388   3.939 -1.9099 -1.5823  1.3892
 1003MOL0     H32389   6.048   4.473   4.037  0.8140  0.3484 -1.4365
 1003MOL0     H32390   5.882   4.496   4.220 -2.0840  1.5070 -1.3403
 1003MOL0     H32391   5.899   4.331   4.162 -1.7074 -0.0061 -0.7635
 1003MOL0     H32392   5.680   4.546   4.121  2.9696  0.1453 -2.2428
 1003MOL0     H32393   5.679   4.401   4.013  1.3345  3.0251 -0.9033
 1003MOL0     H32394   5.478   4.247   4.353  1.6185  0.4759  1.5925
 1003MOL0     H32395   6.180   4.733   3.893  0.1969  1.9314  0.1098
 1003MOL0     H32396   6.413   4.740   3.985 -1.1041 -0.9379 -0.9144
 1004MOL0     O32397   0.529   2.786   0.386  0.1625  0.3932 -0.7466
 1004MOL0     C32398   0.486   2.855   0.294 -0.0165  0.1305  0.2792
 1004MOL0     O32399   0.368   2.839   0.237  0.3598  0.3476 -0.3148
 1004MOL0     C32400   0.270   2.770   0.310 -0.7624  0.2383 -0.0824
 1004MOL0     C32401   0.146   2.832   0.322 -0.1379 -0.5808 -0.1031
 1004MOL0     C32402   0.034   2.755   0.366  0.0718 -0.1450  0.8996
 1004MOL0     C32403   0.042   2.623   0.400  1.0841  0.1276 -0.1191
 1004MOL0     O32404  -0.071   2.548   0.436  0.1988  0.1501  0.4278
 1004MOL0     C32405  -0.174   2.543   0.333  0.7614  0.0952 -1.1435
 1004MOL0     C32406  -0.293   2.456   0.390  0.2584  0.9476  0.3064
 1004MOL0     C32407  -0.246   2.323   0.463  0.4907 -0.8794  0.6351
 1004MOL0     C32408  -0.152   2.235   0.381 -0.2016 -0.0278  0.0022
 1004MOL0     C32409  -0.132   2.099   0.454 -1.7436 -0.4095 -0.5917
 1004MOL0     C32410  -0.049   2.097   0.578 -0.7173  0.9345 -0.4168
 1004MOL0     C32411   0.067   2.200   0.604  0.6817  0.1130 -0.4621
 1004MOL0     C32412   0.123   2.178   0.750  0.6396  0.2135  0.5041
 1004MOL0     N32413   0.187   2.051   0.768  0.3280 -0.6583 -0.5752
 1004MOL0     C32414   0.319   2.016   0.734  0.4553 -0.0272  0.3040
 1004MOL0     C32415   0.328   1.882   0.766  0.4288  0.1390 -0.3404
 1004MOL0     C32416   0.434   1.786   0.735  0.3117  0.1662 -0.1353
 1004MOL0     C32417   0.382   1.638   0.699 -0.2721  0.5494  0.4716
 1004MOL0     C32418   0.504   1.546   0.676 -0.6246 -0.0823  0.3892
 1004MOL0     C32419   0.455   1.397   0.657 -0.9177 -0.4089 -0.1127
 1004MOL0     O32420   0.378   1.394   0.540  0.6092  0.2176  0.3057
 1004MOL0     C32421   0.399   1.273   0.480 -1.1366  0.0346  0.7517
 1004MOL0     C32422   0.388   1.146   0.551 -0.1442 -0.8956 -0.4122
 1004MOL0     C32423   0.415   1.022   0.492 -0.1195 -0.3239 -0.3388
 1004MOL0     C32424   0.448   1.015   0.356  0.3147  0.0314 -0.5254
 1004MOL0     C32425   0.471   0.882   0.288  0.5123  0.7257  0.0801
 1004MOL0     O32426   0.470   0.887   0.151  0.9762  0.0228 -0.6613
 1004MOL0     C32427   0.495   0.769   0.083 -0.7598  0.7285 -0.6612
 1004MOL0     C32428   0.407   0.723  -0.017  0.0599  1.2913 -0.4758
 1004MOL0     C32429   0.441   0.609  -0.094 -0.9185 -0.3761  0.1150
 1004MOL0     C32430   0.566   0.544  -0.078 -0.4690  0.0948 -0.2994
 1004MOL0     O32431   0.608   0.427  -0.140  0.0660 -0.8979 -0.1912
 1004MOL0     C32432   0.548   0.390  -0.265  0.3837  0.0927  0.3007
 1004MOL0     C32433   0.639   0.264  -0.325  0.6578 -0.9160 -0.0999
 1004MOL0     C32434   0.794   0.293  -0.337  0.3888 -0.0135  0.0628
 1004MOL0     C32435   0.821   0.419  -0.412 -0.7242  0.8489  0.5508
 1004MOL0     C32436   0.953   0.409  -0.507  0.9711 -0.4127 -0.7529
 1004MOL0     C32437   0.926   0.328  -0.633  0.6873 -0.4898  1.0938
 1004MOL0     C32438   1.048   0.342  -0.725 -0.0259  0.2769  0.1454
 1004MOL0     C32439   1.049   0.231  -0.844 -0.0569 -0.3017 -0.2288
 1004MOL0    Cl32440   1.079   0.071  -0.765 -0.2298  0.0350 -0.4163
 1004MOL0     C32441   0.652   0.603   0.014  0.3989  0.2324  0.0275
 1004MOL0     C32442   0.625   0.720   0.089  0.2770 -0.2287  0.3578
 1004MOL0     O32443   0.483   0.780   0.358 -1.4060 -0.1925 -0.2106
 1004MOL0     C32444   0.451   1.136   0.283 -0.0457 -0.7972 -1.0880
 1004MOL0     C32445   0.437   1.263   0.339  0.0720  0.1555  0.5298
 1004MOL0     N32446   0.205   1.847   0.824  0.1909 -0.6041  0.7342
 1004MOL0     N32447   0.123   1.950   0.832  0.2990 -0.1893  0.3673
 1004MOL0     C32448   0.159   2.562   0.403  0.0899  0.4923 -0.0271
 1004MOL0     C32449   0.273   2.631   0.349 -0.9849 -0.8765 -0.7224
 1004MOL0     C32450   0.580   2.945   0.230  0.0871 -0.2527 -0.5708
 1004MOL0     C32451   0.522   3.056   0.160 -0.5971 -0.8274  0.1030
 1004MOL0     C32452   0.604   3.155   0.114 -0.6078  0.1476 -0.5066
 1004MOL0     C32453   0.743   3.155   0.139 -0.7911 -0.2707  0.1996
 1004MOL0     O32454   0.835   3.251   0.109  0.3831 -0.0974 -0.0594
 1004MOL0     C32455   0.796   3.367   0.035  0.1289 -1.1424 -0.2280
 1004MOL0     C32456   0.922   3.434  -0.023 -0.0118 -0.6086 -0.4844
 1004MOL0     C32457   0.938   3.372  -0.164 -0.1618 -0.0879 -0.3601
 1004MOL0     C32458   1.061   3.444  -0.233 -0.2940 -0.0728  0.1212
 1004MOL0     C32459   1.061   3.394  -0.373  0.3086 -0.0186  0.6190
 1004MOL0     C32460   1.069   3.356  -0.488  0.4902 -0.6055  1.6534
 1004MOL0     C32461   0.793   3.042   0.212  0.1574  0.8753 -0.3770
 1004MOL0     C32462   0.711   2.942   0.249 -0.3755 -0.2079 -0.6968
 1004MOL0     H32463   0.141   2.936   0.290  3.1024  0.4206  2.2021
 1004MOL0     H32464  -0.056   2.812   0.384 -0.1112 -0.3302  0.5742
 1004MOL0     H32465  -0.122   2.489   0.253  2.2595 -3.0067  1.6430
 1004MOL0     H32466  -0.205   2.643   0.303 -2.2825  0.3801  2.2555
 1004MOL0     H32467  -0.365   2.432   0.311 -2.0742  1.9419  2.0176
 1004MOL0     H32468  -0.343   2.513   0.469 -3.0121 -0.9077 -0.2076
 1004MOL0     H32469  -0.334   2.260   0.476  0.0514 -0.7628 -1.4908
 1004MOL0     H32470  -0.202   2.349   0.560  1.1953 -0.4330  0.2056
 1004MOL0     H32471  -0.188   2.217   0.279  3.7366  4.0517 -2.5004
 1004MOL0     H32472  -0.053   2.279   0.370  0.2129 -0.9990 -0.2463
 1004MOL0     H32473  -0.071   2.041   0.383  1.0814 -0.5811  1.7981
 1004MOL0     H32474  -0.222   2.037   0.459 -1.9210 -0.1586 -0.6493
 1004MOL0     H32475   0.007   2.003   0.580 -0.2414  1.1894 -1.1471
 1004MOL0     H32476  -0.114   2.095   0.666 -0.9224 -2.8960 -0.4705
 1004MOL0     H32477   0.153   2.178   0.541 -0.0793 -2.9203 -0.5677
 1004MOL0     H32478   0.027   2.301   0.588 -1.3744 -0.9380 -2.6079
 1004MOL0     H32479   0.042   2.199   0.820 -1.1702  1.4734 -1.7916
 1004MOL0     H32480   0.195   2.257   0.773  1.2899  0.0413 -0.8427
 1004MOL0     H32481   0.388   2.080   0.679  0.1857 -0.8191 -1.0149
 1004MOL0     H32482   0.488   1.779   0.830 -0.0738  2.6135  0.3246
 1004MOL0     H32483   0.489   1.838   0.656 -0.7590  1.4927 -0.0490
 1004MOL0     H32484   0.325   1.642   0.606  2.5346 -0.3342 -1.4075
 1004MOL0     H32485   0.325   1.600   0.785 -2.0872 -0.7346 -1.2069
 1004MOL0     H32486   0.562   1.565   0.585 -3.7618 -0.9623 -1.9707
 1004MOL0     H32487   0.576   1.564   0.756 -2.6286 -0.1447  2.3159
 1004MOL0     H32488   0.407   1.370   0.751 -2.6347 -1.3261 -1.2153
 1004MOL0     H32489   0.540   1.329   0.647 -0.7436 -0.1829 -0.1831
 1004MOL0     H32490   0.340   1.144   0.649  1.6820  3.8337  0.8765
 1004MOL0     H32491   0.401   0.928   0.544  1.0490 -0.5321 -0.3815
 1004MOL0     H32492   0.306   0.762  -0.025 -2.4593 -3.3879  2.9289
 1004MOL0     H32493   0.367   0.572  -0.164  1.1513  0.2592 -2.5820
 1004MOL0     H32494   0.545   0.472  -0.337  1.1442 -1.1505 -1.2336
 1004MOL0     H32495   0.449   0.352  -0.241  0.3216 -0.0134 -0.1102
 1004MOL0     H32496   0.612   0.234  -0.427  2.5597 -2.2827 -0.2656
 1004MOL0     H32497   0.627   0.178  -0.258  0.6066 -3.6092 -3.3078
 1004MOL0     H32498   0.845   0.216  -0.396  1.1437  1.2621 -1.0207
 1004MOL0     H32499   0.852   0.297  -0.244  0.5797  0.5276 -0.0724
 1004MOL0     H32500   0.738   0.441  -0.480 -0.0128  0.5787 -0.4281
 1004MOL0     H32501   0.833   0.499  -0.339  1.9955 -1.9983  3.5564
 1004MOL0     H32502   1.034   0.373  -0.443  0.7976  0.9031  0.2580
 1004MOL0     H32503   0.978   0.513  -0.530 -0.5430  0.5903  1.6937
 1004MOL0     H32504   0.836   0.369  -0.681  2.6923  0.1363 -2.4440
 1004MOL0     H32505   0.902   0.228  -0.597 -2.1794  0.7335  3.0110
 1004MOL0     H32506   1.046   0.441  -0.769  0.2799 -0.3511 -1.3332
 1004MOL0     H32507   1.136   0.334  -0.660  1.1792 -0.3712 -1.5017
 1004MOL0     H32508   1.124   0.259  -0.919  0.0923 -0.7467 -0.2481
 1004MOL0     H32509   0.948   0.241  -0.884 -0.7316  0.6321  1.6016
 1004MOL0     H32510   0.749   0.554   0.013  1.1757  1.4702  3.1568
 1004MOL0     H32511   0.692   0.770   0.159 -1.4365  3.1966 -0.2231
 1004MOL0     H32512   0.467   1.134   0.175  1.7330  0.1161 -0.8727
 1004MOL0     H32513   0.429   1.346   0.269 -0.8685 -1.0674 -0.8656
 1004MOL0     H32514   0.155   2.461   0.443 -1.8543  0.0935 -1.1132
 1004MOL0     H32515   0.361   2.576   0.317 -1.2503 -0.7779 -1.6502
 1004MOL0     H32516   0.414   3.050   0.150 -0.7555 -1.8089  2.0084
 1004MOL0     H32517   0.564   3.242   0.063 -1.1170  1.1633  1.5256
 1004MOL0     H32518   0.755   3.436   0.110  0.2403 -1.7646  0.4120
 1004MOL0     H32519   0.721   3.349  -0.042  0.9934  2.3997 -2.1309
 1004MOL0     H32520   0.909   3.542  -0.017  1.2812 -0.5099  2.2452
 1004MOL0     H32521   1.011   3.420   0.039  0.1119  2.5055  0.1728
 1004MOL0     H32522   0.847   3.385  -0.224 -1.4989 -0.0592  1.5732
 1004MOL0     H32523   0.938   3.263  -0.153 -0.7647  0.1055  1.9655
 1004MOL0     H32524   1.041   3.551  -0.222  1.0190  0.1106  0.9608
 1004MOL0     H32525   1.154   3.420  -0.180  1.8523  2.5742 -2.1129
 1004MOL0     H32526   1.071   3.306  -0.583 -0.7813 -0.1442  1.3617
 1004MOL0     H32527   0.900   3.026   0.213 -0.1359 -2.4214 -3.2395
 1004MOL0     H32528   0.765   2.866   0.305  2.4478  1.8734 -0.3836
 1005MOL0     O32529   3.808   4.953  10.446  0.3051  0.0530  0.9826
 1005MOL0     C32530   3.720   4.906  10.378 -0.0344 -1.3530  0.2147
 1005MOL0     O32531   3.733   4.793  10.302  0.5857 -0.0488 -0.4489
 1005MOL0     C32532   3.849   4.725  10.287 -0.5633  0.3240 -0.4699
 1005MOL0     C32533   3.870   4.641  10.180 -0.4403  0.1607  0.3051
 1005MOL0     C32534   3.978   4.557  10.174  0.4074  0.6776 -0.2211
 1005MOL0     C32535   4.087   4.561  10.258 -0.7242  0.8917 -0.7424
 1005MOL0     O32536   4.207   4.494  10.236 -0.1295  0.2558 -0.1350
 1005MOL0     C32537   4.210   4.393  10.133  0.3586  0.1543  0.3225
 1005MOL0     C32538   4.344   4.313  10.144  0.0525 -0.5614  0.2095
 1005MOL0     C32539   4.334   4.175  10.071  0.4526 -0.1319 -0.3108
 1005MOL0     C32540   4.318   4.210   9.921  0.8518  0.1736 -0.5959
 1005MOL0     C32541   4.370   4.086   9.842 -0.1362  0.1966  0.2939
 1005MOL0     C32542   4.276   4.079   9.722  0.6816  0.1554  0.7691
 1005MOL0     C32543   4.135   4.002   9.742 -2.0427  0.8386 -1.0512
 1005MOL0     C32544   4.054   3.990   9.616  0.8426  0.2415  0.4696
 1005MOL0     N32545   3.963   4.101   9.592  0.5690  0.1758 -0.7276
 1005MOL0     C32546   3.987   4.206   9.504 -1.0805  0.5317 -0.9256
 1005MOL0     C32547   3.866   4.272   9.495 -0.3681 -0.7198 -0.3936
 1005MOL0     C32548   3.825   4.381   9.402  0.4112 -0.3673  0.0853
 1005MOL0     C32549   3.765   4.339   9.270 -0.0896  0.0424 -0.3591
 1005MOL0     C32550   3.686   4.459   9.206  0.4321  0.2831 -0.2813
 1005MOL0     C32551   3.614   4.401   9.082  0.2763  0.1599 -0.5288
 1005MOL0     O32552   3.712   4.366   8.986  0.8555  0.0372  0.1861
 1005MOL0     C32553   3.660   4.301   8.884  1.0585  0.0835  0.8486
 1005MOL0     C32554   3.635   4.165   8.891 -0.1006 -0.0321 -0.1666
 1005MOL0     C32555   3.568   4.109   8.780  0.4793 -0.8603 -0.2515
 1005MOL0     C32556   3.521   4.185   8.671 -0.0344 -1.4117  0.2687
 1005MOL0     C32557   3.440   4.135   8.563 -0.3221 -0.8295 -0.2512
 1005MOL0     O32558   3.420   3.996   8.556 -0.1311  0.2390  0.4657
 1005MOL0     C32559   3.416   3.939   8.432 -0.5982  0.3093  0.6180
 1005MOL0     C32560   3.487   3.989   8.321 -0.2442  0.1481 -1.0167
 1005MOL0     C32561   3.483   3.916   8.200 -0.7739 -0.5207 -0.1202
 1005MOL0     C32562   3.421   3.797   8.183 -0.8240 -0.1520  0.3373
 1005MOL0     O32563   3.437   3.747   8.052 -0.3928 -0.1631 -0.2660
 1005MOL0     C32564   3.360   3.641   7.998 -0.5195 -0.5372  0.3725
 1005MOL0     C32565   3.418   3.506   8.044 -0.6530 -0.1828 -0.3284
 1005MOL0     C32566   3.556   3.473   7.976  0.4696 -0.2708 -0.8047
 1005MOL0     C32567   3.667   3.567   8.015  0.3744 -0.0028  0.3318
 1005MOL0     C32568   3.802   3.515   7.970  0.2058 -0.3446  1.7262
 1005MOL0     C32569   3.906   3.617   8.004 -1.0268  0.3400 -0.7134
 1005MOL0     C32570   4.048   3.566   7.974 -0.3567  0.0376 -0.0278
 1005MOL0     C32571   4.152   3.676   7.998 -0.1802 -0.6405  0.2712
 1005MOL0    Cl32572   4.316   3.608   8.017  0.5210 -0.0404  0.0417
 1005MOL0     C32573   3.342   3.750   8.287 -0.1878  0.3996 -0.1672
 1005MOL0     C32574   3.336   3.830   8.405  0.1103 -0.0814  0.0011
 1005MOL0     O32575   3.406   4.215   8.475 -0.4924  0.5148  0.3082
 1005MOL0     C32576   3.551   4.322   8.671  0.6467  0.0176 -0.7631
 1005MOL0     C32577   3.612   4.378   8.776 -0.6583  1.5154 -0.2752
 1005MOL0     N32578   3.780   4.214   9.584  0.2124 -0.2935  0.3024
 1005MOL0     N32579   3.839   4.109   9.635 -0.2570 -0.3196 -0.2556
 1005MOL0     C32580   4.070   4.648  10.375  0.2441 -0.5461  0.5574
 1005MOL0     C32581   3.948   4.712  10.390 -0.2176  0.3599  0.4338
 1005MOL0     C32582   3.588   4.983  10.377 -0.2317  0.3493 -0.2473
 1005MOL0     C32583   3.585   5.108  10.433 -0.1553 -0.3359 -0.7223
 1005MOL0     C32584   3.469   5.185  10.436 -0.4534 -0.3399  0.7095
 1005MOL0     C32585   3.355   5.139  10.361 -0.2197 -0.4677 -0.3408
 1005MOL0     O32586   3.239   5.214  10.344 -0.1084  0.0377  0.4888
 1005MOL0     C32587   3.215   5.342  10.422  0.2978  0.5630  0.3963
 1005MOL0     C32588   3.188   5.453  10.323  0.4091 -0.0382  0.3634
 1005MOL0     C32589   3.074   5.433  10.226 -0.2557 -0.7725  0.3469
 1005MOL0     C32590   2.936   5.473  10.283 -0.9614  0.3772 -0.3954
 1005MOL0     C32591   2.839   5.481  10.173  0.9380 -0.7609  0.6969
 1005MOL0     C32592   2.763   5.474  10.078 -0.0763  0.8386  0.7717
 1005MOL0     C32593   3.361   5.011  10.301 -0.4015 -0.2547 -0.0748
 1005MOL0     C32594   3.469   4.928  10.322  0.2031  0.4373 -0.0014
 1005MOL0     H32595   3.800   4.635  10.097  0.0946  1.4573 -0.2697
 1005MOL0     H32596   3.971   4.487  10.091  0.4247 -3.7482  3.1239
 1005MOL0     H32597   4.208   4.449  10.039  4.2459 -0.2489 -0.1729
 1005MOL0     H32598   4.124   4.328  10.152  0.6780 -0.3463  0.0766
 1005MOL0     H32599   4.341   4.285  10.250 -3.6466  2.8782  1.2418
 1005MOL0     H32600   4.433   4.372  10.119 -0.0276 -0.5868 -0.1466
 1005MOL0     H32601   4.245   4.123  10.107 -1.0915  2.9640  0.7581
 1005MOL0     H32602   4.426   4.122  10.098  0.2770  0.3153  1.2957
 1005MOL0     H32603   4.217   4.237   9.889  0.9178 -2.6954 -3.7714
 1005MOL0     H32604   4.385   4.291   9.891 -0.7422  0.8906 -2.4240
 1005MOL0     H32605   4.344   3.996   9.898  0.5851 -0.1756  0.0412
 1005MOL0     H32606   4.476   4.093   9.815  0.5795  1.1847  3.0084
 1005MOL0     H32607   4.324   4.016   9.647  0.4864 -1.7933  2.2274
 1005MOL0     H32608   4.245   4.179   9.689  5.4670  1.6793  0.0448
 1005MOL0     H32609   4.164   3.903   9.779 -1.2586  0.9083 -1.4618
 1005MOL0     H32610   4.076   4.037   9.827 -0.2140  0.5311  0.4232
 1005MOL0     H32611   3.982   3.910   9.636 -1.4021  2.0053 -0.0575
 1005MOL0     H32612   4.121   3.966   9.532 -2.7676  0.3297 -2.7410
 1005MOL0     H32613   4.078   4.215   9.446  0.2526  2.7066  1.3125
 1005MOL0     H32614   3.911   4.446   9.383  0.3206  0.4350  2.1331
 1005MOL0     H32615   3.757   4.447   9.458  1.2745  0.5359  0.0881
 1005MOL0     H32616   3.689   4.262   9.284 -2.0436  1.9577  0.1473
 1005MOL0     H32617   3.832   4.313   9.188  0.3765 -1.1025  0.3640
 1005MOL0     H32618   3.613   4.510   9.271 -1.4261  0.4125 -2.3312
 1005MOL0     H32619   3.753   4.542   9.183 -0.8708  1.1622 -1.0413
 1005MOL0     H32620   3.556   4.488   9.051  1.4542  1.3646  0.4761
 1005MOL0     H32621   3.554   4.312   9.101 -0.2538  0.2129 -1.8889
 1005MOL0     H32622   3.664   4.097   8.970  3.0219  1.3535  0.0201
 1005MOL0     H32623   3.557   4.003   8.760  3.7063 -0.8757 -2.8607
 1005MOL0     H32624   3.557   4.072   8.327  1.2051 -1.1440  1.2324
 1005MOL0     H32625   3.532   3.957   8.113  0.7077  0.0362  0.9454
 1005MOL0     H32626   3.365   3.638   7.889  2.4560  5.4489 -0.0686
 1005MOL0     H32627   3.257   3.648   8.035 -0.2181 -0.7908  1.2981
 1005MOL0     H32628   3.347   3.424   8.027  2.1156 -2.7950 -0.0832
 1005MOL0     H32629   3.435   3.514   8.151  1.6321 -1.3931 -0.5473
 1005MOL0     H32630   3.545   3.470   7.868  1.3853 -0.1663 -0.9043
 1005MOL0     H32631   3.580   3.372   8.010 -0.7435 -0.6581 -1.0293
 1005MOL0     H32632   3.658   3.660   7.957  0.5485  0.1468  0.5424
 1005MOL0     H32633   3.676   3.588   8.122  3.6039 -1.8083  0.5375
 1005MOL0     H32634   3.792   3.509   7.861  1.6700  2.2973  1.3696
 1005MOL0     H32635   3.821   3.418   8.016  1.5740 -1.7738 -1.5356
 1005MOL0     H32636   3.900   3.628   8.113  1.0247 -1.2185 -0.3684
 1005MOL0     H32637   3.886   3.704   7.941 -1.8687 -1.2126 -2.7233
 1005MOL0     H32638   4.077   3.479   8.033  0.6852  0.3724 -0.0321
 1005MOL0     H32639   4.058   3.526   7.872  2.2998 -1.8661  0.8698
 1005MOL0     H32640   4.118   3.731   8.086 -1.2251  0.0096 -0.4960
 1005MOL0     H32641   4.146   3.748   7.916 -1.5732  0.5257  1.3499
 1005MOL0     H32642   3.285   3.658   8.293  0.9865 -0.2699  2.1941
 1005MOL0     H32643   3.258   3.804   8.475 -0.0763  0.6358  0.0702
 1005MOL0     H32644   3.525   4.391   8.591 -1.4940  2.7298  2.0222
 1005MOL0     H32645   3.630   4.485   8.772  4.0043  0.9486 -0.6193
 1005MOL0     H32646   4.140   4.654  10.458 -0.3752 -4.2347  1.5070
 1005MOL0     H32647   3.928   4.769  10.480 -0.8233  1.5451 -0.4189
 1005MOL0     H32648   3.670   5.159  10.478  0.6394 -1.8961 -0.3672
 1005MOL0     H32649   3.472   5.284  10.481 -0.9675  0.6711 -1.3529
 1005MOL0     H32650   3.295   5.367  10.493  0.8675  1.1029 -0.4196
 1005MOL0     H32651   3.126   5.325  10.483  2.8956  0.3132  4.5136
 1005MOL0     H32652   3.168   5.550  10.370 -0.0935  0.1200 -0.1702
 1005MOL0     H32653   3.277   5.483  10.267 -0.4191 -0.1601 -1.0526
 1005MOL0     H32654   3.082   5.333  10.181  2.5652 -0.1065 -0.7877
 1005MOL0     H32655   3.087   5.502  10.142  0.6307  0.1018  1.1963
 1005MOL0     H32656   2.897   5.405  10.359  0.5104  0.8937  0.8704
 1005MOL0     H32657   2.957   5.572  10.325  2.5372  0.1930 -1.4129
 1005MOL0     H32658   2.706   5.448   9.992 -0.3861  0.5148  1.0690
 1005MOL0     H32659   3.278   4.978  10.239 -0.1507  0.9800 -1.1093
 1005MOL0     H32660   3.467   4.823  10.295 -4.4739 -0.6790  3.4580
 1006MOL0     O32661   3.724   6.468   4.142 -0.1137 -0.3517  0.0162
 1006MOL0     C32662   3.747   6.352   4.146 -0.8803  0.0309 -0.8494
 1006MOL0     O32663   3.719   6.274   4.253  0.6772 -0.3299 -1.1017
 1006MOL0     C32664   3.637   6.339   4.345  0.2741  0.5917  0.3500
 1006MOL0     C32665   3.495   6.310   4.344 -0.1189  0.1354 -0.5370
 1006MOL0     C32666   3.408   6.377   4.426 -0.0269 -0.4249  0.0013
 1006MOL0     C32667   3.459   6.470   4.527  0.0136  0.3891  0.4449
 1006MOL0     O32668   3.380   6.545   4.610  0.7970  0.9920  0.4381
 1006MOL0     C32669   3.358   6.677   4.559  0.3909  1.1731 -1.5751
 1006MOL0     C32670   3.302   6.764   4.672  0.3165 -0.0575  0.3825
 1006MOL0     C32671   3.409   6.775   4.788  1.8956 -0.6379  0.6635
 1006MOL0     C32672   3.344   6.824   4.921  0.4032 -0.5737  0.1519
 1006MOL0     C32673   3.445   6.807   5.035  0.7396 -0.1341 -0.2036
 1006MOL0     C32674   3.390   6.829   5.173  0.3737  0.3508 -0.7119
 1006MOL0     C32675   3.489   6.823   5.281  0.2149 -0.0580  0.3347
 1006MOL0     C32676   3.557   6.959   5.305 -0.8253  0.9094  0.8001
 1006MOL0     N32677   3.614   6.966   5.440 -0.0232 -0.1620 -0.8304
 1006MOL0     C32678   3.626   6.869   5.535 -0.5205 -0.4573  0.1000
 1006MOL0     C32679   3.714   6.914   5.624  0.4730 -0.1969 -0.2107
 1006MOL0     C32680   3.764   6.833   5.752  0.2089  0.5738  0.4183
 1006MOL0     C32681   3.650   6.813   5.846  0.0324  0.2674 -0.3880
 1006MOL0     C32682   3.609   6.927   5.947  0.5473 -0.3554  0.6189
 1006MOL0     C32683   3.735   6.973   6.031 -0.0035 -0.7018 -0.2586
 1006MOL0     O32684   3.806   6.876   6.110  0.5119 -0.0921 -0.1736
 1006MOL0     C32685   3.926   6.831   6.064  0.3744 -0.5661  0.0396
 1006MOL0     C32686   4.021   6.905   6.002  0.6368 -0.6036 -1.1709
 1006MOL0     C32687   4.147   6.845   5.970  0.1852 -0.3780  0.1356
 1006MOL0     C32688   4.183   6.719   6.014  0.3634 -0.4822  0.5492
 1006MOL0     C32689   4.307   6.663   5.976 -0.9740  0.0509 -0.6408
 1006MOL0     O32690   4.380   6.735   5.895 -0.6500 -0.4199  0.0949
 1006MOL0     C32691   4.510   6.694   5.876 -0.4452 -0.3780  0.0835
 1006MOL0     C32692   4.547   6.574   5.806 -0.6623  0.7303 -0.0930
 1006MOL0     C32693   4.683   6.552   5.783  0.2298 -1.0807 -0.2380
 1006MOL0     C32694   4.791   6.627   5.831  0.1065 -0.0322  0.0849
 1006MOL0     O32695   4.917   6.592   5.785  0.5255  0.0794 -0.3015
 1006MOL0     C32696   4.992   6.701   5.722  0.6039 -0.1964 -0.1495
 1006MOL0     C32697   5.074   6.637   5.618 -0.1942  0.9767 -0.0443
 1006MOL0     C32698   5.124   6.748   5.523 -0.0695  0.2909  0.8068
 1006MOL0     C32699   5.212   6.708   5.403  0.2020  0.7029  0.0629
 1006MOL0     C32700   5.201   6.564   5.351  0.3405 -0.5611 -1.0432
 1006MOL0     C32701   5.297   6.532   5.238  0.0140  0.0795 -0.5975
 1006MOL0     C32702   5.301   6.389   5.179 -1.5562 -0.5569  0.7144
 1006MOL0     C32703   5.284   6.288   5.286 -0.2428  0.1640 -0.0724
 1006MOL0    Cl32704   5.305   6.123   5.216 -0.0249 -0.4576 -0.0253
 1006MOL0     C32705   4.756   6.732   5.914 -0.0851 -0.7670 -0.8640
 1006MOL0     C32706   4.617   6.766   5.939  0.8150 -0.5132  0.1011
 1006MOL0     O32707   4.348   6.556   6.021  0.2388  0.8589 -0.4249
 1006MOL0     C32708   4.086   6.652   6.093 -0.4698 -0.1064  0.2209
 1006MOL0     C32709   3.967   6.711   6.118  0.1512 -0.7586 -0.5709
 1006MOL0     N32710   3.733   7.049   5.603  0.5264 -0.1647 -0.0254
 1006MOL0     N32711   3.674   7.080   5.494  0.0448 -1.0512  0.1836
 1006MOL0     C32712   3.596   6.503   4.522 -0.2551 -0.8597 -0.4757
 1006MOL0     C32713   3.684   6.438   4.432  0.1879 -0.9013 -0.5894
 1006MOL0     C32714   3.816   6.288   4.031 -0.3385 -0.2334 -1.0185
 1006MOL0     C32715   3.859   6.356   3.917 -0.0967 -0.0055  0.8395
 1006MOL0     C32716   3.913   6.281   3.811  0.4718  0.3343 -0.0766
 1006MOL0     C32717   3.931   6.146   3.808  0.1881  0.0247 -0.8804
 1006MOL0     O32718   3.975   6.062   3.707 -0.0874  0.5796 -0.1046
 1006MOL0     C32719   4.043   6.129   3.600  0.7788 -0.8304  0.6992
 1006MOL0     C32720   3.958   6.143   3.471 -0.8731  0.1392 -0.1078
 1006MOL0     C32721   3.895   6.009   3.432 -0.4773  0.4307  0.2472
 1006MOL0     C32722   3.800   6.009   3.310  0.1658 -0.2534  0.3466
 1006MOL0     C32723   3.697   6.120   3.314 -0.4357  0.6909 -0.0701
 1006MOL0     C32724   3.632   6.218   3.323  0.5476  0.2519  0.3659
 1006MOL0     C32725   3.890   6.074   3.927 -0.5373  0.8887 -0.5388
 1006MOL0     C32726   3.834   6.143   4.038 -0.2433  0.4893  0.2986
 1006MOL0     H32727   3.458   6.250   4.262 -1.3319  0.5052 -0.2882
 1006MOL0     H32728   3.300   6.363   4.428 -0.0399 -0.5053 -0.8071
 1006MOL0     H32729   3.278   6.678   4.485 -1.8683 -0.6938  0.6289
 1006MOL0     H32730   3.450   6.721   4.520  1.4466  1.6554  1.2167
 1006MOL0     H32731   3.216   6.717   4.722  0.2219 -0.9715 -0.6072
 1006MOL0     H32732   3.273   6.859   4.626  0.6758 -1.1538 -2.2356
 1006MOL0     H32733   3.481   6.850   4.754 -1.4032  3.0015  0.8630
 1006MOL0     H32734   3.466   6.684   4.806  2.5668 -0.6695 -1.4099
 1006MOL0     H32735   3.322   6.929   4.901  0.6816 -0.5790 -0.1935
 1006MOL0     H32736   3.251   6.775   4.951  0.0708 -0.8903 -1.2979
 1006MOL0     H32737   3.524   6.881   5.024  0.0959  0.4014 -1.4235
 1006MOL0     H32738   3.482   6.704   5.035  3.3464  0.7259 -0.0953
 1006MOL0     H32739   3.306   6.765   5.200  0.8915  0.8998  2.6296
 1006MOL0     H32740   3.342   6.928   5.176 -1.4603 -0.4702  2.9253
 1006MOL0     H32741   3.439   6.781   5.369 -0.6310  0.1917 -0.0206
 1006MOL0     H32742   3.565   6.754   5.243 -0.3090  0.5317 -1.9254
 1006MOL0     H32743   3.492   7.045   5.288  2.5069  3.4450 -0.2113
 1006MOL0     H32744   3.636   6.970   5.230 -2.0692  0.2437 -0.6615
 1006MOL0     H32745   3.586   6.768   5.541 -2.1087  0.0848 -0.9495
 1006MOL0     H32746   3.844   6.896   5.791 -2.2396  4.4252 -0.2213
 1006MOL0     H32747   3.793   6.738   5.707 -0.7388  1.2808 -1.8423
 1006MOL0     H32748   3.660   6.721   5.904 -1.9669  0.5272  0.4580
 1006MOL0     H32749   3.555   6.790   5.797 -1.4100 -0.1676  2.3959
 1006MOL0     H32750   3.564   7.012   5.895  2.2447 -0.7038 -1.5694
 1006MOL0     H32751   3.545   6.894   6.029  1.1779 -0.2459  1.1631
 1006MOL0     H32752   3.701   7.036   6.113 -0.4756 -1.0095 -0.2165
 1006MOL0     H32753   3.800   7.032   5.966 -0.0559 -0.7068 -0.3152
 1006MOL0     H32754   4.006   7.012   5.988  2.3787 -0.3883 -1.6181
 1006MOL0     H32755   4.216   6.916   5.924  0.1030 -0.0825  0.4613
 1006MOL0     H32756   4.462   6.519   5.767  0.4546  0.5962 -2.5564
 1006MOL0     H32757   4.717   6.477   5.712  0.1884 -1.2389 -0.0921
 1006MOL0     H32758   5.061   6.745   5.794 -0.2371 -0.6603  0.9905
 1006MOL0     H32759   4.918   6.775   5.690  0.2335 -1.5931 -2.8131
 1006MOL0     H32760   5.020   6.565   5.556  1.6511 -0.1282 -0.4254
 1006MOL0     H32761   5.161   6.585   5.657 -1.3405 -0.3461  0.8533
 1006MOL0     H32762   5.162   6.838   5.572 -0.2006  1.6494 -1.4339
 1006MOL0     H32763   5.028   6.793   5.497  1.1476  2.1383 -0.6958
 1006MOL0     H32764   5.189   6.780   5.324 -1.0427  0.4822  0.2027
 1006MOL0     H32765   5.312   6.730   5.441  1.8582 -2.7878 -1.7716
 1006MOL0     H32766   5.096   6.549   5.323 -0.5483 -1.7942  2.4069
 1006MOL0     H32767   5.232   6.491   5.427  0.7944 -0.4796 -1.1483
 1006MOL0     H32768   5.399   6.532   5.280  0.5877 -0.9812 -1.9150
 1006MOL0     H32769   5.284   6.604   5.157 -1.0313 -1.3326 -1.7169
 1006MOL0     H32770   5.226   6.362   5.103  0.8204 -5.2424 -0.3308
 1006MOL0     H32771   5.397   6.369   5.132  0.3754  1.4198  3.4633
 1006MOL0     H32772   5.187   6.308   5.333 -0.8404  3.8679 -2.4054
 1006MOL0     H32773   5.357   6.319   5.361  1.0619  1.4224 -1.7635
 1006MOL0     H32774   4.830   6.779   5.978 -1.5314  2.3963 -1.3472
 1006MOL0     H32775   4.610   6.852   6.004  2.1025  2.1215 -2.9685
 1006MOL0     H32776   4.115   6.561   6.144  4.3647 -0.3508 -2.3651
 1006MOL0     H32777   3.899   6.657   6.182 -2.7546  3.0569 -0.0255
 1006MOL0     H32778   3.632   6.575   4.595  2.4367 -2.1387 -0.4189
 1006MOL0     H32779   3.789   6.459   4.452 -0.4353 -1.2056  4.2008
 1006MOL0     H32780   3.841   6.461   3.900  1.3544 -0.0347 -1.2157
 1006MOL0     H32781   3.944   6.333   3.720  1.0910  0.9512  0.4752
 1006MOL0     H32782   4.135   6.071   3.586  1.6054  0.8997 -1.8254
 1006MOL0     H32783   4.080   6.224   3.640 -0.7139 -0.7924  2.0900
 1006MOL0     H32784   3.881   6.215   3.501 -0.5590  0.2567  0.4275
 1006MOL0     H32785   3.998   6.196   3.385  0.3462 -0.6228 -0.0389
 1006MOL0     H32786   3.842   5.965   3.517  2.1550 -0.6167  1.4633
 1006MOL0     H32787   3.967   5.931   3.406 -1.2588  0.0643 -0.9082
 1006MOL0     H32788   3.861   6.004   3.219  1.2973  0.7269  1.0260
 1006MOL0     H32789   3.747   5.913   3.302  0.6149 -0.4608 -0.1906
 1006MOL0     H32790   3.572   6.306   3.321 -1.0836 -0.7930  1.4960
 1006MOL0     H32791   3.919   5.972   3.950  1.3086  1.1428 -1.5842
 1006MOL0     H32792   3.795   6.082   4.119  0.2093  2.7850  2.3820
 1007MOL0     O32793   0.839   7.321   0.883 -0.1910  0.2649  0.2304
 1007MOL0     C32794   0.942   7.378   0.891  0.3361 -0.2854 -0.1471
 1007MOL0     O32795   0.976   7.493   0.825  1.1861 -0.4172 -0.2375
 1007MOL0     C32796   0.890   7.584   0.770  0.0931  0.9220 -0.2160
 1007MOL0     C32797   0.758   7.602   0.815  0.3955  0.5251  0.7800
 1007MOL0     C32798   0.681   7.707   0.770 -0.6487  0.1145  0.3939
 1007MOL0     C32799   0.737   7.804   0.676  0.4240 -0.4076  0.9339
 1007MOL0     O32800   0.654   7.909   0.643 -0.4989  0.1828  0.1788
 1007MOL0     C32801   0.717   8.027   0.591  0.1566  0.9600  0.5687
 1007MOL0     C32802   0.715   8.026   0.438  0.0537  0.2462 -0.4270
 1007MOL0     C32803   0.568   8.022   0.387 -0.5992  0.4476  0.2125
 1007MOL0     C32804   0.549   8.008   0.232  0.1323 -0.1462  0.1676
 1007MOL0     C32805   0.396   8.007   0.194  0.8611  0.6042 -0.8631
 1007MOL0     C32806   0.359   8.064   0.052 -0.1630 -1.1215 -0.1973
 1007MOL0     C32807   0.446   8.014  -0.062 -0.1120 -0.2611  0.1866
 1007MOL0     C32808   0.374   8.021  -0.202 -0.2551 -0.1645 -0.3585
 1007MOL0     N32809   0.426   7.943  -0.312 -0.1650 -0.4338 -0.7724
 1007MOL0     C32810   0.556   7.945  -0.361  0.0981 -0.0281 -0.6932
 1007MOL0     C32811   0.565   7.854  -0.455  1.3194 -0.5948  0.0261
 1007MOL0     C32812   0.691   7.824  -0.519 -0.7133 -0.1843 -0.1473
 1007MOL0     C32813   0.699   7.862  -0.667 -0.1623 -1.1637  0.8312
 1007MOL0     C32814   0.835   7.858  -0.735  0.0535 -0.7181 -0.1594
 1007MOL0     C32815   0.942   7.918  -0.651  0.3754  0.3078 -0.3738
 1007MOL0     O32816   0.984   7.828  -0.548  0.2641  0.5231  0.6902
 1007MOL0     C32817   1.068   7.874  -0.452 -0.0288 -0.0003 -0.4447
 1007MOL0     C32818   1.094   7.788  -0.348  0.4606  0.2181  0.2160
 1007MOL0     C32819   1.182   7.836  -0.248  0.1127 -0.0240  0.0425
 1007MOL0     C32820   1.245   7.958  -0.249  0.4667  0.1559  0.3309
 1007MOL0     C32821   1.338   7.994  -0.144 -0.2416  0.5630 -0.5808
 1007MOL0     O32822   1.360   8.131  -0.116 -1.1440 -0.4023  0.0708
 1007MOL0     C32823   1.454   8.161  -0.010  0.7558  0.8954  0.3124
 1007MOL0     C32824   1.466   8.094   0.118  0.0615 -0.1973  0.1064
 1007MOL0     C32825   1.538   8.143   0.221  0.7768 -0.2147  0.1927
 1007MOL0     C32826   1.622   8.248   0.201 -0.4892  1.3243 -0.5299
 1007MOL0     O32827   1.706   8.269   0.311  0.6136 -0.2903  0.4704
 1007MOL0     C32828   1.805   8.370   0.297  0.2226 -0.0115  0.1430
 1007MOL0     C32829   1.837   8.440   0.435  0.1354  0.0189  0.3072
 1007MOL0     C32830   1.961   8.538   0.422  0.0977 -0.6256 -0.1713
 1007MOL0     C32831   2.014   8.594   0.549  0.2213 -0.1240 -0.2214
 1007MOL0     C32832   2.146   8.671   0.544 -0.4184  0.3059 -0.7015
 1007MOL0     C32833   2.178   8.702   0.689 -0.0942 -0.0821  0.0596
 1007MOL0     C32834   2.331   8.689   0.716 -0.7793  0.0508  0.2668
 1007MOL0     C32835   2.409   8.814   0.696 -0.9783  0.5423  0.4987
 1007MOL0    Cl32836   2.595   8.782   0.701 -0.5245 -0.0193 -0.5024
 1007MOL0     C32837   1.629   8.304   0.072 -0.2170  0.5069 -0.0465
 1007MOL0     C32838   1.543   8.265  -0.026  0.6965  0.2309 -0.4001
 1007MOL0     O32839   1.410   7.899  -0.102  0.7924 -0.1611 -1.1545
 1007MOL0     C32840   1.224   8.037  -0.356  0.3335 -1.3696  0.4368
 1007MOL0     C32841   1.129   8.007  -0.451 -0.2305 -0.1995  0.2750
 1007MOL0     N32842   0.425   7.802  -0.470 -1.4911 -0.5073  0.1489
 1007MOL0     N32843   0.346   7.859  -0.383  0.1784  0.6164  0.0269
 1007MOL0     C32844   0.869   7.777   0.628 -1.1998  0.2077 -0.4648
 1007MOL0     C32845   0.945   7.673   0.674  0.1045  0.2526  0.2793
 1007MOL0     C32846   1.055   7.314   0.969  0.4129  0.1000  0.0379
 1007MOL0     C32847   1.171   7.388   0.993 -0.1447 -0.6299 -0.0306
 1007MOL0     C32848   1.266   7.341   1.076  0.3570  0.1860 -0.2521
 1007MOL0     C32849   1.257   7.215   1.134  0.3259  1.1297  0.4687
 1007MOL0     O32850   1.353   7.155   1.213 -0.0782 -0.5117 -0.2692
 1007MOL0     C32851   1.485   7.204   1.217 -0.0513 -0.3713  0.6402
 1007MOL0     C32852   1.577   7.125   1.300 -0.8385  0.1384 -0.1008
 1007MOL0     C32853   1.716   7.186   1.331 -0.6495 -0.2707 -0.2470
 1007MOL0     C32854   1.815   7.093   1.391  1.0356  0.1227  0.1805
 1007MOL0     C32855   1.852   6.980   1.305 -1.3582  0.6545  0.0785
 1007MOL0     C32856   1.882   6.879   1.246 -0.2937  0.2912  0.4916
 1007MOL0     C32857   1.131   7.140   1.125 -1.1128 -0.2253  0.1588
 1007MOL0     C32858   1.029   7.191   1.034 -0.2804  0.0436  0.4450
 1007MOL0     H32859   0.699   7.547   0.888 -2.1121 -1.0264 -2.1893
 1007MOL0     H32860   0.575   7.699   0.790 -0.7187 -0.6188 -0.2325
 1007MOL0     H32861   0.821   8.053   0.615 -0.2996  2.1268  1.3580
 1007MOL0     H32862   0.652   8.111   0.619 -0.4855 -0.2270  2.9171
 1007MOL0     H32863   0.768   7.935   0.408  3.2327  1.0610  2.1194
 1007MOL0     H32864   0.775   8.107   0.395  0.6023 -0.8805 -1.8595
 1007MOL0     H32865   0.529   8.118   0.423 -1.0756 -0.0727  1.1289
 1007MOL0     H32866   0.503   7.953   0.442  2.1842 -0.8985  1.9952
 1007MOL0     H32867   0.602   8.088   0.179 -2.7784  0.5380 -1.9956
 1007MOL0     H32868   0.595   7.916   0.193 -1.9680 -1.2495  0.1323
 1007MOL0     H32869   0.333   8.057   0.268 -3.1517 -2.8909 -1.5371
 1007MOL0     H32870   0.365   7.903   0.192  1.4085  0.3528  1.4428
 1007MOL0     H32871   0.373   8.172   0.055 -3.1807 -0.6285 -1.0070
 1007MOL0     H32872   0.253   8.042   0.033  0.0054 -1.2510 -1.0111
 1007MOL0     H32873   0.534   8.079  -0.069  1.7843 -2.6587  0.5110
 1007MOL0     H32874   0.487   7.913  -0.049  0.4769 -0.1375 -0.6086
 1007MOL0     H32875   0.376   8.125  -0.236 -0.2734  0.0512  0.2972
 1007MOL0     H32876   0.270   7.992  -0.190 -0.2990 -0.0849 -0.5376
 1007MOL0     H32877   0.629   8.006  -0.309  1.2080 -1.7362 -0.1672
 1007MOL0     H32878   0.705   7.717  -0.503 -0.4562  0.1185  1.8519
 1007MOL0     H32879   0.769   7.872  -0.459  1.8478  0.3524 -3.5505
 1007MOL0     H32880   0.679   7.968  -0.685  5.1853 -0.2535 -1.5934
 1007MOL0     H32881   0.621   7.804  -0.719 -1.4385  1.2422 -0.0788
 1007MOL0     H32882   0.862   7.755  -0.758 -1.5140 -1.2959  0.4511
 1007MOL0     H32883   0.832   7.925  -0.821  1.2697  2.6534  2.1864
 1007MOL0     H32884   0.900   8.004  -0.599 -1.4723 -0.0448 -1.2069
 1007MOL0     H32885   1.026   7.948  -0.714  1.5506 -2.0464 -0.0276
 1007MOL0     H32886   1.047   7.691  -0.344 -2.1148  1.4350  1.5677
 1007MOL0     H32887   1.217   7.758  -0.181 -3.3719 -2.7628 -1.0250
 1007MOL0     H32888   1.402   8.009   0.139  1.3461 -0.6787  2.3511
 1007MOL0     H32889   1.526   8.091   0.315  0.7693 -1.9239 -0.7160
 1007MOL0     H32890   1.769   8.452   0.235  1.2833  1.0852  0.9117
 1007MOL0     H32891   1.897   8.337   0.247 -0.9076 -0.6614 -1.5891
 1007MOL0     H32892   1.821   8.366   0.515 -2.3923  1.3513  1.1457
 1007MOL0     H32893   1.754   8.506   0.461  0.8243  0.2643  1.9642
 1007MOL0     H32894   1.918   8.627   0.375  1.3389 -0.2775 -0.6874
 1007MOL0     H32895   2.040   8.493   0.361 -0.5053 -0.1067 -1.3704
 1007MOL0     H32896   1.936   8.652   0.599  1.4541  0.7983  0.6936
 1007MOL0     H32897   2.021   8.506   0.614 -0.0331  0.7926  1.0779
 1007MOL0     H32898   2.127   8.757   0.478 -2.8143  0.3308 -0.0955
 1007MOL0     H32899   2.220   8.601   0.505 -1.0074  0.6264 -2.5037
 1007MOL0     H32900   2.140   8.614   0.742  1.3025 -0.6545  0.1454
 1007MOL0     H32901   2.125   8.787   0.734 -0.1943 -0.1387  0.0514
 1007MOL0     H32902   2.334   8.661   0.822 -3.1116  0.4350  0.4997
 1007MOL0     H32903   2.380   8.615   0.653  0.0017  0.2526  0.6304
 1007MOL0     H32904   2.389   8.887   0.776 -1.3708  1.3121 -0.2916
 1007MOL0     H32905   2.376   8.850   0.598  1.5933 -2.0758 -1.5046
 1007MOL0     H32906   1.698   8.380   0.037 -0.3555  0.3473 -0.6822
 1007MOL0     H32907   1.559   8.303  -0.126  0.1381  0.9494 -0.2301
 1007MOL0     H32908   1.273   8.133  -0.368  2.2352 -2.2105  1.0042
 1007MOL0     H32909   1.120   8.083  -0.528  0.9793 -0.2221  0.0848
 1007MOL0     H32910   0.913   7.838   0.550  0.1718 -0.4464 -0.2343
 1007MOL0     H32911   1.043   7.669   0.628 -0.0774  2.1067 -0.3571
 1007MOL0     H32912   1.175   7.482   0.939  0.4163 -1.1096 -0.8388
 1007MOL0     H32913   1.352   7.407   1.087  1.3295  0.0114 -4.7998
 1007MOL0     H32914   1.481   7.306   1.256  4.5288  0.0332  0.4933
 1007MOL0     H32915   1.518   7.218   1.114  1.2006  2.6359  1.3545
 1007MOL0     H32916   1.526   7.104   1.395  1.7825 -0.2608  1.3059
 1007MOL0     H32917   1.589   7.022   1.265 -3.9586 -0.4374  0.2246
 1007MOL0     H32918   1.707   7.270   1.401  2.7031 -0.6700  0.8364
 1007MOL0     H32919   1.765   7.230   1.244 -0.9659  1.7871  0.5630
 1007MOL0     H32920   1.901   7.157   1.414  0.6152  0.3826  1.0805
 1007MOL0     H32921   1.780   7.050   1.485 -1.3992 -0.8161 -1.0693
 1007MOL0     H32922   1.906   6.784   1.203 -2.0106  0.1051 -0.1436
 1007MOL0     H32923   1.122   7.052   1.188 -0.7018 -0.9165 -0.7375
 1007MOL0     H32924   0.936   7.139   1.013  0.8198 -1.1084 -1.9467
 1008MOL0     O32925   2.332   9.436   3.285  0.5165 -0.6566 -0.6000
 1008MOL0     C32926   2.305   9.411   3.408  0.0189 -0.1251 -0.5621
 1008MOL0     O32927   2.335   9.493   3.518  0.3507  0.6178  0.4741
 1008MOL0     C32928   2.419   9.611   3.493  1.0132  0.7809 -0.1446
 1008MOL0     C32929   2.384   9.730   3.547  0.3857 -0.2547 -0.0174
 1008MOL0     C32930   2.458   9.847   3.531  0.0468  0.6016 -0.2297
 1008MOL0     C32931   2.573   9.849   3.442  0.2139  0.5673 -0.7288
 1008MOL0     O32932   2.632   9.975   3.435 -0.2478 -0.6550  0.2594
 1008MOL0     C32933   2.739   9.978   3.334 -0.1219 -0.4612  0.0448
 1008MOL0     C32934   2.784  10.125   3.312  0.2658  0.9221 -0.4685
 1008MOL0     C32935   2.920  10.129   3.253 -0.3667 -0.6812  0.4695
 1008MOL0     C32936   2.953  10.255   3.181  0.3287  0.1504  0.7201
 1008MOL0     C32937   3.097  10.235   3.119 -0.0820  0.2548  0.2517
 1008MOL0     C32938   3.141  10.359   3.037 -0.2012  0.8072 -0.2445
 1008MOL0     C32939   3.291  10.354   3.013 -0.6405  0.6165  0.5418
 1008MOL0     C32940   3.325  10.486   2.926 -0.0294  0.7447 -0.1369
 1008MOL0     N32941   3.463  10.508   2.901 -0.6797 -0.5598  0.1014
 1008MOL0     C32942   3.558  10.520   3.000  0.9764  0.2126  0.5014
 1008MOL0     C32943   3.669  10.569   2.938 -0.9148 -0.0898 -0.1477
 1008MOL0     C32944   3.806  10.593   3.002 -0.6790 -0.5609 -0.3000
 1008MOL0     C32945   3.887  10.471   3.042 -0.5785 -0.2348  0.3607
 1008MOL0     C32946   4.016  10.446   2.964  0.4524 -1.4835  0.5712
 1008MOL0     C32947   3.984  10.416   2.821  0.3534  0.8755  0.1192
 1008MOL0     O32948   4.103  10.412   2.744 -0.7428  0.4016  0.1792
 1008MOL0     C32949   4.183  10.294   2.746 -0.1005 -0.2800 -0.3081
 1008MOL0     C32950   4.179  10.186   2.840 -0.6843 -0.2714 -0.2839
 1008MOL0     C32951   4.272  10.083   2.837  0.4033 -0.2168  0.7861
 1008MOL0     C32952   4.366  10.081   2.728 -0.6806 -0.7853  0.6554
 1008MOL0     C32953   4.464   9.973   2.729 -0.8722  0.5524 -0.1524
 1008MOL0     O32954   4.561   9.973   2.629  0.1206 -0.5427 -0.5999
 1008MOL0     C32955   4.666   9.879   2.627  0.6068 -0.8143 -0.1790
 1008MOL0     C32956   4.770   9.917   2.538 -1.2320  0.1410 -0.3274
 1008MOL0     C32957   4.895   9.838   2.541  0.6157 -1.0869  0.9181
 1008MOL0     C32958   4.895   9.712   2.606  0.2986 -0.1510  0.5351
 1008MOL0     O32959   4.985   9.619   2.573 -0.7420  0.2654  0.3801
 1008MOL0     C32960   5.123   9.666   2.526  1.3069 -0.4454 -1.3946
 1008MOL0     C32961   5.223   9.553   2.563  0.7626  1.7650  0.6327
 1008MOL0     C32962   5.363   9.588   2.518  0.8758  0.4695 -0.8364
 1008MOL0     C32963   5.451   9.465   2.538 -0.7353 -0.2511 -0.3922
 1008MOL0     C32964   5.572   9.509   2.446 -0.2730  0.2939 -1.0109
 1008MOL0     C32965   5.686   9.418   2.477  0.4238  0.3634 -0.2789
 1008MOL0     C32966   5.671   9.277   2.431  0.2382  0.3435 -0.8196
 1008MOL0     C32967   5.789   9.187   2.461 -0.2670  0.1608 -0.1771
 1008MOL0    Cl32968   5.952   9.269   2.407 -0.1234  0.2860  0.0821
 1008MOL0     C32969   4.784   9.672   2.681  0.7470  0.8528 -0.1624
 1008MOL0     C32970   4.674   9.751   2.691  0.6989 -0.6312 -0.4373
 1008MOL0     O32971   4.464   9.887   2.819  0.2431 -0.0263  0.1260
 1008MOL0     C32972   4.374  10.190   2.640 -0.0630  0.4847 -0.7387
 1008MOL0     C32973   4.282  10.293   2.644 -0.5589 -0.2344  0.2128
 1008MOL0     N32974   3.646  10.570   2.804  0.1423  0.3696  0.0714
 1008MOL0     N32975   3.519  10.543   2.786  0.1307 -0.1078  0.9555
 1008MOL0     C32976   2.617   9.716   3.402  0.1257  0.8118 -0.4968
 1008MOL0     C32977   2.539   9.597   3.424 -0.2061 -1.6974  0.5998
 1008MOL0     C32978   2.213   9.292   3.427  0.2439  0.0221 -1.0954
 1008MOL0     C32979   2.194   9.241   3.563 -0.4308  0.2532  0.0910
 1008MOL0     C32980   2.095   9.147   3.591  0.8474 -0.0725 -0.5614
 1008MOL0     C32981   2.014   9.093   3.488 -0.0253 -0.0775  1.4259
 1008MOL0     O32982   1.926   8.993   3.519  0.9674  1.0643  0.1385
 1008MOL0     C32983   1.878   8.896   3.427 -0.2282 -0.2240 -0.1220
 1008MOL0     C32984   1.966   8.787   3.380 -0.1165  0.2878 -0.3675
 1008MOL0     C32985   2.066   8.802   3.262 -0.0076 -0.3114 -0.3127
 1008MOL0     C32986   2.015   8.763   3.128 -0.1667  0.2353  0.1283
 1008MOL0     C32987   1.894   8.849   3.102  0.2343 -0.1445  0.2374
 1008MOL0     C32988   1.801   8.920   3.079  0.6263  0.1532  0.5762
 1008MOL0     C32989   2.033   9.147   3.359  0.4265 -0.3495 -1.0423
 1008MOL0     C32990   2.133   9.236   3.322 -0.2684 -1.2867 -0.1702
 1008MOL0     H32991   2.286   9.733   3.593  0.6343  1.9158  0.4564
 1008MOL0     H32992   2.426   9.943   3.569 -0.5069  0.7883 -1.1406
 1008MOL0     H32993   2.704   9.940   3.237 -1.4762  0.6156  0.0868
 1008MOL0     H32994   2.819   9.911   3.367 -1.0368 -2.7475 -2.0261
 1008MOL0     H32995   2.786  10.164   3.414  0.0321 -2.1595  0.8311
 1008MOL0     H32996   2.715  10.176   3.244  1.5761  3.6822  0.1456
 1008MOL0     H32997   2.947  10.044   3.191  0.7652 -0.8706  1.1891
 1008MOL0     H32998   2.988  10.122   3.339 -0.5595  2.8510  1.0515
 1008MOL0     H32999   2.886  10.279   3.098  1.1451  2.1190  0.5753
 1008MOL0     H33000   2.950  10.339   3.251  1.9665  0.8139  0.0417
 1008MOL0     H33001   3.093  10.145   3.058 -0.4485  1.1371 -1.0653
 1008MOL0     H33002   3.169  10.218   3.200 -2.4182  1.1179  2.6386
 1008MOL0     H33003   3.119  10.452   3.091 -3.1405  1.9205 -3.0432
 1008MOL0     H33004   3.080  10.369   2.947 -3.7209 -0.4051  1.8249
 1008MOL0     H33005   3.343  10.350   3.109  0.7511 -0.1320 -0.2140
 1008MOL0     H33006   3.329  10.276   2.947 -2.1950  2.5773 -2.9369
 1008MOL0     H33007   3.283  10.579   2.965 -0.7833  0.2499  0.2569
 1008MOL0     H33008   3.274  10.471   2.831 -2.7452  0.8068  1.2034
 1008MOL0     H33009   3.547  10.491   3.104 -1.5616 -3.5269 -0.6182
 1008MOL0     H33010   3.795  10.641   3.100 -0.9951 -0.0260 -0.5961
 1008MOL0     H33011   3.866  10.653   2.934 -2.6322  4.1197  1.6996
 1008MOL0     H33012   3.819  10.386   3.032 -0.7108 -0.0113 -0.6809
 1008MOL0     H33013   3.917  10.487   3.146 -3.2474 -1.4423  1.3989
 1008MOL0     H33014   4.073  10.538   2.981 -0.6930 -0.7466  0.5659
 1008MOL0     H33015   4.061  10.360   3.014  0.7017 -1.4025  0.4856
 1008MOL0     H33016   3.910  10.484   2.777 -2.3148 -1.9525 -0.0518
 1008MOL0     H33017   3.935  10.318   2.822 -0.2232  1.1497  1.0153
 1008MOL0     H33018   4.112  10.184   2.925  2.0355 -1.7895  2.0062
 1008MOL0     H33019   4.280  10.002   2.909 -2.0592 -2.5989 -1.3972
 1008MOL0     H33020   4.766  10.010   2.483 -1.0027 -1.2422 -2.8105
 1008MOL0     H33021   4.974   9.864   2.472 -0.5805  1.6783  0.4543
 1008MOL0     H33022   5.158   9.763   2.561  0.3711 -0.8046  0.6936
 1008MOL0     H33023   5.123   9.658   2.417  3.1713  1.6008 -1.6184
 1008MOL0     H33024   5.189   9.456   2.524  1.6314  1.0304  1.6239
 1008MOL0     H33025   5.231   9.540   2.672  0.7475  2.8750  0.7758
 1008MOL0     H33026   5.416   9.670   2.566  2.3325 -1.0172  0.2419
 1008MOL0     H33027   5.363   9.612   2.411 -0.6060 -0.1833 -1.0154
 1008MOL0     H33028   5.470   9.464   2.646 -2.4629 -0.8159 -0.0533
 1008MOL0     H33029   5.414   9.365   2.512  1.8380 -1.7100  1.0991
 1008MOL0     H33030   5.604   9.612   2.466  2.5911 -0.8745  1.3092
 1008MOL0     H33031   5.544   9.497   2.341 -1.4558 -2.9379 -0.4306
 1008MOL0     H33032   5.700   9.421   2.586 -0.8691 -1.0565 -0.0424
 1008MOL0     H33033   5.777   9.456   2.429  0.7586 -0.1845 -0.0878
 1008MOL0     H33034   5.579   9.230   2.469 -0.4416  0.9830 -1.6336
 1008MOL0     H33035   5.660   9.281   2.322 -0.2604 -2.0855 -0.9259
 1008MOL0     H33036   5.778   9.100   2.395  2.9864 -1.2616  0.9651
 1008MOL0     H33037   5.788   9.156   2.566 -0.1500  1.9282  0.3866
 1008MOL0     H33038   4.770   9.570   2.717  2.5454  0.2962 -0.9259
 1008MOL0     H33039   4.600   9.720   2.764  0.0975 -0.9938 -1.1840
 1008MOL0     H33040   4.441  10.184   2.555  0.5551  0.2835 -0.2430
 1008MOL0     H33041   4.287  10.386   2.589 -1.9382 -0.1147  0.2592
 1008MOL0     H33042   2.714   9.712   3.355 -0.7266 -0.3112 -2.2806
 1008MOL0     H33043   2.570   9.507   3.371 -1.2837 -3.0525  2.1654
 1008MOL0     H33044   2.231   9.298   3.648 -0.8847 -0.3592  0.7093
 1008MOL0     H33045   2.094   9.116   3.695 -1.1318  0.7586 -0.3016
 1008MOL0     H33046   1.838   8.952   3.342  2.4221  0.6452 -0.8691
 1008MOL0     H33047   1.797   8.838   3.473  0.1549 -0.0725  0.7663
 1008MOL0     H33048   2.027   8.744   3.460  0.5203 -0.2238 -1.1091
 1008MOL0     H33049   1.896   8.707   3.357  1.3080 -0.9232 -0.6976
 1008MOL0     H33050   2.155   8.745   3.288 -0.5359 -0.4984  1.1541
 1008MOL0     H33051   2.099   8.905   3.249  1.1474 -0.8465 -1.9330
 1008MOL0     H33052   2.083   8.789   3.047  0.9723  2.3458  1.6564
 1008MOL0     H33053   2.002   8.655   3.123  3.5863 -0.2722 -0.8879
 1008MOL0     H33054   1.729   8.997   3.060 -1.3225 -1.9472 -1.2380
 1008MOL0     H33055   1.975   9.099   3.280 -0.6449 -1.4331  0.3545
 1008MOL0     H33056   2.145   9.267   3.218 -2.1807  0.6094  0.1050
 1009MOL0     O33057   7.286   1.930   3.907  0.1590  0.5792 -0.6043
 1009MOL0     C33058   7.370   2.005   3.951  0.0022  0.1512  0.8322
 1009MOL0     O33059   7.345   2.111   4.036 -0.3161  0.0896  0.3369
 1009MOL0     C33060   7.218   2.163   4.042  0.0245 -0.1298 -0.0276
 1009MOL0     C33061   7.099   2.097   4.079 -0.3103  2.3897 -0.3486
 1009MOL0     C33062   6.976   2.164   4.106  0.4346  0.1176  0.2968
 1009MOL0     C33063   6.968   2.299   4.077 -1.2235  0.9211 -0.4128
 1009MOL0     O33064   6.861   2.367   4.121 -0.3930  0.1819 -0.9789
 1009MOL0     C33065   6.764   2.387   4.016 -0.7629 -0.3889  0.2578
 1009MOL0     C33066   6.643   2.456   4.072  0.1777  0.6397  0.0088
 1009MOL0     C33067   6.543   2.466   3.949  0.2074 -0.1071 -0.4521
 1009MOL0     C33068   6.416   2.576   3.963 -0.6787  0.2274  1.2065
 1009MOL0     C33069   6.314   2.550   3.856  0.1405  0.8902 -0.4348
 1009MOL0     C33070   6.377   2.579   3.716  0.4749  0.4153 -0.5017
 1009MOL0     C33071   6.278   2.541   3.600  0.8556  0.0484 -0.3395
 1009MOL0     C33072   6.151   2.625   3.599  0.2731 -0.2842 -0.3255
 1009MOL0     N33073   6.178   2.763   3.570  0.2735 -0.1033 -0.4309
 1009MOL0     C33074   6.208   2.812   3.445 -0.2687  0.3130  0.5840
 1009MOL0     C33075   6.207   2.949   3.456 -0.0294  0.4248 -0.2437
 1009MOL0     C33076   6.252   3.039   3.341  0.0557  0.2077  0.6777
 1009MOL0     C33077   6.176   3.172   3.335  0.8073 -0.0159  0.3625
 1009MOL0     C33078   6.131   3.194   3.186  0.0826  0.3924  0.5390
 1009MOL0     C33079   6.067   3.329   3.173  0.9087  0.5736  0.5353
 1009MOL0     O33080   6.137   3.440   3.214  0.1027  0.3297 -0.2604
 1009MOL0     C33081   6.074   3.542   3.280  0.5455  0.1875  0.4428
 1009MOL0     C33082   6.156   3.661   3.280  0.2236 -0.1265 -0.4999
 1009MOL0     C33083   6.109   3.767   3.359 -0.4694 -0.5295  1.3370
 1009MOL0     C33084   5.980   3.776   3.417 -0.3722 -1.1387  0.0410
 1009MOL0     C33085   5.907   3.905   3.446 -0.3049 -0.1550 -0.0559
 1009MOL0     O33086   5.968   4.015   3.406 -0.1477  0.7384  0.5085
 1009MOL0     C33087   5.913   4.140   3.427 -0.1001 -0.2433  0.0812
 1009MOL0     C33088   5.793   4.183   3.371 -0.8143  0.7468 -0.0563
 1009MOL0     C33089   5.749   4.312   3.412 -0.1505 -0.7861 -0.6949
 1009MOL0     C33090   5.815   4.394   3.512  0.8237  0.0846 -0.5383
 1009MOL0     O33091   5.770   4.513   3.563  0.9378  0.0551  0.3318
 1009MOL0     C33092   5.642   4.559   3.519  0.2223  0.4332  0.4047
 1009MOL0     C33093   5.609   4.684   3.602  0.3079  0.3920  0.0685
 1009MOL0     C33094   5.453   4.710   3.606  0.0137  0.7071 -0.1613
 1009MOL0     C33095   5.366   4.621   3.699  0.2264 -0.6783 -0.2721
 1009MOL0     C33096   5.386   4.628   3.858 -0.7640 -0.2787 -0.3591
 1009MOL0     C33097   5.289   4.527   3.931  0.0907 -0.1653 -0.9551
 1009MOL0     C33098   5.319   4.541   4.077 -0.9584 -0.5633 -0.0761
 1009MOL0     C33099   5.234   4.460   4.187  0.7312  1.0432  0.3370
 1009MOL0    Cl33100   5.068   4.526   4.168  0.1772  0.2022 -0.2817
 1009MOL0     C33101   5.921   4.333   3.578  0.6740  0.2768 -0.0715
 1009MOL0     C33102   5.984   4.217   3.525 -0.2761 -0.0505 -0.1966
 1009MOL0     O33103   5.800   3.900   3.506  0.1242  0.2596  0.4682
 1009MOL0     C33104   5.902   3.656   3.407  1.1976 -0.1159 -0.1698
 1009MOL0     C33105   5.944   3.539   3.347 -0.8020  0.0182  0.9674
 1009MOL0     N33106   6.153   2.977   3.584 -1.2481 -0.2397 -0.1250
 1009MOL0     N33107   6.149   2.866   3.647 -0.9955 -0.4937 -0.1798
 1009MOL0     C33108   7.083   2.367   4.029 -0.7019 -0.1218 -0.3486
 1009MOL0     C33109   7.203   2.304   4.026  0.1766 -0.5076 -0.8201
 1009MOL0     C33110   7.509   2.007   3.886 -0.0288  0.0202 -0.5351
 1009MOL0     C33111   7.586   2.136   3.879  0.0188  0.0106 -0.7700
 1009MOL0     C33112   7.727   2.124   3.843  0.3083 -1.3151 -1.0417
 1009MOL0     C33113   7.780   2.001   3.805 -1.1884 -0.0819  0.5784
 1009MOL0     O33114   7.914   1.979   3.765  0.4323 -0.6634  0.3883
 1009MOL0     C33115   8.002   2.094   3.795  0.7495  0.4668 -0.0371
 1009MOL0     C33116   8.140   2.043   3.747  0.0377 -0.2785  0.4734
 1009MOL0     C33117   8.247   2.102   3.833  0.6756 -0.2130  0.5098
 1009MOL0     C33118   8.377   2.076   3.749  0.3213 -0.3172  0.0289
 1009MOL0     C33119   8.481   2.163   3.797 -0.0233  0.2363 -0.2469
 1009MOL0     C33120   8.572   2.243   3.810 -0.7926  0.6888 -0.2908
 1009MOL0     C33121   7.698   1.885   3.804  0.0646 -0.3070 -0.3144
 1009MOL0     C33122   7.567   1.883   3.843 -0.6970 -0.0671  0.2277
 1009MOL0     H33123   7.101   1.996   4.118  0.0122  2.1867 -0.8845
 1009MOL0     H33124   6.884   2.124   4.150 -2.3122  5.4415  0.2449
 1009MOL0     H33125   6.745   2.294   3.962  1.6680  0.2665 -1.9343
 1009MOL0     H33126   6.825   2.446   3.948  0.2394 -2.1472 -0.4413
 1009MOL0     H33127   6.662   2.551   4.124 -2.6864  0.5226  1.5303
 1009MOL0     H33128   6.598   2.394   4.151  1.8726 -0.8685 -0.1582
 1009MOL0     H33129   6.514   2.361   3.935 -1.6070  0.2261  0.4652
 1009MOL0     H33130   6.604   2.502   3.866  0.1982  1.2765  0.1061
 1009MOL0     H33131   6.367   2.575   4.061  0.8686  1.0182  2.0254
 1009MOL0     H33132   6.451   2.679   3.954 -0.6486  0.0371 -1.6138
 1009MOL0     H33133   6.215   2.594   3.875  0.5367  1.4571  0.4116
 1009MOL0     H33134   6.306   2.441   3.846  1.4069  1.0273 -6.1764
 1009MOL0     H33135   6.469   2.520   3.715 -1.9029 -3.7029  0.7219
 1009MOL0     H33136   6.399   2.687   3.715 -1.0478  0.7505 -0.1220
 1009MOL0     H33137   6.345   2.558   3.516  1.1094  1.1789  0.0735
 1009MOL0     H33138   6.240   2.438   3.606 -6.6298  2.3086  1.8523
 1009MOL0     H33139   6.090   2.608   3.687 -0.3302  0.7425 -0.5246
 1009MOL0     H33140   6.086   2.606   3.513  1.1832  1.3112 -1.4249
 1009MOL0     H33141   6.229   2.754   3.356  0.0698 -0.2539  1.0275
 1009MOL0     H33142   6.236   2.975   3.254  2.0361 -2.1316  1.9158
 1009MOL0     H33143   6.360   3.057   3.339 -0.0879  1.1424 -1.1926
 1009MOL0     H33144   6.234   3.255   3.377  0.0771  0.7897 -0.1867
 1009MOL0     H33145   6.088   3.162   3.400  1.8661 -1.2032  1.6945
 1009MOL0     H33146   6.208   3.188   3.108 -1.0827  1.3095 -0.7160
 1009MOL0     H33147   6.060   3.119   3.150 -2.0589  1.6084  1.9975
 1009MOL0     H33148   5.970   3.325   3.224  2.4111 -1.2176  3.5493
 1009MOL0     H33149   6.039   3.348   3.069 -0.4596 -0.7588  0.6115
 1009MOL0     H33150   6.250   3.672   3.227  0.9733 -0.3672  0.7309
 1009MOL0     H33151   6.174   3.852   3.378 -0.5012 -0.6776  2.1550
 1009MOL0     H33152   5.753   4.121   3.292  2.2611 -0.0944 -1.1269
 1009MOL0     H33153   5.661   4.358   3.368  0.4791  0.7614 -0.4024
 1009MOL0     H33154   5.567   4.479   3.523 -0.4373  1.0101 -0.3779
 1009MOL0     H33155   5.653   4.574   3.412 -0.3567 -0.3324  0.2310
 1009MOL0     H33156   5.664   4.768   3.558  1.3676 -0.1041  0.4154
 1009MOL0     H33157   5.650   4.679   3.703 -1.8009 -1.6777  0.9187
 1009MOL0     H33158   5.423   4.730   3.503  1.0164  3.1293 -0.0562
 1009MOL0     H33159   5.444   4.814   3.638 -0.1306  0.5290  0.3908
 1009MOL0     H33160   5.263   4.658   3.686  0.7147  0.8996  0.1443
 1009MOL0     H33161   5.364   4.518   3.661 -0.1350 -0.2895 -1.3593
 1009MOL0     H33162   5.372   4.734   3.882  1.2953  0.4356 -2.0623
 1009MOL0     H33163   5.490   4.619   3.891 -0.6800  1.4836 -0.0362
 1009MOL0     H33164   5.308   4.424   3.899  1.2404  0.5127 -2.6125
 1009MOL0     H33165   5.184   4.553   3.912  1.1855  3.5599 -3.0258
 1009MOL0     H33166   5.425   4.515   4.087 -0.4541  0.2515 -2.5785
 1009MOL0     H33167   5.304   4.645   4.105 -2.0579  0.2013 -3.1695
 1009MOL0     H33168   5.259   4.463   4.294 -1.1610  2.2813  0.7917
 1009MOL0     H33169   5.229   4.355   4.157  0.8654  0.7753  1.2028
 1009MOL0     H33170   5.969   4.381   3.663 -0.1761  0.5616  0.2575
 1009MOL0     H33171   6.080   4.184   3.561  0.1486 -0.5921 -1.7396
 1009MOL0     H33172   5.803   3.650   3.450 -0.3700 -0.1143 -3.4744
 1009MOL0     H33173   5.880   3.453   3.367 -0.0560 -0.5820  0.8058
 1009MOL0     H33174   7.069   2.470   4.000  1.4114 -0.5571 -3.4433
 1009MOL0     H33175   7.290   2.368   4.023 -1.6393  2.0474 -1.9829
 1009MOL0     H33176   7.541   2.226   3.918 -2.0400 -0.2812 -2.2817
 1009MOL0     H33177   7.790   2.208   3.870  1.1549 -2.5900  1.3412
 1009MOL0     H33178   8.010   2.125   3.900  2.3421 -2.6431  0.8954
 1009MOL0     H33179   7.972   2.183   3.740  1.0956  1.3910  1.2192
 1009MOL0     H33180   8.134   1.934   3.753 -0.8469 -0.3384 -0.9281
 1009MOL0     H33181   8.139   2.076   3.642  0.6729 -3.5048 -0.6690
 1009MOL0     H33182   8.248   2.046   3.927 -1.7799 -3.0608 -0.9764
 1009MOL0     H33183   8.224   2.207   3.851  1.7607 -0.1248  1.4895
 1009MOL0     H33184   8.394   1.969   3.763 -1.7517 -0.5982  0.7385
 1009MOL0     H33185   8.358   2.106   3.646  2.4630  1.8371  0.1651
 1009MOL0     H33186   8.658   2.305   3.824 -0.2667 -0.4405  1.8152
 1009MOL0     H33187   7.752   1.794   3.782  0.0427 -0.5066  0.4243
 1009MOL0     H33188   7.515   1.795   3.880 -1.2512  0.2563  0.2308
 1010MOL0     O33189   3.607   3.320   2.003 -0.4009 -0.0431 -0.3254
 1010MOL0     C33190   3.717   3.309   2.055  1.0000 -0.2334 -1.0299
 1010MOL0     O33191   3.840   3.331   1.987  0.6810 -0.8843 -0.6071
 1010MOL0     C33192   3.834   3.370   1.854 -0.2176 -0.3745  0.9296
 1010MOL0     C33193   3.934   3.315   1.763 -0.4405 -0.1471  0.1494
 1010MOL0     C33194   3.931   3.348   1.630 -0.4042 -1.9245 -0.1271
 1010MOL0     C33195   3.847   3.447   1.578  0.9216  0.4808 -0.3359
 1010MOL0     O33196   3.856   3.479   1.443  0.9282 -0.1020 -0.5206
 1010MOL0     C33197   3.763   3.575   1.395  0.1812  0.3341 -0.3196
 1010MOL0     C33198   3.799   3.622   1.256  0.6182 -0.0816  0.2191
 1010MOL0     C33199   3.933   3.705   1.245  0.1365  0.1210  0.1922
 1010MOL0     C33200   3.958   3.810   1.359  0.0493 -0.4696  0.2018
 1010MOL0     C33201   4.076   3.904   1.323 -0.2151  0.6341 -0.1308
 1010MOL0     C33202   4.213   3.834   1.302 -0.2399  0.1895 -0.4153
 1010MOL0     C33203   4.327   3.943   1.286  0.2576 -0.3943  0.2165
 1010MOL0     C33204   4.464   3.869   1.265  0.7489  0.2657 -0.1249
 1010MOL0     N33205   4.575   3.949   1.229 -0.6829 -0.6139  0.4070
 1010MOL0     C33206   4.671   3.996   1.318 -0.9626 -0.0874  0.1149
 1010MOL0     C33207   4.760   4.064   1.243  0.8778  0.1685 -0.2284
 1010MOL0     C33208   4.868   4.145   1.297  0.4058 -0.0676  0.2783
 1010MOL0     C33209   4.829   4.288   1.317 -0.5355  0.2761  0.0146
 1010MOL0     C33210   4.733   4.342   1.219  0.1592  0.5947  0.2982
 1010MOL0     C33211   4.708   4.493   1.238  0.2315 -0.2157 -0.1091
 1010MOL0     O33212   4.598   4.535   1.152 -0.1277 -0.3263 -0.1968
 1010MOL0     C33213   4.472   4.494   1.182 -0.2192 -0.2598 -0.5040
 1010MOL0     C33214   4.438   4.427   1.304  0.2891  0.1673 -1.1617
 1010MOL0     C33215   4.311   4.368   1.303 -0.2508 -1.3361  0.3108
 1010MOL0     C33216   4.226   4.360   1.199  0.3840 -0.5170 -1.1323
 1010MOL0     C33217   4.091   4.306   1.210 -0.2442 -0.2776  0.6822
 1010MOL0     O33218   4.004   4.328   1.105  0.0317  1.1298 -0.4804
 1010MOL0     C33219   3.895   4.254   1.102  1.0069 -0.2750 -0.3225
 1010MOL0     C33220   3.774   4.314   1.140 -0.4274  0.2143  0.2745
 1010MOL0     C33221   3.653   4.239   1.114  0.2996 -0.1039  0.2252
 1010MOL0     C33222   3.654   4.099   1.066 -0.5502 -0.2708 -0.1881
 1010MOL0     O33223   3.541   4.013   1.054 -0.2845 -0.7319  0.1240
 1010MOL0     C33224   3.436   4.039   1.141  0.2825  0.1513 -0.2687
 1010MOL0     C33225   3.345   3.918   1.149  0.2181 -0.5756  0.0054
 1010MOL0     C33226   3.254   3.927   1.027  0.7137 -0.1940  0.2729
 1010MOL0     C33227   3.133   3.827   1.036  0.5121 -0.7188  0.6047
 1010MOL0     C33228   3.011   3.850   0.937  0.0610  1.7237  0.2833
 1010MOL0     C33229   3.040   3.837   0.785 -0.4390 -1.2048 -0.3021
 1010MOL0     C33230   2.911   3.828   0.695  0.6407 -0.2161 -0.2033
 1010MOL0     C33231   2.857   3.969   0.655 -0.0949 -0.2531 -0.1924
 1010MOL0    Cl33232   2.699   3.958   0.570 -0.5646 -0.3106 -0.1459
 1010MOL0     C33233   3.782   4.050   1.036  0.9568  0.1461  0.5748
 1010MOL0     C33234   3.904   4.122   1.056  0.6924 -0.5879  0.0782
 1010MOL0     O33235   4.073   4.224   1.299 -0.2237  0.3948  0.0650
 1010MOL0     C33236   4.255   4.430   1.084 -0.2761  0.5367 -0.3078
 1010MOL0     C33237   4.378   4.498   1.073 -0.1099  0.1821  0.1060
 1010MOL0     N33238   4.723   4.051   1.109 -0.5551 -0.5032  0.1852
 1010MOL0     N33239   4.620   3.976   1.097  0.3961  0.7028 -0.1265
 1010MOL0     C33240   3.756   3.507   1.666  0.1185 -0.2617 -0.7802
 1010MOL0     C33241   3.752   3.473   1.803 -0.6788 -0.1724 -0.1191
 1010MOL0     C33242   3.722   3.258   2.198  1.3880  0.4333 -0.4164
 1010MOL0     C33243   3.846   3.214   2.258  0.2769 -0.0869 -0.0096
 1010MOL0     C33244   3.848   3.166   2.382  0.1406 -1.1963 -0.4331
 1010MOL0     C33245   3.733   3.149   2.454  0.6755  0.4510  0.1099
 1010MOL0     O33246   3.728   3.090   2.577 -0.1937 -0.6111 -0.3702
 1010MOL0     C33247   3.843   3.094   2.662 -0.5547 -0.1304  1.0431
 1010MOL0     C33248   3.846   3.229   2.734 -0.7456  0.3660  0.0475
 1010MOL0     C33249   3.944   3.202   2.854  0.0767  0.6711 -0.0786
 1010MOL0     C33250   3.962   3.327   2.943 -0.2868 -0.9232  0.5634
 1010MOL0     C33251   3.978   3.461   2.869 -0.2553  0.3800 -0.5280
 1010MOL0     C33252   3.970   3.556   2.802 -0.5006 -1.0797  0.4523
 1010MOL0     C33253   3.616   3.196   2.410  0.5710 -0.6563  0.3242
 1010MOL0     C33254   3.606   3.248   2.283 -0.1427  0.6614 -0.1665
 1010MOL0     H33255   3.992   3.231   1.800 -0.8914 -1.5601 -2.1375
 1010MOL0     H33256   3.995   3.283   1.570  0.5471  0.6281 -2.0716
 1010MOL0     H33257   3.774   3.655   1.469  2.5456 -0.9128  0.8204
 1010MOL0     H33258   3.662   3.534   1.408 -1.9886  4.6482 -1.6473
 1010MOL0     H33259   3.726   3.700   1.232  2.2467  1.2274 -0.6297
 1010MOL0     H33260   3.812   3.540   1.185  0.9183 -1.7186  2.0779
 1010MOL0     H33261   3.935   3.764   1.153 -0.7710  1.8020  1.1874
 1010MOL0     H33262   4.015   3.633   1.249  0.1370  0.1811  2.8309
 1010MOL0     H33263   3.864   3.866   1.365  0.9151  0.9617  0.8988
 1010MOL0     H33264   3.964   3.761   1.457 -3.5852  0.1704  0.9025
 1010MOL0     H33265   4.099   3.958   1.415 -0.3925  3.0854 -1.4458
 1010MOL0     H33266   4.054   3.966   1.236  0.3382 -3.7657 -3.7803
 1010MOL0     H33267   4.198   3.774   1.211 -3.7556  1.5395 -0.8686
 1010MOL0     H33268   4.236   3.775   1.391 -3.2351  0.1201  0.3942
 1010MOL0     H33269   4.303   4.002   1.197  0.8919 -2.0627 -1.1328
 1010MOL0     H33270   4.331   4.010   1.372  0.5492  1.1154 -0.9389
 1010MOL0     H33271   4.444   3.781   1.202 -0.4849 -2.7037  4.0150
 1010MOL0     H33272   4.497   3.827   1.360  2.0127  1.7752  0.1422
 1010MOL0     H33273   4.668   3.988   1.426  1.6234 -0.6695  0.2008
 1010MOL0     H33274   4.946   4.146   1.221  0.6510  3.4504  0.4366
 1010MOL0     H33275   4.899   4.094   1.389  0.6192  0.4384  0.4889
 1010MOL0     H33276   4.920   4.349   1.325 -0.4273  0.2631 -1.0206
 1010MOL0     H33277   4.781   4.293   1.415 -0.1928 -0.1754  0.2156
 1010MOL0     H33278   4.771   4.326   1.117  0.8074 -1.1998  0.7915
 1010MOL0     H33279   4.641   4.283   1.227  1.0771 -0.8465  0.5444
 1010MOL0     H33280   4.798   4.544   1.201  0.8668  0.3816  2.1105
 1010MOL0     H33281   4.697   4.526   1.341 -1.5938  0.3012 -0.4404
 1010MOL0     H33282   4.501   4.438   1.391  0.4860  0.1694 -1.3024
 1010MOL0     H33283   4.291   4.304   1.388  1.8715 -1.5611  0.7084
 1010MOL0     H33284   3.773   4.417   1.175  1.9763  1.1270 -1.9913
 1010MOL0     H33285   3.561   4.289   1.143  1.7647  3.1590 -0.3469
 1010MOL0     H33286   3.370   4.123   1.117 -1.4514 -1.7700 -2.7623
 1010MOL0     H33287   3.488   4.054   1.236 -1.2848 -0.3264  0.7132
 1010MOL0     H33288   3.282   3.929   1.238  1.6810  1.2841  0.8769
 1010MOL0     H33289   3.399   3.824   1.144  0.1148 -0.5849 -1.1531
 1010MOL0     H33290   3.310   3.890   0.941 -0.1863 -0.2128 -0.3238
 1010MOL0     H33291   3.227   4.032   1.014  3.4841  1.0662  3.2814
 1010MOL0     H33292   3.180   3.730   1.017  1.8536 -0.0448  0.3550
 1010MOL0     H33293   3.104   3.826   1.142  2.2763  0.9375  1.1524
 1010MOL0     H33294   2.970   3.950   0.954  2.4307  2.8283 -0.1217
 1010MOL0     H33295   2.929   3.784   0.969  0.0733  2.1152  1.1249
 1010MOL0     H33296   3.093   3.744   0.761  0.2926 -0.7340 -0.5496
 1010MOL0     H33297   3.105   3.914   0.743 -1.5909 -1.0783 -1.9281
 1010MOL0     H33298   2.947   3.772   0.608  1.1161  2.0922 -1.5785
 1010MOL0     H33299   2.831   3.773   0.745  1.8174  0.5645  2.6987
 1010MOL0     H33300   2.930   4.025   0.595 -1.3822  1.5044 -0.2042
 1010MOL0     H33301   2.841   4.028   0.746 -3.8854 -3.3710  1.4649
 1010MOL0     H33302   3.792   3.949   0.998  1.8198 -0.0830  1.3857
 1010MOL0     H33303   4.004   4.089   1.033  1.0509 -0.3064  1.1676
 1010MOL0     H33304   4.190   4.415   0.998  0.0800 -0.7605 -0.3742
 1010MOL0     H33305   4.407   4.533   0.974  0.5420  1.8662  0.8449
 1010MOL0     H33306   3.686   3.584   1.632 -0.0205  0.8083  1.7481
 1010MOL0     H33307   3.691   3.531   1.872  0.6106  2.0599 -0.7614
 1010MOL0     H33308   3.936   3.211   2.196  1.2159 -3.8080  1.2633
 1010MOL0     H33309   3.946   3.140   2.422 -0.3045 -1.6054  0.4298
 1010MOL0     H33310   3.941   3.080   2.614 -0.5129 -1.6672  1.5039
 1010MOL0     H33311   3.839   3.015   2.738 -0.1183  0.5441  1.7826
 1010MOL0     H33312   3.887   3.297   2.659 -0.7900  0.8187  0.4349
 1010MOL0     H33313   3.749   3.264   2.771 -1.0277  1.4796 -1.6344
 1010MOL0     H33314   4.047   3.179   2.823  1.1889  2.3320  2.1004
 1010MOL0     H33315   3.919   3.119   2.920  5.8307  0.5115  2.4677
 1010MOL0     H33316   3.877   3.334   3.011 -0.3230 -0.5283  0.4829
 1010MOL0     H33317   4.045   3.307   3.010  2.7803 -0.8700 -2.9048
 1010MOL0     H33318   3.961   3.645   2.743  2.1739  0.0676  1.6275
 1010MOL0     H33319   3.526   3.187   2.470  1.3889 -0.7966  1.5665
 1010MOL0     H33320   3.512   3.295   2.257 -2.0205 -2.7803 -0.1920
 1011MOL0     O33321   4.674   1.755   0.923 -0.2188 -0.0177 -0.1655
 1011MOL0     C33322   4.645   1.869   0.959 -1.0194  0.4310  0.1101
 1011MOL0     O33323   4.536   1.904   1.049 -1.1792 -0.2948  0.8546
 1011MOL0     C33324   4.462   1.790   1.086  0.1621  0.1824 -0.5832
 1011MOL0     C33325   4.421   1.789   1.219 -0.5143 -0.6005 -0.1161
 1011MOL0     C33326   4.335   1.701   1.282 -0.1682 -0.7032 -1.1179
 1011MOL0     C33327   4.302   1.584   1.205 -0.1469  0.2784  0.2839
 1011MOL0     O33328   4.226   1.476   1.253  0.1436  0.2713  0.5555
 1011MOL0     C33329   4.179   1.470   1.384  0.0524  0.1646  0.2405
 1011MOL0     C33330   4.096   1.344   1.419 -0.0177 -1.0589 -0.5781
 1011MOL0     C33331   4.098   1.326   1.573 -0.2867  0.1342  0.5585
 1011MOL0     C33332   4.000   1.216   1.599 -0.1453  0.8186  0.1156
 1011MOL0     C33333   3.963   1.209   1.749  0.0347 -0.5539  0.6312
 1011MOL0     C33334   4.079   1.166   1.832  0.1177 -0.0778 -0.3905
 1011MOL0     C33335   4.030   1.070   1.949 -0.1602 -0.6645  0.1273
 1011MOL0     C33336   3.933   1.131   2.051 -0.7429 -0.0823  0.5203
 1011MOL0     N33337   3.811   1.060   2.061  0.5318 -0.2476  0.1704
 1011MOL0     C33338   3.766   0.960   2.146 -0.1480  0.2096  0.4088
 1011MOL0     C33339   3.637   0.954   2.141  0.7640 -0.1103  0.1773
 1011MOL0     C33340   3.551   0.854   2.213  0.1254  0.2654  0.1834
 1011MOL0     C33341   3.577   0.725   2.119 -0.0597  0.1000 -0.6786
 1011MOL0     C33342   3.551   0.598   2.201 -0.1918 -1.0589  0.5706
 1011MOL0     C33343   3.621   0.481   2.136  0.4781 -0.2888 -0.3612
 1011MOL0     O33344   3.756   0.487   2.134 -0.0231  0.5270  0.6090
 1011MOL0     C33345   3.819   0.457   2.245  0.0830  0.9695  0.4678
 1011MOL0     C33346   3.919   0.544   2.285 -0.6572  1.3782  0.3036
 1011MOL0     C33347   4.017   0.506   2.382 -0.4163  0.1701  0.1182
 1011MOL0     C33348   3.995   0.379   2.443  0.3544 -0.3455 -0.1258
 1011MOL0     C33349   4.101   0.327   2.538  0.8248 -0.7646  0.0543
 1011MOL0     O33350   4.163   0.414   2.620 -0.8156 -0.6759  0.3670
 1011MOL0     C33351   4.279   0.375   2.687  0.0595 -0.7332  0.2470
 1011MOL0     C33352   4.394   0.395   2.620  0.2832  0.9603 -0.2442
 1011MOL0     C33353   4.513   0.374   2.688 -0.0058 -0.0782  0.2865
 1011MOL0     C33354   4.515   0.337   2.822  0.6744  0.2410  0.0646
 1011MOL0     O33355   4.623   0.331   2.889  0.2043  0.3627 -0.4688
 1011MOL0     C33356   4.665   0.211   2.939 -1.0294  1.2293 -0.2759
 1011MOL0     C33357   4.817   0.204   2.963 -0.3777  0.3183 -0.0165
 1011MOL0     C33358   4.894   0.176   2.832  0.1095  1.0348  0.1712
 1011MOL0     C33359   4.848   0.044   2.765 -0.3117  0.1192 -0.0156
 1011MOL0     C33360   4.924   0.006   2.637  0.1547  0.7662  0.6733
 1011MOL0     C33361   5.081   0.010   2.642  0.4792  0.2374 -0.0805
 1011MOL0     C33362   5.131  -0.066   2.514  0.3784  0.4228  0.3687
 1011MOL0     C33363   5.272  -0.103   2.513 -1.4793  0.2680 -0.0922
 1011MOL0    Cl33364   5.308  -0.226   2.387 -0.1285 -0.0679 -0.0352
 1011MOL0     C33365   4.396   0.312   2.887 -0.4955  0.3941 -0.2063
 1011MOL0     C33366   4.274   0.336   2.826  0.4878  0.3650 -0.1421
 1011MOL0     O33367   4.106   0.206   2.548 -0.8410 -0.5347 -0.3033
 1011MOL0     C33368   3.895   0.290   2.399 -0.8805  0.7727 -0.1961
 1011MOL0     C33369   3.805   0.334   2.308  0.5708  0.1465  0.5503
 1011MOL0     N33370   3.598   1.056   2.044 -0.9689  0.3746  0.1931
 1011MOL0     N33371   3.708   1.108   1.989 -0.3321  0.3700 -0.5455
 1011MOL0     C33372   4.340   1.581   1.068  0.0248  0.2461  0.2995
 1011MOL0     C33373   4.416   1.686   1.010  0.3041  0.0777  0.0418
 1011MOL0     C33374   4.737   1.973   0.919  0.2816  0.6656  0.1617
 1011MOL0     C33375   4.844   1.940   0.829 -0.2028 -0.3310 -0.4086
 1011MOL0     C33376   4.929   2.042   0.779 -0.3118  0.0091  0.1753
 1011MOL0     C33377   4.910   2.174   0.828 -0.2093 -0.8854 -0.1138
 1011MOL0     O33378   4.970   2.291   0.782 -0.3271 -1.0067 -0.1916
 1011MOL0     C33379   4.984   2.311   0.638 -0.3517  0.2503 -1.4093
 1011MOL0     C33380   5.123   2.370   0.618 -0.3555  0.1015  0.2769
 1011MOL0     C33381   5.142   2.429   0.472 -0.8681 -0.0686 -0.5289
 1011MOL0     C33382   5.278   2.511   0.443  0.5377  0.4429  0.2416
 1011MOL0     C33383   5.392   2.421   0.444  0.4161  0.6775  1.0106
 1011MOL0     C33384   5.485   2.352   0.446 -0.3541  0.2321 -0.2593
 1011MOL0     C33385   4.809   2.195   0.917 -0.3069  0.7306  0.4959
 1011MOL0     C33386   4.722   2.101   0.963  1.1797 -0.0338  0.2067
 1011MOL0     H33387   4.468   1.866   1.279 -2.3468  1.8221 -1.6196
 1011MOL0     H33388   4.315   1.692   1.388  1.8939 -1.5580 -0.7503
 1011MOL0     H33389   4.113   1.555   1.406 -3.2113 -1.3337 -2.7859
 1011MOL0     H33390   4.269   1.463   1.446  0.5365  1.1692 -0.3179
 1011MOL0     H33391   4.149   1.261   1.373 -3.4841 -3.6959 -0.2107
 1011MOL0     H33392   3.992   1.351   1.385  0.5658  1.1144 -2.1253
 1011MOL0     H33393   4.058   1.415   1.621 -0.1696 -0.0075  0.9249
 1011MOL0     H33394   4.197   1.299   1.611 -0.6800 -0.9101  0.8827
 1011MOL0     H33395   3.905   1.236   1.549  1.2373  0.0798 -3.0626
 1011MOL0     H33396   4.047   1.121   1.570 -5.5364 -1.6136 -2.0201
 1011MOL0     H33397   3.885   1.136   1.773  1.8190 -2.1485  1.9856
 1011MOL0     H33398   3.936   1.307   1.787  0.3437 -0.8237  1.5816
 1011MOL0     H33399   4.127   1.256   1.871 -0.6621 -0.0074  0.4392
 1011MOL0     H33400   4.160   1.118   1.776 -0.4953 -0.6954 -0.7611
 1011MOL0     H33401   3.987   0.982   1.901 -2.2954 -0.2545  1.1770
 1011MOL0     H33402   4.113   1.034   2.011  0.9071 -0.4300 -1.1229
 1011MOL0     H33403   3.912   1.238   2.040 -2.9884 -0.3107  1.9004
 1011MOL0     H33404   3.981   1.127   2.150  0.0498  0.2754  0.1604
 1011MOL0     H33405   3.824   0.901   2.216 -0.5369  0.6534  1.1055
 1011MOL0     H33406   3.446   0.882   2.213 -0.6622 -2.3642 -0.4955
 1011MOL0     H33407   3.580   0.841   2.317  0.3649 -1.3554 -0.0534
 1011MOL0     H33408   3.681   0.720   2.086  0.0069  5.0761 -1.9628
 1011MOL0     H33409   3.507   0.743   2.036 -2.2001 -0.0044  1.0219
 1011MOL0     H33410   3.566   0.613   2.309 -0.0893 -0.8248  0.5237
 1011MOL0     H33411   3.443   0.576   2.198 -0.7587  1.1807  1.8429
 1011MOL0     H33412   3.580   0.470   2.034 -1.6126  2.0006  0.1437
 1011MOL0     H33413   3.574   0.391   2.177 -2.3394  0.6601 -1.2414
 1011MOL0     H33414   3.930   0.635   2.227  0.7589  0.3603 -1.1215
 1011MOL0     H33415   4.105   0.566   2.402 -0.7459  1.2806 -1.4854
 1011MOL0     H33416   4.394   0.425   2.515 -0.8434  2.0026  0.0369
 1011MOL0     H33417   4.611   0.387   2.643 -0.2854 -4.6541 -2.1761
 1011MOL0     H33418   4.640   0.121   2.882  1.1667  0.9091 -0.8017
 1011MOL0     H33419   4.629   0.201   3.042  3.7998 -2.4464  1.4141
 1011MOL0     H33420   4.836   0.138   3.048  2.1913 -0.0009 -0.7378
 1011MOL0     H33421   4.862   0.298   2.997  0.3506  0.7519 -2.0606
 1011MOL0     H33422   4.996   0.166   2.869 -0.3464 -0.8532  1.0253
 1011MOL0     H33423   4.877   0.260   2.764  0.9721  1.0264 -0.0706
 1011MOL0     H33424   4.851  -0.048   2.825 -3.8535 -0.0032  0.2092
 1011MOL0     H33425   4.744   0.050   2.733 -0.1460  2.0054 -0.3430
 1011MOL0     H33426   4.881   0.056   2.549 -0.1992  0.7029  0.8082
 1011MOL0     H33427   4.898  -0.100   2.622 -0.9219  1.0619  0.3602
 1011MOL0     H33428   5.111  -0.050   2.729  1.6779 -1.0595 -1.3345
 1011MOL0     H33429   5.131   0.107   2.650 -2.9797  2.0715  1.0828
 1011MOL0     H33430   5.077  -0.162   2.507  1.5389 -0.1111 -2.9281
 1011MOL0     H33431   5.109  -0.018   2.418  0.1692 -0.4227 -0.0240
 1011MOL0     H33432   5.297  -0.129   2.616  2.8821  3.7547  0.0531
 1011MOL0     H33433   5.331  -0.011   2.503 -1.8864  0.6658  1.0698
 1011MOL0     H33434   4.396   0.276   2.989  0.4354 -4.2967 -1.5965
 1011MOL0     H33435   4.181   0.318   2.879 -0.1496 -0.1027 -1.3818
 1011MOL0     H33436   3.896   0.184   2.421 -1.1987  0.7719 -0.1747
 1011MOL0     H33437   3.729   0.266   2.272  0.6722  0.4837 -0.3322
 1011MOL0     H33438   4.310   1.494   1.010 -1.7730  2.0631 -1.6620
 1011MOL0     H33439   4.446   1.687   0.905  0.3234 -0.1501  0.0452
 1011MOL0     H33440   4.856   1.846   0.776 -2.3590 -0.9761  0.1712
 1011MOL0     H33441   5.001   2.012   0.703 -1.1218  1.4050 -1.2199
 1011MOL0     H33442   4.904   2.380   0.611 -2.9174 -1.1921  1.7456
 1011MOL0     H33443   4.975   2.212   0.591 -1.9099  0.7202 -2.1610
 1011MOL0     H33444   5.124   2.463   0.675 -0.3855  0.3001 -0.0444
 1011MOL0     H33445   5.209   2.309   0.648 -0.0572  1.1569  1.6837
 1011MOL0     H33446   5.062   2.499   0.450  1.2000  3.0319  1.0801
 1011MOL0     H33447   5.136   2.348   0.398  0.4100 -0.9356  0.2769
 1011MOL0     H33448   5.286   2.561   0.346  1.2476 -0.7193 -0.3182
 1011MOL0     H33449   5.291   2.586   0.522  3.8990  0.4069 -0.1557
 1011MOL0     H33450   5.566   2.284   0.453  0.2329  0.0680 -5.0964
 1011MOL0     H33451   4.791   2.297   0.951 -2.9062  1.2419 -1.9863
 1011MOL0     H33452   4.656   2.136   1.042  0.7890  1.6923 -0.8190
 1012MOL0     O33453   5.898   2.603   9.850  0.6674  0.3259  0.9790
 1012MOL0     C33454   5.951   2.700   9.804 -0.6585 -0.7109  0.9435
 1012MOL0     O33455   5.900   2.821   9.796 -0.6214  0.4127 -0.0205
 1012MOL0     C33456   5.781   2.865   9.864 -0.3869  0.5744  0.4255
 1012MOL0     C33457   5.695   2.953   9.789 -0.2214  0.0673 -0.3061
 1012MOL0     C33458   5.570   2.996   9.840  0.1282 -0.6700 -0.4849
 1012MOL0     C33459   5.541   2.969   9.977 -0.0037  0.1606 -0.3051
 1012MOL0     O33460   5.423   3.012  10.030  0.0257  0.3262  0.0373
 1012MOL0     C33461   5.393   2.986  10.174  0.7091 -1.3069 -0.1870
 1012MOL0     C33462   5.303   3.112  10.220 -0.5407 -0.0398 -0.6409
 1012MOL0     C33463   5.399   3.237  10.252  0.4680  0.7143 -0.6115
 1012MOL0     C33464   5.326   3.370  10.256  0.6425  0.6823  0.4466
 1012MOL0     C33465   5.390   3.459  10.367 -0.5608 -0.5679  0.5816
 1012MOL0     C33466   5.522   3.520  10.328 -0.6466 -0.9446 -0.0682
 1012MOL0     C33467   5.579   3.612  10.438  0.2473 -0.6522  0.8921
 1012MOL0     C33468   5.712   3.661  10.418 -0.3848 -0.4338 -0.6433
 1012MOL0     N33469   5.827   3.598  10.473 -0.8890 -0.0615  0.1796
 1012MOL0     C33470   5.927   3.548  10.393 -0.2821 -0.2355 -0.5518
 1012MOL0     C33471   5.978   3.438  10.458 -0.0491  0.2655  0.0702
 1012MOL0     C33472   6.091   3.347  10.404  0.4483 -0.8747  0.4939
 1012MOL0     C33473   6.218   3.419  10.397 -0.4035 -0.2711 -0.2633
 1012MOL0     C33474   6.263   3.540  10.483 -0.3697 -0.4069  0.7582
 1012MOL0     C33475   6.268   3.500  10.623 -0.3335  0.0971 -0.3870
 1012MOL0     O33476   6.366   3.411  10.662  0.2961 -0.5258 -0.4528
 1012MOL0     C33477   6.503   3.419  10.632 -0.8281 -0.3333 -0.0949
 1012MOL0     C33478   6.584   3.302  10.642 -0.4356  1.0457  1.0218
 1012MOL0     C33479   6.722   3.310  10.610  0.3401 -0.8983  1.3511
 1012MOL0     C33480   6.778   3.430  10.553  0.6233  0.1192  0.0114
 1012MOL0     C33481   6.914   3.445  10.507 -0.0450  0.0400 -0.4537
 1012MOL0     O33482   6.988   3.338  10.523 -0.9624  0.1430 -0.9956
 1012MOL0     C33483   7.123   3.348  10.475  1.5165 -0.1326 -0.1820
 1012MOL0     C33484   7.143   3.329  10.342  0.3153  0.6261 -0.5765
 1012MOL0     C33485   7.265   3.336  10.281 -0.7944  0.0928  0.0290
 1012MOL0     C33486   7.379   3.360  10.360  0.1528  0.5087  0.4147
 1012MOL0     O33487   7.501   3.343  10.300  0.7531  0.4555 -0.2840
 1012MOL0     C33488   7.620   3.357  10.388  0.4846 -0.0908 -0.3210
 1012MOL0     C33489   7.753   3.333  10.312 -0.9548 -0.4737 -0.5635
 1012MOL0     C33490   7.877   3.330  10.400 -0.5426 -0.5169 -0.6284
 1012MOL0     C33491   8.009   3.339  10.326  0.0884  0.0934 -0.2724
 1012MOL0     C33492   8.126   3.288  10.411 -0.6251 -0.1539 -0.4347
 1012MOL0     C33493   8.248   3.272  10.319 -0.5982  0.1860 -0.6414
 1012MOL0     C33494   8.366   3.210  10.388  0.3047  0.6775 -1.1483
 1012MOL0     C33495   8.501   3.220  10.325  0.8602  0.0086  0.3181
 1012MOL0    Cl33496   8.608   3.156  10.448  0.1611 -0.5103  0.0676
 1012MOL0     C33497   7.360   3.381  10.497  0.4070  0.5283 -0.3018
 1012MOL0     C33498   7.230   3.375  10.555  0.7892 -0.1349 -0.5011
 1012MOL0     O33499   6.952   3.552  10.461  0.3519  0.0405  0.5051
 1012MOL0     C33500   6.699   3.545  10.557 -0.4930  0.3969 -0.3876
 1012MOL0     C33501   6.571   3.540  10.596  0.4081 -0.1112 -0.1979
 1012MOL0     N33502   5.910   3.420  10.582 -1.0399 -0.0450  0.2675
 1012MOL0     N33503   5.827   3.528  10.592 -0.2422  0.6620  0.3091
 1012MOL0     C33504   5.632   2.887  10.046  0.1820  0.5706  0.6978
 1012MOL0     C33505   5.754   2.838   9.992 -0.0825  0.0929 -0.8761
 1012MOL0     C33506   6.089   2.680   9.748  0.5026 -0.8099 -0.5265
 1012MOL0     C33507   6.150   2.783   9.684 -0.3063  0.7273  0.3645
 1012MOL0     C33508   6.267   2.767   9.612 -0.2400 -0.3067 -0.2794
 1012MOL0     C33509   6.335   2.646   9.615  0.3290 -0.9794  0.3752
 1012MOL0     O33510   6.454   2.631   9.551 -0.0218  0.4217  0.0103
 1012MOL0     C33511   6.468   2.519   9.461 -0.2665 -0.3718  1.5307
 1012MOL0     C33512   6.608   2.539   9.391 -0.1111  0.2727 -0.2828
 1012MOL0     C33513   6.653   2.432   9.283  0.1803  0.4951  0.4091
 1012MOL0     C33514   6.590   2.445   9.146  0.2809 -0.2723 -0.4493
 1012MOL0     C33515   6.575   2.311   9.091  1.2574 -0.0176 -1.3227
 1012MOL0     C33516   6.525   2.203   9.072  0.9176 -0.0872 -0.6726
 1012MOL0     C33517   6.281   2.539   9.682 -0.4528  0.4648 -0.0452
 1012MOL0     C33518   6.160   2.554   9.745  0.4937 -0.4746 -0.5983
 1012MOL0     H33519   5.731   2.995   9.696  2.2322  1.5457  1.1938
 1012MOL0     H33520   5.497   3.053   9.782 -2.1266  0.7390  3.3367
 1012MOL0     H33521   5.478   2.976  10.242  0.5025 -0.7582  0.1607
 1012MOL0     H33522   5.333   2.894  10.170  0.3005 -1.0239 -0.6901
 1012MOL0     H33523   5.264   3.078  10.317  0.9521  1.4730  0.5381
 1012MOL0     H33524   5.215   3.143  10.162 -2.3344  1.9954  2.7980
 1012MOL0     H33525   5.474   3.247  10.174  0.7843 -1.4085 -0.6350
 1012MOL0     H33526   5.462   3.229  10.341  0.0762 -2.6835 -0.4996
 1012MOL0     H33527   5.343   3.430  10.167  3.4510 -0.4293  0.1392
 1012MOL0     H33528   5.224   3.357  10.294  0.8817 -0.8034  0.6470
 1012MOL0     H33529   5.389   3.397  10.457 -2.1882 -4.7032 -1.9486
 1012MOL0     H33530   5.329   3.549  10.378  2.0414  1.2130  1.2827
 1012MOL0     H33531   5.535   3.571  10.233  3.2641  3.1459  2.3118
 1012MOL0     H33532   5.588   3.433  10.336  0.3308 -0.2625 -0.6486
 1012MOL0     H33533   5.503   3.690  10.441  0.8915  0.1311 -1.2386
 1012MOL0     H33534   5.575   3.563  10.536 -2.0104  2.4620  2.5274
 1012MOL0     H33535   5.709   3.761  10.462 -2.6906 -0.3988 -0.7610
 1012MOL0     H33536   5.726   3.666  10.309 -2.4366  0.7794 -0.8991
 1012MOL0     H33537   5.956   3.614  10.312  1.2976  2.7566  2.2285
 1012MOL0     H33538   6.064   3.320  10.302 -1.5736 -0.6735  0.9230
 1012MOL0     H33539   6.104   3.259  10.467  0.6227 -1.2290 -0.0336
 1012MOL0     H33540   6.221   3.451  10.292  0.0837 -2.5078 -0.9746
 1012MOL0     H33541   6.297   3.344  10.401 -0.0662  0.0749 -0.3889
 1012MOL0     H33542   6.360   3.581  10.453  0.7350 -2.6406  1.0769
 1012MOL0     H33543   6.189   3.621  10.475  1.6084  1.6148  1.8618
 1012MOL0     H33544   6.175   3.450  10.651  0.0508  0.5112  1.7813
 1012MOL0     H33545   6.286   3.585  10.690 -3.2593  1.2900 -0.9525
 1012MOL0     H33546   6.560   3.198  10.660  0.1378  0.4965 -1.0663
 1012MOL0     H33547   6.789   3.225  10.607 -0.7950 -1.8162 -1.0742
 1012MOL0     H33548   7.058   3.315  10.276 -3.3867  5.6689  2.4055
 1012MOL0     H33549   7.267   3.329  10.172 -2.5803  1.3638 -0.1339
 1012MOL0     H33550   7.618   3.281  10.467 -2.6639  1.9562  1.8072
 1012MOL0     H33551   7.615   3.454  10.438  2.4022 -0.5046  0.7778
 1012MOL0     H33552   7.758   3.403  10.228  0.9682 -0.9456 -0.8843
 1012MOL0     H33553   7.745   3.232  10.270  0.1324 -1.6539  1.8723
 1012MOL0     H33554   7.867   3.236  10.456 -1.1665 -1.2736 -1.9716
 1012MOL0     H33555   7.879   3.414  10.470 -0.1302  1.2618 -2.6660
 1012MOL0     H33556   7.996   3.263  10.248  4.0195  0.0690 -1.1060
 1012MOL0     H33557   8.028   3.435  10.278 -2.6793  0.1359 -1.4828
 1012MOL0     H33558   8.103   3.188  10.448 -2.2760  1.4651  3.4070
 1012MOL0     H33559   8.148   3.350  10.498  2.6770  0.4032 -1.5102
 1012MOL0     H33560   8.284   3.370  10.287  1.8902 -0.7727 -0.9854
 1012MOL0     H33561   8.221   3.211  10.232 -1.2342  2.0615 -1.8179
 1012MOL0     H33562   8.374   3.274  10.476  1.5432 -1.2581  0.2084
 1012MOL0     H33563   8.346   3.108  10.423  2.2533 -0.7917 -3.8563
 1012MOL0     H33564   8.537   3.321  10.300  0.5290 -0.5418 -2.7194
 1012MOL0     H33565   8.493   3.161  10.233 -2.9901 -1.0427  1.1846
 1012MOL0     H33566   7.435   3.395  10.574  0.8990  1.4065 -0.9274
 1012MOL0     H33567   7.213   3.400  10.659 -2.3630 -0.8428 -0.7539
 1012MOL0     H33568   6.733   3.641  10.520 -3.1190  2.2561  1.5658
 1012MOL0     H33569   6.510   3.629  10.596  1.7353  0.8241  0.2884
 1012MOL0     H33570   5.617   2.861  10.151 -0.4998 -1.7903  0.0657
 1012MOL0     H33571   5.820   2.789  10.063 -2.5115 -1.9387  0.1756
 1012MOL0     H33572   6.094   2.876   9.694 -1.8222 -0.3169  2.1811
 1012MOL0     H33573   6.307   2.853   9.560 -0.3397  0.1206  0.3396
 1012MOL0     H33574   6.403   2.528   9.374  2.1004  2.1530 -0.1337
 1012MOL0     H33575   6.465   2.420   9.507 -2.5784 -0.0131  2.2834
 1012MOL0     H33576   6.626   2.634   9.342  2.4655  0.5474  1.0342
 1012MOL0     H33577   6.682   2.533   9.471  1.9813  1.5675 -2.0265
 1012MOL0     H33578   6.622   2.333   9.315 -0.0568  0.3558 -0.2299
 1012MOL0     H33579   6.763   2.430   9.285  0.1562 -1.0498  1.4577
 1012MOL0     H33580   6.489   2.484   9.160  0.9965  1.2302  0.7903
 1012MOL0     H33581   6.633   2.519   9.077  0.3039  0.3885  0.2661
 1012MOL0     H33582   6.479   2.108   9.053 -0.2729 -0.1104  1.8715
 1012MOL0     H33583   6.321   2.438   9.678 -1.6980 -0.0723  0.5123
 1012MOL0     H33584   6.109   2.465   9.782  1.2842 -1.0824 -0.9569
 1013MOL0     O33585   4.880   9.220   6.461 -0.6574  0.1019  0.2912
 1013MOL0     C33586   4.964   9.307   6.465  0.0255 -0.0181  0.0367
 1013MOL0     O33587   4.947   9.438   6.455  0.2076 -0.2373 -0.0221
 1013MOL0     C33588   4.824   9.481   6.406  0.2195  0.0531  0.3274
 1013MOL0     C33589   4.696   9.443   6.459 -0.1694  0.3642 -0.4009
 1013MOL0     C33590   4.575   9.492   6.418  0.0216  0.0908 -0.1374
 1013MOL0     C33591   4.578   9.588   6.320 -0.2283  0.0582  0.8067
 1013MOL0     O33592   4.463   9.651   6.290 -0.5604 -0.1238  0.6964
 1013MOL0     C33593   4.451   9.725   6.163  0.0974 -0.0498  0.0290
 1013MOL0     C33594   4.305   9.736   6.143  0.3240  0.6897 -0.5288
 1013MOL0     C33595   4.281   9.777   5.996 -0.8801 -0.2363  0.9248
 1013MOL0     C33596   4.129   9.793   5.982  0.1197 -0.0692  0.5115
 1013MOL0     C33597   4.072   9.755   5.839  0.1551  0.2809 -0.2073
 1013MOL0     C33598   3.931   9.708   5.857  0.0221 -0.4255 -0.0471
 1013MOL0     C33599   3.876   9.634   5.739 -1.3445  0.8544  0.0341
 1013MOL0     C33600   3.868   9.706   5.600 -0.8062 -0.1458 -0.4428
 1013MOL0     N33601   3.815   9.627   5.487  0.7934  0.7757  0.3599
 1013MOL0     C33602   3.877   9.537   5.400 -0.3144  0.2160 -0.6313
 1013MOL0     C33603   3.795   9.516   5.303 -0.0383 -0.2704 -0.7279
 1013MOL0     C33604   3.818   9.438   5.178  0.5218 -0.0610 -0.5859
 1013MOL0     C33605   3.831   9.284   5.204  0.2285  0.8519 -0.4581
 1013MOL0     C33606   3.883   9.200   5.079 -0.2544 -0.1059 -0.1451
 1013MOL0     C33607   4.031   9.224   5.056  1.0113  0.9653 -0.7890
 1013MOL0     O33608   4.106   9.152   5.151  0.7546 -0.7508 -0.2072
 1013MOL0     C33609   4.219   9.110   5.106  0.4330  0.0513  0.7804
 1013MOL0     C33610   4.234   8.998   5.028 -0.7002  0.2300 -1.1135
 1013MOL0     C33611   4.371   8.963   4.996 -0.3002  0.1967 -0.0516
 1013MOL0     C33612   4.479   9.043   5.027  0.0111 -0.8825 -0.1423
 1013MOL0     C33613   4.606   9.006   4.961  0.0343  0.6557  0.7418
 1013MOL0     O33614   4.722   9.056   5.024 -0.3016  0.2972  0.1757
 1013MOL0     C33615   4.850   9.047   4.967 -0.0037 -0.6287 -0.2965
 1013MOL0     C33616   4.913   9.166   4.935 -0.3295 -0.1351 -0.5271
 1013MOL0     C33617   5.040   9.168   4.884  0.7208  0.1920 -0.0427
 1013MOL0     C33618   5.106   9.048   4.856  0.2327  0.8111  0.0058
 1013MOL0     O33619   5.234   9.041   4.797 -0.0209  0.2029 -0.0616
 1013MOL0     C33620   5.337   9.122   4.861 -0.1277 -0.1847 -0.4333
 1013MOL0     C33621   5.380   9.253   4.782  0.3914  0.1898 -0.1549
 1013MOL0     C33622   5.412   9.231   4.631 -0.7537 -0.3748 -0.7707
 1013MOL0     C33623   5.444   9.368   4.550 -0.3629  0.2892 -0.6860
 1013MOL0     C33624   5.571   9.442   4.603 -0.2470 -0.3273 -0.0901
 1013MOL0     C33625   5.602   9.567   4.506 -0.4291  0.7374 -0.3510
 1013MOL0     C33626   5.543   9.553   4.363  0.4265 -0.0519 -0.2498
 1013MOL0     C33627   5.602   9.649   4.257  0.1830  1.0071  0.1141
 1013MOL0    Cl33628   5.558   9.821   4.306  0.1219  0.2798  0.5318
 1013MOL0     C33629   5.043   8.921   4.888 -0.7149 -1.0781  0.6954
 1013MOL0     C33630   4.915   8.918   4.935 -0.1383 -0.5309  0.5106
 1013MOL0     O33631   4.606   8.946   4.855  0.9213 -0.4332 -0.1946
 1013MOL0     C33632   4.453   9.159   5.098 -0.9141  0.8141 -0.0258
 1013MOL0     C33633   4.325   9.188   5.145  0.6436 -0.1039  0.3235
 1013MOL0     N33634   3.678   9.594   5.329  0.4002 -0.7174  0.5639
 1013MOL0     N33635   3.693   9.651   5.441 -0.0801  0.4315  0.5152
 1013MOL0     C33636   4.698   9.629   6.258  0.1980  0.7400  0.5861
 1013MOL0     C33637   4.818   9.577   6.304 -0.2115 -0.0876 -0.2640
 1013MOL0     C33638   5.100   9.269   6.522 -0.2219 -0.8118  0.2906
 1013MOL0     C33639   5.140   9.127   6.548  0.0579  0.2445 -0.1403
 1013MOL0     C33640   5.268   9.099   6.610  0.2271 -0.0709  0.4991
 1013MOL0     C33641   5.366   9.203   6.617 -0.5369 -0.5562  0.6866
 1013MOL0     O33642   5.491   9.160   6.666 -0.4309  0.1155 -0.5819
 1013MOL0     C33643   5.599   9.252   6.706  0.4741 -0.5696 -0.5221
 1013MOL0     C33644   5.693   9.193   6.810  0.8087 -0.8443  0.1799
 1013MOL0     C33645   5.797   9.299   6.849 -0.0442 -0.1774  0.0053
 1013MOL0     C33646   5.896   9.242   6.960  0.0058 -0.0943  0.0744
 1013MOL0     C33647   6.016   9.318   7.006  1.0702  0.1146 -0.3737
 1013MOL0     C33648   6.113   9.389   7.044  0.1477 -0.2387 -1.1351
 1013MOL0     C33649   5.326   9.327   6.588 -0.6011  0.4378  0.2731
 1013MOL0     C33650   5.200   9.366   6.547  0.6149  0.0867  0.7633
 1013MOL0     H33651   4.696   9.376   6.544  0.1336  1.7660  0.7568
 1013MOL0     H33652   4.472   9.467   6.444  0.4702  0.1753  1.8429
 1013MOL0     H33653   4.485   9.668   6.076 -0.2603 -0.5372  0.2043
 1013MOL0     H33654   4.496   9.824   6.168  0.1149 -0.0615  0.0894
 1013MOL0     H33655   4.266   9.807   6.216 -0.2754  0.0738 -0.2320
 1013MOL0     H33656   4.261   9.638   6.163  0.4520  0.4270 -1.4632
 1013MOL0     H33657   4.309   9.686   5.943 -1.3022 -1.0640  2.1087
 1013MOL0     H33658   4.332   9.871   5.969 -2.1388  0.7397  1.8257
 1013MOL0     H33659   4.092   9.717   6.051 -1.0072 -1.9957 -2.0680
 1013MOL0     H33660   4.094   9.891   6.017 -4.8165 -0.8660 -1.3709
 1013MOL0     H33661   4.137   9.686   5.785  1.5650  0.2737  1.4034
 1013MOL0     H33662   4.064   9.846   5.779  1.2798  0.0401 -0.7452
 1013MOL0     H33663   3.856   9.786   5.875 -2.2888 -2.5830  0.1799
 1013MOL0     H33664   3.926   9.646   5.947  1.0966  0.4779  0.6749
 1013MOL0     H33665   3.948   9.553   5.722 -1.2951  0.8034  0.4889
 1013MOL0     H33666   3.783   9.588   5.772  0.0688 -2.0272  0.3591
 1013MOL0     H33667   3.969   9.736   5.571 -1.2580  1.7722 -0.1792
 1013MOL0     H33668   3.816   9.802   5.612 -0.0595 -0.0868  3.7906
 1013MOL0     H33669   3.976   9.493   5.409 -0.4691  0.2659  2.0024
 1013MOL0     H33670   3.904   9.478   5.124  0.3758  0.3337 -0.5310
 1013MOL0     H33671   3.724   9.455   5.124 -0.7578  1.1349  1.8505
 1013MOL0     H33672   3.737   9.231   5.219  1.7102 -1.5745  0.7163
 1013MOL0     H33673   3.894   9.267   5.291 -0.7866 -0.1355  0.0986
 1013MOL0     H33674   3.861   9.093   5.093  2.6831 -1.0153 -1.4929
 1013MOL0     H33675   3.827   9.236   4.992  1.7397  3.1981 -0.2094
 1013MOL0     H33676   4.069   9.327   5.063 -0.5216  1.5170 -0.3040
 1013MOL0     H33677   4.054   9.188   4.956  0.1507 -2.1236  0.0178
 1013MOL0     H33678   4.153   8.929   5.006 -0.9113  0.3201 -0.6213
 1013MOL0     H33679   4.392   8.866   4.953 -0.3103 -1.3780  3.2227
 1013MOL0     H33680   4.864   9.258   4.966 -0.3570 -0.7865  1.4934
 1013MOL0     H33681   5.097   9.257   4.859  3.4752 -0.5910  2.7981
 1013MOL0     H33682   5.419   9.050   4.857 -0.9833 -1.1623 -0.7083
 1013MOL0     H33683   5.312   9.164   4.959 -0.1957 -0.7550 -0.2031
 1013MOL0     H33684   5.464   9.288   4.843  0.5634 -2.2964  1.1745
 1013MOL0     H33685   5.294   9.321   4.771 -1.4236 -1.9153  0.2647
 1013MOL0     H33686   5.330   9.191   4.571 -0.9130  3.1744 -3.2335
 1013MOL0     H33687   5.505   9.174   4.630 -0.0120  0.4611  3.1104
 1013MOL0     H33688   5.473   9.317   4.458  0.4070  0.1078 -0.3562
 1013MOL0     H33689   5.353   9.427   4.539 -0.6613  0.0469  0.3211
 1013MOL0     H33690   5.652   9.375   4.633 -1.3873 -1.3095  0.9144
 1013MOL0     H33691   5.525   9.488   4.691  1.8982 -0.1643  1.0193
 1013MOL0     H33692   5.711   9.576   4.504 -0.1700 -0.7512 -5.0573
 1013MOL0     H33693   5.564   9.658   4.552 -2.1222  1.0379 -2.2127
 1013MOL0     H33694   5.564   9.449   4.337  1.6387  0.1671 -0.2269
 1013MOL0     H33695   5.436   9.572   4.364  0.5445  0.6641  0.7765
 1013MOL0     H33696   5.566   9.626   4.156  1.8566 -5.1153  0.4709
 1013MOL0     H33697   5.709   9.632   4.244 -0.3586 -3.9833  0.3148
 1013MOL0     H33698   5.095   8.831   4.856  1.8024  0.6519 -0.4777
 1013MOL0     H33699   4.863   8.828   4.969  0.0427 -0.6715  0.4160
 1013MOL0     H33700   4.541   9.218   5.117  0.1403 -0.6716 -0.0933
 1013MOL0     H33701   4.313   9.274   5.211  4.5003  1.4880 -0.7353
 1013MOL0     H33702   4.707   9.708   6.185  0.6640 -0.3873 -0.6177
 1013MOL0     H33703   4.901   9.612   6.243 -0.5324 -0.1584 -0.7422
 1013MOL0     H33704   5.066   9.049   6.530  0.6689 -0.5161  0.5934
 1013MOL0     H33705   5.294   8.997   6.633  2.7233  0.3375 -0.2406
 1013MOL0     H33706   5.566   9.344   6.756  2.3336 -0.3938  0.4592
 1013MOL0     H33707   5.656   9.284   6.618 -1.8908 -0.6217 -2.2023
 1013MOL0     H33708   5.633   9.164   6.897 -1.3323 -1.9322 -1.5365
 1013MOL0     H33709   5.742   9.107   6.764  2.2541 -0.6959  1.3683
 1013MOL0     H33710   5.753   9.391   6.888 -0.6463 -0.5308  0.1751
 1013MOL0     H33711   5.854   9.320   6.758 -0.2266 -1.5905 -0.4622
 1013MOL0     H33712   5.841   9.216   7.051  1.7101  0.9847  1.4881
 1013MOL0     H33713   5.930   9.146   6.921 -0.6976  0.2959 -1.5802
 1013MOL0     H33714   6.199   9.427   7.095  0.9718 -0.7825 -2.0817
 1013MOL0     H33715   5.384   9.415   6.614  0.7106 -0.0051 -1.0307
 1013MOL0     H33716   5.173   9.471   6.546  2.0459  0.4567  0.1904
 1014MOL0     O33717   8.437   6.992   2.161 -0.3312  0.0617  0.7597
 1014MOL0     C33718   8.391   6.873   2.176 -0.1837  0.0004  0.2354
 1014MOL0     O33719   8.310   6.833   2.278  0.4301 -0.0429  0.3431
 1014MOL0     C33720   8.280   6.910   2.390 -0.2148  0.6411  0.0018
 1014MOL0     C33721   8.363   7.011   2.428 -0.6133 -0.0322 -0.0392
 1014MOL0     C33722   8.348   7.081   2.555  0.7551  0.0586 -0.3657
 1014MOL0     C33723   8.237   7.050   2.634 -0.7076 -0.5196 -0.6906
 1014MOL0     O33724   8.203   7.130   2.747  0.2099 -0.0148  0.4658
 1014MOL0     C33725   8.173   7.045   2.862 -0.0935 -0.1580  0.0841
 1014MOL0     C33726   8.142   7.122   2.983 -0.5567  0.1736 -0.2926
 1014MOL0     C33727   8.278   7.172   3.041  0.3807  0.7012 -0.9356
 1014MOL0     C33728   8.258   7.230   3.187 -0.0558  0.7124 -0.3855
 1014MOL0     C33729   8.388   7.288   3.240 -1.2519 -0.2491 -0.2885
 1014MOL0     C33730   8.409   7.317   3.389 -0.0786 -0.2449 -0.2013
 1014MOL0     C33731   8.305   7.428   3.438 -0.6020  0.1417 -0.3186
 1014MOL0     C33732   8.322   7.476   3.581 -0.0983 -0.6449 -0.3982
 1014MOL0     N33733   8.268   7.613   3.597  0.1465 -0.4779 -0.2604
 1014MOL0     C33734   8.315   7.730   3.540 -0.0111 -0.1460  0.1822
 1014MOL0     C33735   8.239   7.831   3.594  0.5230  0.3361  0.8809
 1014MOL0     C33736   8.253   7.978   3.575  0.4814  0.0294 -0.3115
 1014MOL0     C33737   8.334   8.051   3.677 -0.9905  0.6337  0.9904
 1014MOL0     C33738   8.284   8.198   3.700  1.0277 -0.1216  0.0627
 1014MOL0     C33739   8.372   8.276   3.798  0.0365 -0.2141  0.3893
 1014MOL0     O33740   8.461   8.366   3.727  0.0122 -0.4145  1.4247
 1014MOL0     C33741   8.405   8.491   3.706  0.0617  0.1827  0.1727
 1014MOL0     C33742   8.272   8.525   3.701  0.7533  0.0401 -0.0182
 1014MOL0     C33743   8.227   8.657   3.669  0.1674  0.9985 -0.9316
 1014MOL0     C33744   8.314   8.755   3.658 -0.4696 -1.1911  1.2765
 1014MOL0     C33745   8.258   8.891   3.624  0.8567  0.3729  0.9984
 1014MOL0     O33746   8.348   8.979   3.568  0.2573 -0.2282 -0.8057
 1014MOL0     C33747   8.300   9.101   3.524  0.5374  0.3379  0.3920
 1014MOL0     C33748   8.364   9.217   3.575  1.6476  0.6870 -1.2158
 1014MOL0     C33749   8.310   9.343   3.537  0.9205  0.1815  0.1327
 1014MOL0     C33750   8.209   9.359   3.444 -0.0090  0.2092  0.3201
 1014MOL0     O33751   8.160   9.478   3.404  0.4421  0.2833  0.2140
 1014MOL0     C33752   8.152   9.584   3.496 -0.0667  0.1846 -0.1690
 1014MOL0     C33753   8.088   9.700   3.425  1.0551 -0.2383  0.1072
 1014MOL0     C33754   8.118   9.838   3.474  1.1892 -0.0498 -0.6284
 1014MOL0     C33755   8.263   9.871   3.495 -0.2915  0.4291  0.5901
 1014MOL0     C33756   8.298  10.017   3.468 -0.0475  0.5209  0.3636
 1014MOL0     C33757   8.241  10.115   3.582 -0.2480 -0.4479  0.2815
 1014MOL0     C33758   8.295  10.263   3.557  0.2862 -0.3948  0.3694
 1014MOL0     C33759   8.206  10.322   3.451  0.3184  1.3156 -0.0798
 1014MOL0    Cl33760   8.045  10.375   3.524 -0.1614 -0.6260  0.1068
 1014MOL0     C33761   8.144   9.247   3.398  0.4070 -0.3643 -0.0664
 1014MOL0     C33762   8.194   9.122   3.428 -0.1999  0.9470 -0.8746
 1014MOL0     O33763   8.137   8.908   3.641  0.8803 -1.1310 -0.6088
 1014MOL0     C33764   8.451   8.727   3.659  0.5276 -0.0509 -0.2986
 1014MOL0     C33765   8.497   8.597   3.693  1.1261  0.4719  0.4858
 1014MOL0     N33766   8.131   7.770   3.669  0.1191 -0.7365 -0.2488
 1014MOL0     N33767   8.158   7.639   3.675 -0.0570 -0.1167  0.0228
 1014MOL0     C33768   8.150   6.945   2.591  0.6200 -0.3919 -0.7320
 1014MOL0     C33769   8.172   6.876   2.476  1.1176  0.3225 -0.1284
 1014MOL0     C33770   8.433   6.768   2.092  0.0556  0.0337  0.4847
 1014MOL0     C33771   8.352   6.656   2.063 -0.8679 -0.1965 -0.7455
 1014MOL0     C33772   8.375   6.562   1.959 -1.3744  0.6639  1.0701
 1014MOL0     C33773   8.516   6.562   1.904 -0.2331 -0.2834 -0.6527
 1014MOL0     O33774   8.566   6.482   1.800 -0.1274 -0.0807 -0.1724
 1014MOL0     C33775   8.581   6.344   1.836  0.2703 -0.3880  0.2704
 1014MOL0     C33776   8.587   6.248   1.714  0.6928 -0.0929 -0.3683
 1014MOL0     C33777   8.731   6.212   1.667  0.3607 -0.2337  0.3972
 1014MOL0     C33778   8.723   6.130   1.531  1.4226  0.2863 -0.3245
 1014MOL0     C33779   8.724   5.983   1.563 -0.3296 -0.5372  0.1456
 1014MOL0     C33780   8.742   5.866   1.606 -0.3340 -0.2387 -0.3221
 1014MOL0     C33781   8.603   6.656   1.957 -0.1890 -0.2041 -0.1270
 1014MOL0     C33782   8.571   6.758   2.046  1.0623 -0.1458  0.6418
 1014MOL0     H33783   8.457   7.029   2.377  0.5818 -2.9349  0.9173
 1014MOL0     H33784   8.424   7.151   2.589 -0.4750  0.1741  2.5103
 1014MOL0     H33785   8.259   6.980   2.881 -0.5041 -0.9870 -0.7978
 1014MOL0     H33786   8.090   6.976   2.847 -0.2698  0.5278 -2.4416
 1014MOL0     H33787   8.107   7.045   3.053  1.4301  0.5331  1.1748
 1014MOL0     H33788   8.061   7.196   2.975 -1.3210 -0.6776 -0.7133
 1014MOL0     H33789   8.327   7.245   2.976  1.9143  2.2801  1.7743
 1014MOL0     H33790   8.349   7.089   3.042  0.3090  0.6396 -0.6276
 1014MOL0     H33791   8.174   7.299   3.192 -2.4633 -1.8568 -2.1110
 1014MOL0     H33792   8.226   7.143   3.245  0.4687  0.7521 -0.0276
 1014MOL0     H33793   8.401   7.386   3.192 -1.1991  0.7264  1.6150
 1014MOL0     H33794   8.472   7.226   3.207 -1.0063  0.2210 -0.5505
 1014MOL0     H33795   8.510   7.352   3.410 -0.0264  0.0560 -0.9268
 1014MOL0     H33796   8.385   7.221   3.435  2.6983 -1.0432 -0.2813
 1014MOL0     H33797   8.317   7.520   3.379 -1.7518  1.0760  0.8719
 1014MOL0     H33798   8.202   7.394   3.424 -1.1319  1.2696  0.7072
 1014MOL0     H33799   8.430   7.479   3.601  0.3047  1.4049 -2.4731
 1014MOL0     H33800   8.276   7.407   3.652  0.5811  0.4180  1.1315
 1014MOL0     H33801   8.401   7.750   3.478 -1.7183  2.4061 -1.5774
 1014MOL0     H33802   8.157   8.030   3.577  1.4271  1.9114 -0.8002
 1014MOL0     H33803   8.289   7.995   3.474 -1.2256  0.6398 -0.8531
 1014MOL0     H33804   8.433   8.061   3.631 -2.0341  2.1303 -1.0521
 1014MOL0     H33805   8.347   7.985   3.763  1.6638  1.7352  1.5635
 1014MOL0     H33806   8.289   8.240   3.599 -1.7627  1.9204  0.6597
 1014MOL0     H33807   8.177   8.214   3.715  0.0671 -2.9066 -2.6013
 1014MOL0     H33808   8.427   8.212   3.867  1.4063 -0.0019 -0.4760
 1014MOL0     H33809   8.316   8.331   3.875  3.0722 -0.8771  3.3064
 1014MOL0     H33810   8.199   8.446   3.692  2.4732 -1.3612 -3.4066
 1014MOL0     H33811   8.121   8.671   3.654 -1.5920 -1.6044  5.4600
 1014MOL0     H33812   8.441   9.195   3.648 -1.9496  0.7110  3.0281
 1014MOL0     H33813   8.350   9.431   3.587 -0.5218 -0.9379  3.5854
 1014MOL0     H33814   8.254   9.618   3.514 -0.9920  2.4065  1.4317
 1014MOL0     H33815   8.102   9.574   3.593 -1.6107  1.9167 -0.7272
 1014MOL0     H33816   7.980   9.687   3.434  1.1849 -1.1358  0.4749
 1014MOL0     H33817   8.131   9.692   3.325  0.7543 -2.2688  0.1007
 1014MOL0     H33818   8.061   9.843   3.567  1.8468 -3.4378  0.0929
 1014MOL0     H33819   8.084   9.907   3.396  3.0693 -1.5158 -2.8788
 1014MOL0     H33820   8.295   9.823   3.588  0.1666  0.7705  0.6152
 1014MOL0     H33821   8.331   9.824   3.423  1.7861  1.9193  1.4599
 1014MOL0     H33822   8.266  10.043   3.367  3.6402  1.3823 -0.7421
 1014MOL0     H33823   8.406  10.025   3.486 -0.0605  2.7211 -0.2985
 1014MOL0     H33824   8.268  10.056   3.670 -1.6219 -3.6273 -1.2642
 1014MOL0     H33825   8.132  10.112   3.571 -0.1210 -1.5702 -0.9147
 1014MOL0     H33826   8.297  10.322   3.649  2.4593  1.5351 -0.8166
 1014MOL0     H33827   8.401  10.280   3.534  1.3443  2.6151  5.7145
 1014MOL0     H33828   8.198  10.253   3.367 -0.4315  1.6304 -0.2732
 1014MOL0     H33829   8.262  10.409   3.413  1.6898  0.4061 -0.2335
 1014MOL0     H33830   8.066   9.265   3.325  2.2413 -0.0120 -2.0349
 1014MOL0     H33831   8.135   9.051   3.372 -2.3640  1.2342  0.8839
 1014MOL0     H33832   8.536   8.793   3.647 -0.0012  0.3078 -2.4240
 1014MOL0     H33833   8.598   8.562   3.708  2.1036  2.0163 -2.0098
 1014MOL0     H33834   8.061   6.923   2.649  1.2828  2.6647  1.6841
 1014MOL0     H33835   8.109   6.793   2.448  1.8788 -0.5465  0.6638
 1014MOL0     H33836   8.251   6.658   2.103 -1.1303 -1.4094 -1.2987
 1014MOL0     H33837   8.299   6.489   1.934 -1.2195  0.2711  1.7255
 1014MOL0     H33838   8.490   6.334   1.895 -2.0401  1.1212 -2.7320
 1014MOL0     H33839   8.672   6.323   1.894  0.8854  1.1498 -0.0832
 1014MOL0     H33840   8.540   6.159   1.757 -1.5780  1.7682  1.2147
 1014MOL0     H33841   8.515   6.287   1.641  0.4107  0.1825  0.0524
 1014MOL0     H33842   8.776   6.167   1.756  1.4510 -0.2277 -0.1410
 1014MOL0     H33843   8.796   6.300   1.658  2.2219 -1.5383  0.4538
 1014MOL0     H33844   8.633   6.143   1.471  2.2845 -0.2847 -1.8002
 1014MOL0     H33845   8.806   6.151   1.464  0.8786  1.7742 -0.5593
 1014MOL0     H33846   8.754   5.764   1.639 -1.5227 -0.1869  0.3248
 1014MOL0     H33847   8.705   6.655   1.919 -0.8982 -0.6144 -2.1361
 1014MOL0     H33848   8.648   6.823   2.084 -0.4853  0.1836  3.5007
 1015MOL0     O33849   9.283   2.591   7.154  0.2858  0.6815  0.3227
 1015MOL0     C33850   9.296   2.520   7.054 -1.1906  0.8590 -0.2225
 1015MOL0     O33851   9.287   2.383   7.044 -0.4648 -0.3192 -1.2646
 1015MOL0     C33852   9.247   2.314   7.158 -0.2118 -0.7219 -0.0490
 1015MOL0     C33853   9.308   2.195   7.189  0.1878  0.0811 -0.4075
 1015MOL0     C33854   9.272   2.126   7.303  0.0734 -0.3936 -0.6987
 1015MOL0     C33855   9.156   2.172   7.382  0.1502  0.9742  0.8777
 1015MOL0     O33856   9.108   2.101   7.487  0.0320 -0.5979 -0.4789
 1015MOL0     C33857   9.155   2.153   7.615  0.3642 -0.2211  0.4274
 1015MOL0     C33858   9.298   2.183   7.640  0.9753  0.6338  0.5580
 1015MOL0     C33859   9.320   2.174   7.791  0.2599  0.0583  1.4501
 1015MOL0     C33860   9.471   2.205   7.820  1.0973 -0.0449  0.1645
 1015MOL0     C33861   9.508   2.236   7.970  0.7175 -0.1719 -0.0124
 1015MOL0     C33862   9.654   2.212   8.018 -0.1586 -0.3069 -0.7243
 1015MOL0     C33863   9.670   2.229   8.171 -0.1871  0.4083 -0.9790
 1015MOL0     C33864   9.691   2.391   8.200  0.0878 -0.5909  0.2211
 1015MOL0     N33865   9.826   2.435   8.181 -0.4860 -0.3877  0.5365
 1015MOL0     C33866   9.888   2.528   8.103 -0.6234 -0.2843  0.5686
 1015MOL0     C33867  10.020   2.529   8.141  0.3786  0.2041  0.5660
 1015MOL0     C33868  10.120   2.629   8.084 -0.2182  1.0105 -0.5663
 1015MOL0     C33869  10.264   2.602   8.148 -0.0971 -0.5970  0.3496
 1015MOL0     C33870  10.360   2.701   8.085  0.3623 -0.8174 -0.6811
 1015MOL0     C33871  10.402   2.672   7.945 -0.4677 -0.2293 -0.2286
 1015MOL0     O33872  10.530   2.732   7.915  0.3602  0.0523 -0.1776
 1015MOL0     C33873  10.574   2.729   7.785 -0.1828 -0.8814  0.9912
 1015MOL0     C33874  10.677   2.817   7.739  0.1906 -0.2708  0.2783
 1015MOL0     C33875  10.722   2.830   7.602 -0.0030  0.1285 -0.0471
 1015MOL0     C33876  10.660   2.752   7.500 -0.3158  0.0507 -0.2476
 1015MOL0     C33877  10.706   2.770   7.364  0.1428 -0.3878 -0.3189
 1015MOL0     O33878  10.834   2.808   7.350 -0.3989 -0.3966 -0.3663
 1015MOL0     C33879  10.880   2.835   7.226  0.2939  0.3356  0.3570
 1015MOL0     C33880  11.008   2.786   7.190  0.6252  0.4964  0.1975
 1015MOL0     C33881  11.063   2.805   7.066 -0.7353 -0.9228 -0.1929
 1015MOL0     C33882  10.983   2.873   6.973 -0.0027  0.2245  0.0008
 1015MOL0     O33883  11.027   2.886   6.836 -0.8783  0.9170  0.0765
 1015MOL0     C33884  11.172   2.887   6.822  0.7734  0.1173  0.2821
 1015MOL0     C33885  11.216   2.984   6.710 -0.4812 -0.3342  0.0234
 1015MOL0     C33886  11.331   2.933   6.628  0.5572 -0.0379 -0.4894
 1015MOL0     C33887  11.272   2.856   6.506  0.3985  0.1869 -2.2571
 1015MOL0     C33888  11.381   2.782   6.442 -0.5182  0.4852 -0.0979
 1015MOL0     C33889  11.332   2.717   6.306 -0.8375 -0.0427 -0.5659
 1015MOL0     C33890  11.426   2.608   6.259 -0.7463 -0.3987  0.2422
 1015MOL0     C33891  11.405   2.604   6.105  0.6551 -0.2965 -0.3815
 1015MOL0    Cl33892  11.453   2.458   6.026 -0.1466  0.0363  0.3632
 1015MOL0     C33893  10.862   2.933   7.006  0.9306 -0.1215 -0.6486
 1015MOL0     C33894  10.814   2.914   7.139 -0.6275  0.0279  0.5137
 1015MOL0     O33895  10.636   2.735   7.269  0.6126  0.5745  0.0270
 1015MOL0     C33896  10.555   2.661   7.540 -0.2890  0.1105 -0.0218
 1015MOL0     C33897  10.510   2.656   7.683 -1.2223  0.5945  0.6577
 1015MOL0     N33898  10.033   2.445   8.250 -0.0434  0.9471 -0.1092
 1015MOL0     N33899   9.922   2.392   8.269  0.1147  0.4575 -0.4874
 1015MOL0     C33900   9.103   2.296   7.355 -0.3304  0.3942  0.5221
 1015MOL0     C33901   9.145   2.362   7.243 -0.2456 -0.2701  0.0008
 1015MOL0     C33902   9.329   2.583   6.917  0.5832 -0.0279 -0.6711
 1015MOL0     C33903   9.310   2.725   6.893 -0.7415  0.3680 -0.7034
 1015MOL0     C33904   9.367   2.779   6.780 -0.8242  0.1112 -0.2754
 1015MOL0     C33905   9.426   2.701   6.675 -0.1520  0.4893  0.1745
 1015MOL0     O33906   9.465   2.765   6.556 -0.1288  0.3554 -0.6822
 1015MOL0     C33907   9.547   2.696   6.459 -0.6787 -0.0430 -0.7928
 1015MOL0     C33908   9.455   2.616   6.359 -0.7301 -0.1453 -0.4259
 1015MOL0     C33909   9.526   2.592   6.221  0.8733 -0.7068  0.1498
 1015MOL0     C33910   9.436   2.527   6.117  0.2359 -0.2410  0.1542
 1015MOL0     C33911   9.508   2.510   5.992 -0.2859  0.7315  0.7378
 1015MOL0     C33912   9.573   2.500   5.887  0.3575  0.2352 -0.1872
 1015MOL0     C33913   9.444   2.563   6.698  0.0884 -0.5812 -0.2055
 1015MOL0     C33914   9.388   2.511   6.817 -0.6016  0.1306 -0.4221
 1015MOL0     H33915   9.381   2.162   7.115  1.0563  3.2990 -1.1359
 1015MOL0     H33916   9.324   2.035   7.332  1.6897  0.0323 -2.1546
 1015MOL0     H33917   9.138   2.066   7.679  1.6470 -0.6843  0.1688
 1015MOL0     H33918   9.086   2.230   7.649  2.2264  1.2362  1.0940
 1015MOL0     H33919   9.318   2.283   7.600  2.0094  1.1242  2.1884
 1015MOL0     H33920   9.361   2.103   7.599 -3.5923 -2.4097 -1.3955
 1015MOL0     H33921   9.293   2.076   7.831  0.8694 -0.9651 -0.5208
 1015MOL0     H33922   9.251   2.243   7.840 -2.0757  0.0052 -1.4648
 1015MOL0     H33923   9.533   2.118   7.793  3.2514  0.1724  3.7065
 1015MOL0     H33924   9.501   2.291   7.760 -1.6106 -0.6367 -2.2255
 1015MOL0     H33925   9.444   2.173   8.034  0.8556 -0.7593 -0.4454
 1015MOL0     H33926   9.473   2.335   8.000 -0.2241 -0.9195  1.4728
 1015MOL0     H33927   9.728   2.269   7.962 -1.9850  1.2336 -1.7135
 1015MOL0     H33928   9.673   2.107   7.995 -0.3932 -0.3814 -0.5828
 1015MOL0     H33929   9.582   2.193   8.224 -0.1713  0.3102 -1.0186
 1015MOL0     H33930   9.759   2.172   8.201  0.0054  1.4910  0.6078
 1015MOL0     H33931   9.646   2.412   8.297 -2.6936 -2.8775 -0.4250
 1015MOL0     H33932   9.627   2.440   8.125  1.9892  2.8377  0.6381
 1015MOL0     H33933   9.842   2.575   8.017  0.8273  1.9664  0.9440
 1015MOL0     H33934  10.092   2.734   8.094  1.5380  1.5848 -1.3050
 1015MOL0     H33935  10.121   2.606   7.977 -4.8413 -1.2620 -0.4003
 1015MOL0     H33936  10.287   2.495   8.137  1.6590 -0.1620 -0.6320
 1015MOL0     H33937  10.270   2.625   8.255  2.0403  0.3638  0.0758
 1015MOL0     H33938  10.317   2.800   8.073  3.5231  0.6642 -0.6751
 1015MOL0     H33939  10.441   2.716   8.157 -0.9960 -0.1043  0.7615
 1015MOL0     H33940  10.332   2.701   7.867  1.0960  2.1265 -0.8645
 1015MOL0     H33941  10.413   2.563   7.942 -1.4963 -0.3549  0.1162
 1015MOL0     H33942  10.711   2.891   7.811  2.0062 -2.6602  2.0655
 1015MOL0     H33943  10.803   2.899   7.580  1.7089 -2.2199 -1.6746
 1015MOL0     H33944  11.070   2.722   7.252 -1.9191 -1.1302  1.2186
 1015MOL0     H33945  11.163   2.769   7.044  0.2981  0.5124  1.8597
 1015MOL0     H33946  11.188   2.782   6.797 -1.0016 -0.3354  0.8680
 1015MOL0     H33947  11.236   2.922   6.904  1.3166  1.5170 -0.7064
 1015MOL0     H33948  11.237   3.086   6.744 -1.2840 -0.4181  0.7961
 1015MOL0     H33949  11.139   3.006   6.636 -0.8151 -3.6061 -0.7351
 1015MOL0     H33950  11.384   2.861   6.691  2.3861  2.0902  0.5328
 1015MOL0     H33951  11.403   3.014   6.617  0.6144 -0.0891 -0.4931
 1015MOL0     H33952  11.185   2.798   6.537 -0.7409  2.1319 -1.6156
 1015MOL0     H33953  11.236   2.931   6.435 -1.9828 -0.4568 -1.8138
 1015MOL0     H33954  11.406   2.706   6.517 -2.3470 -0.3012 -0.2245
 1015MOL0     H33955  11.471   2.843   6.433  0.0533 -0.6563 -3.0937
 1015MOL0     H33956  11.327   2.804   6.240  0.3527  0.9337  0.5791
 1015MOL0     H33957  11.235   2.666   6.303 -1.9694  1.9408  0.2662
 1015MOL0     H33958  11.529   2.640   6.272 -0.7308  0.9811 -2.4984
 1015MOL0     H33959  11.418   2.514   6.314  0.6798 -1.4714 -1.2886
 1015MOL0     H33960  11.475   2.679   6.067  0.8268  0.2399  0.9635
 1015MOL0     H33961  11.302   2.634   6.081 -0.0058 -0.3669  2.1437
 1015MOL0     H33962  10.814   2.998   6.933  1.4969 -0.3571 -1.2355
 1015MOL0     H33963  10.718   2.959   7.164 -2.0914 -2.2997 -0.5967
 1015MOL0     H33964  10.495   2.604   7.469 -1.7245  3.5309 -1.8078
 1015MOL0     H33965  10.428   2.587   7.699 -1.1183 -0.4520 -2.4921
 1015MOL0     H33966   9.025   2.338   7.419 -1.3527  0.0607 -0.4690
 1015MOL0     H33967   9.096   2.457   7.227 -1.0165 -1.0712 -2.9911
 1015MOL0     H33968   9.276   2.787   6.975  2.0480 -0.3546  1.1559
 1015MOL0     H33969   9.355   2.886   6.764  0.0633  0.3474  0.5324
 1015MOL0     H33970   9.624   2.638   6.511 -0.1988  1.0948 -0.1927
 1015MOL0     H33971   9.602   2.767   6.398 -0.8605 -0.4403 -1.4280
 1015MOL0     H33972   9.424   2.520   6.400  0.1613 -1.2285 -2.1741
 1015MOL0     H33973   9.370   2.683   6.342 -1.2373 -0.5941  0.2865
 1015MOL0     H33974   9.614   2.529   6.238  2.2740  1.8915  3.7558
 1015MOL0     H33975   9.541   2.691   6.179 -0.3022  0.2828  1.9530
 1015MOL0     H33976   9.407   2.429   6.156  1.3104 -0.4230  0.5401
 1015MOL0     H33977   9.354   2.596   6.092 -0.0103  0.4216  2.5355
 1015MOL0     H33978   9.635   2.500   5.800 -1.5416  1.1692 -1.6189
 1015MOL0     H33979   9.492   2.510   6.617 -0.7572  0.1644 -1.2267
 1015MOL0     H33980   9.400   2.403   6.821  1.3138  0.2273 -1.8352
 1016MOL0     O33981   1.646   5.472   3.365  0.3170  0.8877 -0.0930
 1016MOL0     C33982   1.656   5.587   3.414 -0.0862  0.4559  0.2548
 1016MOL0     O33983   1.686   5.690   3.340  0.2646 -0.4197  0.2994
 1016MOL0     C33984   1.674   5.704   3.207 -0.7193  0.7792  0.4620
 1016MOL0     C33985   1.597   5.616   3.122  0.4606 -0.7815  0.3531
 1016MOL0     C33986   1.571   5.651   2.985 -0.0475 -0.9955 -0.4006
 1016MOL0     C33987   1.633   5.769   2.934  0.3637 -0.5615  0.2660
 1016MOL0     O33988   1.618   5.823   2.812 -0.3741 -0.0657 -0.1893
 1016MOL0     C33989   1.542   5.750   2.715  0.5086  0.1901  0.3757
 1016MOL0     C33990   1.629   5.671   2.616 -0.3466 -0.3662 -0.1929
 1016MOL0     C33991   1.716   5.760   2.525  0.5581  0.2546  0.9046
 1016MOL0     C33992   1.800   5.670   2.432 -0.7998 -0.8129 -0.7014
 1016MOL0     C33993   1.897   5.772   2.346  0.2553  0.6311  0.5527
 1016MOL0     C33994   1.944   5.695   2.217 -0.1268  0.6027 -1.0000
 1016MOL0     C33995   2.043   5.765   2.134 -0.0750  0.1916 -0.2752
 1016MOL0     C33996   2.038   5.708   1.988 -0.6824 -0.3561 -0.1285
 1016MOL0     N33997   1.923   5.741   1.909 -0.0220 -1.4751 -0.1229
 1016MOL0     C33998   1.884   5.870   1.884  0.4564 -1.1625  0.3935
 1016MOL0     C33999   1.760   5.866   1.819  0.4066 -1.4200  0.3481
 1016MOL0     C34000   1.690   5.980   1.747  0.2209  0.2859 -0.0508
 1016MOL0     C34001   1.635   6.087   1.836  0.5660 -0.5023 -0.4153
 1016MOL0     C34002   1.559   6.194   1.749  0.1110  0.4739 -0.7599
 1016MOL0     C34003   1.517   6.318   1.831  0.0978 -0.6414 -0.3617
 1016MOL0     O34004   1.418   6.387   1.767  0.6103 -0.2596  0.4206
 1016MOL0     C34005   1.358   6.490   1.828 -0.3798 -0.2627  0.1513
 1016MOL0     C34006   1.255   6.530   1.739 -0.2051  0.7934 -0.7361
 1016MOL0     C34007   1.166   6.630   1.790  0.2481  0.2527 -0.2197
 1016MOL0     C34008   1.190   6.684   1.919  0.2368 -0.9972  0.8782
 1016MOL0     C34009   1.093   6.788   1.970  0.5630  0.2372  0.7629
 1016MOL0     O34010   1.091   6.794   2.110 -0.1172 -0.0789  0.4052
 1016MOL0     C34011   1.011   6.876   2.178 -0.2363 -0.3452 -0.0897
 1016MOL0     C34012   0.871   6.886   2.152 -0.2997 -0.1294  0.1037
 1016MOL0     C34013   0.810   7.006   2.192  0.3316 -0.2698 -0.4512
 1016MOL0     C34014   0.876   7.090   2.280  0.7718 -0.1971  0.4117
 1016MOL0     O34015   0.798   7.194   2.332 -0.6585 -0.2118 -0.3746
 1016MOL0     C34016   0.823   7.326   2.286 -0.0055  0.3301  1.1721
 1016MOL0     C34017   0.718   7.353   2.173 -0.4634 -0.8077  0.1701
 1016MOL0     C34018   0.775   7.476   2.083 -0.0682  0.9800 -0.3942
 1016MOL0     C34019   0.671   7.520   1.971 -0.4157 -1.2349 -0.4733
 1016MOL0     C34020   0.572   7.626   2.025 -0.0325 -0.8093  0.2676
 1016MOL0     C34021   0.639   7.764   2.021  0.3861  0.3220 -0.1407
 1016MOL0     C34022   0.549   7.872   2.090  0.4197  0.2590 -0.6546
 1016MOL0     C34023   0.617   8.010   2.085 -0.3360 -0.7675  0.3058
 1016MOL0    Cl34024   0.585   8.073   1.912  0.4944 -0.3265 -0.1059
 1016MOL0     C34025   1.012   7.068   2.327 -0.5316  0.3211  0.8092
 1016MOL0     C34026   1.076   6.959   2.273 -0.7010 -0.1874 -1.2740
 1016MOL0     O34027   1.036   6.868   1.892  0.5190 -0.4363  0.1407
 1016MOL0     C34028   1.298   6.641   2.001  0.0418  0.1226  0.2478
 1016MOL0     C34029   1.384   6.548   1.947  0.5949 -0.1920  0.0801
 1016MOL0     N34030   1.737   5.728   1.796  0.1480 -1.8283  0.5072
 1016MOL0     N34031   1.822   5.660   1.866 -0.5707 -0.4806  0.3751
 1016MOL0     C34032   1.728   5.841   3.008  0.1822  0.5611  0.2050
 1016MOL0     C34033   1.745   5.809   3.143 -0.4123  0.6344  0.6376
 1016MOL0     C34034   1.640   5.621   3.553  0.8717  0.5051 -0.4964
 1016MOL0     C34035   1.651   5.528   3.659 -0.7966  0.4799 -0.5091
 1016MOL0     C34036   1.620   5.556   3.794 -0.6007 -0.1068 -0.4245
 1016MOL0     C34037   1.580   5.673   3.836  1.1032 -0.0864  0.3503
 1016MOL0     O34038   1.567   5.700   3.973  0.5154  0.3382 -0.3271
 1016MOL0     C34039   1.504   5.820   4.013  0.0546 -0.0715  0.3617
 1016MOL0     C34040   1.499   5.824   4.156 -0.1197 -0.3561 -0.4226
 1016MOL0     C34041   1.447   5.953   4.225 -0.6414 -1.2699 -0.8084
 1016MOL0     C34042   1.318   6.016   4.170 -1.2699  0.5131  0.8811
 1016MOL0     C34043   1.296   6.124   4.266  0.5366  0.2042 -0.3757
 1016MOL0     C34044   1.260   6.208   4.342  0.7911  0.5022  0.6008
 1016MOL0     C34045   1.547   5.764   3.732  0.3178 -0.5940  0.5171
 1016MOL0     C34046   1.580   5.739   3.595  0.1436 -0.6736 -0.1446
 1016MOL0     H34047   1.547   5.532   3.169 -1.3600  0.1718  0.1901
 1016MOL0     H34048   1.494   5.590   2.939  0.1313 -0.6611 -1.1556
 1016MOL0     H34049   1.488   5.819   2.650  0.5739  0.0284  0.1450
 1016MOL0     H34050   1.462   5.692   2.762  0.4808  0.0795  0.1960
 1016MOL0     H34051   1.560   5.620   2.548  1.8512 -0.3953 -2.5605
 1016MOL0     H34052   1.684   5.597   2.675  1.1245  4.0566  4.7463
 1016MOL0     H34053   1.775   5.824   2.591 -0.7313  1.1032  1.2834
 1016MOL0     H34054   1.647   5.815   2.461 -0.4579 -2.9123 -0.9566
 1016MOL0     H34055   1.861   5.603   2.494  2.4417  2.8782  0.5048
 1016MOL0     H34056   1.732   5.614   2.367  1.1555 -1.7766 -2.0250
 1016MOL0     H34057   1.982   5.811   2.402 -1.0457  1.3851  2.0732
 1016MOL0     H34058   1.830   5.856   2.330 -2.4827 -1.0819  2.0725
 1016MOL0     H34059   1.854   5.689   2.155  0.0841  0.7075 -1.3226
 1016MOL0     H34060   1.974   5.592   2.238  0.8166  1.1685  0.5930
 1016MOL0     H34061   2.028   5.873   2.125 -0.3036 -0.0122 -3.8115
 1016MOL0     H34062   2.145   5.744   2.169  0.9820  2.4149 -1.7869
 1016MOL0     H34063   2.043   5.598   1.993 -0.5690 -0.2923  1.8786
 1016MOL0     H34064   2.128   5.748   1.939 -0.0427 -0.5591  0.8551
 1016MOL0     H34065   1.947   5.957   1.901  0.5345 -1.5807  2.4102
 1016MOL0     H34066   1.604   5.932   1.700  0.9337  0.4846 -1.6198
 1016MOL0     H34067   1.762   6.019   1.674 -2.3155 -1.7886 -3.9942
 1016MOL0     H34068   1.711   6.128   1.902 -0.0432 -2.0263  1.3111
 1016MOL0     H34069   1.570   6.043   1.912  1.8570  0.0424  1.0591
 1016MOL0     H34070   1.616   6.229   1.663  2.7583 -2.2422 -0.2432
 1016MOL0     H34071   1.466   6.149   1.712  1.5504 -1.5181 -2.1866
 1016MOL0     H34072   1.596   6.393   1.832  0.0549 -0.5794  0.8844
 1016MOL0     H34073   1.503   6.285   1.935  0.0552  0.8769  0.1319
 1016MOL0     H34074   1.247   6.494   1.637  1.6971  1.2432 -1.0863
 1016MOL0     H34075   1.085   6.667   1.728  0.3538  1.6164  0.4074
 1016MOL0     H34076   0.820   6.808   2.096  0.7449 -1.7091  1.2805
 1016MOL0     H34077   0.709   7.034   2.165  0.1923  0.2812  0.5720
 1016MOL0     H34078   0.920   7.327   2.234 -2.2759 -0.7890 -3.6795
 1016MOL0     H34079   0.821   7.388   2.376  2.6402  0.0654  1.4830
 1016MOL0     H34080   0.619   7.379   2.214 -0.4720 -2.5163  1.3484
 1016MOL0     H34081   0.699   7.268   2.108 -2.5007  1.7039 -2.8077
 1016MOL0     H34082   0.872   7.446   2.042 -0.2041 -2.3125  1.3812
 1016MOL0     H34083   0.793   7.557   2.155  2.9260 -1.4055  1.8305
 1016MOL0     H34084   0.712   7.562   1.879  1.8356  0.6981  1.2730
 1016MOL0     H34085   0.618   7.427   1.950  1.3386 -2.9311  1.9998
 1016MOL0     H34086   0.549   7.607   2.130  1.1293 -2.5198  0.2507
 1016MOL0     H34087   0.482   7.617   1.963  0.0159 -2.1741  0.3543
 1016MOL0     H34088   0.666   7.793   1.919  0.9204 -0.9930 -0.3830
 1016MOL0     H34089   0.731   7.763   2.081 -1.6079 -0.0859  3.1320
 1016MOL0     H34090   0.452   7.880   2.040  0.1852 -0.5484 -0.3460
 1016MOL0     H34091   0.519   7.838   2.190  1.3109  1.8267  0.1848
 1016MOL0     H34092   0.724   7.989   2.096  0.5298  0.9609 -3.3443
 1016MOL0     H34093   0.590   8.081   2.164 -0.3135  0.6346 -0.9016
 1016MOL0     H34094   1.066   7.123   2.402  1.1068  0.5538 -0.4952
 1016MOL0     H34095   1.182   6.954   2.297 -0.4016  1.6385 -2.0346
 1016MOL0     H34096   1.319   6.699   2.090  3.5048 -4.9105  3.1831
 1016MOL0     H34097   1.462   6.510   2.013 -1.2002 -1.5512  1.5039
 1016MOL0     H34098   1.787   5.920   2.961  0.9079  0.7416  1.3781
 1016MOL0     H34099   1.821   5.860   3.202  0.4815 -0.0227  0.0871
 1016MOL0     H34100   1.698   5.438   3.621 -0.3993  0.5850 -0.2675
 1016MOL0     H34101   1.631   5.488   3.878  0.0758 -0.3344 -0.6936
 1016MOL0     H34102   1.402   5.824   3.973  0.2149  2.3047  0.0290
 1016MOL0     H34103   1.560   5.907   3.977 -0.2700  0.7418  1.7409
 1016MOL0     H34104   1.426   5.751   4.192 -0.6478  1.6362  3.0825
 1016MOL0     H34105   1.593   5.815   4.212 -1.5864  0.4732  2.4140
 1016MOL0     H34106   1.519   6.034   4.209 -2.3689 -0.0741 -3.2278
 1016MOL0     H34107   1.453   5.934   4.333  1.3021 -1.0983 -0.8543
 1016MOL0     H34108   1.335   6.059   4.070  0.4871 -1.4805  0.2401
 1016MOL0     H34109   1.239   5.942   4.156 -0.9866  0.5998 -1.8031
 1016MOL0     H34110   1.225   6.283   4.409  3.1745  0.6253  1.8089
 1016MOL0     H34111   1.502   5.855   3.771 -0.3153 -1.4692  1.8936
 1016MOL0     H34112   1.551   5.809   3.516 -1.8494 -2.0718 -0.7442
 1017MOL0     O34113   3.513   5.425   4.315 -0.3496  0.7225  0.6957
 1017MOL0     C34114   3.613   5.462   4.372  0.3745 -0.8803  0.0349
 1017MOL0     O34115   3.635   5.481   4.511 -0.3605 -0.2339 -0.3180
 1017MOL0     C34116   3.525   5.461   4.598 -0.9085  0.4688  0.5593
 1017MOL0     C34117   3.395   5.509   4.584  0.1771 -1.3483  0.0296
 1017MOL0     C34118   3.298   5.498   4.686 -0.6943  0.3781 -0.8090
 1017MOL0     C34119   3.330   5.422   4.796  0.8953  1.1614 -0.5709
 1017MOL0     O34120   3.228   5.387   4.893  0.2971  0.4889  0.7265
 1017MOL0     C34121   3.115   5.465   4.910 -0.0569 -0.0129 -0.7114
 1017MOL0     C34122   3.075   5.469   5.054  0.6738 -0.0403 -0.0627
 1017MOL0     C34123   3.185   5.514   5.146 -0.0197  0.4117 -0.6971
 1017MOL0     C34124   3.127   5.515   5.289 -0.2616 -0.0432  0.4070
 1017MOL0     C34125   3.222   5.561   5.402  0.2105  0.6598 -0.9691
 1017MOL0     C34126   3.186   5.512   5.543 -0.6857 -0.3933 -0.2173
 1017MOL0     C34127   3.300   5.531   5.647  0.1438 -0.1076  0.7762
 1017MOL0     C34128   3.334   5.677   5.689 -0.6364  0.0536  0.1711
 1017MOL0     N34129   3.215   5.764   5.717 -0.4367  0.9819  0.2777
 1017MOL0     C34130   3.223   5.890   5.652  0.6587 -0.3873 -0.9190
 1017MOL0     C34131   3.137   5.977   5.728 -0.5212  0.7666  0.3520
 1017MOL0     C34132   3.107   6.128   5.714  0.1077 -0.2649  1.0077
 1017MOL0     C34133   3.063   6.208   5.841  0.3353  1.0210  0.0347
 1017MOL0     C34134   3.132   6.166   5.977 -0.0093 -0.2108  0.7265
 1017MOL0     C34135   3.286   6.151   5.967  0.2286 -0.1882 -0.7450
 1017MOL0     O34136   3.329   6.161   6.098  0.5462  0.3138  0.1092
 1017MOL0     C34137   3.460   6.193   6.122 -0.0320 -0.1640 -0.1791
 1017MOL0     C34138   3.495   6.323   6.160 -0.2360 -0.8490  0.6786
 1017MOL0     C34139   3.622   6.358   6.198  0.3187 -0.3031  0.0679
 1017MOL0     C34140   3.725   6.255   6.194 -0.0214  0.3395 -0.0829
 1017MOL0     C34141   3.859   6.293   6.230  0.1038  0.5511 -0.0460
 1017MOL0     O34142   3.945   6.188   6.250 -0.1974  0.0679  0.5831
 1017MOL0     C34143   4.080   6.210   6.256  0.3225  0.1562  1.3871
 1017MOL0     C34144   4.150   6.101   6.209 -0.9868 -0.1316 -0.7696
 1017MOL0     C34145   4.291   6.109   6.198  0.4987 -0.7819 -0.0254
 1017MOL0     C34146   4.364   6.224   6.234  0.4904 -0.1665 -0.1176
 1017MOL0     O34147   4.501   6.233   6.244 -1.1007 -0.3287  0.3294
 1017MOL0     C34148   4.572   6.242   6.117  0.4089  0.0881  0.3173
 1017MOL0     C34149   4.687   6.155   6.102  0.2286 -0.0820  0.3518
 1017MOL0     C34150   4.820   6.197   6.161  1.0369 -0.1905  0.2400
 1017MOL0     C34151   4.919   6.079   6.162  0.6259  0.0160  0.0409
 1017MOL0     C34152   5.066   6.137   6.177  0.6280  0.8157  0.4607
 1017MOL0     C34153   5.193   6.039   6.189 -0.9118  0.2355 -0.4520
 1017MOL0     C34154   5.330   6.109   6.213 -0.1833  0.5558  0.2483
 1017MOL0     C34155   5.376   6.194   6.103 -0.6694  0.3312 -1.4195
 1017MOL0    Cl34156   5.526   6.288   6.148 -0.1886  0.2770 -0.0614
 1017MOL0     C34157   4.295   6.338   6.277 -0.2137  0.3572  0.1310
 1017MOL0     C34158   4.153   6.324   6.303 -0.6808 -0.0284  0.6729
 1017MOL0     O34159   3.889   6.409   6.246  0.1449  0.5507 -0.0580
 1017MOL0     C34160   3.687   6.125   6.152 -0.1519  0.1153 -0.4114
 1017MOL0     C34161   3.560   6.093   6.115  0.7286 -0.4456 -0.1780
 1017MOL0     N34162   3.090   5.892   5.828 -0.2694 -0.2315  0.2095
 1017MOL0     N34163   3.149   5.779   5.838 -0.2902  0.4205  1.2703
 1017MOL0     C34164   3.462   5.374   4.812 -0.0568  0.2711 -0.3900
 1017MOL0     C34165   3.563   5.401   4.720 -0.5276  0.8463 -0.1479
 1017MOL0     C34166   3.729   5.500   4.286 -1.4514 -0.6908 -0.1183
 1017MOL0     C34167   3.845   5.543   4.348 -0.3343  0.5379  0.7153
 1017MOL0     C34168   3.956   5.580   4.273  0.2976 -0.3903 -0.2245
 1017MOL0     C34169   3.944   5.597   4.131 -0.3105  0.4672 -0.1222
 1017MOL0     O34170   4.061   5.632   4.066  0.0322  1.1221  0.5549
 1017MOL0     C34171   4.055   5.683   3.935 -0.1172 -0.2621  0.1875
 1017MOL0     C34172   4.198   5.718   3.893  1.2026  1.4648  0.0680
 1017MOL0     C34173   4.214   5.815   3.771  0.4258 -0.3881  0.5517
 1017MOL0     C34174   4.124   5.781   3.654  0.3582  0.1282  0.0030
 1017MOL0     C34175   4.134   5.642   3.620  0.8015 -0.3948  0.3482
 1017MOL0     C34176   4.145   5.524   3.580 -0.0876 -0.8069  0.7773
 1017MOL0     C34177   3.822   5.569   4.073 -0.4152 -0.0309  0.6212
 1017MOL0     C34178   3.720   5.518   4.149  0.7356  0.0659 -0.1120
 1017MOL0     H34179   3.369   5.561   4.493 -0.1476 -0.4711  0.6065
 1017MOL0     H34180   3.200   5.540   4.666 -0.8479  0.5089  0.1709
 1017MOL0     H34181   3.042   5.414   4.847  1.1130 -0.1632 -1.9904
 1017MOL0     H34182   3.138   5.566   4.874  0.2671  0.4850  0.8199
 1017MOL0     H34183   3.045   5.370   5.090  0.2495 -0.5051 -1.5927
 1017MOL0     H34184   2.988   5.536   5.056 -2.0340 -3.3376  0.8368
 1017MOL0     H34185   3.220   5.616   5.124 -2.2997  1.2711 -0.5957
 1017MOL0     H34186   3.271   5.449   5.128  0.0446  0.7606 -1.7251
 1017MOL0     H34187   3.049   5.591   5.285  1.0349  1.2931 -1.0029
 1017MOL0     H34188   3.072   5.427   5.323 -0.3356  0.5025  1.7464
 1017MOL0     H34189   3.244   5.668   5.407  0.2813  0.6256  2.9294
 1017MOL0     H34190   3.319   5.514   5.388  0.1084  0.1481 -0.0944
 1017MOL0     H34191   3.153   5.408   5.546 -0.0432 -0.7652 -3.1349
 1017MOL0     H34192   3.104   5.570   5.586 -1.0254 -1.2160  0.2572
 1017MOL0     H34193   3.274   5.486   5.743  2.4333 -0.6297  1.2273
 1017MOL0     H34194   3.385   5.476   5.603 -0.4818 -1.3275  1.0354
 1017MOL0     H34195   3.407   5.725   5.623  1.1130 -0.3143  1.7309
 1017MOL0     H34196   3.387   5.663   5.784 -2.7121 -0.3124  1.3302
 1017MOL0     H34197   3.286   5.927   5.571  1.8560 -0.7027 -0.1462
 1017MOL0     H34198   3.053   6.156   5.623 -1.9601 -1.4513  1.8148
 1017MOL0     H34199   3.198   6.180   5.681  0.5283 -2.2768 -1.3337
 1017MOL0     H34200   2.957   6.190   5.862  0.6191 -0.6541  0.2215
 1017MOL0     H34201   3.073   6.315   5.824 -1.9013  1.6794  2.2956
 1017MOL0     H34202   3.104   6.238   6.054  0.0778 -0.6494  1.1714
 1017MOL0     H34203   3.096   6.066   6.004  0.5770 -0.2127  1.5131
 1017MOL0     H34204   3.327   6.242   5.922  1.6882 -1.5284 -2.2429
 1017MOL0     H34205   3.321   6.059   5.921 -1.1764 -1.0485 -0.1532
 1017MOL0     H34206   3.413   6.395   6.161 -0.6316 -0.9029 -4.1984
 1017MOL0     H34207   3.651   6.451   6.245  1.1545 -0.0197 -0.9473
 1017MOL0     H34208   4.109   6.004   6.183  1.4525 -2.4560  2.9850
 1017MOL0     H34209   4.357   6.023   6.187 -0.0244 -1.7498  3.4081
 1017MOL0     H34210   4.612   6.343   6.109  0.9260 -0.0485  1.0574
 1017MOL0     H34211   4.509   6.226   6.029 -1.2578  0.5405  1.3841
 1017MOL0     H34212   4.702   6.131   5.996 -0.7243  0.0833  0.1659
 1017MOL0     H34213   4.657   6.064   6.154 -0.8699  2.5227  4.8392
 1017MOL0     H34214   4.794   6.237   6.259 -1.2992 -1.1089  0.0537
 1017MOL0     H34215   4.861   6.279   6.102 -0.6870 -0.5327 -1.5483
 1017MOL0     H34216   4.892   6.002   6.235 -2.1715  3.1835  2.7192
 1017MOL0     H34217   4.913   6.015   6.074 -1.6182 -1.4063  1.1486
 1017MOL0     H34218   5.058   6.193   6.271  2.8523 -2.3590  2.7731
 1017MOL0     H34219   5.093   6.191   6.086 -3.7526 -0.7250 -2.0659
 1017MOL0     H34220   5.191   5.974   6.101  2.4650  0.1447 -0.5823
 1017MOL0     H34221   5.177   5.968   6.270 -1.7674  1.1736  0.2268
 1017MOL0     H34222   5.335   6.161   6.309 -0.8049  3.7280 -1.2826
 1017MOL0     H34223   5.410   6.035   6.207 -0.5463  0.2632 -2.5189
 1017MOL0     H34224   5.298   6.267   6.077  1.7065  4.4330  1.8164
 1017MOL0     H34225   5.413   6.131   6.021  4.1934  0.1419  0.6056
 1017MOL0     H34226   4.358   6.424   6.294 -1.4058  1.4007 -0.5803
 1017MOL0     H34227   4.098   6.410   6.340 -3.4210 -1.3023 -0.1741
 1017MOL0     H34228   3.768   6.053   6.152  0.4772  0.8117 -1.0060
 1017MOL0     H34229   3.543   5.990   6.085  0.9142  0.5648 -4.2906
 1017MOL0     H34230   3.473   5.320   4.905  1.6715  0.8558 -0.2198
 1017MOL0     H34231   3.665   5.370   4.736  0.1986  1.4411 -3.0283
 1017MOL0     H34232   3.852   5.529   4.455 -1.0314 -2.7222  0.4430
 1017MOL0     H34233   4.045   5.595   4.333  0.0212 -1.3023  0.4509
 1017MOL0     H34234   4.003   5.779   3.921 -1.7082 -0.8692  1.4954
 1017MOL0     H34235   4.010   5.607   3.870 -2.0832 -0.1619  1.3502
 1017MOL0     H34236   4.248   5.768   3.976 -1.1148  0.4512  2.2133
 1017MOL0     H34237   4.258   5.628   3.876  2.9906  2.6092  0.0518
 1017MOL0     H34238   4.320   5.818   3.743  0.6893  0.8874  1.6017
 1017MOL0     H34239   4.189   5.914   3.810  0.0953 -0.2183 -0.0829
 1017MOL0     H34240   4.021   5.792   3.689  1.2619 -1.1356  3.5942
 1017MOL0     H34241   4.131   5.843   3.564 -3.3725  1.3149  0.3508
 1017MOL0     H34242   4.164   5.428   3.536  1.8448  0.2720 -0.9270
 1017MOL0     H34243   3.796   5.585   3.969 -0.0419 -1.4426  0.2960
 1017MOL0     H34244   3.620   5.511   4.107 -0.6482 -0.4531  2.9736
 1018MOL0     O34245   9.238   5.205   3.488  0.3414 -0.4096 -0.3454
 1018MOL0     C34246   9.233   5.323   3.469 -0.6506 -0.3205  0.8209
 1018MOL0     O34247   9.306   5.398   3.375  0.5257  0.9800  0.3786
 1018MOL0     C34248   9.366   5.315   3.284  0.7259 -1.1812 -0.8256
 1018MOL0     C34249   9.291   5.260   3.179  0.3846 -0.6236 -0.0968
 1018MOL0     C34250   9.343   5.154   3.100  0.3008  1.0365 -0.2744
 1018MOL0     C34251   9.472   5.115   3.106 -1.5224 -0.4772 -0.3707
 1018MOL0     O34252   9.531   5.010   3.044  0.2716 -0.1803 -0.0520
 1018MOL0     C34253   9.451   4.905   2.984 -0.3476  0.3772 -0.0909
 1018MOL0     C34254   9.397   4.807   3.091  0.1454 -0.0457 -0.5472
 1018MOL0     C34255   9.257   4.745   3.061 -0.4604  0.3912 -0.4560
 1018MOL0     C34256   9.144   4.843   3.052 -0.8150  0.2965  0.1190
 1018MOL0     C34257   9.006   4.776   3.052 -0.4331  0.6588  0.6701
 1018MOL0     C34258   8.969   4.696   2.925 -0.8540  0.1655  0.3762
 1018MOL0     C34259   8.831   4.634   2.924  0.7791  0.5040  0.7800
 1018MOL0     C34260   8.834   4.496   3.006 -0.5631  0.1808  0.2100
 1018MOL0     N34261   8.907   4.379   2.942 -0.0818 -0.1825  0.0104
 1018MOL0     C34262   8.858   4.260   2.895 -0.0539 -0.3426  0.4772
 1018MOL0     C34263   8.964   4.184   2.872 -0.1140  0.3781 -0.4233
 1018MOL0     C34264   8.958   4.040   2.836  0.2709 -0.0551  0.2836
 1018MOL0     C34265   9.002   3.953   2.961 -0.3569 -0.3941  0.0324
 1018MOL0     C34266   8.906   3.979   3.073  0.5038  1.3269 -0.2956
 1018MOL0     C34267   8.791   3.871   3.091 -0.6625  0.5362  0.0173
 1018MOL0     O34268   8.705   3.877   2.978 -0.3259  0.7515  0.5659
 1018MOL0     C34269   8.565   3.841   3.004  0.3520  1.3512  0.2419
 1018MOL0     C34270   8.471   3.868   2.904  0.6267  0.2864  0.3392
 1018MOL0     C34271   8.333   3.837   2.924 -0.0040 -0.3051  0.6265
 1018MOL0     C34272   8.288   3.757   3.033  1.2244 -0.2860 -0.7055
 1018MOL0     C34273   8.145   3.712   3.060 -0.0046 -0.1628 -0.1659
 1018MOL0     O34274   8.053   3.756   2.967 -0.1063  0.1924 -0.4972
 1018MOL0     C34275   7.917   3.730   2.974 -0.3345 -0.9700 -0.4736
 1018MOL0     C34276   7.838   3.692   3.088  0.2121 -0.0357  1.1932
 1018MOL0     C34277   7.701   3.663   3.071  0.3990 -0.3958  0.9507
 1018MOL0     C34278   7.630   3.705   2.960 -0.7884  0.5922 -0.0259
 1018MOL0     O34279   7.487   3.705   2.971 -0.4821 -0.3987  0.5862
 1018MOL0     C34280   7.429   3.819   2.929 -0.0465  1.2433 -0.2322
 1018MOL0     C34281   7.278   3.832   2.958 -0.3959  0.8683  0.8695
 1018MOL0     C34282   7.245   3.849   3.106 -0.5220 -0.5918  0.4222
 1018MOL0     C34283   7.084   3.844   3.117 -0.6962 -0.2339  0.0619
 1018MOL0     C34284   7.013   3.718   3.070  0.1036 -0.1310  0.2268
 1018MOL0     C34285   7.076   3.590   3.133 -0.0846 -0.1211  0.5042
 1018MOL0     C34286   6.986   3.468   3.097  0.4885  0.4146  0.6622
 1018MOL0     C34287   7.005   3.427   2.947 -0.5911  1.3395 -0.2709
 1018MOL0    Cl34288   7.183   3.382   2.903 -0.0361  0.4643  0.2553
 1018MOL0     C34289   7.706   3.753   2.854 -0.8021  0.0246  0.3441
 1018MOL0     C34290   7.845   3.765   2.852 -0.6969  0.6207 -0.0586
 1018MOL0     O34291   8.118   3.635   3.152 -0.4111 -0.7154 -0.7987
 1018MOL0     C34292   8.380   3.738   3.139 -1.2465  0.7479  0.2877
 1018MOL0     C34293   8.513   3.785   3.128  0.0367  0.2109  0.7666
 1018MOL0     N34294   9.080   4.261   2.891  0.8573  0.8528  0.9581
 1018MOL0     N34295   9.045   4.376   2.940 -0.1451 -0.6017 -0.2051
 1018MOL0     C34296   9.552   5.185   3.204 -0.8801 -0.6036  1.2449
 1018MOL0     C34297   9.502   5.278   3.294  0.0543 -0.3066 -0.2810
 1018MOL0     C34298   9.118   5.395   3.528 -0.7396  0.4633  0.3212
 1018MOL0     C34299   9.056   5.345   3.644 -0.2914 -0.1790  0.0832
 1018MOL0     C34300   8.943   5.416   3.698  0.6991  0.9712  0.7116
 1018MOL0     C34301   8.890   5.532   3.633  0.2380  0.3482 -1.2377
 1018MOL0     O34302   8.781   5.613   3.671 -0.5393  0.4865  0.3680
 1018MOL0     C34303   8.706   5.572   3.784  1.1495  0.7308 -0.3142
 1018MOL0     C34304   8.784   5.594   3.914 -0.0245 -1.0803 -0.7095
 1018MOL0     C34305   8.682   5.605   4.022  0.0580  0.3220  0.4903
 1018MOL0     C34306   8.739   5.596   4.162 -1.0105 -0.7692 -0.3509
 1018MOL0     C34307   8.840   5.702   4.183  0.8968  0.7071  0.9427
 1018MOL0     C34308   8.935   5.761   4.215  0.3232 -1.8189  0.4428
 1018MOL0     C34309   8.967   5.583   3.525 -0.0521 -1.0009 -0.2568
 1018MOL0     C34310   9.073   5.515   3.475 -0.6472 -0.5255  0.0652
 1018MOL0     H34311   9.184   5.275   3.168 -0.2153 -2.2467  2.5159
 1018MOL0     H34312   9.268   5.113   3.033  0.0561 -1.1990  1.2673
 1018MOL0     H34313   9.528   4.849   2.929  2.9392  0.8882  3.5514
 1018MOL0     H34314   9.378   4.950   2.916 -0.1621  0.9981  0.1197
 1018MOL0     H34315   9.390   4.855   3.189 -0.7596  0.8339 -1.0228
 1018MOL0     H34316   9.466   4.725   3.112  1.9313  1.7948  1.1978
 1018MOL0     H34317   9.243   4.684   3.151  4.2481  1.1384  1.0564
 1018MOL0     H34318   9.263   4.681   2.972  3.2170  0.9001 -0.7257
 1018MOL0     H34319   9.163   4.907   3.138  2.4692  1.9307 -1.6218
 1018MOL0     H34320   9.149   4.916   2.971 -2.2268  0.6175  0.2840
 1018MOL0     H34321   8.928   4.850   3.072 -1.2414 -0.1913  0.7618
 1018MOL0     H34322   9.011   4.696   3.127  1.0967 -0.2450 -0.3530
 1018MOL0     H34323   9.041   4.615   2.909 -1.6722 -0.6129  0.5576
 1018MOL0     H34324   8.982   4.761   2.838 -2.7484 -0.9833 -0.8421
 1018MOL0     H34325   8.753   4.695   2.971 -2.0041 -2.1226 -0.1224
 1018MOL0     H34326   8.788   4.608   2.827  1.6769 -5.0953  1.5921
 1018MOL0     H34327   8.733   4.469   3.036 -1.5022  1.9673 -1.1465
 1018MOL0     H34328   8.897   4.510   3.094 -0.0661 -3.2868  0.5456
 1018MOL0     H34329   8.758   4.223   2.873  0.3710 -1.4614  0.3655
 1018MOL0     H34330   9.028   4.035   2.753 -1.7370  1.3379 -1.5984
 1018MOL0     H34331   8.860   4.009   2.799  0.1008 -0.0417  0.7147
 1018MOL0     H34332   9.105   3.977   2.990 -0.7833  0.1440  1.1513
 1018MOL0     H34333   8.988   3.853   2.918 -1.1407 -1.9358  3.5803
 1018MOL0     H34334   8.969   3.956   3.159  1.4093  1.9146 -0.7961
 1018MOL0     H34335   8.866   4.079   3.095  1.1537  1.2002  1.6469
 1018MOL0     H34336   8.731   3.897   3.179 -0.8530  2.2462 -0.5769
 1018MOL0     H34337   8.833   3.771   3.107  0.5952  1.0897  0.2808
 1018MOL0     H34338   8.504   3.918   2.813  1.8084  3.1415  2.2096
 1018MOL0     H34339   8.269   3.849   2.837  1.1348  1.7367 -0.0093
 1018MOL0     H34340   7.894   3.654   3.173  1.6135 -4.1773 -1.2980
 1018MOL0     H34341   7.637   3.629   3.152 -0.8138 -0.3127  0.0656
 1018MOL0     H34342   7.433   3.829   2.820 -3.1341 -2.3656 -0.8939
 1018MOL0     H34343   7.491   3.895   2.977  0.5724  0.6130 -0.0252
 1018MOL0     H34344   7.227   3.743   2.921 -3.5894  1.4165  3.4039
 1018MOL0     H34345   7.236   3.910   2.893  1.1045  0.2573 -0.9086
 1018MOL0     H34346   7.273   3.946   3.148 -4.1741 -0.1217  2.1586
 1018MOL0     H34347   7.297   3.776   3.169  0.2482  0.1807  0.7134
 1018MOL0     H34348   7.059   3.847   3.224  1.2668 -1.9477  0.6489
 1018MOL0     H34349   7.052   3.938   3.073  0.5414  1.3259  2.2831
 1018MOL0     H34350   7.023   3.725   2.961  1.9543  2.6463  0.4651
 1018MOL0     H34351   6.908   3.730   3.098 -0.4002  2.6739 -2.3438
 1018MOL0     H34352   7.084   3.615   3.239 -0.3955 -1.7841  0.9479
 1018MOL0     H34353   7.176   3.572   3.094 -1.4593  0.9473 -4.1461
 1018MOL0     H34354   7.014   3.382   3.160  0.6459  1.0178  1.4317
 1018MOL0     H34355   6.885   3.496   3.128  0.3503 -0.7100  1.3364
 1018MOL0     H34356   6.969   3.504   2.878  1.8659  2.2827 -0.5974
 1018MOL0     H34357   6.958   3.329   2.933 -0.7140  1.3954 -0.2456
 1018MOL0     H34358   7.654   3.783   2.763 -0.7633 -0.1591  0.2599
 1018MOL0     H34359   7.888   3.789   2.756  0.0203 -3.1972 -0.8421
 1018MOL0     H34360   8.351   3.689   3.231 -0.4202  2.7252  1.6745
 1018MOL0     H34361   8.581   3.760   3.209  0.3217  0.3283  0.5638
 1018MOL0     H34362   9.659   5.174   3.198 -0.8593  0.0132  0.2409
 1018MOL0     H34363   9.570   5.316   3.370 -2.2560  0.7625  1.3672
 1018MOL0     H34364   9.104   5.254   3.676  0.4014 -0.5025 -1.7171
 1018MOL0     H34365   8.906   5.371   3.790  1.4728  1.1850  1.1320
 1018MOL0     H34366   8.664   5.471   3.778  0.5328  0.9992 -0.6550
 1018MOL0     H34367   8.622   5.641   3.793 -2.2284 -3.1626  2.7370
 1018MOL0     H34368   8.844   5.508   3.947 -1.6811 -2.1801 -0.4407
 1018MOL0     H34369   8.856   5.675   3.908  2.0446 -2.6119  1.4835
 1018MOL0     H34370   8.610   5.522   4.025  0.1524  0.2675  2.1762
 1018MOL0     H34371   8.616   5.692   4.015 -1.1612 -0.6369 -0.4163
 1018MOL0     H34372   8.656   5.604   4.232 -1.8950 -1.3429 -1.2955
 1018MOL0     H34373   8.797   5.503   4.168  0.0025 -0.1237  0.1669
 1018MOL0     H34374   9.027   5.816   4.223 -1.1448  1.0414 -0.5301
 1018MOL0     H34375   8.937   5.674   3.474 -2.0385  0.9427  3.9907
 1018MOL0     H34376   9.115   5.562   3.387 -0.6369  2.8409  1.7227
 1019MOL0     O34377   3.979   7.069   0.789 -0.0320  0.0303 -0.2855
 1019MOL0     C34378   3.971   6.967   0.721 -1.0226 -1.1064 -0.0137
 1019MOL0     O34379   3.884   6.945   0.622  0.1901 -0.1807  0.2598
 1019MOL0     C34380   3.816   7.038   0.551 -0.0900  0.4665  0.2067
 1019MOL0     C34381   3.732   6.987   0.453 -0.1996  0.0532  1.0635
 1019MOL0     C34382   3.666   7.074   0.357  0.0509  0.8502  0.1721
 1019MOL0     C34383   3.671   7.212   0.373 -0.0723 -0.5172  1.0101
 1019MOL0     O34384   3.605   7.285   0.273  0.1572  0.5053 -0.6926
 1019MOL0     C34385   3.613   7.420   0.268 -0.8676 -0.6144  0.1458
 1019MOL0     C34386   3.531   7.462   0.145  0.1020  0.9456  0.6047
 1019MOL0     C34387   3.600   7.435   0.009 -0.6859  0.2055  1.0828
 1019MOL0     C34388   3.501   7.478  -0.097  0.9285  0.5975 -0.5850
 1019MOL0     C34389   3.559   7.446  -0.237 -0.5776  0.1872 -0.2888
 1019MOL0     C34390   3.474   7.506  -0.340  0.2666 -0.2652 -0.1796
 1019MOL0     C34391   3.396   7.398  -0.405 -0.1795 -0.6983  0.4341
 1019MOL0     C34392   3.484   7.322  -0.497 -0.8730 -0.0980  0.3941
 1019MOL0     N34393   3.416   7.216  -0.572  0.6250 -0.2504 -0.3750
 1019MOL0     C34394   3.355   7.101  -0.520  0.5062 -0.1065  0.2558
 1019MOL0     C34395   3.268   7.057  -0.613  0.2268  0.5304  1.0125
 1019MOL0     C34396   3.155   6.956  -0.598  0.0431  0.0950  0.7684
 1019MOL0     C34397   3.069   6.994  -0.482  0.8469 -0.5736  0.4992
 1019MOL0     C34398   3.009   6.876  -0.417 -0.2165 -0.1745  0.4854
 1019MOL0     C34399   2.960   6.900  -0.270  0.3929  0.3993  0.2465
 1019MOL0     O34400   2.856   7.004  -0.251 -0.0784  0.2097  0.3947
 1019MOL0     C34401   2.728   6.967  -0.282 -0.2776  0.5455 -0.3709
 1019MOL0     C34402   2.646   6.902  -0.189  0.5782  0.5104 -0.0199
 1019MOL0     C34403   2.513   6.870  -0.225  0.1837  0.5724  0.5221
 1019MOL0     C34404   2.470   6.893  -0.352  0.9346  0.9875  0.5186
 1019MOL0     C34405   2.338   6.836  -0.398  0.9325  0.0005  0.4535
 1019MOL0     O34406   2.269   6.906  -0.493  0.4576 -0.1779  0.7302
 1019MOL0     C34407   2.129   6.891  -0.499 -0.3727  0.3292 -0.0267
 1019MOL0     C34408   2.074   6.885  -0.624 -0.0149  0.0614  0.1775
 1019MOL0     C34409   1.935   6.903  -0.640  0.5857 -0.7205  0.1246
 1019MOL0     C34410   1.854   6.924  -0.528  0.5933 -0.4799  0.0319
 1019MOL0     O34411   1.716   6.939  -0.539 -0.3312 -0.4490 -0.2255
 1019MOL0     C34412   1.628   6.961  -0.426 -0.3164 -0.4264  0.2919
 1019MOL0     C34413   1.477   6.927  -0.444 -0.5430 -0.2187 -0.9803
 1019MOL0     C34414   1.406   7.027  -0.541 -0.9315  0.2010  0.4545
 1019MOL0     C34415   1.254   6.999  -0.536 -0.3958  1.1034 -0.2130
 1019MOL0     C34416   1.171   7.118  -0.580  0.4447 -0.7042 -0.4475
 1019MOL0     C34417   1.115   7.088  -0.721 -0.1026 -0.8925  0.1699
 1019MOL0     C34418   1.030   7.190  -0.795 -0.8517 -0.4008  0.1129
 1019MOL0     C34419   0.977   7.131  -0.927  0.5902 -0.7745  0.4979
 1019MOL0    Cl34420   0.876   7.262  -1.009  0.0804  0.2426 -0.5947
 1019MOL0     C34421   1.909   6.929  -0.407  0.3596 -0.3457  0.1239
 1019MOL0     C34422   2.047   6.921  -0.390 -0.2051 -0.2236 -0.5102
 1019MOL0     O34423   2.297   6.735  -0.346 -0.1830  0.4058  0.4643
 1019MOL0     C34424   2.549   6.963  -0.441 -0.6431 -0.1788  0.5480
 1019MOL0     C34425   2.672   7.001  -0.409  0.4161  0.1553 -0.1980
 1019MOL0     N34426   3.276   7.147  -0.720 -0.1555  0.3951 -1.5845
 1019MOL0     N34427   3.371   7.236  -0.695 -0.2518  0.1268 -0.0868
 1019MOL0     C34428   3.758   7.264   0.470 -0.0458 -0.5774 -0.4102
 1019MOL0     C34429   3.833   7.183   0.564  0.4046  0.5560  0.1726
 1019MOL0     C34430   4.067   6.863   0.756  1.3985  0.4163 -0.6104
 1019MOL0     C34431   4.043   6.728   0.707 -0.0668 -0.7992 -0.5493
 1019MOL0     C34432   4.129   6.627   0.748  0.7229 -0.2682 -0.0241
 1019MOL0     C34433   4.236   6.663   0.844  0.5841 -0.5351  1.3644
 1019MOL0     O34434   4.328   6.574   0.893  0.0437  0.4369  0.0554
 1019MOL0     C34435   4.359   6.441   0.816  0.1106 -0.1354  0.6461
 1019MOL0     C34436   4.419   6.484   0.681 -0.3237  0.6141  0.2161
 1019MOL0     C34437   4.484   6.354   0.617 -0.5674  0.2863 -0.1732
 1019MOL0     C34438   4.505   6.382   0.468  0.9575  0.9877 -0.1896
 1019MOL0     C34439   4.563   6.263   0.409  0.1699 -0.0714 -0.4862
 1019MOL0     C34440   4.616   6.163   0.366  0.2632  0.8922  0.2270
 1019MOL0     C34441   4.248   6.785   0.905 -0.0240  1.0865 -1.0420
 1019MOL0     C34442   4.156   6.873   0.864  0.6318  0.5022 -0.3221
 1019MOL0     H34443   3.733   6.880   0.435 -0.3451  0.6176 -3.6205
 1019MOL0     H34444   3.613   7.039   0.269  0.1376 -3.0012  1.4730
 1019MOL0     H34445   3.715   7.457   0.256 -1.1294 -0.4307 -1.8410
 1019MOL0     H34446   3.571   7.460   0.361  1.4580  1.5657  0.3934
 1019MOL0     H34447   3.499   7.565   0.162 -0.0714  0.7715  1.3615
 1019MOL0     H34448   3.438   7.406   0.149  0.8429 -0.3851  5.1325
 1019MOL0     H34449   3.637   7.332   0.017  1.9560  1.1903  4.9563
 1019MOL0     H34450   3.692   7.490  -0.011  1.3358 -2.9658  0.8922
 1019MOL0     H34451   3.410   7.419  -0.084  2.1661 -0.9908  1.4243
 1019MOL0     H34452   3.478   7.585  -0.089  2.3747  0.9902 -1.3725
 1019MOL0     H34453   3.560   7.338  -0.248 -3.3820  0.1826 -1.3752
 1019MOL0     H34454   3.660   7.488  -0.239  1.5818 -4.2455  2.0510
 1019MOL0     H34455   3.538   7.551  -0.417 -0.1213  0.8289  0.1148
 1019MOL0     H34456   3.409   7.587  -0.306 -1.2100 -2.5923  2.9274
 1019MOL0     H34457   3.343   7.334  -0.333  1.7150 -4.6153 -1.3485
 1019MOL0     H34458   3.304   7.437  -0.449 -0.4555  0.9263  2.3136
 1019MOL0     H34459   3.570   7.276  -0.449  0.9743  0.7116 -1.9635
 1019MOL0     H34460   3.534   7.394  -0.562  2.3107 -0.6014  2.0656
 1019MOL0     H34461   3.368   7.047  -0.427  2.4443  2.1734  1.4008
 1019MOL0     H34462   3.200   6.859  -0.576 -0.6455 -0.0704  1.5041
 1019MOL0     H34463   3.112   6.944  -0.697  3.1224 -1.4198 -0.5176
 1019MOL0     H34464   2.986   7.056  -0.518  2.3350  2.0985  1.3735
 1019MOL0     H34465   3.117   7.050  -0.402 -1.5255 -0.2037  1.7531
 1019MOL0     H34466   2.914   6.852  -0.467 -0.5560  0.6445  0.7191
 1019MOL0     H34467   3.078   6.791  -0.412  1.7140  1.4211  3.5949
 1019MOL0     H34468   3.048   6.939  -0.218  0.7904  2.2019 -1.6345
 1019MOL0     H34469   2.923   6.804  -0.234  0.0749 -0.1097 -1.3419
 1019MOL0     H34470   2.677   6.887  -0.087 -1.1569  0.9299  0.6132
 1019MOL0     H34471   2.460   6.803  -0.159  1.4967 -3.8865 -2.5059
 1019MOL0     H34472   2.141   6.866  -0.707  1.7107 -1.5493  1.8278
 1019MOL0     H34473   1.878   6.914  -0.732 -0.5881 -0.6689  0.8404
 1019MOL0     H34474   1.633   7.068  -0.403 -0.6262 -0.3723  0.1163
 1019MOL0     H34475   1.654   6.887  -0.350 -0.9911 -0.5834  0.3797
 1019MOL0     H34476   1.429   6.939  -0.346 -0.2493  1.5271 -1.0287
 1019MOL0     H34477   1.478   6.821  -0.473 -1.2035  0.0715 -2.1023
 1019MOL0     H34478   1.442   7.009  -0.643 -1.4651 -1.4696  0.5247
 1019MOL0     H34479   1.442   7.126  -0.513  1.3102 -0.4780  0.1582
 1019MOL0     H34480   1.230   6.903  -0.583 -2.4785  0.1644  2.5124
 1019MOL0     H34481   1.225   6.989  -0.431  2.5716  0.4417  0.6449
 1019MOL0     H34482   1.231   7.209  -0.569  2.2456 -1.8889 -0.0088
 1019MOL0     H34483   1.088   7.127  -0.510  1.0947  0.6793  0.1816
 1019MOL0     H34484   1.058   6.995  -0.709 -1.2263 -0.3333 -0.6067
 1019MOL0     H34485   1.191   7.055  -0.792 -0.8314 -0.7990 -0.6687
 1019MOL0     H34486   0.951   7.227  -0.729  0.6761  0.7453  1.3940
 1019MOL0     H34487   1.098   7.275  -0.813  1.6317 -2.6624 -2.1183
 1019MOL0     H34488   0.917   7.043  -0.905 -0.5457  0.0054  0.6029
 1019MOL0     H34489   1.063   7.108  -0.992  0.0672  0.8305 -0.8512
 1019MOL0     H34490   1.859   6.911  -0.311 -2.2505  2.1142 -0.6132
 1019MOL0     H34491   2.094   6.922  -0.292  2.2575 -0.8480 -1.5922
 1019MOL0     H34492   2.518   6.987  -0.543 -0.3147 -0.6506  0.3369
 1019MOL0     H34493   2.742   7.053  -0.473  0.8902  2.7442  2.2267
 1019MOL0     H34494   3.766   7.369   0.495  0.9639 -1.4842  3.9876
 1019MOL0     H34495   3.888   7.228   0.646 -0.2042 -2.5666  2.5011
 1019MOL0     H34496   3.949   6.717   0.654  0.1570 -0.6280 -0.9920
 1019MOL0     H34497   4.120   6.521   0.726  0.8305 -0.7334  1.9917
 1019MOL0     H34498   4.261   6.394   0.802 -1.5429  2.7729  1.7121
 1019MOL0     H34499   4.422   6.367   0.868  0.0749 -2.0827 -1.9164
 1019MOL0     H34500   4.349   6.519   0.605  0.3754 -0.6483 -1.0644
 1019MOL0     H34501   4.496   6.560   0.695  0.2846  0.3951 -1.6656
 1019MOL0     H34502   4.430   6.262   0.638 -0.0965  0.2998  1.1689
 1019MOL0     H34503   4.588   6.348   0.651 -0.3926  3.8424  0.3893
 1019MOL0     H34504   4.405   6.401   0.429 -0.7366  0.4263  3.4681
 1019MOL0     H34505   4.566   6.471   0.451  1.3509  0.2993 -2.8269
 1019MOL0     H34506   4.654   6.069   0.333  1.8643  0.8682  1.9640
 1019MOL0     H34507   4.327   6.802   0.977 -1.2706  0.0828  0.6345
 1019MOL0     H34508   4.146   6.966   0.920  2.0737  2.0945 -2.5478
 1020MOL0     O34509   0.176   0.967   8.475  0.0690  0.1995 -0.8926
 1020MOL0     C34510   0.210   1.011   8.585 -0.0517  0.0587  0.0910
 1020MOL0     O34511   0.276   1.131   8.608  0.3947  0.0243 -0.4389
 1020MOL0     C34512   0.277   1.233   8.514 -0.6000 -0.4190 -0.6324
 1020MOL0     C34513   0.199   1.256   8.398 -0.0842 -0.2186 -0.2439
 1020MOL0     C34514   0.232   1.360   8.308 -0.1764  0.0204  0.5381
 1020MOL0     C34515   0.325   1.461   8.342  0.1585  0.0262 -0.5635
 1020MOL0     O34516   0.329   1.563   8.252  0.1686 -0.6203  0.2256
 1020MOL0     C34517   0.453   1.625   8.220  1.1901  1.0154 -1.2673
 1020MOL0     C34518   0.517   1.551   8.105 -0.2082  0.2768 -0.2778
 1020MOL0     C34519   0.672   1.575   8.086  0.0834 -0.8441 -0.0460
 1020MOL0     C34520   0.764   1.498   8.182 -0.3588 -0.0462 -1.0917
 1020MOL0     C34521   0.899   1.567   8.184  0.4324 -0.4906 -0.3784
 1020MOL0     C34522   1.006   1.468   8.210 -0.9111 -0.6315  0.4418
 1020MOL0     C34523   1.148   1.527   8.230 -1.1726  0.7731 -0.4288
 1020MOL0     C34524   1.249   1.462   8.132  0.2940 -0.5873 -0.3091
 1020MOL0     N34525   1.269   1.317   8.153  0.0043  0.2248  0.0630
 1020MOL0     C34526   1.282   1.248   8.280  0.5593  0.3178 -0.1031
 1020MOL0     C34527   1.314   1.119   8.256  0.2132 -0.8712 -0.6457
 1020MOL0     C34528   1.344   1.013   8.351  0.0407  0.4112 -0.0278
 1020MOL0     C34529   1.221   0.984   8.425 -0.5725  0.3257 -0.3710
 1020MOL0     C34530   1.127   0.878   8.362  0.6944 -0.2671  0.3536
 1020MOL0     C34531   0.994   0.902   8.425 -0.1079 -0.6197 -0.3218
 1020MOL0     O34532   0.997   0.840   8.548 -0.7055 -0.2072 -0.5602
 1020MOL0     C34533   0.949   0.717   8.547  0.2072  0.6926  0.0382
 1020MOL0     C34534   0.816   0.679   8.510  0.6245 -0.3286 -0.1049
 1020MOL0     C34535   0.776   0.547   8.536 -0.1897  0.2227 -0.4772
 1020MOL0     C34536   0.863   0.448   8.598  0.6262 -1.1540 -0.0367
 1020MOL0     C34537   0.802   0.312   8.624 -0.5314  0.3269 -0.2135
 1020MOL0     O34538   0.680   0.279   8.569 -0.7887  0.3202  0.0500
 1020MOL0     C34539   0.646   0.148   8.585  0.6760 -0.1523  0.5023
 1020MOL0     C34540   0.730   0.038   8.554 -0.0261 -0.0642 -0.6738
 1020MOL0     C34541   0.686  -0.097   8.569  0.2918  0.0921  0.1831
 1020MOL0     C34542   0.555  -0.127   8.610  0.3654 -0.1032  0.8560
 1020MOL0     O34543   0.489  -0.247   8.630  0.0728  0.0739  0.2383
 1020MOL0     C34544   0.567  -0.362   8.631  0.3587 -0.1838  0.3501
 1020MOL0     C34545   0.479  -0.485   8.635 -0.7834 -0.4054 -0.0816
 1020MOL0     C34546   0.569  -0.608   8.624  0.0614 -0.2691  0.6457
 1020MOL0     C34547   0.485  -0.733   8.612 -0.1756 -0.1860  0.2504
 1020MOL0     C34548   0.568  -0.861   8.610  0.2864 -0.1085  0.2985
 1020MOL0     C34549   0.466  -0.984   8.627  0.4753  0.0886 -0.0241
 1020MOL0     C34550   0.522  -1.123   8.625 -0.7130  0.7846  0.3663
 1020MOL0     C34551   0.624  -1.154   8.738  0.2795 -0.3463  0.8253
 1020MOL0    Cl34552   0.675  -1.326   8.735  0.2052 -0.1349 -0.2892
 1020MOL0     C34553   0.468  -0.016   8.632  0.3733  0.3938 -0.4182
 1020MOL0     C34554   0.508   0.113   8.624  0.1615 -0.5393  0.1614
 1020MOL0     O34555   0.869   0.240   8.689  0.0579  0.5789 -0.0528
 1020MOL0     C34556   1.001   0.484   8.626 -0.0154 -0.9835  0.2299
 1020MOL0     C34557   1.032   0.623   8.604  0.6496  0.0752  0.0680
 1020MOL0     N34558   1.319   1.119   8.116 -0.2347  0.7387 -0.7197
 1020MOL0     N34559   1.285   1.225   8.058  0.1687  0.2445  0.5462
 1020MOL0     C34560   0.394   1.451   8.471  0.7552 -0.4910  0.8533
 1020MOL0     C34561   0.374   1.338   8.546  0.1736  0.6593  0.4949
 1020MOL0     C34562   0.181   0.924   8.697  0.4649  0.4330  0.7018
 1020MOL0     C34563   0.211   0.965   8.827  0.1216  1.0005 -0.5241
 1020MOL0     C34564   0.164   0.885   8.935 -0.8167  0.1622 -0.4908
 1020MOL0     C34565   0.088   0.765   8.922 -0.1272 -0.6184  0.4541
 1020MOL0     O34566   0.021   0.697   9.020 -0.1956 -0.7799 -0.4777
 1020MOL0     C34567   0.041   0.731   9.163 -0.2020  0.1748  0.0052
 1020MOL0     C34568  -0.061   0.846   9.178 -0.1384  0.4013 -0.7255
 1020MOL0     C34569  -0.012   0.943   9.295  0.0841 -0.1899  0.3278
 1020MOL0     C34570  -0.122   1.021   9.372  0.2950  0.3951 -0.3005
 1020MOL0     C34571  -0.207   1.100   9.286  0.4423  0.3944 -0.3927
 1020MOL0     C34572  -0.274   1.165   9.205 -0.0491 -0.2195 -0.5355
 1020MOL0     C34573   0.070   0.720   8.792  0.0971  0.4793  0.2977
 1020MOL0     C34574   0.116   0.797   8.683  1.1972  0.7791 -0.9397
 1020MOL0     H34575   0.120   1.183   8.384 -0.5350  0.4657 -1.3425
 1020MOL0     H34576   0.188   1.355   8.209 -2.2423  2.0309  1.2678
 1020MOL0     H34577   0.526   1.615   8.300  1.2925  4.6766 -0.7504
 1020MOL0     H34578   0.446   1.732   8.202  2.0790  2.2148  3.9566
 1020MOL0     H34579   0.460   1.577   8.016 -0.9184  0.2956  0.1747
 1020MOL0     H34580   0.497   1.444   8.110  1.6819 -0.0629  1.1552
 1020MOL0     H34581   0.704   1.679   8.080  1.0301 -1.0986  0.3460
 1020MOL0     H34582   0.710   1.536   7.991  1.3029 -0.2413  0.1750
 1020MOL0     H34583   0.732   1.509   8.286  0.1285  0.5895 -0.9984
 1020MOL0     H34584   0.758   1.396   8.145 -0.7535 -0.3634 -0.1824
 1020MOL0     H34585   0.899   1.636   8.269 -2.1322 -1.3535  0.4270
 1020MOL0     H34586   0.921   1.613   8.088 -1.5754 -0.0183 -0.6687
 1020MOL0     H34587   1.013   1.399   8.126  3.0254  1.5098 -1.2084
 1020MOL0     H34588   0.983   1.399   8.292 -2.0585 -0.3787  0.3572
 1020MOL0     H34589   1.160   1.636   8.223  0.4814  1.0282  3.5202
 1020MOL0     H34590   1.174   1.509   8.335 -0.8289 -0.0617 -0.6527
 1020MOL0     H34591   1.344   1.515   8.140 -0.6889  1.5409 -1.8943
 1020MOL0     H34592   1.203   1.484   8.036 -1.5772  0.3281  0.7516
 1020MOL0     H34593   1.261   1.264   8.385 -2.2044 -5.0560  0.5079
 1020MOL0     H34594   1.432   1.038   8.411 -0.0135  0.8788 -0.1430
 1020MOL0     H34595   1.379   0.925   8.297  0.8315  2.1417 -2.5101
 1020MOL0     H34596   1.165   1.076   8.442  1.4404  2.1822 -2.9286
 1020MOL0     H34597   1.247   0.950   8.526 -1.7167 -0.1027 -0.2052
 1020MOL0     H34598   1.113   0.884   8.253 -1.1577 -0.4564  0.5478
 1020MOL0     H34599   1.156   0.774   8.378 -2.6707 -1.7341 -1.7710
 1020MOL0     H34600   0.915   0.860   8.361 -0.0357 -0.2844 -0.6271
 1020MOL0     H34601   0.968   1.007   8.433 -2.9051 -1.0534 -2.1697
 1020MOL0     H34602   0.738   0.739   8.463  2.1527  1.1037 -0.9456
 1020MOL0     H34603   0.673   0.516   8.522  0.3443 -1.7144 -0.4285
 1020MOL0     H34604   0.836   0.045   8.531 -0.3211 -1.2901 -2.6888
 1020MOL0     H34605   0.754  -0.177   8.541 -0.5716 -0.8089  0.5891
 1020MOL0     H34606   0.628  -0.348   8.721  0.1311  3.8495  0.0907
 1020MOL0     H34607   0.633  -0.373   8.545 -0.4330 -2.8876  0.0161
 1020MOL0     H34608   0.421  -0.470   8.544  0.6937  5.1247 -0.4323
 1020MOL0     H34609   0.411  -0.488   8.721 -1.9356  2.5697 -0.7781
 1020MOL0     H34610   0.635  -0.614   8.712  2.8606  0.9041 -1.2213
 1020MOL0     H34611   0.629  -0.603   8.533 -0.0939  1.6361  0.6171
 1020MOL0     H34612   0.433  -0.741   8.708  2.9612  0.7112  2.2120
 1020MOL0     H34613   0.415  -0.717   8.530 -1.6269 -1.2303  1.2305
 1020MOL0     H34614   0.642  -0.866   8.691 -0.2437 -2.4399  0.7194
 1020MOL0     H34615   0.625  -0.863   8.517 -0.4325  0.4582 -0.1620
 1020MOL0     H34616   0.389  -0.974   8.551 -1.7559 -1.7178  1.8626
 1020MOL0     H34617   0.409  -0.978   8.720 -2.3198  0.4564 -1.6723
 1020MOL0     H34618   0.434  -1.185   8.644  0.5095 -2.3135 -2.9235
 1020MOL0     H34619   0.567  -1.156   8.531 -2.1034  0.9573 -0.3925
 1020MOL0     H34620   0.586  -1.139   8.840  0.6510 -0.8091  1.0355
 1020MOL0     H34621   0.713  -1.092   8.727 -1.1510  1.9873  1.6406
 1020MOL0     H34622   0.369  -0.034   8.671  0.0859  1.0794 -0.8142
 1020MOL0     H34623   0.438   0.196   8.632  1.2952  0.6460 -1.5620
 1020MOL0     H34624   1.073   0.412   8.662 -1.6108 -2.6702  0.1897
 1020MOL0     H34625   1.126   0.667   8.636  1.4872  0.0871 -2.2509
 1020MOL0     H34626   0.468   1.522   8.507 -0.8397  1.0098  1.3924
 1020MOL0     H34627   0.449   1.320   8.622  2.1786 -0.9258 -1.6889
 1020MOL0     H34628   0.249   1.064   8.852 -1.6901  1.7259 -0.4271
 1020MOL0     H34629   0.178   0.930   9.033 -3.7012  2.8154 -1.1092
 1020MOL0     H34630   0.145   0.760   9.180 -0.7060  2.1658 -0.0296
 1020MOL0     H34631   0.027   0.648   9.233  1.5885  2.1533  2.9101
 1020MOL0     H34632  -0.054   0.903   9.085  3.9867  0.1508 -0.7562
 1020MOL0     H34633  -0.158   0.807   9.210 -1.2482  2.8509 -0.8426
 1020MOL0     H34634   0.053   1.022   9.257 -2.1963  1.4308 -0.4112
 1020MOL0     H34635   0.043   0.892   9.375  0.2210  0.1886  0.4749
 1020MOL0     H34636  -0.178   0.955   9.439  0.6324  1.2576  0.8594
 1020MOL0     H34637  -0.072   1.097   9.433 -0.9452  2.6735 -1.9409
 1020MOL0     H34638  -0.341   1.220   9.142  0.4143 -1.6949 -2.4028
 1020MOL0     H34639  -0.000   0.639   8.774  0.4339 -0.3248  2.3614
 1020MOL0     H34640   0.098   0.751   8.586 -0.9074 -0.8330  0.1186
 1021MOL0     O34641   5.098   9.937   0.152  0.2209  0.3087 -1.1624
 1021MOL0     C34642   5.166  10.018   0.216  0.4194  0.6692 -0.3931
 1021MOL0     O34643   5.154  10.148   0.237  0.3770 -0.1184  0.0028
 1021MOL0     C34644   5.059  10.222   0.167 -1.1050  0.0244 -0.5160
 1021MOL0     C34645   5.089  10.277   0.041  0.2690 -0.1152  0.8959
 1021MOL0     C34646   4.993  10.358  -0.026  1.6674 -1.0856 -1.2195
 1021MOL0     C34647   4.868  10.384   0.047  0.0379 -0.1362  0.9594
 1021MOL0     O34648   4.775  10.474  -0.017 -0.2439 -0.1937  0.3797
 1021MOL0     C34649   4.770  10.469  -0.168  0.5616  0.2257 -1.1515
 1021MOL0     C34650   4.632  10.497  -0.230  0.1506 -0.2500 -0.0238
 1021MOL0     C34651   4.578  10.633  -0.188 -0.6614  0.6236  0.2227
 1021MOL0     C34652   4.439  10.653  -0.240  0.3940 -0.4915 -0.3372
 1021MOL0     C34653   4.401  10.802  -0.234  0.6105 -0.4394  0.7397
 1021MOL0     C34654   4.267  10.840  -0.308 -0.4951 -0.8736  0.1615
 1021MOL0     C34655   4.141  10.795  -0.240  0.3783 -0.4536  0.3284
 1021MOL0     C34656   4.013  10.814  -0.325  0.3471  0.4179 -0.4209
 1021MOL0     N34657   4.019  10.814  -0.470 -0.4527  0.1265  0.5717
 1021MOL0     C34658   3.978  10.715  -0.549  0.0026 -0.2372 -0.0346
 1021MOL0     C34659   3.996  10.762  -0.676  0.0173 -1.5853 -0.1410
 1021MOL0     C34660   3.965  10.695  -0.805 -0.0087 -0.5713  0.6851
 1021MOL0     C34661   3.845  10.623  -0.805  0.5390  0.4496  0.1330
 1021MOL0     C34662   3.828  10.543  -0.938 -0.6173  0.3412 -1.1895
 1021MOL0     C34663   3.695  10.475  -0.943  0.8772 -0.0065  0.5312
 1021MOL0     O34664   3.668  10.393  -0.828 -0.2252  0.2243  0.2060
 1021MOL0     C34665   3.540  10.338  -0.821  0.0283 -0.5535 -0.6660
 1021MOL0     C34666   3.517  10.267  -0.697  1.4403  0.3274 -0.3803
 1021MOL0     C34667   3.389  10.191  -0.682  0.6991 -0.2128  0.4593
 1021MOL0     C34668   3.285  10.209  -0.776  1.2516 -0.3590  0.1051
 1021MOL0     C34669   3.151  10.144  -0.753 -0.3763 -0.1895  0.3252
 1021MOL0     O34670   3.132  10.062  -0.647 -0.4828 -0.6886 -0.3891
 1021MOL0     C34671   3.048   9.957  -0.659 -0.4481  0.1937  0.0873
 1021MOL0     C34672   2.974   9.907  -0.547 -0.7791 -0.6495 -0.7323
 1021MOL0     C34673   2.878   9.802  -0.554  0.0060 -0.5633  0.1500
 1021MOL0     C34674   2.860   9.732  -0.670  0.5635  0.0129 -0.4518
 1021MOL0     O34675   2.776   9.622  -0.670  0.0906 -0.5307 -0.1590
 1021MOL0     C34676   2.648   9.662  -0.733 -0.2435 -0.1881  0.0555
 1021MOL0     C34677   2.576   9.531  -0.763 -0.1750  0.1056 -0.0825
 1021MOL0     C34678   2.425   9.555  -0.780  0.3656  0.4919 -1.3334
 1021MOL0     C34679   2.347   9.433  -0.770 -0.2003  0.5854 -0.3769
 1021MOL0     C34680   2.198   9.480  -0.775  0.2788  0.6309 -0.9662
 1021MOL0     C34681   2.097   9.371  -0.743  0.2923  0.7911  0.3542
 1021MOL0     C34682   1.955   9.426  -0.736  0.3377 -0.5930 -0.5445
 1021MOL0     C34683   1.865   9.352  -0.631  0.0505 -0.5710  0.6161
 1021MOL0    Cl34684   1.704   9.427  -0.648  0.0366  0.3246  0.0490
 1021MOL0     C34685   2.921   9.777  -0.786  0.9231  0.3768  0.5602
 1021MOL0     C34686   3.018   9.885  -0.780 -0.3030 -0.7942 -0.2649
 1021MOL0     O34687   3.062  10.183  -0.829 -0.3237  0.2256 -0.8670
 1021MOL0     C34688   3.317  10.280  -0.897  0.8793  0.0325  0.1880
 1021MOL0     C34689   3.439  10.348  -0.919  0.1391 -0.5220  0.2606
 1021MOL0     N34690   4.061  10.883  -0.672  0.0497 -0.3954 -0.2416
 1021MOL0     N34691   4.081  10.912  -0.547  0.4019 -0.7229 -0.1165
 1021MOL0     C34692   4.837  10.335   0.171 -0.9925 -0.6315  0.3815
 1021MOL0     C34693   4.940  10.254   0.231 -0.8841 -0.2562  0.0477
 1021MOL0     C34694   5.287   9.961   0.267 -1.0482 -0.1916  0.3934
 1021MOL0     C34695   5.350   9.860   0.193  0.2375 -0.6237  0.0828
 1021MOL0     C34696   5.458   9.788   0.243 -0.2799 -0.4303 -0.4983
 1021MOL0     C34697   5.527   9.836   0.353  0.6100  1.0586 -1.1582
 1021MOL0     O34698   5.632   9.772   0.404 -1.3144  0.2327  0.5186
 1021MOL0     C34699   5.745   9.785   0.314  0.0781  0.7807 -0.3400
 1021MOL0     C34700   5.875   9.764   0.385 -0.4364 -0.4436  0.8477
 1021MOL0     C34701   6.000   9.793   0.293  0.6067 -0.1775 -0.0824
 1021MOL0     C34702   6.002   9.715   0.150 -0.5828 -1.3490 -0.2023
 1021MOL0     C34703   6.115   9.733   0.059  0.4862  1.0094 -0.5668
 1021MOL0     C34704   6.212   9.742  -0.010  0.6212  0.3069 -0.0223
 1021MOL0     C34705   5.474   9.943   0.429 -0.5275  0.3530  0.0641
 1021MOL0     C34706   5.355  10.004   0.387  0.1006 -0.0421 -0.2500
 1021MOL0     H34707   5.180  10.254  -0.014  0.0326 -0.0164  0.4629
 1021MOL0     H34708   5.008  10.406  -0.122  0.5350  0.3269 -0.7263
 1021MOL0     H34709   4.808  10.374  -0.206  0.2278 -0.1750 -0.5042
 1021MOL0     H34710   4.833  10.552  -0.201 -1.9517  3.1357  0.7420
 1021MOL0     H34711   4.578  10.415  -0.180 -0.2668  0.3730  0.5702
 1021MOL0     H34712   4.631  10.485  -0.339  0.2709  2.2468 -0.3508
 1021MOL0     H34713   4.648  10.707  -0.229  0.4663  1.8804  4.0130
 1021MOL0     H34714   4.592  10.641  -0.080 -0.1807  0.8984  0.1459
 1021MOL0     H34715   4.442  10.608  -0.340 -1.3395  1.0375 -1.1382
 1021MOL0     H34716   4.367  10.589  -0.187 -0.1066 -1.6473 -2.3042
 1021MOL0     H34717   4.484  10.856  -0.281  0.4841 -1.3761 -0.6098
 1021MOL0     H34718   4.381  10.818  -0.127  0.6698 -3.0815  1.2074
 1021MOL0     H34719   4.259  10.794  -0.407 -3.3532  0.6848 -0.4562
 1021MOL0     H34720   4.260  10.950  -0.312 -2.7958 -0.9590  0.4197
 1021MOL0     H34721   4.154  10.689  -0.214  0.2956 -0.6003 -0.2093
 1021MOL0     H34722   4.126  10.853  -0.149  0.8920  1.8773 -1.0001
 1021MOL0     H34723   3.976  10.915  -0.302 -2.3551 -1.2645  3.6190
 1021MOL0     H34724   3.925  10.754  -0.305 -0.3741  0.7898 -2.3015
 1021MOL0     H34725   3.926  10.625  -0.519 -0.0949  0.1003  0.8265
 1021MOL0     H34726   4.052  10.629  -0.801  0.3480 -0.0654  2.0944
 1021MOL0     H34727   3.980  10.762  -0.891 -2.1619 -2.9375 -1.6793
 1021MOL0     H34728   3.751  10.679  -0.794  0.1038  0.0308 -1.2743
 1021MOL0     H34729   3.831  10.558  -0.719 -1.6742 -0.2494 -0.6833
 1021MOL0     H34730   3.844  10.613  -1.021  1.4599  0.4254 -0.7893
 1021MOL0     H34731   3.905  10.466  -0.953  0.4184  1.0321  0.3798
 1021MOL0     H34732   3.698  10.417  -1.035  0.6817  1.9683 -0.7829
 1021MOL0     H34733   3.621  10.551  -0.966 -0.6545 -1.2393  1.2318
 1021MOL0     H34734   3.601  10.265  -0.629  0.5264  1.6646  0.8659
 1021MOL0     H34735   3.381  10.124  -0.597  3.0515 -2.0384 -0.6510
 1021MOL0     H34736   2.995   9.944  -0.447 -0.8622 -2.9534  0.1987
 1021MOL0     H34737   2.839   9.754  -0.465 -1.3116 -0.3031 -0.2624
 1021MOL0     H34738   2.655   9.726  -0.822  1.0824  0.2824  0.4734
 1021MOL0     H34739   2.592   9.721  -0.659  2.7859  2.1324  0.7162
 1021MOL0     H34740   2.587   9.466  -0.676  0.3096 -1.8492 -1.5186
 1021MOL0     H34741   2.624   9.482  -0.848 -1.9059  0.9722 -1.6258
 1021MOL0     H34742   2.404   9.596  -0.879 -1.4213  3.7559  0.2161
 1021MOL0     H34743   2.388   9.627  -0.706 -1.9333 -0.0452 -1.8797
 1021MOL0     H34744   2.382   9.367  -0.850  3.9525  0.0749  1.5934
 1021MOL0     H34745   2.368   9.377  -0.679  1.3586 -0.2487 -1.2023
 1021MOL0     H34746   2.176   9.527  -0.871  4.4030  0.6922 -2.0778
 1021MOL0     H34747   2.183   9.552  -0.694 -0.7046 -0.3306 -0.2570
 1021MOL0     H34748   2.129   9.319  -0.652  0.0064 -2.0314 -1.0300
 1021MOL0     H34749   2.093   9.294  -0.822 -1.5837  0.0977  1.0688
 1021MOL0     H34750   1.963   9.526  -0.694 -0.4933 -1.0929  0.8871
 1021MOL0     H34751   1.909   9.419  -0.835  0.7636  1.0725 -0.8894
 1021MOL0     H34752   1.907   9.358  -0.530  1.1716 -1.4022  0.2158
 1021MOL0     H34753   1.848   9.247  -0.657 -2.8534  0.1917 -1.0391
 1021MOL0     H34754   2.900   9.733  -0.884  1.6065  1.1714  0.0506
 1021MOL0     H34755   3.081   9.912  -0.864  1.8220  1.4789  1.8713
 1021MOL0     H34756   3.241  10.279  -0.974  1.4191 -0.7533 -0.3557
 1021MOL0     H34757   3.463  10.396  -1.013 -1.3802 -4.1884 -2.2106
 1021MOL0     H34758   4.750  10.355   0.233  0.7632  2.3734  2.1063
 1021MOL0     H34759   4.939  10.214   0.332  2.3415 -2.9227 -0.7756
 1021MOL0     H34760   5.303   9.811   0.109 -1.0495 -1.2322  1.1310
 1021MOL0     H34761   5.492   9.709   0.176 -0.9091 -2.5708  1.5986
 1021MOL0     H34762   5.745   9.880   0.260 -1.5153  0.8309 -0.2740
 1021MOL0     H34763   5.728   9.707   0.240 -0.1391  0.8740 -0.3883
 1021MOL0     H34764   5.882   9.836   0.467 -2.6480 -0.4723  1.1025
 1021MOL0     H34765   5.874   9.666   0.433 -2.3777 -0.8215  0.1036
 1021MOL0     H34766   6.099   9.780   0.337  0.8146 -1.1026 -0.8063
 1021MOL0     H34767   5.994   9.902   0.284 -0.8130  0.0533  2.5721
 1021MOL0     H34768   5.999   9.606   0.165 -4.0541 -1.4999 -1.2074
 1021MOL0     H34769   5.920   9.735   0.080 -0.2002  1.2063  0.0019
 1021MOL0     H34770   6.297   9.752  -0.074 -0.8847 -2.3655 -2.7137
 1021MOL0     H34771   5.512   9.985   0.521 -0.7662  0.2246  0.2217
 1021MOL0     H34772   5.306  10.086   0.439  5.8686  4.6689 -1.1063
 1022MOL0     O34773   1.070  10.110   1.802  0.0851  0.0824  0.1377
 1022MOL0     C34774   1.086  10.224   1.828 -0.3225 -0.1987 -0.8738
 1022MOL0     O34775   1.018  10.321   1.784  0.6433 -0.2187 -0.0082
 1022MOL0     C34776   0.936  10.305   1.685 -0.2758 -1.1138  0.0879
 1022MOL0     C34777   0.794  10.322   1.704  0.1405  0.0249  0.6701
 1022MOL0     C34778   0.708  10.301   1.596 -0.2649 -0.1065 -1.3292
 1022MOL0     C34779   0.748  10.250   1.482  0.4378 -0.0562  0.0034
 1022MOL0     O34780   0.662  10.236   1.381  0.5324 -0.0447 -0.1276
 1022MOL0     C34781   0.561  10.142   1.414 -0.1415  0.4356 -0.5814
 1022MOL0     C34782   0.422  10.193   1.374 -0.0453  0.3586  0.4629
 1022MOL0     C34783   0.300  10.094   1.370 -0.5185 -0.4583  0.0547
 1022MOL0     C34784   0.181  10.156   1.290  1.1368  0.0815 -0.0249
 1022MOL0     C34785   0.055  10.069   1.328 -0.1820  0.5850  0.5873
 1022MOL0     C34786  -0.068  10.132   1.255 -0.3388 -0.2905  0.4714
 1022MOL0     C34787  -0.208  10.088   1.300 -0.4338  0.3505 -0.5243
 1022MOL0     C34788  -0.329  10.181   1.266  0.3123  0.6308  0.6076
 1022MOL0     N34789  -0.457  10.104   1.244  0.8771  0.3216 -0.6297
 1022MOL0     C34790  -0.513  10.033   1.138 -0.1837  0.3038 -0.2333
 1022MOL0     C34791  -0.631   9.984   1.179  0.1889  0.2328  0.0252
 1022MOL0     C34792  -0.726   9.900   1.111  0.4686 -0.4425  0.6971
 1022MOL0     C34793  -0.823   9.975   1.021 -0.4574  0.1900 -0.5946
 1022MOL0     C34794  -0.878   9.892   0.898  0.8227  0.2591 -0.2176
 1022MOL0     C34795  -0.788   9.844   0.794 -0.1547 -0.2181  0.1061
 1022MOL0     O34796  -0.710   9.952   0.751  0.1342 -0.7463 -1.0839
 1022MOL0     C34797  -0.601   9.908   0.683  0.1315 -0.6908 -0.7631
 1022MOL0     C34798  -0.481   9.894   0.750  0.4242 -0.7227 -0.7917
 1022MOL0     C34799  -0.368   9.862   0.684  0.4441 -0.7534  1.2048
 1022MOL0     C34800  -0.371   9.834   0.549 -0.3421  0.0577  0.8955
 1022MOL0     C34801  -0.242   9.789   0.484  0.1616  0.2154  0.2360
 1022MOL0     O34802  -0.125   9.813   0.555  0.7443  0.5089 -0.2412
 1022MOL0     C34803  -0.000   9.766   0.521 -0.6533 -1.0819 -0.1197
 1022MOL0     C34804   0.043   9.779   0.387  0.2321 -0.2687 -0.1343
 1022MOL0     C34805   0.174   9.763   0.350 -0.4934  0.4679 -0.7203
 1022MOL0     C34806   0.262   9.717   0.441 -0.6767  0.5841 -1.0390
 1022MOL0     O34807   0.388   9.673   0.421 -0.3102 -0.6616 -0.9167
 1022MOL0     C34808   0.426   9.609   0.300 -0.0333  0.1314  0.1861
 1022MOL0     C34809   0.543   9.516   0.322 -0.0066  0.7116 -0.8809
 1022MOL0     C34810   0.607   9.449   0.202 -0.4726  0.1392  0.3587
 1022MOL0     C34811   0.750   9.407   0.227 -0.5311 -0.5240  0.2679
 1022MOL0     C34812   0.823   9.348   0.098  0.3235  0.3016 -0.5089
 1022MOL0     C34813   0.925   9.247   0.160 -0.2548 -0.2349  0.9763
 1022MOL0     C34814   1.015   9.152   0.073  0.4237 -0.5524 -0.3024
 1022MOL0     C34815   1.084   9.241  -0.027 -0.5483 -0.2825  0.5782
 1022MOL0    Cl34816   1.197   9.141  -0.117  0.2633 -0.0507  0.1655
 1022MOL0     C34817   0.219   9.708   0.578 -0.2883 -0.5502 -0.5919
 1022MOL0     C34818   0.092   9.733   0.619  0.5897 -0.9371  0.3322
 1022MOL0     O34819  -0.244   9.747   0.372 -0.6930 -0.8836  1.1066
 1022MOL0     C34820  -0.492   9.839   0.480 -0.0274  1.1104 -0.1926
 1022MOL0     C34821  -0.605   9.878   0.549  0.0823  0.6987 -0.1499
 1022MOL0     N34822  -0.648  10.027   1.313  0.5080  0.7362  0.5693
 1022MOL0     N34823  -0.542  10.087   1.351 -0.2264 -0.4238 -0.0904
 1022MOL0     C34824   0.881  10.250   1.449  0.4909  0.0754 -0.4917
 1022MOL0     C34825   0.970  10.272   1.553 -0.2925 -0.0840  0.2593
 1022MOL0     C34826   1.205  10.240   1.915 -0.1630 -0.1699 -0.7486
 1022MOL0     C34827   1.276  10.134   1.969 -0.7364  0.0843 -0.5852
 1022MOL0     C34828   1.385  10.155   2.059 -0.8269 -0.4277 -0.3468
 1022MOL0     C34829   1.432  10.291   2.082 -0.7930 -0.9131 -0.7758
 1022MOL0     O34830   1.540  10.310   2.158  0.0980  0.2578 -0.0306
 1022MOL0     C34831   1.665  10.307   2.084 -0.0124 -0.5129 -0.8210
 1022MOL0     C34832   1.686  10.426   1.992  0.1452 -0.1889 -0.2949
 1022MOL0     C34833   1.827  10.467   1.958  0.3372 -0.0816  0.2165
 1022MOL0     C34834   1.841  10.614   1.931  0.4329  1.4555  0.4033
 1022MOL0     C34835   1.746  10.653   1.828  0.6126 -1.0424 -1.0447
 1022MOL0     C34836   1.662  10.680   1.740 -0.3903  0.0256 -0.3037
 1022MOL0     C34837   1.350  10.394   2.030  0.4922  0.0337 -0.2551
 1022MOL0     C34838   1.237  10.369   1.951  0.3184 -0.2635 -0.0858
 1022MOL0     H34839   0.750  10.346   1.800 -0.3656  0.2361  0.3902
 1022MOL0     H34840   0.606  10.337   1.608  0.3864  1.3741  0.2792
 1022MOL0     H34841   0.559  10.121   1.521  1.6201  0.1900 -0.5690
 1022MOL0     H34842   0.575  10.043   1.369  0.9534  0.6688 -0.7890
 1022MOL0     H34843   0.438  10.233   1.273 -3.0647 -2.7504 -1.4441
 1022MOL0     H34844   0.404  10.275   1.444  2.2046 -0.1293  1.7071
 1022MOL0     H34845   0.284  10.056   1.472 -1.1078  1.5499  0.7502
 1022MOL0     H34846   0.323  10.008   1.307 -0.8162 -2.3208  2.3489
 1022MOL0     H34847   0.163  10.258   1.325 -1.8318  0.4503 -2.2493
 1022MOL0     H34848   0.207  10.162   1.184  1.3827  2.3285  0.1067
 1022MOL0     H34849   0.061  10.065   1.437  2.0568 -1.6174  0.4798
 1022MOL0     H34850   0.076   9.964   1.303  0.8229  0.5256  1.5970
 1022MOL0     H34851  -0.054  10.118   1.148  1.0968 -5.6002  1.0106
 1022MOL0     H34852  -0.056  10.240   1.266 -1.3068  0.0681 -1.6250
 1022MOL0     H34853  -0.224   9.989   1.256 -2.3359 -0.3774  1.6195
 1022MOL0     H34854  -0.196  10.064   1.405 -0.9981  1.0363 -0.2940
 1022MOL0     H34855  -0.319  10.235   1.171  0.2140 -1.3554 -0.5846
 1022MOL0     H34856  -0.330  10.249   1.351  1.8483 -1.3521  2.2974
 1022MOL0     H34857  -0.460  10.006   1.048  0.7715  0.0019  0.3960
 1022MOL0     H34858  -0.781   9.840   1.184  1.1377  0.2395  1.7951
 1022MOL0     H34859  -0.658   9.834   1.056 -1.0523 -0.5448 -1.1938
 1022MOL0     H34860  -0.776  10.066   0.983  1.6524 -1.2255 -1.5621
 1022MOL0     H34861  -0.903  10.016   1.083  0.2599  0.6513  0.0299
 1022MOL0     H34862  -0.950   9.819   0.937 -1.1747  2.2886  0.1330
 1022MOL0     H34863  -0.938   9.970   0.850  0.4472  0.9280  1.2700
 1022MOL0     H34864  -0.851   9.802   0.716 -2.8524  1.7865  1.0465
 1022MOL0     H34865  -0.726   9.762   0.830  1.3692  0.7232 -0.2944
 1022MOL0     H34866  -0.468   9.914   0.856 -0.5959 -1.4796 -0.5052
 1022MOL0     H34867  -0.272   9.858   0.735  0.8832  1.3516  0.6325
 1022MOL0     H34868  -0.030   9.832   0.327  1.3618  3.2039  1.3478
 1022MOL0     H34869   0.193   9.788   0.246 -1.1251  2.1787 -0.4593
 1022MOL0     H34870   0.452   9.682   0.223 -2.0245 -1.0047 -1.6646
 1022MOL0     H34871   0.338   9.556   0.261  1.3669 -1.5972 -0.7360
 1022MOL0     H34872   0.512   9.436   0.389 -0.1975 -0.8456 -2.7375
 1022MOL0     H34873   0.614   9.577   0.378  1.7719  0.2015 -2.4605
 1022MOL0     H34874   0.617   9.526   0.125  0.2441 -0.7517 -0.4673
 1022MOL0     H34875   0.546   9.364   0.167 -2.3968  1.7225 -0.3332
 1022MOL0     H34876   0.810   9.492   0.260 -2.0715  2.0858 -2.9941
 1022MOL0     H34877   0.755   9.332   0.306  1.1228 -1.4972 -0.7021
 1022MOL0     H34878   0.879   9.425   0.044  2.4442 -1.0611 -0.3843
 1022MOL0     H34879   0.758   9.293   0.028  0.5451  1.2480 -1.4838
 1022MOL0     H34880   0.860   9.180   0.218 -4.3122  4.5053  2.5846
 1022MOL0     H34881   0.995   9.300   0.226  0.9747 -2.3821  1.5044
 1022MOL0     H34882   1.086   9.105   0.141  3.2984  3.2107 -0.3469
 1022MOL0     H34883   0.957   9.079   0.016  0.4110 -1.7384  1.1631
 1022MOL0     H34884   1.134   9.324   0.022 -0.8878  1.9585 -2.6071
 1022MOL0     H34885   1.010   9.288  -0.093  2.1210  0.8184 -1.8474
 1022MOL0     H34886   0.294   9.692   0.655 -0.5677  0.3872 -0.1143
 1022MOL0     H34887   0.067   9.740   0.725  3.8043 -2.2960  1.3059
 1022MOL0     H34888  -0.490   9.827   0.372  1.6882 -1.4689  0.0247
 1022MOL0     H34889  -0.695   9.904   0.494  1.3009 -0.0159 -2.6422
 1022MOL0     H34890   0.927  10.217   1.356  0.4554  0.4520 -0.6430
 1022MOL0     H34891   1.070  10.266   1.513 -1.2714  0.0415 -2.4401
 1022MOL0     H34892   1.235  10.035   1.953  0.6662 -0.5790 -0.2103
 1022MOL0     H34893   1.425  10.068   2.110 -1.5892 -0.3046  0.4869
 1022MOL0     H34894   1.666  10.208   2.037  0.1879 -0.6566 -0.5147
 1022MOL0     H34895   1.738  10.306   2.165 -0.1479  2.5088 -0.5570
 1022MOL0     H34896   1.624  10.402   1.905  0.5784 -2.4746 -0.0405
 1022MOL0     H34897   1.645  10.515   2.041  4.1731  0.6766  1.9435
 1022MOL0     H34898   1.862  10.418   1.867 -0.3199  0.3764 -0.2921
 1022MOL0     H34899   1.882  10.439   2.048 -1.6419  1.5508  2.0448
 1022MOL0     H34900   1.828  10.681   2.016  1.0596  1.5717  0.4153
 1022MOL0     H34901   1.941  10.625   1.887 -0.2504 -0.7442 -1.9903
 1022MOL0     H34902   1.600  10.717   1.662 -2.4990  0.2380  1.3723
 1022MOL0     H34903   1.381  10.492   2.065  1.5259 -1.4665  3.5022
 1022MOL0     H34904   1.175  10.453   1.921  0.3157 -0.2659 -0.0866
 1023MOL0     O34905   2.011   8.644   4.025  0.1595  0.0539  0.7408
 1023MOL0     C34906   1.934   8.677   4.104  0.5935 -0.4069 -0.4046
 1023MOL0     O34907   1.802   8.699   4.081 -0.0069 -0.1007 -0.7489
 1023MOL0     C34908   1.758   8.745   3.964  0.4561  0.1363 -0.1817
 1023MOL0     C34909   1.828   8.810   3.866 -0.4384 -0.0439 -0.4112
 1023MOL0     C34910   1.748   8.861   3.750 -0.7155  0.0134 -0.9671
 1023MOL0     C34911   1.612   8.825   3.736 -0.1074  0.1314  0.0548
 1023MOL0     O34912   1.557   8.880   3.625 -0.5230 -0.3508 -0.0742
 1023MOL0     C34913   1.418   8.914   3.633 -0.2684 -0.6129 -0.0428
 1023MOL0     C34914   1.397   9.035   3.734  0.0905 -0.6109  0.4123
 1023MOL0     C34915   1.248   9.059   3.731  0.8549  0.3139 -0.2423
 1023MOL0     C34916   1.184   9.171   3.812  0.0839  0.5401 -0.1294
 1023MOL0     C34917   1.197   9.302   3.739  0.9108 -0.2808  0.5551
 1023MOL0     C34918   1.073   9.401   3.760  0.1392 -0.1290 -0.0155
 1023MOL0     C34919   1.032   9.420   3.911  0.9165 -0.8932 -0.3712
 1023MOL0     C34920   0.927   9.527   3.920  0.2352  0.0639 -0.2074
 1023MOL0     N34921   0.819   9.491   4.011  0.2966  0.6134 -0.1840
 1023MOL0     C34922   0.710   9.411   3.984  0.4472 -0.5424  0.4827
 1023MOL0     C34923   0.640   9.389   4.093 -0.7361 -0.4517 -1.2685
 1023MOL0     C34924   0.525   9.306   4.108 -0.1087  0.2666 -0.3667
 1023MOL0     C34925   0.408   9.387   4.109  0.9844 -1.0140 -0.7223
 1023MOL0     C34926   0.371   9.456   4.241  0.7258 -0.4406 -0.3274
 1023MOL0     C34927   0.249   9.543   4.226 -0.2693 -1.1390  0.4644
 1023MOL0     O34928   0.127   9.477   4.237 -0.0683 -0.3525  0.0931
 1023MOL0     C34929   0.014   9.532   4.182  0.4477 -0.0382  0.5964
 1023MOL0     C34930  -0.002   9.673   4.168 -0.7396  0.9490 -0.1353
 1023MOL0     C34931  -0.102   9.729   4.103  0.5861  0.2337 -0.1359
 1023MOL0     C34932  -0.205   9.647   4.057  0.4224 -0.2051 -0.0954
 1023MOL0     C34933  -0.330   9.709   3.990 -0.3740  0.1707  0.8189
 1023MOL0     O34934  -0.331   9.846   3.977 -0.4740  0.0334  0.5622
 1023MOL0     C34935  -0.446   9.915   3.953  0.5503 -0.5336  0.3146
 1023MOL0     C34936  -0.536   9.945   4.064 -0.3220  0.0754  0.4385
 1023MOL0     C34937  -0.651  10.009   4.027  0.4527 -0.1825 -1.0171
 1023MOL0     C34938  -0.692  10.049   3.900 -0.5006 -0.1482  0.3659
 1023MOL0     O34939  -0.817  10.103   3.867 -0.6051  0.1877  0.2534
 1023MOL0     C34940  -0.803  10.227   3.791  0.3103 -0.4743  0.0265
 1023MOL0     C34941  -0.921  10.230   3.691 -0.4398  0.8470  0.6347
 1023MOL0     C34942  -0.894  10.132   3.573  0.2106  0.3018  0.0017
 1023MOL0     C34943  -1.021  10.084   3.497 -0.2720  0.5121  0.6638
 1023MOL0     C34944  -1.116   9.989   3.584 -0.4138  0.6271  0.4543
 1023MOL0     C34945  -1.055   9.862   3.656 -0.8954  0.0274 -0.9577
 1023MOL0     C34946  -1.170   9.779   3.714 -0.2166  0.2935  0.7712
 1023MOL0     C34947  -1.207   9.838   3.844 -0.2993  0.1023  0.0350
 1023MOL0    Cl34948  -1.343   9.729   3.907 -0.6598 -0.0053  0.2323
 1023MOL0     C34949  -0.600  10.017   3.787  0.0799 -0.5891 -1.0091
 1023MOL0     C34950  -0.483   9.946   3.818 -0.2658  0.6477 -0.6618
 1023MOL0     O34951  -0.423   9.631   3.967 -0.2004 -0.6279 -0.4533
 1023MOL0     C34952  -0.203   9.506   4.078 -0.9874 -0.4108 -0.5810
 1023MOL0     C34953  -0.083   9.452   4.145  0.0772  0.6777  0.9023
 1023MOL0     N34954   0.700   9.472   4.191 -0.5140 -0.7144 -0.3283
 1023MOL0     N34955   0.801   9.533   4.137  0.4509  0.2775 -0.3684
 1023MOL0     C34956   1.548   8.747   3.835 -0.5091  0.2607 -0.2930
 1023MOL0     C34957   1.622   8.722   3.951  0.4215  0.1168 -0.4322
 1023MOL0     C34958   1.973   8.674   4.242 -0.4870 -0.2535 -0.2500
 1023MOL0     C34959   2.068   8.593   4.290 -1.3329  0.0610  0.0179
 1023MOL0     C34960   2.114   8.596   4.417  0.5663 -0.7090 -0.4887
 1023MOL0     C34961   2.063   8.690   4.502  0.8374 -0.1661 -0.0375
 1023MOL0     O34962   2.092   8.706   4.637 -0.6843 -0.2806  0.8397
 1023MOL0     C34963   2.194   8.641   4.709  0.7870 -0.5273  0.4792
 1023MOL0     C34964   2.175   8.661   4.857  0.2849 -0.0562 -0.4068
 1023MOL0     C34965   2.089   8.544   4.921 -0.6890 -0.6391  0.6870
 1023MOL0     C34966   2.108   8.518   5.071  0.1107  0.0706 -0.4926
 1023MOL0     C34967   2.241   8.461   5.098 -0.7721  0.7481  0.4937
 1023MOL0     C34968   2.339   8.387   5.102  0.7801  0.0647 -0.0877
 1023MOL0     C34969   1.957   8.772   4.462 -0.3009 -0.0376 -0.7196
 1023MOL0     C34970   1.904   8.747   4.338 -0.1839  0.1564 -0.7497
 1023MOL0     H34971   1.935   8.823   3.879 -0.0615 -1.2375 -1.9030
 1023MOL0     H34972   1.788   8.940   3.686  0.8633  0.4549  0.5061
 1023MOL0     H34973   1.359   8.829   3.669  0.4264 -0.4888  1.4561
 1023MOL0     H34974   1.376   8.934   3.534 -4.0658 -0.7460  1.3482
 1023MOL0     H34975   1.439   9.127   3.691  0.9843 -2.3688 -2.8073
 1023MOL0     H34976   1.435   9.025   3.836 -2.2779  3.1596  1.8568
 1023MOL0     H34977   1.197   8.971   3.771 -1.1279  0.9480 -1.2377
 1023MOL0     H34978   1.213   9.068   3.628 -2.8014 -0.2107  0.8068
 1023MOL0     H34979   1.076   9.154   3.816  0.3997 -2.4658 -1.5013
 1023MOL0     H34980   1.234   9.173   3.909  2.8280  2.2887 -1.4602
 1023MOL0     H34981   1.188   9.289   3.631 -0.7753  1.3299  0.4334
 1023MOL0     H34982   1.287   9.360   3.760  1.3696 -0.1489 -1.5443
 1023MOL0     H34983   0.991   9.358   3.703 -0.0519  0.0601  0.1168
 1023MOL0     H34984   1.089   9.501   3.719 -0.0182  0.9912  2.4712
 1023MOL0     H34985   0.983   9.325   3.935 -0.3287 -0.9195 -2.8000
 1023MOL0     H34986   1.112   9.429   3.986  0.7838 -0.2776 -0.3014
 1023MOL0     H34987   0.881   9.550   3.823  1.0017  0.0618 -0.5779
 1023MOL0     H34988   0.979   9.621   3.939 -1.4978  0.6527  2.0162
 1023MOL0     H34989   0.678   9.378   3.885  0.6151 -1.7860  0.8209
 1023MOL0     H34990   0.526   9.252   4.203 -2.4292 -2.3905 -1.6878
 1023MOL0     H34991   0.512   9.240   4.022 -0.0020  1.2023 -1.1197
 1023MOL0     H34992   0.322   9.321   4.091 -1.0201  0.5550  2.2202
 1023MOL0     H34993   0.415   9.462   4.030 -1.1537 -1.0555 -1.0246
 1023MOL0     H34994   0.362   9.375   4.314  2.2410 -0.1397  0.2211
 1023MOL0     H34995   0.452   9.523   4.272 -0.0414  0.8552 -1.0497
 1023MOL0     H34996   0.263   9.599   4.134  2.1905  1.0897  2.0375
 1023MOL0     H34997   0.255   9.616   4.308 -2.5003 -0.2519 -0.0910
 1023MOL0     H34998   0.076   9.737   4.206  0.0046  2.2175 -3.4104
 1023MOL0     H34999  -0.116   9.837   4.102 -0.5485  0.1052 -1.4588
 1023MOL0     H35000  -0.497   9.921   4.163  2.4343 -5.5369 -1.5601
 1023MOL0     H35001  -0.720  10.021   4.110 -0.3705  0.3662 -1.7667
 1023MOL0     H35002  -0.703  10.245   3.749  0.3818  1.7215  0.9670
 1023MOL0     H35003  -0.809  10.312   3.860 -0.5186 -0.3962 -0.1347
 1023MOL0     H35004  -0.935  10.332   3.654  1.1942  0.8172 -0.1770
 1023MOL0     H35005  -1.004  10.198   3.755  1.2072  0.6190  2.7638
 1023MOL0     H35006  -0.849  10.041   3.612  1.5272  0.7058 -0.5271
 1023MOL0     H35007  -0.824  10.174   3.501 -2.9070  1.6404 -2.4836
 1023MOL0     H35008  -1.070  10.171   3.454  0.9787  1.1325  0.4482
 1023MOL0     H35009  -0.989  10.021   3.413 -0.2621  2.6962 -1.0348
 1023MOL0     H35010  -1.200   9.944   3.531  0.5441  1.7298 -2.1901
 1023MOL0     H35011  -1.155  10.049   3.666  1.4937 -0.4969  2.2918
 1023MOL0     H35012  -0.976   9.884   3.729 -0.8203 -1.7027 -0.4765
 1023MOL0     H35013  -1.007   9.801   3.579  0.6022  0.4812 -0.4223
 1023MOL0     H35014  -1.257   9.775   3.647 -0.2273  2.2482  0.6258
 1023MOL0     H35015  -1.135   9.676   3.726 -1.6098 -0.1158  1.5222
 1023MOL0     H35016  -1.230   9.944   3.830  0.1946 -0.0846 -2.8409
 1023MOL0     H35017  -1.124   9.830   3.915 -1.0949 -0.4048  0.9362
 1023MOL0     H35018  -0.629  10.051   3.688 -0.7628 -1.2346 -0.9894
 1023MOL0     H35019  -0.418   9.903   3.741  2.8678 -1.3254  2.7396
 1023MOL0     H35020  -0.283   9.441   4.045 -0.5414 -0.7885 -0.9310
 1023MOL0     H35021  -0.085   9.343   4.149  1.2881  0.4045 -2.3297
 1023MOL0     H35022   1.443   8.719   3.834 -0.4032 -0.3396 -2.7725
 1023MOL0     H35023   1.576   8.685   4.041 -0.1865  1.1346 -0.3033
 1023MOL0     H35024   2.108   8.522   4.218 -0.5457  3.9205 -3.8054
 1023MOL0     H35025   2.204   8.546   4.450 -0.3542 -2.3439 -0.3232
 1023MOL0     H35026   2.289   8.692   4.690  0.0761  1.1501  1.3091
 1023MOL0     H35027   2.179   8.537   4.678  0.4921 -0.0812 -0.9167
 1023MOL0     H35028   2.276   8.658   4.901  0.6229 -0.6224 -1.2143
 1023MOL0     H35029   2.123   8.755   4.880  1.2221  0.4291 -0.2043
 1023MOL0     H35030   2.118   8.453   4.868 -1.0477 -0.2553 -0.1730
 1023MOL0     H35031   1.988   8.569   4.888  0.4608  0.1471 -2.6478
 1023MOL0     H35032   2.116   8.617   5.119  4.0699  0.0389 -0.7684
 1023MOL0     H35033   2.030   8.451   5.106  0.4776 -0.5786 -0.9170
 1023MOL0     H35034   2.417   8.313   5.107  0.6948 -0.0294 -0.1512
 1023MOL0     H35035   1.909   8.834   4.537 -2.4675 -1.5259 -0.7878
 1023MOL0     H35036   1.809   8.787   4.305  1.0599  1.4402 -3.0275
 1024MOL0     O35037  10.422   0.721   8.761 -0.4715  0.0560 -0.0423
 1024MOL0     C35038  10.539   0.703   8.744 -0.6712 -1.0560  0.9483
 1024MOL0     O35039  10.618   0.619   8.812 -0.2863  0.3963  0.5297
 1024MOL0     C35040  10.605   0.590   8.938 -0.6061  0.1407 -0.0876
 1024MOL0     C35041  10.650   0.471   8.992 -0.3433  0.0906  0.7961
 1024MOL0     C35042  10.632   0.441   9.125  0.1391 -0.2696  0.1844
 1024MOL0     C35043  10.591   0.535   9.214 -0.2868 -0.5843  0.1177
 1024MOL0     O35044  10.586   0.504   9.345  0.2666  0.7181  0.2153
 1024MOL0     C35045  10.474   0.552   9.419 -0.0535  0.1968  0.3950
 1024MOL0     C35046  10.473   0.473   9.551  0.9820 -0.9248 -0.4654
 1024MOL0     C35047  10.583   0.511   9.655 -0.0663 -0.0567 -0.5026
 1024MOL0     C35048  10.541   0.626   9.740  0.6293  0.1284 -0.5156
 1024MOL0     C35049  10.661   0.687   9.796 -1.0235 -0.0953 -0.8153
 1024MOL0     C35050  10.648   0.821   9.877  0.1659  0.3665 -0.0534
 1024MOL0     C35051  10.603   0.941   9.792  0.3001  0.9339  0.4036
 1024MOL0     C35052  10.576   1.069   9.875  0.2793 -0.3975  0.0068
 1024MOL0     N35053  10.509   1.184   9.807 -0.2245 -0.4900 -0.4517
 1024MOL0     C35054  10.394   1.235   9.851  0.6935 -1.0978 -0.2549
 1024MOL0     C35055  10.372   1.348   9.775  0.8659 -0.9196  0.2719
 1024MOL0     C35056  10.274   1.459   9.786  0.5580  0.3243 -0.5212
 1024MOL0     C35057  10.244   1.516   9.650  0.5027 -0.5145  0.3225
 1024MOL0     C35058  10.125   1.615   9.654  0.5928  0.3043  0.4399
 1024MOL0     C35059  10.103   1.697   9.524 -0.3342 -0.2780  0.0044
 1024MOL0     O35060  10.023   1.610   9.439  0.3046  0.3952  0.1876
 1024MOL0     C35061  10.055   1.605   9.308  0.0313 -0.2973 -0.5080
 1024MOL0     C35062  10.103   1.488   9.257 -0.0753 -0.6406 -0.7504
 1024MOL0     C35063  10.156   1.490   9.133  0.1228  0.5108  0.3407
 1024MOL0     C35064  10.168   1.611   9.055 -0.3004 -0.2778  0.1167
 1024MOL0     C35065  10.228   1.610   8.927  0.0027  0.6460 -0.6446
 1024MOL0     O35066  10.239   1.734   8.876 -0.4854 -0.1524 -0.2984
 1024MOL0     C35067  10.309   1.745   8.748 -0.5900 -0.2521  0.1708
 1024MOL0     C35068  10.240   1.691   8.636  0.0809 -0.6043 -0.3207
 1024MOL0     C35069  10.304   1.705   8.511 -1.0599  0.1685 -0.1169
 1024MOL0     C35070  10.431   1.770   8.493  0.2162  0.5208 -0.3511
 1024MOL0     O35071  10.466   1.768   8.362 -0.6569 -0.2806 -0.5004
 1024MOL0     C35072  10.599   1.808   8.334  0.1966 -0.1801  0.0990
 1024MOL0     C35073  10.621   1.803   8.181  0.5240  0.9828 -0.8197
 1024MOL0     C35074  10.757   1.858   8.145 -0.5073 -0.1061  0.2322
 1024MOL0     C35075  10.787   1.816   8.008 -0.4467  0.0678 -0.0291
 1024MOL0     C35076  10.930   1.867   7.963  0.0772 -0.4297 -0.5089
 1024MOL0     C35077  10.942   2.016   7.921  0.6346 -0.3251  0.4014
 1024MOL0     C35078  10.882   2.032   7.775 -0.0752  0.1594  0.5562
 1024MOL0     C35079  10.986   1.992   7.670 -1.0278 -0.3722 -0.0943
 1024MOL0    Cl35080  10.930   2.059   7.511  0.6893 -0.1109 -0.2041
 1024MOL0     C35081  10.492   1.835   8.606  0.1861  0.4634 -0.1009
 1024MOL0     C35082  10.432   1.819   8.729 -0.1041 -0.1418 -0.3293
 1024MOL0     O35083  10.265   1.502   8.873  0.6208 -0.4202  0.2843
 1024MOL0     C35084  10.112   1.727   9.115  0.7305  0.2434  0.3011
 1024MOL0     C35085  10.047   1.722   9.238 -0.4070  0.8007 -0.0323
 1024MOL0     N35086  10.472   1.353   9.679 -0.5136 -0.1624 -0.1429
 1024MOL0     N35087  10.545   1.254   9.696 -0.4735  0.4908  0.6525
 1024MOL0     C35088  10.555   0.661   9.169  0.0108  0.7317  0.6421
 1024MOL0     C35089  10.558   0.688   9.030  0.1630 -0.2364  0.7936
 1024MOL0     C35090  10.615   0.776   8.636 -0.2315  0.2764  0.0121
 1024MOL0     C35091  10.731   0.724   8.585 -0.0815  0.1390 -0.4342
 1024MOL0     C35092  10.795   0.804   8.484 -0.2314 -0.7023 -0.4641
 1024MOL0     C35093  10.742   0.926   8.430 -0.7855 -0.0798 -0.2108
 1024MOL0     O35094  10.802   0.999   8.322  0.1144 -0.1359  0.0145
 1024MOL0     C35095  10.926   0.949   8.261 -0.2189 -0.5998  0.6387
 1024MOL0     C35096  11.053   0.961   8.344 -0.1691  0.5396  0.2148
 1024MOL0     C35097  11.087   1.102   8.389 -0.7033 -1.2477  0.1182
 1024MOL0     C35098  11.116   1.202   8.274 -0.2650  0.2578  0.4278
 1024MOL0     C35099  11.248   1.168   8.207  0.1857  1.1172  0.1148
 1024MOL0     C35100  11.347   1.133   8.150 -0.9694  1.1172  0.2641
 1024MOL0     C35101  10.627   0.977   8.488  0.0112 -0.6589  0.3573
 1024MOL0     C35102  10.560   0.897   8.579  0.3676  0.5824 -0.2046
 1024MOL0     H35103  10.684   0.393   8.925  3.7388  0.5166  2.0430
 1024MOL0     H35104  10.672   0.349   9.169  2.2837 -0.4579 -1.9615
 1024MOL0     H35105  10.384   0.527   9.361  1.4833  0.6549 -2.3524
 1024MOL0     H35106  10.474   0.661   9.428 -0.9832  0.6158 -3.0721
 1024MOL0     H35107  10.478   0.367   9.528 -2.9737 -0.8871 -2.4764
 1024MOL0     H35108  10.371   0.482   9.590  0.9619 -0.3882 -0.6319
 1024MOL0     H35109  10.675   0.541   9.604  0.4865 -0.3194  0.3136
 1024MOL0     H35110  10.604   0.422   9.714 -1.0233 -0.4905 -0.8040
 1024MOL0     H35111  10.491   0.707   9.686 -0.2014  1.0087  1.4651
 1024MOL0     H35112  10.470   0.592   9.816  0.4672 -0.1516 -0.7923
 1024MOL0     H35113  10.734   0.715   9.719 -0.7995  2.5446  0.2341
 1024MOL0     H35114  10.711   0.604   9.847 -1.1852 -0.3713 -1.1092
 1024MOL0     H35115  10.741   0.845   9.928  0.0397 -1.2200  1.0044
 1024MOL0     H35116  10.576   0.798   9.956  1.3365 -0.9126  0.6772
 1024MOL0     H35117  10.670   0.963   9.708  0.8065  2.4735  1.1833
 1024MOL0     H35118  10.502   0.905   9.770  0.6120  0.2824  0.0201
 1024MOL0     H35119  10.660   1.092   9.942 -0.4831  2.7859  0.0223
 1024MOL0     H35120  10.497   1.037   9.943 -1.0516  2.4724 -0.0600
 1024MOL0     H35121  10.333   1.199   9.934  1.5941  1.7424  1.8091
 1024MOL0     H35122  10.299   1.541   9.854 -2.1083 -0.1256  1.1432
 1024MOL0     H35123  10.181   1.423   9.831 -0.7640  3.6207 -0.3344
 1024MOL0     H35124  10.209   1.424   9.602 -1.2322  0.2097  0.1199
 1024MOL0     H35125  10.325   1.559   9.590  2.3060  0.6131  3.3467
 1024MOL0     H35126  10.038   1.552   9.674 -2.2784  4.3674  2.2381
 1024MOL0     H35127  10.142   1.681   9.739  1.0609 -0.7225  1.1511
 1024MOL0     H35128  10.193   1.725   9.469 -0.6614  0.9847  0.0821
 1024MOL0     H35129  10.045   1.788   9.543  1.1186  0.2369  2.4241
 1024MOL0     H35130  10.104   1.405   9.327  0.7367  1.1765  1.5371
 1024MOL0     H35131  10.188   1.392   9.097 -2.2843 -0.5039  0.8045
 1024MOL0     H35132  10.145   1.639   8.638  0.2142 -0.8441 -0.1852
 1024MOL0     H35133  10.251   1.674   8.422 -1.2618 -1.6667  0.6015
 1024MOL0     H35134  10.674   1.753   8.393 -0.1385  1.5856  2.2658
 1024MOL0     H35135  10.594   1.910   8.372 -1.8686 -0.7518  1.5151
 1024MOL0     H35136  10.540   1.851   8.127  0.5371  0.8547 -0.9560
 1024MOL0     H35137  10.617   1.696   8.158  0.0350  0.4603  1.3957
 1024MOL0     H35138  10.833   1.821   8.215  2.0269 -0.0811 -2.3016
 1024MOL0     H35139  10.749   1.965   8.161 -3.1483 -0.4391  1.5651
 1024MOL0     H35140  10.784   1.707   8.009 -0.6445 -0.1955 -5.1696
 1024MOL0     H35141  10.720   1.852   7.930 -0.9904 -1.6373 -0.3997
 1024MOL0     H35142  10.969   1.812   7.877  1.0948  0.2592 -0.4972
 1024MOL0     H35143  11.006   1.837   8.036  1.3563  1.8391 -0.8473
 1024MOL0     H35144  11.046   2.049   7.926  0.6360 -0.4797  3.7537
 1024MOL0     H35145  10.876   2.072   7.988 -0.8576 -0.3361 -1.0054
 1024MOL0     H35146  10.791   1.976   7.754 -0.1468  0.5933 -0.2918
 1024MOL0     H35147  10.860   2.137   7.755 -0.2075  0.2219  1.0031
 1024MOL0     H35148  10.994   1.884   7.657 -1.2178 -0.9542  3.6518
 1024MOL0     H35149  11.081   2.034   7.703 -0.5642 -0.9383 -0.6925
 1024MOL0     H35150  10.582   1.888   8.579  2.7425 -3.3739  0.0416
 1024MOL0     H35151  10.485   1.858   8.815 -0.5430 -3.0759  1.4357
 1024MOL0     H35152  10.131   1.817   9.057 -0.6939  0.1301 -0.3684
 1024MOL0     H35153  10.011   1.812   9.286 -0.1145  0.6369  0.5038
 1024MOL0     H35154  10.513   0.738   9.233 -3.7199  0.3169 -1.0429
 1024MOL0     H35155  10.520   0.786   9.004  0.0961 -0.2988  0.6560
 1024MOL0     H35156  10.784   0.634   8.611  0.7400  0.7370  0.0067
 1024MOL0     H35157  10.880   0.757   8.435 -0.8316 -2.5914  0.2568
 1024MOL0     H35158  10.935   1.018   8.176 -0.2610  1.0285  1.8909
 1024MOL0     H35159  10.911   0.846   8.229  0.0472 -1.1644  2.2581
 1024MOL0     H35160  11.043   0.900   8.435 -0.4278  0.7174  0.3067
 1024MOL0     H35161  11.141   0.922   8.293  0.6508  0.5439  1.5785
 1024MOL0     H35162  11.172   1.095   8.457 -1.5239  1.2264  1.5606
 1024MOL0     H35163  11.005   1.148   8.446  0.4488 -0.5155  1.2333
 1024MOL0     H35164  11.040   1.196   8.196  2.1171 -0.2543 -1.9988
 1024MOL0     H35165  11.100   1.305   8.309  0.6536  0.0772  1.4410
 1024MOL0     H35166  11.442   1.103   8.109  0.1302  1.9530  2.0718
 1024MOL0     H35167  10.589   1.071   8.449  2.4073 -0.2654 -1.2545
 1024MOL0     H35168  10.460   0.937   8.595  0.0459  0.6016 -2.0737
  11.40456  11.40456  11.40456
